FOO
135168
    1MOL0     O    1   5.451   3.208   2.155 -0.3595  0.6949 -0.0084
    1MOL0     C    2   5.525   3.232   2.061  0.9885  0.3490 -0.7287
    1MOL0     O    3   5.660   3.217   2.057  0.3541 -0.0283  0.8344
    1MOL0     C    4   5.724   3.156   2.161 -0.9883  1.2631  0.1865
    1MOL0     C    5   5.691   3.040   2.233 -0.1545 -1.2643 -0.3619
    1MOL0     C    6   5.775   2.982   2.334  0.3263  0.0662 -0.3252
    1MOL0     C    7   5.902   3.035   2.355 -0.6391 -0.4721  0.2645
    1MOL0     O    8   5.988   2.989   2.454 -0.6550  0.5157 -0.3183
    1MOL0     C    9   6.118   2.989   2.421 -0.0713  0.8508 -0.8098
    1MOL0     C   10   6.181   2.895   2.523 -0.7672  0.3743  0.5599
    1MOL0     C   11   6.200   2.973   2.645 -0.1287  0.7668  0.0469
    1MOL0     C   12   6.270   2.876   2.744  0.2049  0.5102 -0.3245
    1MOL0     C   13   6.285   2.945   2.877  0.3819 -0.1670 -0.9932
    1MOL0     C   14   6.325   2.845   2.978 -0.2795  0.2278  0.0151
    1MOL0     C   15   6.352   2.906   3.117  0.5643  0.6363  1.0311
    1MOL0     C   16   6.500   2.953   3.125 -0.8231  0.0040 -1.0222
    1MOL0     N   17   6.544   2.962   3.261 -1.1311 -0.0844  0.0483
    1MOL0     C   18   6.678   2.941   3.302  1.0020  0.3141 -0.3246
    1MOL0     C   19   6.683   2.993   3.428  0.8711  0.0256  0.1713
    1MOL0     C   20   6.797   2.989   3.523 -0.3972 -0.5049 -0.2910
    1MOL0     C   21   6.745   2.992   3.669  0.3573  0.2564  0.3671
    1MOL0     C   22   6.796   3.119   3.749  0.1328 -0.1401  0.5622
    1MOL0     C   23   6.726   3.130   3.884  0.6183 -0.3767 -0.6893
    1MOL0     O   24   6.771   3.041   3.991  0.1530 -0.3173 -0.3496
    1MOL0     C   25   6.684   3.003   4.106 -0.3870 -0.0408  0.1551
    1MOL0     C   26   6.735   2.906   4.185 -1.0874  0.0820  0.1476
    1MOL0     C   27   6.667   2.862   4.294 -0.1165  0.7408  0.7357
    1MOL0     C   28   6.549   2.908   4.342  0.2492 -0.8882  0.1722
    1MOL0     C   29   6.478   2.856   4.451  0.4054 -0.0249 -0.8713
    1MOL0     O   30   6.373   2.929   4.505  0.6392 -0.3851  0.1312
    1MOL0     C   31   6.325   2.921   4.637 -0.2451  0.6538 -0.0106
    1MOL0     C   32   6.386   2.855   4.744  0.9892  0.8303 -0.2167
    1MOL0     C   33   6.326   2.852   4.873 -0.1913  0.4157 -0.4672
    1MOL0     C   34   6.206   2.925   4.899  0.0422 -0.3569 -0.9050
    1MOL0     O   35   6.153   2.922   5.024  0.1972  0.5225  0.2458
    1MOL0     C   36   6.154   3.059   5.085 -0.1600  0.1099  0.9398
    1MOL0     C   37   6.140   3.065   5.227 -0.3238 -0.2038 -0.3938
    1MOL0     C   38   6.274   3.033   5.299 -0.4069  0.5653 -0.0951
    1MOL0     C   39   6.256   3.046   5.455  0.4699  0.2624 -0.0738
    1MOL0     C   40   6.389   3.036   5.528 -0.6312  0.2663  0.3495
    1MOL0     C   41   6.367   3.042   5.683 -0.0365 -0.8713  0.3371
    1MOL0     C   42   6.506   3.061   5.760 -0.0339 -0.3460 -0.0281
    1MOL0     C   43   6.490   3.051   5.908 -0.5399  0.6280  0.5150
    1MOL0    Cl   44   6.410   2.895   5.959 -0.1738  0.0837 -0.2504
    1MOL0     C   45   6.148   2.987   4.790 -0.1297  0.1471 -0.0230
    1MOL0     C   46   6.202   2.986   4.663  0.0835  0.0097 -0.3388
    1MOL0     O   47   6.517   2.753   4.501 -0.0326 -0.4196 -0.1816
    1MOL0     C   48   6.500   3.012   4.264  1.2757  0.3647  0.0264
    1MOL0     C   49   6.555   3.053   4.147 -0.0511 -0.3680  0.5761
    1MOL0     N   50   6.558   3.049   3.445 -0.7213 -0.4276 -0.3988
    1MOL0     N   51   6.492   3.048   3.341  0.8863 -0.8553  0.0858
    1MOL0     C   52   5.938   3.148   2.283 -0.5334  0.2834  0.1916
    1MOL0     C   53   5.858   3.199   2.181 -0.1065  0.4284  0.4072
    1MOL0     C   54   5.459   3.286   1.935  0.7510 -0.2672 -0.2005
    1MOL0     C   55   5.350   3.360   1.943  1.4802 -1.0898 -0.7121
    1MOL0     C   56   5.298   3.433   1.831 -0.4545  0.4499  0.8668
    1MOL0     C   57   5.359   3.421   1.703 -0.7673  0.0949  0.4228
    1MOL0     O   58   5.298   3.500   1.600  0.3287  0.0963  0.2368
    1MOL0     C   59   5.322   3.456   1.462  0.8293 -0.0043 -0.8889
    1MOL0     C   60   5.273   3.317   1.430 -0.4155 -1.0531 -1.2840
    1MOL0     C   61   5.114   3.316   1.428 -0.7628 -0.0036 -0.2550
    1MOL0     C   62   5.068   3.229   1.324 -0.5026  0.1756 -0.5003
    1MOL0     C   63   4.927   3.191   1.323  0.4001 -0.5176  0.9396
    1MOL0     C   64   4.809   3.167   1.320  0.8333 -0.0504  0.3321
    1MOL0     C   65   5.477   3.338   1.691  1.0820  0.2640 -0.6478
    1MOL0     C   66   5.528   3.276   1.810  0.5181  0.1809 -0.1857
    1MOL0     H   67   5.597   2.993   2.207 -0.9196  1.3508 -2.9221
    1MOL0     H   68   5.755   2.889   2.385 -0.9589  0.1632 -0.6222
    1MOL0     H   69   6.162   3.090   2.420 -0.5099  1.0458 -0.7308
    1MOL0     H   70   6.122   2.949   2.319 -1.0786 -1.3192 -0.0545
    1MOL0     H   71   6.272   2.857   2.476 -2.1695 -4.1686  1.1097
    1MOL0     H   72   6.113   2.810   2.535  0.7205 -0.7036  1.8111
    1MOL0     H   73   6.102   3.007   2.678  0.1824 -0.7345  2.8043
    1MOL0     H   74   6.267   3.057   2.625  4.0254 -1.9753  1.0250
    1MOL0     H   75   6.216   2.782   2.759 -1.6888  1.5844 -0.1471
    1MOL0     H   76   6.367   2.850   2.701 -1.1226 -0.4396 -2.9701
    1MOL0     H   77   6.195   2.999   2.905  1.5134  1.5691 -0.5766
    1MOL0     H   78   6.364   3.020   2.865  4.3652 -3.7221  0.3756
    1MOL0     H   79   6.415   2.788   2.955 -0.5165  0.6089 -2.1520
    1MOL0     H   80   6.239   2.777   2.986  0.2418 -0.3749  0.5064
    1MOL0     H   81   6.274   2.980   3.139  0.9892  2.4918 -2.9622
    1MOL0     H   82   6.343   2.826   3.191  1.5136  0.7318  1.2637
    1MOL0     H   83   6.503   3.054   3.082 -2.2855  0.7535  0.5086
    1MOL0     H   84   6.565   2.884   3.070  1.5383 -1.3184  2.9837
    1MOL0     H   85   6.751   2.887   3.244 -1.7040 -1.1664 -2.5814
    1MOL0     H   86   6.857   3.077   3.500 -1.4823  0.5088  0.5793
    1MOL0     H   87   6.865   2.904   3.524 -0.5970 -0.6835 -1.1476
    1MOL0     H   88   6.761   2.902   3.728 -4.5014 -1.0147  0.1649
    1MOL0     H   89   6.636   2.995   3.663  0.3877 -0.5414 -0.8891
    1MOL0     H   90   6.902   3.119   3.777  0.3223  0.6140 -0.0997
    1MOL0     H   91   6.773   3.209   3.690  3.1578 -0.9206 -2.1389
    1MOL0     H   92   6.621   3.111   3.860  0.2267  1.8843 -0.9412
    1MOL0     H   93   6.735   3.236   3.907  0.0452 -0.8616  2.1845
    1MOL0     H   94   6.823   2.856   4.148 -0.9280  0.2945  0.2408
    1MOL0     H   95   6.727   2.802   4.362  0.1398 -0.0517 -0.1723
    1MOL0     H   96   6.476   2.801   4.715  1.3047  2.4008 -2.3830
    1MOL0     H   97   6.377   2.795   4.950 -2.1680 -0.7045  0.0792
    1MOL0     H   98   6.066   3.114   5.051 -0.7982 -0.9418  0.8354
    1MOL0     H   99   6.242   3.116   5.055  0.1257 -0.2151  1.1651
    1MOL0     H  100   6.059   2.998   5.257 -1.8390  2.1134  1.0401
    1MOL0     H  101   6.105   3.166   5.251 -0.2470 -0.1646 -0.4472
    1MOL0     H  102   6.355   3.096   5.263 -0.0898 -1.0552 -2.4588
    1MOL0     H  103   6.300   2.930   5.274  1.2598  1.2231 -1.2422
    1MOL0     H  104   6.213   3.145   5.470 -2.4929 -1.1446  1.3946
    1MOL0     H  105   6.178   2.977   5.489  3.6291 -3.2210  0.8134
    1MOL0     H  106   6.440   3.129   5.502 -2.1899  1.0962  0.1272
    1MOL0     H  107   6.455   2.951   5.509 -0.5762  0.1293  1.1217
    1MOL0     H  108   6.316   2.949   5.710 -1.6327 -0.3281 -0.7456
    1MOL0     H  109   6.296   3.121   5.705  1.3418  1.2436 -2.2113
    1MOL0     H  110   6.568   2.974   5.736  2.0010  0.6612  1.3265
    1MOL0     H  111   6.554   3.156   5.733 -2.3972  1.7121  2.4187
    1MOL0     H  112   6.424   3.132   5.943 -0.6362  1.4986 -1.5813
    1MOL0     H  113   6.589   3.054   5.954  0.5009 -3.4705 -1.0354
    1MOL0     H  114   6.056   3.044   4.793 -0.3813 -0.2563 -0.0863
    1MOL0     H  115   6.146   3.040   4.588 -1.7211 -1.7903 -0.3598
    1MOL0     H  116   6.410   3.072   4.272  1.3791  0.5269 -0.0049
    1MOL0     H  117   6.498   3.123   4.087  0.9843 -1.3230 -1.6126
    1MOL0     H  118   6.027   3.210   2.279 -0.5334  0.2191 -1.9278
    1MOL0     H  119   5.896   3.283   2.123  1.6634 -1.2693 -1.0079
    1MOL0     H  120   5.288   3.355   2.032 -0.9933  1.9689 -2.0842
    1MOL0     H  121   5.207   3.492   1.845 -1.6460 -0.9156 -0.7020
    1MOL0     H  122   5.428   3.481   1.446  0.8851  0.1649 -0.3030
    1MOL0     H  123   5.264   3.532   1.409 -1.5764 -1.8191 -1.0093
    1MOL0     H  124   5.316   3.279   1.337 -1.0810 -0.9581 -1.6271
    1MOL0     H  125   5.305   3.255   1.515  1.5749  1.0715 -0.3611
    1MOL0     H  126   5.082   3.418   1.408 -2.4582 -0.8447 -2.2110
    1MOL0     H  127   5.072   3.283   1.524  1.1220  1.0854  1.0078
    1MOL0     H  128   5.095   3.272   1.227  0.0659  1.7725  0.3304
    1MOL0     H  129   5.117   3.131   1.332  0.6587  0.8412  1.0688
    1MOL0     H  130   4.707   3.133   1.321  0.8343 -0.1125 -0.5096
    1MOL0     H  131   5.534   3.331   1.599  3.2845  1.6664  0.5289
    1MOL0     H  132   5.623   3.222   1.808  1.8048  2.3176 -2.7054
    2MOL0     O  133   4.903   5.944   8.424 -0.9968 -0.2033  0.5247
    2MOL0     C  134   4.796   6.002   8.407 -0.4940  0.4979  0.1672
    2MOL0     O  135   4.680   5.949   8.377  0.0825  0.2030 -0.4994
    2MOL0     C  136   4.648   5.820   8.411  0.2738  0.3735 -0.8891
    2MOL0     C  137   4.508   5.789   8.411  0.6633  0.3134  0.2015
    2MOL0     C  138   4.466   5.659   8.444  0.3685  0.3052 -0.1671
    2MOL0     C  139   4.556   5.560   8.493  0.0869  0.5411 -0.5153
    2MOL0     O  140   4.522   5.431   8.515  0.2405 -0.2288  0.0255
    2MOL0     C  141   4.422   5.389   8.415 -0.1422 -0.6281  0.0685
    2MOL0     C  142   4.403   5.230   8.404 -1.0090 -0.3251 -0.2796
    2MOL0     C  143   4.303   5.187   8.302 -0.0426  0.3449  0.0898
    2MOL0     C  144   4.317   5.029   8.293  0.0247 -0.0421  0.8058
    2MOL0     C  145   4.230   4.964   8.185  0.1453  0.1859 -0.4216
    2MOL0     C  146   4.245   5.039   8.050 -0.4520 -0.4097 -0.2314
    2MOL0     C  147   4.214   4.932   7.936 -0.0948 -1.2237 -1.2226
    2MOL0     C  148   4.190   4.991   7.795 -0.0852 -0.1024 -0.1875
    2MOL0     N  149   4.312   5.056   7.739  0.0917  0.2569  0.1253
    2MOL0     C  150   4.354   5.191   7.767  0.4138 -0.4553  0.2842
    2MOL0     C  151   4.468   5.200   7.691 -0.5367 -0.5202  0.1583
    2MOL0     C  152   4.560   5.317   7.677  0.0442 -0.2158  0.4593
    2MOL0     C  153   4.503   5.428   7.575  0.0860  0.5888  0.2253
    2MOL0     C  154   4.477   5.564   7.641  0.0549  0.0205  0.3169
    2MOL0     C  155   4.413   5.655   7.538 -1.0929  0.9366 -0.0584
    2MOL0     O  156   4.308   5.728   7.602 -1.2866  0.5834 -0.3174
    2MOL0     C  157   4.347   5.840   7.667 -0.3979  0.2901 -0.1769
    2MOL0     C  158   4.251   5.913   7.723  0.3034 -0.0908 -0.2913
    2MOL0     C  159   4.276   6.027   7.798  0.2447 -0.6458  0.5200
    2MOL0     C  160   4.405   6.061   7.835 -0.4476 -0.4512  0.3314
    2MOL0     C  161   4.438   6.182   7.913 -0.2317  0.3182  0.5653
    2MOL0     O  162   4.571   6.210   7.936  0.1945  0.0628  0.1966
    2MOL0     C  163   4.596   6.350   7.930 -0.4162 -0.4005 -0.5238
    2MOL0     C  164   4.591   6.419   8.045 -0.4494  0.0997 -0.2758
    2MOL0     C  165   4.599   6.561   8.053  0.6077 -0.6366 -0.2893
    2MOL0     C  166   4.612   6.642   7.942 -0.3177 -0.1913 -0.0531
    2MOL0     O  167   4.609   6.777   7.957  0.5770 -0.3056 -0.0137
    2MOL0     C  168   4.720   6.855   7.909  1.1994 -0.6002 -0.7774
    2MOL0     C  169   4.843   6.825   7.999 -0.0176  0.0732 -0.4348
    2MOL0     C  170   4.949   6.936   8.002 -0.0182  0.2032  1.1630
    2MOL0     C  171   4.964   6.995   8.139  0.0815  0.8819  0.0143
    2MOL0     C  172   5.042   7.126   8.145  0.0967  0.0106 -0.0369
    2MOL0     C  173   4.953   7.248   8.130 -0.3268  0.0366  0.2277
    2MOL0     C  174   5.048   7.372   8.160 -0.4097 -0.4241  0.0050
    2MOL0     C  175   4.970   7.504   8.128 -0.8030  0.4607 -0.4024
    2MOL0    Cl  176   4.829   7.535   8.232  0.5029  0.5932  0.5008
    2MOL0     C  177   4.618   6.571   7.824 -0.5245 -0.7446  0.0721
    2MOL0     C  178   4.600   6.430   7.815 -0.0824 -0.3786  0.7730
    2MOL0     O  179   4.345   6.252   7.951 -0.0024  0.4532 -0.0090
    2MOL0     C  180   4.506   5.981   7.787  0.6448 -0.1674 -0.5950
    2MOL0     C  181   4.482   5.881   7.705  0.2535  0.4050  0.9797
    2MOL0     N  182   4.493   5.080   7.632 -0.0351 -0.1043 -0.7637
    2MOL0     N  183   4.401   4.997   7.651 -0.4226 -0.1760  0.4340
    2MOL0     C  184   4.684   5.592   8.511 -0.1375  0.5786 -0.8670
    2MOL0     C  185   4.724   5.719   8.478 -0.2105 -0.6250  0.8462
    2MOL0     C  186   4.828   6.147   8.388  0.2195  0.2921  0.7938
    2MOL0     C  187   4.959   6.206   8.373  0.6135  0.4565 -0.2227
    2MOL0     C  188   4.986   6.339   8.372 -0.5958  0.7990  0.0202
    2MOL0     C  189   4.878   6.431   8.366 -0.1744 -0.2972 -0.7852
    2MOL0     O  190   4.890   6.568   8.345  0.0838  0.1090 -0.0285
    2MOL0     C  191   5.024   6.629   8.350  0.6009 -0.7471 -0.3128
    2MOL0     C  192   5.085   6.610   8.210 -0.0636  0.7120 -0.2785
    2MOL0     C  193   5.196   6.704   8.174 -0.6596 -0.3749 -0.8905
    2MOL0     C  194   5.297   6.640   8.070 -0.1790  0.6628  1.0329
    2MOL0     C  195   5.386   6.746   8.023  0.1492 -0.2414 -0.6611
    2MOL0     C  196   5.449   6.844   7.979  0.2528  0.6785  1.3146
    2MOL0     C  197   4.750   6.379   8.381  0.3229  0.0205  0.0095
    2MOL0     C  198   4.722   6.242   8.390 -0.8983 -0.3495  0.6127
    2MOL0     H  199   4.429   5.849   8.367  1.2450  0.9094 -0.0557
    2MOL0     H  200   4.359   5.645   8.429  0.2766  1.9224 -1.3193
    2MOL0     H  201   4.454   5.427   8.318  0.2556  0.6440  0.6727
    2MOL0     H  202   4.323   5.422   8.448 -0.1345 -1.4492  0.9736
    2MOL0     H  203   4.376   5.189   8.501 -0.0272  0.9285  0.5473
    2MOL0     H  204   4.504   5.195   8.378 -0.4103  0.7182  0.5951
    2MOL0     H  205   4.334   5.231   8.207  1.5393 -0.6335  0.1229
    2MOL0     H  206   4.206   5.233   8.326  0.4853  1.1384  0.8100
    2MOL0     H  207   4.423   5.013   8.273 -0.6896 -2.5602 -1.5513
    2MOL0     H  208   4.290   4.993   8.393  0.2070 -1.0926  0.4859
    2MOL0     H  209   4.124   4.981   8.210  0.2019  1.1130 -0.7889
    2MOL0     H  210   4.254   4.857   8.175  0.5802  0.1429  0.8626
    2MOL0     H  211   4.347   5.078   8.040 -1.5969  3.3961  1.0187
    2MOL0     H  212   4.178   5.125   8.053  1.0108  0.7422  0.8453
    2MOL0     H  213   4.291   4.855   7.927  2.1870  0.3800  2.4798
    2MOL0     H  214   4.118   4.898   7.975 -0.8693  2.5483  0.5619
    2MOL0     H  215   4.104   5.059   7.803 -0.7206 -1.0676  1.7811
    2MOL0     H  216   4.157   4.909   7.729 -2.4414  0.5103  0.1253
    2MOL0     H  217   4.301   5.272   7.817  0.2201 -0.4336  0.0494
    2MOL0     H  218   4.660   5.291   7.642  0.8556 -0.5516  2.8420
    2MOL0     H  219   4.571   5.361   7.776 -2.1024  0.0099  0.6505
    2MOL0     H  220   4.406   5.399   7.533 -1.3498  1.0234  2.9790
    2MOL0     H  221   4.570   5.434   7.489  1.9658 -0.6793  1.5396
    2MOL0     H  222   4.420   5.553   7.734  0.3691  1.0178  0.6425
    2MOL0     H  223   4.563   5.611   7.688  0.0925 -1.6423  2.0170
    2MOL0     H  224   4.362   5.590   7.466  0.8164 -0.6270 -0.0751
    2MOL0     H  225   4.484   5.714   7.481 -2.7357  1.8029 -1.2921
    2MOL0     H  226   4.148   5.880   7.719 -0.8349  2.8659  1.3922
    2MOL0     H  227   4.195   6.086   7.841  0.6354 -0.9046  1.6505
    2MOL0     H  228   4.580   6.357   8.134 -0.2048  2.0013  1.1336
    2MOL0     H  229   4.588   6.604   8.152 -0.7131 -0.3739 -0.5361
    2MOL0     H  230   4.692   6.960   7.921  2.0612 -0.4251 -0.2047
    2MOL0     H  231   4.732   6.838   7.801 -1.6266  1.9714 -1.6475
    2MOL0     H  232   4.891   6.728   7.979 -2.4030 -1.4563  0.8120
    2MOL0     H  233   4.802   6.812   8.099  2.2653  0.3376  0.5755
    2MOL0     H  234   4.921   7.005   7.922  1.1060 -0.5314  0.0901
    2MOL0     H  235   5.046   6.896   7.971 -0.4434  2.1219 -3.3653
    2MOL0     H  236   4.864   7.008   8.181 -0.5144 -0.1996 -0.9977
    2MOL0     H  237   5.012   6.936   8.217 -0.3253 -0.0674 -0.4458
    2MOL0     H  238   5.117   7.120   8.065  0.9118  1.0367  0.6201
    2MOL0     H  239   5.086   7.127   8.245 -1.1471 -2.5272  0.6305
    2MOL0     H  240   4.874   7.229   8.203  0.6626  0.4492  1.4359
    2MOL0     H  241   4.919   7.261   8.027 -1.2094 -0.2676  0.4704
    2MOL0     H  242   5.087   7.373   8.262 -1.4475 -1.7293  0.4348
    2MOL0     H  243   5.126   7.384   8.084  0.8389  1.4249  1.4588
    2MOL0     H  244   4.928   7.522   8.028  0.4327  2.7864 -0.5840
    2MOL0     H  245   5.043   7.586   8.121 -2.3708  1.8411 -1.4304
    2MOL0     H  246   4.626   6.631   7.734 -0.2591 -2.1401 -0.8666
    2MOL0     H  247   4.576   6.367   7.730  4.2463 -2.2973  0.6883
    2MOL0     H  248   4.608   6.007   7.814  0.8471 -0.8156 -0.7125
    2MOL0     H  249   4.568   5.830   7.664 -0.0717  2.3758 -2.4942
    2MOL0     H  250   4.754   5.519   8.551 -0.6944  1.6133  2.2873
    2MOL0     H  251   4.831   5.726   8.497 -0.0559 -0.1641 -0.0943
    2MOL0     H  252   5.044   6.139   8.361  0.3309 -0.1541  1.0386
    2MOL0     H  253   5.089   6.372   8.358 -1.0230  1.3266 -2.3064
    2MOL0     H  254   5.085   6.601   8.436  0.6643 -0.1258 -0.1568
    2MOL0     H  255   5.000   6.735   8.359 -4.1577 -1.0248 -4.8611
    2MOL0     H  256   5.132   6.511   8.210  3.3137  2.0914 -3.2219
    2MOL0     H  257   5.003   6.626   8.140  0.7578 -0.0951 -1.4513
    2MOL0     H  258   5.271   6.730   8.250 -1.3044 -0.0126 -0.3731
    2MOL0     H  259   5.163   6.796   8.127 -2.0183  0.9239  2.2939
    2MOL0     H  260   5.356   6.558   8.112 -0.6145  0.5842  1.5030
    2MOL0     H  261   5.244   6.600   7.982 -1.3387  1.7507  1.2127
    2MOL0     H  262   5.511   6.927   7.954  0.5818 -0.5256 -2.4208
    2MOL0     H  263   4.663   6.444   8.379  2.4611  3.0588 -1.9896
    2MOL0     H  264   4.616   6.221   8.403 -1.1782 -0.5747 -1.5885
    3MOL0     O  265   2.307   1.663   8.768 -0.3326  0.3824 -0.3447
    3MOL0     C  266   2.329   1.627   8.885  0.3302 -1.0673  0.3876
    3MOL0     O  267   2.241   1.632   8.989  0.0713 -0.2202 -0.5816
    3MOL0     C  268   2.109   1.672   8.966 -0.2858 -0.5162  0.3505
    3MOL0     C  269   2.015   1.602   8.901  0.1531  1.1830  0.1453
    3MOL0     C  270   1.892   1.663   8.868 -0.4250  0.5836  0.1378
    3MOL0     C  271   1.862   1.793   8.900 -0.5398  0.2129  0.1770
    3MOL0     O  272   1.751   1.851   8.863  0.7339  0.7653 -0.8389
    3MOL0     C  273   1.633   1.779   8.818  0.0067  0.5948 -0.5309
    3MOL0     C  274   1.519   1.877   8.814  0.5191 -0.6584  0.2815
    3MOL0     C  275   1.556   2.028   8.785  1.6550 -0.8487 -0.0289
    3MOL0     C  276   1.579   2.112   8.915  0.5713 -0.7059  0.1603
    3MOL0     C  277   1.556   2.263   8.878  0.1295  0.0869 -1.1886
    3MOL0     C  278   1.521   2.341   9.009 -0.4159 -0.3339 -1.1938
    3MOL0     C  279   1.644   2.331   9.108  0.1706 -0.0915 -0.2310
    3MOL0     C  280   1.657   2.448   9.208  1.2961  0.8415 -0.5471
    3MOL0     N  281   1.532   2.498   9.263 -0.2901 -0.2780  0.1340
    3MOL0     C  282   1.470   2.617   9.220  0.6756  0.2471  0.4488
    3MOL0     C  283   1.350   2.614   9.268 -0.7953  0.2111  0.2125
    3MOL0     C  284   1.237   2.715   9.242  0.0555  0.1749  0.3177
    3MOL0     C  285   1.113   2.688   9.322  1.1845 -0.2257 -0.5771
    3MOL0     C  286   0.988   2.779   9.282  0.2372  0.0830 -0.6566
    3MOL0     C  287   0.857   2.724   9.339 -0.4745 -0.5344  0.4996
    3MOL0     O  288   0.747   2.806   9.279 -0.2555  0.2774  0.0171
    3MOL0     C  289   0.639   2.828   9.359 -0.5689  0.4817 -0.2254
    3MOL0     C  290   0.614   2.759   9.485 -0.3663  0.3253  0.2854
    3MOL0     C  291   0.501   2.787   9.549 -0.3471  0.7831 -0.9198
    3MOL0     C  292   0.408   2.885   9.515 -0.4705 -0.6314  0.9921
    3MOL0     C  293   0.291   2.916   9.602  0.0115  0.4767 -0.1463
    3MOL0     O  294   0.263   2.830   9.702 -1.3680 -0.7537 -0.3623
    3MOL0     C  295   0.155   2.825   9.775  0.6366  0.0016 -0.2137
    3MOL0     C  296   0.185   2.769   9.897  0.1077 -0.3727 -0.2455
    3MOL0     C  297   0.070   2.739   9.980 -0.3420 -0.9178  0.0481
    3MOL0     C  298  -0.060   2.773   9.954  0.2340 -0.1212  0.9290
    3MOL0     O  299  -0.158   2.739  10.038 -0.1705 -0.4918 -0.2609
    3MOL0     C  300  -0.287   2.720  10.002 -0.0654 -0.0596  0.4333
    3MOL0     C  301  -0.386   2.712  10.116 -0.5102  0.5824  0.3587
    3MOL0     C  302  -0.530   2.679  10.072 -0.3937  1.2974 -0.5748
    3MOL0     C  303  -0.621   2.646  10.196 -0.4038  0.3959  0.7714
    3MOL0     C  304  -0.736   2.566  10.148 -0.6270  0.0874 -0.4807
    3MOL0     C  305  -0.845   2.658  10.081 -0.0425 -0.4913  0.1141
    3MOL0     C  306  -0.975   2.591  10.027  0.3063 -0.4473 -0.1403
    3MOL0     C  307  -1.051   2.679   9.932 -0.5368  0.1831  0.5321
    3MOL0    Cl  308  -1.082   2.843  10.007  0.1735 -0.1706  0.4173
    3MOL0     C  309  -0.080   2.839   9.825 -0.0106 -0.6846  0.1835
    3MOL0     C  310   0.023   2.857   9.738 -0.1344  0.2414  0.6977
    3MOL0     O  311   0.219   3.006   9.560 -0.2220  1.1601 -0.5963
    3MOL0     C  312   0.439   2.950   9.392  0.6522  0.2974  0.5846
    3MOL0     C  313   0.545   2.919   9.310 -0.7127  0.4803  0.3488
    3MOL0     N  314   1.330   2.496   9.348 -0.3832 -0.9051 -1.3660
    3MOL0     N  315   1.436   2.428   9.326  0.5811 -0.1624 -0.4360
    3MOL0     C  316   1.961   1.865   8.963 -0.4608  0.9001 -1.1660
    3MOL0     C  317   2.081   1.801   9.003  0.4358  0.3312  0.9639
    3MOL0     C  318   2.469   1.608   8.924 -0.6962 -0.8705 -1.3134
    3MOL0     C  319   2.506   1.532   9.045 -0.1484  0.2096  0.1377
    3MOL0     C  320   2.638   1.521   9.086 -0.2360  0.4003  0.3491
    3MOL0     C  321   2.735   1.585   9.014 -1.0203 -0.4566 -0.0782
    3MOL0     O  322   2.872   1.588   9.041 -0.1817 -0.1742 -0.0414
    3MOL0     C  323   2.945   1.465   9.060  0.2509 -0.1604  0.5641
    3MOL0     C  324   2.979   1.404   8.919  0.4711  0.1684  0.1957
    3MOL0     C  325   3.056   1.268   8.931  0.6607  0.1306  0.1114
    3MOL0     C  326   3.209   1.287   8.945  0.4454 -0.0295  0.1886
    3MOL0     C  327   3.262   1.163   8.991 -0.8941  0.0807 -0.5672
    3MOL0     C  328   3.333   1.069   9.022  0.6991  0.0742 -0.1934
    3MOL0     C  329   2.702   1.655   8.906 -0.4631  0.0370  0.4136
    3MOL0     C  330   2.571   1.674   8.859 -0.5148  0.1538  0.5326
    3MOL0     H  331   2.033   1.502   8.862 -1.7378  1.1472 -0.7945
    3MOL0     H  332   1.819   1.601   8.816 -1.0561  0.3902  1.2045
    3MOL0     H  333   1.615   1.703   8.895  0.6414  1.7167  0.7660
    3MOL0     H  334   1.646   1.727   8.723  1.3872 -2.4388  1.1589
    3MOL0     H  335   1.469   1.867   8.911  0.4910 -0.9289  0.2412
    3MOL0     H  336   1.449   1.837   8.740 -0.2525 -0.5089  0.9048
    3MOL0     H  337   1.466   2.060   8.733  1.0883  0.2869  1.5635
    3MOL0     H  338   1.645   2.033   8.722  1.2046  6.5187 -0.9156
    3MOL0     H  339   1.501   2.083   8.987 -1.3047  0.5341 -1.2690
    3MOL0     H  340   1.677   2.105   8.963  0.0729  0.1339  1.3359
    3MOL0     H  341   1.482   2.279   8.799 -0.8598  0.6424 -0.1761
    3MOL0     H  342   1.646   2.317   8.848  1.3315 -0.4208  1.2792
    3MOL0     H  343   1.432   2.314   9.066  0.0739 -1.2667 -0.8446
    3MOL0     H  344   1.507   2.442   8.971  3.9624  2.3033  3.0781
    3MOL0     H  345   1.625   2.249   9.179  3.2565  2.5489  4.1484
    3MOL0     H  346   1.736   2.304   9.055  0.5187  1.6475 -0.5843
    3MOL0     H  347   1.716   2.527   9.159 -0.0611  2.2667  0.0263
    3MOL0     H  348   1.717   2.396   9.284  0.7331  1.5051  0.3787
    3MOL0     H  349   1.510   2.688   9.149 -1.6039 -2.1376 -3.6164
    3MOL0     H  350   1.216   2.719   9.135 -1.4404 -1.1190  0.5329
    3MOL0     H  351   1.280   2.813   9.268  0.0677  0.4141 -0.5984
    3MOL0     H  352   1.133   2.692   9.429 -0.5931 -0.4321 -0.2110
    3MOL0     H  353   1.075   2.588   9.301  0.2746  0.2068 -1.0416
    3MOL0     H  354   1.000   2.877   9.328  3.0271 -0.8493  0.8397
    3MOL0     H  355   0.975   2.804   9.176 -0.4700  3.0500  0.0488
    3MOL0     H  356   0.862   2.741   9.447 -1.9277  1.1163  0.3499
    3MOL0     H  357   0.841   2.619   9.312 -0.1039 -0.3988 -0.2834
    3MOL0     H  358   0.675   2.676   9.519 -0.2292 -1.1907 -3.2463
    3MOL0     H  359   0.481   2.725   9.636  0.6076  1.2580 -0.3385
    3MOL0     H  360   0.289   2.743   9.910  1.3874  3.6190 -0.9645
    3MOL0     H  361   0.090   2.694  10.077  0.6662  2.1438  1.3686
    3MOL0     H  362  -0.291   2.637   9.931 -1.5700  1.3061 -1.1835
    3MOL0     H  363  -0.315   2.803   9.937  2.5457  0.6884  0.1701
    3MOL0     H  364  -0.399   2.800  10.179 -1.5006  1.0561 -0.4799
    3MOL0     H  365  -0.355   2.631  10.183 -0.6168  0.9091  0.8078
    3MOL0     H  366  -0.525   2.598   9.999  1.2533 -1.6654  2.5462
    3MOL0     H  367  -0.576   2.767  10.027  0.5486  3.1125  1.7826
    3MOL0     H  368  -0.566   2.577  10.261  0.3193 -1.1521 -1.3840
    3MOL0     H  369  -0.659   2.739  10.239  0.0083  1.0162 -0.1946
    3MOL0     H  370  -0.789   2.525  10.234 -1.0105  2.6718  0.6037
    3MOL0     H  371  -0.711   2.484  10.080  1.1811  0.1449  0.0717
    3MOL0     H  372  -0.798   2.699   9.991  0.9697 -1.1141  0.3364
    3MOL0     H  373  -0.878   2.744  10.139 -2.2220 -0.8285 -0.5536
    3MOL0     H  374  -0.958   2.498   9.973  0.2295 -0.6832  0.2392
    3MOL0     H  375  -1.048   2.570  10.105 -1.0744 -0.9574 -1.5165
    3MOL0     H  376  -1.145   2.629   9.908  0.5721 -2.7668  1.8441
    3MOL0     H  377  -0.996   2.698   9.839  1.9578  0.8374  2.0352
    3MOL0     H  378  -0.178   2.870   9.790  0.2560  0.2878  0.2684
    3MOL0     H  379   0.009   2.900   9.639  4.4347 -2.7842 -1.6221
    3MOL0     H  380   0.366   3.023   9.362  1.5558  1.3684  0.9383
    3MOL0     H  381   0.569   2.971   9.217  3.6650 -1.8430 -0.0916
    3MOL0     H  382   1.938   1.968   8.988 -0.8893  0.3045  1.2461
    3MOL0     H  383   2.168   1.844   9.050  0.3425  2.0293 -0.3191
    3MOL0     H  384   2.434   1.499   9.120 -0.2831  1.8612  0.7830
    3MOL0     H  385   2.666   1.467   9.177  1.6821 -0.7617 -0.8601
    3MOL0     H  386   2.892   1.389   9.119 -0.3588 -0.8280 -0.7997
    3MOL0     H  387   3.037   1.488   9.114  0.1701  1.3543  0.0995
    3MOL0     H  388   2.880   1.384   8.875 -0.7961  3.2499  1.3844
    3MOL0     H  389   3.023   1.487   8.863 -1.6543  1.2365  0.0069
    3MOL0     H  390   3.027   1.199   8.851 -1.6627  0.1536  0.8558
    3MOL0     H  391   3.022   1.222   9.024 -0.2391  2.3775  0.9585
    3MOL0     H  392   3.244   1.313   8.845  0.7413  1.2587  0.6126
    3MOL0     H  393   3.231   1.367   9.016 -0.4712 -0.2431  0.7323
    3MOL0     H  394   3.403   0.997   9.060 -0.0923 -1.8454 -2.1813
    3MOL0     H  395   2.777   1.717   8.859 -0.5096  1.0216  1.5739
    3MOL0     H  396   2.549   1.735   8.773  2.3691  2.2001  1.0899
    4MOL0     O  397   5.077   2.889   2.732  0.1155  0.4496 -0.2329
    4MOL0     C  398   5.084   2.879   2.852 -0.3326 -0.3622  0.0550
    4MOL0     O  399   5.012   2.952   2.945  0.2628  0.3743 -0.6795
    4MOL0     C  400   4.924   3.048   2.897  0.5378  0.2503  0.8998
    4MOL0     C  401   4.802   2.999   2.853 -0.6176  0.3199  1.8496
    4MOL0     C  402   4.705   3.093   2.815 -0.4278 -0.4148  0.0956
    4MOL0     C  403   4.726   3.230   2.824 -0.8030 -0.1520 -0.5824
    4MOL0     O  404   4.637   3.330   2.789 -0.0970  0.6496 -1.0994
    4MOL0     C  405   4.600   3.335   2.645  1.2600 -0.0545  0.7275
    4MOL0     C  406   4.511   3.454   2.608 -0.2102 -0.2893  0.5249
    4MOL0     C  407   4.577   3.589   2.612  0.5896 -0.1296 -0.3519
    4MOL0     C  408   4.478   3.684   2.544 -0.4612 -0.3478 -0.6425
    4MOL0     C  409   4.540   3.816   2.521 -0.7051 -0.0888 -0.1651
    4MOL0     C  410   4.460   3.891   2.414  0.0342  0.1409  0.1123
    4MOL0     C  411   4.340   3.971   2.472  0.3937  0.7279 -0.8201
    4MOL0     C  412   4.383   4.084   2.561 -0.3815  0.5163 -0.8839
    4MOL0     N  413   4.279   4.183   2.581  0.0111  0.5361 -0.2534
    4MOL0     C  414   4.219   4.209   2.706  0.3776 -0.6944  0.6532
    4MOL0     C  415   4.119   4.300   2.679  1.3560  0.1829  0.9488
    4MOL0     C  416   4.013   4.351   2.773 -0.1627  0.0076 -0.0825
    4MOL0     C  417   4.058   4.481   2.850  0.5702  0.4116 -0.8237
    4MOL0     C  418   4.123   4.590   2.768  0.0764 -0.8304 -0.1620
    4MOL0     C  419   4.021   4.661   2.671 -0.7268  0.3837  0.0599
    4MOL0     O  420   3.949   4.754   2.751 -0.1018 -0.3237 -0.1155
    4MOL0     C  421   3.811   4.769   2.721 -0.4078 -0.6379  0.9267
    4MOL0     C  422   3.768   4.896   2.672 -0.2043 -0.5400  0.5172
    4MOL0     C  423   3.630   4.911   2.634 -0.3575 -1.2557 -0.0842
    4MOL0     C  424   3.539   4.811   2.663  0.3590  0.1245  0.5100
    4MOL0     C  425   3.404   4.827   2.632 -0.4499 -0.5489  0.1150
    4MOL0     O  426   3.360   4.949   2.604  0.7399 -0.0338 -0.0677
    4MOL0     C  427   3.222   4.968   2.569  0.4114  0.2909  0.2873
    4MOL0     C  428   3.160   4.894   2.471 -0.1930 -0.2652  0.5226
    4MOL0     C  429   3.019   4.915   2.442 -0.0063 -0.7158  0.3093
    4MOL0     C  430   2.957   5.018   2.503 -0.7420  0.5415  0.6635
    4MOL0     O  431   2.828   5.028   2.460  0.3328 -0.6962  0.6415
    4MOL0     C  432   2.789   5.162   2.458  0.1037 -0.1490 -0.6540
    4MOL0     C  433   2.705   5.185   2.332 -0.2450 -0.4021  0.6144
    4MOL0     C  434   2.805   5.252   2.240 -0.0777 -0.5909 -0.0903
    4MOL0     C  435   2.745   5.326   2.119  0.5133 -0.1711 -0.3258
    4MOL0     C  436   2.856   5.358   2.025  0.1719  0.3960 -0.2146
    4MOL0     C  437   2.807   5.405   1.891 -0.1749  0.9666 -1.1465
    4MOL0     C  438   2.904   5.403   1.777  0.0254  0.5299 -0.2081
    4MOL0     C  439   2.937   5.259   1.734 -0.6221 -0.2678  0.2694
    4MOL0    Cl  440   3.057   5.279   1.603  0.4031  0.1447 -0.5214
    4MOL0     C  441   3.019   5.100   2.596  0.0507 -1.0316 -0.3036
    4MOL0     C  442   3.150   5.067   2.632 -0.0387 -0.0010 -0.0028
    4MOL0     O  443   3.333   4.730   2.612  1.5313 -0.7187 -0.9311
    4MOL0     C  444   3.592   4.684   2.708 -0.9718  0.5968  0.1323
    4MOL0     C  445   3.729   4.658   2.726  0.8741 -0.1869  0.7167
    4MOL0     N  446   4.125   4.324   2.545 -0.7308  0.5411 -0.9712
    4MOL0     N  447   4.223   4.260   2.486 -0.4346 -0.4265  0.4467
    4MOL0     C  448   4.850   3.271   2.872  0.0046 -0.6431  0.9977
    4MOL0     C  449   4.940   3.183   2.909 -0.9260  0.3393 -0.0504
    4MOL0     C  450   5.180   2.784   2.905  0.6107  0.1946  0.7567
    4MOL0     C  451   5.259   2.818   3.011 -0.1053 -0.0871  0.0415
    4MOL0     C  452   5.345   2.722   3.074  0.3387 -0.6118  0.5704
    4MOL0     C  453   5.355   2.594   3.008  0.3913  0.6794  0.8311
    4MOL0     O  454   5.439   2.493   3.066  0.5246  0.3490 -0.6457
    4MOL0     C  455   5.459   2.480   3.208  0.0550 -0.1812 -1.3766
    4MOL0     C  456   5.562   2.371   3.235  0.6678  0.6393 -0.2237
    4MOL0     C  457   5.703   2.417   3.176  1.0392 -0.5563  0.3699
    4MOL0     C  458   5.830   2.369   3.246 -0.4290 -0.1053 -0.0937
    4MOL0     C  459   5.954   2.378   3.165  0.2539 -0.3633  0.2221
    4MOL0     C  460   6.067   2.356   3.123 -0.1262 -0.2860  0.4075
    4MOL0     C  461   5.283   2.563   2.894 -0.6588 -0.7404  0.9241
    4MOL0     C  462   5.189   2.659   2.842 -0.8181  0.0292 -0.2589
    4MOL0     H  463   4.789   2.891   2.856  1.0329 -0.0027 -0.0286
    4MOL0     H  464   4.613   3.053   2.775 -0.9755  1.7893 -1.0222
    4MOL0     H  465   4.556   3.241   2.612  0.5250  0.4469  0.2579
    4MOL0     H  466   4.691   3.355   2.586 -0.0039  0.0588 -1.2640
    4MOL0     H  467   4.417   3.464   2.664 -0.3639  4.0591 -0.1185
    4MOL0     H  468   4.479   3.440   2.504 -2.7931  0.8274  1.0754
    4MOL0     H  469   4.670   3.586   2.555 -0.3887  0.9516 -2.0665
    4MOL0     H  470   4.593   3.619   2.716 -0.4998  0.6718 -0.4011
    4MOL0     H  471   4.428   3.638   2.459  0.2995 -1.2227 -0.6374
    4MOL0     H  472   4.395   3.694   2.614 -0.5715  1.3729 -0.9668
    4MOL0     H  473   4.645   3.804   2.493 -0.8070 -2.1295  0.1788
    4MOL0     H  474   4.545   3.877   2.611 -0.0692  2.5644 -1.8873
    4MOL0     H  475   4.427   3.824   2.334 -2.9197 -0.1985  1.4757
    4MOL0     H  476   4.522   3.969   2.368 -0.1708  0.4900  0.4214
    4MOL0     H  477   4.277   3.999   2.387 -2.7837  1.4339  1.6257
    4MOL0     H  478   4.288   3.899   2.536  1.9285 -0.0312 -0.3608
    4MOL0     H  479   4.468   4.142   2.523  0.0428  1.1599  0.9441
    4MOL0     H  480   4.412   4.052   2.661 -0.7144  0.7214 -0.7190
    4MOL0     H  481   4.232   4.158   2.801 -1.8421  2.9895  3.1818
    4MOL0     H  482   3.992   4.283   2.856  2.2860 -1.1344 -0.3062
    4MOL0     H  483   3.921   4.364   2.717  0.9020  0.8986 -1.6910
    4MOL0     H  484   4.120   4.465   2.939 -1.9763  2.4894  1.5085
    4MOL0     H  485   3.970   4.525   2.898  0.7069 -0.7008  0.5145
    4MOL0     H  486   4.155   4.669   2.837 -0.1117  1.0113 -2.0735
    4MOL0     H  487   4.210   4.552   2.713  0.9412  0.0111  0.5896
    4MOL0     H  488   3.960   4.584   2.625  0.4968  0.0800 -1.1225
    4MOL0     H  489   4.073   4.710   2.588  3.1552 -1.1621  1.3338
    4MOL0     H  490   3.832   4.982   2.657 -1.0161  0.4550  2.4309
    4MOL0     H  491   3.595   5.006   2.596  1.9410 -1.1887 -2.2595
    4MOL0     H  492   3.212   4.824   2.407 -1.1226 -0.9985  0.5365
    4MOL0     H  493   2.965   4.856   2.368 -1.0004 -2.0006  1.9773
    4MOL0     H  494   2.863   5.242   2.463 -1.1777  1.0286  3.7271
    4MOL0     H  495   2.722   5.183   2.542 -1.5722 -2.3653 -1.3267
    4MOL0     H  496   2.626   5.256   2.360  1.4537  1.1593  1.6803
    4MOL0     H  497   2.674   5.087   2.296  2.3398 -0.2737 -2.3792
    4MOL0     H  498   2.875   5.173   2.210  0.0926 -0.8185  0.8988
    4MOL0     H  499   2.860   5.332   2.291  1.7188 -1.2306 -0.9175
    4MOL0     H  500   2.666   5.269   2.069 -1.2121 -0.9392  3.0003
    4MOL0     H  501   2.706   5.425   2.146 -1.7756 -0.3896 -2.4784
    4MOL0     H  502   2.909   5.265   2.005 -0.0705 -0.4135  2.5126
    4MOL0     H  503   2.927   5.427   2.073 -1.1698  0.6856  1.4415
    4MOL0     H  504   2.773   5.508   1.903  2.1483  1.8124 -1.2453
    4MOL0     H  505   2.715   5.353   1.862 -1.8373  1.4693  2.6248
    4MOL0     H  506   2.857   5.455   1.693  0.2498 -0.3864 -0.9173
    4MOL0     H  507   2.996   5.445   1.819 -0.4735  0.0669  1.4398
    4MOL0     H  508   2.855   5.201   1.690 -0.1053  0.9391 -2.5517
    4MOL0     H  509   2.971   5.200   1.819 -2.2070 -1.8413 -0.1389
    4MOL0     H  510   2.973   5.185   2.647  0.9531  1.6371 -3.5655
    4MOL0     H  511   3.196   5.130   2.708  1.4468  0.4113 -1.1825
    4MOL0     H  512   3.526   4.602   2.732 -1.0493  1.7404  4.7133
    4MOL0     H  513   3.772   4.564   2.760 -1.6730 -0.9812  2.0047
    4MOL0     H  514   4.868   3.376   2.893  0.5443 -1.3103  4.3978
    4MOL0     H  515   5.036   3.217   2.948 -0.2311  0.6423 -1.9132
    4MOL0     H  516   5.248   2.917   3.053  0.4420  1.0556 -2.3527
    4MOL0     H  517   5.390   2.745   3.170  4.0633 -3.5671 -0.2284
    4MOL0     H  518   5.369   2.460   3.268  1.2057  1.2038  0.9387
    4MOL0     H  519   5.499   2.576   3.242  1.7297 -1.0912 -0.6794
    4MOL0     H  520   5.578   2.357   3.342 -1.3895  1.2500  0.1996
    4MOL0     H  521   5.530   2.274   3.196 -0.8861  1.4777 -1.1421
    4MOL0     H  522   5.708   2.526   3.179  0.5516 -0.5200  0.0170
    4MOL0     H  523   5.703   2.391   3.070 -0.3493  0.2140  0.1542
    4MOL0     H  524   5.847   2.410   3.346  1.0156 -1.9321  0.4628
    4MOL0     H  525   5.814   2.261   3.257  3.0702 -1.1593 -3.2218
    4MOL0     H  526   6.165   2.342   3.082 -1.2239 -1.5304 -1.9881
    4MOL0     H  527   5.287   2.465   2.846  1.6068 -0.4920  0.5130
    4MOL0     H  528   5.126   2.649   2.754 -1.4192  3.7522 -0.4087
    5MOL0     O  529   8.816   2.403   9.851  0.0577 -0.3764  0.3399
    5MOL0     C  530   8.809   2.520   9.811  0.1759  0.0173  0.1413
    5MOL0     O  531   8.916   2.613   9.798  0.1615 -0.4773  0.5341
    5MOL0     C  532   9.047   2.574   9.825  0.3700  0.3463  0.1796
    5MOL0     C  533   9.080   2.496   9.935  0.2121 -0.7855 -0.4620
    5MOL0     C  534   9.213   2.470   9.970 -0.1478 -0.2687  0.4311
    5MOL0     C  535   9.315   2.525   9.891 -0.0677  0.0844  0.8772
    5MOL0     O  536   9.449   2.508   9.918 -0.0625  1.3836 -0.3817
    5MOL0     C  537   9.483   2.448  10.042 -0.2045 -1.0228  0.2182
    5MOL0     C  538   9.627   2.465  10.057  0.0125  0.9582  0.2410
    5MOL0     C  539   9.717   2.392   9.959 -0.5211  0.5613  0.9011
    5MOL0     C  540   9.860   2.397  10.011  0.5785 -0.0135 -0.2894
    5MOL0     C  541   9.947   2.322   9.910  0.2551  0.4319 -0.6029
    5MOL0     C  542  10.078   2.282   9.991  0.3831 -0.4030  0.0723
    5MOL0     C  543  10.183   2.227   9.893 -0.5838  0.9577 -0.3621
    5MOL0     C  544  10.147   2.091   9.821 -0.9348 -0.2442  0.1156
    5MOL0     N  545  10.249   2.050   9.720  0.8491 -0.3102 -0.3155
    5MOL0     C  546  10.370   1.991   9.741 -0.2614 -0.5465  0.4714
    5MOL0     C  547  10.432   1.999   9.619  0.1005  0.0187 -0.1680
    5MOL0     C  548  10.562   1.933   9.572 -0.6746 -0.4558 -0.1702
    5MOL0     C  549  10.538   1.785   9.582 -0.6509 -0.6438 -0.2116
    5MOL0     C  550  10.425   1.736   9.482  0.9572  0.1173  0.1877
    5MOL0     C  551  10.343   1.629   9.529  1.0689  0.9149  0.8784
    5MOL0     O  552  10.308   1.628   9.663  0.3414  0.8106 -0.2608
    5MOL0     C  553  10.193   1.694   9.698 -0.3077  0.4550 -0.6572
    5MOL0     C  554  10.106   1.776   9.616 -0.6513  0.5476 -0.4812
    5MOL0     C  555   9.983   1.834   9.669  0.5955  0.1824 -0.4614
    5MOL0     C  556   9.954   1.810   9.803 -0.0996  0.7848 -0.9017
    5MOL0     C  557   9.836   1.880   9.862 -0.9225  0.1343 -0.2996
    5MOL0     O  558   9.751   1.939   9.776 -0.8178  0.7658 -0.0868
    5MOL0     C  559   9.627   1.986   9.815  0.0396 -0.3987 -0.0450
    5MOL0     C  560   9.577   2.102   9.751  0.2137 -0.5555  0.9961
    5MOL0     C  561   9.443   2.149   9.786  0.0049  0.5089 -0.1798
    5MOL0     C  562   9.374   2.078   9.887 -0.0675  0.0178 -0.2072
    5MOL0     O  563   9.244   2.095   9.912  0.5548 -0.3607 -0.0746
    5MOL0     C  564   9.163   2.131   9.793  0.2931  0.1889  0.1794
    5MOL0     C  565   9.022   2.102   9.829  0.1363 -0.5168  0.2605
    5MOL0     C  566   8.975   1.952   9.841  1.3860 -0.1207 -0.8861
    5MOL0     C  567   8.982   1.883   9.994  0.3208  0.3860 -0.0025
    5MOL0     C  568   8.969   1.725   9.995 -0.5452 -0.1240  0.1574
    5MOL0     C  569   9.039   1.657   9.875 -0.3025 -0.0608 -0.8757
    5MOL0     C  570   9.191   1.689   9.855  0.9085  0.4445 -0.4662
    5MOL0     C  571   9.263   1.601   9.748  0.0167 -0.1118 -0.5034
    5MOL0    Cl  572   9.270   1.432   9.795  0.1529 -0.0038  0.0115
    5MOL0     C  573   9.423   1.958   9.940 -0.0974 -0.4735 -0.3758
    5MOL0     C  574   9.552   1.920   9.909  0.1903  0.4080  1.0799
    5MOL0     O  575   9.832   1.880   9.986  0.5479 -0.0681  0.1585
    5MOL0     C  576  10.032   1.722   9.878 -0.8503 -0.3304  0.5285
    5MOL0     C  577  10.153   1.676   9.831 -0.5366 -0.4181 -0.0129
    5MOL0     N  578  10.339   2.053   9.527 -0.0892  0.0302 -0.7820
    5MOL0     N  579  10.243   2.101   9.593 -0.6670  0.4014 -0.3031
    5MOL0     C  580   9.292   2.608   9.781  0.3272 -0.8926 -0.1221
    5MOL0     C  581   9.159   2.634   9.752  0.0687  0.2734 -0.0856
    5MOL0     C  582   8.678   2.571   9.786  0.6431 -0.0003 -1.1430
    5MOL0     C  583   8.647   2.709   9.773 -0.5642 -0.1732 -0.3219
    5MOL0     C  584   8.513   2.754   9.781 -0.4053 -0.4061 -0.0518
    5MOL0     C  585   8.403   2.667   9.783  1.0908 -1.1870 -0.8721
    5MOL0     O  586   8.275   2.729   9.775 -0.5197 -0.2524  0.2043
    5MOL0     C  587   8.169   2.638   9.745 -0.2454 -0.6367 -0.2309
    5MOL0     C  588   8.037   2.702   9.709 -0.4545 -0.6603 -0.7317
    5MOL0     C  589   8.013   2.818   9.809 -0.2281 -0.0838  1.0394
    5MOL0     C  590   7.869   2.851   9.828 -0.8510  0.1346 -0.3759
    5MOL0     C  591   7.853   2.997   9.855  0.3721 -0.1770 -1.1045
    5MOL0     C  592   7.842   3.116   9.875 -0.4672  0.3672  0.2602
    5MOL0     C  593   8.438   2.528   9.790 -0.0337 -0.5606  0.1649
    5MOL0     C  594   8.568   2.480   9.788 -0.3493 -0.2192 -0.1962
    5MOL0     H  595   9.016   2.469  10.018  1.4428  2.0376  1.5836
    5MOL0     H  596   9.239   2.412  10.059 -1.7530  0.3402  1.3246
    5MOL0     H  597   9.451   2.344  10.051  0.3363 -1.4073 -1.8636
    5MOL0     H  598   9.437   2.518  10.112 -3.4103 -1.3937 -1.3384
    5MOL0     H  599   9.646   2.426  10.157 -1.2212  0.4580  0.2911
    5MOL0     H  600   9.660   2.569  10.066  1.7095  0.6310 -1.6268
    5MOL0     H  601   9.729   2.449   9.866  0.6659 -0.8117  0.1677
    5MOL0     H  602   9.688   2.291   9.928  1.7678  0.0128  0.3137
    5MOL0     H  603   9.884   2.501  10.039  0.4015 -0.8330  3.5193
    5MOL0     H  604   9.847   2.338  10.102 -0.0329 -0.6781 -0.7969
    5MOL0     H  605   9.972   2.383   9.822  0.1247 -0.1052 -1.0211
    5MOL0     H  606   9.901   2.228   9.878  1.0272 -1.2097  2.7244
    5MOL0     H  607  10.051   2.201  10.060 -0.9388 -1.0790 -1.2067
    5MOL0     H  608  10.119   2.377  10.028 -1.6484  1.2865 -1.7605
    5MOL0     H  609  10.202   2.297   9.812 -0.8674  0.7033 -0.6503
    5MOL0     H  610  10.271   2.210   9.957  0.8315  4.7552 -0.9965
    5MOL0     H  611  10.056   2.102   9.763 -0.5884 -0.6579 -0.5133
    5MOL0     H  612  10.138   2.015   9.899  1.7592  1.3441  2.1768
    5MOL0     H  613  10.409   1.959   9.837 -2.6196 -1.3256  1.2389
    5MOL0     H  614  10.643   1.967   9.637 -1.2260 -1.5820  1.1403
    5MOL0     H  615  10.589   1.958   9.469 -1.8547 -3.0472 -1.2136
    5MOL0     H  616  10.516   1.773   9.689 -1.0479 -1.4900 -0.3786
    5MOL0     H  617  10.631   1.735   9.556 -0.9308 -1.1381 -0.2810
    5MOL0     H  618  10.352   1.813   9.457  1.7094  0.3741 -1.2900
    5MOL0     H  619  10.473   1.716   9.386  0.1519  1.7532 -0.6105
    5MOL0     H  620  10.396   1.534   9.513 -1.7126 -0.5773 -0.1214
    5MOL0     H  621  10.255   1.626   9.464  2.1332  4.2762 -0.9206
    5MOL0     H  622  10.125   1.800   9.512 -0.8083 -1.1379 -0.9381
    5MOL0     H  623   9.918   1.896   9.608 -0.7523 -0.8960 -0.1484
    5MOL0     H  624   9.638   2.154   9.678  0.4992 -1.1942  0.7688
    5MOL0     H  625   9.402   2.229   9.727 -3.5231  0.9025  2.5003
    5MOL0     H  626   9.192   2.079   9.701  0.2853  0.0275  0.2675
    5MOL0     H  627   9.176   2.238   9.775 -0.6715  0.0839 -1.3840
    5MOL0     H  628   8.959   2.148   9.751  0.9709  0.0360 -0.1042
    5MOL0     H  629   8.997   2.166   9.914  0.3243  2.1164 -1.5285
    5MOL0     H  630   9.034   1.900   9.765  0.6764 -0.7687 -1.0019
    5MOL0     H  631   8.872   1.935   9.809  1.9112 -3.7548 -1.0682
    5MOL0     H  632   9.082   1.902  10.033  1.1139 -2.5869 -0.3181
    5MOL0     H  633   8.917   1.929  10.069 -1.1697 -1.2192 -0.2305
    5MOL0     H  634   8.864   1.694   9.993 -0.0569 -1.8327 -0.2152
    5MOL0     H  635   9.012   1.683  10.087  0.3906 -3.0128 -1.4802
    5MOL0     H  636   8.985   1.658   9.779 -0.0062 -1.8883 -1.0963
    5MOL0     H  637   9.045   1.549   9.893  0.5348 -0.0001 -0.7491
    5MOL0     H  638   9.199   1.794   9.823  1.2065 -0.2103 -2.7412
    5MOL0     H  639   9.240   1.683   9.953  1.7474 -1.0619 -0.9454
    5MOL0     H  640   9.362   1.640   9.724  0.4856 -1.8786 -1.6479
    5MOL0     H  641   9.205   1.611   9.655  1.2062 -3.1289 -1.7015
    5MOL0     H  642   9.360   1.904  10.009 -1.3252  0.4898 -0.7084
    5MOL0     H  643   9.579   1.826   9.955 -0.5267 -0.3704 -0.0429
    5MOL0     H  644  10.024   1.713   9.986 -0.2009 -3.0788  0.4193
    5MOL0     H  645  10.223   1.613   9.885 -1.2459 -2.1608 -1.0431
    5MOL0     H  646   9.368   2.660   9.724  0.1445  1.2819  1.4749
    5MOL0     H  647   9.122   2.708   9.682 -0.7572  0.9120  0.9907
    5MOL0     H  648   8.721   2.788   9.775 -0.8687  0.1616 -1.4776
    5MOL0     H  649   8.484   2.858   9.764  0.6471 -0.4396 -2.4909
    5MOL0     H  650   8.153   2.572   9.831  1.0160 -1.2958 -0.4719
    5MOL0     H  651   8.202   2.571   9.665  2.1727  0.7967 -0.5506
    5MOL0     H  652   8.029   2.734   9.604 -0.2290  0.8382 -0.3039
    5MOL0     H  653   7.965   2.620   9.717  0.6443 -1.5175  0.8823
    5MOL0     H  654   8.069   2.897   9.757  0.6398 -2.8317 -2.6214
    5MOL0     H  655   8.053   2.791   9.907  0.3321 -0.0754  0.8218
    5MOL0     H  656   7.808   2.822   9.741 -0.6507 -1.2824 -0.0798
    5MOL0     H  657   7.816   2.790   9.903 -1.9045 -1.5950 -2.3881
    5MOL0     H  658   7.849   3.223   9.876 -0.0587  0.3412  0.3128
    5MOL0     H  659   8.358   2.454   9.789  2.6008 -3.6778  1.2857
    5MOL0     H  660   8.584   2.372   9.782 -0.1439 -0.2047  0.0483
    6MOL0     O  661   0.193   3.465   3.069 -0.2525  0.3245  0.7705
    6MOL0     C  662   0.248   3.358   3.074  0.7336  0.7002  0.8473
    6MOL0     O  663   0.184   3.232   3.070  0.0247  0.8320 -0.1199
    6MOL0     C  664   0.050   3.234   3.045 -0.1689  0.2260  0.4164
    6MOL0     C  665   0.009   3.252   2.913 -0.5305 -0.9031  0.1905
    6MOL0     C  666  -0.126   3.245   2.888  0.4792  1.8741 -0.4988
    6MOL0     C  667  -0.224   3.226   2.985  1.5759 -0.0294 -1.1209
    6MOL0     O  668  -0.362   3.236   2.964  0.0398  0.0615  0.1523
    6MOL0     C  669  -0.426   3.229   2.835 -1.6004  0.1047 -0.4386
    6MOL0     C  670  -0.428   3.088   2.776  0.1784  0.0603 -0.4345
    6MOL0     C  671  -0.533   3.073   2.661  0.5092 -0.2115 -0.0626
    6MOL0     C  672  -0.497   2.942   2.582  0.0675 -0.0418  0.0945
    6MOL0     C  673  -0.625   2.870   2.530  0.1112 -0.3677  0.4547
    6MOL0     C  674  -0.710   2.969   2.444 -0.9457 -0.4517 -0.5320
    6MOL0     C  675  -0.840   2.903   2.405  0.2939  0.2945  0.5086
    6MOL0     C  676  -0.930   3.004   2.330 -0.1986 -0.2842  0.7415
    6MOL0     N  677  -1.042   3.064   2.405 -0.2445  0.6626 -0.2057
    6MOL0     C  678  -1.170   3.053   2.378 -0.5621  0.5372 -0.8346
    6MOL0     C  679  -1.239   3.088   2.480  0.2775 -0.7362 -0.5223
    6MOL0     C  680  -1.385   3.058   2.488 -0.0105  0.5422  0.1466
    6MOL0     C  681  -1.436   2.905   2.494  0.0541 -0.2355 -0.6429
    6MOL0     C  682  -1.536   2.874   2.381  0.4004 -0.4203 -0.7137
    6MOL0     C  683  -1.665   2.959   2.393 -0.2180 -0.5127  0.1564
    6MOL0     O  684  -1.734   2.912   2.506 -0.1784 -0.2933 -0.6601
    6MOL0     C  685  -1.818   2.803   2.504  0.4810  0.5501 -0.0160
    6MOL0     C  686  -1.859   2.736   2.390  0.0675  0.1883  0.5726
    6MOL0     C  687  -1.941   2.621   2.394 -0.1998  0.1380  0.6690
    6MOL0     C  688  -1.970   2.571   2.521  1.0433  0.8357  0.0654
    6MOL0     C  689  -2.050   2.443   2.542  0.3546  0.3693  0.2229
    6MOL0     O  690  -2.137   2.440   2.649  0.0772  0.3121  0.3393
    6MOL0     C  691  -2.218   2.331   2.678 -0.5347 -0.9801 -0.6875
    6MOL0     C  692  -2.208   2.285   2.809  0.1145 -0.0422 -0.1806
    6MOL0     C  693  -2.290   2.180   2.848 -0.5497 -0.8746 -0.5051
    6MOL0     C  694  -2.372   2.110   2.760  0.2805  0.1836  0.0307
    6MOL0     O  695  -2.472   2.020   2.794  0.9441 -0.1299 -0.4891
    6MOL0     C  696  -2.493   2.003   2.938  0.0266 -0.0913  0.1736
    6MOL0     C  697  -2.549   1.861   2.956  0.4510 -0.1407 -0.6145
    6MOL0     C  698  -2.704   1.869   2.931 -0.7176  0.0400  0.1120
    6MOL0     C  699  -2.764   1.727   2.936  0.1827  0.3218 -0.6736
    6MOL0     C  700  -2.917   1.713   2.914  1.2054  0.0434  1.0115
    6MOL0     C  701  -2.957   1.561   2.946 -0.0891  0.1190  0.7748
    6MOL0     C  702  -3.107   1.543   2.928  0.5826 -0.7759  0.1783
    6MOL0     C  703  -3.163   1.466   3.046  0.2166 -0.0826  0.4064
    6MOL0    Cl  704  -3.331   1.431   3.023  0.0580  0.2600  0.2055
    6MOL0     C  705  -2.366   2.140   2.623  1.2117 -0.0496 -0.6545
    6MOL0     C  706  -2.290   2.254   2.585 -0.5972 -0.5508  0.2596
    6MOL0     O  707  -2.035   2.352   2.462  0.0238 -0.4623  0.5574
    6MOL0     C  708  -1.947   2.648   2.632 -0.4250  0.1364  0.1104
    6MOL0     C  709  -1.877   2.764   2.628 -0.2909 -0.3134  0.2066
    6MOL0     N  710  -1.151   3.141   2.577  0.8161  0.3303  0.2236
    6MOL0     N  711  -1.032   3.137   2.519  0.1120 -0.3533  0.2231
    6MOL0     C  712  -0.182   3.213   3.112  0.2114  0.5750  0.5346
    6MOL0     C  713  -0.041   3.208   3.143  0.5391 -1.4115  0.4751
    6MOL0     C  714   0.398   3.349   3.103 -0.3867 -0.0210  0.9055
    6MOL0     C  715   0.474   3.464   3.134 -0.4652  0.1066  0.6174
    6MOL0     C  716   0.614   3.457   3.163  0.8327  0.2329  1.1848
    6MOL0     C  717   0.680   3.335   3.178 -0.4899 -0.4483  0.4898
    6MOL0     O  718   0.809   3.303   3.215  0.2279 -0.2007  0.0448
    6MOL0     C  719   0.905   3.410   3.210  0.3449  0.5873 -0.4317
    6MOL0     C  720   1.041   3.354   3.261 -0.2115  0.0501 -0.3007
    6MOL0     C  721   1.152   3.452   3.267  0.1442 -0.4309  0.6040
    6MOL0     C  722   1.283   3.396   3.308 -0.2380  0.3311 -0.2591
    6MOL0     C  723   1.331   3.285   3.224 -1.7245 -0.3577  0.0022
    6MOL0     C  724   1.355   3.196   3.144 -0.3653  0.0771 -1.2775
    6MOL0     C  725   0.593   3.222   3.149  0.7269 -0.5620 -0.0520
    6MOL0     C  726   0.458   3.226   3.114 -1.0609 -0.0471 -0.1159
    6MOL0     H  727   0.085   3.274   2.839  0.9598  0.8176  2.0961
    6MOL0     H  728  -0.167   3.273   2.791 -3.2251  1.4561  0.7763
    6MOL0     H  729  -0.389   3.303   2.763 -0.3410 -0.1716 -0.1044
    6MOL0     H  730  -0.528   3.266   2.849 -1.0840  1.0807  1.0051
    6MOL0     H  731  -0.444   3.016   2.857  0.0968  0.3864 -0.1623
    6MOL0     H  732  -0.325   3.061   2.753  1.0967  0.1475  2.9822
    6MOL0     H  733  -0.538   3.155   2.589  0.1262 -2.4536 -2.7242
    6MOL0     H  734  -0.633   3.073   2.707  0.8254 -0.8901  0.6521
    6MOL0     H  735  -0.434   2.980   2.501  0.4558 -0.2536  0.2958
    6MOL0     H  736  -0.429   2.884   2.644  0.6080  0.3760 -0.1000
    6MOL0     H  737  -0.685   2.827   2.610  0.2280 -2.3814 -0.4975
    6MOL0     H  738  -0.609   2.784   2.464 -4.8963 -2.3034  1.3123
    6MOL0     H  739  -0.657   2.980   2.348  0.7842 -0.8720  0.3388
    6MOL0     H  740  -0.728   3.063   2.495 -0.7361 -0.8342  0.2535
    6MOL0     H  741  -0.832   2.823   2.331 -0.9299  3.3524 -3.2555
    6MOL0     H  742  -0.892   2.865   2.494 -0.2978 -0.3374 -0.0943
    6MOL0     H  743  -0.975   2.947   2.248  2.3615  0.3241 -1.2038
    6MOL0     H  744  -0.879   3.089   2.285 -3.0454  1.3538  0.4043
    6MOL0     H  745  -1.212   3.011   2.287 -0.4074  2.7255 -1.9768
    6MOL0     H  746  -1.433   3.116   2.409  2.2516  1.0744 -0.9299
    6MOL0     H  747  -1.433   3.110   2.572 -0.9615 -0.6113  0.3408
    6MOL0     H  748  -1.487   2.886   2.589  0.0451  0.1202 -0.5744
    6MOL0     H  749  -1.355   2.831   2.502 -0.5889 -0.7629  1.6372
    6MOL0     H  750  -1.497   2.881   2.279  0.1079  1.3149 -0.7248
    6MOL0     H  751  -1.567   2.771   2.404 -0.3114  0.2129  1.3817
    6MOL0     H  752  -1.725   2.953   2.301 -0.5662  0.5987  0.3049
    6MOL0     H  753  -1.646   3.066   2.398  0.2284 -0.6067  0.5610
    6MOL0     H  754  -1.834   2.773   2.291  1.3788 -0.3402  0.6801
    6MOL0     H  755  -1.977   2.581   2.300 -1.5820  0.3473  1.0865
    6MOL0     H  756  -2.156   2.348   2.880  0.1916  0.2377 -0.4854
    6MOL0     H  757  -2.302   2.176   2.956 -1.5260 -0.4104 -0.5890
    6MOL0     H  758  -2.551   2.085   2.980 -1.6723  0.6115 -3.1509
    6MOL0     H  759  -2.398   2.000   2.993 -0.3210  0.0714  0.7851
    6MOL0     H  760  -2.540   1.839   3.062  0.0544 -0.7030 -0.6979
    6MOL0     H  761  -2.491   1.798   2.887  2.7898  0.3479  0.7863
    6MOL0     H  762  -2.731   1.903   2.830 -3.5432  0.8820  1.0489
    6MOL0     H  763  -2.752   1.934   3.005  2.3768  0.0605  2.2829
    6MOL0     H  764  -2.729   1.654   2.862 -1.4099  0.3528 -1.5068
    6MOL0     H  765  -2.730   1.686   3.031  2.0223 -1.6065 -2.0570
    6MOL0     H  766  -2.944   1.731   2.810  3.8131 -1.8810 -0.1025
    6MOL0     H  767  -2.970   1.786   2.975  1.7711  0.1628  1.3637
    6MOL0     H  768  -2.924   1.540   3.048 -1.0910  1.0100  1.2962
    6MOL0     H  769  -2.909   1.490   2.877 -4.2327 -0.4846 -1.8347
    6MOL0     H  770  -3.146   1.645   2.920  3.2984  0.6632  2.8147
    6MOL0     H  771  -3.124   1.494   2.832 -0.0368  4.1914 -2.5751
    6MOL0     H  772  -3.159   1.524   3.139 -1.6683 -0.2170  0.6141
    6MOL0     H  773  -3.113   1.369   3.049  2.3442  0.9681  3.3832
    6MOL0     H  774  -2.427   2.079   2.557  0.6043 -1.3413  0.9982
    6MOL0     H  775  -2.290   2.275   2.479 -1.2207  2.1012  0.7129
    6MOL0     H  776  -1.982   2.613   2.729  1.3438  1.4686  1.2842
    6MOL0     H  777  -1.861   2.818   2.722 -0.9560  0.3817 -0.0700
    6MOL0     H  778  -0.254   3.177   3.185  1.5990 -2.3271  0.6448
    6MOL0     H  779   0.008   3.196   3.239  1.0799  1.0780  0.5921
    6MOL0     H  780   0.443   3.568   3.129  3.2482  1.3952  1.0379
    6MOL0     H  781   0.670   3.549   3.178  1.4286  0.2805 -1.0303
    6MOL0     H  782   0.882   3.499   3.268  1.0635  1.0043 -0.7675
    6MOL0     H  783   0.907   3.444   3.106  0.7183  0.8843 -0.3306
    6MOL0     H  784   1.017   3.306   3.357 -0.0619  0.4675 -0.0516
    6MOL0     H  785   1.072   3.274   3.194  2.3967 -0.3085  1.2269
    6MOL0     H  786   1.115   3.534   3.329 -0.5949  0.7755 -1.3556
    6MOL0     H  787   1.165   3.475   3.161 -0.2218 -0.1134  0.6284
    6MOL0     H  788   1.364   3.469   3.304  2.1044 -2.1698 -0.6762
    6MOL0     H  789   1.266   3.365   3.412 -0.9288  0.3977 -0.3441
    6MOL0     H  790   1.376   3.121   3.070  0.9300 -1.3623  0.4698
    6MOL0     H  791   0.634   3.129   3.186  2.5359  0.7705  1.4917
    6MOL0     H  792   0.393   3.139   3.112 -1.4678  0.2766 -1.8130
    7MOL0     O  793  11.264   4.861   7.407  0.1431  0.5355  0.0312
    7MOL0     C  794  11.219   4.838   7.522  0.5697  0.7251 -0.8117
    7MOL0     O  795  11.171   4.932   7.610 -0.3134 -0.7443  0.3304
    7MOL0     C  796  11.159   5.056   7.548 -0.1749 -0.6881 -0.0765
    7MOL0     C  797  11.265   5.141   7.509  0.0020  0.1200  0.5069
    7MOL0     C  798  11.244   5.269   7.458 -0.0212  0.1939 -0.3211
    7MOL0     C  799  11.120   5.324   7.457  0.4808  0.4445  0.4338
    7MOL0     O  800  11.079   5.443   7.396 -0.7058  0.8127  0.0923
    7MOL0     C  801  11.187   5.532   7.382  0.5860 -1.1304  0.1591
    7MOL0     C  802  11.130   5.675   7.386 -0.3483 -0.0535 -0.5776
    7MOL0     C  803  11.059   5.722   7.254 -0.2375 -0.1686  0.8590
    7MOL0     C  804  10.955   5.830   7.265 -1.0731 -0.9057  0.1288
    7MOL0     C  805  10.942   5.929   7.147 -0.0748  0.0567 -0.1265
    7MOL0     C  806  10.851   5.878   7.037 -0.2936 -0.2249  0.4345
    7MOL0     C  807  10.849   5.989   6.932  0.2438 -0.1629  0.2202
    7MOL0     C  808  10.785   5.929   6.801 -0.1380 -0.7037  0.7845
    7MOL0     N  809  10.885   5.892   6.700 -0.0418  0.1784 -0.1371
    7MOL0     C  810  11.018   5.853   6.715 -0.2476 -0.0861 -0.5395
    7MOL0     C  811  11.059   5.831   6.590 -0.2817 -0.4630 -0.0427
    7MOL0     C  812  11.203   5.805   6.562 -0.3631 -0.0565  0.5730
    7MOL0     C  813  11.241   5.781   6.415  0.0208  0.1923  0.1650
    7MOL0     C  814  11.368   5.701   6.394 -0.4795 -0.0941 -0.4271
    7MOL0     C  815  11.389   5.672   6.253  0.1786 -0.2028 -0.0258
    7MOL0     O  816  11.500   5.576   6.247  0.1318  0.2515 -0.3590
    7MOL0     C  817  11.598   5.571   6.152  0.4783 -1.0436 -0.2513
    7MOL0     C  818  11.626   5.677   6.071 -0.6729 -0.6948  0.1897
    7MOL0     C  819  11.743   5.676   5.995 -0.1636  0.9341 -1.0197
    7MOL0     C  820  11.830   5.558   6.000  0.1655  1.3168 -0.8573
    7MOL0     C  821  11.966   5.565   5.931 -0.3228 -0.0818 -0.0557
    7MOL0     O  822  12.050   5.467   5.953 -0.0978  0.5096 -0.2201
    7MOL0     C  823  12.176   5.468   5.895  0.5067 -0.8887 -0.4027
    7MOL0     C  824  12.191   5.387   5.783 -0.1914  0.3524 -0.3157
    7MOL0     C  825  12.319   5.383   5.723  0.1988 -0.0953 -0.0611
    7MOL0     C  826  12.431   5.467   5.764 -0.0830  0.5752  0.3385
    7MOL0     O  827  12.556   5.460   5.703  0.1635  0.0172  0.4454
    7MOL0     C  828  12.647   5.567   5.734 -0.0519 -0.0468 -0.5344
    7MOL0     C  829  12.767   5.578   5.651  0.0885 -0.1228  0.9900
    7MOL0     C  830  12.822   5.454   5.585 -0.2195  0.3761 -0.1256
    7MOL0     C  831  12.942   5.488   5.493  0.0763 -0.8455 -0.0531
    7MOL0     C  832  13.005   5.367   5.423  0.2727  0.1713  0.1791
    7MOL0     C  833  13.124   5.428   5.347 -0.7421  0.1341 -0.3898
    7MOL0     C  834  13.194   5.324   5.258  0.5327  0.2447  1.1638
    7MOL0     C  835  13.322   5.389   5.184  0.6380 -0.0179  0.3821
    7MOL0    Cl  836  13.409   5.268   5.098  0.0460  0.3502  0.3387
    7MOL0     C  837  12.416   5.539   5.881 -0.1215  0.1891 -0.2184
    7MOL0     C  838  12.287   5.546   5.944  0.5098  0.1675 -0.0649
    7MOL0     O  839  11.992   5.661   5.861 -0.0792 -0.1155  1.1000
    7MOL0     C  840  11.794   5.448   6.076  0.3503  0.2332 -0.7197
    7MOL0     C  841  11.681   5.460   6.159 -0.5114 -0.2639  0.7964
    7MOL0     N  842  10.963   5.866   6.504  0.5409  0.8560  0.4503
    7MOL0     N  843  10.853   5.885   6.569 -0.5670  0.6921  0.0163
    7MOL0     C  844  11.016   5.244   7.505 -0.3901  0.0013  0.5237
    7MOL0     C  845  11.034   5.117   7.551  0.7383 -0.5964 -0.2712
    7MOL0     C  846  11.217   4.702   7.570 -0.4966 -0.2791 -0.4923
    7MOL0     C  847  11.296   4.606   7.508 -0.1929  0.2778 -0.1184
    7MOL0     C  848  11.309   4.470   7.552 -0.2541 -0.6821 -0.2453
    7MOL0     C  849  11.239   4.439   7.665  0.4912 -0.1374 -0.3995
    7MOL0     O  850  11.248   4.313   7.712 -0.8865  0.6093  0.0517
    7MOL0     C  851  11.140   4.224   7.681 -0.0695  0.3426  0.8377
    7MOL0     C  852  11.187   4.093   7.611 -0.5104  0.4343 -0.6514
    7MOL0     C  853  11.281   4.024   7.714 -0.5738 -0.6341 -0.6693
    7MOL0     C  854  11.356   3.902   7.665 -0.4656  1.0174 -0.4972
    7MOL0     C  855  11.300   3.812   7.563 -0.2244 -0.0209  0.3026
    7MOL0     C  856  11.225   3.744   7.499  0.5180 -0.2635 -0.1257
    7MOL0     C  857  11.158   4.524   7.732 -0.5544 -0.2268  0.6957
    7MOL0     C  858  11.138   4.654   7.678  0.5408 -0.2444 -0.5416
    7MOL0     H  859  11.367   5.106   7.495  0.4089  1.7026 -0.8303
    7MOL0     H  860  11.327   5.320   7.410  1.4431 -2.2497 -0.5608
    7MOL0     H  861  11.228   5.518   7.281  3.9801  0.9352  1.0688
    7MOL0     H  862  11.273   5.528   7.449 -0.2205 -0.1805  1.2913
    7MOL0     H  863  11.209   5.747   7.410 -1.3473  0.5673  0.9771
    7MOL0     H  864  11.068   5.672   7.476  2.8231 -0.6372  1.7235
    7MOL0     H  865  11.005   5.638   7.209  0.4673 -0.6856  0.9574
    7MOL0     H  866  11.135   5.757   7.184  0.8597 -1.8309  1.1596
    7MOL0     H  867  10.853   5.793   7.285 -0.6461 -1.0298  2.3274
    7MOL0     H  868  10.985   5.883   7.356 -0.7542 -3.8132  1.8597
    7MOL0     H  869  11.040   5.949   7.102  1.0793 -3.2463  0.5670
    7MOL0     H  870  10.905   6.025   7.182 -1.3721 -0.3373 -0.3906
    7MOL0     H  871  10.749   5.865   7.073 -0.9898  0.5210 -1.1353
    7MOL0     H  872  10.885   5.783   6.995  2.9560  0.4937  1.1529
    7MOL0     H  873  10.783   6.071   6.964  0.3743 -0.4423  1.2265
    7MOL0     H  874  10.946   6.030   6.902  0.4098  0.1161  1.1206
    7MOL0     H  875  10.704   5.989   6.757  1.1431 -1.9445 -3.8337
    7MOL0     H  876  10.728   5.845   6.843  0.0458 -0.4817  1.4877
    7MOL0     H  877  11.064   5.832   6.812 -0.2474 -0.6185 -0.6483
    7MOL0     H  878  11.240   5.728   6.630 -0.8520 -1.4790 -0.7020
    7MOL0     H  879  11.249   5.903   6.580 -0.8455  0.4565 -0.8631
    7MOL0     H  880  11.248   5.881   6.371  4.2343  1.1042  2.3177
    7MOL0     H  881  11.156   5.721   6.381 -0.7920  1.8850 -0.9438
    7MOL0     H  882  11.457   5.748   6.438 -0.5190 -1.9468  1.7815
    7MOL0     H  883  11.364   5.601   6.437  1.4795  0.0396  0.1662
    7MOL0     H  884  11.398   5.763   6.193  1.9942  0.2864  0.9190
    7MOL0     H  885  11.302   5.610   6.231 -0.3400 -1.5192  4.6775
    7MOL0     H  886  11.556   5.759   6.062 -0.7490 -0.7947 -0.1292
    7MOL0     H  887  11.775   5.768   5.949 -0.0882  1.8212  0.7277
    7MOL0     H  888  12.107   5.328   5.749 -0.0584 -0.2791  0.4118
    7MOL0     H  889  12.337   5.329   5.631 -0.1877  0.8185 -0.6962
    7MOL0     H  890  12.681   5.552   5.837 -1.8105  0.0589  0.1057
    7MOL0     H  891  12.599   5.662   5.759  2.0582  0.9271  0.0450
    7MOL0     H  892  12.847   5.634   5.701  2.1222 -1.4051 -0.6855
    7MOL0     H  893  12.730   5.640   5.569  0.4946 -2.1212 -0.7872
    7MOL0     H  894  12.741   5.406   5.528  0.0462 -1.6345  1.1041
    7MOL0     H  895  12.866   5.388   5.660 -1.3079  1.2767  1.3590
    7MOL0     H  896  12.902   5.547   5.411 -3.9147 -0.9867  1.5443
    7MOL0     H  897  13.013   5.550   5.549 -0.8644 -0.2645  0.5347
    7MOL0     H  898  12.924   5.330   5.359 -0.0477 -2.0328  1.7923
    7MOL0     H  899  13.039   5.288   5.490 -0.3786  0.4871  0.8970
    7MOL0     H  900  13.198   5.471   5.416 -0.4466  1.4841 -1.4863
    7MOL0     H  901  13.083   5.509   5.285  1.8386  0.1466 -2.2307
    7MOL0     H  902  13.240   5.252   5.326 -1.1884  1.0989  3.3841
    7MOL0     H  903  13.124   5.266   5.197  1.9099 -1.0942  0.8121
    7MOL0     H  904  13.397   5.433   5.251  4.5971 -3.1427 -1.5667
    7MOL0     H  905  13.289   5.465   5.113  0.4291  0.5360  1.0599
    7MOL0     H  906  12.488   5.612   5.916 -0.4655  1.8304 -2.6692
    7MOL0     H  907  12.278   5.617   6.026 -0.6126 -1.6787  1.5385
    7MOL0     H  908  11.867   5.367   6.076  0.4570  0.2859  0.9416
    7MOL0     H  909  11.655   5.373   6.219 -0.5494 -2.1826 -1.8217
    7MOL0     H  910  10.920   5.294   7.504 -1.0163 -1.1067  1.6930
    7MOL0     H  911  10.950   5.063   7.593 -0.9535  2.8909  1.2637
    7MOL0     H  912  11.355   4.635   7.422 -1.3134  2.9805 -0.0949
    7MOL0     H  913  11.371   4.398   7.499 -1.1647 -0.9047 -1.0484
    7MOL0     H  914  11.073   4.289   7.625  2.2574  0.5262 -1.9387
    7MOL0     H  915  11.096   4.193   7.776  0.6070  1.6689  1.6084
    7MOL0     H  916  11.105   4.022   7.593 -0.8586  0.9522 -1.1480
    7MOL0     H  917  11.236   4.111   7.515 -0.0731 -3.0625 -1.2312
    7MOL0     H  918  11.213   3.979   7.787  2.0677  0.9467  3.1383
    7MOL0     H  919  11.349   4.085   7.774 -0.2770  0.4769 -2.0774
    7MOL0     H  920  11.454   3.939   7.634 -0.0666  0.4052 -0.0044
    7MOL0     H  921  11.357   3.845   7.759 -2.0104  0.8327 -0.5637
    7MOL0     H  922  11.159   3.686   7.438  1.5361 -0.5569 -0.9669
    7MOL0     H  923  11.093   4.498   7.815 -1.7330  2.2098  0.6111
    7MOL0     H  924  11.073   4.717   7.738  1.2982 -2.0957  2.4187
    8MOL0     O  925   7.454   9.042   2.044 -0.0289 -0.5713 -0.4242
    8MOL0     C  926   7.475   9.059   1.922  0.4679 -1.2198 -0.7252
    8MOL0     O  927   7.376   9.077   1.834  0.9788  0.0525  0.2800
    8MOL0     C  928   7.248   9.076   1.891 -0.9941 -0.1923 -0.7351
    8MOL0     C  929   7.200   9.197   1.923  1.1201 -0.4192 -0.4389
    8MOL0     C  930   7.063   9.204   1.973  0.6740  0.3785 -0.0710
    8MOL0     C  931   6.999   9.083   2.011  0.4639  0.7539  1.0392
    8MOL0     O  932   6.873   9.086   2.062  1.4342  0.7092  0.0398
    8MOL0     C  933   6.782   9.119   1.953  0.3744  0.5401 -0.1684
    8MOL0     C  934   6.732   8.983   1.878 -1.0591 -0.4481 -1.0652
    8MOL0     C  935   6.585   9.010   1.825 -0.5918  0.5427  0.8109
    8MOL0     C  936   6.474   8.981   1.929 -0.6929  0.3058  0.5568
    8MOL0     C  937   6.349   9.055   1.874  1.5703 -0.2834 -0.3317
    8MOL0     C  938   6.363   9.211   1.867 -0.5274 -0.5410  0.0987
    8MOL0     C  939   6.221   9.266   1.836  0.0720  0.2902 -0.4241
    8MOL0     C  940   6.234   9.424   1.807  0.3347 -0.5023  0.0388
    8MOL0     N  941   6.095   9.477   1.813 -0.8625 -1.1896 -0.1021
    8MOL0     C  942   6.036   9.496   1.927  0.0914 -0.3117  0.4673
    8MOL0     C  943   5.942   9.596   1.906  0.4248  0.4493 -0.9078
    8MOL0     C  944   5.857   9.659   2.018 -0.0306  0.5993  0.5672
    8MOL0     C  945   5.866   9.813   2.021  1.0664  0.4387 -0.4765
    8MOL0     C  946   6.002   9.879   2.044  0.0302  0.0834  0.8351
    8MOL0     C  947   5.998  10.027   2.022  0.5591  0.5730  0.5464
    8MOL0     O  948   5.967  10.050   1.881 -0.3000 -0.1132 -0.8584
    8MOL0     C  949   5.903  10.163   1.841  1.1717  0.1261  0.3943
    8MOL0     C  950   5.864  10.164   1.705  0.6094  0.8069 -0.7527
    8MOL0     C  951   5.780  10.265   1.662 -0.0417 -1.1119 -0.0250
    8MOL0     C  952   5.735  10.360   1.742 -0.4638 -0.0613 -0.1430
    8MOL0     C  953   5.637  10.455   1.687  0.2793 -0.5244  0.1225
    8MOL0     O  954   5.598  10.545   1.774  0.3230 -0.2371  0.4309
    8MOL0     C  955   5.509  10.634   1.743  1.0248 -1.0494  0.0434
    8MOL0     C  956   5.528  10.773   1.750 -0.6098  0.5092 -0.5371
    8MOL0     C  957   5.436  10.860   1.704  1.0887 -0.1563 -0.2470
    8MOL0     C  958   5.307  10.822   1.675  0.5001  0.0473  0.0768
    8MOL0     O  959   5.205  10.905   1.635 -0.7243 -0.4457 -0.0969
    8MOL0     C  960   5.228  11.048   1.645  0.1935 -0.7627 -0.9162
    8MOL0     C  961   5.102  11.134   1.602 -0.3492 -0.4907  0.5624
    8MOL0     C  962   4.969  11.111   1.673  0.6032 -0.7986 -0.3673
    8MOL0     C  963   4.899  10.976   1.646 -0.3807 -0.4424 -0.0704
    8MOL0     C  964   4.843  10.905   1.760  0.1559 -0.1289 -0.3929
    8MOL0     C  965   4.720  10.974   1.830 -0.4920  0.4843 -0.6789
    8MOL0     C  966   4.701  10.911   1.973 -0.3684  0.7332  0.0533
    8MOL0     C  967   4.580  10.991   2.033 -0.3628 -0.1501  0.1680
    8MOL0    Cl  968   4.433  10.975   1.929 -0.1165  0.0031  0.1851
    8MOL0     C  969   5.280  10.690   1.680 -0.2368  0.4860  0.9318
    8MOL0     C  970   5.379  10.595   1.712  0.3124 -0.0832  0.2133
    8MOL0     O  971   5.596  10.441   1.569 -0.0536 -0.0669 -0.4942
    8MOL0     C  972   5.783  10.369   1.875  0.4294 -0.3557 -0.5580
    8MOL0     C  973   5.862  10.269   1.930 -0.0362  1.0093  0.2218
    8MOL0     N  974   5.944   9.627   1.772  0.4770  1.0570  0.0690
    8MOL0     N  975   6.033   9.550   1.718 -0.5099 -0.5235 -0.4776
    8MOL0     C  976   7.060   8.962   1.994  0.2260 -0.4397 -1.4097
    8MOL0     C  977   7.190   8.960   1.940 -0.9683  0.1780 -0.6367
    8MOL0     C  978   7.611   9.037   1.858 -0.2460  0.4684 -0.2099
    8MOL0     C  979   7.710   9.030   1.941  0.2650  0.2095 -0.8827
    8MOL0     C  980   7.839   9.009   1.903 -0.0767 -0.5657 -0.1804
    8MOL0     C  981   7.871   8.976   1.767  0.2397  0.0844  0.1635
    8MOL0     O  982   7.988   8.928   1.718 -0.3551 -0.5081 -0.0486
    8MOL0     C  983   8.104   8.967   1.793  0.1321  0.0845 -0.3309
    8MOL0     C  984   8.217   8.997   1.692 -0.0966  0.6384  0.0359
    8MOL0     C  985   8.357   8.988   1.753 -0.8195 -0.2989  0.8539
    8MOL0     C  986   8.461   9.013   1.642 -0.0874 -0.2323 -0.3756
    8MOL0     C  987   8.594   9.006   1.696 -1.0232 -0.0802 -0.5447
    8MOL0     C  988   8.715   9.013   1.723  0.4437  0.6922 -1.3741
    8MOL0     C  989   7.770   8.973   1.675  0.4809 -0.9616  0.2221
    8MOL0     C  990   7.635   9.010   1.722 -0.1902  0.7072  0.9868
    8MOL0     H  991   7.257   9.286   1.900  1.8580 -0.3000  1.6579
    8MOL0     H  992   7.023   9.299   2.007 -1.3794  0.3164 -2.0788
    8MOL0     H  993   6.826   9.180   1.875 -1.6727 -0.4604 -2.2245
    8MOL0     H  994   6.698   9.177   1.993 -0.0247  0.3280 -0.6995
    8MOL0     H  995   6.729   8.898   1.945 -0.6170  2.1795  2.5693
    8MOL0     H  996   6.797   8.967   1.792  0.5299 -3.5480  0.5653
    8MOL0     H  997   6.569   8.937   1.745  0.5650  1.1087  0.0245
    8MOL0     H  998   6.575   9.109   1.779 -1.2379  1.2478  2.3908
    8MOL0     H  999   6.449   8.876   1.943  0.3580  0.2948  2.7317
    8MOL0     H 1000   6.496   9.029   2.025 -1.1870  1.6532  0.0330
    8MOL0     H 1001   6.262   9.039   1.939  1.3794  0.6981 -0.3414
    8MOL0     H 1002   6.323   9.017   1.774  0.4133  0.7896 -0.4499
    8MOL0     H 1003   6.423   9.255   1.787  1.0940 -2.1588  0.3384
    8MOL0     H 1004   6.393   9.249   1.966  2.6634 -0.5651 -0.7325
    8MOL0     H 1005   6.169   9.220   1.751 -1.5219  3.3172 -1.2479
    8MOL0     H 1006   6.151   9.243   1.917 -0.6685  0.2321 -1.0642
    8MOL0     H 1007   6.272   9.436   1.705  2.0398 -0.2775  0.6573
    8MOL0     H 1008   6.305   9.483   1.866 -0.0972 -1.1798  1.2728
    8MOL0     H 1009   6.058   9.454   2.025 -2.6595 -2.3488  0.3213
    8MOL0     H 1010   5.884   9.619   2.116 -0.2437  1.4073  0.9615
    8MOL0     H 1011   5.751   9.635   2.005 -0.4629  1.7237  1.7665
    8MOL0     H 1012   5.804   9.862   2.096 -0.9608 -0.7502 -1.2945
    8MOL0     H 1013   5.827   9.852   1.926 -0.0953  0.3789 -0.0340
    8MOL0     H 1014   6.038   9.858   2.145 -0.5104  1.2822  1.2906
    8MOL0     H 1015   6.062   9.839   1.962  0.9750  1.1136  1.0077
    8MOL0     H 1016   6.096  10.070   2.046  0.3950  1.3543 -0.1167
    8MOL0     H 1017   5.921  10.063   2.091  0.8986 -1.5867  2.1547
    8MOL0     H 1018   5.897  10.094   1.629 -4.0394  1.4836 -3.7706
    8MOL0     H 1019   5.748  10.264   1.558  0.0684 -2.2717 -0.0569
    8MOL0     H 1020   5.621  10.827   1.766 -2.0185  2.8420  0.2280
    8MOL0     H 1021   5.463  10.964   1.689  0.5577  0.1405  0.7620
    8MOL0     H 1022   5.299  11.074   1.566  2.4419 -0.7847  1.0092
    8MOL0     H 1023   5.275  11.065   1.742  2.6035 -1.4623 -1.8976
    8MOL0     H 1024   5.086  11.106   1.497 -2.4913 -1.5607  1.1128
    8MOL0     H 1025   5.126  11.240   1.615 -0.0279 -0.8420  3.4237
    8MOL0     H 1026   4.902  11.188   1.635 -2.2423 -2.7584  0.4260
    8MOL0     H 1027   4.988  11.142   1.777 -2.1772 -1.9845  0.5907
    8MOL0     H 1028   4.826  11.007   1.572 -1.5769 -1.6302  0.5787
    8MOL0     H 1029   4.971  10.906   1.603 -2.8256 -2.6009 -0.8919
    8MOL0     H 1030   4.920  10.911   1.838 -1.2565  0.1966  1.0152
    8MOL0     H 1031   4.826  10.798   1.746 -1.3793  0.0486 -0.0315
    8MOL0     H 1032   4.640  10.948   1.761 -1.4847 -2.4190  1.3848
    8MOL0     H 1033   4.726  11.083   1.834  0.7085  0.4114  0.2521
    8MOL0     H 1034   4.688  10.804   1.954  0.0807  0.6875 -0.0108
    8MOL0     H 1035   4.792  10.925   2.033 -1.4317 -1.9992  2.5042
    8MOL0     H 1036   4.603  11.097   2.029  0.5951 -0.3691 -2.3568
    8MOL0     H 1037   4.568  10.946   2.132  3.7448 -1.3858  0.3153
    8MOL0     H 1038   5.182  10.651   1.652  0.5352 -2.0345  1.4216
    8MOL0     H 1039   5.350  10.491   1.703 -1.3498  0.4665 -1.3502
    8MOL0     H 1040   5.775  10.460   1.934  2.8752 -0.6762  0.3852
    8MOL0     H 1041   5.891  10.278   2.034 -0.5728 -0.6910  0.5373
    8MOL0     H 1042   7.010   8.872   2.029  0.2389  0.6474  1.6207
    8MOL0     H 1043   7.236   8.862   1.948 -0.0894  0.7113  1.6687
    8MOL0     H 1044   7.686   9.050   2.045  0.2166 -4.4917  0.2332
    8MOL0     H 1045   7.913   8.985   1.978  1.0845 -1.7680 -1.6364
    8MOL0     H 1046   8.137   8.884   1.856  1.1631 -1.0605 -2.2678
    8MOL0     H 1047   8.091   9.059   1.850 -1.0648 -0.2452 -0.0431
    8MOL0     H 1048   8.216   8.919   1.615 -1.2679 -1.0444  1.6685
    8MOL0     H 1049   8.194   9.089   1.637 -0.6950 -0.6128 -1.9110
    8MOL0     H 1050   8.381   8.889   1.792 -1.4901 -0.5282  0.6944
    8MOL0     H 1051   8.367   9.064   1.831 -3.0677  1.7271 -0.6772
    8MOL0     H 1052   8.443   8.939   1.563  1.0340 -1.8600  0.8235
    8MOL0     H 1053   8.460   9.109   1.589  0.8105 -0.7157 -1.2960
    8MOL0     H 1054   8.816   9.027   1.754  0.6517 -2.6966 -0.0519
    8MOL0     H 1055   7.786   8.931   1.577 -2.0171  1.0635 -1.1783
    8MOL0     H 1056   7.555   9.001   1.649 -0.1645 -1.9064  1.1753
    9MOL0     O 1057  10.149   9.928   9.465 -0.9743  0.3774 -0.6397
    9MOL0     C 1058  10.221   9.880   9.375 -0.0819 -0.8933 -0.3333
    9MOL0     O 1059  10.226   9.756   9.332 -0.6360 -0.4273 -0.4066
    9MOL0     C 1060  10.140   9.654   9.371 -0.1820 -0.0560  0.2233
    9MOL0     C 1061  10.023   9.663   9.452  0.2561  0.3683 -0.7433
    9MOL0     C 1062   9.948   9.548   9.490 -0.3060 -0.3271  0.2619
    9MOL0     C 1063   9.984   9.424   9.442 -0.2847  0.6645 -0.2388
    9MOL0     O 1064   9.906   9.314   9.441  0.0200 -0.3045  0.6966
    9MOL0     C 1065   9.880   9.255   9.569  0.2394 -0.0543 -0.1264
    9MOL0     C 1066   9.724   9.236   9.585 -0.2431  0.2749  0.1960
    9MOL0     C 1067   9.679   9.184   9.719 -0.6882 -0.9779  0.1999
    9MOL0     C 1068   9.528   9.165   9.714  0.8359  0.3208 -1.1880
    9MOL0     C 1069   9.475   9.089   9.828  0.1708  0.1172 -0.2706
    9MOL0     C 1070   9.321   9.065   9.807  0.5893  0.4466  0.4958
    9MOL0     C 1071   9.278   8.985   9.682 -0.3240 -0.3001 -0.1390
    9MOL0     C 1072   9.129   8.951   9.682 -0.1325  0.0122  0.1936
    9MOL0     N 1073   9.034   9.062   9.687 -0.8900 -0.0441 -0.0226
    9MOL0     C 1074   8.977   9.106   9.574  0.3256  0.1957 -0.5187
    9MOL0     C 1075   8.895   9.198   9.623  0.1668 -0.5300 -0.3895
    9MOL0     C 1076   8.809   9.280   9.541  0.3655  0.1720 -0.0213
    9MOL0     C 1077   8.699   9.204   9.461 -0.9019 -0.5265 -0.1870
    9MOL0     C 1078   8.556   9.193   9.526 -0.0969  0.8696  0.6412
    9MOL0     C 1079   8.467   9.105   9.444  0.0233  0.8122  0.5293
    9MOL0     O 1080   8.432   9.170   9.315  0.1212 -0.1040  0.1451
    9MOL0     C 1081   8.318   9.128   9.257  0.1594  0.6217  0.3276
    9MOL0     C 1082   8.304   8.993   9.214 -1.2915  0.3614 -0.5074
    9MOL0     C 1083   8.181   8.957   9.167  0.5143  1.1241 -0.0457
    9MOL0     C 1084   8.073   9.039   9.163  1.0651 -0.3044  0.4895
    9MOL0     C 1085   7.929   9.003   9.150 -0.1191  0.5660  0.1490
    9MOL0     O 1086   7.831   9.079   9.199  1.1114 -0.3495  1.0667
    9MOL0     C 1087   7.702   9.035   9.223  0.3067  0.5370  0.0274
    9MOL0     C 1088   7.596   9.130   9.217 -0.0968 -0.5387 -0.0036
    9MOL0     C 1089   7.464   9.092   9.245 -0.4704 -0.1151 -0.0086
    9MOL0     C 1090   7.441   8.958   9.272  0.3706 -0.6327 -0.4769
    9MOL0     O 1091   7.314   8.914   9.295  0.3569  0.2360 -0.1298
    9MOL0     C 1092   7.207   8.998   9.317  0.6166  0.5995 -0.0690
    9MOL0     C 1093   7.075   8.929   9.304  0.3180 -0.3128  0.1765
    9MOL0     C 1094   6.953   9.012   9.329 -0.7122 -0.1883 -0.4576
    9MOL0     C 1095   6.829   8.928   9.298  0.0550 -0.0548  0.1592
    9MOL0     C 1096   6.751   8.882   9.419 -0.5061 -0.8201  0.8972
    9MOL0     C 1097   6.674   9.003   9.479 -0.0858  0.0015 -0.3437
    9MOL0     C 1098   6.577   8.970   9.597 -1.1270  0.0852  0.6431
    9MOL0     C 1099   6.647   8.900   9.717 -0.6414 -0.5560  0.1356
    9MOL0    Cl 1100   6.808   8.975   9.770 -0.5001 -0.5064  0.0671
    9MOL0     C 1101   7.541   8.866   9.281  0.6537  0.7077  0.9294
    9MOL0     C 1102   7.671   8.905   9.254 -0.3205 -0.2027 -0.3016
    9MOL0     O 1103   7.904   8.894   9.090  0.2397  0.4884  0.3020
    9MOL0     C 1104   8.100   9.171   9.210  0.6377 -0.5783  0.0522
    9MOL0     C 1105   8.220   9.223   9.249 -0.0057 -0.0507  0.3556
    9MOL0     N 1106   8.914   9.217   9.761 -0.2864  0.5475 -0.3163
    9MOL0     N 1107   9.008   9.137   9.799  0.4714  0.3400  0.2168
    9MOL0     C 1108  10.105   9.417   9.367 -0.2635  0.6127  0.2655
    9MOL0     C 1109  10.178   9.530   9.333  0.1441  0.6054 -0.0847
    9MOL0     C 1110  10.330   9.980   9.321 -0.0411 -1.1742 -0.3037
    9MOL0     C 1111  10.456   9.935   9.281 -0.7009 -0.2343 -1.5192
    9MOL0     C 1112  10.558  10.014   9.244  0.4286 -0.5436 -0.8167
    9MOL0     C 1113  10.533  10.153   9.225 -0.4747 -0.1109 -0.0048
    9MOL0     O 1114  10.629  10.245   9.188  0.2014 -0.5341 -0.7260
    9MOL0     C 1115  10.765  10.208   9.196 -0.3647 -0.4983  0.7100
    9MOL0     C 1116  10.856  10.324   9.199  0.2579 -0.0302 -0.0105
    9MOL0     C 1117  10.982  10.314   9.128 -0.4063  0.8683  0.5932
    9MOL0     C 1118  11.043  10.452   9.102  0.0836  0.4573 -0.5799
    9MOL0     C 1119  11.182  10.438   9.052  0.3431  0.0865  0.1103
    9MOL0     C 1120  11.299  10.423   9.001 -0.6629 -1.1018  1.1200
    9MOL0     C 1121  10.414  10.206   9.255  1.3103  0.1322 -0.5043
    9MOL0     C 1122  10.315  10.123   9.307 -0.0258  0.0141 -1.1658
    9MOL0     H 1123  10.000   9.761   9.492  1.1665 -0.3329  1.7235
    9MOL0     H 1124   9.857   9.548   9.549 -0.0650  1.3716  0.6954
    9MOL0     H 1125   9.917   9.312   9.655 -2.7395 -0.3208  1.4452
    9MOL0     H 1126   9.924   9.155   9.582  1.4948  0.6644  1.6006
    9MOL0     H 1127   9.695   9.165   9.507 -1.3004 -1.9639  2.4976
    9MOL0     H 1128   9.671   9.329   9.564 -0.9066 -0.2540 -0.5095
    9MOL0     H 1129   9.703   9.260   9.793  0.7731  0.4112 -1.5967
    9MOL0     H 1130   9.731   9.089   9.733 -0.2178 -0.8911 -0.8083
    9MOL0     H 1131   9.480   9.262   9.729 -1.5072 -0.3635 -3.5800
    9MOL0     H 1132   9.497   9.126   9.618  3.1581 -0.9818 -1.4859
    9MOL0     H 1133   9.482   9.146   9.921  2.4649 -0.1285 -0.2343
    9MOL0     H 1134   9.533   8.996   9.836  3.5696  2.1532  0.7828
    9MOL0     H 1135   9.282   9.167   9.811 -1.4463 -0.2632 -0.1123
    9MOL0     H 1136   9.284   9.010   9.894  0.4638 -0.7694 -0.2971
    9MOL0     H 1137   9.302   9.037   9.589 -1.7515 -1.0557 -0.9597
    9MOL0     H 1138   9.343   8.897   9.683 -1.1106 -0.9411 -2.0943
    9MOL0     H 1139   9.119   8.891   9.773 -1.4006 -0.7038 -0.3944
    9MOL0     H 1140   9.102   8.876   9.607  0.0017  1.9058 -1.8172
    9MOL0     H 1141   8.989   9.096   9.467 -0.8096 -0.7222 -0.5919
    9MOL0     H 1142   8.885   9.321   9.473 -0.6260  3.2457  0.5635
    9MOL0     H 1143   8.758   9.357   9.599  0.5288 -0.6338  1.2129
    9MOL0     H 1144   8.738   9.105   9.438  0.2170  0.3549 -2.4087
    9MOL0     H 1145   8.702   9.250   9.361 -0.0938 -0.2285 -0.0311
    9MOL0     H 1146   8.565   9.155   9.628 -2.1379 -3.8821 -0.6621
    9MOL0     H 1147   8.502   9.288   9.527  1.1811  1.6880 -1.1485
    9MOL0     H 1148   8.376   9.076   9.498 -1.6780  0.0416 -2.5298
    9MOL0     H 1149   8.526   9.018   9.416  1.0751  1.6555  0.0275
    9MOL0     H 1150   8.389   8.928   9.231 -0.4930  1.2799 -0.8371
    9MOL0     H 1151   8.165   8.854   9.136  0.3450  0.9923  0.4511
    9MOL0     H 1152   7.631   9.229   9.191 -0.2121 -0.2781  0.8282
    9MOL0     H 1153   7.391   9.171   9.255  0.8331  1.3286 -1.3180
    9MOL0     H 1154   7.213   9.087   9.254 -1.2800 -0.3731 -1.7637
    9MOL0     H 1155   7.215   9.029   9.422 -1.0948 -0.4580  0.4238
    9MOL0     H 1156   7.075   8.838   9.366  0.9004 -2.2005 -2.4351
    9MOL0     H 1157   7.075   8.895   9.200 -1.9835  2.0973 -0.7170
    9MOL0     H 1158   6.948   9.099   9.263 -1.8159 -0.9673 -1.4499
    9MOL0     H 1159   6.948   9.039   9.435 -0.4298 -3.5204  0.5185
    9MOL0     H 1160   6.756   8.980   9.236 -0.9395 -2.3266 -0.7085
    9MOL0     H 1161   6.860   8.850   9.227 -0.7846  1.5317 -2.0734
    9MOL0     H 1162   6.823   8.848   9.493 -1.4006  0.0821  2.2285
    9MOL0     H 1163   6.678   8.804   9.395 -2.2864  0.5682  1.5456
    9MOL0     H 1164   6.606   9.065   9.419 -1.4091 -1.6020 -0.5859
    9MOL0     H 1165   6.755   9.064   9.519  1.6424 -1.4174 -1.5358
    9MOL0     H 1166   6.544   9.067   9.635  0.9177 -0.5424  4.5990
    9MOL0     H 1167   6.490   8.920   9.554 -1.4108  1.1401 -0.0576
    9MOL0     H 1168   6.667   8.797   9.686 -1.3752 -0.2308 -1.5177
    9MOL0     H 1169   6.574   8.899   9.799 -1.3366 -1.8070 -0.4656
    9MOL0     H 1170   7.524   8.764   9.313 -0.2097  1.1733  2.0308
    9MOL0     H 1171   7.747   8.831   9.275 -0.2893  0.2252  1.2532
    9MOL0     H 1172   8.022   9.246   9.209  1.7681  0.6299 -1.5642
    9MOL0     H 1173   8.238   9.322   9.288  0.8661  1.6558 -3.8173
    9MOL0     H 1174  10.139   9.327   9.317 -1.3624 -0.3692  1.2069
    9MOL0     H 1175  10.272   9.521   9.280 -0.2678 -0.1636 -0.7133
    9MOL0     H 1176  10.484   9.830   9.283  2.0318  0.4474 -0.4640
    9MOL0     H 1177  10.660   9.976   9.235  0.6483 -0.7863  1.7891
    9MOL0     H 1178  10.799  10.144   9.114 -0.3396  1.1699 -0.6354
    9MOL0     H 1179  10.787  10.157   9.290  1.4830 -1.4656 -0.1812
    9MOL0     H 1180  10.801  10.408   9.156 -0.2870 -0.1828  0.3808
    9MOL0     H 1181  10.871  10.357   9.302  1.9883  1.0606 -0.5616
    9MOL0     H 1182  10.967  10.271   9.029 -1.3005  1.5983  0.3971
    9MOL0     H 1183  11.052  10.247   9.179  0.0852 -0.7716 -2.0604
    9MOL0     H 1184  10.987  10.508   9.027 -1.1145 -0.1746 -0.1846
    9MOL0     H 1185  11.051  10.507   9.196  2.1746 -1.6833  0.6131
    9MOL0     H 1186  11.402  10.408   8.972 -1.5596 -0.4465 -3.1448
    9MOL0     H 1187  10.389  10.311   9.245 -2.0551 -0.5694 -0.8690
    9MOL0     H 1188  10.220  10.165   9.338  0.1127 -2.2403  3.0349
   10MOL0     O 1189  10.114   1.808   8.297  0.6532  0.3684 -0.5179
   10MOL0     C 1190  10.159   1.695   8.315  0.1371 -0.1150  0.3214
   10MOL0     O 1191  10.090   1.592   8.376  0.0366 -0.0767 -0.4411
   10MOL0     C 1192   9.949   1.591   8.389 -0.7042 -0.5505 -0.4525
   10MOL0     C 1193   9.885   1.511   8.481  0.2378  0.2337 -0.3521
   10MOL0     C 1194   9.746   1.493   8.487  0.0336 -0.4911 -0.5797
   10MOL0     C 1195   9.663   1.576   8.408  0.1150  0.7042 -1.3316
   10MOL0     O 1196   9.533   1.566   8.411 -0.2198  0.1282 -0.1261
   10MOL0     C 1197   9.467   1.692   8.441  0.3274  0.5316  0.2685
   10MOL0     C 1198   9.319   1.653   8.476 -0.9336  0.6624  0.5697
   10MOL0     C 1199   9.309   1.534   8.574  0.3046 -0.6789 -0.2316
   10MOL0     C 1200   9.168   1.532   8.636  0.0441 -0.4497  0.4709
   10MOL0     C 1201   9.146   1.403   8.719 -0.3868 -0.6803  0.1102
   10MOL0     C 1202   9.222   1.413   8.850 -0.2478  0.7278 -0.3491
   10MOL0     C 1203   9.217   1.285   8.942 -0.1091 -0.7204 -0.1366
   10MOL0     C 1204   9.075   1.260   8.986 -0.1691 -0.6125  0.2736
   10MOL0     N 1205   9.043   1.343   9.102 -1.1315 -0.3000  0.2123
   10MOL0     C 1206   9.095   1.332   9.231 -0.5292 -0.7685 -0.0571
   10MOL0     C 1207   9.023   1.421   9.305  0.5352 -0.4745  0.1127
   10MOL0     C 1208   9.052   1.458   9.453 -0.5362 -0.4643  0.3219
   10MOL0     C 1209   8.972   1.371   9.560  0.4863  0.4354 -0.1830
   10MOL0     C 1210   8.847   1.450   9.598  0.4925  0.3474  1.0547
   10MOL0     C 1211   8.777   1.376   9.708  0.0451  0.2521  0.8646
   10MOL0     O 1212   8.631   1.388   9.706  0.5131 -0.4993  0.2263
   10MOL0     C 1213   8.574   1.506   9.734  0.4359  0.2406 -0.0916
   10MOL0     C 1214   8.446   1.521   9.685 -1.0124  1.0399 -0.0419
   10MOL0     C 1215   8.396   1.655   9.677 -0.4714  0.2999  0.2977
   10MOL0     C 1216   8.467   1.769   9.720  0.3604  0.5081  0.5309
   10MOL0     C 1217   8.424   1.902   9.698  0.2355  0.2048  0.6070
   10MOL0     O 1218   8.339   1.912   9.592 -0.3850  0.3936  0.1657
   10MOL0     C 1219   8.294   2.029   9.547  0.5158  0.2508 -0.0168
   10MOL0     C 1220   8.379   2.143   9.532  0.0889  0.0038 -0.1214
   10MOL0     C 1221   8.325   2.261   9.488  0.3997 -0.3083 -1.3185
   10MOL0     C 1222   8.186   2.271   9.457 -1.0724 -0.4157  0.7653
   10MOL0     O 1223   8.155   2.403   9.414 -0.0439  0.1124 -1.1143
   10MOL0     C 1224   8.016   2.424   9.384 -0.2182 -0.0711 -0.3889
   10MOL0     C 1225   8.017   2.549   9.311 -0.2126 -0.7525  0.2101
   10MOL0     C 1226   7.885   2.616   9.321 -0.3761 -0.8290  0.3670
   10MOL0     C 1227   7.773   2.538   9.242  1.2469  0.5643  0.5121
   10MOL0     C 1228   7.621   2.581   9.272  0.1672  0.9292  0.3347
   10MOL0     C 1229   7.566   2.681   9.177 -0.4735  0.0978  1.0304
   10MOL0     C 1230   7.600   2.657   9.028  0.2377 -0.5463 -0.0787
   10MOL0     C 1231   7.547   2.793   8.963 -0.8375  0.0855  0.2910
   10MOL0    Cl 1232   7.368   2.805   8.963 -0.3895 -0.1514 -0.7587
   10MOL0     C 1233   8.109   2.156   9.445  0.3733 -0.6033 -0.1302
   10MOL0     C 1234   8.161   2.044   9.507  0.1399 -0.3047 -0.5734
   10MOL0     O 1235   8.479   1.993   9.761  0.0561 -0.4730  0.1872
   10MOL0     C 1236   8.587   1.749   9.784 -0.9831  0.6637 -0.6519
   10MOL0     C 1237   8.641   1.617   9.792 -0.0894  0.2331  1.2198
   10MOL0     N 1238   8.933   1.487   9.222 -0.2031  0.1726 -1.2796
   10MOL0     N 1239   8.943   1.435   9.103 -0.2777 -0.5806  0.4508
   10MOL0     C 1240   9.724   1.658   8.317  0.2160 -0.4167 -0.8756
   10MOL0     C 1241   9.863   1.661   8.301 -0.2779 -0.2258  0.0749
   10MOL0     C 1242  10.290   1.667   8.264 -0.1635  0.1267 -0.7961
   10MOL0     C 1243  10.359   1.746   8.172 -0.4882  0.1193 -0.3194
   10MOL0     C 1244  10.492   1.722   8.133 -0.8935  0.5404 -0.2998
   10MOL0     C 1245  10.558   1.605   8.171 -0.4590  0.4952 -1.0391
   10MOL0     O 1246  10.679   1.561   8.123  0.0026  0.0175  0.3624
   10MOL0     C 1247  10.792   1.645   8.083  0.4663 -0.7326 -0.3226
   10MOL0     C 1248  10.927   1.570   8.057 -0.3690 -0.2533  0.9437
   10MOL0     C 1249  10.970   1.495   8.180 -0.7496 -0.9885 -0.7617
   10MOL0     C 1250  11.100   1.414   8.154  0.8026  0.7717  0.0305
   10MOL0     C 1251  11.202   1.486   8.086  1.3869  0.9699  0.4063
   10MOL0     C 1252  11.289   1.532   8.026 -0.8864 -0.0838 -0.5112
   10MOL0     C 1253  10.488   1.512   8.253 -0.8235  0.2472 -0.5955
   10MOL0     C 1254  10.363   1.554   8.306  1.1439  1.1847  0.2087
   10MOL0     H 1255   9.953   1.451   8.540  0.9586 -2.0707 -3.2700
   10MOL0     H 1256   9.701   1.422   8.556  1.5486  0.1355  1.1699
   10MOL0     H 1257   9.461   1.746   8.346 -1.2912 -0.0761 -0.0088
   10MOL0     H 1258   9.513   1.754   8.519  1.3033  0.2110 -0.0398
   10MOL0     H 1259   9.274   1.604   8.389  0.0070 -0.9422  0.9515
   10MOL0     H 1260   9.265   1.738   8.518  0.3724  1.0084  1.6361
   10MOL0     H 1261   9.374   1.553   8.659 -0.1828  1.6837 -0.3299
   10MOL0     H 1262   9.327   1.439   8.523 -0.1112 -1.3361  0.7971
   10MOL0     H 1263   9.150   1.629   8.683 -0.1202 -0.5920  0.7071
   10MOL0     H 1264   9.092   1.532   8.558 -2.1624 -0.9552  2.4900
   10MOL0     H 1265   9.173   1.320   8.653  2.3187 -0.5893  0.9913
   10MOL0     H 1266   9.040   1.390   8.741 -0.3933 -1.7260 -0.4853
   10MOL0     H 1267   9.205   1.506   8.906  2.7436  1.2078 -0.0647
   10MOL0     H 1268   9.324   1.401   8.814 -0.2742 -2.8033  0.4010
   10MOL0     H 1269   9.250   1.202   8.879 -2.5965 -0.1748 -2.3219
   10MOL0     H 1270   9.293   1.295   9.020  1.1003  2.7026 -1.5626
   10MOL0     H 1271   9.069   1.154   9.013  1.8813 -0.1085  3.0647
   10MOL0     H 1272   9.000   1.283   8.910  1.8891 -1.9244 -2.3135
   10MOL0     H 1273   9.184   1.280   9.265 -0.4868 -0.9227 -0.3998
   10MOL0     H 1274   9.028   1.564   9.458  0.0534 -0.2426 -1.1727
   10MOL0     H 1275   9.161   1.454   9.461 -0.2372 -0.1508 -2.6287
   10MOL0     H 1276   9.031   1.338   9.646 -0.3345  1.2267  0.7076
   10MOL0     H 1277   8.934   1.281   9.511  0.7055  1.6027 -2.6898
   10MOL0     H 1278   8.876   1.549   9.634  1.2001 -0.0882  1.7242
   10MOL0     H 1279   8.784   1.451   9.509 -0.5365 -2.3542  1.6541
   10MOL0     H 1280   8.820   1.408   9.804  3.0629 -2.7352  0.6876
   10MOL0     H 1281   8.801   1.269   9.702 -3.1003 -0.4985  0.1880
   10MOL0     H 1282   8.374   1.443   9.661 -1.5613  1.2468  0.8858
   10MOL0     H 1283   8.301   1.668   9.625 -0.9570 -0.6840  0.9133
   10MOL0     H 1284   8.487   2.151   9.544 -0.1201  0.5000  1.5798
   10MOL0     H 1285   8.379   2.356   9.490 -1.0236  0.5357 -1.7209
   10MOL0     H 1286   7.971   2.429   9.483 -0.0288 -2.1374 -0.1655
   10MOL0     H 1287   7.966   2.344   9.329  0.5817 -0.0617 -1.1622
   10MOL0     H 1288   8.047   2.540   9.206 -0.8134  0.1297 -0.0451
   10MOL0     H 1289   8.085   2.618   9.360 -0.1135  0.3015 -1.3442
   10MOL0     H 1290   7.877   2.720   9.286 -0.1182 -1.5746 -2.1092
   10MOL0     H 1291   7.843   2.612   9.422 -3.3976  1.6998 -0.6159
   10MOL0     H 1292   7.797   2.541   9.136 -0.4678  0.7349  0.0925
   10MOL0     H 1293   7.778   2.433   9.273  2.7847  1.2366  2.8384
   10MOL0     H 1294   7.596   2.603   9.376  3.8035 -1.5225  1.9647
   10MOL0     H 1295   7.564   2.492   9.241 -0.4011  1.0510  1.0076
   10MOL0     H 1296   7.614   2.776   9.200 -0.2581 -0.0265  1.1053
   10MOL0     H 1297   7.459   2.698   9.187 -0.6820  0.7150 -1.6315
   10MOL0     H 1298   7.705   2.655   8.997  0.3639  1.9391 -0.0916
   10MOL0     H 1299   7.557   2.565   8.989  2.3092 -1.0978 -1.1950
   10MOL0     H 1300   7.588   2.796   8.861  4.5259 -1.3350  2.0755
   10MOL0     H 1301   7.588   2.880   9.015 -0.5863 -0.7079  1.4647
   10MOL0     H 1302   8.007   2.152   9.408  0.0595  1.0556  0.4380
   10MOL0     H 1303   8.094   1.961   9.524 -0.9433  0.8218  0.9263
   10MOL0     H 1304   8.651   1.830   9.815 -1.2569 -0.3435  3.0976
   10MOL0     H 1305   8.732   1.603   9.850  0.9229 -1.4009 -0.6382
   10MOL0     H 1306   9.665   1.719   8.249 -2.1777 -1.1557  0.4206
   10MOL0     H 1307   9.904   1.727   8.225  1.1515 -0.8267  0.2861
   10MOL0     H 1308  10.310   1.837   8.138 -0.8219 -0.0866 -0.3851
   10MOL0     H 1309  10.547   1.798   8.078  2.6091 -2.6991 -1.6932
   10MOL0     H 1310  10.815   1.715   8.164 -1.7381  0.8912 -0.9883
   10MOL0     H 1311  10.760   1.714   8.004  2.5931 -0.3176 -0.8809
   10MOL0     H 1312  10.916   1.505   7.970  0.7340  0.0665  0.5497
   10MOL0     H 1313  11.006   1.642   8.034 -2.3534  1.5918 -0.4918
   10MOL0     H 1314  10.892   1.426   8.214 -1.9689  1.3204  1.4944
   10MOL0     H 1315  10.987   1.569   8.259  3.1718 -0.0803 -2.2181
   10MOL0     H 1316  11.134   1.378   8.252  3.1990  1.6398 -0.4227
   10MOL0     H 1317  11.084   1.323   8.096  0.8685  0.7904 -0.0169
   10MOL0     H 1318  11.379   1.570   7.983 -0.7791  0.1911 -0.0538
   10MOL0     H 1319  10.543   1.424   8.285  0.0980  0.0496 -2.5320
   10MOL0     H 1320  10.318   1.502   8.390  2.6224  1.0143  0.9188
   11MOL0     O 1321   9.863   0.195   1.991  0.3634  0.3106  0.6086
   11MOL0     C 1322   9.788   0.245   2.068  0.0162  0.3205 -0.8774
   11MOL0     O 1323   9.747   0.171   2.179 -0.6728 -0.5602  0.6311
   11MOL0     C 1324   9.796   0.047   2.192  1.0777 -0.0418 -0.0309
   11MOL0     C 1325   9.710  -0.063   2.170  0.1642 -0.9154  0.0186
   11MOL0     C 1326   9.766  -0.192   2.184  0.7852 -1.3184  0.5066
   11MOL0     C 1327   9.903  -0.206   2.219  0.1157  0.7447 -0.9486
   11MOL0     O 1328   9.950  -0.340   2.227  0.1157  0.5583  0.6968
   11MOL0     C 1329  10.078  -0.360   2.159 -0.6009 -0.3581  0.3984
   11MOL0     C 1330  10.132  -0.514   2.159  0.4102  0.0177 -0.0828
   11MOL0     C 1331  10.169  -0.569   2.297  0.3573  0.9838  0.1026
   11MOL0     C 1332  10.195  -0.728   2.289 -0.4204 -0.1737  0.5820
   11MOL0     C 1333  10.180  -0.794   2.425  0.8297  1.6222 -0.0232
   11MOL0     C 1334  10.039  -0.798   2.484 -0.3306 -0.3021 -0.1191
   11MOL0     C 1335  10.043  -0.861   2.628 -0.1584  0.0632 -0.1319
   11MOL0     C 1336   9.899  -0.890   2.676  0.2589 -0.3985 -0.4993
   11MOL0     N 1337   9.897  -0.952   2.807 -0.0905  0.8578  0.3001
   11MOL0     C 1338   9.841  -0.916   2.931 -0.0270  1.1478 -0.0986
   11MOL0     C 1339   9.873  -1.019   3.008  0.5474 -0.1920 -0.2394
   11MOL0     C 1340   9.801  -1.024   3.139 -0.8015  1.5481 -0.5123
   11MOL0     C 1341   9.753  -1.164   3.176 -0.4269  0.9069  0.2986
   11MOL0     C 1342   9.716  -1.170   3.328 -0.2569  0.4160  0.2519
   11MOL0     C 1343   9.589  -1.106   3.376  0.0020  0.3454  0.5186
   11MOL0     O 1344   9.467  -1.183   3.364 -0.0360 -0.3888  0.1808
   11MOL0     C 1345   9.350  -1.157   3.429 -0.1564 -0.1203 -0.7126
   11MOL0     C 1346   9.319  -1.031   3.483  0.2736  0.3320 -0.0538
   11MOL0     C 1347   9.203  -1.016   3.556  0.2413 -0.7839 -0.1236
   11MOL0     C 1348   9.102  -1.102   3.541 -0.7019 -0.1980  0.1422
   11MOL0     C 1349   8.965  -1.054   3.573 -0.6747  0.5116  0.0046
   11MOL0     O 1350   8.958  -0.936   3.637  0.0670  0.4148  0.3229
   11MOL0     C 1351   8.829  -0.894   3.666 -0.1392  1.2416  0.1853
   11MOL0     C 1352   8.779  -0.881   3.797  0.5397  0.1779 -0.4028
   11MOL0     C 1353   8.660  -0.816   3.815 -1.0419  0.6916  0.7322
   11MOL0     C 1354   8.573  -0.782   3.704 -0.3740  0.5688 -0.3257
   11MOL0     O 1355   8.447  -0.743   3.741 -0.3072 -0.2439 -0.2078
   11MOL0     C 1356   8.347  -0.710   3.643  0.0006  0.1861 -0.9291
   11MOL0     C 1357   8.368  -0.562   3.613  0.4098  0.2022  0.0737
   11MOL0     C 1358   8.244  -0.497   3.530 -0.0181  0.0790 -0.7117
   11MOL0     C 1359   8.233  -0.563   3.389  0.2808  0.1948 -0.2082
   11MOL0     C 1360   8.118  -0.505   3.303  0.1387 -0.3560  0.0310
   11MOL0     C 1361   7.997  -0.592   3.303  0.7859  0.3148  0.1138
   11MOL0     C 1362   7.900  -0.536   3.198 -0.1032  0.4851 -0.5372
   11MOL0     C 1363   7.776  -0.459   3.249 -0.3263 -0.0539 -0.0121
   11MOL0    Cl 1364   7.810  -0.303   3.334  0.4999  0.0283 -0.2254
   11MOL0     C 1365   8.628  -0.789   3.578  0.7134  0.5879 -0.2664
   11MOL0     C 1366   8.749  -0.852   3.561 -0.3849  0.1203  0.1739
   11MOL0     O 1367   8.875  -1.124   3.538 -0.5709 -0.1229  0.0216
   11MOL0     C 1368   9.129  -1.230   3.483 -0.1105 -0.7400 -0.4559
   11MOL0     C 1369   9.252  -1.256   3.431 -0.0583  0.2137 -0.4408
   11MOL0     N 1370   9.940  -1.117   2.925 -0.0304 -0.1047 -0.7062
   11MOL0     N 1371   9.963  -1.070   2.811  0.3847 -0.3212 -0.8674
   11MOL0     C 1372   9.984  -0.095   2.246 -0.1176 -0.0351 -0.1590
   11MOL0     C 1373   9.931   0.034   2.233  0.1200  0.0329 -0.0101
   11MOL0     C 1374   9.737   0.376   2.039 -0.6275 -0.1809 -0.0445
   11MOL0     C 1375   9.611   0.420   2.088  0.2150 -0.1384  0.4240
   11MOL0     C 1376   9.552   0.539   2.048 -0.5164  0.4137  0.4709
   11MOL0     C 1377   9.616   0.628   1.963  0.4354 -0.0244 -0.4499
   11MOL0     O 1378   9.573   0.755   1.946 -0.7463 -0.1364 -0.0789
   11MOL0     C 1379   9.443   0.794   1.999  0.4688  1.0654  0.0735
   11MOL0     C 1380   9.409   0.930   1.920 -0.2179  0.1573  0.3014
   11MOL0     C 1381   9.389   0.928   1.764  0.4676 -0.1736 -0.2415
   11MOL0     C 1382   9.479   1.037   1.706  0.1632 -0.7587 -1.0467
   11MOL0     C 1383   9.418   1.054   1.574 -0.5188  0.6421 -0.0256
   11MOL0     C 1384   9.354   1.066   1.474  0.3180 -0.9789  0.0404
   11MOL0     C 1385   9.744   0.584   1.916 -0.7972  0.6784  0.3593
   11MOL0     C 1386   9.806   0.461   1.948  0.0793  1.0408  0.4905
   11MOL0     H 1387   9.607  -0.040   2.144  0.1577 -3.2968 -2.6209
   11MOL0     H 1388   9.693  -0.269   2.162 -2.3123  0.9081  2.2819
   11MOL0     H 1389  10.157  -0.295   2.198 -0.2794  0.5428 -1.6262
   11MOL0     H 1390  10.070  -0.343   2.051  0.7496  1.9121  0.5918
   11MOL0     H 1391  10.221  -0.527   2.096  0.4273 -0.3085  0.0031
   11MOL0     H 1392  10.052  -0.574   2.114 -1.5831  2.0875  0.5241
   11MOL0     H 1393  10.080  -0.555   2.358  0.5251 -0.2676  0.6566
   11MOL0     H 1394  10.261  -0.521   2.333  2.4178 -3.3310  1.1819
   11MOL0     H 1395  10.129  -0.782   2.221 -0.6789 -2.4695  2.5203
   11MOL0     H 1396  10.301  -0.731   2.262 -0.3931  0.3412  0.6129
   11MOL0     H 1397  10.259  -0.758   2.491 -0.0304 -1.4766  2.9886
   11MOL0     H 1398  10.202  -0.898   2.399 -0.5860  1.5440 -1.0139
   11MOL0     H 1399   9.975  -0.857   2.418 -2.0474  0.1971  1.0117
   11MOL0     H 1400   9.993  -0.700   2.499 -0.5607 -0.7849  3.3964
   11MOL0     H 1401  10.100  -0.954   2.631  0.6728  0.5420  2.7823
   11MOL0     H 1402  10.103  -0.797   2.694 -0.7626 -2.0964  2.7412
   11MOL0     H 1403   9.855  -0.948   2.595  3.7718  1.1665 -3.8251
   11MOL0     H 1404   9.854  -0.792   2.693  3.2464  1.1160 -0.6186
   11MOL0     H 1405   9.775  -0.831   2.948  0.6458  1.5607  0.5391
   11MOL0     H 1406   9.710  -0.963   3.135 -1.9670  0.0637  1.2900
   11MOL0     H 1407   9.863  -0.980   3.218  2.4267  1.0321 -2.5977
   11MOL0     H 1408   9.841  -1.225   3.157  0.1079  2.1440 -1.3368
   11MOL0     H 1409   9.672  -1.205   3.116 -0.9850  1.0196  0.9531
   11MOL0     H 1410   9.707  -1.279   3.340 -1.3268  0.2953 -1.4233
   11MOL0     H 1411   9.797  -1.128   3.390 -0.4540  2.6005 -0.8905
   11MOL0     H 1412   9.573  -1.010   3.325  0.4794  0.1805  0.0518
   11MOL0     H 1413   9.604  -1.085   3.482 -3.6385 -2.3274  1.7747
   11MOL0     H 1414   9.391  -0.953   3.458  0.9276 -1.0278 -2.6979
   11MOL0     H 1415   9.199  -0.924   3.613  2.5133 -1.0898  0.6346
   11MOL0     H 1416   8.833  -0.919   3.883  0.8490  2.1577  0.3092
   11MOL0     H 1417   8.620  -0.815   3.916 -2.5681 -1.1760  0.2248
   11MOL0     H 1418   8.250  -0.717   3.693  1.7407  1.1152  3.0232
   11MOL0     H 1419   8.355  -0.770   3.552  0.3565 -0.7660 -0.2894
   11MOL0     H 1420   8.462  -0.538   3.562  0.3603  1.7937  0.6942
   11MOL0     H 1421   8.376  -0.521   3.714 -2.2559 -0.6791  0.7344
   11MOL0     H 1422   8.265  -0.390   3.517 -0.1484  0.0916 -0.8195
   11MOL0     H 1423   8.154  -0.506   3.591  0.8712 -2.5439  0.3660
   11MOL0     H 1424   8.328  -0.548   3.337  0.8995  4.2565  1.6697
   11MOL0     H 1425   8.236  -0.671   3.407  0.6345  0.3226  0.5113
   11MOL0     H 1426   8.148  -0.490   3.199  0.2217  0.2624  0.1427
   11MOL0     H 1427   8.094  -0.409   3.349  2.1882 -0.7061  2.0188
   11MOL0     H 1428   7.948  -0.609   3.400  0.6604 -2.1617 -0.3233
   11MOL0     H 1429   8.034  -0.691   3.278 -0.0928  0.2941 -1.1966
   11MOL0     H 1430   7.959  -0.485   3.122  3.4586 -0.2816  1.4779
   11MOL0     H 1431   7.846  -0.621   3.154 -1.1331  0.9116 -0.1341
   11MOL0     H 1432   7.721  -0.525   3.316 -1.5678 -0.8724 -1.7463
   11MOL0     H 1433   7.717  -0.450   3.157  3.1210  2.2427 -2.2518
   11MOL0     H 1434   8.574  -0.759   3.489 -2.5479  0.0692  1.3960
   11MOL0     H 1435   8.803  -0.861   3.467  0.6224 -1.8624  0.8861
   11MOL0     H 1436   9.045  -1.298   3.475  0.2948 -1.4389  0.8377
   11MOL0     H 1437   9.281  -1.349   3.384  1.1207  0.5352 -0.3745
   11MOL0     H 1438  10.091  -0.085   2.265 -0.1297  1.3559 -0.7271
   11MOL0     H 1439   9.995   0.118   2.259  0.1730  0.0789 -0.2821
   11MOL0     H 1440   9.561   0.356   2.160 -0.7065  0.3941  0.2733
   11MOL0     H 1441   9.461   0.566   2.099 -0.5128  2.3351 -0.4544
   11MOL0     H 1442   9.461   0.808   2.106 -0.7036  2.4474  0.1165
   11MOL0     H 1443   9.376   0.713   1.970  0.3787  1.6909 -1.5808
   11MOL0     H 1444   9.319   0.976   1.961  0.0465  2.1202 -1.1949
   11MOL0     H 1445   9.487   1.000   1.949  1.2723 -2.0751  2.0836
   11MOL0     H 1446   9.282   0.945   1.750  0.1189 -1.6169  0.4132
   11MOL0     H 1447   9.420   0.830   1.727  1.6389 -0.2505  0.8406
   11MOL0     H 1448   9.486   1.130   1.764 -1.2289 -1.6691  0.6644
   11MOL0     H 1449   9.578   0.991   1.695 -0.0056 -1.3692 -0.1766
   11MOL0     H 1450   9.295   1.061   1.384  1.5384  0.6003 -0.8909
   11MOL0     H 1451   9.797   0.655   1.855 -0.2256 -0.8363 -0.9754
   11MOL0     H 1452   9.900   0.428   1.904 -0.1300  0.4168  0.5006
   12MOL0     O 1453  11.190   4.987   9.796 -0.1932 -0.0619 -0.6408
   12MOL0     C 1454  11.080   5.037   9.816 -1.1090  0.1589 -0.7071
   12MOL0     O 1455  10.978   5.025   9.737  0.3072 -0.0520 -1.2128
   12MOL0     C 1456  10.997   4.959   9.618  0.2194  0.7223  0.2115
   12MOL0     C 1457  11.061   5.014   9.511 -0.4233 -0.1059 -0.1913
   12MOL0     C 1458  11.050   4.950   9.381 -0.1533 -0.4549 -0.4769
   12MOL0     C 1459  10.981   4.835   9.372 -0.1612 -0.6916 -0.6566
   12MOL0     O 1460  10.961   4.775   9.249  0.0605 -0.0959  0.0776
   12MOL0     C 1461  11.010   4.839   9.127  0.5282  0.5206  0.4135
   12MOL0     C 1462  10.973   4.777   8.990 -0.2061 -0.8174 -0.3224
   12MOL0     C 1463  10.836   4.800   8.953  0.1474  0.3131  0.8386
   12MOL0     C 1464  10.791   4.709   8.830 -0.8669 -0.3768  0.4636
   12MOL0     C 1465  10.653   4.733   8.770 -0.9177  0.5962 -0.2781
   12MOL0     C 1466  10.534   4.658   8.829  0.4475  0.3582 -0.3758
   12MOL0     C 1467  10.409   4.649   8.738  0.6290 -0.4265  0.2506
   12MOL0     C 1468  10.346   4.785   8.720 -0.4739 -0.0125  0.2094
   12MOL0     N 1469  10.220   4.773   8.643 -0.2783 -0.3122  0.2282
   12MOL0     C 1470  10.224   4.763   8.507  0.7091 -0.2343 -0.0884
   12MOL0     C 1471  10.088   4.730   8.479  0.7599  0.0984 -0.6307
   12MOL0     C 1472  10.028   4.717   8.338  0.2128 -0.7432 -0.9505
   12MOL0     C 1473  10.050   4.838   8.249 -0.8919 -0.0778 -0.7516
   12MOL0     C 1474  10.023   4.971   8.316  0.3596  0.4576  1.3126
   12MOL0     C 1475  10.034   5.092   8.222 -0.5676 -0.5953 -0.4081
   12MOL0     O 1476   9.941   5.081   8.118  0.1730 -0.5188  0.8734
   12MOL0     C 1477   9.804   5.106   8.143 -0.1552 -0.5369  0.5132
   12MOL0     C 1478   9.716   5.006   8.179  0.1225 -0.2791 -1.1292
   12MOL0     C 1479   9.580   5.029   8.180 -0.2507 -0.4131 -0.5025
   12MOL0     C 1480   9.536   5.166   8.142 -0.4392  0.1233 -0.7562
   12MOL0     C 1481   9.389   5.199   8.139 -0.2862 -0.8763  0.5346
   12MOL0     O 1482   9.302   5.103   8.091 -0.3907 -0.1931  0.1489
   12MOL0     C 1483   9.167   5.124   8.076  0.5786  0.4226  0.1145
   12MOL0     C 1484   9.116   5.040   7.974 -0.2862 -0.6963 -0.2386
   12MOL0     C 1485   8.979   5.044   7.934 -0.3610 -0.0318 -0.4186
   12MOL0     C 1486   8.892   5.110   8.029  0.4288 -0.0690  0.4726
   12MOL0     O 1487   8.761   5.119   8.008 -0.7198  0.4863 -0.0094
   12MOL0     C 1488   8.704   5.087   7.881  0.1562  0.0090 -0.1386
   12MOL0     C 1489   8.557   5.127   7.869 -0.6175  0.1300  0.2495
   12MOL0     C 1490   8.480   5.058   7.754 -0.1912  0.0078 -1.0194
   12MOL0     C 1491   8.324   5.104   7.730 -0.4460 -0.0915 -0.5786
   12MOL0     C 1492   8.269   5.032   7.608  0.7905 -0.3667  0.1552
   12MOL0     C 1493   8.127   5.092   7.576  1.6522 -0.3893 -0.2258
   12MOL0     C 1494   8.018   5.040   7.685  0.4012  0.0540 -0.2057
   12MOL0     C 1495   7.876   5.073   7.664  0.4818  0.0564 -0.1319
   12MOL0    Cl 1496   7.856   5.249   7.669  0.2908 -0.4463  0.3351
   12MOL0     C 1497   8.946   5.195   8.134  1.1114 -0.0376 -0.9891
   12MOL0     C 1498   9.080   5.197   8.158  0.7691 -0.1339  0.4904
   12MOL0     O 1499   9.359   5.314   8.167 -0.0449  0.0806 -0.0570
   12MOL0     C 1500   9.627   5.264   8.107  0.1492 -0.1253 -0.2817
   12MOL0     C 1501   9.757   5.231   8.095 -1.1718  1.5342 -0.4860
   12MOL0     N 1502  10.021   4.737   8.599 -0.2747 -0.0777  1.1958
   12MOL0     N 1503  10.102   4.741   8.697 -0.1583  0.5436 -0.4122
   12MOL0     C 1504  10.918   4.774   9.481  0.2365 -0.3743 -0.5505
   12MOL0     C 1505  10.913   4.843   9.602  0.5215  1.0520 -0.2626
   12MOL0     C 1506  11.068   5.101   9.955  0.9377 -0.5863  0.4609
   12MOL0     C 1507  11.181   5.139  10.022 -1.1976 -0.0245  0.0037
   12MOL0     C 1508  11.195   5.193  10.151  0.0988  0.4935  0.0170
   12MOL0     C 1509  11.074   5.215  10.216  0.6449  1.1729 -0.4829
   12MOL0     O 1510  11.088   5.269  10.345  0.2354  0.9036  1.1300
   12MOL0     C 1511  10.979   5.349  10.393 -0.0371 -0.6389 -0.0524
   12MOL0     C 1512  10.979   5.493  10.321  0.0408 -0.1183 -0.2997
   12MOL0     C 1513  11.085   5.583  10.384 -0.0629 -0.0618 -0.0552
   12MOL0     C 1514  11.233   5.530  10.354  0.8896  0.3062 -0.1311
   12MOL0     C 1515  11.316   5.645  10.351  0.1671  0.1124  0.5289
   12MOL0     C 1516  11.396   5.732  10.357  0.7111 -0.4661  0.2435
   12MOL0     C 1517  10.956   5.183  10.151  1.1774 -0.4299  0.8601
   12MOL0     C 1518  10.951   5.122  10.030  0.2226 -0.8468  0.9623
   12MOL0     H 1519  11.116   5.106   9.527 -1.4938  0.1380  2.5472
   12MOL0     H 1520  11.101   5.008   9.305  0.5397  3.7256  2.7594
   12MOL0     H 1521  11.119   4.844   9.124  0.6131 -0.8590  0.5013
   12MOL0     H 1522  10.971   4.941   9.118  2.5647  1.2266 -1.5744
   12MOL0     H 1523  10.995   4.670   8.988  2.0590 -0.3816 -0.5925
   12MOL0     H 1524  11.037   4.822   8.913 -1.2675  2.4635  0.5313
   12MOL0     H 1525  10.824   4.906   8.930 -4.1357 -0.1516  0.0077
   12MOL0     H 1526  10.771   4.783   9.039 -1.1264 -1.1022 -0.3391
   12MOL0     H 1527  10.858   4.727   8.746 -0.2264 -0.0119  1.0438
   12MOL0     H 1528  10.813   4.608   8.864  3.5081  0.2803  0.0684
   12MOL0     H 1529  10.668   4.710   8.664 -1.1271 -1.4264  0.0784
   12MOL0     H 1530  10.639   4.841   8.772 -0.0294  0.7066  1.4649
   12MOL0     H 1531  10.502   4.705   8.923 -3.4454  0.2640 -1.4942
   12MOL0     H 1532  10.571   4.557   8.851 -1.3495 -0.7744 -2.2401
   12MOL0     H 1533  10.432   4.614   8.637  0.2396 -0.0417  0.0240
   12MOL0     H 1534  10.336   4.579   8.780 -4.4119  0.6904 -5.2124
   12MOL0     H 1535  10.412   4.846   8.658 -0.9217  1.5006  1.1681
   12MOL0     H 1536  10.330   4.815   8.824 -1.4559  1.4512 -0.3303
   12MOL0     H 1537  10.308   4.773   8.440  0.0732  3.7255 -0.5516
   12MOL0     H 1538   9.921   4.704   8.359  0.3319  0.2215  0.3923
   12MOL0     H 1539  10.072   4.629   8.290  1.0240 -1.9417  1.8003
   12MOL0     H 1540   9.989   4.820   8.160  0.9991  1.7262 -2.5354
   12MOL0     H 1541  10.155   4.847   8.220 -1.0428 -2.7353 -2.5132
   12MOL0     H 1542   9.928   4.962   8.369  1.6085 -2.5557  3.3325
   12MOL0     H 1543  10.094   4.974   8.399  0.8499 -2.6377  1.1213
   12MOL0     H 1544  10.131   5.103   8.173 -1.0678  0.0453 -1.2774
   12MOL0     H 1545  10.017   5.188   8.271  0.1555  0.4443 -2.1319
   12MOL0     H 1546   9.742   4.903   8.201  0.0268  0.2531  1.7414
   12MOL0     H 1547   9.509   4.956   8.219  1.7802 -1.5800  1.1900
   12MOL0     H 1548   9.172   4.980   7.902 -0.9777  0.7764 -2.1041
   12MOL0     H 1549   8.942   4.994   7.845  2.4377 -1.2321 -1.0044
   12MOL0     H 1550   8.718   4.980   7.862  0.1430  0.2723 -1.7341
   12MOL0     H 1551   8.762   5.146   7.809 -1.0071 -0.5439 -1.5903
   12MOL0     H 1552   8.545   5.236   7.870 -2.4887 -0.0235  2.0494
   12MOL0     H 1553   8.504   5.102   7.962 -0.5367  1.3581  0.6487
   12MOL0     H 1554   8.485   4.950   7.767  2.0293 -0.0621 -2.0831
   12MOL0     H 1555   8.535   5.084   7.663 -0.5830  0.1145 -1.2324
   12MOL0     H 1556   8.258   5.077   7.813 -0.0301  0.0030 -0.2146
   12MOL0     H 1557   8.324   5.212   7.713 -0.5769  0.7001  3.4879
   12MOL0     H 1558   8.260   4.924   7.623 -2.5204 -0.5973 -2.4919
   12MOL0     H 1559   8.335   5.063   7.526 -1.6925 -0.5839 -2.0756
   12MOL0     H 1560   8.091   5.087   7.472  2.5837  0.5411 -0.6100
   12MOL0     H 1561   8.128   5.201   7.590  1.1715 -0.0916 -2.1403
   12MOL0     H 1562   8.042   4.934   7.690  0.1575  0.0401  1.7832
   12MOL0     H 1563   8.039   5.072   7.788  5.5146 -1.3480 -0.5582
   12MOL0     H 1564   7.818   5.024   7.743 -0.4610  0.7474 -0.3682
   12MOL0     H 1565   7.840   5.033   7.568 -3.4309  2.0849  0.2748
   12MOL0     H 1566   8.878   5.255   8.194 -1.0444 -3.5460  0.4118
   12MOL0     H 1567   9.118   5.232   8.254 -1.0896  3.4051  0.0963
   12MOL0     H 1568   9.595   5.362   8.073 -0.5157 -0.6378 -1.1727
   12MOL0     H 1569   9.828   5.307   8.063  0.4062 -0.6163 -2.3966
   12MOL0     H 1570  10.872   4.676   9.471  0.6872 -0.7163  0.6641
   12MOL0     H 1571  10.848   4.797   9.675 -0.3382  2.6915  0.0415
   12MOL0     H 1572  11.274   5.123   9.969 -0.9799 -0.3301  0.4733
   12MOL0     H 1573  11.288   5.196  10.205  0.0853  2.0534 -0.0132
   12MOL0     H 1574  10.983   5.348  10.503 -2.4975 -3.2744  0.1303
   12MOL0     H 1575  10.884   5.296  10.383  1.5405 -3.9378  1.0533
   12MOL0     H 1576  10.989   5.479  10.213 -2.7716 -1.6435 -0.4539
   12MOL0     H 1577  10.886   5.545  10.345  0.6704  1.8989 -1.8872
   12MOL0     H 1578  11.071   5.587  10.492  0.7993  1.3903  0.0142
   12MOL0     H 1579  11.067   5.684  10.346 -2.2762  0.9409  3.2127
   12MOL0     H 1580  11.254   5.452  10.428  0.6845 -1.2937 -1.6933
   12MOL0     H 1581  11.235   5.487  10.254 -0.0017 -1.1262  0.4426
   12MOL0     H 1582  11.482   5.796  10.351 -1.1591  2.4925  2.3344
   12MOL0     H 1583  10.862   5.223  10.188  0.3964  0.2260 -1.6269
   12MOL0     H 1584  10.852   5.090  10.000 -1.1733  0.9658  3.2510
   13MOL0     O 1585   4.069  10.098   2.797  0.0944  0.9311 -0.9605
   13MOL0     C 1586   3.982  10.183   2.783 -0.1359 -0.5555  1.1177
   13MOL0     O 1587   3.871  10.203   2.859 -0.8231 -0.1648 -0.8325
   13MOL0     C 1588   3.868  10.178   3.005  1.0391 -0.4460 -0.1961
   13MOL0     C 1589   3.741  10.141   3.057  0.4386  0.0885  0.0072
   13MOL0     C 1590   3.722  10.104   3.192  0.2558  0.0748  0.0719
   13MOL0     C 1591   3.836  10.108   3.276  0.4349 -0.5856 -0.1347
   13MOL0     O 1592   3.818  10.069   3.411  0.1197  0.2130 -0.3758
   13MOL0     C 1593   3.821  10.182   3.496 -0.5858 -0.0350 -0.5018
   13MOL0     C 1594   3.815  10.125   3.641 -0.1506  0.1752 -0.0177
   13MOL0     C 1595   3.704  10.015   3.671  0.3013  0.0893 -0.0461
   13MOL0     C 1596   3.561  10.063   3.635 -1.0746  0.8587 -0.1990
   13MOL0     C 1597   3.481   9.935   3.606  0.1244  0.5341 -0.7507
   13MOL0     C 1598   3.490   9.884   3.457  0.0309 -0.0055  0.5820
   13MOL0     C 1599   3.459   9.740   3.423 -1.0031 -0.0505 -0.9711
   13MOL0     C 1600   3.308   9.710   3.433  1.2974 -0.0577  0.0858
   13MOL0     N 1601   3.227   9.807   3.353 -0.5296  0.4215 -0.2527
   13MOL0     C 1602   3.239   9.831   3.216  0.1013 -0.1057  0.6042
   13MOL0     C 1603   3.133   9.908   3.187  0.5748 -0.3370 -0.2237
   13MOL0     C 1604   3.095   9.938   3.052  1.0299 -0.3656 -0.4202
   13MOL0     C 1605   3.110  10.099   3.025  0.0036  0.7300 -0.0714
   13MOL0     C 1606   3.042  10.191   3.126  0.9237 -0.1823 -0.1921
   13MOL0     C 1607   2.888  10.161   3.128 -0.1064  0.4985  0.1804
   13MOL0     O 1608   2.815  10.251   3.209  0.2392  0.7786 -0.1449
   13MOL0     C 1609   2.678  10.241   3.203  0.5807  0.2162 -0.2390
   13MOL0     C 1610   2.614  10.141   3.133  0.1829 -0.1122  0.6839
   13MOL0     C 1611   2.477  10.146   3.131  0.0656  0.1138  0.1891
   13MOL0     C 1612   2.396  10.247   3.194 -0.1935  0.2699  0.8632
   13MOL0     C 1613   2.251  10.249   3.186 -0.2517 -1.4313 -0.0019
   13MOL0     O 1614   2.190  10.139   3.143  0.2125  0.2592 -0.1678
   13MOL0     C 1615   2.052  10.131   3.171 -0.2863  0.4282  0.1618
   13MOL0     C 1616   2.022  10.063   3.289 -0.1246  0.8620 -0.1664
   13MOL0     C 1617   1.889  10.045   3.321  0.1114  0.1307 -0.5198
   13MOL0     C 1618   1.789  10.096   3.232 -0.4503 -0.0705  0.0589
   13MOL0     O 1619   1.651  10.095   3.240  0.0260  1.1226 -0.1388
   13MOL0     C 1620   1.593  10.046   3.362  0.8659 -0.5463 -0.3993
   13MOL0     C 1621   1.442  10.020   3.348 -0.2777 -0.5210 -0.2325
   13MOL0     C 1622   1.369  10.149   3.313 -0.2478  0.4240 -0.4726
   13MOL0     C 1623   1.216  10.127   3.309  0.2622  0.8214  0.2636
   13MOL0     C 1624   1.160  10.040   3.203 -0.8655  0.4278 -0.6407
   13MOL0     C 1625   1.162  10.114   3.068  0.5047  0.6255 -0.5786
   13MOL0     C 1626   1.048  10.065   2.976  0.4477 -0.7577 -0.0540
   13MOL0     C 1627   0.912  10.136   3.003  0.4195 -0.4513 -0.2521
   13MOL0    Cl 1628   0.943  10.308   2.970 -0.1164 -0.4892 -0.5690
   13MOL0     C 1629   1.826  10.171   3.125  0.6862 -0.5497  0.2824
   13MOL0     C 1630   1.960  10.169   3.074 -0.0539  0.1378 -0.4226
   13MOL0     O 1631   2.201  10.356   3.225 -0.8633  0.0369  0.1224
   13MOL0     C 1632   2.472  10.350   3.250 -0.2905  0.9628 -0.0375
   13MOL0     C 1633   2.611  10.341   3.263  0.4710  0.3841  0.5650
   13MOL0     N 1634   3.062   9.928   3.306  1.2250  0.4445  0.1909
   13MOL0     N 1635   3.115   9.859   3.398 -0.0218 -0.5316 -1.3798
   13MOL0     C 1636   3.960  10.141   3.225 -0.3328  0.8253  0.9602
   13MOL0     C 1637   3.977  10.175   3.088 -0.5540 -0.2397 -0.4341
   13MOL0     C 1638   3.996  10.268   2.664  0.3987  0.0281  0.1108
   13MOL0     C 1639   4.104  10.257   2.570 -0.4790 -0.2732 -0.9020
   13MOL0     C 1640   4.113  10.337   2.457  0.4369 -0.2652 -0.0104
   13MOL0     C 1641   4.025  10.444   2.437  0.2175 -0.1524 -0.5704
   13MOL0     O 1642   4.044  10.533   2.330  0.2705 -0.0479 -0.2593
   13MOL0     C 1643   4.017  10.468   2.206 -0.3724  0.5037  0.1246
   13MOL0     C 1644   3.914  10.549   2.127  0.0160  0.4073  0.5480
   13MOL0     C 1645   3.932  10.700   2.108  1.1779 -0.0204  0.5958
   13MOL0     C 1646   3.885  10.750   1.964 -1.0029  0.6947 -0.6745
   13MOL0     C 1647   3.757  10.820   1.983 -0.3106 -0.0764  1.1005
   13MOL0     C 1648   3.657  10.878   1.997 -0.3681  1.0801  0.5823
   13MOL0     C 1649   3.908  10.458   2.523 -0.4947 -0.1458  0.8896
   13MOL0     C 1650   3.894  10.369   2.636 -0.6551 -0.0202 -0.1355
   13MOL0     H 1651   3.664  10.117   2.985 -0.8297 -2.6583  2.1016
   13MOL0     H 1652   3.629  10.070   3.237 -0.7281 -0.4536 -2.2048
   13MOL0     H 1653   3.743  10.256   3.476  0.3541  0.2650 -3.7343
   13MOL0     H 1654   3.915  10.238   3.486  0.6616 -1.7433  1.0023
   13MOL0     H 1655   3.812  10.211   3.708  0.8103  1.6665 -1.7812
   13MOL0     H 1656   3.915  10.083   3.655 -0.8894 -1.1549  1.5284
   13MOL0     H 1657   3.689   9.975   3.772  2.1372 -0.3244  0.1040
   13MOL0     H 1658   3.734   9.934   3.603 -2.4436 -0.6975 -0.4465
   13MOL0     H 1659   3.519  10.115   3.722  2.1829  1.0230  1.4364
   13MOL0     H 1660   3.561  10.135   3.553 -1.1227 -0.0706 -1.0169
   13MOL0     H 1661   3.378   9.970   3.614  0.7595  2.0759  1.4747
   13MOL0     H 1662   3.495   9.848   3.672 -2.1401 -2.5101 -3.8984
   13MOL0     H 1663   3.592   9.892   3.418 -0.0003 -3.0574 -0.4084
   13MOL0     H 1664   3.426   9.942   3.389 -1.7226 -0.9136  1.4012
   13MOL0     H 1665   3.479   9.709   3.320 -0.4166 -1.1592 -0.5388
   13MOL0     H 1666   3.514   9.672   3.489 -2.0262 -0.3157 -0.3770
   13MOL0     H 1667   3.266   9.709   3.534 -0.8851  3.9826 -0.5786
   13MOL0     H 1668   3.301   9.613   3.382 -0.4747  0.9958 -1.8327
   13MOL0     H 1669   3.316   9.797   3.148  0.0011  2.1777 -0.7413
   13MOL0     H 1670   2.996   9.893   3.039  0.2329  0.1518  3.0665
   13MOL0     H 1671   3.162   9.883   2.985 -1.5660 -3.7797 -0.4900
   13MOL0     H 1672   3.069  10.116   2.926 -1.4414 -1.6339  0.0291
   13MOL0     H 1673   3.215  10.131   3.029 -0.0166  0.6927  1.1774
   13MOL0     H 1674   3.089  10.201   3.224  0.2065  2.4497 -0.0353
   13MOL0     H 1675   3.059  10.292   3.087  3.6816 -1.2274 -2.0769
   13MOL0     H 1676   2.874  10.061   3.169  2.6973 -0.6453 -1.3341
   13MOL0     H 1677   2.855  10.163   3.024 -1.1836  1.3118  0.5224
   13MOL0     H 1678   2.670  10.062   3.085  1.3023  0.1858  1.4617
   13MOL0     H 1679   2.424  10.080   3.064  0.3790 -0.0155  0.0636
   13MOL0     H 1680   2.100  10.030   3.357  0.5565  5.3021  1.5713
   13MOL0     H 1681   1.855   9.990   3.408 -0.1928 -0.3612 -0.9438
   13MOL0     H 1682   1.605  10.121   3.442 -0.9988 -0.6960  0.0557
   13MOL0     H 1683   1.639   9.951   3.391 -0.8020 -1.7602 -1.5755
   13MOL0     H 1684   1.404   9.968   3.436 -1.2880 -1.8405 -1.3857
   13MOL0     H 1685   1.433   9.950   3.264 -1.6334 -0.8880  0.1921
   13MOL0     H 1686   1.398  10.181   3.212  0.7955  1.8858  0.2461
   13MOL0     H 1687   1.403  10.220   3.389 -2.2511 -0.2425  1.1126
   13MOL0     H 1688   1.192  10.070   3.399  4.8066 -3.5629 -0.8340
   13MOL0     H 1689   1.159  10.221   3.306 -2.6364 -0.8399 -0.2540
   13MOL0     H 1690   1.056  10.012   3.220 -0.0588 -2.4397  0.0789
   13MOL0     H 1691   1.220   9.952   3.181 -2.1679 -0.4515 -0.7795
   13MOL0     H 1692   1.255  10.089   3.015  0.5027  1.5440 -1.0317
   13MOL0     H 1693   1.156  10.223   3.067 -0.9012  0.5894 -2.6961
   13MOL0     H 1694   1.079  10.074   2.871  0.5130 -0.1321  0.0151
   13MOL0     H 1695   1.027   9.959   2.997 -2.2184  0.1150  2.2758
   13MOL0     H 1696   0.897  10.116   3.109  1.5308  1.8206  0.3973
   13MOL0     H 1697   0.831  10.105   2.937  0.0261 -0.4161  0.2110
   13MOL0     H 1698   1.746  10.225   3.074 -3.5844 -3.8108  2.8980
   13MOL0     H 1699   1.987  10.225   2.985 -2.5866  0.2493 -1.1869
   13MOL0     H 1700   2.427  10.443   3.285 -1.5915  1.4989 -2.8537
   13MOL0     H 1701   2.666  10.427   3.301 -0.7138  1.8375 -0.8725
   13MOL0     H 1702   4.054  10.143   3.280  1.3701  0.3135 -1.7537
   13MOL0     H 1703   4.078  10.199   3.057 -0.4692 -0.3460 -0.2448
   13MOL0     H 1704   4.164  10.170   2.593 -1.2063 -1.3132 -2.7175
   13MOL0     H 1705   4.201  10.324   2.395 -1.1769  0.6934 -2.6613
   13MOL0     H 1706   3.965  10.373   2.224 -2.8647  1.2916 -2.2541
   13MOL0     H 1707   4.112  10.445   2.156 -0.0701 -3.7671  2.1483
   13MOL0     H 1708   3.902  10.503   2.028 -2.4413  0.6612  0.6654
   13MOL0     H 1709   3.824  10.522   2.183  0.1838  1.2955  1.2693
   13MOL0     H 1710   4.035  10.735   2.107  1.0149  0.4628 -0.3721
   13MOL0     H 1711   3.866  10.742   2.184 -0.7456  2.2634 -2.1297
   13MOL0     H 1712   3.953  10.830   1.934  0.5441  0.0928  1.0880
   13MOL0     H 1713   3.873  10.670   1.890  0.4421  1.5300 -1.8675
   13MOL0     H 1714   3.553  10.900   1.988 -1.0950  0.0829  4.6814
   13MOL0     H 1715   3.832  10.530   2.498 -0.6754 -1.3544 -2.6063
   13MOL0     H 1716   3.812  10.397   2.702 -1.1051  1.6169 -1.3319
   14MOL0     O 1717   7.653   1.746   0.137  0.3728 -0.1521  0.1436
   14MOL0     C 1718   7.593   1.855   0.142  0.5372 -0.2605 -0.1186
   14MOL0     O 1719   7.451   1.867   0.136 -0.5483 -0.5979 -0.2607
   14MOL0     C 1720   7.378   1.747   0.133  0.8999 -1.0036  0.0168
   14MOL0     C 1721   7.388   1.663   0.021  0.5988 -0.1564 -0.4228
   14MOL0     C 1722   7.315   1.542   0.017 -0.6583  0.2996 -0.2275
   14MOL0     C 1723   7.220   1.506   0.110 -0.2793 -0.3832  0.6504
   14MOL0     O 1724   7.153   1.390   0.087  0.3146 -0.1808  0.1418
   14MOL0     C 1725   7.013   1.400   0.118  0.4026 -1.0142  0.6433
   14MOL0     C 1726   6.919   1.345   0.007 -0.6079 -0.8960  0.1871
   14MOL0     C 1727   6.902   1.198   0.032  0.7499  0.2978  0.4226
   14MOL0     C 1728   6.790   1.137  -0.055 -0.0417  0.0943  0.1798
   14MOL0     C 1729   6.645   1.187  -0.032 -0.0968  0.2795  0.6490
   14MOL0     C 1730   6.607   1.190   0.118  0.0991  0.1791  0.3261
   14MOL0     C 1731   6.587   1.053   0.183 -0.1714  0.0751  0.5224
   14MOL0     C 1732   6.469   0.974   0.115 -0.7605  0.6701 -1.1309
   14MOL0     N 1733   6.342   1.053   0.124  0.0430 -0.5976  0.7882
   14MOL0     C 1734   6.261   1.036   0.231 -0.3756 -0.1794  0.3310
   14MOL0     C 1735   6.136   1.087   0.189 -1.1844 -0.0240  0.6075
   14MOL0     C 1736   6.011   1.041   0.262  0.0471 -0.1015  0.4828
   14MOL0     C 1737   5.966   0.918   0.194  0.4567 -0.4874  0.2381
   14MOL0     C 1738   5.893   0.822   0.302 -0.6878 -0.0289  0.9681
   14MOL0     C 1739   5.814   0.705   0.241  0.2735  1.4060 -0.0151
   14MOL0     O 1740   5.704   0.729   0.142 -0.5915  0.1826 -0.2587
   14MOL0     C 1741   5.585   0.763   0.194 -0.3054 -0.8187  0.5389
   14MOL0     C 1742   5.517   0.696   0.290  0.3104  0.8353  0.2067
   14MOL0     C 1743   5.381   0.737   0.324 -0.2752 -0.0800  0.0953
   14MOL0     C 1744   5.316   0.848   0.254 -0.4210  0.6073  0.0580
   14MOL0     C 1745   5.173   0.879   0.276 -0.5051  0.6392 -1.0372
   14MOL0     O 1746   5.128   0.981   0.192  0.3539 -0.5491  0.2620
   14MOL0     C 1747   4.997   1.027   0.198 -0.8505  0.2954  0.7052
   14MOL0     C 1748   4.925   1.054   0.077 -0.6969  0.6479  0.2910
   14MOL0     C 1749   4.798   1.117   0.070 -0.3773 -1.1604 -0.3250
   14MOL0     C 1750   4.741   1.160   0.192 -0.6741  0.0154  0.4908
   14MOL0     O 1751   4.620   1.202   0.213 -0.3141  0.0587  0.6650
   14MOL0     C 1752   4.514   1.177   0.120  0.3358  0.3535  0.3051
   14MOL0     C 1753   4.368   1.164   0.174  1.0873 -0.1678  0.0269
   14MOL0     C 1754   4.355   1.068   0.293  1.7351  0.8546 -0.7727
   14MOL0     C 1755   4.401   1.121   0.419  0.9577 -0.5456 -1.0583
   14MOL0     C 1756   4.318   1.070   0.543  0.1453  0.2301  0.5827
   14MOL0     C 1757   4.310   0.918   0.559  0.0929 -0.7665  0.5800
   14MOL0     C 1758   4.462   0.872   0.555 -0.1443  0.2206 -0.6085
   14MOL0     C 1759   4.494   0.724   0.585 -0.6886  0.7096 -0.2406
   14MOL0    Cl 1760   4.520   0.721   0.762 -0.3588 -0.1943 -0.2562
   14MOL0     C 1761   4.808   1.139   0.310  0.2449 -0.9716  1.0885
   14MOL0     C 1762   4.944   1.078   0.315  1.1965  0.1788  0.2145
   14MOL0     O 1763   5.104   0.816   0.359  0.3253 -0.1990 -0.4144
   14MOL0     C 1764   5.399   0.915   0.169 -0.2746 -0.3958 -1.1864
   14MOL0     C 1765   5.526   0.876   0.132 -0.0166  0.0356  0.3386
   14MOL0     N 1766   6.157   1.147   0.065  0.8996 -1.0950 -0.0720
   14MOL0     N 1767   6.282   1.134   0.030 -0.2779  0.2811 -0.0793
   14MOL0     C 1768   7.208   1.595   0.219 -0.1002  0.1155  0.4716
   14MOL0     C 1769   7.284   1.714   0.233 -0.0227  0.8874 -0.4871
   14MOL0     C 1770   7.663   1.990   0.154 -0.0310  0.0844  0.4914
   14MOL0     C 1771   7.803   2.004   0.133 -0.3061 -0.9030 -0.7706
   14MOL0     C 1772   7.864   2.124   0.160 -0.6225  0.0264  0.7313
   14MOL0     C 1773   7.791   2.241   0.175 -0.4914  0.4318  0.9778
   14MOL0     O 1774   7.853   2.368   0.202 -0.0161  0.3698 -0.0780
   14MOL0     C 1775   7.998   2.382   0.192  0.1083  0.2784  0.2222
   14MOL0     C 1776   8.053   2.381   0.052 -0.5017 -0.9274 -0.1028
   14MOL0     C 1777   7.978   2.475  -0.037 -0.1142 -0.2888 -0.2439
   14MOL0     C 1778   7.994   2.622  -0.013  0.5282 -0.9687 -0.6059
   14MOL0     C 1779   8.144   2.636  -0.011 -0.1155 -0.1191 -0.1248
   14MOL0     C 1780   8.273   2.640  -0.031  1.5130  0.0917  0.7526
   14MOL0     C 1781   7.650   2.227   0.181 -0.1690 -0.6561 -0.1880
   14MOL0     C 1782   7.583   2.102   0.172  0.0545  0.1085  0.2175
   14MOL0     H 1783   7.454   1.675  -0.064  0.2713 -2.4697 -1.0994
   14MOL0     H 1784   7.347   1.481  -0.068  0.4610  2.7600 -1.6838
   14MOL0     H 1785   6.981   1.499   0.151 -1.5397 -1.9211  1.6637
   14MOL0     H 1786   6.992   1.330   0.199 -1.5020  0.1582  1.2356
   14MOL0     H 1787   6.955   1.360  -0.095 -2.2962  1.8724 -0.1249
   14MOL0     H 1788   6.824   1.400   0.000 -0.3802 -0.5622 -0.3873
   14MOL0     H 1789   6.876   1.172   0.135 -0.2640 -2.2042 -0.3948
   14MOL0     H 1790   6.993   1.138   0.021  0.5647 -0.0086  0.5493
   14MOL0     H 1791   6.823   1.156  -0.158 -2.2139 -2.3642 -1.1131
   14MOL0     H 1792   6.807   1.029  -0.051 -3.1343 -0.4309  1.1950
   14MOL0     H 1793   6.575   1.121  -0.084  2.7574 -1.5652 -1.1317
   14MOL0     H 1794   6.636   1.290  -0.066  2.1011  1.5928  3.5868
   14MOL0     H 1795   6.519   1.249   0.145  0.5569  0.6470  0.8607
   14MOL0     H 1796   6.695   1.243   0.157  3.9041 -3.5391 -2.4026
   14MOL0     H 1797   6.676   0.990   0.180  1.0772  1.7093  1.3495
   14MOL0     H 1798   6.549   1.069   0.284 -1.4779  4.8794 -0.4589
   14MOL0     H 1799   6.450   0.881   0.169 -2.9298  1.2969 -0.7230
   14MOL0     H 1800   6.491   0.948   0.011  0.2556  1.8198 -1.2263
   14MOL0     H 1801   6.271   0.969   0.316 -0.1044 -2.4933 -1.4083
   14MOL0     H 1802   5.942   1.124   0.244  2.1423  2.3021  2.7216
   14MOL0     H 1803   6.040   1.036   0.367  1.6482  1.7632  0.2070
   14MOL0     H 1804   6.040   0.860   0.138 -0.0086 -1.4489  0.5915
   14MOL0     H 1805   5.895   0.956   0.121  0.6598  0.9485  0.7575
   14MOL0     H 1806   5.967   0.782   0.372  0.2302 -5.1372 -2.3902
   14MOL0     H 1807   5.815   0.883   0.349 -1.7302  0.4978 -1.3261
   14MOL0     H 1808   5.764   0.650   0.322 -0.5382  1.4202 -0.4911
   14MOL0     H 1809   5.892   0.641   0.201  2.1279  2.6382  1.4657
   14MOL0     H 1810   5.560   0.617   0.351  3.1805  0.3569 -2.1885
   14MOL0     H 1811   5.330   0.677   0.399 -0.8738  1.7303  1.1919
   14MOL0     H 1812   4.970   1.034  -0.020 -1.4413  0.5260 -0.0291
   14MOL0     H 1813   4.739   1.133  -0.019 -0.5985 -3.2406 -0.5962
   14MOL0     H 1814   4.530   1.081   0.071 -1.5617 -0.6369  1.4940
   14MOL0     H 1815   4.511   1.254   0.043  0.6025  1.5853  1.4759
   14MOL0     H 1816   4.300   1.135   0.093 -1.3453  2.0843  1.1378
   14MOL0     H 1817   4.325   1.260   0.202  0.7978 -0.5381  0.8891
   14MOL0     H 1818   4.412   0.976   0.278  0.1361 -0.4570  0.7681
   14MOL0     H 1819   4.248   1.047   0.294  1.4395  2.1623  1.1134
   14MOL0     H 1820   4.509   1.107   0.434  0.4482 -2.7123  1.1019
   14MOL0     H 1821   4.395   1.229   0.402  0.8153 -0.7273 -2.2284
   14MOL0     H 1822   4.214   1.099   0.528 -0.4509 -1.2406  1.5777
   14MOL0     H 1823   4.371   1.104   0.632 -1.1587 -2.1872  2.4166
   14MOL0     H 1824   4.259   0.872   0.474  0.3636  1.5520 -0.9367
   14MOL0     H 1825   4.273   0.886   0.657  0.4127 -3.6560 -0.1408
   14MOL0     H 1826   4.505   0.886   0.456  3.7980  2.1507  1.1494
   14MOL0     H 1827   4.515   0.933   0.629  0.2905 -0.0555 -0.6897
   14MOL0     H 1828   4.585   0.680   0.543 -0.8902  0.4451 -0.4047
   14MOL0     H 1829   4.411   0.658   0.558 -0.1733 -0.8943  1.8615
   14MOL0     H 1830   4.754   1.168   0.400 -4.1929  1.8224 -2.0859
   14MOL0     H 1831   5.006   1.057   0.402 -0.1963 -2.2744  0.6999
   14MOL0     H 1832   5.355   1.009   0.135 -3.6372  0.1385  3.6036
   14MOL0     H 1833   5.582   0.927   0.054 -2.2256 -0.8152 -1.9381
   14MOL0     H 1834   7.136   1.568   0.295 -0.2131 -0.3758  0.1958
   14MOL0     H 1835   7.260   1.772   0.322  0.3154  1.1499 -0.5635
   14MOL0     H 1836   7.866   1.916   0.120 -0.4901 -1.1916  0.2392
   14MOL0     H 1837   7.972   2.121   0.155 -0.6935 -0.1674 -2.2615
   14MOL0     H 1838   8.044   2.306   0.255 -2.8390 -1.5673  0.3583
   14MOL0     H 1839   8.037   2.477   0.230  1.4419 -0.7415  1.5064
   14MOL0     H 1840   8.158   2.412   0.059 -0.6279 -0.4583 -0.2377
   14MOL0     H 1841   8.044   2.282   0.006 -0.8441 -2.0300  2.1653
   14MOL0     H 1842   7.871   2.454  -0.035 -0.1753  0.0438  0.9162
   14MOL0     H 1843   8.021   2.450  -0.134 -1.9782 -1.7488 -0.7626
   14MOL0     H 1844   7.947   2.666  -0.102 -1.9338 -0.2890  0.9137
   14MOL0     H 1845   7.952   2.658   0.082  2.4733  1.3860 -0.5375
   14MOL0     H 1846   8.380   2.644  -0.029  1.5065  0.0312  2.4695
   14MOL0     H 1847   7.604   2.321   0.211  2.3503  1.1348 -1.5409
   14MOL0     H 1848   7.476   2.105   0.188  0.2253  0.9366  1.3269
   15MOL0     O 1849   0.328  11.015   4.749 -0.3173  0.6691  0.0271
   15MOL0     C 1850   0.318  10.936   4.656  0.4201  0.3546  0.1090
   15MOL0     O 1851   0.211  10.910   4.583 -0.4474  0.9698  1.0124
   15MOL0     C 1852   0.076  10.950   4.625  0.0915 -0.1925  0.0552
   15MOL0     C 1853   0.034  10.940   4.759  0.0565 -0.0189  0.3201
   15MOL0     C 1854  -0.103  10.958   4.793  0.0022  0.5333 -0.2157
   15MOL0     C 1855  -0.201  10.992   4.697  0.6059  0.0982  0.3467
   15MOL0     O 1856  -0.330  11.026   4.728 -0.0208 -0.2177 -0.4240
   15MOL0     C 1857  -0.397  10.974   4.845  0.5559 -0.1970  0.2638
   15MOL0     C 1858  -0.531  11.043   4.865  0.4699  0.5564  0.0782
   15MOL0     C 1859  -0.619  11.018   4.743  0.0296 -0.5922 -0.1334
   15MOL0     C 1860  -0.770  11.041   4.779 -0.7086  0.1473 -0.0367
   15MOL0     C 1861  -0.844  10.911   4.799 -0.4457 -1.0055  1.4707
   15MOL0     C 1862  -0.995  10.921   4.832  0.8977  0.4824  0.3236
   15MOL0     C 1863  -1.031  11.028   4.940  0.5666 -0.7699 -0.7324
   15MOL0     C 1864  -0.973  11.003   5.074 -0.4367  0.6917  0.0698
   15MOL0     N 1865  -1.081  10.974   5.174  0.2654 -1.2489  0.3916
   15MOL0     C 1866  -1.159  11.082   5.223  0.6721 -0.5350 -1.0530
   15MOL0     C 1867  -1.245  11.016   5.309 -0.2337 -0.9804  0.7911
   15MOL0     C 1868  -1.356  11.078   5.394 -0.9174 -0.1037  0.1487
   15MOL0     C 1869  -1.457  10.979   5.445 -0.0322 -0.0821 -0.2253
   15MOL0     C 1870  -1.500  11.004   5.583 -0.5611 -1.2132  0.0519
   15MOL0     C 1871  -1.608  10.918   5.634 -0.1165  1.3024  0.3067
   15MOL0     O 1872  -1.723  10.928   5.544  0.1551 -0.2313  0.6563
   15MOL0     C 1873  -1.823  10.833   5.526 -0.5888  0.1474  0.0763
   15MOL0     C 1874  -1.850  10.733   5.615 -0.6211  0.3644  1.2216
   15MOL0     C 1875  -1.950  10.635   5.594  0.4403 -0.4812 -0.6180
   15MOL0     C 1876  -2.026  10.639   5.478  0.7286 -1.3487  0.2674
   15MOL0     C 1877  -2.139  10.547   5.441  0.7908 -0.5526 -1.1586
   15MOL0     O 1878  -2.190  10.565   5.315  0.2565 -0.5955  0.0744
   15MOL0     C 1879  -2.312  10.506   5.292 -0.6026  0.1663 -0.6443
   15MOL0     C 1880  -2.312  10.372   5.258  0.6352 -0.1849  0.4496
   15MOL0     C 1881  -2.434  10.307   5.256 -0.8396 -0.2147  0.2606
   15MOL0     C 1882  -2.553  10.382   5.261 -0.4361 -0.8774 -0.5558
   15MOL0     O 1883  -2.681  10.331   5.262 -0.8949  1.3758 -0.1562
   15MOL0     C 1884  -2.703  10.187   5.243  0.1282 -0.3167 -0.3785
   15MOL0     C 1885  -2.853  10.148   5.245 -0.1114 -0.2255 -0.6214
   15MOL0     C 1886  -2.935  10.186   5.367  0.0047 -0.3567  0.3303
   15MOL0     C 1887  -3.084  10.181   5.329 -0.6755  0.1919 -0.2872
   15MOL0     C 1888  -3.163  10.252   5.436  0.4725 -0.1527 -0.3184
   15MOL0     C 1889  -3.302  10.282   5.374  0.5193  0.2089  0.6178
   15MOL0     C 1890  -3.374  10.386   5.463  0.7472 -0.2659 -0.6230
   15MOL0     C 1891  -3.511  10.412   5.410  0.1870 -0.1383 -0.9216
   15MOL0    Cl 1892  -3.609  10.281   5.484 -0.0020  0.1216  0.3390
   15MOL0     C 1893  -2.550  10.517   5.290  0.4352 -0.0147  0.3913
   15MOL0     C 1894  -2.429  10.579   5.316  0.6340 -0.0939  0.6888
   15MOL0     O 1895  -2.186  10.479   5.532 -0.0680  1.2349 -0.6208
   15MOL0     C 1896  -1.994  10.735   5.386 -0.2673  0.8864 -0.2895
   15MOL0     C 1897  -1.894  10.825   5.405 -0.9535 -0.2485 -0.9439
   15MOL0     N 1898  -1.204  10.884   5.323 -0.5089  0.2580 -0.5060
   15MOL0     N 1899  -1.107  10.856   5.238  0.2322  0.4927 -0.0751
   15MOL0     C 1900  -0.150  11.025   4.576  0.3964  0.2465  0.5904
   15MOL0     C 1901  -0.021  10.992   4.529 -0.7495  0.4988 -1.1381
   15MOL0     C 1902   0.441  10.885   4.591 -0.7247  0.8620 -0.6828
   15MOL0     C 1903   0.438  10.828   4.463  0.1000 -0.1590 -0.8581
   15MOL0     C 1904   0.554  10.824   4.373  0.9047 -0.6734 -0.1878
   15MOL0     C 1905   0.673  10.877   4.410  0.7034 -0.3655 -0.3335
   15MOL0     O 1906   0.778  10.855   4.325  0.0640 -0.1407  0.3039
   15MOL0     C 1907   0.901  10.906   4.357 -0.0477 -0.1967  0.5827
   15MOL0     C 1908   0.984  10.892   4.229  0.2575  0.0632  0.2095
   15MOL0     C 1909   1.132  10.935   4.245 -0.1912 -0.8297  0.1433
   15MOL0     C 1910   1.183  10.937   4.108 -0.1243 -0.7680  0.7161
   15MOL0     C 1911   1.329  10.932   4.119  0.2340  0.5340  0.5287
   15MOL0     C 1912   1.447  10.963   4.113  0.1798 -0.4246 -0.2072
   15MOL0     C 1913   0.677  10.943   4.535  0.5780  0.2981 -0.2235
   15MOL0     C 1914   0.565  10.939   4.624 -0.3896 -0.7152  0.9635
   15MOL0     H 1915   0.116  10.913   4.823  0.8876  3.0738  0.7273
   15MOL0     H 1916  -0.139  10.926   4.891  0.6308  0.8902  0.1394
   15MOL0     H 1917  -0.335  10.993   4.933  0.8036  1.8741 -0.2961
   15MOL0     H 1918  -0.408  10.866   4.834 -0.0852 -0.0300 -0.8650
   15MOL0     H 1919  -0.529  11.151   4.883 -3.8000  1.0554 -1.3120
   15MOL0     H 1920  -0.582  10.987   4.945 -2.7073 -0.1290 -2.2418
   15MOL0     H 1921  -0.607  10.912   4.718 -0.6959 -1.1157  1.5527
   15MOL0     H 1922  -0.583  11.076   4.658  5.5097  0.0219  2.2221
   15MOL0     H 1923  -0.782  11.105   4.867 -2.9482 -0.6967  0.3403
   15MOL0     H 1924  -0.827  11.074   4.692 -2.0990  0.5131  0.9909
   15MOL0     H 1925  -0.794  10.858   4.881  2.8678 -1.4864 -0.6938
   15MOL0     H 1926  -0.840  10.855   4.705 -0.0440  0.2341  0.7213
   15MOL0     H 1927  -1.038  10.825   4.863 -0.3724  0.8892 -0.1072
   15MOL0     H 1928  -1.047  10.939   4.737  1.7504 -0.4579 -0.3403
   15MOL0     H 1929  -1.008  11.128   4.903 -0.0150 -0.1415  0.5328
   15MOL0     H 1930  -1.140  11.019   4.942  0.0853  2.0785 -4.0083
   15MOL0     H 1931  -0.906  11.086   5.097 -1.4516  1.4247  0.5031
   15MOL0     H 1932  -0.908  10.916   5.068 -0.9216  0.2954  0.4204
   15MOL0     H 1933  -1.153  11.186   5.195  0.2128  0.4430  2.0819
   15MOL0     H 1934  -1.402  11.149   5.325 -2.1027  0.3896  1.4044
   15MOL0     H 1935  -1.310  11.135   5.475  0.5902 -0.9401 -0.0758
   15MOL0     H 1936  -1.414  10.879   5.452 -1.2167 -0.8870 -2.9570
   15MOL0     H 1937  -1.543  10.976   5.377  0.9632  2.4984 -1.7627
   15MOL0     H 1938  -1.407  11.005   5.641 -0.8687  5.2938  1.1427
   15MOL0     H 1939  -1.539  11.105   5.595  0.5098 -0.8613  0.6427
   15MOL0     H 1940  -1.631  10.953   5.736  0.7699  4.1384 -0.3709
   15MOL0     H 1941  -1.585  10.811   5.637 -1.5333  0.9871  1.4784
   15MOL0     H 1942  -1.799  10.714   5.709  0.5914 -2.2509  0.1446
   15MOL0     H 1943  -1.986  10.571   5.674 -0.6073  0.5875 -0.2024
   15MOL0     H 1944  -2.214  10.326   5.245  0.1474 -1.4524  1.1214
   15MOL0     H 1945  -2.444  10.200   5.248  1.0121 -0.3395 -1.1035
   15MOL0     H 1946  -2.653  10.135   5.325 -0.4226  1.1640  0.9604
   15MOL0     H 1947  -2.660  10.165   5.145  0.7065  2.9862 -0.9949
   15MOL0     H 1948  -2.872  10.041   5.228 -1.6142 -0.2224  0.8039
   15MOL0     H 1949  -2.897  10.200   5.159 -1.1510  2.7635  1.5577
   15MOL0     H 1950  -2.906  10.287   5.398 -0.7608  1.2498 -3.6110
   15MOL0     H 1951  -2.924  10.116   5.451 -0.1607  0.3390  0.9352
   15MOL0     H 1952  -3.096  10.229   5.231  0.8858  0.7884 -0.2129
   15MOL0     H 1953  -3.114  10.080   5.299 -1.3729  1.1494 -3.2163
   15MOL0     H 1954  -3.119  10.350   5.461  3.2778 -1.2519 -0.5846
   15MOL0     H 1955  -3.157  10.189   5.526  1.7792 -2.5586 -1.9925
   15MOL0     H 1956  -3.352  10.185   5.385  0.7799  0.2722  2.7151
   15MOL0     H 1957  -3.304  10.317   5.270  0.6474  1.0293  0.8883
   15MOL0     H 1958  -3.385  10.353   5.567 -0.2129  0.9732 -0.2996
   15MOL0     H 1959  -3.314  10.478   5.463  3.2053 -1.4357  4.7921
   15MOL0     H 1960  -3.510  10.415   5.301 -0.5207 -0.1414 -0.9314
   15MOL0     H 1961  -3.543  10.509   5.449  0.0956  0.9671 -3.5247
   15MOL0     H 1962  -2.647  10.562   5.309 -1.1394 -2.3506 -1.5228
   15MOL0     H 1963  -2.424  10.676   5.363 -0.6786 -0.7369  2.2331
   15MOL0     H 1964  -2.047  10.741   5.291 -0.2249  3.1605 -0.2179
   15MOL0     H 1965  -1.865  10.904   5.337  0.2070  2.3383  2.2442
   15MOL0     H 1966  -0.215  11.072   4.503  2.8452 -0.2388 -2.0778
   15MOL0     H 1967  -0.005  11.006   4.422 -0.2568 -2.6750 -1.5637
   15MOL0     H 1968   0.349  10.777   4.429 -1.1810  1.7508 -0.4752
   15MOL0     H 1969   0.529  10.802   4.270  2.0681 -3.5999  0.0729
   15MOL0     H 1970   0.949  10.855   4.441 -1.4859  0.2579  1.7354
   15MOL0     H 1971   0.901  11.011   4.387  0.6282  0.5806 -1.8624
   15MOL0     H 1972   0.988  10.783   4.215 -0.8873  0.0701 -0.2277
   15MOL0     H 1973   0.932  10.932   4.141 -0.6051 -0.3452  0.5177
   15MOL0     H 1974   1.181  10.864   4.312  0.2844  1.9822  3.0074
   15MOL0     H 1975   1.138  11.037   4.282 -2.7979  0.0820 -1.5797
   15MOL0     H 1976   1.152  10.845   4.057  0.6885 -0.5805 -0.1410
   15MOL0     H 1977   1.149  11.029   4.060  0.1866 -1.0566 -0.0639
   15MOL0     H 1978   1.552  10.984   4.115  0.0494  0.4279 -1.4601
   15MOL0     H 1979   0.775  10.967   4.575 -1.1653  2.3065  3.3538
   15MOL0     H 1980   0.568  10.989   4.720 -2.7064  2.4062 -0.4366
   16MOL0     O 1981   7.678   9.419   7.484 -0.4802 -0.2030  0.9139
   16MOL0     C 1982   7.703   9.334   7.398  0.0757 -0.0075  0.9816
   16MOL0     O 1983   7.613   9.252   7.329  0.3154  0.1750  0.0662
   16MOL0     C 1984   7.481   9.254   7.357  0.3284  0.1384  0.0153
   16MOL0     C 1985   7.417   9.132   7.320 -0.7542 -0.1596  0.5933
   16MOL0     C 1986   7.274   9.129   7.321 -0.5754  0.4775  0.3930
   16MOL0     C 1987   7.199   9.233   7.372  0.6850  0.3700  0.0498
   16MOL0     O 1988   7.062   9.212   7.375  0.1608  0.4633 -0.5151
   16MOL0     C 1989   6.998   9.233   7.504 -0.3041 -0.6885  0.6328
   16MOL0     C 1990   6.944   9.095   7.552  0.6643  0.5456  0.1543
   16MOL0     C 1991   6.844   9.102   7.669  0.3727 -0.4818 -0.4944
   16MOL0     C 1992   6.796   8.956   7.699 -0.5001  0.4199  0.1061
   16MOL0     C 1993   6.742   8.952   7.843 -0.4230  1.3144  0.0368
   16MOL0     C 1994   6.636   9.062   7.865  0.0871  0.6834 -0.2486
   16MOL0     C 1995   6.511   9.057   7.783  0.2406  0.7191  0.2766
   16MOL0     C 1996   6.413   9.167   7.845 -0.1267  0.0946  0.3657
   16MOL0     N 1997   6.301   9.205   7.758  0.2768  0.8948 -0.0469
   16MOL0     C 1998   6.177   9.154   7.784  0.5521  0.0534  0.2225
   16MOL0     C 1999   6.122   9.151   7.662 -0.1042  0.0924  0.2832
   16MOL0     C 2000   5.983   9.109   7.627  0.3244 -0.0231 -0.1581
   16MOL0     C 2001   5.990   8.969   7.563 -0.7016 -0.3582  0.4658
   16MOL0     C 2002   5.866   8.950   7.480 -0.4773 -0.7541  0.1342
   16MOL0     C 2003   5.725   8.974   7.556  0.2585  0.2078  0.7163
   16MOL0     O 2004   5.670   8.854   7.614  1.0537  0.4409  0.4564
   16MOL0     C 2005   5.542   8.870   7.664  0.2062  0.7109 -0.2533
   16MOL0     C 2006   5.473   8.984   7.685  0.3251 -0.2561  0.5819
   16MOL0     C 2007   5.341   8.977   7.731  0.6076  0.6999  0.2733
   16MOL0     C 2008   5.277   8.851   7.745  0.0997  0.7800  0.8355
   16MOL0     C 2009   5.132   8.851   7.805 -0.1144  0.2890  0.1320
   16MOL0     O 2010   5.070   8.729   7.835 -0.9150  0.1811 -0.0702
   16MOL0     C 2011   4.937   8.711   7.825 -0.0257  0.2796  0.5542
   16MOL0     C 2012   4.845   8.768   7.724 -0.6758 -0.1645  0.3204
   16MOL0     C 2013   4.713   8.729   7.720 -0.5491 -0.4739  0.5560
   16MOL0     C 2014   4.667   8.637   7.816 -0.5508 -0.2585  0.1852
   16MOL0     O 2015   4.543   8.584   7.803  0.3350  0.0037 -0.5940
   16MOL0     C 2016   4.432   8.681   7.794 -0.1697  0.3647 -0.6992
   16MOL0     C 2017   4.315   8.599   7.747  0.2514  0.0448  0.5078
   16MOL0     C 2018   4.341   8.553   7.596 -0.1335  0.0889 -0.3898
   16MOL0     C 2019   4.229   8.476   7.536 -0.4791 -0.1499 -0.6252
   16MOL0     C 2020   4.256   8.466   7.385 -0.5198 -0.3899  0.6763
   16MOL0     C 2021   4.145   8.384   7.318 -0.6695  0.2323  0.6033
   16MOL0     C 2022   4.147   8.416   7.161  0.0202 -0.0407 -0.6109
   16MOL0     C 2023   4.084   8.283   7.103  1.1008 -0.2527  0.7148
   16MOL0    Cl 2024   3.910   8.271   7.151  0.4971  0.0169  0.1984
   16MOL0     C 2025   4.752   8.589   7.917 -0.2777 -0.5571  0.1187
   16MOL0     C 2026   4.882   8.630   7.920  1.3864 -0.2275 -1.6042
   16MOL0     O 2027   5.075   8.956   7.818 -0.0350 -0.5107  0.7048
   16MOL0     C 2028   5.350   8.731   7.722 -0.5015  0.5733  0.2160
   16MOL0     C 2029   5.482   8.742   7.682  0.2971 -0.2602  0.1123
   16MOL0     N 2030   6.205   9.206   7.564 -1.2799 -0.0429 -0.7453
   16MOL0     N 2031   6.318   9.231   7.626  0.6988 -0.4961  0.5210
   16MOL0     C 2032   7.265   9.342   7.430  0.3666  0.3606 -0.3099
   16MOL0     C 2033   7.405   9.353   7.417 -0.2403 -1.0268  0.5329
   16MOL0     C 2034   7.851   9.333   7.351  0.0398 -0.1077 -0.1544
   16MOL0     C 2035   7.941   9.413   7.404  0.1832  0.5618 -0.5820
   16MOL0     C 2036   8.076   9.418   7.373  0.3248 -0.0200 -1.0680
   16MOL0     C 2037   8.121   9.323   7.276  0.2133  0.4866  0.0117
   16MOL0     O 2038   8.255   9.318   7.255  0.2770 -0.1104  0.2338
   16MOL0     C 2039   8.318   9.188   7.256  1.2255 -1.4222  0.5123
   16MOL0     C 2040   8.462   9.216   7.281  0.3701 -0.7346 -0.9518
   16MOL0     C 2041   8.489   9.263   7.426  0.1332  0.2109 -0.4085
   16MOL0     C 2042   8.637   9.290   7.442  0.6054 -0.1019 -0.4293
   16MOL0     C 2043   8.659   9.305   7.587  0.3484  0.7509 -0.6627
   16MOL0     C 2044   8.668   9.308   7.704 -0.3770  0.4276  0.1305
   16MOL0     C 2045   8.026   9.241   7.215  0.0398  0.0526  0.1860
   16MOL0     C 2046   7.891   9.245   7.250  0.4682 -0.4933 -0.9608
   16MOL0     H 2047   7.472   9.047   7.282  0.6563  1.1571 -0.4328
   16MOL0     H 2048   7.223   9.050   7.266 -0.9362  0.8320  0.2140
   16MOL0     H 2049   6.917   9.304   7.484 -0.0431 -0.8637 -1.2875
   16MOL0     H 2050   7.064   9.276   7.579  0.7733 -0.2031 -0.5469
   16MOL0     H 2051   7.031   9.031   7.572 -1.5892 -2.7209  0.3800
   16MOL0     H 2052   6.905   9.037   7.467  0.0122 -0.0807  0.8750
   16MOL0     H 2053   6.759   9.170   7.654  0.0263 -0.6419  0.6570
   16MOL0     H 2054   6.901   9.145   7.751  0.7872  0.6143 -1.3281
   16MOL0     H 2055   6.728   8.918   7.622  0.4892 -1.1110 -0.0482
   16MOL0     H 2056   6.879   8.886   7.700 -1.6607 -1.2224 -3.2429
   16MOL0     H 2057   6.829   8.961   7.908  0.0002 -1.3454 -0.0782
   16MOL0     H 2058   6.693   8.858   7.869  0.4099  0.2068 -2.1998
   16MOL0     H 2059   6.687   9.157   7.844  2.9044 -1.1438 -2.3853
   16MOL0     H 2060   6.618   9.054   7.973  2.6662  1.6712  0.3334
   16MOL0     H 2061   6.526   9.086   7.678  0.7650  0.2736  0.2265
   16MOL0     H 2062   6.460   8.960   7.793 -0.6380  0.8083 -2.4515
   16MOL0     H 2063   6.473   9.255   7.871  1.5266 -1.6144  2.7728
   16MOL0     H 2064   6.364   9.135   7.937 -4.4675  1.5918 -1.1840
   16MOL0     H 2065   6.128   9.119   7.875  0.4257 -0.5730 -0.0837
   16MOL0     H 2066   5.949   9.179   7.550 -2.8128  0.1484  1.2481
   16MOL0     H 2067   5.915   9.109   7.712  2.5236 -1.3760  1.7249
   16MOL0     H 2068   5.990   8.893   7.641  0.4075  0.7804  1.6261
   16MOL0     H 2069   6.077   8.968   7.496  3.7420 -2.0069  5.5307
   16MOL0     H 2070   5.863   9.033   7.409 -2.3515  0.1830  1.2172
   16MOL0     H 2071   5.866   8.855   7.426 -3.1461 -0.5920 -0.2993
   16MOL0     H 2072   5.659   9.014   7.479  0.3989 -2.8911 -1.1586
   16MOL0     H 2073   5.745   9.047   7.635  2.0806 -0.7217  1.1854
   16MOL0     H 2074   5.524   9.078   7.664  0.9912 -0.6601  0.3614
   16MOL0     H 2075   5.284   9.066   7.751  0.9053  1.3834 -1.6631
   16MOL0     H 2076   4.886   8.829   7.644 -1.1171 -0.5931 -0.2365
   16MOL0     H 2077   4.653   8.773   7.641 -3.0196 -1.2086  1.9122
   16MOL0     H 2078   4.448   8.761   7.721  2.8048 -0.1538 -0.7417
   16MOL0     H 2079   4.423   8.718   7.896  1.5482 -3.2263  0.9520
   16MOL0     H 2080   4.222   8.657   7.748  0.1906 -0.0161  2.9585
   16MOL0     H 2081   4.298   8.510   7.808  0.2949  1.4472  2.6442
   16MOL0     H 2082   4.428   8.488   7.588 -0.2236 -0.1070  0.1452
   16MOL0     H 2083   4.355   8.650   7.548 -3.1904  0.0565 -1.6365
   16MOL0     H 2084   4.232   8.375   7.578 -0.9500 -0.3790 -1.1379
   16MOL0     H 2085   4.133   8.527   7.550 -0.6752 -0.9474  1.3040
   16MOL0     H 2086   4.353   8.420   7.365 -0.2148 -0.5644  2.4572
   16MOL0     H 2087   4.253   8.570   7.350 -0.6282 -0.7736 -0.4952
   16MOL0     H 2088   4.048   8.402   7.365 -0.5506 -1.4849  1.5911
   16MOL0     H 2089   4.162   8.277   7.334 -4.1500 -0.4327  0.5839
   16MOL0     H 2090   4.091   8.510   7.154  0.2660  0.4157  2.2063
   16MOL0     H 2091   4.246   8.433   7.119 -1.5015  4.3377 -3.0255
   16MOL0     H 2092   4.128   8.190   7.140 -2.0826 -2.6177 -0.9454
   16MOL0     H 2093   4.089   8.277   6.994 -0.2274 -4.0579  0.7178
   16MOL0     H 2094   4.720   8.510   7.985 -0.8828 -0.6000 -0.2078
   16MOL0     H 2095   4.947   8.590   7.998 -1.6893 -1.0416  0.7492
   16MOL0     H 2096   5.305   8.635   7.743 -1.8034  0.8962 -1.0049
   16MOL0     H 2097   5.545   8.657   7.658  1.5304 -0.4671  3.4748
   16MOL0     H 2098   7.201   9.419   7.472 -0.6476 -1.3105  1.3339
   16MOL0     H 2099   7.451   9.449   7.439 -4.2219  0.5695  2.9303
   16MOL0     H 2100   7.899   9.494   7.463 -2.6478 -1.1279 -0.1162
   16MOL0     H 2101   8.150   9.471   7.433  0.8057 -2.2543  0.4478
   16MOL0     H 2102   8.298   9.131   7.165  0.8713  1.5788 -1.4345
   16MOL0     H 2103   8.263   9.138   7.335 -3.2867  0.7961 -0.9136
   16MOL0     H 2104   8.533   9.136   7.257  1.7921  0.2114 -0.0599
   16MOL0     H 2105   8.496   9.295   7.213  1.4451 -1.1832 -0.9547
   16MOL0     H 2106   8.456   9.184   7.494 -0.3611 -1.1470 -2.1731
   16MOL0     H 2107   8.430   9.355   7.436  0.8501  0.5462  1.0408
   16MOL0     H 2108   8.710   9.220   7.399  1.3180 -0.7927  1.7525
   16MOL0     H 2109   8.668   9.381   7.390  2.1871 -0.4817 -0.2186
   16MOL0     H 2110   8.688   9.293   7.808 -1.9386 -2.7256  0.1013
   16MOL0     H 2111   8.070   9.174   7.143  1.5212 -2.4779  3.2128
   16MOL0     H 2112   7.820   9.177   7.206  0.6900 -1.1775 -0.2966
   17MOL0     O 2113   9.101   8.105   6.060 -0.0608 -0.3073 -0.1036
   17MOL0     C 2114   9.150   8.190   6.134 -0.3819 -0.5582 -0.0914
   17MOL0     O 2115   9.080   8.283   6.215 -0.7546 -0.0513 -0.5019
   17MOL0     C 2116   8.943   8.260   6.224 -0.5537 -0.4095  1.0703
   17MOL0     C 2117   8.877   8.143   6.219 -0.6851 -0.1337 -0.4988
   17MOL0     C 2118   8.741   8.128   6.238 -0.1605 -0.5127  0.1222
   17MOL0     C 2119   8.662   8.244   6.242  0.4624  0.6419  0.4925
   17MOL0     O 2120   8.530   8.262   6.252  0.1596  0.4902  0.1746
   17MOL0     C 2121   8.459   8.138   6.227 -1.1201  1.0401 -0.8306
   17MOL0     C 2122   8.325   8.182   6.191 -0.5983 -0.4699 -0.0891
   17MOL0     C 2123   8.243   8.058   6.187 -0.2016 -0.3379  0.9599
   17MOL0     C 2124   8.249   7.983   6.045 -0.5744  0.5262 -1.4399
   17MOL0     C 2125   8.235   7.832   6.067  0.0554 -0.3897  0.7751
   17MOL0     C 2126   8.244   7.769   5.922 -0.2660  0.0066 -0.4292
   17MOL0     C 2127   8.250   7.625   5.930  0.0697  0.0857  0.4710
   17MOL0     C 2128   8.147   7.558   6.016 -0.1421 -0.5077  0.3137
   17MOL0     N 2129   8.185   7.427   6.073  0.7864  1.1478 -0.5150
   17MOL0     C 2130   8.163   7.384   6.202 -0.7525  0.1968  0.6171
   17MOL0     C 2131   8.211   7.261   6.212  0.3578  0.0684  0.2718
   17MOL0     C 2132   8.199   7.164   6.332 -0.8409 -0.2208 -0.3208
   17MOL0     C 2133   8.287   7.207   6.448  0.5215  0.0663  0.0476
   17MOL0     C 2134   8.434   7.223   6.409 -0.0671 -0.6543 -0.7233
   17MOL0     C 2135   8.517   7.267   6.528 -0.3786  0.6699 -0.4504
   17MOL0     O 2136   8.557   7.170   6.629  0.4600  0.1576  0.5543
   17MOL0     C 2137   8.608   7.052   6.587 -0.4776 -0.4669  0.2462
   17MOL0     C 2138   8.568   6.934   6.645  0.4302  0.3519  0.2705
   17MOL0     C 2139   8.615   6.804   6.596 -0.8949  0.2960  0.1354
   17MOL0     C 2140   8.723   6.807   6.491 -0.8428  0.0440 -0.2275
   17MOL0     C 2141   8.787   6.681   6.444  1.9636 -0.7840  0.5784
   17MOL0     O 2142   8.877   6.697   6.348  0.4383  0.0653  0.4532
   17MOL0     C 2143   8.934   6.585   6.285  0.8113  0.3404  0.5935
   17MOL0     C 2144   8.842   6.492   6.227  0.5349  0.5405 -0.3081
   17MOL0     C 2145   8.894   6.376   6.166 -0.6789 -0.1585 -0.1519
   17MOL0     C 2146   9.033   6.353   6.148 -0.4414  0.1139 -0.7610
   17MOL0     O 2147   9.069   6.240   6.083  1.1147  0.4216  0.3159
   17MOL0     C 2148   9.176   6.265   5.990  0.9602  0.0060 -0.1824
   17MOL0     C 2149   9.179   6.131   5.913  0.0593  0.6934 -0.0834
   17MOL0     C 2150   9.234   6.018   5.995 -0.0052 -0.0464  0.0012
   17MOL0     C 2151   9.266   5.906   5.895  0.5412 -0.0473 -0.1789
   17MOL0     C 2152   9.318   5.775   5.965 -0.4453  0.2177  0.0738
   17MOL0     C 2153   9.212   5.708   6.054  0.8635  0.1991  0.0219
   17MOL0     C 2154   9.247   5.716   6.207  0.8120 -0.1857 -0.3344
   17MOL0     C 2155   9.108   5.696   6.266 -0.8011 -0.1387 -0.3277
   17MOL0    Cl 2156   9.060   5.538   6.227 -0.0653 -0.4787  0.0252
   17MOL0     C 2157   9.121   6.439   6.220  0.5460 -0.0783 -0.0666
   17MOL0     C 2158   9.068   6.546   6.284 -0.6681 -0.3842 -0.1364
   17MOL0     O 2159   8.749   6.573   6.496 -0.4858 -0.2480  0.9000
   17MOL0     C 2160   8.758   6.929   6.431  1.4918 -0.5671 -0.8980
   17MOL0     C 2161   8.701   7.045   6.478  0.6513  0.0542 -0.5392
   17MOL0     N 2162   8.264   7.224   6.096 -0.5422 -0.7090 -0.1032
   17MOL0     N 2163   8.247   7.326   6.016  0.6142  0.6475 -0.6978
   17MOL0     C 2164   8.733   8.368   6.251  0.7449  0.9969  0.4808
   17MOL0     C 2165   8.869   8.370   6.247 -0.3309  0.0471 -0.5890
   17MOL0     C 2166   9.296   8.197   6.144 -0.1110 -0.4223  0.7728
   17MOL0     C 2167   9.347   8.298   6.225 -0.5144  0.1014 -0.0547
   17MOL0     C 2168   9.477   8.311   6.227 -0.8764 -0.7023  0.2630
   17MOL0     C 2169   9.571   8.216   6.171 -0.4201  1.1630  0.8097
   17MOL0     O 2170   9.703   8.241   6.183 -0.4855  0.0695  0.4149
   17MOL0     C 2171   9.786   8.125   6.207  0.0253 -0.1248 -0.8237
   17MOL0     C 2172   9.885   8.180   6.307 -0.2304  0.6208 -0.4351
   17MOL0     C 2173   9.817   8.236   6.435  0.0831  0.7163 -0.1174
   17MOL0     C 2174   9.920   8.261   6.548  0.2893 -0.2585 -0.2795
   17MOL0     C 2175  10.043   8.327   6.510  1.1462 -0.3227  0.0705
   17MOL0     C 2176  10.156   8.366   6.481  0.6125  0.2326 -0.5942
   17MOL0     C 2177   9.522   8.109   6.094  0.0281  0.4040  0.0285
   17MOL0     C 2178   9.382   8.112   6.076 -0.2136  0.4322  0.6334
   17MOL0     H 2179   8.936   8.054   6.202 -1.2039 -0.6908  0.5323
   17MOL0     H 2180   8.692   8.031   6.231 -1.2337 -0.0319  0.8869
   17MOL0     H 2181   8.460   8.088   6.324  1.3854  0.5421 -1.0565
   17MOL0     H 2182   8.499   8.068   6.153  0.1240  0.1214  0.6464
   17MOL0     H 2183   8.332   8.231   6.093 -3.0855  2.1741  0.9026
   17MOL0     H 2184   8.276   8.263   6.245  1.5576  1.1521 -0.4357
   17MOL0     H 2185   8.144   8.099   6.211 -0.4919  0.0547 -0.7852
   17MOL0     H 2186   8.266   7.989   6.269  2.5274 -2.2535 -1.2096
   17MOL0     H 2187   8.165   8.019   5.984 -2.4861 -0.0515  0.7064
   17MOL0     H 2188   8.345   8.012   6.001  0.8310 -1.8096 -0.0955
   17MOL0     H 2189   8.136   7.824   6.114 -0.2477 -3.3239 -0.1700
   17MOL0     H 2190   8.315   7.781   6.121  1.1409  0.4669  0.0254
   17MOL0     H 2191   8.334   7.812   5.877  0.0608 -0.1536  0.0720
   17MOL0     H 2192   8.162   7.814   5.865 -0.0450  3.9013  1.9408
   17MOL0     H 2193   8.240   7.592   5.826 -1.5316  3.6623 -0.6777
   17MOL0     H 2194   8.351   7.600   5.963  0.3085 -3.4514 -2.3400
   17MOL0     H 2195   8.065   7.534   5.947  0.6488 -0.5952 -0.6057
   17MOL0     H 2196   8.103   7.616   6.098 -1.8821 -0.9208 -0.2773
   17MOL0     H 2197   8.124   7.448   6.280  0.8239  2.1374 -0.1345
   17MOL0     H 2198   8.240   7.070   6.295 -1.3585 -0.3963 -0.4451
   17MOL0     H 2199   8.095   7.145   6.359 -1.0456  0.0779 -0.8851
   17MOL0     H 2200   8.274   7.128   6.521 -0.2401 -1.6058 -1.7938
   17MOL0     H 2201   8.244   7.300   6.489 -4.7101 -1.9579 -0.0345
   17MOL0     H 2202   8.476   7.125   6.388 -0.3255 -1.0641  0.5525
   17MOL0     H 2203   8.447   7.298   6.330  0.5659 -0.8517 -0.8036
   17MOL0     H 2204   8.474   7.353   6.580  0.5229  2.1255 -2.0555
   17MOL0     H 2205   8.610   7.309   6.490  1.5760 -1.6725  1.4520
   17MOL0     H 2206   8.495   6.933   6.725  3.0100 -0.2753  2.7607
   17MOL0     H 2207   8.592   6.703   6.630 -0.3936  0.0577 -0.2117
   17MOL0     H 2208   8.734   6.498   6.236  0.7586  2.2235  2.4981
   17MOL0     H 2209   8.825   6.298   6.137 -0.6488  0.9636 -3.7937
   17MOL0     H 2210   9.269   6.292   6.040 -0.7763  1.0650  2.7561
   17MOL0     H 2211   9.145   6.349   5.926 -2.0235  0.9606  2.2669
   17MOL0     H 2212   9.233   6.135   5.818  1.3757  1.1621  0.6584
   17MOL0     H 2213   9.075   6.113   5.882  1.3967 -3.3033 -3.1548
   17MOL0     H 2214   9.157   5.983   6.064 -0.9287  1.8011 -0.0150
   17MOL0     H 2215   9.316   6.051   6.060 -0.9250  1.9818  0.2183
   17MOL0     H 2216   9.173   5.884   5.841  1.1810 -5.0656  0.2186
   17MOL0     H 2217   9.339   5.922   5.815 -0.2536  0.9537 -0.7198
   17MOL0     H 2218   9.407   5.804   6.020  0.4499 -2.3345  0.1104
   17MOL0     H 2219   9.351   5.706   5.886 -1.7675  0.6420 -0.8976
   17MOL0     H 2220   9.219   5.603   6.024  1.3841  0.4454 -0.7535
   17MOL0     H 2221   9.110   5.741   6.034  0.7613  1.5736  2.4744
   17MOL0     H 2222   9.316   5.636   6.236 -2.8549 -3.4253  0.5089
   17MOL0     H 2223   9.279   5.815   6.238 -1.6932  0.1558  1.5213
   17MOL0     H 2224   9.044   5.772   6.221  1.3546  2.7739  1.2058
   17MOL0     H 2225   9.108   5.706   6.375 -0.6940  0.1782 -0.3580
   17MOL0     H 2226   9.228   6.421   6.232 -0.1673 -4.0514  1.8026
   17MOL0     H 2227   9.134   6.607   6.343 -1.1928 -1.1414  1.2720
   17MOL0     H 2228   8.813   6.918   6.338 -0.8096 -0.9317 -2.2943
   17MOL0     H 2229   8.730   7.136   6.426  0.2962  1.2145  1.2161
   17MOL0     H 2230   8.670   8.455   6.265  1.4246  2.2259 -3.1465
   17MOL0     H 2231   8.921   8.462   6.274 -1.1326 -0.3131  2.7056
   17MOL0     H 2232   9.281   8.363   6.282 -0.7542  1.3141 -1.6632
   17MOL0     H 2233   9.523   8.385   6.291 -0.5891  1.2479 -2.0655
   17MOL0     H 2234   9.827   8.091   6.111 -4.2430  0.7362 -3.1919
   17MOL0     H 2235   9.724   8.053   6.262 -1.4212  2.2079  0.7738
   17MOL0     H 2236   9.954   8.103   6.341 -0.8559 -0.0032 -0.5526
   17MOL0     H 2237   9.947   8.265   6.275  1.6770 -0.0025  1.3678
   17MOL0     H 2238   9.763   8.147   6.468  2.5677 -1.3408 -1.2619
   17MOL0     H 2239   9.757   8.327   6.421  0.2722  0.7249 -0.9448
   17MOL0     H 2240   9.881   8.304   6.641  1.5544 -1.4774  0.8643
   17MOL0     H 2241   9.961   8.166   6.586  1.6586  1.4198  2.8709
   17MOL0     H 2242  10.254   8.396   6.450  0.9121  0.4942  0.5687
   17MOL0     H 2243   9.585   8.038   6.041 -1.4219 -0.5370 -0.5121
   17MOL0     H 2244   9.342   8.052   5.995  1.9921  0.5044 -0.5877
   18MOL0     O 2245   4.337   3.164   9.463 -0.0629  0.4534 -0.0902
   18MOL0     C 2246   4.428   3.244   9.485 -0.2879 -0.2666 -0.6115
   18MOL0     O 2247   4.414   3.378   9.472  0.2738  0.7597  0.6125
   18MOL0     C 2248   4.282   3.429   9.464 -0.4897 -0.7304  0.5673
   18MOL0     C 2249   4.208   3.435   9.345  0.1783  0.5999 -0.8015
   18MOL0     C 2250   4.073   3.468   9.357  0.1242 -0.3861  0.2747
   18MOL0     C 2251   4.016   3.497   9.484 -0.1266  0.6121  0.3545
   18MOL0     O 2252   3.873   3.513   9.496 -0.0652  0.0121 -0.0056
   18MOL0     C 2253   3.831   3.649   9.495  0.7877 -1.0560 -0.1280
   18MOL0     C 2254   3.692   3.660   9.554 -0.2207  0.5372  1.0015
   18MOL0     C 2255   3.585   3.597   9.457 -0.5066 -0.0610  0.3336
   18MOL0     C 2256   3.438   3.633   9.498  0.7233 -1.0440 -0.8431
   18MOL0     C 2257   3.391   3.571   9.623 -0.0123  0.1422 -0.2464
   18MOL0     C 2258   3.267   3.654   9.670 -0.5421  0.2679  0.5841
   18MOL0     C 2259   3.195   3.590   9.794 -0.5897 -0.0693 -0.9729
   18MOL0     C 2260   3.040   3.615   9.780 -0.4083 -0.7345 -0.7922
   18MOL0     N 2261   2.961   3.608   9.904  0.0758 -0.0327  0.2984
   18MOL0     C 2262   2.964   3.509  10.000  0.2050 -0.1991 -0.4514
   18MOL0     C 2263   2.887   3.561  10.106 -0.2200  0.2930  0.9415
   18MOL0     C 2264   2.836   3.494  10.229  0.0621  0.5235 -0.4497
   18MOL0     C 2265   2.715   3.395  10.187 -0.6020 -0.0869 -0.5364
   18MOL0     C 2266   2.593   3.485  10.148  0.1274  0.2305 -0.7838
   18MOL0     C 2267   2.467   3.397  10.139  0.3222 -0.3395 -0.3715
   18MOL0     O 2268   2.363   3.451  10.055  0.2565 -0.0113  0.1017
   18MOL0     C 2269   2.232   3.421  10.086 -0.1755 -1.4659  0.3927
   18MOL0     C 2270   2.135   3.501  10.035 -0.0991 -0.8114  0.3004
   18MOL0     C 2271   2.006   3.511  10.066  1.3455  0.9704 -0.5414
   18MOL0     C 2272   1.960   3.409  10.155  0.4129 -0.2441  0.3689
   18MOL0     C 2273   1.816   3.401  10.196 -0.2795  0.3311  1.2174
   18MOL0     O 2274   1.762   3.304  10.264 -0.4653 -0.2313 -0.2273
   18MOL0     C 2275   1.631   3.308  10.291  0.3849  0.5058  0.3565
   18MOL0     C 2276   1.522   3.339  10.210 -0.4813 -0.0632  0.2640
   18MOL0     C 2277   1.398   3.367  10.262  0.0690 -0.4494 -0.9047
   18MOL0     C 2278   1.377   3.345  10.402  0.1506  0.0545 -0.5537
   18MOL0     O 2279   1.262   3.367  10.470  0.4326 -0.1840 -0.6156
   18MOL0     C 2280   1.156   3.432  10.387 -0.2163  0.6352  0.1309
   18MOL0     C 2281   1.034   3.445  10.469  0.9611 -0.8478 -0.2759
   18MOL0     C 2282   1.057   3.534  10.601 -0.2661 -0.5914 -0.6797
   18MOL0     C 2283   0.934   3.528  10.695  0.0867  0.3779 -0.1874
   18MOL0     C 2284   0.872   3.663  10.725  0.1728  0.3718  0.5415
   18MOL0     C 2285   0.784   3.636  10.852 -0.2189 -0.4961 -0.6191
   18MOL0     C 2286   0.734   3.784  10.901 -0.5495 -0.2268  1.3802
   18MOL0     C 2287   0.621   3.778  10.999 -0.2405  0.1686  0.7381
   18MOL0    Cl 2288   0.667   3.674  11.140  0.2139  0.2539 -0.5692
   18MOL0     C 2289   1.475   3.294  10.482  0.3681  0.3530  0.0764
   18MOL0     C 2290   1.604   3.279  10.424  0.4406  0.4925  0.2646
   18MOL0     O 2291   1.758   3.488  10.137  0.3250  0.5976 -0.4412
   18MOL0     C 2292   2.049   3.327  10.223  0.1729  0.0668 -0.0815
   18MOL0     C 2293   2.185   3.323  10.181  0.2031  0.1698  0.1178
   18MOL0     N 2294   2.838   3.689  10.070  0.5802 -0.2825  0.5395
   18MOL0     N 2295   2.890   3.714   9.954  1.4470  0.1195 -1.0632
   18MOL0     C 2296   4.095   3.491   9.596  0.5558  0.1855  0.1919
   18MOL0     C 2297   4.226   3.459   9.587 -0.4597 -0.4369 -0.2234
   18MOL0     C 2298   4.562   3.197   9.543  0.8569 -0.6245 -0.3260
   18MOL0     C 2299   4.579   3.071   9.600 -0.3800  0.2143 -0.7253
   18MOL0     C 2300   4.702   3.030   9.650 -0.3570 -0.6355  0.0276
   18MOL0     C 2301   4.817   3.113   9.643 -0.4135 -0.5330 -0.7202
   18MOL0     O 2302   4.929   3.084   9.703  0.2154  0.2587  0.5393
   18MOL0     C 2303   4.963   2.945   9.694 -0.1609 -0.4516  0.3341
   18MOL0     C 2304   5.119   2.946   9.699 -0.2151 -0.5951 -0.6818
   18MOL0     C 2305   5.172   2.884   9.831 -0.1194  0.2666 -0.2525
   18MOL0     C 2306   5.191   2.981   9.948  0.4770 -0.8521 -0.5854
   18MOL0     C 2307   5.219   2.919  10.075 -0.6881 -0.3414  0.4442
   18MOL0     C 2308   5.239   2.860  10.179 -0.4356  0.6088 -0.7258
   18MOL0     C 2309   4.804   3.242   9.598 -0.2536  0.2289  0.2090
   18MOL0     C 2310   4.674   3.284   9.559 -0.2706 -0.3206 -0.3097
   18MOL0     H 2311   4.239   3.394   9.249 -0.5215 -1.3969 -0.2363
   18MOL0     H 2312   4.013   3.462   9.266  1.0473 -0.0012 -0.3763
   18MOL0     H 2313   3.827   3.675   9.389 -0.2248 -3.0592 -0.6263
   18MOL0     H 2314   3.899   3.712   9.553  0.6411  0.3218 -1.4075
   18MOL0     H 2315   3.659   3.764   9.561 -1.1673  0.2637  0.6578
   18MOL0     H 2316   3.700   3.621   9.656 -2.5224  1.7184  1.6898
   18MOL0     H 2317   3.595   3.488   9.463  2.5924  0.0224 -1.1468
   18MOL0     H 2318   3.606   3.630   9.355  2.9185 -2.0961  0.2236
   18MOL0     H 2319   3.421   3.740   9.515 -3.0186 -1.3781 -1.6575
   18MOL0     H 2320   3.378   3.616   9.408 -2.0972  1.5921  0.3538
   18MOL0     H 2321   3.463   3.563   9.705  0.9201 -0.2530 -1.0915
   18MOL0     H 2322   3.357   3.467   9.615 -2.5182  0.8603  0.1050
   18MOL0     H 2323   3.193   3.653   9.589 -1.9609 -0.0680  1.8360
   18MOL0     H 2324   3.290   3.758   9.696 -0.9999  0.0497  1.9275
   18MOL0     H 2325   3.222   3.486   9.813  0.2452 -0.2209 -2.8005
   18MOL0     H 2326   3.224   3.640   9.887 -1.1811  1.1817 -1.4346
   18MOL0     H 2327   3.000   3.549   9.702  1.0003 -3.1144  0.3857
   18MOL0     H 2328   3.031   3.718   9.744  0.3222 -1.1507 -2.2570
   18MOL0     H 2329   3.008   3.410  10.009 -0.2398 -0.3847 -0.2934
   18MOL0     H 2330   2.793   3.566  10.299  1.0567  2.5091 -1.7751
   18MOL0     H 2331   2.914   3.438  10.282  2.0116  1.7929 -1.8273
   18MOL0     H 2332   2.694   3.323  10.267  0.0790 -1.9596 -1.9680
   18MOL0     H 2333   2.743   3.336  10.099 -2.5799 -2.6826  0.4372
   18MOL0     H 2334   2.571   3.549  10.234  1.4183 -1.4519  0.8773
   18MOL0     H 2335   2.613   3.544  10.059  0.2561 -0.0357 -0.9333
   18MOL0     H 2336   2.426   3.360  10.233  0.4371  1.9313  0.6298
   18MOL0     H 2337   2.506   3.307  10.089  1.0391 -0.9366  1.2214
   18MOL0     H 2338   2.158   3.581   9.965 -1.4944  1.6100  2.4175
   18MOL0     H 2339   1.937   3.584  10.027  0.4044  0.9851  1.0317
   18MOL0     H 2340   1.554   3.353  10.108  0.9562 -0.5949  0.6095
   18MOL0     H 2341   1.322   3.402  10.193  0.8676  2.1281 -0.5831
   18MOL0     H 2342   1.134   3.365  10.303  1.9294 -1.1311  0.8795
   18MOL0     H 2343   1.192   3.529  10.350  2.9425 -0.5140 -0.0862
   18MOL0     H 2344   1.000   3.344  10.494 -2.3013  0.1267 -0.3653
   18MOL0     H 2345   0.953   3.496  10.417  0.3464 -1.1816  0.3369
   18MOL0     H 2346   1.076   3.637  10.571  0.2650 -0.0322  1.3650
   18MOL0     H 2347   1.146   3.495  10.651  1.6363 -0.8617 -4.0271
   18MOL0     H 2348   0.858   3.454  10.670  0.3948 -0.5321  1.4510
   18MOL0     H 2349   0.970   3.488  10.790 -0.4407 -1.7901 -0.8397
   18MOL0     H 2350   0.822   3.704  10.636 -0.9726 -0.8116  0.6072
   18MOL0     H 2351   0.953   3.736  10.738  1.3751 -0.7025 -0.5796
   18MOL0     H 2352   0.843   3.602  10.938 -0.8301  1.6802  0.7706
   18MOL0     H 2353   0.702   3.567  10.829 -1.0049  0.1860  0.0226
   18MOL0     H 2354   0.819   3.843  10.936  0.3621 -0.7690  0.1643
   18MOL0     H 2355   0.695   3.831  10.810  1.4136 -1.5652 -0.2463
   18MOL0     H 2356   0.526   3.757  10.949  1.2072 -0.4722 -1.9689
   18MOL0     H 2357   0.608   3.881  11.032  3.5639  0.8844  0.4656
   18MOL0     H 2358   1.473   3.283  10.590  0.5221  2.0738  0.2765
   18MOL0     H 2359   1.676   3.239  10.495  0.5263 -0.0144 -0.1038
   18MOL0     H 2360   2.020   3.243  10.284 -0.1605  0.1024 -0.1890
   18MOL0     H 2361   2.243   3.252  10.238 -2.3176 -2.0803  0.0655
   18MOL0     H 2362   4.059   3.505   9.697  1.3578 -1.3307  0.7276
   18MOL0     H 2363   4.278   3.447   9.681 -0.9602  0.3541  0.1638
   18MOL0     H 2364   4.499   2.997   9.598  0.1335 -0.4292  0.9349
   18MOL0     H 2365   4.702   2.933   9.699 -1.5122 -1.2804 -1.1749
   18MOL0     H 2366   4.932   2.896   9.601 -0.9625  2.6929 -1.2039
   18MOL0     H 2367   4.927   2.894   9.784 -0.4807 -0.8507 -0.0159
   18MOL0     H 2368   5.166   2.891   9.616  3.0689 -0.8594  1.1674
   18MOL0     H 2369   5.164   3.045   9.690  0.7051 -0.9494 -0.1709
   18MOL0     H 2370   5.264   2.825   9.815 -0.8577 -0.7661 -0.8055
   18MOL0     H 2371   5.098   2.807   9.855 -1.1623  0.5716 -2.2381
   18MOL0     H 2372   5.266   3.055   9.918  1.5517 -0.6148  2.3310
   18MOL0     H 2373   5.096   3.034   9.958  1.7553  1.7441 -1.2744
   18MOL0     H 2374   5.252   2.837  10.283 -2.0367 -1.8792 -0.9801
   18MOL0     H 2375   4.890   3.307   9.609  0.9108 -1.4114  1.1088
   18MOL0     H 2376   4.668   3.386   9.523 -3.7126  0.1579  1.1678
   19MOL0     O 2377   5.416  11.330   8.626  0.0131  0.5481  0.0865
   19MOL0     C 2378   5.409  11.220   8.577 -0.0669 -0.1511  0.2907
   19MOL0     O 2379   5.470  11.179   8.467 -0.3137 -0.5835 -0.2984
   19MOL0     C 2380   5.573  11.272   8.423  0.0724  0.0187 -0.4498
   19MOL0     C 2381   5.552  11.367   8.323  0.3357  0.1105  0.2018
   19MOL0     C 2382   5.663  11.451   8.281  0.5482 -0.0504  0.3844
   19MOL0     C 2383   5.785  11.438   8.340  0.1916 -0.5518 -0.1523
   19MOL0     O 2384   5.894  11.509   8.318  0.6532  0.0328  0.6808
   19MOL0     C 2385   5.963  11.500   8.190 -0.1812 -0.2048  0.0264
   19MOL0     C 2386   6.108  11.538   8.215  1.1710  0.8827 -0.4909
   19MOL0     C 2387   6.176  11.434   8.307 -0.6440 -0.1304 -0.0535
   19MOL0     C 2388   6.323  11.460   8.301 -0.5928 -0.5625  0.1797
   19MOL0     C 2389   6.410  11.341   8.347  0.0940  0.3912  0.4627
   19MOL0     C 2390   6.539  11.369   8.418  0.1118 -0.2283 -0.2073
   19MOL0     C 2391   6.629  11.471   8.354  0.2860 -0.6783  0.3206
   19MOL0     C 2392   6.689  11.419   8.217 -0.1133 -0.6308  0.5112
   19MOL0     N 2393   6.758  11.527   8.149 -0.1262 -0.2465  0.1165
   19MOL0     C 2394   6.886  11.566   8.170  0.1624 -0.3817 -0.0359
   19MOL0     C 2395   6.910  11.661   8.077 -0.2120 -1.0799  0.8313
   19MOL0     C 2396   7.028  11.749   8.076  0.1986  0.2326  0.2862
   19MOL0     C 2397   6.969  11.890   8.102 -0.2827  0.2101  0.9454
   19MOL0     C 2398   6.922  11.915   8.239 -0.7432  0.1409 -0.7396
   19MOL0     C 2399   6.831  12.038   8.256 -0.2959 -0.7845 -0.5344
   19MOL0     O 2400   6.703  12.015   8.195 -0.0832  0.2137  0.0043
   19MOL0     C 2401   6.603  11.990   8.284  0.1869  1.0848  0.7097
   19MOL0     C 2402   6.575  12.083   8.391  0.4538 -0.0767 -0.2070
   19MOL0     C 2403   6.474  12.048   8.488  0.0037  0.4615 -0.2866
   19MOL0     C 2404   6.401  11.931   8.469  0.3574  1.0563  0.9631
   19MOL0     C 2405   6.278  11.908   8.552 -0.1589 -0.3626  0.0683
   19MOL0     O 2406   6.215  11.791   8.528  0.0056 -0.4181  0.1951
   19MOL0     C 2407   6.094  11.759   8.588  0.3319  0.8362 -1.0615
   19MOL0     C 2408   6.075  11.625   8.640 -0.3079  0.3233  0.3418
   19MOL0     C 2409   5.961  11.584   8.708 -0.1883 -0.0795  1.0426
   19MOL0     C 2410   5.852  11.667   8.717  0.3042 -0.6644  0.1083
   19MOL0     O 2411   5.747  11.638   8.794  0.5048  0.8736 -0.0772
   19MOL0     C 2412   5.645  11.564   8.724  0.1355  0.4569  0.1225
   19MOL0     C 2413   5.507  11.609   8.786 -0.1474 -0.3159  0.2136
   19MOL0     C 2414   5.497  11.572   8.936 -0.4052 -0.6935  0.6979
   19MOL0     C 2415   5.399  11.682   9.003 -0.5240  0.6201 -0.2127
   19MOL0     C 2416   5.355  11.644   9.147 -0.2572  0.1503 -0.2677
   19MOL0     C 2417   5.303  11.493   9.165  0.7820  0.3021 -0.2210
   19MOL0     C 2418   5.210  11.476   9.293 -0.2687  0.4712  0.1402
   19MOL0     C 2419   5.293  11.465   9.417 -0.3611  0.3050 -0.3001
   19MOL0    Cl 2420   5.186  11.444   9.562  0.3237  0.1451  0.1340
   19MOL0     C 2421   5.874  11.797   8.672  0.0213 -0.0626  0.3673
   19MOL0     C 2422   5.989  11.847   8.610 -0.6350 -0.5162 -0.2812
   19MOL0     O 2423   6.238  11.995   8.628 -0.4482 -0.2223 -0.0198
   19MOL0     C 2424   6.424  11.844   8.358 -0.6945  0.0876  1.3965
   19MOL0     C 2425   6.532  11.866   8.275 -0.4806  0.6433 -0.5001
   19MOL0     N 2426   6.804  11.657   7.993  0.6362  0.0775  0.5353
   19MOL0     N 2427   6.706  11.587   8.035 -0.6278  0.1496  0.2792
   19MOL0     C 2428   5.802  11.344   8.438  0.9578 -0.1654 -0.5210
   19MOL0     C 2429   5.699  11.252   8.479  0.7441 -0.5401  0.0108
   19MOL0     C 2430   5.302  11.134   8.635  0.7059 -0.1801  0.6153
   19MOL0     C 2431   5.236  11.165   8.751  0.7346  0.2486 -0.5084
   19MOL0     C 2432   5.139  11.092   8.809 -0.2533  0.1429  0.3526
   19MOL0     C 2433   5.089  10.976   8.740  0.0680 -0.4011  0.2252
   19MOL0     O 2434   4.986  10.898   8.780 -0.0706 -0.4697  0.6568
   19MOL0     C 2435   4.888  10.948   8.870  0.3084 -0.6166 -0.1826
   19MOL0     C 2436   4.888  10.865   8.996 -0.0417 -0.2903  0.6062
   19MOL0     C 2437   4.853  10.718   8.991  0.0277  0.2355  0.1462
   19MOL0     C 2438   4.705  10.688   8.981 -1.1984  0.0624  0.6730
   19MOL0     C 2439   4.635  10.737   9.095  0.2816 -0.5642  1.5826
   19MOL0     C 2440   4.584  10.765   9.202  0.0737 -0.2116  0.2269
   19MOL0     C 2441   5.139  10.953   8.611 -0.5166  0.6762 -0.8550
   19MOL0     C 2442   5.243  11.028   8.557 -0.4515 -0.3410  0.2163
   19MOL0     H 2443   5.454  11.389   8.282 -0.7463 -0.7694  2.1488
   19MOL0     H 2444   5.636  11.535   8.218 -0.9058  2.3593  3.8931
   19MOL0     H 2445   5.909  11.565   8.120 -1.7010 -0.4831  0.8977
   19MOL0     H 2446   5.953  11.397   8.153 -0.9530 -0.1802  0.1488
   19MOL0     H 2447   6.100  11.633   8.268  4.1815 -0.0104  1.8388
   19MOL0     H 2448   6.163  11.547   8.121  0.2612  1.2812 -0.9997
   19MOL0     H 2449   6.158  11.332   8.272  3.4784 -1.5860  1.5476
   19MOL0     H 2450   6.136  11.442   8.408 -1.1180  3.2884 -0.3707
   19MOL0     H 2451   6.365  11.467   8.201 -1.2157  0.0640 -0.0467
   19MOL0     H 2452   6.352  11.540   8.369 -0.8085  0.2023 -0.6183
   19MOL0     H 2453   6.431  11.267   8.268  1.6654  1.3132 -0.0371
   19MOL0     H 2454   6.353  11.276   8.413  0.4064  0.5369  0.8803
   19MOL0     H 2455   6.603  11.281   8.419  2.2546  1.2571 -0.4946
   19MOL0     H 2456   6.511  11.404   8.518  1.0724 -1.7990  0.6474
   19MOL0     H 2457   6.578  11.564   8.326 -0.6181 -1.3261 -0.2457
   19MOL0     H 2458   6.712  11.492   8.422  0.9456 -3.8141  0.6616
   19MOL0     H 2459   6.612  11.381   8.149  0.7761 -3.8748  1.1058
   19MOL0     H 2460   6.760  11.336   8.225  0.5360 -0.2042 -0.6538
   19MOL0     H 2461   6.952  11.541   8.253  0.1824  1.0455  0.3927
   19MOL0     H 2462   7.081  11.759   7.980 -1.0930 -1.7377 -0.7079
   19MOL0     H 2463   7.096  11.724   8.158 -0.7949 -3.3747  0.1758
   19MOL0     H 2464   6.877  11.903   8.044  0.4158 -0.4549 -0.3574
   19MOL0     H 2465   7.041  11.967   8.071  0.8274  0.1751  3.2109
   19MOL0     H 2466   6.881  11.827   8.290  1.0872  1.7245  4.0135
   19MOL0     H 2467   7.012  11.948   8.291  0.2949 -0.3421 -2.1673
   19MOL0     H 2468   6.877  12.120   8.200 -2.8395  0.3640 -1.0780
   19MOL0     H 2469   6.828  12.073   8.359 -0.0235 -1.0571 -0.4342
   19MOL0     H 2470   6.623  12.180   8.401 -0.5411  0.4113  0.0587
   19MOL0     H 2471   6.448  12.114   8.570 -2.3933  1.0214 -1.3984
   19MOL0     H 2472   6.164  11.563   8.636 -0.6817 -0.2153  0.2436
   19MOL0     H 2473   5.965  11.483   8.748 -0.2224  0.4212  2.3662
   19MOL0     H 2474   5.645  11.456   8.739 -2.1898  0.4909  0.7934
   19MOL0     H 2475   5.647  11.587   8.617 -0.9316  1.5059  0.3064
   19MOL0     H 2476   5.423  11.558   8.737 -0.8216  1.3382 -0.3975
   19MOL0     H 2477   5.509  11.717   8.773 -2.6835 -0.2191  0.0473
   19MOL0     H 2478   5.596  11.570   8.982  2.0713 -0.1167 -4.0102
   19MOL0     H 2479   5.454  11.472   8.947 -0.4189 -0.7889 -0.1902
   19MOL0     H 2480   5.445  11.782   8.996  0.9792  0.0125  0.5029
   19MOL0     H 2481   5.310  11.685   8.939  0.0887  0.2425 -1.1087
   19MOL0     H 2482   5.280  11.717   9.179 -1.3674 -0.6092 -1.0199
   19MOL0     H 2483   5.433  11.669   9.219  0.1894 -1.5002 -0.1312
   19MOL0     H 2484   5.387  11.423   9.176  2.0648  1.8141 -0.1238
   19MOL0     H 2485   5.245  11.474   9.074  1.5142  2.6650 -1.2593
   19MOL0     H 2486   5.146  11.565   9.302  1.9965  2.1084  1.0648
   19MOL0     H 2487   5.159  11.381   9.278 -0.1817  0.4514 -0.0291
   19MOL0     H 2488   5.355  11.555   9.426  2.1304 -1.4307  0.9446
   19MOL0     H 2489   5.360  11.380   9.405 -3.5522 -2.2090 -1.9008
   19MOL0     H 2490   5.804  11.880   8.677  2.0752  2.1137 -2.6453
   19MOL0     H 2491   5.994  11.947   8.569 -1.0193  0.4417  1.8816
   19MOL0     H 2492   6.361  11.760   8.332  0.1907 -1.2931  3.5203
   19MOL0     H 2493   6.559  11.797   8.195 -1.5297 -1.0277  0.5268
   19MOL0     H 2494   5.903  11.331   8.474  0.0277 -1.5422  1.7754
   19MOL0     H 2495   5.699  11.174   8.553 -2.2429 -1.2105 -0.5444
   19MOL0     H 2496   5.258  11.255   8.807 -1.2314  1.8082 -2.0907
   19MOL0     H 2497   5.088  11.126   8.899 -0.3162  2.0006 -0.3295
   19MOL0     H 2498   4.792  10.933   8.820  0.8593  0.4956 -1.6478
   19MOL0     H 2499   4.891  11.056   8.884  1.0485 -0.5724 -0.6593
   19MOL0     H 2500   4.989  10.873   9.036 -0.6741  1.8249  1.9507
   19MOL0     H 2501   4.828  10.908   9.077  2.0068 -4.7144  4.9981
   19MOL0     H 2502   4.885  10.678   9.088  2.4946  0.4397 -0.5192
   19MOL0     H 2503   4.918  10.677   8.913  2.3475  1.2586  1.4298
   19MOL0     H 2504   4.658  10.733   8.893 -2.2347 -2.1563  0.0388
   19MOL0     H 2505   4.696  10.580   8.971  0.0963  0.0195 -0.2512
   19MOL0     H 2506   4.525  10.798   9.285 -1.7928 -0.4653 -0.9563
   19MOL0     H 2507   5.095  10.869   8.559  0.3747  0.5890 -1.4737
   19MOL0     H 2508   5.266  11.009   8.452 -0.8495 -1.0862  0.2610
   20MOL0     O 2509   6.162   4.204   6.361  0.4289  1.1606 -0.0145
   20MOL0     C 2510   6.123   4.297   6.303 -0.8487 -0.7682 -0.2759
   20MOL0     O 2511   6.199   4.408   6.262  0.2814  0.4863 -0.1877
   20MOL0     C 2512   6.334   4.425   6.308 -1.1787  0.3331  0.5416
   20MOL0     C 2513   6.360   4.521   6.399  0.7581  0.6376  0.3848
   20MOL0     C 2514   6.482   4.525   6.468  0.3757 -0.2989  0.3086
   20MOL0     C 2515   6.585   4.432   6.433 -0.5908 -0.0873 -0.4167
   20MOL0     O 2516   6.702   4.414   6.511 -0.7187 -0.1164 -0.4850
   20MOL0     C 2517   6.684   4.413   6.653  0.1923  0.5294 -0.9655
   20MOL0     C 2518   6.795   4.324   6.724  0.2587 -0.1526  0.5040
   20MOL0     C 2519   6.924   4.404   6.752  0.1549 -0.2268  0.7051
   20MOL0     C 2520   7.044   4.322   6.797 -1.0098  0.4660 -0.9592
   20MOL0     C 2521   7.179   4.401   6.832  0.3273 -0.7785  0.3182
   20MOL0     C 2522   7.274   4.305   6.901  0.2950 -0.3405 -0.2120
   20MOL0     C 2523   7.399   4.379   6.934 -0.4574 -0.0310 -0.2180
   20MOL0     C 2524   7.496   4.421   6.824  0.5594  0.1697  0.0411
   20MOL0     N 2525   7.637   4.459   6.862  0.1372 -0.1519 -0.0856
   20MOL0     C 2526   7.739   4.382   6.921 -0.1434  0.5001  0.9057
   20MOL0     C 2527   7.846   4.467   6.911  1.1862  0.2186 -0.2575
   20MOL0     C 2528   7.983   4.408   6.948 -0.4039  0.2935 -0.6971
   20MOL0     C 2529   7.998   4.396   7.099  0.0377  0.3619  0.1154
   20MOL0     C 2530   8.131   4.328   7.137 -0.0328 -0.4649 -0.5312
   20MOL0     C 2531   8.122   4.249   7.271  0.3137 -0.0920  0.4748
   20MOL0     O 2532   8.256   4.186   7.277 -0.5733  0.0562 -0.4322
   20MOL0     C 2533   8.269   4.114   7.391 -0.0281  0.3453 -0.5265
   20MOL0     C 2534   8.233   4.156   7.522 -1.3058 -0.3750 -0.0680
   20MOL0     C 2535   8.260   4.079   7.629  0.7384  0.5950  0.7348
   20MOL0     C 2536   8.315   3.951   7.619 -0.3921 -0.4394  0.0708
   20MOL0     C 2537   8.330   3.864   7.736  0.4027  0.7065  0.4182
   20MOL0     O 2538   8.252   3.891   7.842  0.7131 -0.3539 -0.3350
   20MOL0     C 2539   8.247   3.805   7.956 -0.5483  0.0291  0.8290
   20MOL0     C 2540   8.362   3.774   8.033  0.0603  0.4677  0.5334
   20MOL0     C 2541   8.354   3.687   8.142 -0.3738 -0.2965 -0.5078
   20MOL0     C 2542   8.227   3.652   8.178  0.0134  0.9438  0.2286
   20MOL0     O 2543   8.222   3.572   8.291  0.9498 -0.3854  0.1489
   20MOL0     C 2544   8.097   3.550   8.362 -0.2701 -0.0929 -0.6207
   20MOL0     C 2545   8.031   3.421   8.320  1.1477 -0.2843  0.1272
   20MOL0     C 2546   8.118   3.302   8.349  0.2835 -0.5512  0.4199
   20MOL0     C 2547   8.032   3.183   8.296  0.2673  0.1757  0.3178
   20MOL0     C 2548   8.020   3.171   8.139  0.2051 -0.2847  0.1057
   20MOL0     C 2549   7.952   3.033   8.109  0.1637 -0.4039 -0.4184
   20MOL0     C 2550   7.809   3.029   8.160  0.1569  0.7467 -0.3439
   20MOL0     C 2551   7.764   2.883   8.133 -0.3435 -0.6492 -0.0592
   20MOL0    Cl 2552   7.732   2.850   7.957  0.1170 -0.0492 -0.5253
   20MOL0     C 2553   8.109   3.698   8.116  0.2395  0.2181 -0.2846
   20MOL0     C 2554   8.120   3.776   7.994 -0.7563  0.4324 -0.9037
   20MOL0     O 2555   8.402   3.769   7.731  0.0315  0.4972 -0.0420
   20MOL0     C 2556   8.362   3.911   7.494  0.2305  0.1960 -0.2559
   20MOL0     C 2557   8.350   3.994   7.385  0.7729 -0.0618 -0.1413
   20MOL0     N 2558   7.810   4.585   6.864 -0.1541  0.9581  0.7122
   20MOL0     N 2559   7.687   4.582   6.836 -0.3181  0.5932 -0.1278
   20MOL0     C 2560   6.566   4.350   6.329 -0.7625 -0.5798 -0.2365
   20MOL0     C 2561   6.435   4.335   6.275 -1.3115 -0.1338  0.4033
   20MOL0     C 2562   5.978   4.303   6.273 -0.1100  0.3294  1.4411
   20MOL0     C 2563   5.884   4.208   6.335 -1.0025 -0.7141 -1.6039
   20MOL0     C 2564   5.753   4.229   6.341 -0.5408 -0.7754 -0.4317
   20MOL0     C 2565   5.690   4.320   6.265  0.2498 -0.4877  0.6494
   20MOL0     O 2566   5.556   4.348   6.252  0.2869 -0.5131  0.1765
   20MOL0     C 2567   5.461   4.284   6.344  0.3859 -0.3924  0.6932
   20MOL0     C 2568   5.313   4.306   6.294  0.2612 -0.2679 -0.5045
   20MOL0     C 2569   5.287   4.447   6.236 -0.2266  0.8726 -0.9918
   20MOL0     C 2570   5.140   4.460   6.197 -0.2140  0.7649  0.5806
   20MOL0     C 2571   5.044   4.470   6.306  0.1445  0.0787 -0.1227
   20MOL0     C 2572   4.962   4.486   6.395 -0.1450  0.9211 -0.7665
   20MOL0     C 2573   5.778   4.417   6.199 -0.2801 -0.6202 -0.3171
   20MOL0     C 2574   5.924   4.404   6.197  1.0508 -0.1892  0.4474
   20MOL0     H 2575   6.268   4.568   6.434 -0.9551 -1.0890 -1.4723
   20MOL0     H 2576   6.493   4.587   6.556 -1.2138  1.7359 -0.8475
   20MOL0     H 2577   6.587   4.369   6.678 -0.8729  0.9774 -3.9129
   20MOL0     H 2578   6.702   4.517   6.682 -1.1440  0.1633  1.4558
   20MOL0     H 2579   6.826   4.238   6.664  1.7051  1.1678 -0.7178
   20MOL0     H 2580   6.744   4.299   6.817 -1.7462  1.5156 -0.0671
   20MOL0     H 2581   6.917   4.491   6.818  1.9622  2.3977 -2.2910
   20MOL0     H 2582   6.944   4.444   6.652  1.7175 -2.4606  0.0507
   20MOL0     H 2583   7.007   4.271   6.887  0.2760 -2.3248 -1.8927
   20MOL0     H 2584   7.077   4.243   6.729 -1.8289 -1.1613  0.4687
   20MOL0     H 2585   7.159   4.491   6.890  0.1369 -1.2055  0.9278
   20MOL0     H 2586   7.216   4.422   6.732 -0.3334 -0.5796  0.1129
   20MOL0     H 2587   7.309   4.225   6.836  2.9320 -0.4812  1.2377
   20MOL0     H 2588   7.215   4.265   6.984  2.0289 -2.4520  0.0939
   20MOL0     H 2589   7.368   4.464   6.996  0.4374 -0.8804  1.4575
   20MOL0     H 2590   7.459   4.318   7.002  0.5831 -1.3066 -2.1982
   20MOL0     H 2591   7.453   4.496   6.758  0.5039 -1.6592 -2.1532
   20MOL0     H 2592   7.521   4.337   6.757  0.4608  0.3021 -0.1621
   20MOL0     H 2593   7.740   4.277   6.947  1.5279 -0.0716 -1.1636
   20MOL0     H 2594   8.061   4.470   6.902 -0.4711  0.4534 -0.5999
   20MOL0     H 2595   8.002   4.308   6.908 -0.4083 -1.4663  3.2620
   20MOL0     H 2596   7.917   4.330   7.132  1.4622 -1.9326 -0.7791
   20MOL0     H 2597   7.989   4.490   7.155 -0.8187 -1.3378  3.0676
   20MOL0     H 2598   8.167   4.256   7.063  2.2483 -0.3628  0.3919
   20MOL0     H 2599   8.209   4.405   7.133  0.2962 -0.8386 -1.9401
   20MOL0     H 2600   8.040   4.178   7.283 -0.2374  0.1508 -1.4908
   20MOL0     H 2601   8.112   4.320   7.354  0.8200 -0.8027  1.1572
   20MOL0     H 2602   8.173   4.246   7.539  0.5151  1.1903 -1.4022
   20MOL0     H 2603   8.225   4.119   7.723  0.5428  0.6774  0.6274
   20MOL0     H 2604   8.460   3.807   7.998  0.7433  0.4068  2.2934
   20MOL0     H 2605   8.444   3.651   8.189 -0.0310  0.1937 -0.7737
   20MOL0     H 2606   8.024   3.631   8.351  1.1735  1.6065  1.3075
   20MOL0     H 2607   8.115   3.533   8.469  0.1450 -2.1762 -0.9717
   20MOL0     H 2608   8.018   3.436   8.213  0.3247  2.0774  0.4968
   20MOL0     H 2609   7.939   3.411   8.378  0.3524 -0.0398 -1.0651
   20MOL0     H 2610   8.135   3.287   8.456 -1.8471 -1.1503  0.7283
   20MOL0     H 2611   8.217   3.312   8.303 -0.7107 -2.8920 -2.5471
   20MOL0     H 2612   8.061   3.088   8.342 -1.9845  0.1848  1.9689
   20MOL0     H 2613   7.930   3.197   8.336 -0.6420 -2.2371 -1.0052
   20MOL0     H 2614   8.121   3.177   8.097 -0.5527  0.5258 -1.7290
   20MOL0     H 2615   7.959   3.257   8.106 -0.7350 -0.1752  1.9834
   20MOL0     H 2616   8.010   2.951   8.152  1.2696  0.9317  0.7127
   20MOL0     H 2617   7.948   3.013   8.001  1.8904  0.1296 -0.6136
   20MOL0     H 2618   7.818   3.040   8.268 -0.0472 -2.6227  0.1170
   20MOL0     H 2619   7.746   3.107   8.114 -1.4990 -2.4148 -4.0591
   20MOL0     H 2620   7.676   2.868   8.197 -0.4102  1.7830  0.5316
   20MOL0     H 2621   7.846   2.817   8.162  2.7358  2.9589  0.2670
   20MOL0     H 2622   8.014   3.657   8.151  1.2462 -0.0328  2.3748
   20MOL0     H 2623   8.030   3.807   7.943 -1.9892 -2.9521 -1.0312
   20MOL0     H 2624   8.400   3.812   7.475  2.1786  0.6417  1.0182
   20MOL0     H 2625   8.383   3.956   7.289  1.2057  0.1020 -0.0585
   20MOL0     H 2626   6.645   4.280   6.304  0.3961  0.0763  1.3762
   20MOL0     H 2627   6.420   4.255   6.203 -0.7488  2.2073 -2.4929
   20MOL0     H 2628   5.925   4.126   6.392  1.0523 -0.6930 -2.9354
   20MOL0     H 2629   5.698   4.159   6.403  0.7839 -1.9668 -0.5722
   20MOL0     H 2630   5.477   4.335   6.439  0.3112 -0.2920  0.6535
   20MOL0     H 2631   5.483   4.180   6.367 -1.2430 -0.5043  1.8710
   20MOL0     H 2632   5.309   4.242   6.206 -2.2084  1.8697 -2.0896
   20MOL0     H 2633   5.245   4.269   6.371  1.9767  0.7029  1.6096
   20MOL0     H 2634   5.352   4.461   6.149  1.2548 -0.6789 -0.1955
   20MOL0     H 2635   5.307   4.517   6.318 -1.1101 -3.4196  3.3236
   20MOL0     H 2636   5.123   4.551   6.139  0.1098  1.7062  1.9039
   20MOL0     H 2637   5.101   4.380   6.133  0.6274  0.3070  0.6253
   20MOL0     H 2638   4.881   4.501   6.464 -0.8834 -1.2835 -1.0883
   20MOL0     H 2639   5.738   4.495   6.135 -0.3377 -0.3024  0.1061
   20MOL0     H 2640   5.980   4.485   6.151  1.2761 -1.1137 -0.9662
   21MOL0     O 2641   2.832   6.304   6.706  0.4112  0.4108  0.2203
   21MOL0     C 2642   2.722   6.316   6.645 -0.1433  0.3516  0.0521
   21MOL0     O 2643   2.699   6.375   6.525 -0.5367 -0.1377  0.5692
   21MOL0     C 2644   2.810   6.423   6.458  0.0373  0.8701 -0.4775
   21MOL0     C 2645   2.891   6.534   6.498 -0.3027 -0.0432  0.0529
   21MOL0     C 2646   3.000   6.571   6.424  0.0287  0.1330 -0.2626
   21MOL0     C 2647   3.019   6.500   6.304 -0.0514 -0.1800  1.3428
   21MOL0     O 2648   3.138   6.538   6.244  0.0870  0.5360  0.2861
   21MOL0     C 2649   3.200   6.440   6.150 -0.6951  0.1604  0.3582
   21MOL0     C 2650   3.341   6.490   6.143  0.3287 -0.4423  0.0569
   21MOL0     C 2651   3.417   6.447   6.270  0.8125  0.1476 -0.1385
   21MOL0     C 2652   3.567   6.471   6.246 -0.2602  0.2796  0.1332
   21MOL0     C 2653   3.644   6.447   6.371  0.9174 -0.3725 -0.1994
   21MOL0     C 2654   3.608   6.310   6.437 -0.3751  0.3116  0.1627
   21MOL0     C 2655   3.702   6.292   6.555 -0.0200 -0.3395  0.7564
   21MOL0     C 2656   3.662   6.171   6.634  0.8589  0.7433 -0.0853
   21MOL0     N 2657   3.678   6.045   6.561 -0.1393  0.0312  0.0734
   21MOL0     C 2658   3.576   5.973   6.522 -0.2397 -0.2887 -0.1401
   21MOL0     C 2659   3.637   5.851   6.512  0.0005  0.1832  0.6839
   21MOL0     C 2660   3.553   5.728   6.477 -0.1762  0.8016  0.5708
   21MOL0     C 2661   3.620   5.595   6.521  0.5540  0.6675  0.3660
   21MOL0     C 2662   3.635   5.593   6.676 -0.3548 -0.0192  0.0508
   21MOL0     C 2663   3.660   5.457   6.720 -0.3742  0.1584 -0.0318
   21MOL0     O 2664   3.658   5.456   6.859  0.2466  0.0622 -1.2171
   21MOL0     C 2665   3.532   5.441   6.918 -0.4609  0.5463 -0.5491
   21MOL0     C 2666   3.445   5.541   6.949  0.2304  0.1195 -0.5497
   21MOL0     C 2667   3.315   5.512   7.006 -0.2958  0.3336 -0.6034
   21MOL0     C 2668   3.282   5.377   7.032  0.3148  1.0505 -0.5592
   21MOL0     C 2669   3.140   5.345   7.078  0.3681 -0.5061 -0.4342
   21MOL0     O 2670   3.121   5.216   7.110 -0.6119  0.5536 -0.2052
   21MOL0     C 2671   3.013   5.170   7.178  0.0153  0.6782  0.1400
   21MOL0     C 2672   2.995   5.031   7.186 -0.3162 -0.4199  0.5160
   21MOL0     C 2673   2.882   4.968   7.228 -0.4548  0.3015  0.9730
   21MOL0     C 2674   2.784   5.050   7.285  0.0271 -0.0865 -1.4309
   21MOL0     O 2675   2.669   4.994   7.340  0.0015 -0.1209  0.0111
   21MOL0     C 2676   2.638   4.855   7.328 -0.1874  0.8197  0.3629
   21MOL0     C 2677   2.504   4.823   7.400  0.2261 -0.7563  0.3735
   21MOL0     C 2678   2.370   4.866   7.325 -0.7588 -0.2774 -0.0423
   21MOL0     C 2679   2.251   4.843   7.415 -0.3410 -0.1304  0.7754
   21MOL0     C 2680   2.125   4.905   7.359 -0.3893  0.5324  0.0027
   21MOL0     C 2681   2.062   4.833   7.243  0.0586  0.0450 -0.9189
   21MOL0     C 2682   1.921   4.893   7.219  0.4531 -0.1080 -0.0402
   21MOL0     C 2683   1.823   4.778   7.186  0.7051  0.0389  0.1217
   21MOL0    Cl 2684   1.664   4.845   7.171  0.4120  0.1513 -0.3714
   21MOL0     C 2685   2.809   5.189   7.303  0.6076  0.7198 -0.7995
   21MOL0     C 2686   2.924   5.250   7.256 -0.3212 -0.5262  0.4909
   21MOL0     O 2687   3.060   5.433   7.079  0.5236  0.3389  0.1983
   21MOL0     C 2688   3.371   5.273   6.998  0.1120 -0.0656  1.2184
   21MOL0     C 2689   3.498   5.304   6.946  1.6087  0.3462  0.9955
   21MOL0     N 2690   3.775   5.855   6.540 -0.3898  0.0030  0.0764
   21MOL0     N 2691   3.801   5.981   6.568 -0.0285 -1.0244 -0.1824
   21MOL0     C 2692   2.933   6.402   6.251  0.5408  1.1564  0.1458
   21MOL0     C 2693   2.822   6.364   6.330 -0.2213 -0.1108  0.6017
   21MOL0     C 2694   2.613   6.256   6.708  0.1847 -0.6859 -0.1439
   21MOL0     C 2695   2.623   6.181   6.824  0.6860  0.1439 -0.3211
   21MOL0     C 2696   2.502   6.157   6.903  0.7674 -0.0885  0.2090
   21MOL0     C 2697   2.369   6.185   6.855  0.1601 -0.0149  0.1663
   21MOL0     O 2698   2.261   6.174   6.936  0.4492  0.5228 -0.3267
   21MOL0     C 2699   2.236   6.290   7.012  0.5238 -0.5304 -0.0056
   21MOL0     C 2700   2.169   6.262   7.141 -0.6738 -0.6051 -0.0519
   21MOL0     C 2701   2.032   6.198   7.120 -1.0358  0.6134  0.1742
   21MOL0     C 2702   1.937   6.199   7.232  0.4871  0.4158  1.0621
   21MOL0     C 2703   1.890   6.334   7.270 -0.6163  0.0482 -0.2622
   21MOL0     C 2704   1.839   6.443   7.274  0.7615  0.9597 -0.1302
   21MOL0     C 2705   2.367   6.252   6.729  1.3229 -0.4738 -0.1170
   21MOL0     C 2706   2.480   6.293   6.663 -1.0092  0.0331  0.0478
   21MOL0     H 2707   2.867   6.593   6.586 -0.6595  1.6622 -1.1434
   21MOL0     H 2708   3.071   6.644   6.461 -1.3411  0.2866  2.2534
   21MOL0     H 2709   3.154   6.464   6.053 -2.0213  0.2193  0.9704
   21MOL0     H 2710   3.188   6.335   6.180 -2.3282 -0.8100 -3.1755
   21MOL0     H 2711   3.335   6.598   6.128 -1.4132 -0.9375 -4.2136
   21MOL0     H 2712   3.395   6.449   6.056 -0.1779 -2.8140  0.7736
   21MOL0     H 2713   3.398   6.340   6.286 -0.6356  0.4714  0.4642
   21MOL0     H 2714   3.369   6.508   6.347 -3.4090 -1.0472 -1.5017
   21MOL0     H 2715   3.596   6.386   6.184  2.5920 -1.0416  2.9562
   21MOL0     H 2716   3.586   6.569   6.200 -1.2367  1.0766  1.3542
   21MOL0     H 2717   3.607   6.526   6.437 -2.8532 -1.3162 -0.9825
   21MOL0     H 2718   3.750   6.465   6.352  0.9544 -1.1385 -0.7483
   21MOL0     H 2719   3.618   6.233   6.360  1.7519 -1.1386  1.7730
   21MOL0     H 2720   3.507   6.316   6.477 -0.3068  1.3523  0.1997
   21MOL0     H 2721   3.804   6.282   6.514  1.9188 -0.0408  4.9821
   21MOL0     H 2722   3.696   6.379   6.621  1.2468  0.5793 -0.2712
   21MOL0     H 2723   3.558   6.178   6.666  1.1378 -0.3429  1.1247
   21MOL0     H 2724   3.725   6.164   6.724  0.7538  0.7724 -0.0096
   21MOL0     H 2725   3.474   6.010   6.514  0.1058  0.4918 -1.2291
   21MOL0     H 2726   3.536   5.720   6.369  1.9017  3.2327 -0.0478
   21MOL0     H 2727   3.450   5.739   6.514  0.1592  0.7935  1.5143
   21MOL0     H 2728   3.721   5.582   6.482  1.4825 -0.2893  2.8600
   21MOL0     H 2729   3.556   5.513   6.487  0.7718  0.5710  0.1877
   21MOL0     H 2730   3.720   5.656   6.706 -2.7791  3.0977  0.9393
   21MOL0     H 2731   3.547   5.635   6.725  0.3435  1.5957  0.0103
   21MOL0     H 2732   3.761   5.424   6.694 -0.0454 -0.1834  1.5179
   21MOL0     H 2733   3.582   5.394   6.677 -0.4105 -1.1409  1.7847
   21MOL0     H 2734   3.470   5.644   6.926  0.5789  0.0060 -0.6757
   21MOL0     H 2735   3.250   5.591   7.041 -2.0108 -1.5077  0.5281
   21MOL0     H 2736   3.063   4.972   7.125 -1.2337  1.0472 -2.1473
   21MOL0     H 2737   2.876   4.860   7.233 -0.4415  0.3624  2.9318
   21MOL0     H 2738   2.710   4.794   7.383 -0.0429 -1.6321 -2.2617
   21MOL0     H 2739   2.637   4.824   7.223  1.5529 -0.8589  0.7659
   21MOL0     H 2740   2.505   4.874   7.496 -2.9329  1.7581 -0.7400
   21MOL0     H 2741   2.484   4.716   7.410  0.0938 -0.7550  0.1153
   21MOL0     H 2742   2.359   4.816   7.228 -0.6281  1.7612 -1.1599
   21MOL0     H 2743   2.381   4.969   7.289 -1.5204 -0.4675 -0.8509
   21MOL0     H 2744   2.226   4.738   7.429 -0.5091 -0.3241 -0.8906
   21MOL0     H 2745   2.276   4.895   7.509  2.8008  1.6837 -0.8938
   21MOL0     H 2746   2.141   5.011   7.337  1.9166  0.3119  0.4308
   21MOL0     H 2747   2.053   4.909   7.441 -1.7090  2.0303 -1.1555
   21MOL0     H 2748   2.068   4.725   7.259  1.6968  0.1266 -0.7605
   21MOL0     H 2749   2.136   4.853   7.164  0.6752  1.0014 -0.1317
   21MOL0     H 2750   1.884   4.948   7.306  0.1323 -0.1963 -0.1183
   21MOL0     H 2751   1.937   4.960   7.133  7.4331  0.2734  1.0189
   21MOL0     H 2752   1.820   4.697   7.259  1.0899  0.4730  0.6288
   21MOL0     H 2753   1.847   4.735   7.088 -1.8291 -1.9278  0.2775
   21MOL0     H 2754   2.740   5.253   7.356 -0.6560 -0.5178 -0.9025
   21MOL0     H 2755   2.929   5.357   7.269  1.0283 -0.5421  0.3003
   21MOL0     H 2756   3.344   5.170   7.018 -0.6691 -0.5269 -1.7349
   21MOL0     H 2757   3.571   5.228   6.923 -0.3737 -2.0961  2.3545
   21MOL0     H 2758   2.936   6.356   6.153 -3.9574  1.5217 -0.4132
   21MOL0     H 2759   2.764   6.281   6.291  2.8908 -2.4384  0.5064
   21MOL0     H 2760   2.725   6.163   6.856  1.3106 -0.1589 -2.3337
   21MOL0     H 2761   2.508   6.099   6.994  0.2784 -2.5460 -1.2390
   21MOL0     H 2762   2.178   6.356   6.946  0.3933 -0.1616  0.4706
   21MOL0     H 2763   2.328   6.347   7.030  2.1901 -2.8371 -0.8308
   21MOL0     H 2764   2.231   6.203   7.210 -2.9013  1.7633  4.4278
   21MOL0     H 2765   2.160   6.351   7.204 -2.0769 -0.5187 -0.3471
   21MOL0     H 2766   2.061   6.095   7.099  1.6745  1.0211  1.4938
   21MOL0     H 2767   1.989   6.249   7.033 -2.9345  0.6765  1.1143
   21MOL0     H 2768   1.855   6.130   7.209  1.8175 -0.1744 -2.6583
   21MOL0     H 2769   1.985   6.160   7.322  0.3129 -2.3203  0.0787
   21MOL0     H 2770   1.815   6.547   7.283  2.2676  1.3632 -0.4762
   21MOL0     H 2771   2.270   6.287   6.696  0.5117 -0.9050  1.6948
   21MOL0     H 2772   2.461   6.343   6.569 -1.2686  0.5718  0.3866
   22MOL0     O 2773   2.024   3.079   3.322 -0.3925  0.4082  0.2776
   22MOL0     C 2774   2.056   2.964   3.342  0.0224  0.2531  0.5325
   22MOL0     O 2775   1.980   2.849   3.351  0.4365 -0.2298 -0.0314
   22MOL0     C 2776   1.847   2.843   3.320 -0.3866 -0.5751  0.7276
   22MOL0     C 2777   1.761   2.949   3.269 -1.1109 -0.1266 -0.2154
   22MOL0     C 2778   1.619   2.934   3.267  0.1909  0.2951  0.0458
   22MOL0     C 2779   1.555   2.820   3.312  0.1802  0.0291 -0.0340
   22MOL0     O 2780   1.423   2.784   3.307 -0.0761  0.2041  0.3702
   22MOL0     C 2781   1.328   2.880   3.261  0.2883 -0.3570  0.6309
   22MOL0     C 2782   1.186   2.837   3.298 -0.1276 -0.0589  0.2177
   22MOL0     C 2783   1.071   2.904   3.210  0.1154  0.9985 -1.1078
   22MOL0     C 2784   0.948   2.836   3.257 -0.0561 -0.1428 -0.2244
   22MOL0     C 2785   0.816   2.895   3.202  0.0391  0.2186  0.0383
   22MOL0     C 2786   0.816   2.944   3.059 -0.2643 -0.2272 -0.0417
   22MOL0     C 2787   0.834   2.837   2.941  0.9828  0.1217 -0.1790
   22MOL0     C 2788   0.729   2.726   2.947  0.9408  0.6264  0.1134
   22MOL0     N 2789   0.586   2.776   2.942 -0.5907 -0.5516  0.1592
   22MOL0     C 2790   0.509   2.784   2.828 -0.1279  0.6785 -1.0989
   22MOL0     C 2791   0.395   2.836   2.866  0.1938  0.1119 -0.1037
   22MOL0     C 2792   0.280   2.839   2.770  0.5232  0.0273 -0.5904
   22MOL0     C 2793   0.256   2.985   2.737  0.1624 -0.2501  0.2594
   22MOL0     C 2794   0.138   3.010   2.642 -0.9811  0.8525  0.4498
   22MOL0     C 2795   0.131   2.925   2.518  0.2355  0.2461 -0.5367
   22MOL0     O 2796   0.021   2.963   2.444 -0.0234  0.2369 -0.5766
   22MOL0     C 2797  -0.050   2.867   2.378 -0.4696  0.5609 -1.5473
   22MOL0     C 2798   0.013   2.757   2.309  0.1657 -0.4373 -0.7078
   22MOL0     C 2799  -0.063   2.672   2.225  0.0956 -0.6519 -0.8223
   22MOL0     C 2800  -0.201   2.696   2.211  0.4405 -0.7457  0.3507
   22MOL0     C 2801  -0.282   2.611   2.113  0.2081 -1.2145 -0.3743
   22MOL0     O 2802  -0.226   2.491   2.098  0.2168 -1.4880  0.4581
   22MOL0     C 2803  -0.280   2.417   2.001 -0.3709 -0.3488  0.3260
   22MOL0     C 2804  -0.394   2.331   2.035  0.2296 -0.1247  0.2213
   22MOL0     C 2805  -0.447   2.249   1.927 -0.8788  0.3853 -0.0533
   22MOL0     C 2806  -0.385   2.239   1.800  0.0245  0.6540 -0.2593
   22MOL0     O 2807  -0.418   2.151   1.702 -0.1585  0.1219 -0.6275
   22MOL0     C 2808  -0.480   2.025   1.740 -0.1450  0.4556 -0.5255
   22MOL0     C 2809  -0.519   1.956   1.608  0.8350 -0.1883  0.0333
   22MOL0     C 2810  -0.636   2.026   1.537  0.1115 -0.4131  0.4033
   22MOL0     C 2811  -0.719   1.929   1.450  0.8622 -0.0298  0.1400
   22MOL0     C 2812  -0.829   2.000   1.372 -0.1578 -0.1201  0.3906
   22MOL0     C 2813  -0.890   1.939   1.238 -0.3275  0.0451  0.1598
   22MOL0     C 2814  -0.773   1.907   1.156 -0.0553  0.0161 -0.2214
   22MOL0     C 2815  -0.813   1.862   1.008 -0.3532  0.9605 -0.1062
   22MOL0    Cl 2816  -0.679   1.805   0.914 -0.1932 -0.2941  0.1787
   22MOL0     C 2817  -0.274   2.321   1.778  0.3631  0.0124 -0.4179
   22MOL0     C 2818  -0.228   2.404   1.878  0.3403  0.0584 -0.7068
   22MOL0     O 2819  -0.390   2.648   2.062 -0.4544 -0.2006  0.9252
   22MOL0     C 2820  -0.267   2.802   2.290  0.3919 -0.3365  0.1547
   22MOL0     C 2821  -0.191   2.879   2.370  0.1018 -0.1718  1.2541
   22MOL0     N 2822   0.386   2.861   3.005 -0.7535 -0.4064 -0.2318
   22MOL0     N 2823   0.508   2.821   3.048  0.2042 -0.7522  0.9142
   22MOL0     C 2824   1.645   2.717   3.361  0.0053 -0.2952  0.0380
   22MOL0     C 2825   1.786   2.726   3.364 -0.3107 -0.6359 -0.5296
   22MOL0     C 2826   2.206   2.955   3.357  0.5037  0.7982 -1.4348
   22MOL0     C 2827   2.264   2.841   3.412  0.3164  0.1481 -0.0427
   22MOL0     C 2828   2.401   2.840   3.443  0.8362  0.2762  0.0227
   22MOL0     C 2829   2.485   2.937   3.390  0.3091  0.2892 -1.1263
   22MOL0     O 2830   2.616   2.926   3.430 -0.3956  0.6850 -0.3998
   22MOL0     C 2831   2.713   3.000   3.373  0.0450 -0.4044  0.0283
   22MOL0     C 2832   2.744   2.958   3.222  1.0032 -0.4499  0.3255
   22MOL0     C 2833   2.786   2.815   3.203  0.1072 -0.6987 -1.0155
   22MOL0     C 2834   2.840   2.780   3.065 -0.6516  0.2849  0.3102
   22MOL0     C 2835   2.975   2.708   3.069  0.3456  1.0265 -0.7607
   22MOL0     C 2836   3.089   2.675   3.094  0.0020  0.4781 -0.0009
   22MOL0     C 2837   2.426   3.041   3.324 -0.5269  0.5468 -0.5094
   22MOL0     C 2838   2.295   3.050   3.300 -0.3502 -0.1158 -0.6731
   22MOL0     H 2839   1.795   3.046   3.233 -0.3892 -0.9104 -1.7642
   22MOL0     H 2840   1.561   3.016   3.226 -2.2212 -1.9146 -1.2277
   22MOL0     H 2841   1.339   2.895   3.153  0.6716 -1.3631  0.5189
   22MOL0     H 2842   1.354   2.971   3.316  4.7041 -1.1645  0.3116
   22MOL0     H 2843   1.182   2.867   3.403  2.9598 -0.4893  0.5449
   22MOL0     H 2844   1.177   2.728   3.295  3.4695 -0.4459 -0.5571
   22MOL0     H 2845   1.083   2.883   3.103 -1.6221 -2.6499 -0.7489
   22MOL0     H 2846   1.077   3.011   3.235 -2.4413  0.2292  3.9565
   22MOL0     H 2847   0.950   2.731   3.225  2.7391  0.2918 -1.7780
   22MOL0     H 2848   0.948   2.850   3.366 -0.4054  0.3425 -0.2843
   22MOL0     H 2849   0.792   2.983   3.263 -0.9105 -0.7815  1.1534
   22MOL0     H 2850   0.732   2.826   3.210  0.8343 -1.3888 -3.3906
   22MOL0     H 2851   0.884   3.027   3.038  1.1803 -1.0076  1.3216
   22MOL0     H 2852   0.717   2.980   3.028 -0.0370 -0.3182 -0.8956
   22MOL0     H 2853   0.811   2.891   2.849 -1.6540 -3.3229 -1.8012
   22MOL0     H 2854   0.934   2.794   2.934  0.1965 -1.8643 -0.0979
   22MOL0     H 2855   0.727   2.681   3.047 -2.0980 -2.4661 -1.1478
   22MOL0     H 2856   0.746   2.649   2.871  2.1517  2.2254 -1.3115
   22MOL0     H 2857   0.527   2.741   2.730  1.3088 -1.3678 -0.0164
   22MOL0     H 2858   0.195   2.790   2.817  2.6998 -3.7735 -0.2054
   22MOL0     H 2859   0.305   2.782   2.681  0.4032 -2.0365  0.6476
   22MOL0     H 2860   0.351   3.005   2.686  0.6649 -1.1871  0.8109
   22MOL0     H 2861   0.248   3.059   2.817  2.0970  3.0642 -2.3004
   22MOL0     H 2862   0.041   3.002   2.693 -0.8340 -0.0506  0.6017
   22MOL0     H 2863   0.145   3.116   2.617  2.1004  0.3467 -1.2169
   22MOL0     H 2864   0.134   2.818   2.539 -3.8876  0.1690  0.5875
   22MOL0     H 2865   0.219   2.950   2.459  1.0680 -0.1728  0.4910
   22MOL0     H 2866   0.117   2.729   2.326  0.1175 -0.0593  0.2818
   22MOL0     H 2867  -0.013   2.593   2.171  3.0253  2.6543 -3.4211
   22MOL0     H 2868  -0.434   2.323   2.135 -1.2978 -2.2308 -0.4762
   22MOL0     H 2869  -0.535   2.192   1.957 -0.2599  0.2714  1.6089
   22MOL0     H 2870  -0.573   2.036   1.798 -2.0826 -2.4057 -2.8405
   22MOL0     H 2871  -0.420   1.958   1.801 -0.6357  2.4020  2.3407
   22MOL0     H 2872  -0.549   1.854   1.632  0.9465 -0.4879 -1.0668
   22MOL0     H 2873  -0.434   1.954   1.538 -0.8164  1.3044 -2.1598
   22MOL0     H 2874  -0.604   2.119   1.489  1.3977  1.0782  3.8615
   22MOL0     H 2875  -0.713   2.062   1.605 -0.4714 -0.1297 -0.3871
   22MOL0     H 2876  -0.645   1.886   1.381  2.2021  0.8240  0.9945
   22MOL0     H 2877  -0.764   1.850   1.510  0.4683 -0.1724 -0.3369
   22MOL0     H 2878  -0.786   2.100   1.357 -0.2311 -0.1107  0.2429
   22MOL0     H 2879  -0.914   2.016   1.439 -1.6665 -1.3708 -1.1405
   22MOL0     H 2880  -0.955   2.009   1.186  0.9710  1.0513 -0.1776
   22MOL0     H 2881  -0.945   1.848   1.262 -0.3431  0.0440  0.1201
   22MOL0     H 2882  -0.714   1.998   1.142 -1.8796  1.4200  0.7481
   22MOL0     H 2883  -0.709   1.833   1.206  0.2512  0.9242  0.7772
   22MOL0     H 2884  -0.862   1.945   0.956 -4.6590 -0.2715  1.5242
   22MOL0     H 2885  -0.886   1.780   1.007 -0.3491  0.9540 -1.8161
   22MOL0     H 2886  -0.219   2.303   1.686  2.2168 -0.6727  0.7625
   22MOL0     H 2887  -0.142   2.465   1.852  1.9516 -1.5545  0.5443
   22MOL0     H 2888  -0.373   2.825   2.281  0.0359 -0.2650  3.3479
   22MOL0     H 2889  -0.242   2.972   2.393 -0.0338  0.2737 -0.6384
   22MOL0     H 2890   1.606   2.628   3.410  0.9243 -0.1177  1.0998
   22MOL0     H 2891   1.846   2.644   3.403  0.3486 -2.0094 -4.1162
   22MOL0     H 2892   2.197   2.762   3.442 -2.0935  2.2582  0.4940
   22MOL0     H 2893   2.438   2.745   3.479 -1.3922 -2.7297 -4.6177
   22MOL0     H 2894   2.813   2.978   3.412 -0.6310 -4.9317 -0.3006
   22MOL0     H 2895   2.686   3.105   3.388  1.4074 -0.1706  1.2193
   22MOL0     H 2896   2.654   2.968   3.160  0.7006 -1.6593  0.5516
   22MOL0     H 2897   2.819   3.025   3.180 -0.4459  0.3058 -1.1686
   22MOL0     H 2898   2.706   2.748   3.236  0.4549 -1.2405 -1.2533
   22MOL0     H 2899   2.858   2.799   3.284 -0.5700 -2.4341 -0.7123
   22MOL0     H 2900   2.768   2.708   3.025 -1.0123 -0.9271  2.9132
   22MOL0     H 2901   2.845   2.873   3.007 -1.4780 -1.7068 -3.2263
   22MOL0     H 2902   3.193   2.650   3.099 -0.7539 -3.0620  2.8161
   22MOL0     H 2903   2.488   3.103   3.260  0.0720  0.8159  0.3119
   22MOL0     H 2904   2.269   3.134   3.236  2.0306 -0.8988 -2.8280
   23MOL0     O 2905   8.490   3.960   2.481 -0.5895  0.2986  0.4614
   23MOL0     C 2906   8.435   3.880   2.403  0.5670 -0.3820  0.0254
   23MOL0     O 2907   8.318   3.818   2.422  0.1423  0.5629 -0.7845
   23MOL0     C 2908   8.227   3.848   2.520 -0.4324  0.1878 -0.0482
   23MOL0     C 2909   8.108   3.771   2.511 -0.4957  0.4715  0.5595
   23MOL0     C 2910   8.008   3.791   2.601  1.2210  0.2975 -0.1429
   23MOL0     C 2911   8.008   3.888   2.700 -0.2441 -0.1360 -0.3240
   23MOL0     O 2912   7.910   3.905   2.793  0.0880 -0.5164 -0.3541
   23MOL0     C 2913   7.779   3.860   2.765  1.0895  0.1596 -0.3704
   23MOL0     C 2914   7.699   3.909   2.887 -0.0371  0.4308  0.5343
   23MOL0     C 2915   7.553   3.926   2.854  0.3280  0.4509 -0.3676
   23MOL0     C 2916   7.472   4.005   2.964  0.8990 -0.1360 -1.1127
   23MOL0     C 2917   7.322   3.988   2.940 -0.4719 -0.4955 -0.0934
   23MOL0     C 2918   7.279   4.083   2.825  0.0075 -0.2325  0.9313
   23MOL0     C 2919   7.134   4.078   2.800  0.3910 -0.7112  0.4744
   23MOL0     C 2920   7.073   3.938   2.758  0.2529  0.1758 -0.3611
   23MOL0     N 2921   7.018   3.860   2.872  0.3652  0.4672 -0.2316
   23MOL0     C 2922   6.900   3.886   2.936  0.0342 -0.0018  0.3850
   23MOL0     C 2923   6.885   3.780   3.024  0.5782 -0.6557 -0.1436
   23MOL0     C 2924   6.785   3.768   3.122 -1.3874  0.3363 -0.3330
   23MOL0     C 2925   6.652   3.847   3.096  0.5466  0.6214 -0.2269
   23MOL0     C 2926   6.585   3.805   2.962 -0.7861  0.5862 -0.1023
   23MOL0     C 2927   6.489   3.906   2.896  0.2426  0.3804  0.2970
   23MOL0     O 2928   6.377   3.928   2.986  0.1248 -0.5694 -0.4014
   23MOL0     C 2929   6.255   3.918   2.917 -1.2731 -1.0117 -0.5308
   23MOL0     C 2930   6.198   4.034   2.874  0.6819 -0.8346 -1.0764
   23MOL0     C 2931   6.086   4.037   2.791  0.6379 -0.1678 -0.3185
   23MOL0     C 2932   6.017   3.916   2.779 -0.7448  0.4767  0.5983
   23MOL0     C 2933   5.883   3.907   2.705 -0.2322  0.4948  0.0976
   23MOL0     O 2934   5.817   4.020   2.673 -0.7871 -0.5277  0.7818
   23MOL0     C 2935   5.692   4.003   2.632 -0.5527  0.6257 -0.2153
   23MOL0     C 2936   5.658   4.084   2.524 -0.0692  0.5635 -1.0158
   23MOL0     C 2937   5.522   4.086   2.482  0.3270 -1.0308  0.0113
   23MOL0     C 2938   5.431   4.000   2.539  0.4737 -0.1245 -0.7088
   23MOL0     O 2939   5.297   4.000   2.498 -1.0471  0.6492  0.0766
   23MOL0     C 2940   5.271   3.971   2.361 -0.0282 -0.1994 -0.9465
   23MOL0     C 2941   5.119   3.967   2.321 -0.1728 -0.2900 -0.2818
   23MOL0     C 2942   5.049   4.104   2.330  0.4826  0.5653  0.1365
   23MOL0     C 2943   4.898   4.108   2.297  0.0633 -0.3183  0.0155
   23MOL0     C 2944   4.819   4.240   2.334  0.0268  0.0823  0.9270
   23MOL0     C 2945   4.669   4.241   2.287 -0.1608  0.7949  0.0509
   23MOL0     C 2946   4.648   4.282   2.145 -0.6779 -0.3816 -0.5960
   23MOL0     C 2947   4.506   4.291   2.103 -0.9219  0.2046  0.3863
   23MOL0    Cl 2948   4.515   4.335   1.940  0.2401 -0.0250  0.6266
   23MOL0     C 2949   5.470   3.934   2.656 -0.2990 -0.2474 -0.5473
   23MOL0     C 2950   5.601   3.940   2.702  0.1127  0.7239  0.0116
   23MOL0     O 2951   5.850   3.793   2.672 -0.1919 -0.2870  0.1437
   23MOL0     C 2952   6.068   3.797   2.832  1.1405 -0.4096  0.4614
   23MOL0     C 2953   6.190   3.796   2.902 -0.3696 -0.5764  0.1659
   23MOL0     N 2954   7.002   3.707   3.027  0.1793  0.3350  0.3361
   23MOL0     N 2955   7.072   3.748   2.930  0.4566 -0.2614  0.3705
   23MOL0     C 2956   8.130   3.958   2.717 -0.2288 -0.0974 -0.2766
   23MOL0     C 2957   8.236   3.939   2.626 -0.7290 -0.6933 -0.4643
   23MOL0     C 2958   8.510   3.838   2.296  1.2258  0.1152 -0.1486
   23MOL0     C 2959   8.515   3.696   2.264 -0.3492  1.0488  0.2943
   23MOL0     C 2960   8.597   3.651   2.165 -0.1257 -0.5613  0.2731
   23MOL0     C 2961   8.676   3.745   2.095  0.5615  0.5662 -0.8436
   23MOL0     O 2962   8.770   3.706   2.002  0.4168 -0.4491  0.0027
   23MOL0     C 2963   8.876   3.626   2.061  0.6033  0.9181  0.5463
   23MOL0     C 2964   8.956   3.557   1.948  0.1896  0.0006 -0.7761
   23MOL0     C 2965   9.023   3.664   1.856 -0.7588 -0.9051  0.2335
   23MOL0     C 2966   9.135   3.766   1.893  0.8995 -0.3865 -0.7040
   23MOL0     C 2967   9.239   3.694   1.968  1.5331 -0.7418  0.2155
   23MOL0     C 2968   9.327   3.641   2.029  0.3104 -1.0363  0.6657
   23MOL0     C 2969   8.666   3.881   2.117 -0.5836 -0.2327 -0.2788
   23MOL0     C 2970   8.585   3.927   2.217 -0.7185  0.0243  0.2178
   23MOL0     H 2971   8.111   3.687   2.442 -2.1127  0.8277  0.0176
   23MOL0     H 2972   7.927   3.720   2.588  2.7152 -1.3698 -0.8722
   23MOL0     H 2973   7.769   3.751   2.763 -1.0428  0.2470  1.4377
   23MOL0     H 2974   7.730   3.903   2.676 -0.2984 -0.7741 -0.0906
   23MOL0     H 2975   7.747   4.001   2.921  0.5988  0.7232 -1.0347
   23MOL0     H 2976   7.708   3.835   2.967 -2.4922  1.0195  1.4517
   23MOL0     H 2977   7.519   3.831   2.814 -1.2529  0.3070  1.2055
   23MOL0     H 2978   7.546   3.991   2.766 -1.0246  1.1536  0.2241
   23MOL0     H 2979   7.502   3.976   3.065 -3.0567  0.1302  0.3183
   23MOL0     H 2980   7.497   4.111   2.962 -2.4722  0.7681 -1.4871
   23MOL0     H 2981   7.271   4.011   3.034  0.9070 -0.8260  0.7564
   23MOL0     H 2982   7.303   3.881   2.924 -0.3983 -0.4311 -0.6087
   23MOL0     H 2983   7.338   4.064   2.735 -0.7677  0.7121  0.2102
   23MOL0     H 2984   7.295   4.187   2.855 -1.7338  0.3657 -0.1259
   23MOL0     H 2985   7.082   4.107   2.891  1.3701 -0.4137  0.9539
   23MOL0     H 2986   7.114   4.152   2.721 -0.1882 -0.9301  0.4099
   23MOL0     H 2987   7.153   3.887   2.704 -0.1665 -1.7384  0.7214
   23MOL0     H 2988   6.993   3.945   2.683  0.1906 -1.3555 -0.4703
   23MOL0     H 2989   6.824   3.955   2.900 -2.1872 -3.1041 -1.3869
   23MOL0     H 2990   6.834   3.810   3.211 -0.7629 -1.1372  0.0579
   23MOL0     H 2991   6.750   3.666   3.142  0.1999 -0.3634 -1.0028
   23MOL0     H 2992   6.680   3.953   3.091  1.2553  0.4706  0.2705
   23MOL0     H 2993   6.590   3.839   3.185  0.0952  0.5500 -0.5453
   23MOL0     H 2994   6.666   3.777   2.894  0.5299  4.6076 -0.4169
   23MOL0     H 2995   6.530   3.713   2.986 -0.8657  1.2124  2.3133
   23MOL0     H 2996   6.453   3.863   2.802  0.2043  0.4057  0.3003
   23MOL0     H 2997   6.525   4.005   2.867 -2.7209  1.3408 -0.4108
   23MOL0     H 2998   6.240   4.133   2.890 -3.2300  0.3542  6.0080
   23MOL0     H 2999   6.058   4.135   2.754  4.7323  1.1648 -0.4713
   23MOL0     H 3000   5.732   4.139   2.467  0.2772 -0.8198 -1.9611
   23MOL0     H 3001   5.502   4.138   2.389  0.1171 -0.7997  0.1841
   23MOL0     H 3002   5.313   3.877   2.323  3.9132 -0.1016  2.4851
   23MOL0     H 3003   5.316   4.058   2.313 -0.4128  1.0230  0.8369
   23MOL0     H 3004   5.073   3.907   2.400  0.5192  1.6888  1.7462
   23MOL0     H 3005   5.108   3.919   2.224  0.0955  0.5795 -0.7543
   23MOL0     H 3006   5.098   4.170   2.258  1.5258  1.0850  1.2991
   23MOL0     H 3007   5.068   4.142   2.430  2.5595  0.3869 -0.1610
   23MOL0     H 3008   4.897   4.094   2.188  1.1287 -3.6042  0.3408
   23MOL0     H 3009   4.863   4.018   2.348  0.9231  0.3018  1.7447
   23MOL0     H 3010   4.869   4.323   2.284  0.7216 -1.0520 -0.3418
   23MOL0     H 3011   4.805   4.255   2.442 -2.9064 -2.7057  1.1145
   23MOL0     H 3012   4.606   4.303   2.351 -1.4337 -1.3335  0.9678
   23MOL0     H 3013   4.632   4.138   2.295  1.8732 -0.1155 -1.4387
   23MOL0     H 3014   4.698   4.378   2.127  1.4449 -1.3027  0.1986
   23MOL0     H 3015   4.706   4.218   2.078  0.0979 -0.6172  0.2852
   23MOL0     H 3016   4.452   4.370   2.156  1.0242  2.7838 -1.2748
   23MOL0     H 3017   4.453   4.195   2.108 -0.6772  0.0923  0.8810
   23MOL0     H 3018   5.395   3.879   2.713  1.5498  0.7491  3.1095
   23MOL0     H 3019   5.637   3.898   2.796 -0.0272  1.1845  0.2719
   23MOL0     H 3020   6.024   3.698   2.823  0.4281 -0.2020  1.4346
   23MOL0     H 3021   6.234   3.707   2.945 -1.0537 -0.7331  0.5464
   23MOL0     H 3022   8.137   4.029   2.799 -2.1494 -0.2624  0.0776
   23MOL0     H 3023   8.315   4.011   2.644 -2.6850  1.4549 -0.0438
   23MOL0     H 3024   8.464   3.625   2.329  2.3772 -0.5698  0.8265
   23MOL0     H 3025   8.602   3.543   2.155 -0.4710 -0.4551 -1.3405
   23MOL0     H 3026   8.840   3.545   2.124 -1.4207  3.0991  2.4160
   23MOL0     H 3027   8.933   3.692   2.128  2.5334  0.5684 -0.6625
   23MOL0     H 3028   9.032   3.495   1.997  1.6906  1.1221 -1.6257
   23MOL0     H 3029   8.901   3.493   1.879 -0.7073 -0.8214  0.6381
   23MOL0     H 3030   8.937   3.720   1.817 -1.9677 -0.9460  2.7160
   23MOL0     H 3031   9.080   3.619   1.773  1.7543  0.4676  1.0926
   23MOL0     H 3032   9.183   3.805   1.802 -1.0796  0.7638 -1.3360
   23MOL0     H 3033   9.086   3.843   1.953 -4.8002 -2.6745 -1.7788
   23MOL0     H 3034   9.397   3.597   2.096  0.1540 -0.5393  1.1698
   23MOL0     H 3035   8.700   3.943   2.035 -1.4370  1.4412  0.5894
   23MOL0     H 3036   8.555   4.030   2.234  0.4537  0.5907 -0.9533
   24MOL0     O 3037  10.216  11.056   3.300  0.8428 -0.0791 -0.9406
   24MOL0     C 3038  10.248  10.942   3.280 -0.1328  0.3571  0.4772
   24MOL0     O 3039  10.367  10.911   3.221 -0.1281  0.0346  0.3218
   24MOL0     C 3040  10.430  10.995   3.138  0.2480  1.0031 -0.5118
   24MOL0     C 3041  10.570  10.997   3.143 -0.4846  0.3924  0.2927
   24MOL0     C 3042  10.632  11.084   3.062 -0.5731 -0.0498 -0.3081
   24MOL0     C 3043  10.565  11.190   2.995 -0.0170  0.2892 -0.3985
   24MOL0     O 3044  10.623  11.280   2.907  0.1303 -0.1385 -0.0073
   24MOL0     C 3045  10.737  11.231   2.834  0.7652 -0.7427  0.8036
   24MOL0     C 3046  10.804  11.354   2.773 -0.5144  0.9665  0.6262
   24MOL0     C 3047  10.714  11.425   2.667  0.0174  0.6201 -0.8189
   24MOL0     C 3048  10.794  11.549   2.616 -0.2718 -0.1005  0.3663
   24MOL0     C 3049  10.900  11.515   2.502  0.0985 -0.5039  0.4108
   24MOL0     C 3050  10.952  11.645   2.432 -0.4422  0.5910 -0.3366
   24MOL0     C 3051  11.050  11.744   2.510 -0.2624  0.1736  0.5018
   24MOL0     C 3052  11.064  11.880   2.440  0.7747  0.2089 -0.2844
   24MOL0     N 3053  10.954  11.977   2.472  0.7941 -0.3392  0.1726
   24MOL0     C 3054  10.949  12.047   2.594 -1.2683  0.7621 -0.6060
   24MOL0     C 3055  10.834  12.113   2.600  0.2971 -0.2109 -0.1520
   24MOL0     C 3056  10.769  12.195   2.709 -0.7527  0.1148  1.0937
   24MOL0     C 3057  10.730  12.108   2.825 -0.7714  1.0533 -1.0580
   24MOL0     C 3058  10.642  11.988   2.794 -0.2993  0.5572  0.0749
   24MOL0     C 3059  10.513  12.041   2.719  0.6536 -0.0214 -0.4155
   24MOL0     O 3060  10.408  11.941   2.739 -0.1927 -0.3388 -0.2031
   24MOL0     C 3061  10.400  11.837   2.650  0.0532  0.3959  0.4579
   24MOL0     C 3062  10.502  11.792   2.575 -0.1063  0.5666  0.2835
   24MOL0     C 3063  10.482  11.677   2.501  0.8644  0.2753 -0.0804
   24MOL0     C 3064  10.359  11.600   2.513 -1.0374  0.1056  0.8124
   24MOL0     C 3065  10.325  11.482   2.423  0.8881 -0.2848  1.0246
   24MOL0     O 3066  10.439  11.419   2.375  0.2145  0.2354  0.5521
   24MOL0     C 3067  10.435  11.324   2.281 -0.0255 -0.1548  0.3565
   24MOL0     C 3068  10.531  11.229   2.303  0.6912  0.6431 -1.1690
   24MOL0     C 3069  10.549  11.115   2.221  0.3531 -0.2854  1.3492
   24MOL0     C 3070  10.486  11.121   2.095  0.1788 -0.0391 -0.9602
   24MOL0     O 3071  10.531  11.031   2.009 -0.2041 -0.0849  0.5329
   24MOL0     C 3072  10.467  11.015   1.875 -0.8028 -0.6292  0.2446
   24MOL0     C 3073  10.512  10.898   1.788 -0.1493  0.5489  0.1895
   24MOL0     C 3074  10.663  10.908   1.749 -0.3965 -0.7065  0.2278
   24MOL0     C 3075  10.716  10.765   1.715 -0.6451  1.0012 -0.1058
   24MOL0     C 3076  10.862  10.785   1.677 -0.2178 -0.3835 -0.2899
   24MOL0     C 3077  10.937  10.654   1.648 -0.4844 -0.3468  0.0266
   24MOL0     C 3078  11.085  10.699   1.621  0.0890  0.6796 -0.1385
   24MOL0     C 3079  11.168  10.569   1.612 -0.1149  0.1160 -0.3933
   24MOL0    Cl 3080  11.344  10.612   1.608  0.0579  0.0846  0.2994
   24MOL0     C 3081  10.398  11.223   2.069 -0.0521  0.8402 -0.2834
   24MOL0     C 3082  10.371  11.326   2.158  0.1173 -0.2378 -0.4188
   24MOL0     O 3083  10.214  11.435   2.420  0.4915  0.4767 -0.1772
   24MOL0     C 3084  10.265  11.641   2.603  0.9003  1.2217  0.1264
   24MOL0     C 3085  10.286  11.754   2.685  0.5145  0.9848  0.0977
   24MOL0     N 3086  10.772  12.084   2.477 -0.7367 -0.9832  0.4994
   24MOL0     N 3087  10.837  12.002   2.395  0.4283  0.0144  0.4373
   24MOL0     C 3088  10.428  11.197   3.001 -0.4839 -0.0395 -0.2143
   24MOL0     C 3089  10.359  11.095   3.063 -0.6193  0.1736 -0.6722
   24MOL0     C 3090  10.163  10.829   3.346  0.5604 -0.3349  0.6759
   24MOL0     C 3091  10.226  10.707   3.387  0.4338 -1.3243  0.1943
   24MOL0     C 3092  10.157  10.616   3.459  0.6378  0.0984  0.1428
   24MOL0     C 3093  10.020  10.629   3.500 -0.6435  0.3144 -0.0381
   24MOL0     O 3094   9.950  10.531   3.571  0.9984  0.5875 -0.0529
   24MOL0     C 3095   9.819  10.565   3.631  0.3244 -0.0527 -0.8881
   24MOL0     C 3096   9.839  10.667   3.745  0.1769  0.0429 -0.0378
   24MOL0     C 3097   9.905  10.615   3.873 -0.4838  0.2466  0.0559
   24MOL0     C 3098   9.859  10.684   3.994  0.5216  1.1210  0.0103
   24MOL0     C 3099   9.722  10.644   4.033 -0.8271  0.1357  1.0991
   24MOL0     C 3100   9.608  10.604   4.050 -0.4432  0.2475 -0.7827
   24MOL0     C 3101   9.964  10.755   3.457 -0.0343  0.3663  0.7614
   24MOL0     C 3102  10.032  10.850   3.379  0.4103 -0.1286 -0.7096
   24MOL0     H 3103  10.628  10.927   3.203 -0.8127  0.8910  1.2199
   24MOL0     H 3104  10.741  11.089   3.060 -0.6164  2.4073 -0.8114
   24MOL0     H 3105  10.704  11.162   2.755 -3.7248  2.2746 -0.3539
   24MOL0     H 3106  10.811  11.174   2.891 -0.4224 -3.5890 -0.2859
   24MOL0     H 3107  10.897  11.313   2.732  0.0256  2.8188 -0.0737
   24MOL0     H 3108  10.832  11.414   2.860  0.0927 -0.5648  1.5266
   24MOL0     H 3109  10.622  11.455   2.720  0.3599  0.5481 -0.1746
   24MOL0     H 3110  10.692  11.345   2.596 -0.7475 -0.6369  0.7674
   24MOL0     H 3111  10.727  11.621   2.568  0.7433 -0.1873 -1.2473
   24MOL0     H 3112  10.852  11.592   2.699 -0.8692  0.0426  0.7151
   24MOL0     H 3113  10.856  11.457   2.420  1.9396 -1.7752  0.2744
   24MOL0     H 3114  10.982  11.456   2.542  0.2401 -0.3043  0.4149
   24MOL0     H 3115  10.870  11.710   2.403 -1.4052 -0.5459 -0.2272
   24MOL0     H 3116  11.012  11.603   2.350 -3.2314 -0.8428 -1.8017
   24MOL0     H 3117  11.013  11.756   2.612  0.9323  2.1227  0.7343
   24MOL0     H 3118  11.147  11.694   2.511 -0.2611  0.1839  1.0481
   24MOL0     H 3119  11.057  11.867   2.331  3.4639 -1.9788 -0.3339
   24MOL0     H 3120  11.156  11.931   2.468 -0.1347  1.7383 -0.0141
   24MOL0     H 3121  11.033  12.039   2.662 -0.5181 -4.3219 -1.6938
   24MOL0     H 3122  10.685  12.244   2.660  0.9262  1.0380 -1.0560
   24MOL0     H 3123  10.843  12.270   2.738  2.7371 -1.1692 -3.3188
   24MOL0     H 3124  10.667  12.165   2.895 -0.7985 -1.2418  0.9186
   24MOL0     H 3125  10.822  12.070   2.871 -2.6948 -0.0175  2.2705
   24MOL0     H 3126  10.696  11.917   2.731  0.9606  2.0832 -0.6191
   24MOL0     H 3127  10.632  11.931   2.886  1.4029  0.1335  0.0180
   24MOL0     H 3128  10.524  12.070   2.614 -0.0166  4.4320  0.5228
   24MOL0     H 3129  10.479  12.123   2.784 -2.0507 -0.3276 -1.3102
   24MOL0     H 3130  10.583  11.856   2.544 -0.6562 -0.3583 -3.7077
   24MOL0     H 3131  10.558  11.636   2.435  1.2740  2.3469 -0.9830
   24MOL0     H 3132  10.589  11.239   2.395 -3.3342 -1.3255  1.8927
   24MOL0     H 3133  10.617  11.032   2.237 -0.8451 -2.2668 -2.6209
   24MOL0     H 3134  10.489  11.106   1.818 -2.9640  0.0382  0.3706
   24MOL0     H 3135  10.358  11.019   1.888 -0.6532  0.8568  1.3183
   24MOL0     H 3136  10.448  10.882   1.700  0.6663  2.4625 -0.8353
   24MOL0     H 3137  10.494  10.809   1.848  0.8430 -0.6456 -1.1929
   24MOL0     H 3138  10.714  10.961   1.830 -2.3417 -3.8804  3.9171
   24MOL0     H 3139  10.683  10.965   1.658  1.7591  1.2560  1.8269
   24MOL0     H 3140  10.725  10.702   1.803  1.5561  0.9587 -0.3084
   24MOL0     H 3141  10.660  10.709   1.639 -0.9177 -0.0877  0.8771
   24MOL0     H 3142  10.920  10.830   1.758  3.4110 -1.9079 -1.8184
   24MOL0     H 3143  10.865  10.850   1.589  0.8713 -1.7705 -1.3225
   24MOL0     H 3144  10.897  10.607   1.557  1.7982  0.8413 -1.6807
   24MOL0     H 3145  10.933  10.577   1.726  2.0812  1.7940  2.4442
   24MOL0     H 3146  11.094  10.762   1.531  1.5610 -1.0209 -1.2375
   24MOL0     H 3147  11.120  10.764   1.702  0.7872 -1.0427  0.9909
   24MOL0     H 3148  11.142  10.514   1.521  0.6600 -0.4975 -0.2548
   24MOL0     H 3149  11.143  10.502   1.695 -2.3800 -0.8426 -1.7515
   24MOL0     H 3150  10.350  11.223   1.971  0.6845  1.2347 -0.6547
   24MOL0     H 3151  10.303  11.408   2.138 -2.7238 -1.8311  1.8812
   24MOL0     H 3152  10.174  11.583   2.603  2.2230 -1.0669  2.7485
   24MOL0     H 3153  10.209  11.774   2.758 -1.8954 -1.8681 -1.4360
   24MOL0     H 3154  10.369  11.269   2.946  2.2395  1.8338 -0.9205
   24MOL0     H 3155  10.251  11.090   3.060 -0.8692 -0.6685  3.5793
   24MOL0     H 3156  10.331  10.694   3.361 -0.0965 -2.6683 -1.4745
   24MOL0     H 3157  10.204  10.524   3.492 -0.5452 -0.9651 -0.9850
   24MOL0     H 3158   9.778  10.471   3.669  0.1737  1.1436  2.1919
   24MOL0     H 3159   9.743  10.607   3.565 -1.4451  1.0713  1.6997
   24MOL0     H 3160   9.890  10.752   3.699  1.4347  0.4333  1.9431
   24MOL0     H 3161   9.742  10.707   3.775  0.3738 -0.1290  0.8618
   24MOL0     H 3162  10.014  10.624   3.875 -0.3042 -1.5615 -0.0786
   24MOL0     H 3163   9.875  10.510   3.878 -0.5412  0.2910  0.8963
   24MOL0     H 3164   9.923  10.645   4.074 -0.7536  4.5923  3.0364
   24MOL0     H 3165   9.868  10.793   3.991  0.8937  1.1834  2.0749
   24MOL0     H 3166   9.511  10.559   4.052 -1.0368  1.4654 -1.2777
   24MOL0     H 3167   9.868  10.785   3.499 -1.7952 -1.2187 -1.7970
   24MOL0     H 3168   9.990  10.949   3.362  1.1135  0.3246  0.0541
   25MOL0     O 3169   6.980  10.367   8.921 -0.2915  0.3139  0.3399
   25MOL0     C 3170   6.929  10.278   8.854  1.2281  0.0683 -0.3321
   25MOL0     O 3171   6.990  10.165   8.811  0.0263  0.3942 -0.1261
   25MOL0     C 3172   7.120  10.146   8.854  0.5783  1.2481 -0.5763
   25MOL0     C 3173   7.224  10.162   8.759 -0.4486 -0.5844  0.8729
   25MOL0     C 3174   7.356  10.150   8.782  0.1090  0.3674 -0.0482
   25MOL0     C 3175   7.397  10.096   8.905  1.0841 -0.4218 -0.5583
   25MOL0     O 3176   7.525  10.057   8.923 -1.2485 -0.1092  0.5906
   25MOL0     C 3177   7.601  10.132   9.014  0.7399  0.5240  0.6452
   25MOL0     C 3178   7.752  10.112   9.004  1.3246  0.0664  1.1321
   25MOL0     C 3179   7.817  10.230   9.061  0.3357 -0.4302 -0.1548
   25MOL0     C 3180   7.969  10.200   9.077 -0.0546  0.8413  0.7127
   25MOL0     C 3181   8.053  10.328   9.103 -0.5642 -0.4142  0.8533
   25MOL0     C 3182   8.191  10.280   9.148  0.0634  0.2894 -0.2367
   25MOL0     C 3183   8.293  10.398   9.157 -0.1281 -0.0275  0.0182
   25MOL0     C 3184   8.435  10.343   9.183  0.3427  0.0039  0.2877
   25MOL0     N 3185   8.473  10.293   9.320  0.1933 -0.2241  0.3924
   25MOL0     C 3186   8.598  10.278   9.374  0.2263  0.4251  0.8449
   25MOL0     C 3187   8.584  10.204   9.486  0.4608 -0.7422  0.0862
   25MOL0     C 3188   8.692  10.166   9.589  0.3783  1.1941  0.4311
   25MOL0     C 3189   8.764  10.037   9.545  0.4789  0.0952 -0.6607
   25MOL0     C 3190   8.672   9.913   9.577  0.2209  0.2372 -0.9877
   25MOL0     C 3191   8.725   9.773   9.532 -0.3771 -0.1929  0.5883
   25MOL0     O 3192   8.679   9.665   9.607 -0.0897  0.2039  0.8469
   25MOL0     C 3193   8.550   9.619   9.603 -0.2633 -0.1450  0.0504
   25MOL0     C 3194   8.518   9.531   9.705  0.0335  0.2018  0.2006
   25MOL0     C 3195   8.392   9.483   9.723  0.6666  0.5722  0.4095
   25MOL0     C 3196   8.294   9.519   9.626  0.1758 -0.3596 -0.0417
   25MOL0     C 3197   8.160   9.463   9.628  0.1141  0.4501  0.6539
   25MOL0     O 3198   8.063   9.517   9.545  0.0625  0.1488 -0.2700
   25MOL0     C 3199   7.938   9.467   9.544 -0.1855  0.2397 -0.9991
   25MOL0     C 3200   7.895   9.337   9.511 -0.8467 -0.0555  0.2872
   25MOL0     C 3201   7.761   9.301   9.505  0.0962 -0.5385 -0.3844
   25MOL0     C 3202   7.656   9.387   9.539 -0.2637 -1.4841 -1.3296
   25MOL0     O 3203   7.529   9.337   9.531  0.3147 -0.5832 -0.3935
   25MOL0     C 3204   7.504   9.215   9.601  1.1423  1.0481 -0.0880
   25MOL0     C 3205   7.460   9.233   9.752  0.1550 -0.1634  0.9092
   25MOL0     C 3206   7.339   9.324   9.766 -0.3679 -1.1560  0.4731
   25MOL0     C 3207   7.205   9.270   9.718  0.1944 -0.0843  0.3097
   25MOL0     C 3208   7.095   9.381   9.744 -0.2159  0.2614 -0.3988
   25MOL0     C 3209   6.957   9.353   9.685 -0.2897  0.0007  0.0435
   25MOL0     C 3210   6.838   9.461   9.693 -0.9631 -0.3083  0.4229
   25MOL0     C 3211   6.706   9.395   9.687  0.1773 -0.5342 -0.1178
   25MOL0    Cl 3212   6.564   9.501   9.643  0.0529  0.1960 -0.6489
   25MOL0     C 3213   7.691   9.517   9.568 -0.0789 -0.1865 -0.3063
   25MOL0     C 3214   7.826   9.555   9.573  0.0867 -0.7889 -0.7650
   25MOL0     O 3215   8.136   9.378   9.713 -0.2457 -0.1178  0.1671
   25MOL0     C 3216   8.329   9.597   9.516  0.1821  0.4665 -0.2103
   25MOL0     C 3217   8.458   9.654   9.504 -0.0320  0.5198 -0.2135
   25MOL0     N 3218   8.447  10.166   9.489  0.4154 -0.9541  0.8731
   25MOL0     N 3219   8.380  10.234   9.396  0.4488  0.6021  0.0917
   25MOL0     C 3220   7.294  10.059   9.000  0.2097 -0.1835  0.0543
   25MOL0     C 3221   7.154  10.089   8.978  0.3544  0.4240  0.6797
   25MOL0     C 3222   6.786  10.292   8.809 -0.2154  1.0742  0.4626
   25MOL0     C 3223   6.698  10.379   8.857  0.1504  0.6779  0.2034
   25MOL0     C 3224   6.562  10.376   8.823  0.3734  0.7309  0.2754
   25MOL0     C 3225   6.521  10.290   8.717 -0.2273 -0.8008  0.3027
   25MOL0     O 3226   6.394  10.256   8.685  0.8213  0.5324  0.4013
   25MOL0     C 3227   6.295  10.317   8.761  0.5902 -0.7179 -0.4399
   25MOL0     C 3228   6.275  10.236   8.889 -0.3080 -0.2662  0.1453
   25MOL0     C 3229   6.225  10.093   8.865  0.4801 -0.1395  0.2939
   25MOL0     C 3230   6.201  10.013   8.993  0.6689  0.2732 -0.2795
   25MOL0     C 3231   6.063  10.032   9.055 -0.6160 -0.6204  0.0077
   25MOL0     C 3232   5.956  10.064   9.109  0.4182 -0.2755 -0.9319
   25MOL0     C 3233   6.621  10.222   8.645 -0.5818 -0.5523  0.0309
   25MOL0     C 3234   6.749  10.216   8.694 -0.5377 -0.0314  0.1222
   25MOL0     H 3235   7.192  10.216   8.671  1.5550 -1.2112 -0.3092
   25MOL0     H 3236   7.428  10.168   8.702  1.7850  0.9414  1.5297
   25MOL0     H 3237   7.570  10.111   9.117 -1.0630  0.1962  0.0542
   25MOL0     H 3238   7.572  10.236   8.999  1.6507  1.1362  2.7203
   25MOL0     H 3239   7.786  10.094   8.901 -1.4067 -2.3357  0.4995
   25MOL0     H 3240   7.773  10.021   9.061 -3.7491 -0.4755  2.5745
   25MOL0     H 3241   7.788  10.238   9.166  0.8138  1.0232 -0.1152
   25MOL0     H 3242   7.810  10.322   9.002  1.2121 -1.1444 -1.4445
   25MOL0     H 3243   7.977  10.124   9.156  2.3309  1.1076  0.8011
   25MOL0     H 3244   7.997  10.146   8.986  0.5313 -0.9989  1.9253
   25MOL0     H 3245   8.014  10.375   9.194 -0.6394 -1.0747  1.1642
   25MOL0     H 3246   8.061  10.401   9.022  1.6382  0.2724  1.6331
   25MOL0     H 3247   8.225  10.215   9.067  1.2719 -0.1019  0.5542
   25MOL0     H 3248   8.181  10.216   9.236 -0.4481  1.0035  0.2397
   25MOL0     H 3249   8.299  10.471   9.075  0.6695  0.4254  0.4785
   25MOL0     H 3250   8.262  10.456   9.244  3.1492  5.5660 -2.0443
   25MOL0     H 3251   8.497  10.430   9.160 -0.9641  1.3290  1.5570
   25MOL0     H 3252   8.451  10.269   9.104 -0.3296 -0.4394  0.5563
   25MOL0     H 3253   8.691  10.322   9.339  1.7477 -3.9701 -1.4539
   25MOL0     H 3254   8.639  10.146   9.682  0.6574 -2.9264 -0.0986
   25MOL0     H 3255   8.766  10.244   9.607  2.2543 -0.5562  0.6977
   25MOL0     H 3256   8.853  10.030   9.608 -0.4018 -1.4772  0.4752
   25MOL0     H 3257   8.792  10.042   9.439 -0.7079  0.0044 -0.9888
   25MOL0     H 3258   8.662   9.917   9.686 -0.3059  4.1775 -1.0162
   25MOL0     H 3259   8.571   9.939   9.544  0.8626  3.2668 -0.8850
   25MOL0     H 3260   8.834   9.776   9.530 -0.1421 -0.4901 -5.0045
   25MOL0     H 3261   8.691   9.757   9.429  1.7992  0.5047 -0.3056
   25MOL0     H 3262   8.584   9.510   9.788 -1.1931  1.6786  1.6145
   25MOL0     H 3263   8.366   9.431   9.814  2.7471 -0.0300  0.7210
   25MOL0     H 3264   7.969   9.261   9.489 -1.1292  0.5835 -3.6244
   25MOL0     H 3265   7.737   9.201   9.469  2.3495 -0.4897 -2.2440
   25MOL0     H 3266   7.591   9.149   9.609 -1.3319 -2.3318  1.2539
   25MOL0     H 3267   7.432   9.152   9.548  0.3877  0.4525  1.5667
   25MOL0     H 3268   7.546   9.278   9.802 -0.2015  1.6246  0.0026
   25MOL0     H 3269   7.452   9.139   9.807 -1.5943 -0.6064 -0.0146
   25MOL0     H 3270   7.355   9.416   9.710 -1.4726 -0.3235  1.4724
   25MOL0     H 3271   7.326   9.352   9.871  2.0227 -0.7374  0.7068
   25MOL0     H 3272   7.219   9.253   9.611  0.8032  1.4298  0.1209
   25MOL0     H 3273   7.187   9.167   9.751  1.1888  0.2790  2.1282
   25MOL0     H 3274   7.133   9.468   9.691 -0.2662 -1.4278 -3.4021
   25MOL0     H 3275   7.088   9.391   9.853 -0.9106  1.4799 -0.5325
   25MOL0     H 3276   6.928   9.259   9.731 -1.7681  0.7143  0.6385
   25MOL0     H 3277   6.972   9.327   9.579 -2.8204  4.5281 -1.7198
   25MOL0     H 3278   6.850   9.531   9.776  1.4233 -0.0857 -0.0269
   25MOL0     H 3279   6.853   9.523   9.604 -2.5716 -0.6639 -0.1299
   25MOL0     H 3280   6.682   9.360   9.787  1.2164 -0.0098  0.3335
   25MOL0     H 3281   6.701   9.311   9.617  0.5745 -3.9634  3.6372
   25MOL0     H 3282   7.617   9.591   9.598 -1.5106 -2.9350  3.8316
   25MOL0     H 3283   7.852   9.657   9.599 -1.3018 -0.2403 -1.4421
   25MOL0     H 3284   8.259   9.625   9.438  0.7799 -1.3355 -1.4759
   25MOL0     H 3285   8.481   9.717   9.419 -1.2120 -2.3690 -2.9075
   25MOL0     H 3286   7.324  10.015   9.095 -3.3297 -2.5439  0.2739
   25MOL0     H 3287   7.069  10.073   9.044  0.4378 -3.7539  0.0387
   25MOL0     H 3288   6.721  10.435   8.947 -0.5041  0.5313  0.4663
   25MOL0     H 3289   6.488  10.433   8.878 -1.3532 -0.8451 -0.2984
   25MOL0     H 3290   6.202  10.326   8.705  1.1477  3.6942 -1.0200
   25MOL0     H 3291   6.319  10.418   8.794  1.4557 -0.8415 -0.6732
   25MOL0     H 3292   6.373  10.233   8.937  1.2131  0.8089 -2.6340
   25MOL0     H 3293   6.203  10.299   8.942 -1.2629  2.1881 -3.6598
   25MOL0     H 3294   6.298  10.038   8.804  0.7405  1.7304 -1.1702
   25MOL0     H 3295   6.133  10.085   8.807  1.5246  0.2872 -1.5036
   25MOL0     H 3296   6.209   9.905   8.984 -0.8711  0.1387 -0.2715
   25MOL0     H 3297   6.279  10.044   9.063  1.0731 -1.1511 -0.0824
   25MOL0     H 3298   5.861  10.090   9.152  0.1836 -0.0461 -1.5680
   25MOL0     H 3299   6.594  10.169   8.554 -1.4021  4.3419 -2.9398
   25MOL0     H 3300   6.827  10.162   8.642 -1.2554 -0.4030 -0.5894
   26MOL0     O 3301   7.218   8.997   1.390 -0.5816  0.6863  0.0491
   26MOL0     C 3302   7.201   9.110   1.344  0.6281  0.3381 -0.4146
   26MOL0     O 3303   7.285   9.212   1.334 -0.2210 -0.2414  0.1357
   26MOL0     C 3304   7.425   9.191   1.338  0.4644  0.1085 -0.5518
   26MOL0     C 3305   7.510   9.298   1.331 -0.5731  0.2816 -1.0107
   26MOL0     C 3306   7.651   9.282   1.319  0.9565 -0.5794  0.7623
   26MOL0     C 3307   7.712   9.159   1.325  0.4313 -0.2755 -0.4325
   26MOL0     O 3308   7.853   9.157   1.315  0.4374  0.0036  0.5448
   26MOL0     C 3309   7.907   9.025   1.296 -0.4475 -0.3617 -0.1479
   26MOL0     C 3310   8.063   9.043   1.324 -0.1933 -0.1864 -0.6950
   26MOL0     C 3311   8.131   8.905   1.294  0.2912  0.0388 -0.7340
   26MOL0     C 3312   8.273   8.945   1.259 -0.0196  0.1464  0.0460
   26MOL0     C 3313   8.344   8.818   1.233 -0.0259  0.2421  0.4762
   26MOL0     C 3314   8.487   8.846   1.174 -0.1653  0.4155  0.8505
   26MOL0     C 3315   8.593   8.864   1.280  0.1251  0.2835  0.2683
   26MOL0     C 3316   8.722   8.929   1.217 -0.3072  0.2342 -0.0998
   26MOL0     N 3317   8.802   8.848   1.125  0.5741  0.3836  0.0976
   26MOL0     C 3318   8.866   8.725   1.148 -0.1753  0.2433  0.4995
   26MOL0     C 3319   8.919   8.689   1.029 -0.6579 -0.5951 -0.0081
   26MOL0     C 3320   9.010   8.571   0.999 -0.7730 -0.2648 -0.5786
   26MOL0     C 3321   9.156   8.618   0.989 -0.7166 -0.4531  0.0594
   26MOL0     C 3322   9.245   8.494   0.935  0.0182 -0.4793 -0.5358
   26MOL0     C 3323   9.379   8.529   0.875  0.2952  0.7114  0.1846
   26MOL0     O 3324   9.384   8.607   0.754  0.4491  0.0799 -0.5403
   26MOL0     C 3325   9.507   8.651   0.709 -0.1455  0.1498 -0.4444
   26MOL0     C 3326   9.513   8.762   0.631 -0.3693  0.0632  1.1817
   26MOL0     C 3327   9.635   8.816   0.598 -0.2388 -0.3324  0.4606
   26MOL0     C 3328   9.756   8.754   0.641 -0.5185 -0.2200  0.1255
   26MOL0     C 3329   9.883   8.811   0.602  0.5183 -1.4186  0.7202
   26MOL0     O 3330   9.885   8.894   0.492  1.4370 -0.0518  0.3359
   26MOL0     C 3331  10.010   8.939   0.448  0.5875  0.9577  0.8855
   26MOL0     C 3332  10.075   9.043   0.512 -0.1236 -0.0655  0.5004
   26MOL0     C 3333  10.171   9.123   0.450 -0.5093  0.0414  0.4486
   26MOL0     C 3334  10.220   9.085   0.324 -0.6723  0.4465  0.1645
   26MOL0     O 3335  10.327   9.146   0.260 -0.5759 -0.0569 -0.3409
   26MOL0     C 3336  10.438   9.173   0.333  0.9956 -0.3172 -1.0791
   26MOL0     C 3337  10.566   9.232   0.267  0.5032 -0.1202  0.6578
   26MOL0     C 3338  10.550   9.384   0.248  0.8526  0.2221  0.9131
   26MOL0     C 3339  10.691   9.451   0.236  0.3377  0.3018 -0.7166
   26MOL0     C 3340  10.687   9.596   0.190  1.1896 -0.3827 -1.3058
   26MOL0     C 3341  10.692   9.693   0.307 -0.4370  0.1396  0.4503
   26MOL0     C 3342  10.655   9.835   0.261 -0.7697  1.1866 -0.4191
   26MOL0     C 3343  10.709   9.945   0.349  0.6357  0.4871 -0.1210
   26MOL0    Cl 3344  10.899   9.955   0.328  0.3572 -0.4112  0.3714
   26MOL0     C 3345  10.156   8.980   0.250  0.0324 -0.3414  0.3117
   26MOL0     C 3346  10.049   8.913   0.314 -0.0128 -0.0797  0.0261
   26MOL0     O 3347   9.983   8.771   0.662  0.1420 -0.5258  0.0972
   26MOL0     C 3348   9.753   8.645   0.725 -0.4948 -0.6565 -0.6757
   26MOL0     C 3349   9.628   8.592   0.752 -0.1442  0.2072  0.4748
   26MOL0     N 3350   8.893   8.790   0.937  0.0193 -0.5402 -0.7155
   26MOL0     N 3351   8.813   8.877   0.993  0.2261 -0.7186  0.0297
   26MOL0     C 3352   7.629   9.046   1.331  0.5821  0.6436  0.2268
   26MOL0     C 3353   7.488   9.064   1.344 -0.5619 -0.0744 -0.9226
   26MOL0     C 3354   7.055   9.138   1.313  0.2947 -1.0341 -0.6764
   26MOL0     C 3355   7.007   9.265   1.267  0.1924  0.7499  0.1670
   26MOL0     C 3356   6.871   9.290   1.242  0.1446 -0.1506  0.4328
   26MOL0     C 3357   6.778   9.195   1.268 -0.1869  0.3197  0.3816
   26MOL0     O 3358   6.641   9.196   1.244  0.3734 -0.1941 -0.3978
   26MOL0     C 3359   6.570   9.320   1.239 -0.2710  0.2392  0.7243
   26MOL0     C 3360   6.457   9.298   1.146 -0.3917  0.9577 -0.0639
   26MOL0     C 3361   6.417   9.423   1.078 -0.8122 -0.2073 -0.5541
   26MOL0     C 3362   6.336   9.491   1.179  0.2244  0.0283 -0.1585
   26MOL0     C 3363   6.255   9.593   1.123 -0.3000 -0.0301  0.1551
   26MOL0     C 3364   6.210   9.691   1.077  0.3910  0.1881  0.6329
   26MOL0     C 3365   6.819   9.076   1.332 -0.5811  0.0773 -0.0386
   26MOL0     C 3366   6.958   9.048   1.350  0.7816 -0.1343  0.5312
   26MOL0     H 3367   7.473   9.400   1.323 -2.0285 -0.0230  1.0536
   26MOL0     H 3368   7.707   9.374   1.311  1.2320 -0.5740  2.4457
   26MOL0     H 3369   7.904   8.991   1.193  3.8894  1.9748 -1.3117
   26MOL0     H 3370   7.867   8.952   1.367  0.5216 -1.9251 -1.1419
   26MOL0     H 3371   8.082   9.081   1.425 -2.6590  1.5446 -0.7784
   26MOL0     H 3372   8.102   9.121   1.258  1.6726  2.5622  3.2589
   26MOL0     H 3373   8.094   8.842   1.213  0.6604  2.0426 -2.5293
   26MOL0     H 3374   8.124   8.850   1.389  0.1341  0.0875 -0.7159
   26MOL0     H 3375   8.266   9.010   1.171 -4.1899  0.7097  0.6045
   26MOL0     H 3376   8.315   9.002   1.343  1.0566 -2.3267  1.2723
   26MOL0     H 3377   8.297   8.762   1.152  0.4566 -1.3639  1.2699
   26MOL0     H 3378   8.342   8.751   1.320  3.8916  1.4606  1.7164
   26MOL0     H 3379   8.491   8.936   1.112 -2.1256  2.1775  3.1266
   26MOL0     H 3380   8.519   8.764   1.108 -0.9291 -0.3387  1.4021
   26MOL0     H 3381   8.558   8.926   1.363 -0.7473 -0.2580  0.3189
   26MOL0     H 3382   8.631   8.770   1.321 -0.0676  0.3725  0.6588
   26MOL0     H 3383   8.786   8.973   1.294 -0.6535 -0.0604  0.3633
   26MOL0     H 3384   8.686   9.015   1.161  1.7020 -0.4513 -2.6585
   26MOL0     H 3385   8.875   8.667   1.239  0.1703 -0.1189  0.2357
   26MOL0     H 3386   8.980   8.534   0.900 -0.7592  1.3392 -1.2147
   26MOL0     H 3387   9.013   8.496   1.079 -0.9927  0.2117 -0.1181
   26MOL0     H 3388   9.193   8.672   1.077 -2.7655  3.0239 -1.0339
   26MOL0     H 3389   9.171   8.687   0.906  1.0376 -1.9210 -0.9381
   26MOL0     H 3390   9.261   8.424   1.018 -5.0022  0.3068  1.4558
   26MOL0     H 3391   9.187   8.443   0.858 -3.5370  0.5136  1.2521
   26MOL0     H 3392   9.432   8.436   0.851 -1.6784 -0.3114 -0.4202
   26MOL0     H 3393   9.439   8.576   0.953 -1.3858  1.5054  1.0506
   26MOL0     H 3394   9.425   8.812   0.591  0.5811 -0.3964 -1.7184
   26MOL0     H 3395   9.629   8.911   0.545 -1.6860 -0.2357  0.7315
   26MOL0     H 3396  10.059   9.063   0.617  1.9860 -2.3604  1.3632
   26MOL0     H 3397  10.217   9.214   0.489  1.0552 -1.1708  1.5696
   26MOL0     H 3398  10.465   9.078   0.380 -0.6560  1.4527  4.2203
   26MOL0     H 3399  10.416   9.240   0.417 -0.7973 -0.2794 -1.5348
   26MOL0     H 3400  10.603   9.180   0.178  1.7523 -0.7509  1.5122
   26MOL0     H 3401  10.633   9.213   0.351 -1.8101 -2.0606  2.1983
   26MOL0     H 3402  10.480   9.428   0.320 -0.2747 -0.8689  0.5089
   26MOL0     H 3403  10.513   9.395   0.146  2.5979 -0.5714  0.1454
   26MOL0     H 3404  10.759   9.428   0.319 -0.1697 -0.4687 -0.5018
   26MOL0     H 3405  10.742   9.395   0.157  2.3483  0.9357  0.0651
   26MOL0     H 3406  10.603   9.612   0.122 -0.5385  0.9552  0.9837
   26MOL0     H 3407  10.770   9.631   0.128 -0.5810  1.8572 -2.5452
   26MOL0     H 3408  10.797   9.698   0.337 -0.7219 -0.8372  1.6612
   26MOL0     H 3409  10.628   9.658   0.388  1.7431  0.5623  2.4698
   26MOL0     H 3410  10.683   9.852   0.156 -1.5680 -1.6401 -1.1735
   26MOL0     H 3411  10.546   9.845   0.259 -0.7564  1.4462 -2.4490
   26MOL0     H 3412  10.683   9.932   0.455  0.7940  3.1727  0.3211
   26MOL0     H 3413  10.661  10.037   0.314  0.8868  1.0757  1.0078
   26MOL0     H 3414  10.200   8.941   0.158  2.7009 -2.1320  2.2037
   26MOL0     H 3415  10.004   8.831   0.259 -1.6859 -0.2453  1.5589
   26MOL0     H 3416   9.840   8.586   0.749  1.5446  1.4351 -2.4670
   26MOL0     H 3417   9.622   8.503   0.815 -2.4725  1.6574  2.4654
   26MOL0     H 3418   7.662   8.944   1.343  2.4392  1.4538  3.1025
   26MOL0     H 3419   7.438   8.969   1.335  4.8205 -3.7089  1.7084
   26MOL0     H 3420   7.077   9.338   1.229  1.6661 -0.7324 -0.0843
   26MOL0     H 3421   6.831   9.377   1.192 -1.3069 -0.8338  0.3566
   26MOL0     H 3422   6.644   9.393   1.205 -0.5440  0.1658 -0.0562
   26MOL0     H 3423   6.527   9.353   1.334  0.3840  1.1381  0.7254
   26MOL0     H 3424   6.494   9.234   1.066  0.8106  1.2170  0.2646
   26MOL0     H 3425   6.375   9.260   1.207 -0.3893  1.4102  0.2269
   26MOL0     H 3426   6.351   9.410   0.992 -1.2796 -0.2521 -0.1891
   26MOL0     H 3427   6.502   9.487   1.051  0.1828  0.4611  3.5374
   26MOL0     H 3428   6.256   9.426   1.218 -0.6342 -0.8737 -3.1746
   26MOL0     H 3429   6.395   9.535   1.260  1.0146  1.8815 -1.6639
   26MOL0     H 3430   6.182   9.781   1.025 -0.6439 -1.9924 -2.9643
   26MOL0     H 3431   6.762   8.987   1.357  3.7688 -3.2489 -0.5256
   26MOL0     H 3432   6.983   8.957   1.402 -3.2249 -0.5157  2.0895
   27MOL0     O 3433   1.660   0.338   4.584 -0.5535 -0.9040 -0.6201
   27MOL0     C 3434   1.730   0.348   4.687  1.1547 -0.1781  0.5261
   27MOL0     O 3435   1.725   0.443   4.781 -0.0033 -0.0135 -0.2716
   27MOL0     C 3436   1.633   0.545   4.783 -0.0871 -0.2542  0.1606
   27MOL0     C 3437   1.506   0.541   4.723 -0.3835  0.2525  0.2605
   27MOL0     C 3438   1.416   0.650   4.727 -0.5357  0.3516  0.5678
   27MOL0     C 3439   1.451   0.765   4.803  0.8702  0.5499 -0.1031
   27MOL0     O 3440   1.372   0.870   4.815 -0.3727 -0.3811  0.3884
   27MOL0     C 3441   1.234   0.857   4.777 -1.2178  0.2732 -0.0620
   27MOL0     C 3442   1.148   0.973   4.841 -0.3031 -0.5566  0.4435
   27MOL0     C 3443   1.002   0.957   4.797 -0.2041  0.1155  0.8292
   27MOL0     C 3444   0.902   1.062   4.840 -0.2113 -0.0734 -0.2011
   27MOL0     C 3445   0.750   1.013   4.845 -0.2048 -0.0970 -0.0930
   27MOL0     C 3446   0.670   1.139   4.871  0.0425 -0.2155 -0.4921
   27MOL0     C 3447   0.527   1.103   4.922  0.1438  0.2943 -0.2560
   27MOL0     C 3448   0.520   1.033   5.053  0.2021  0.2620  0.1270
   27MOL0     N 3449   0.424   1.098   5.146 -0.1680  0.0547 -0.0707
   27MOL0     C 3450   0.459   1.107   5.276  0.3551 -0.1819 -0.0516
   27MOL0     C 3451   0.339   1.127   5.342  0.8634  0.6772  0.0513
   27MOL0     C 3452   0.334   1.146   5.495  0.1581  0.3281  0.0222
   27MOL0     C 3453   0.385   1.011   5.557 -0.8951 -0.1854 -0.1208
   27MOL0     C 3454   0.318   0.895   5.487  0.8789 -0.0009 -0.2266
   27MOL0     C 3455   0.335   0.758   5.540  0.0304  0.1121 -0.4018
   27MOL0     O 3456   0.341   0.757   5.684  0.7480  0.3259  0.1473
   27MOL0     C 3457   0.461   0.743   5.746  0.4446  0.3126  0.4277
   27MOL0     C 3458   0.587   0.746   5.688 -0.1389 -0.1809  0.3338
   27MOL0     C 3459   0.702   0.695   5.755  0.4445 -0.5500 -0.4529
   27MOL0     C 3460   0.692   0.666   5.894 -0.1741  0.0142 -0.5356
   27MOL0     C 3461   0.812   0.609   5.962  0.1134 -0.4399 -1.1791
   27MOL0     O 3462   0.786   0.558   6.092  0.6681  0.6031  1.0530
   27MOL0     C 3463   0.870   0.455   6.130  0.2982  0.5035 -0.6465
   27MOL0     C 3464   0.879   0.337   6.053 -0.5198  0.5402  0.3784
   27MOL0     C 3465   0.960   0.234   6.107 -0.3234 -0.1973  1.3369
   27MOL0     C 3466   1.014   0.241   6.238 -0.4037 -0.7046 -0.1652
   27MOL0     O 3467   1.086   0.139   6.292 -0.8908 -0.2619 -0.2181
   27MOL0     C 3468   1.181   0.075   6.204  0.8062  0.2374  0.3241
   27MOL0     C 3469   1.276  -0.022   6.280  0.6688 -0.0970  1.2785
   27MOL0     C 3470   1.328  -0.128   6.189 -0.6922 -0.4180  0.4301
   27MOL0     C 3471   1.427  -0.209   6.264 -0.4511  0.1192 -0.7510
   27MOL0     C 3472   1.541  -0.284   6.187  0.1855 -0.5224  1.0258
   27MOL0     C 3473   1.608  -0.215   6.068 -0.2740 -0.5792  0.5988
   27MOL0     C 3474   1.744  -0.263   6.026  0.3589  0.0516  0.3772
   27MOL0     C 3475   1.856  -0.205   6.119  0.8777 -1.3223  0.5494
   27MOL0    Cl 3476   2.014  -0.240   6.032  0.2786  0.5416 -0.1195
   27MOL0     C 3477   1.006   0.358   6.309  0.4994 -0.0507  0.0054
   27MOL0     C 3478   0.929   0.462   6.259 -0.0541 -0.0627  0.5684
   27MOL0     O 3479   0.918   0.612   5.906 -0.6331 -0.4098  0.6684
   27MOL0     C 3480   0.566   0.682   5.960  0.1636  0.0679  0.5789
   27MOL0     C 3481   0.451   0.714   5.878 -0.4203  0.7389 -0.4234
   27MOL0     N 3482   0.239   1.121   5.242 -0.5026  0.8691  0.4702
   27MOL0     N 3483   0.291   1.108   5.132  0.1804  0.9482 -0.2262
   27MOL0     C 3484   1.566   0.756   4.876 -0.0696 -0.1588  0.4829
   27MOL0     C 3485   1.663   0.654   4.855  0.8397  0.1809 -0.1772
   27MOL0     C 3486   1.836   0.241   4.699  0.3879  0.5948 -0.6654
   27MOL0     C 3487   1.834   0.129   4.608  0.0725 -0.5410 -0.5622
   27MOL0     C 3488   1.931   0.029   4.622 -0.1802  0.3841  0.7227
   27MOL0     C 3489   2.037   0.031   4.722  0.1639 -0.5458  0.2360
   27MOL0     O 3490   2.140  -0.060   4.737  0.5789 -0.0971 -0.2705
   27MOL0     C 3491   2.159  -0.170   4.643 -0.6591  0.2446 -0.0747
   27MOL0     C 3492   2.233  -0.132   4.512  0.0850  0.3707  0.1936
   27MOL0     C 3493   2.208  -0.225   4.393  0.4619  0.1165 -0.3904
   27MOL0     C 3494   2.346  -0.276   4.353  0.0218  0.2626 -0.6920
   27MOL0     C 3495   2.390  -0.384   4.446  1.1697 -0.2335  0.1225
   27MOL0     C 3496   2.434  -0.472   4.514  0.0450 -0.4735 -1.4953
   27MOL0     C 3497   2.026   0.133   4.823 -0.1724 -1.2562 -0.7010
   27MOL0     C 3498   1.924   0.234   4.810  0.1153  0.8514 -0.7956
   27MOL0     H 3499   1.468   0.453   4.672  0.5303  0.7786 -1.4291
   27MOL0     H 3500   1.326   0.651   4.666 -0.6888  3.6317  0.7141
   27MOL0     H 3501   1.194   0.763   4.814 -1.4570 -0.1676 -1.3806
   27MOL0     H 3502   1.221   0.854   4.668  3.0958 -2.3071 -0.7507
   27MOL0     H 3503   1.187   1.071   4.814 -0.7986 -0.0164  1.5972
   27MOL0     H 3504   1.156   0.956   4.949  0.2254 -1.4207  0.2778
   27MOL0     H 3505   0.967   0.856   4.821  0.8984 -1.2722 -2.7177
   27MOL0     H 3506   0.997   0.967   4.688 -1.9752  1.7693  1.0181
   27MOL0     H 3507   0.926   1.093   4.942 -1.0945  0.7193 -0.2182
   27MOL0     H 3508   0.907   1.148   4.772 -2.1907  2.7058  2.8359
   27MOL0     H 3509   0.731   0.948   4.931 -0.6237  3.4017  2.6966
   27MOL0     H 3510   0.715   0.960   4.756 -2.2893 -0.7399  1.0478
   27MOL0     H 3511   0.661   1.204   4.783  2.6229  0.5103 -0.2979
   27MOL0     H 3512   0.703   1.205   4.951 -1.5514  1.0241 -0.8078
   27MOL0     H 3513   0.476   1.200   4.921  0.7157  0.6400 -2.9620
   27MOL0     H 3514   0.466   1.038   4.858 -1.3576 -2.3184  3.4547
   27MOL0     H 3515   0.616   1.039   5.107  0.3330 -0.2499 -0.0403
   27MOL0     H 3516   0.500   0.927   5.033  3.1821 -0.7796  1.8872
   27MOL0     H 3517   0.555   1.108   5.327  1.3406  1.8631 -1.8085
   27MOL0     H 3518   0.228   1.164   5.516 -0.1584 -0.6038 -0.6906
   27MOL0     H 3519   0.387   1.236   5.527  0.9227 -0.2032  0.2694
   27MOL0     H 3520   0.364   1.016   5.664  3.0493 -2.5271  0.9902
   27MOL0     H 3521   0.494   0.999   5.547 -0.6204  0.7926  1.4428
   27MOL0     H 3522   0.213   0.926   5.480  0.2398 -1.9131  0.5063
   27MOL0     H 3523   0.343   0.891   5.380 -0.6803  1.3613 -0.6938
   27MOL0     H 3524   0.422   0.701   5.507  1.5988  0.3452  2.8697
   27MOL0     H 3525   0.244   0.703   5.516 -1.9313  3.2368 -0.6935
   27MOL0     H 3526   0.596   0.776   5.584 -2.0160  4.2355  1.2211
   27MOL0     H 3527   0.797   0.688   5.702  0.2602  1.5734 -1.1990
   27MOL0     H 3528   0.818   0.341   5.963  0.0053 -0.4286 -0.0314
   27MOL0     H 3529   0.976   0.146   6.047  0.5234  1.3424 -0.8327
   27MOL0     H 3530   1.255   0.139   6.154  0.3393  1.3485  1.0271
   27MOL0     H 3531   1.134   0.033   6.114 -2.1863  3.6267  0.0518
   27MOL0     H 3532   1.206  -0.064   6.352  0.9135  2.0106  2.8312
   27MOL0     H 3533   1.356   0.036   6.326  0.7467  0.7467  0.1267
   27MOL0     H 3534   1.379  -0.078   6.106 -0.0682  0.2281  1.1850
   27MOL0     H 3535   1.246  -0.195   6.164 -0.4576 -2.0539  3.5732
   27MOL0     H 3536   1.474  -0.149   6.343  1.4216 -2.7775  0.5171
   27MOL0     H 3537   1.370  -0.280   6.325  1.6448 -0.1918  0.9646
   27MOL0     H 3538   1.492  -0.366   6.134  1.2094 -0.3883 -0.1497
   27MOL0     H 3539   1.613  -0.327   6.257  1.0215 -0.2882  0.3137
   27MOL0     H 3540   1.605  -0.112   6.105 -2.6642 -1.6692  3.9070
   27MOL0     H 3541   1.545  -0.221   5.978 -0.3152  1.1791  0.4856
   27MOL0     H 3542   1.751  -0.372   6.032  2.5938  0.2283  2.4201
   27MOL0     H 3543   1.765  -0.241   5.922  2.1512 -1.7774  0.2947
   27MOL0     H 3544   1.853  -0.262   6.212  0.8649 -0.4189  1.1114
   27MOL0     H 3545   1.845  -0.097   6.130 -0.1704 -1.2207 -1.1486
   27MOL0     H 3546   1.059   0.365   6.403 -0.2843 -4.1590  0.9484
   27MOL0     H 3547   0.912   0.550   6.320  1.6077  1.9057 -1.6397
   27MOL0     H 3548   0.543   0.645   6.060 -0.6224 -2.2706 -0.3921
   27MOL0     H 3549   0.350   0.707   5.918 -0.5365  1.7559 -0.5107
   27MOL0     H 3550   1.596   0.840   4.938 -0.4137  0.5861 -0.3386
   27MOL0     H 3551   1.761   0.664   4.901  0.4303  0.5364  0.6418
   27MOL0     H 3552   1.759   0.113   4.532 -1.3471  0.3153  0.5919
   27MOL0     H 3553   1.921  -0.051   4.550  0.0831  3.4134 -3.0150
   27MOL0     H 3554   2.063  -0.204   4.601 -0.2913 -0.9833  0.0377
   27MOL0     H 3555   2.218  -0.248   4.691  2.1841  1.7608 -0.8771
   27MOL0     H 3556   2.221  -0.031   4.472  5.7865  1.8837  1.4475
   27MOL0     H 3557   2.339  -0.126   4.536  1.0300 -0.3267 -3.2083
   27MOL0     H 3558   2.165  -0.162   4.315 -0.3889 -1.0956 -0.9248
   27MOL0     H 3559   2.149  -0.314   4.414  2.3406 -1.0504  0.1565
   27MOL0     H 3560   2.355  -0.321   4.254 -0.7103  2.6392 -1.9123
   27MOL0     H 3561   2.426  -0.203   4.355 -0.4884  0.8365 -0.9501
   27MOL0     H 3562   2.496  -0.533   4.576 -0.6622  0.4237  0.1713
   27MOL0     H 3563   2.097   0.133   4.905  0.7453  0.3914 -1.4385
   27MOL0     H 3564   1.926   0.311   4.887 -0.5060 -1.6519  1.8882
   28MOL0     O 3565   8.486   0.115   8.961  0.4074  0.0968 -0.2189
   28MOL0     C 3566   8.409   0.203   8.915 -0.5888  0.5536 -0.3452
   28MOL0     O 3567   8.450   0.297   8.824 -0.0270 -0.0566  0.0573
   28MOL0     C 3568   8.593   0.315   8.795  0.0999 -0.9480 -0.0658
   28MOL0     C 3569   8.655   0.281   8.669  0.2124 -0.6852  0.8326
   28MOL0     C 3570   8.795   0.269   8.662 -0.0772 -0.1263  0.0409
   28MOL0     C 3571   8.880   0.284   8.772  0.4735 -0.9099 -0.7289
   28MOL0     O 3572   9.016   0.284   8.768 -0.0796  0.4297  0.0943
   28MOL0     C 3573   9.054   0.176   8.683  0.1720  0.2867 -0.0459
   28MOL0     C 3574   9.205   0.135   8.704 -0.4894  0.9829  0.2211
   28MOL0     C 3575   9.300   0.242   8.650  0.0626 -0.1286 -0.3293
   28MOL0     C 3576   9.447   0.194   8.672  0.3224  0.4796  0.9384
   28MOL0     C 3577   9.545   0.292   8.612  0.5177 -0.3899 -0.0646
   28MOL0     C 3578   9.686   0.229   8.612 -0.2086  0.4779  0.0759
   28MOL0     C 3579   9.800   0.326   8.556  0.6597  0.7817  0.0748
   28MOL0     C 3580   9.916   0.249   8.480 -1.1802  0.7603 -0.0100
   28MOL0     N 3581   9.978   0.341   8.378 -0.4625  0.7793  0.0570
   28MOL0     C 3582  10.026   0.469   8.398 -0.5025  0.1702 -0.4593
   28MOL0     C 3583  10.069   0.507   8.281  0.6304 -0.0925  0.0914
   28MOL0     C 3584  10.110   0.641   8.249 -1.0057 -0.6900  0.3127
   28MOL0     C 3585  10.027   0.760   8.308 -0.3294  0.1558  0.6682
   28MOL0     C 3586   9.894   0.785   8.227 -0.5313  0.0377 -0.4116
   28MOL0     C 3587   9.826   0.658   8.184 -0.0359 -0.4535  0.0292
   28MOL0     O 3588   9.781   0.581   8.298 -0.5887  0.1698  0.4725
   28MOL0     C 3589   9.650   0.602   8.335  0.1481  0.7150  0.5708
   28MOL0     C 3590   9.621   0.678   8.447  0.3812 -0.1590  0.1165
   28MOL0     C 3591   9.493   0.695   8.487  0.6529  0.5333  0.2119
   28MOL0     C 3592   9.384   0.630   8.415  0.4360 -0.3388  1.4285
   28MOL0     C 3593   9.246   0.627   8.472 -0.2362  0.6473 -0.1256
   28MOL0     O 3594   9.138   0.645   8.386  0.2078 -0.7327  0.2215
   28MOL0     C 3595   9.010   0.656   8.434 -0.2510  0.0490 -0.8169
   28MOL0     C 3596   8.925   0.748   8.375 -0.2694  0.4792  0.7858
   28MOL0     C 3597   8.792   0.736   8.399  0.5975 -0.3679  0.8694
   28MOL0     C 3598   8.744   0.670   8.517  0.1665 -0.0847 -0.7158
   28MOL0     O 3599   8.618   0.687   8.565 -0.7749 -0.8418 -0.1844
   28MOL0     C 3600   8.511   0.742   8.491  0.7052 -0.9000 -0.0895
   28MOL0     C 3601   8.380   0.694   8.554 -1.1858  0.4827 -1.0032
   28MOL0     C 3602   8.261   0.746   8.472 -0.8821  0.6242  0.5053
   28MOL0     C 3603   8.118   0.694   8.509  0.7631  1.1345  0.4595
   28MOL0     C 3604   8.006   0.743   8.415 -0.2596 -0.3609 -1.2874
   28MOL0     C 3605   7.866   0.740   8.492 -1.0130 -0.2795 -0.1869
   28MOL0     C 3606   7.828   0.603   8.514 -0.5107  0.8871  0.0569
   28MOL0     C 3607   7.680   0.601   8.545  0.2630 -0.1271 -0.2506
   28MOL0    Cl 3608   7.649   0.427   8.544 -0.1901 -0.3833  0.2670
   28MOL0     C 3609   8.837   0.590   8.590 -0.0090 -0.8523 -0.8142
   28MOL0     C 3610   8.968   0.574   8.540 -0.0951 -0.1665 -0.9740
   28MOL0     O 3611   9.240   0.645   8.594  0.0783 -0.0506 -0.4162
   28MOL0     C 3612   9.418   0.542   8.306  0.7865 -0.8917  0.1230
   28MOL0     C 3613   9.549   0.534   8.266  0.2727  0.8568 -0.0215
   28MOL0     N 3614  10.059   0.403   8.189 -0.6212 -0.3716  0.3102
   28MOL0     N 3615  10.011   0.310   8.252  0.1280 -1.3035  0.8990
   28MOL0     C 3616   8.808   0.326   8.893 -1.4342  0.3834 -0.4389
   28MOL0     C 3617   8.674   0.345   8.903 -0.2162  0.5019  0.0073
   28MOL0     C 3618   8.275   0.214   8.966 -0.5280  0.1803 -0.4558
   28MOL0     C 3619   8.189   0.329   8.948 -0.6731 -0.7006 -0.3090
   28MOL0     C 3620   8.066   0.351   9.003 -0.1982 -0.0430  0.1810
   28MOL0     C 3621   8.017   0.245   9.079  0.5937  0.1244  0.6366
   28MOL0     O 3622   7.897   0.256   9.142  0.0625 -0.3971  0.1835
   28MOL0     C 3623   7.791   0.338   9.093 -0.0392 -0.9552  1.0917
   28MOL0     C 3624   7.668   0.322   9.176  0.9325  0.4635  0.5954
   28MOL0     C 3625   7.549   0.412   9.147  0.1629 -0.1367  0.0673
   28MOL0     C 3626   7.559   0.545   9.224  0.0083  0.2027 -0.0185
   28MOL0     C 3627   7.462   0.645   9.179 -0.0283 -0.7357  0.1481
   28MOL0     C 3628   7.378   0.729   9.155 -0.5362  0.0334  0.1703
   28MOL0     C 3629   8.097   0.131   9.098 -0.3858 -0.1193 -0.0249
   28MOL0     C 3630   8.223   0.105   9.039 -0.4842 -0.8964 -0.0682
   28MOL0     H 3631   8.594   0.259   8.582 -2.6439  1.9147  1.9741
   28MOL0     H 3632   8.838   0.242   8.566 -0.8813 -2.3866  0.2693
   28MOL0     H 3633   9.035   0.202   8.578 -0.9269 -0.5862 -0.0794
   28MOL0     H 3634   8.998   0.089   8.718  1.5474  0.1548  1.9510
   28MOL0     H 3635   9.216   0.037   8.655  1.8700  1.9493 -1.3198
   28MOL0     H 3636   9.215   0.121   8.813  1.8705 -4.6235 -0.3522
   28MOL0     H 3637   9.289   0.331   8.713  0.4419  0.0466 -0.5130
   28MOL0     H 3638   9.290   0.263   8.543  1.3861 -4.2434 -1.4356
   28MOL0     H 3639   9.481   0.180   8.775  3.2770  0.3771  0.0510
   28MOL0     H 3640   9.453   0.099   8.618  1.1947  0.2527  1.4109
   28MOL0     H 3641   9.537   0.384   8.671 -0.5447 -1.4006  1.4507
   28MOL0     H 3642   9.516   0.308   8.508  2.4317  0.9818 -0.4462
   28MOL0     H 3643   9.690   0.140   8.548  0.6054 -0.6312  1.6328
   28MOL0     H 3644   9.715   0.199   8.713 -0.0443  2.6856  0.7334
   28MOL0     H 3645   9.749   0.382   8.478 -5.3142 -2.1620  1.3008
   28MOL0     H 3646   9.835   0.394   8.634  1.9622 -1.0620  1.1968
   28MOL0     H 3647   9.888   0.168   8.411  4.1017 -0.0230 -1.6933
   28MOL0     H 3648   9.989   0.216   8.555 -1.2321  0.6521 -0.0073
   28MOL0     H 3649  10.024   0.511   8.498 -0.9861 -0.4364 -0.2067
   28MOL0     H 3650  10.113   0.648   8.140 -0.3174 -0.7209  0.3216
   28MOL0     H 3651  10.214   0.661   8.277 -1.1255  2.9047 -1.2788
   28MOL0     H 3652  10.079   0.856   8.310  1.2065 -0.5735 -0.9327
   28MOL0     H 3653   9.994   0.739   8.410 -2.2298  1.3132  0.3451
   28MOL0     H 3654   9.821   0.842   8.286 -0.9822  1.6496 -2.4058
   28MOL0     H 3655   9.918   0.842   8.136 -1.3503  3.0864  1.1432
   28MOL0     H 3656   9.891   0.604   8.114 -3.9144  0.2383 -4.6711
   28MOL0     H 3657   9.730   0.693   8.143 -1.3926 -3.2566  0.6196
   28MOL0     H 3658   9.712   0.714   8.495  3.6160 -2.9632 -3.3166
   28MOL0     H 3659   9.470   0.753   8.576 -0.9149  3.4380 -1.9355
   28MOL0     H 3660   8.971   0.817   8.304 -1.5012  0.1801 -0.3395
   28MOL0     H 3661   8.726   0.796   8.338  0.3742 -2.0793 -0.6740
   28MOL0     H 3662   8.517   0.693   8.394  2.5665 -2.2910  0.6639
   28MOL0     H 3663   8.501   0.851   8.492  0.3587 -0.8440  3.4438
   28MOL0     H 3664   8.370   0.740   8.652  1.8099 -0.5894 -0.0604
   28MOL0     H 3665   8.374   0.588   8.580  3.6883  0.5003  1.4012
   28MOL0     H 3666   8.281   0.724   8.366  0.8346 -3.0427  1.4513
   28MOL0     H 3667   8.258   0.855   8.481 -0.1019  0.6751  0.2488
   28MOL0     H 3668   8.121   0.585   8.505  1.0510  1.1044  1.3404
   28MOL0     H 3669   8.099   0.729   8.611 -2.7447  2.1741 -0.3915
   28MOL0     H 3670   8.002   0.697   8.315 -1.1670 -0.5611 -1.1710
   28MOL0     H 3671   8.023   0.848   8.391  0.2374  0.7350  3.0784
   28MOL0     H 3672   7.785   0.785   8.434 -1.5033 -1.0002 -0.0735
   28MOL0     H 3673   7.881   0.795   8.585 -0.2232 -0.2372 -0.3259
   28MOL0     H 3674   7.867   0.541   8.433  2.6880  1.3346  1.1054
   28MOL0     H 3675   7.884   0.571   8.602 -0.4336 -1.9732 -0.9177
   28MOL0     H 3676   7.624   0.657   8.470 -0.6915 -1.6716 -0.7503
   28MOL0     H 3677   7.657   0.639   8.645 -0.9926 -0.6606 -0.3151
   28MOL0     H 3678   8.804   0.532   8.676 -4.7010  0.0071 -1.7424
   28MOL0     H 3679   9.017   0.493   8.593 -2.9387 -1.4181 -0.0740
   28MOL0     H 3680   9.337   0.493   8.252 -1.7960  2.9719  0.1087
   28MOL0     H 3681   9.593   0.478   8.185 -0.5309  0.4961 -0.2134
   28MOL0     H 3682   8.873   0.348   8.977 -1.3027 -1.3135 -0.0679
   28MOL0     H 3683   8.624   0.375   8.995  1.7384 -1.7860  1.9507
   28MOL0     H 3684   8.231   0.415   8.896 -0.9597 -0.3070  0.1035
   28MOL0     H 3685   8.026   0.449   8.982  0.5015  0.1632 -0.2474
   28MOL0     H 3686   7.761   0.292   8.998  1.8031 -3.0904  1.4527
   28MOL0     H 3687   7.813   0.445   9.090 -0.8584 -0.7841 -0.7901
   28MOL0     H 3688   7.627   0.221   9.165  2.2110 -1.0445  6.0798
   28MOL0     H 3689   7.701   0.334   9.280 -0.1468 -2.8845  1.4506
   28MOL0     H 3690   7.473   0.359   9.204  2.0590 -0.2741  2.6238
   28MOL0     H 3691   7.529   0.429   9.041 -0.2188  1.2658  0.3530
   28MOL0     H 3692   7.539   0.530   9.330  2.5114  0.8454  0.6011
   28MOL0     H 3693   7.660   0.586   9.215 -0.2263  1.3528  2.0728
   28MOL0     H 3694   7.315   0.815   9.137  0.6281  0.6623 -1.0552
   28MOL0     H 3695   8.057   0.056   9.165 -1.3978  1.3203  1.0521
   28MOL0     H 3696   8.285   0.019   9.062  2.4550  0.2582 -2.8211
   29MOL0     O 3697   5.500   3.999   3.703 -0.2937 -0.9135 -0.2436
   29MOL0     C 3698   5.627   4.009   3.684  1.5768 -0.1249 -0.8336
   29MOL0     O 3699   5.690   4.117   3.642 -0.8439 -0.3465 -0.7665
   29MOL0     C 3700   5.625   4.231   3.608 -0.6191  0.3430  0.4278
   29MOL0     C 3701   5.654   4.362   3.668  0.4322  0.5863 -0.5909
   29MOL0     C 3702   5.580   4.474   3.643 -0.7653  0.3595  0.2826
   29MOL0     C 3703   5.483   4.468   3.537 -0.0537 -0.2253  0.6830
   29MOL0     O 3704   5.418   4.574   3.485 -0.8234 -0.4667 -0.1119
   29MOL0     C 3705   5.372   4.669   3.578 -0.6432  0.9215  0.2023
   29MOL0     C 3706   5.229   4.625   3.617 -0.2361 -0.3244 -0.0243
   29MOL0     C 3707   5.157   4.724   3.711  0.2281  0.0318 -0.4081
   29MOL0     C 3708   5.001   4.696   3.724  0.2558 -0.6850 -1.1288
   29MOL0     C 3709   4.940   4.833   3.755  0.4033  0.3108  0.5455
   29MOL0     C 3710   4.787   4.830   3.785  0.3349  0.4405 -0.8383
   29MOL0     C 3711   4.732   4.967   3.818  0.1823  0.1300  1.0085
   29MOL0     C 3712   4.725   5.067   3.708 -0.2079 -0.3584 -0.1271
   29MOL0     N 3713   4.609   5.158   3.728 -0.4286 -0.1869 -0.0860
   29MOL0     C 3714   4.617   5.295   3.731  0.3277  0.5280  0.5011
   29MOL0     C 3715   4.488   5.335   3.701 -0.1203  0.7276 -0.4441
   29MOL0     C 3716   4.452   5.480   3.702  0.1151  0.1887 -0.0649
   29MOL0     C 3717   4.318   5.498   3.632 -0.2939 -0.5969 -1.1513
   29MOL0     C 3718   4.195   5.491   3.728 -0.4881 -0.8183  0.8475
   29MOL0     C 3719   4.070   5.494   3.647  0.0630 -0.0964  0.3694
   29MOL0     O 3720   3.954   5.456   3.727 -1.0112 -0.4454  0.6021
   29MOL0     C 3721   3.827   5.463   3.667 -0.1243  0.3082  0.0093
   29MOL0     C 3722   3.794   5.532   3.549  0.2938  0.4272 -1.4467
   29MOL0     C 3723   3.668   5.528   3.497 -0.1346 -1.7999  0.5603
   29MOL0     C 3724   3.558   5.487   3.580 -0.6505  0.0117 -0.0984
   29MOL0     C 3725   3.418   5.494   3.537  0.4954 -0.0818 -0.4203
   29MOL0     O 3726   3.326   5.484   3.638  0.2616  0.4291  0.2831
   29MOL0     C 3727   3.187   5.479   3.621 -0.5379 -0.5947 -0.0314
   29MOL0     C 3728   3.118   5.401   3.716  0.2115  0.1266  0.2534
   29MOL0     C 3729   2.982   5.380   3.704  0.5092  0.1207 -0.1711
   29MOL0     C 3730   2.905   5.446   3.610 -0.4449 -0.7670  1.1170
   29MOL0     O 3731   2.773   5.438   3.614  0.8520 -0.6267 -0.5233
   29MOL0     C 3732   2.699   5.560   3.628  0.3139  0.2864  0.1883
   29MOL0     C 3733   2.558   5.527   3.603 -0.1553  0.2863  0.5341
   29MOL0     C 3734   2.484   5.456   3.718 -0.0820  0.1753 -0.0443
   29MOL0     C 3735   2.335   5.440   3.694 -0.5845 -0.1546  0.6761
   29MOL0     C 3736   2.251   5.396   3.810 -0.1029 -0.1546 -0.7541
   29MOL0     C 3737   2.112   5.460   3.819  0.1823  0.3487 -0.1340
   29MOL0     C 3738   2.044   5.396   3.939  0.2676  0.2137  0.5220
   29MOL0     C 3739   1.906   5.450   3.959 -0.3525  0.6307  0.2743
   29MOL0    Cl 3740   1.808   5.370   4.088  0.3209  0.1428 -0.0169
   29MOL0     C 3741   2.979   5.529   3.515  0.6265  0.9228 -0.6890
   29MOL0     C 3742   3.121   5.540   3.519 -0.1286 -0.1927 -0.9918
   29MOL0     O 3743   3.385   5.492   3.420 -0.2398  0.5671 -0.0398
   29MOL0     C 3744   3.586   5.434   3.706  0.3439 -0.6784  0.1932
   29MOL0     C 3745   3.712   5.416   3.746  0.3268  0.3089 -0.2318
   29MOL0     N 3746   4.409   5.225   3.690 -0.1443  0.6657  0.6952
   29MOL0     N 3747   4.484   5.120   3.701 -1.0289 -0.5883 -0.0713
   29MOL0     C 3748   5.453   4.348   3.476  0.2260  0.7807  0.2199
   29MOL0     C 3749   5.527   4.237   3.510  0.0423 -0.2472  1.1476
   29MOL0     C 3750   5.719   3.892   3.718  0.3527 -0.1176 -0.6319
   29MOL0     C 3751   5.680   3.805   3.824 -0.6006  0.3341 -0.8003
   29MOL0     C 3752   5.763   3.703   3.874  1.2543  0.7337  0.1113
   29MOL0     C 3753   5.875   3.673   3.792  0.5304 -0.7392  0.1347
   29MOL0     O 3754   5.959   3.569   3.813  0.2759 -0.2141 -0.1334
   29MOL0     C 3755   5.935   3.466   3.905  0.0711  0.2294 -0.1158
   29MOL0     C 3756   5.975   3.485   4.055  1.1552  0.6496  0.1496
   29MOL0     C 3757   6.100   3.561   4.071 -0.4969 -0.3125 -0.2813
   29MOL0     C 3758   6.138   3.590   4.215  1.6815  0.2876  0.3059
   29MOL0     C 3759   6.146   3.468   4.302 -1.0262  0.3673  0.7795
   29MOL0     C 3760   6.145   3.384   4.384  0.5741 -0.8111  0.2683
   29MOL0     C 3761   5.921   3.762   3.693  0.6074 -0.6512  0.0837
   29MOL0     C 3762   5.837   3.869   3.650  0.0112  1.1635 -1.2505
   29MOL0     H 3763   5.728   4.364   3.748 -0.1424 -2.9084  0.1848
   29MOL0     H 3764   5.597   4.566   3.697  1.0990  0.7987 -0.9512
   29MOL0     H 3765   5.391   4.767   3.532  0.0169  0.6463 -0.1286
   29MOL0     H 3766   5.433   4.670   3.669  0.4710 -0.2483 -0.5024
   29MOL0     H 3767   5.220   4.522   3.654 -1.6002 -0.4863 -0.7399
   29MOL0     H 3768   5.172   4.636   3.524 -0.6568  1.2738  0.3922
   29MOL0     H 3769   5.175   4.828   3.682 -0.8887  0.6367  0.9481
   29MOL0     H 3770   5.196   4.729   3.813  0.1394 -0.8512 -0.3250
   29MOL0     H 3771   4.962   4.653   3.631 -0.4026 -0.6478 -0.8739
   29MOL0     H 3772   4.980   4.623   3.803 -3.8768  3.1112  1.7585
   29MOL0     H 3773   4.961   4.892   3.665 -1.1028  1.6595  1.0169
   29MOL0     H 3774   4.995   4.881   3.836 -0.3368  3.4512 -0.6402
   29MOL0     H 3775   4.766   4.775   3.877 -3.0958  1.4735 -0.8532
   29MOL0     H 3776   4.725   4.783   3.709  0.2736 -0.1371 -0.4366
   29MOL0     H 3777   4.638   4.947   3.869 -0.1345 -0.2965  0.2784
   29MOL0     H 3778   4.799   5.008   3.894  0.8246 -0.6105  0.8613
   29MOL0     H 3779   4.709   5.008   3.617 -1.7008  1.2201 -0.9600
   29MOL0     H 3780   4.820   5.120   3.695 -1.3407  1.1969 -3.2175
   29MOL0     H 3781   4.706   5.358   3.733  0.5019  0.5234 -2.3832
   29MOL0     H 3782   4.519   5.540   3.641 -2.9616  0.2320 -3.7907
   29MOL0     H 3783   4.455   5.515   3.806  0.0793 -0.7108  0.2478
   29MOL0     H 3784   4.308   5.436   3.542  1.1455  1.5237 -2.8796
   29MOL0     H 3785   4.315   5.600   3.593  1.5546 -0.9760 -2.4365
   29MOL0     H 3786   4.197   5.399   3.787  0.7270 -3.4700 -2.9283
   29MOL0     H 3787   4.186   5.577   3.795 -1.6220  0.7433 -1.2150
   29MOL0     H 3788   4.078   5.436   3.555  0.5533  2.0309 -0.9917
   29MOL0     H 3789   4.055   5.601   3.634 -1.9290 -0.1204  1.9798
   29MOL0     H 3790   3.874   5.569   3.486  0.0470  0.3303 -1.8181
   29MOL0     H 3791   3.658   5.587   3.406 -1.8766  0.2390  1.9603
   29MOL0     H 3792   3.168   5.348   3.796  0.1366 -0.5725 -0.1595
   29MOL0     H 3793   2.928   5.310   3.766 -1.0464 -1.5448 -3.1675
   29MOL0     H 3794   2.740   5.626   3.551  2.6695 -0.4193  0.7544
   29MOL0     H 3795   2.715   5.593   3.731  3.3049 -0.9673  0.2183
   29MOL0     H 3796   2.555   5.467   3.511  0.7998 -3.8043  2.9471
   29MOL0     H 3797   2.503   5.621   3.588 -0.6475  0.2908  2.1625
   29MOL0     H 3798   2.478   5.515   3.809 -4.3973 -1.2668  0.8396
   29MOL0     H 3799   2.530   5.360   3.745 -0.2158  0.6051  1.8402
   29MOL0     H 3800   2.295   5.539   3.670 -0.6288 -0.5890 -1.2459
   29MOL0     H 3801   2.306   5.375   3.611 -2.7000 -0.4320  1.5733
   29MOL0     H 3802   2.294   5.420   3.907 -1.7399  2.2882 -0.5484
   29MOL0     H 3803   2.238   5.287   3.801  0.5275 -0.0686 -3.8379
   29MOL0     H 3804   2.055   5.441   3.728  1.2737 -0.4261 -0.6745
   29MOL0     H 3805   2.135   5.566   3.835  3.2457 -0.2110 -0.1202
   29MOL0     H 3806   2.049   5.287   3.929 -1.2142  0.2654 -1.3207
   29MOL0     H 3807   2.089   5.424   4.035 -1.9217 -2.7512  2.6183
   29MOL0     H 3808   1.863   5.418   3.864  0.8999  0.7671 -0.3551
   29MOL0     H 3809   1.900   5.559   3.959  0.0948  0.6715  1.2994
   29MOL0     H 3810   2.918   5.587   3.446 -1.5644  0.6235  0.8675
   29MOL0     H 3811   3.174   5.600   3.445  0.0021  0.3269 -0.4871
   29MOL0     H 3812   3.511   5.386   3.768  0.7346 -3.2946 -1.2021
   29MOL0     H 3813   3.756   5.382   3.839  0.2616  1.0077  0.0587
   29MOL0     H 3814   5.378   4.348   3.398  1.8459  1.7588 -1.4246
   29MOL0     H 3815   5.496   4.151   3.451  1.2816  0.2620 -0.2987
   29MOL0     H 3816   5.584   3.819   3.873 -0.2338  0.2092 -0.0363
   29MOL0     H 3817   5.727   3.643   3.957 -3.8172  3.7301  0.4902
   29MOL0     H 3818   6.003   3.388   3.870 -1.8970 -0.1821 -3.5350
   29MOL0     H 3819   5.830   3.435   3.897  0.6378 -2.4462  1.7725
   29MOL0     H 3820   5.903   3.551   4.104 -0.9366 -1.8262  0.6304
   29MOL0     H 3821   5.977   3.390   4.109  0.1546  1.1753  1.1520
   29MOL0     H 3822   6.104   3.658   4.020  2.7021  0.1157  0.5265
   29MOL0     H 3823   6.187   3.511   4.027  1.3737  1.5979  1.0182
   29MOL0     H 3824   6.228   3.651   4.210  1.2382  0.9446  0.2966
   29MOL0     H 3825   6.064   3.646   4.274  1.7886 -1.5860  2.3936
   29MOL0     H 3826   6.138   3.324   4.472 -2.4676  1.0437  1.4409
   29MOL0     H 3827   6.020   3.739   3.652  1.7808  3.0269  0.4889
   29MOL0     H 3828   5.877   3.926   3.566 -1.6190 -0.2664 -3.1089
   30MOL0     O 3829   0.998   0.362   4.506 -0.3940  0.2386 -0.1990
   30MOL0     C 3830   0.955   0.338   4.396 -0.2409 -0.0376  0.2668
   30MOL0     O 3831   1.015   0.367   4.270 -0.6306 -2.1111 -0.1638
   30MOL0     C 3832   1.151   0.391   4.263 -0.0780  0.3553 -0.2443
   30MOL0     C 3833   1.197   0.448   4.139  1.3406  0.2819  0.0006
   30MOL0     C 3834   1.336   0.448   4.110 -0.5750  0.2831  0.7496
   30MOL0     C 3835   1.434   0.416   4.212 -0.8213 -0.6502 -0.4992
   30MOL0     O 3836   1.566   0.436   4.166 -0.4067  0.2095 -0.2489
   30MOL0     C 3837   1.666   0.391   4.262  0.6339  0.3459 -0.0753
   30MOL0     C 3838   1.810   0.424   4.217 -0.2872  0.8369  0.9921
   30MOL0     C 3839   1.890   0.405   4.350 -0.2513  0.3674  0.3481
   30MOL0     C 3840   2.037   0.433   4.320 -0.0915  0.2245 -0.2841
   30MOL0     C 3841   2.120   0.537   4.403  0.5479 -1.0078  0.7488
   30MOL0     C 3842   2.075   0.548   4.553  0.2799  0.0751 -0.1044
   30MOL0     C 3843   2.183   0.622   4.635  0.4595 -0.0198 -0.3866
   30MOL0     C 3844   2.145   0.652   4.779 -0.1900 -0.2926  0.4189
   30MOL0     N 3845   2.253   0.711   4.856 -0.2496 -0.0287 -0.5552
   30MOL0     C 3846   2.245   0.734   4.986  0.0246 -0.1104 -0.6233
   30MOL0     C 3847   2.371   0.783   5.024  0.2536 -0.5790  0.5943
   30MOL0     C 3848   2.417   0.828   5.152 -0.3847  1.0320 -0.4614
   30MOL0     C 3849   2.550   0.914   5.142  0.3886  0.6780 -0.3364
   30MOL0     C 3850   2.591   0.970   5.284  1.1138  0.1017 -0.4160
   30MOL0     C 3851   2.703   1.077   5.274  0.4220 -0.0569  0.7751
   30MOL0     O 3852   2.740   1.109   5.407 -0.0591  0.3583 -0.3009
   30MOL0     C 3853   2.657   1.181   5.499  0.4114  0.4290 -0.1487
   30MOL0     C 3854   2.640   1.317   5.478  0.6741  0.8146  0.0760
   30MOL0     C 3855   2.548   1.390   5.561  0.6272  0.7745 -0.2175
   30MOL0     C 3856   2.475   1.317   5.671 -0.7022 -0.7503  0.5214
   30MOL0     C 3857   2.375   1.388   5.755 -0.2051  0.3514 -0.5785
   30MOL0     O 3858   2.298   1.307   5.831  0.5427  0.4989  0.0691
   30MOL0     C 3859   2.189   1.371   5.880 -0.4757  0.2287  0.8621
   30MOL0     C 3860   2.073   1.392   5.806 -0.2214 -0.5787  0.8046
   30MOL0     C 3861   1.957   1.439   5.871  1.2632 -0.3247 -0.7257
   30MOL0     C 3862   1.962   1.470   6.010 -0.0564  0.2190  0.6044
   30MOL0     O 3863   1.842   1.520   6.057 -0.1791  0.5409  0.3056
   30MOL0     C 3864   1.829   1.568   6.186 -0.2684 -0.5926 -0.7021
   30MOL0     C 3865   1.806   1.461   6.287  0.5816  0.6758  0.2152
   30MOL0     C 3866   1.693   1.363   6.240 -0.7792  0.2710  0.0149
   30MOL0     C 3867   1.561   1.414   6.177  0.2031  0.0704  0.0598
   30MOL0     C 3868   1.460   1.307   6.150  0.3351 -0.2461 -0.5218
   30MOL0     C 3869   1.348   1.360   6.067 -0.6352 -0.3329  0.5084
   30MOL0     C 3870   1.244   1.260   6.017 -0.0016  0.0206 -0.1344
   30MOL0     C 3871   1.122   1.333   5.972  0.2320 -0.7349  0.6622
   30MOL0    Cl 3872   1.147   1.467   5.851  0.1007 -0.2329  0.4844
   30MOL0     C 3873   2.082   1.450   6.077  0.1064  0.2937 -0.4174
   30MOL0     C 3874   2.192   1.393   6.008 -0.4994 -1.0086  0.2658
   30MOL0     O 3875   2.353   1.507   5.726  0.6382 -0.8912 -0.1419
   30MOL0     C 3876   2.506   1.183   5.689  0.2872 -1.1823 -0.7042
   30MOL0     C 3877   2.590   1.112   5.602 -0.0612  0.1752 -0.2842
   30MOL0     N 3878   2.443   0.780   4.907  0.7295  0.4816 -0.5237
   30MOL0     N 3879   2.375   0.728   4.810  0.1128 -0.9341 -0.8373
   30MOL0     C 3880   1.389   0.377   4.340 -0.1224  0.2763 -0.1510
   30MOL0     C 3881   1.249   0.356   4.358 -0.3445  0.0258  0.3095
   30MOL0     C 3882   0.819   0.283   4.391 -0.9134 -0.5794  0.9327
   30MOL0     C 3883   0.740   0.267   4.501 -0.1334 -0.1394 -0.1790
   30MOL0     C 3884   0.614   0.213   4.496 -0.0605 -1.3610  0.5367
   30MOL0     C 3885   0.560   0.169   4.379 -0.5159 -0.0669  0.5483
   30MOL0     O 3886   0.440   0.097   4.364 -0.4044  0.3229  0.6744
   30MOL0     C 3887   0.410   0.025   4.479  0.7702 -0.5421 -0.6437
   30MOL0     C 3888   0.280  -0.064   4.435  0.0295 -1.0251 -0.7517
   30MOL0     C 3889   0.170   0.017   4.369  0.2313 -0.3278 -0.4395
   30MOL0     C 3890   0.051  -0.081   4.340  0.2723 -0.3996 -0.1950
   30MOL0     C 3891  -0.047  -0.020   4.258 -0.3731 -0.1749  0.1335
   30MOL0     C 3892  -0.126   0.016   4.173  0.1536 -0.5712  0.7045
   30MOL0     C 3893   0.638   0.186   4.262 -0.3742 -1.1256 -0.4439
   30MOL0     C 3894   0.760   0.249   4.263 -0.2700 -0.3995 -0.1177
   30MOL0     H 3895   1.117   0.462   4.067 -0.1998 -0.9008  1.3838
   30MOL0     H 3896   1.373   0.481   4.013  0.6022 -0.6012  0.8769
   30MOL0     H 3897   1.645   0.284   4.275 -0.6928  0.6431  0.4581
   30MOL0     H 3898   1.654   0.451   4.353 -2.7243 -1.9485  1.2231
   30MOL0     H 3899   1.822   0.528   4.188  1.6720  0.3140 -0.3047
   30MOL0     H 3900   1.838   0.348   4.142 -0.5550 -1.5407  3.1484
   30MOL0     H 3901   1.895   0.303   4.387 -0.3556  0.1952 -0.1056
   30MOL0     H 3902   1.864   0.482   4.423 -1.8101  0.1928  0.0076
   30MOL0     H 3903   2.086   0.337   4.334 -1.9751 -0.3157  3.6227
   30MOL0     H 3904   2.049   0.451   4.212  2.4024 -0.0845 -0.1114
   30MOL0     H 3905   2.099   0.637   4.362  4.9443 -0.1113  0.1615
   30MOL0     H 3906   2.226   0.512   4.396  0.7717  0.3102 -1.8240
   30MOL0     H 3907   2.077   0.446   4.590 -1.9685 -0.2295 -0.6959
   30MOL0     H 3908   1.980   0.598   4.573  0.2353  0.3926 -1.0516
   30MOL0     H 3909   2.278   0.568   4.631  0.1506 -0.7885  1.4560
   30MOL0     H 3910   2.196   0.724   4.597  0.7508 -0.5031 -1.6246
   30MOL0     H 3911   2.107   0.566   4.835 -0.1743  0.0189  0.9117
   30MOL0     H 3912   2.069   0.730   4.776  0.9091  0.7898 -0.3468
   30MOL0     H 3913   2.153   0.723   5.042 -0.3517 -0.2419 -1.2537
   30MOL0     H 3914   2.433   0.736   5.209  0.4156  2.2661  1.4115
   30MOL0     H 3915   2.341   0.869   5.218 -1.3225 -2.6090  0.9793
   30MOL0     H 3916   2.531   1.001   5.080 -0.2559  0.7667 -0.0213
   30MOL0     H 3917   2.635   0.865   5.093 -0.1611  0.8582 -1.4805
   30MOL0     H 3918   2.504   1.015   5.333 -1.5293 -2.9134 -1.9337
   30MOL0     H 3919   2.609   0.888   5.354  2.7144  0.5235 -0.2992
   30MOL0     H 3920   2.673   1.160   5.209  1.2755  1.4439  2.2018
   30MOL0     H 3921   2.790   1.041   5.218  0.5628  1.4464 -0.0291
   30MOL0     H 3922   2.685   1.360   5.389 -0.6445 -0.6814 -1.3762
   30MOL0     H 3923   2.522   1.489   5.527 -0.1834  0.0955 -1.6940
   30MOL0     H 3924   2.075   1.356   5.704  1.3018 -0.5387  0.7873
   30MOL0     H 3925   1.867   1.441   5.812 -0.2359 -1.0222  1.3958
   30MOL0     H 3926   1.744   1.637   6.193 -0.1425 -0.5891  1.3511
   30MOL0     H 3927   1.911   1.634   6.216 -2.1599  1.4510  0.2350
   30MOL0     H 3928   1.785   1.485   6.392 -1.4621  0.0278 -0.0131
   30MOL0     H 3929   1.899   1.403   6.288 -0.9537 -2.2709 -3.5775
   30MOL0     H 3930   1.654   1.313   6.329  2.6257  1.0059  2.0772
   30MOL0     H 3931   1.738   1.292   6.170  0.7356  0.8111  0.4191
   30MOL0     H 3932   1.505   1.491   6.232 -0.8960  0.4183 -1.4805
   30MOL0     H 3933   1.583   1.444   6.074  3.0231  2.3543  1.1785
   30MOL0     H 3934   1.421   1.272   6.246  3.5342 -1.0121  0.6035
   30MOL0     H 3935   1.509   1.226   6.096 -1.3451 -0.1903 -2.2216
   30MOL0     H 3936   1.391   1.398   5.974 -2.8470  1.5158  0.1436
   30MOL0     H 3937   1.296   1.446   6.109 -1.0124  0.4112 -1.3775
   30MOL0     H 3938   1.271   1.207   5.925  0.0894  0.7797 -0.5485
   30MOL0     H 3939   1.220   1.183   6.091 -0.4124  0.9442  0.7146
   30MOL0     H 3940   1.085   1.375   6.066  0.3002 -1.8655  1.2021
   30MOL0     H 3941   1.041   1.266   5.942 -0.2961  0.0299  0.3378
   30MOL0     H 3942   2.089   1.459   6.185  2.5673 -3.5835 -0.0561
   30MOL0     H 3943   2.284   1.379   6.062 -0.8121 -0.8979  0.8326
   30MOL0     H 3944   2.468   1.122   5.771  0.3570 -1.3079 -0.7646
   30MOL0     H 3945   2.624   1.011   5.625 -1.6166 -0.1720  0.6424
   30MOL0     H 3946   1.463   0.346   4.413 -1.3090 -1.3002  0.4335
   30MOL0     H 3947   1.218   0.314   4.454 -0.4659 -0.8082 -0.0842
   30MOL0     H 3948   0.777   0.307   4.595  4.3967 -2.2945 -0.7635
   30MOL0     H 3949   0.561   0.202   4.589  0.6024 -2.6473  0.7813
   30MOL0     H 3950   0.384   0.098   4.556 -0.5469 -1.7523  0.1032
   30MOL0     H 3951   0.488  -0.047   4.507  0.1599 -1.1315 -0.4294
   30MOL0     H 3952   0.326  -0.134   4.365 -1.0783 -1.6003 -0.9063
   30MOL0     H 3953   0.238  -0.121   4.518  0.8109 -0.2514  0.2123
   30MOL0     H 3954   0.216   0.050   4.276  0.3930  2.0728  0.4187
   30MOL0     H 3955   0.149   0.105   4.431 -1.7638  0.3337 -1.9746
   30MOL0     H 3956   0.097  -0.159   4.280  2.0275  2.1645 -2.4080
   30MOL0     H 3957   0.003  -0.106   4.435  1.2198 -0.3956  0.2940
   30MOL0     H 3958  -0.201   0.039   4.100 -1.3719 -2.1702  1.6870
   30MOL0     H 3959   0.589   0.160   4.168 -0.5767 -2.8671  0.1050
   30MOL0     H 3960   0.820   0.253   4.172  4.7874 -0.9742  2.8010
   31MOL0     O 3961   9.191   6.462   3.324 -0.1334 -0.5099 -0.5242
   31MOL0     C 3962   9.278   6.509   3.400  0.9889 -0.0870  0.3371
   31MOL0     O 3963   9.263   6.558   3.520  0.5029 -0.1588  0.0845
   31MOL0     C 3964   9.136   6.560   3.565 -0.1070 -0.3164 -0.3390
   31MOL0     C 3965   9.047   6.658   3.532  1.0627  0.3321  0.2384
   31MOL0     C 3966   8.909   6.643   3.578  0.3336 -0.3976  0.2589
   31MOL0     C 3967   8.871   6.539   3.664 -0.1358 -0.2088  0.1393
   31MOL0     O 3968   8.745   6.511   3.714 -0.6886  0.3086 -0.8097
   31MOL0     C 3969   8.661   6.616   3.766 -0.2338 -0.1766 -0.5585
   31MOL0     C 3970   8.523   6.554   3.794 -0.1360 -1.0676  0.6412
   31MOL0     C 3971   8.410   6.658   3.814  0.0865 -1.0067  0.2046
   31MOL0     C 3972   8.275   6.592   3.775 -0.3222 -0.7257  0.8296
   31MOL0     C 3973   8.158   6.691   3.813  0.2994 -0.7593  1.4441
   31MOL0     C 3974   8.023   6.642   3.788 -0.6598  0.7147  0.9123
   31MOL0     C 3975   7.916   6.747   3.812 -0.3764  0.1285  0.1402
   31MOL0     C 3976   7.784   6.685   3.864 -0.5768 -0.1675 -0.6552
   31MOL0     N 3977   7.696   6.604   3.775 -0.1884 -0.5611  0.0258
   31MOL0     C 3978   7.658   6.484   3.809  0.2518 -0.1270 -0.4342
   31MOL0     C 3979   7.573   6.443   3.712 -0.2509  0.6448  0.0597
   31MOL0     C 3980   7.509   6.311   3.683  0.7153 -0.7626 -0.7910
   31MOL0     C 3981   7.516   6.207   3.795  0.4468  0.5220  0.0283
   31MOL0     C 3982   7.425   6.086   3.787 -0.1224 -0.2074 -0.2702
   31MOL0     C 3983   7.439   6.004   3.665 -0.0079 -0.0565 -0.7323
   31MOL0     O 3984   7.337   5.904   3.665  0.1991 -0.1654  0.1184
   31MOL0     C 3985   7.207   5.924   3.613  0.5365 -1.0615 -0.0302
   31MOL0     C 3986   7.128   5.814   3.635 -0.6258 -0.2371  0.1623
   31MOL0     C 3987   6.991   5.824   3.608  0.1926  0.2556  0.3122
   31MOL0     C 3988   6.935   5.940   3.549  0.5393  0.5003 -0.3151
   31MOL0     C 3989   6.792   5.945   3.537 -0.6613  0.8038  0.6732
   31MOL0     O 3990   6.716   5.834   3.561 -0.3265  0.5290  0.6211
   31MOL0     C 3991   6.581   5.856   3.543  0.2081  1.0304  0.1416
   31MOL0     C 3992   6.506   5.784   3.444 -0.1628  0.2082 -0.6763
   31MOL0     C 3993   6.367   5.802   3.431 -0.2884  0.3479 -0.2466
   31MOL0     C 3994   6.289   5.869   3.525  0.5963 -0.7258 -0.2894
   31MOL0     O 3995   6.147   5.856   3.527  0.2378  1.0085 -0.3278
   31MOL0     C 3996   6.072   5.767   3.432 -0.2847  0.1502  0.0758
   31MOL0     C 3997   5.923   5.774   3.455 -0.0386  0.3862 -0.0527
   31MOL0     C 3998   5.860   5.912   3.495 -0.2418  0.8222  0.4574
   31MOL0     C 3999   5.899   6.039   3.404 -0.5913  0.0470  0.0122
   31MOL0     C 4000   5.838   6.155   3.467  0.6528 -0.5725  0.3484
   31MOL0     C 4001   5.688   6.184   3.425 -0.1972 -0.3263 -0.2563
   31MOL0     C 4002   5.637   6.286   3.531 -0.6440  0.0691 -0.2700
   31MOL0     C 4003   5.493   6.337   3.503 -0.7220 -1.0080 -0.5731
   31MOL0    Cl 4004   5.437   6.441   3.641  0.0545 -0.0427 -0.0840
   31MOL0     C 4005   6.362   5.938   3.621  0.0429  0.0291  0.2409
   31MOL0     C 4006   6.506   5.928   3.632  0.0607 -0.1639  0.6918
   31MOL0     O 4007   6.746   6.048   3.493  0.0531  0.2897 -0.2187
   31MOL0     C 4008   7.024   6.049   3.535  0.3594  0.0435 -1.0836
   31MOL0     C 4009   7.157   6.041   3.568  0.0687  0.4677 -0.0694
   31MOL0     N 4010   7.545   6.547   3.631 -0.6239 -0.0971  0.7122
   31MOL0     N 4011   7.632   6.648   3.658 -1.4616  0.5970  0.5261
   31MOL0     C 4012   8.967   6.444   3.700  1.3081  0.3952 -0.2112
   31MOL0     C 4013   9.092   6.449   3.640 -0.6780  0.3703 -0.4806
   31MOL0     C 4014   9.415   6.496   3.346  0.0032  0.7998 -0.5292
   31MOL0     C 4015   9.459   6.412   3.244 -0.1491 -0.1674  0.2398
   31MOL0     C 4016   9.595   6.396   3.223 -0.3737  0.5227 -0.6003
   31MOL0     C 4017   9.694   6.475   3.289 -0.2633 -0.0618  0.2285
   31MOL0     O 4018   9.820   6.447   3.260 -0.4892  0.3158  0.4063
   31MOL0     C 4019   9.922   6.521   3.317 -0.8427 -0.0352  0.3460
   31MOL0     C 4020  10.060   6.464   3.280 -0.1916 -0.2203 -0.2247
   31MOL0     C 4021  10.176   6.556   3.319 -0.5225  0.5079  0.6014
   31MOL0     C 4022  10.304   6.482   3.262  0.2664 -0.6584 -0.0193
   31MOL0     C 4023  10.430   6.556   3.289  0.6369 -0.3596 -1.2640
   31MOL0     C 4024  10.531   6.612   3.305 -1.0226 -0.5710  0.3131
   31MOL0     C 4025   9.649   6.558   3.387  0.3460  0.2507  0.0793
   31MOL0     C 4026   9.515   6.570   3.416  0.5245 -0.4229  0.0297
   31MOL0     H 4027   9.069   6.741   3.467 -1.1530  1.0399  0.3134
   31MOL0     H 4028   8.837   6.718   3.546  2.9494  1.8822 -0.7415
   31MOL0     H 4029   8.650   6.691   3.687  2.2371 -0.6674 -1.4859
   31MOL0     H 4030   8.703   6.667   3.853 -2.0727 -1.9581  1.4983
   31MOL0     H 4031   8.531   6.489   3.882  1.4902  1.5134  2.5472
   31MOL0     H 4032   8.493   6.490   3.710 -1.0880  0.3225 -0.1035
   31MOL0     H 4033   8.429   6.744   3.748  0.3056 -0.0134  1.5227
   31MOL0     H 4034   8.404   6.695   3.917  2.9214 -0.8619  0.3846
   31MOL0     H 4035   8.270   6.590   3.666 -5.1047  2.2942  0.6961
   31MOL0     H 4036   8.268   6.494   3.823  1.5722 -0.2350  2.2814
   31MOL0     H 4037   8.165   6.782   3.754 -1.0150 -1.5806 -0.0642
   31MOL0     H 4038   8.173   6.713   3.919  0.3001 -4.1625  2.2662
   31MOL0     H 4039   8.003   6.557   3.854  2.4524 -0.3866  0.5931
   31MOL0     H 4040   8.017   6.600   3.688  0.1180  3.4763 -0.3937
   31MOL0     H 4041   7.953   6.821   3.883  0.7423 -0.8670  0.6200
   31MOL0     H 4042   7.899   6.801   3.718 -0.2600  0.6757  0.4293
   31MOL0     H 4043   7.717   6.771   3.873 -0.3318 -0.1685  1.9593
   31MOL0     H 4044   7.807   6.627   3.954 -1.1042 -1.8413 -1.5526
   31MOL0     H 4045   7.698   6.419   3.886 -1.4083  0.5693  1.0870
   31MOL0     H 4046   7.554   6.273   3.590 -0.9873 -2.7658 -0.8675
   31MOL0     H 4047   7.403   6.324   3.662  0.3995 -0.7306  0.7138
   31MOL0     H 4048   7.487   6.251   3.891  2.2684  0.6781  0.5424
   31MOL0     H 4049   7.619   6.173   3.804  0.3326  0.6950  2.9359
   31MOL0     H 4050   7.422   6.030   3.881 -2.0722 -0.1277 -0.2454
   31MOL0     H 4051   7.319   6.116   3.782  0.2517  2.3450  3.1398
   31MOL0     H 4052   7.533   5.948   3.658  0.0289 -0.3086  1.1998
   31MOL0     H 4053   7.441   6.062   3.572 -0.5633  0.8274 -0.2086
   31MOL0     H 4054   7.180   5.725   3.666  2.9806  1.2521 -1.1351
   31MOL0     H 4055   6.930   5.746   3.653 -0.2727  1.0572  1.1113
   31MOL0     H 4056   6.545   5.706   3.379 -0.1533 -0.1600 -0.2338
   31MOL0     H 4057   6.320   5.744   3.353 -0.5391  2.0039 -1.3678
   31MOL0     H 4058   6.114   5.668   3.453  1.5021  1.1427  1.3646
   31MOL0     H 4059   6.102   5.797   3.331  1.9392  0.0788  0.6701
   31MOL0     H 4060   5.892   5.704   3.533 -3.4238 -0.5203 -1.9711
   31MOL0     H 4061   5.873   5.756   3.359  2.7469 -0.6342 -1.4076
   31MOL0     H 4062   5.887   5.926   3.600  0.4931 -0.8610  0.5362
   31MOL0     H 4063   5.751   5.913   3.501 -0.3368  1.1914 -0.9417
   31MOL0     H 4064   6.007   6.055   3.405 -0.7810  1.4819 -0.1144
   31MOL0     H 4065   5.853   6.032   3.305 -1.6507 -1.2407  0.5543
   31MOL0     H 4066   5.900   6.242   3.446 -1.1949  0.3903 -1.5075
   31MOL0     H 4067   5.837   6.149   3.577 -0.4376  2.5980  0.6060
   31MOL0     H 4068   5.643   6.085   3.433  1.8828 -1.2391  0.8051
   31MOL0     H 4069   5.696   6.222   3.322 -2.6917  0.5225 -0.2034
   31MOL0     H 4070   5.639   6.221   3.620 -2.4934 -4.1323 -2.9743
   31MOL0     H 4071   5.706   6.370   3.539 -1.0641  0.3046  1.4220
   31MOL0     H 4072   5.427   6.250   3.499 -2.7368  0.3223  1.2020
   31MOL0     H 4073   5.486   6.390   3.408  0.6071 -0.5618 -0.4479
   31MOL0     H 4074   6.302   5.992   3.694  0.9199  3.7259 -1.4928
   31MOL0     H 4075   6.563   5.977   3.711 -0.0037 -0.4402  0.9088
   31MOL0     H 4076   6.975   6.144   3.516  1.6956  0.8742 -0.4802
   31MOL0     H 4077   7.228   6.122   3.559 -0.2679  0.6858 -0.7944
   31MOL0     H 4078   8.932   6.352   3.746  2.1792  1.3344  2.5660
   31MOL0     H 4079   9.176   6.381   3.650 -1.6675 -0.6519  1.5012
   31MOL0     H 4080   9.386   6.356   3.187 -0.8046  1.2035 -0.3007
   31MOL0     H 4081   9.622   6.310   3.162 -2.2166 -0.3154 -0.3014
   31MOL0     H 4082   9.909   6.513   3.425  3.0374  1.3152  1.0859
   31MOL0     H 4083   9.913   6.627   3.292 -3.7550  0.1831  1.8570
   31MOL0     H 4084  10.074   6.361   3.314 -0.1809 -0.2249 -0.2415
   31MOL0     H 4085  10.069   6.475   3.171 -2.0364  4.8752 -0.1379
   31MOL0     H 4086  10.180   6.585   3.424  2.4153  3.1128 -0.0873
   31MOL0     H 4087  10.163   6.651   3.268 -1.8563  1.3186  2.3240
   31MOL0     H 4088  10.308   6.382   3.307  2.3690 -1.6831 -2.2522
   31MOL0     H 4089  10.306   6.467   3.153  2.4218 -4.8958  0.4092
   31MOL0     H 4090  10.627   6.659   3.313 -2.4333  2.3934  1.2901
   31MOL0     H 4091   9.709   6.636   3.431  1.5168 -1.3625  1.5010
   31MOL0     H 4092   9.505   6.646   3.493  3.4397  0.5953 -0.4753
   32MOL0     O 4093   1.871   7.728   9.392  0.2691 -0.5497 -0.4980
   32MOL0     C 4094   1.845   7.642   9.309 -0.4169  1.1019  0.6064
   32MOL0     O 4095   1.929   7.543   9.273 -0.1103 -0.1722  0.0300
   32MOL0     C 4096   2.050   7.531   9.331  0.2117 -0.9011 -0.1249
   32MOL0     C 4097   2.174   7.585   9.279 -0.0822 -0.0248  0.4217
   32MOL0     C 4098   2.302   7.539   9.327 -0.5407  0.3877 -0.0369
   32MOL0     C 4099   2.310   7.475   9.444  0.8956  0.5663 -0.1658
   32MOL0     O 4100   2.424   7.440   9.495 -1.1764 -0.3440  0.0345
   32MOL0     C 4101   2.517   7.543   9.537  0.1957  0.6021 -0.5348
   32MOL0     C 4102   2.612   7.480   9.635 -1.2193  0.0075  0.9158
   32MOL0     C 4103   2.548   7.404   9.745 -0.6931  0.2828 -0.7815
   32MOL0     C 4104   2.642   7.318   9.832  0.0976  0.2370 -0.0530
   32MOL0     C 4105   2.564   7.212   9.929  0.1755  0.2413 -0.2759
   32MOL0     C 4106   2.474   7.114   9.839  0.5317  0.1036 -0.5480
   32MOL0     C 4107   2.401   7.021   9.937 -0.3521 -0.0276  0.5049
   32MOL0     C 4108   2.299   7.095  10.016 -0.5456  0.4093 -1.0602
   32MOL0     N 4109   2.189   7.157   9.945 -0.0075  0.9452  0.2727
   32MOL0     C 4110   2.133   7.274   9.977  0.0612 -0.6874 -0.0400
   32MOL0     C 4111   2.038   7.289   9.885 -0.0656  0.5765  0.1861
   32MOL0     C 4112   1.946   7.407   9.862  0.1324  0.7286 -0.2142
   32MOL0     C 4113   1.800   7.367   9.823 -0.1349 -0.2176  1.3293
   32MOL0     C 4114   1.711   7.484   9.795  0.2137  0.6523 -0.0127
   32MOL0     C 4115   1.564   7.456   9.752  0.0111 -0.3258 -0.5435
   32MOL0     O 4116   1.506   7.589   9.732 -0.3196 -0.2592  0.6504
   32MOL0     C 4117   1.380   7.602   9.677 -0.4422 -0.0735  0.3038
   32MOL0     C 4118   1.279   7.514   9.716 -0.2424 -0.3826 -0.6170
   32MOL0     C 4119   1.149   7.515   9.669 -0.8630  0.4651  0.4198
   32MOL0     C 4120   1.123   7.608   9.563  0.2465 -0.0690  0.9760
   32MOL0     C 4121   0.982   7.626   9.506  0.1948 -0.0475 -0.4731
   32MOL0     O 4122   0.958   7.717   9.411 -0.3190  0.0666 -0.5447
   32MOL0     C 4123   0.831   7.716   9.358 -0.9703  0.2882 -0.4118
   32MOL0     C 4124   0.718   7.740   9.434  0.9482 -0.1195 -0.1870
   32MOL0     C 4125   0.591   7.759   9.368 -0.0621  0.6570  0.2017
   32MOL0     C 4126   0.585   7.731   9.226 -0.4019  0.3231  0.3261
   32MOL0     O 4127   0.462   7.748   9.172 -0.2931 -0.3365 -0.5824
   32MOL0     C 4128   0.408   7.636   9.099 -0.5253 -0.9356 -0.5972
   32MOL0     C 4129   0.258   7.649   9.077 -0.0651  0.2681 -1.2563
   32MOL0     C 4130   0.172   7.652   9.201  0.9740  0.8141  0.6000
   32MOL0     C 4131   0.034   7.678   9.153 -0.2710  0.8487  0.2713
   32MOL0     C 4132  -0.065   7.656   9.271 -1.1082 -0.7555  0.0084
   32MOL0     C 4133  -0.212   7.696   9.233 -0.1270  0.2915 -0.0712
   32MOL0     C 4134  -0.299   7.630   9.341  0.5209  0.1892  0.3591
   32MOL0     C 4135  -0.443   7.675   9.330  0.1563  0.2384 -0.1835
   32MOL0    Cl 4136  -0.544   7.585   9.456 -0.8814 -0.4495  0.0723
   32MOL0     C 4137   0.703   7.702   9.154  0.7385 -0.5151  0.4188
   32MOL0     C 4138   0.828   7.696   9.222  0.1893 -0.0998 -0.1568
   32MOL0     O 4139   0.904   7.533   9.535  0.2360 -0.0307 -0.3113
   32MOL0     C 4140   1.212   7.703   9.531  0.3729 -0.1631 -0.1138
   32MOL0     C 4141   1.349   7.698   9.577 -0.3013  1.0244 -0.6800
   32MOL0     N 4142   2.034   7.173   9.802 -0.0852 -0.4609  0.9984
   32MOL0     N 4143   2.136   7.107   9.832  0.4584 -0.1311 -0.1906
   32MOL0     C 4144   2.183   7.423   9.493 -0.3836 -0.0702  0.0995
   32MOL0     C 4145   2.057   7.447   9.447  0.3865  1.1106  0.0026
   32MOL0     C 4146   1.712   7.648   9.238 -0.2112  0.1456 -0.2717
   32MOL0     C 4147   1.705   7.617   9.099  0.7221  0.3258 -0.4784
   32MOL0     C 4148   1.577   7.610   9.037 -0.7412  0.5436 -0.5812
   32MOL0     C 4149   1.457   7.642   9.104  0.2989  0.4586  0.9457
   32MOL0     O 4150   1.327   7.640   9.037  0.0659 -0.1417  0.3720
   32MOL0     C 4151   1.215   7.593   9.112  0.9488 -0.0147  1.0116
   32MOL0     C 4152   1.100   7.557   9.010 -0.2377 -0.5848 -0.3591
   32MOL0     C 4153   1.047   7.685   8.930 -0.7812  0.1625  0.5644
   32MOL0     C 4154   0.956   7.645   8.816  0.7285 -0.0009 -0.1191
   32MOL0     C 4155   0.876   7.761   8.767  0.9994 -0.0087 -0.1169
   32MOL0     C 4156   0.810   7.862   8.741 -0.6938 -0.0927 -1.1058
   32MOL0     C 4157   1.462   7.665   9.242 -0.8900 -0.1442 -0.5241
   32MOL0     C 4158   1.593   7.666   9.310 -0.2530 -0.5155  0.7736
   32MOL0     H 4159   2.169   7.651   9.194 -1.6344 -0.6367  0.0132
   32MOL0     H 4160   2.400   7.558   9.284 -1.4561  1.6093 -1.6662
   32MOL0     H 4161   2.461   7.622   9.587 -1.3970 -0.7074 -0.1560
   32MOL0     H 4162   2.557   7.587   9.445 -0.9351 -0.9705 -1.8444
   32MOL0     H 4163   2.690   7.550   9.665  0.0122 -1.0657  0.3248
   32MOL0     H 4164   2.665   7.406   9.574 -0.0245  0.4748  1.3634
   32MOL0     H 4165   2.465   7.345   9.704 -0.4944  1.9259 -3.8013
   32MOL0     H 4166   2.514   7.474   9.821 -1.8636 -1.9374  0.8722
   32MOL0     H 4167   2.706   7.265   9.761  1.6581 -0.4451  1.7904
   32MOL0     H 4168   2.711   7.372   9.898 -1.0187 -0.3060  1.6214
   32MOL0     H 4169   2.497   7.264   9.997  0.5383  2.3290 -1.4352
   32MOL0     H 4170   2.633   7.161   9.997 -0.8169  2.7147  2.8148
   32MOL0     H 4171   2.544   7.052   9.782  0.0224 -0.1872 -0.8694
   32MOL0     H 4172   2.401   7.159   9.771  3.4814  0.9193 -3.4512
   32MOL0     H 4173   2.357   6.941   9.877 -0.2473 -1.3270  2.0805
   32MOL0     H 4174   2.481   6.977   9.999 -0.0541  0.6961  0.6471
   32MOL0     H 4175   2.347   7.155  10.093 -0.5072 -0.5559 -0.3107
   32MOL0     H 4176   2.250   7.012  10.068  3.2444 -0.5653  1.2902
   32MOL0     H 4177   2.149   7.339  10.061  2.9375 -1.6541  0.2424
   32MOL0     H 4178   1.994   7.463   9.781 -1.2932 -0.6953 -2.1404
   32MOL0     H 4179   1.945   7.474   9.948 -0.6241  1.1197 -0.5187
   32MOL0     H 4180   1.744   7.302   9.891  0.0177 -2.3584 -0.4768
   32MOL0     H 4181   1.799   7.322   9.723 -1.1991  2.0528  0.2313
   32MOL0     H 4182   1.705   7.539   9.890 -3.1308  2.3251 -1.0108
   32MOL0     H 4183   1.758   7.547   9.719 -0.5307 -0.4166 -1.3969
   32MOL0     H 4184   1.506   7.397   9.823 -3.6241  0.9243 -2.2153
   32MOL0     H 4185   1.558   7.405   9.655 -2.7646  0.8510 -1.0727
   32MOL0     H 4186   1.301   7.451   9.801  0.8357 -0.5689 -1.0250
   32MOL0     H 4187   1.075   7.450   9.713 -0.8981  1.2243  1.5226
   32MOL0     H 4188   0.722   7.748   9.542 -2.7621 -2.1435  0.2494
   32MOL0     H 4189   0.503   7.787   9.425 -0.7135 -0.5369 -0.1779
   32MOL0     H 4190   0.421   7.545   9.157  1.1741 -1.7660 -2.1646
   32MOL0     H 4191   0.462   7.623   9.005 -0.5326  0.7932 -0.8770
   32MOL0     H 4192   0.237   7.565   9.010  0.9161 -0.0804 -1.1407
   32MOL0     H 4193   0.253   7.743   9.021  5.6536  2.3928  1.0864
   32MOL0     H 4194   0.203   7.732   9.268  2.6003  0.2089  0.6080
   32MOL0     H 4195   0.188   7.553   9.244  0.7984  0.2548 -0.5714
   32MOL0     H 4196   0.024   7.782   9.118  2.1571  0.6189 -1.3138
   32MOL0     H 4197   0.004   7.623   9.063 -0.1114 -0.1976  0.8539
   32MOL0     H 4198  -0.029   7.715   9.356 -2.0372  1.1107 -0.8173
   32MOL0     H 4199  -0.066   7.555   9.313  2.1896 -0.2584  1.6122
   32MOL0     H 4200  -0.238   7.672   9.130 -0.9671  1.5172 -0.1698
   32MOL0     H 4201  -0.232   7.804   9.238 -0.9386  0.2049 -1.1074
   32MOL0     H 4202  -0.277   7.523   9.336  0.3568  0.1872 -0.5818
   32MOL0     H 4203  -0.266   7.679   9.433  4.2602  2.6353 -1.9660
   32MOL0     H 4204  -0.487   7.648   9.234 -0.0137  0.9572 -0.3114
   32MOL0     H 4205  -0.458   7.783   9.339  0.2692  0.1517  1.3660
   32MOL0     H 4206   0.696   7.692   9.046 -2.7666  0.5427  0.4078
   32MOL0     H 4207   0.920   7.682   9.168 -0.9765 -2.5256 -1.7085
   32MOL0     H 4208   1.180   7.765   9.448 -1.4686 -3.6319 -2.2086
   32MOL0     H 4209   1.430   7.759   9.538  0.3812 -0.3304 -1.4281
   32MOL0     H 4210   2.172   7.355   9.577  1.2114  0.5902  0.8704
   32MOL0     H 4211   1.981   7.405   9.513  1.3933 -1.6577 -0.4511
   32MOL0     H 4212   1.795   7.599   9.041 -0.1307  1.5073 -2.2762
   32MOL0     H 4213   1.565   7.610   8.929 -3.3087  3.4586 -0.4094
   32MOL0     H 4214   1.175   7.667   9.182  1.2099  0.1703  0.9693
   32MOL0     H 4215   1.246   7.503   9.165  1.1904 -0.7572 -0.3569
   32MOL0     H 4216   1.138   7.478   8.945 -1.0271 -2.9690  1.9204
   32MOL0     H 4217   1.013   7.521   9.064 -0.6920  0.4375 -0.3809
   32MOL0     H 4218   1.140   7.719   8.882 -1.0167  0.2762  0.1828
   32MOL0     H 4219   1.011   7.771   8.986 -0.8810  1.2397 -1.1000
   32MOL0     H 4220   1.010   7.619   8.725  3.3620  0.0251  1.3645
   32MOL0     H 4221   0.907   7.551   8.845  1.3184 -0.5253 -0.7894
   32MOL0     H 4222   0.766   7.959   8.731 -2.5893 -0.5128  1.8056
   32MOL0     H 4223   1.369   7.691   9.291 -1.4741 -1.0114 -1.1697
   32MOL0     H 4224   1.608   7.680   9.417  1.8432  0.3733  0.4053
   33MOL0     O 4225   8.164   3.980   0.010 -0.6592 -0.9459  0.0460
   33MOL0     C 4226   8.266   3.918   0.011 -0.7250 -0.0742  0.5746
   33MOL0     O 4227   8.284   3.789   0.040 -0.2012  0.4796 -0.2599
   33MOL0     C 4228   8.178   3.702   0.053 -0.4878 -0.6210 -0.1063
   33MOL0     C 4229   8.170   3.599   0.149  0.7670  0.1303  0.2728
   33MOL0     C 4230   8.088   3.487   0.139  0.8173  0.6285 -0.2008
   33MOL0     C 4231   7.992   3.488   0.035 -0.2078 -0.4930 -0.0215
   33MOL0     O 4232   7.894   3.400   0.011 -0.3223  1.0137  0.6920
   33MOL0     C 4233   7.838   3.334   0.122 -0.1228  0.2363  0.4098
   33MOL0     C 4234   7.730   3.434   0.169  0.9246 -0.1339 -0.1962
   33MOL0     C 4235   7.601   3.405   0.091 -0.8151  0.4622 -1.2249
   33MOL0     C 4236   7.467   3.451   0.155 -0.1062  0.1253  0.3913
   33MOL0     C 4237   7.352   3.441   0.053 -0.6600 -0.5565 -0.8015
   33MOL0     C 4238   7.213   3.469   0.105 -0.2176  1.0643  0.2785
   33MOL0     C 4239   7.100   3.411   0.021 -1.2201  0.5812 -0.3234
   33MOL0     C 4240   7.055   3.269   0.065 -0.8523 -0.2963  1.0221
   33MOL0     N 4241   6.938   3.217  -0.011 -0.6208 -0.3089  0.5361
   33MOL0     C 4242   6.952   3.161  -0.128 -0.1896 -0.3294  0.4945
   33MOL0     C 4243   6.824   3.131  -0.157  1.2823 -0.9547  0.6552
   33MOL0     C 4244   6.782   3.079  -0.292 -0.4876  0.6221 -0.8884
   33MOL0     C 4245   6.679   3.176  -0.367 -0.1606  0.0862  0.6241
   33MOL0     C 4246   6.533   3.157  -0.313  1.2458  0.3829 -0.1779
   33MOL0     C 4247   6.427   3.251  -0.380  0.3987  0.2349 -0.1975
   33MOL0     O 4248   6.298   3.238  -0.315 -0.7446  0.3504 -0.0148
   33MOL0     C 4249   6.181   3.285  -0.366 -0.3345  0.0537  1.0259
   33MOL0     C 4250   6.174   3.377  -0.472 -0.1231  0.0725  0.2854
   33MOL0     C 4251   6.045   3.408  -0.527  0.6960 -0.1969 -0.5579
   33MOL0     C 4252   5.927   3.366  -0.458 -0.7390  0.6725  0.9423
   33MOL0     C 4253   5.793   3.379  -0.529  0.9969 -0.4805  0.2010
   33MOL0     O 4254   5.789   3.457  -0.648 -0.3227 -0.6764 -0.1021
   33MOL0     C 4255   5.668   3.482  -0.714 -0.3704  0.7564  0.0222
   33MOL0     C 4256   5.590   3.599  -0.686  0.5596  0.0335 -0.6598
   33MOL0     C 4257   5.457   3.610  -0.744 -0.3581 -0.5355 -0.1285
   33MOL0     C 4258   5.403   3.513  -0.825 -0.5794 -0.6131 -0.0337
   33MOL0     O 4259   5.282   3.504  -0.885 -0.0064 -0.3435 -0.1691
   33MOL0     C 4260   5.172   3.570  -0.820 -0.2972 -0.0230 -0.4238
   33MOL0     C 4261   5.047   3.549  -0.908 -0.1509 -0.0721  0.5888
   33MOL0     C 4262   4.933   3.618  -0.845  0.6212 -0.7556 -0.3814
   33MOL0     C 4263   4.803   3.624  -0.925 -0.2779 -0.2391  0.2266
   33MOL0     C 4264   4.694   3.730  -0.886  0.6534 -0.4446  0.5667
   33MOL0     C 4265   4.584   3.728  -0.997 -0.0436 -0.0752  0.2368
   33MOL0     C 4266   4.460   3.797  -0.939  0.4201  0.0743  0.2972
   33MOL0     C 4267   4.358   3.840  -1.055 -1.1746 -0.2226 -0.2152
   33MOL0    Cl 4268   4.300   3.701  -1.141  0.3223 -0.0367  0.2334
   33MOL0     C 4269   5.478   3.398  -0.851  0.6863  0.3111 -0.7384
   33MOL0     C 4270   5.601   3.385  -0.790  0.1557 -0.6474 -0.4584
   33MOL0     O 4271   5.698   3.315  -0.482  0.1548 -0.3124  0.1219
   33MOL0     C 4272   5.937   3.297  -0.335 -0.9604  0.5107  0.2121
   33MOL0     C 4273   6.062   3.257  -0.291  1.5303 -0.6842 -0.3770
   33MOL0     N 4274   6.739   3.178  -0.056 -0.3514  0.6624 -0.2430
   33MOL0     N 4275   6.813   3.232   0.034  0.8562 -0.9008  0.3612
   33MOL0     C 4276   7.991   3.594  -0.059  0.1822 -0.5095  0.1673
   33MOL0     C 4277   8.079   3.698  -0.047 -0.5181  0.8043  0.3514
   33MOL0     C 4278   8.386   3.997  -0.017 -0.0660 -0.0489 -0.0530
   33MOL0     C 4279   8.376   4.122  -0.081  0.3323  0.5253 -0.3666
   33MOL0     C 4280   8.491   4.198  -0.102  0.3254  0.3455  0.2093
   33MOL0     C 4281   8.612   4.143  -0.083 -0.7072  0.0831  0.7588
   33MOL0     O 4282   8.727   4.188  -0.156  0.8744  0.9505  0.3031
   33MOL0     C 4283   8.731   4.324  -0.201  0.1480 -0.4118 -0.2808
   33MOL0     C 4284   8.733   4.439  -0.088  1.0058 -0.1367 -0.0444
   33MOL0     C 4285   8.759   4.388   0.052  0.7573  1.2795 -0.2129
   33MOL0     C 4286   8.761   4.496   0.149 -0.3222  0.0960  0.7701
   33MOL0     C 4287   8.634   4.561   0.167 -0.4719  0.1123  0.1738
   33MOL0     C 4288   8.526   4.623   0.186 -0.4843 -0.6563 -0.3766
   33MOL0     C 4289   8.622   4.019  -0.021  0.1698 -0.6895  0.7379
   33MOL0     C 4290   8.508   3.953   0.020  0.8597  0.5762 -0.4176
   33MOL0     H 4291   8.235   3.615   0.234 -0.5444 -1.1038  1.5735
   33MOL0     H 4292   8.099   3.408   0.213 -0.8355  1.3953  0.9282
   33MOL0     H 4293   7.912   3.323   0.202 -0.7378 -0.0043  0.9551
   33MOL0     H 4294   7.794   3.234   0.110 -0.2964  0.4802 -1.1356
   33MOL0     H 4295   7.761   3.535   0.140 -1.9912  0.1746 -2.6554
   33MOL0     H 4296   7.724   3.433   0.278 -1.0050  0.2069 -0.2665
   33MOL0     H 4297   7.593   3.296   0.080 -1.4014  0.4185 -0.4250
   33MOL0     H 4298   7.613   3.445  -0.010  3.1185  0.0583 -1.0968
   33MOL0     H 4299   7.445   3.383   0.238 -0.6905  1.5321  1.4294
   33MOL0     H 4300   7.490   3.551   0.195  2.4217  1.0186 -2.8582
   33MOL0     H 4301   7.356   3.344   0.003 -2.8218 -0.5034 -1.1435
   33MOL0     H 4302   7.371   3.513  -0.027 -2.2032  0.1564 -0.5747
   33MOL0     H 4303   7.194   3.577   0.099  1.0833  1.4243  1.9013
   33MOL0     H 4304   7.194   3.436   0.208 -2.7937 -0.9041 -0.7192
   33MOL0     H 4305   7.016   3.480   0.008 -0.5756  1.3724 -0.4107
   33MOL0     H 4306   7.145   3.394  -0.078  4.4540 -0.7106  2.1088
   33MOL0     H 4307   7.026   3.270   0.171  0.9580 -0.8715  1.5709
   33MOL0     H 4308   7.143   3.204   0.062 -1.6694 -1.3877 -0.0123
   33MOL0     H 4309   7.036   3.136  -0.192 -1.5575 -3.1497 -0.3553
   33MOL0     H 4310   6.719   2.990  -0.283 -1.1911  1.0617 -1.3920
   33MOL0     H 4311   6.868   3.064  -0.359 -0.6111 -1.6557 -0.6326
   33MOL0     H 4312   6.680   3.155  -0.475  0.2389  1.9650  0.2205
   33MOL0     H 4313   6.694   3.284  -0.352 -2.4350  0.7123 -1.0353
   33MOL0     H 4314   6.501   3.052  -0.312  0.2071  0.6915  0.7829
   33MOL0     H 4315   6.526   3.178  -0.206  2.8802  4.2047 -0.6649
   33MOL0     H 4316   6.433   3.225  -0.486  0.5562 -1.0278  0.1065
   33MOL0     H 4317   6.449   3.358  -0.386 -0.3495  0.4080  0.0655
   33MOL0     H 4318   6.263   3.426  -0.509  0.5584 -2.9325 -2.4799
   33MOL0     H 4319   6.029   3.466  -0.617  1.7814  2.6211  0.9557
   33MOL0     H 4320   5.624   3.668  -0.609  1.6932  0.2429 -1.3238
   33MOL0     H 4321   5.391   3.693  -0.723  0.5826  0.6435 -1.5944
   33MOL0     H 4322   5.176   3.678  -0.804  0.1673  0.0038 -0.7082
   33MOL0     H 4323   5.171   3.529  -0.719 -0.7270  2.8541  0.8274
   33MOL0     H 4324   5.032   3.440  -0.908 -2.6799  0.2284  1.7677
   33MOL0     H 4325   5.055   3.582  -1.012  1.0149 -0.8667  0.4000
   33MOL0     H 4326   4.957   3.721  -0.819  0.0036 -0.8929  0.8034
   33MOL0     H 4327   4.913   3.582  -0.744  1.5363 -1.5261 -0.4581
   33MOL0     H 4328   4.825   3.638  -1.031 -0.9953 -1.0931 -0.0592
   33MOL0     H 4329   4.758   3.524  -0.915 -3.5586  1.0854  0.1074
   33MOL0     H 4330   4.732   3.833  -0.880  0.0091 -0.0696 -1.1360
   33MOL0     H 4331   4.653   3.697  -0.790 -1.1177  0.6425  0.2252
   33MOL0     H 4332   4.563   3.622  -1.014 -1.7903  0.2059  0.4330
   33MOL0     H 4333   4.614   3.778  -1.089  1.7753  0.3779  1.0373
   33MOL0     H 4334   4.406   3.728  -0.874  0.3911  0.9074  1.1759
   33MOL0     H 4335   4.482   3.884  -0.876 -2.1035  1.6526 -0.8710
   33MOL0     H 4336   4.408   3.908  -1.124 -0.9762  0.9605  1.0281
   33MOL0     H 4337   4.274   3.886  -1.002 -1.8945 -2.3551  0.5728
   33MOL0     H 4338   5.448   3.311  -0.908  2.0454 -0.5926 -0.1481
   33MOL0     H 4339   5.646   3.288  -0.808  4.0258  1.2385 -2.1319
   33MOL0     H 4340   5.847   3.256  -0.288  0.9392 -0.2546  3.5030
   33MOL0     H 4341   6.066   3.195  -0.202 -0.3192 -1.4170 -0.7761
   33MOL0     H 4342   7.915   3.594  -0.136  0.1420  0.0135  0.2058
   33MOL0     H 4343   8.079   3.782  -0.116  0.3094 -1.7674 -3.0948
   33MOL0     H 4344   8.280   4.158  -0.118  1.8230  1.6176 -3.5725
   33MOL0     H 4345   8.478   4.296  -0.147 -0.2139 -0.3015 -1.0678
   33MOL0     H 4346   8.643   4.352  -0.261  0.8436  2.0440 -0.2706
   33MOL0     H 4347   8.826   4.330  -0.256  1.6860  3.8599  2.3126
   33MOL0     H 4348   8.807   4.517  -0.110 -0.5313  1.4074  0.0432
   33MOL0     H 4349   8.635   4.487  -0.095 -0.6012 -3.2300 -0.3061
   33MOL0     H 4350   8.857   4.341   0.056  1.6836  3.1018 -0.5570
   33MOL0     H 4351   8.683   4.319   0.089  2.3521  1.0433  2.9035
   33MOL0     H 4352   8.791   4.453   0.246 -0.7286 -1.1779  0.3571
   33MOL0     H 4353   8.831   4.574   0.119 -1.5340  1.0665  0.3860
   33MOL0     H 4354   8.435   4.679   0.197  2.1303  3.5958  2.1120
   33MOL0     H 4355   8.715   3.964  -0.006  1.2142  0.3638 -1.3577
   33MOL0     H 4356   8.510   3.859   0.074  0.6038  1.0111  0.3771
   34MOL0     O 4357   8.212   0.112   0.848 -0.2607 -0.1709  0.0192
   34MOL0     C 4358   8.147   0.214   0.876 -0.1931  0.2817 -0.5378
   34MOL0     O 4359   8.167   0.304   0.981 -0.7051 -0.7829 -0.0181
   34MOL0     C 4360   8.285   0.302   1.063  1.1865 -0.1216  0.5378
   34MOL0     C 4361   8.411   0.245   1.030 -0.9061 -0.1996 -0.3819
   34MOL0     C 4362   8.521   0.253   1.119 -0.2616  0.2104 -0.0698
   34MOL0     C 4363   8.500   0.314   1.246 -0.1791 -0.1560  0.0619
   34MOL0     O 4364   8.607   0.308   1.336 -0.1530  0.5906 -0.2941
   34MOL0     C 4365   8.593   0.348   1.477 -0.4432 -0.3453 -0.5169
   34MOL0     C 4366   8.721   0.412   1.532  0.2221 -0.6655  0.0152
   34MOL0     C 4367   8.717   0.459   1.680  0.4981 -1.0093  0.2694
   34MOL0     C 4368   8.680   0.348   1.778  0.1376  0.0058 -0.3460
   34MOL0     C 4369   8.533   0.341   1.828 -0.4451 -0.5918  0.0294
   34MOL0     C 4370   8.515   0.219   1.912  0.1904  0.5406 -0.6945
   34MOL0     C 4371   8.368   0.200   1.929  0.4578  0.2584  0.7504
   34MOL0     C 4372   8.308   0.111   1.820  0.5020 -0.2491 -0.5066
   34MOL0     N 4373   8.296  -0.023   1.870  0.0780 -0.4011  0.1657
   34MOL0     C 4374   8.181  -0.079   1.913 -0.4159  0.1934  0.4529
   34MOL0     C 4375   8.218  -0.202   1.947  0.5202  0.1452  0.3579
   34MOL0     C 4376   8.138  -0.315   1.999 -0.7694 -1.1334 -0.0560
   34MOL0     C 4377   8.066  -0.376   1.882 -0.1223 -0.4609 -0.0127
   34MOL0     C 4378   7.975  -0.497   1.912 -0.2742 -0.1242 -0.4366
   34MOL0     C 4379   7.922  -0.550   1.778  0.8350  0.0739  0.2091
   34MOL0     O 4380   7.835  -0.658   1.813 -0.4238  0.5574  0.1208
   34MOL0     C 4381   7.694  -0.648   1.793  0.0553 -0.5078  0.5691
   34MOL0     C 4382   7.633  -0.568   1.893 -1.2844 -0.2710  0.3330
   34MOL0     C 4383   7.498  -0.559   1.899  0.1429  0.4174  0.0250
   34MOL0     C 4384   7.414  -0.632   1.808 -0.1356 -0.9127  0.0216
   34MOL0     C 4385   7.272  -0.611   1.825  0.1118  0.1483 -0.5155
   34MOL0     O 4386   7.198  -0.658   1.733  0.0317  0.2406  0.0863
   34MOL0     C 4387   7.068  -0.630   1.731  0.1831  0.1317  0.0233
   34MOL0     C 4388   7.020  -0.528   1.643  1.3188 -0.1343 -0.2760
   34MOL0     C 4389   6.882  -0.489   1.660 -0.1928 -0.4359  0.0805
   34MOL0     C 4390   6.790  -0.545   1.753 -1.0163  0.0449 -0.7761
   34MOL0     O 4391   6.661  -0.519   1.781  0.1164  0.0042 -0.3832
   34MOL0     C 4392   6.601  -0.402   1.718 -0.9530  0.1311  0.1666
   34MOL0     C 4393   6.453  -0.393   1.756  0.4617 -0.3215 -0.1691
   34MOL0     C 4394   6.374  -0.523   1.743  0.0926  0.0936 -0.3542
   34MOL0     C 4395   6.226  -0.472   1.740  0.7006 -0.4177  1.0990
   34MOL0     C 4396   6.158  -0.604   1.710  0.5950 -0.4157  0.0362
   34MOL0     C 4397   6.017  -0.571   1.653  0.4087  0.2637 -0.1172
   34MOL0     C 4398   5.958  -0.687   1.580 -0.0248  0.6723  0.6069
   34MOL0     C 4399   5.846  -0.645   1.495  0.0951  0.4271  0.1585
   34MOL0    Cl 4400   5.912  -0.560   1.356 -0.4096 -0.1988  0.0124
   34MOL0     C 4401   6.844  -0.654   1.826  0.5575 -0.3845  0.3053
   34MOL0     C 4402   6.982  -0.691   1.823  0.9155 -0.1226 -0.6618
   34MOL0     O 4403   7.233  -0.570   1.937 -0.0354 -0.4249  0.5143
   34MOL0     C 4404   7.475  -0.724   1.717  0.3245 -0.9536 -0.7575
   34MOL0     C 4405   7.612  -0.734   1.716 -0.1942  0.2649  0.4431
   34MOL0     N 4406   8.351  -0.208   1.937  0.0979  0.1900 -0.0387
   34MOL0     N 4407   8.406  -0.102   1.883 -0.9234 -0.4042  0.1270
   34MOL0     C 4408   8.381   0.393   1.263  0.1729  0.2180  0.5759
   34MOL0     C 4409   8.270   0.375   1.179 -0.5886 -0.3470 -0.3424
   34MOL0     C 4410   8.011   0.228   0.811  0.2646 -0.5315  0.2233
   34MOL0     C 4411   7.909   0.314   0.866 -0.5496 -0.1883  0.4750
   34MOL0     C 4412   7.778   0.328   0.817  0.3750  1.1095 -0.7755
   34MOL0     C 4413   7.748   0.261   0.700 -0.8708  0.0792  0.4505
   34MOL0     O 4414   7.634   0.249   0.642  0.0871  0.4696 -0.1304
   34MOL0     C 4415   7.520   0.315   0.700 -0.4351  0.9106 -0.4696
   34MOL0     C 4416   7.390   0.240   0.661  0.8575  0.1433  0.0781
   34MOL0     C 4417   7.366   0.234   0.505  0.7776 -0.1412  0.1871
   34MOL0     C 4418   7.324   0.094   0.457 -0.3909  0.0847  0.1707
   34MOL0     C 4419   7.195   0.051   0.505 -0.1620  0.1641  0.2197
   34MOL0     C 4420   7.085   0.020   0.545  0.8166  1.0855 -0.4054
   34MOL0     C 4421   7.844   0.184   0.629  0.3938 -0.0675  0.4636
   34MOL0     C 4422   7.973   0.170   0.686  0.1093  0.4743 -0.3150
   34MOL0     H 4423   8.426   0.205   0.930 -1.1970 -0.5452 -0.2898
   34MOL0     H 4424   8.618   0.213   1.093  1.1316  2.6589  1.0677
   34MOL0     H 4425   8.560   0.260   1.533 -0.9119  0.8239  1.1222
   34MOL0     H 4426   8.513   0.420   1.493 -1.7740 -1.9832  0.6088
   34MOL0     H 4427   8.743   0.502   1.474  1.2894 -0.5933  0.5096
   34MOL0     H 4428   8.800   0.336   1.529 -0.5055 -1.4187 -0.7466
   34MOL0     H 4429   8.664   0.555   1.676 -0.1293 -1.3913 -1.0427
   34MOL0     H 4430   8.815   0.482   1.721  0.1343  0.2117  0.5089
   34MOL0     H 4431   8.711   0.251   1.740  1.2749  0.6288 -1.0706
   34MOL0     H 4432   8.746   0.361   1.864  2.5725  0.1258 -2.1131
   34MOL0     H 4433   8.478   0.345   1.734  1.0147  1.9415 -0.8242
   34MOL0     H 4434   8.520   0.436   1.881  2.5607  0.8233 -1.4967
   34MOL0     H 4435   8.572   0.230   2.004  1.2469  1.1152 -1.3984
   34MOL0     H 4436   8.559   0.129   1.867 -1.0109 -1.5194  1.9542
   34MOL0     H 4437   8.350   0.162   2.029 -2.4915 -0.4551  0.0368
   34MOL0     H 4438   8.320   0.298   1.932  1.9433  1.0804 -0.4664
   34MOL0     H 4439   8.372   0.118   1.731  0.1598 -3.5052 -1.1290
   34MOL0     H 4440   8.208   0.141   1.788  0.4784 -0.6021 -0.7703
   34MOL0     H 4441   8.076  -0.053   1.921 -0.3053  0.5795  0.6998
   34MOL0     H 4442   8.078  -0.276   2.081  1.4241 -1.8000  1.9880
   34MOL0     H 4443   8.201  -0.396   2.035  1.9839 -0.7042 -3.3889
   34MOL0     H 4444   8.147  -0.411   1.819  0.6503 -0.6163  1.0424
   34MOL0     H 4445   7.994  -0.309   1.834 -3.4328 -3.6279  0.0657
   34MOL0     H 4446   8.043  -0.574   1.951 -2.1285 -1.7413 -0.2685
   34MOL0     H 4447   7.898  -0.471   1.985  1.0577  1.5717  0.4437
   34MOL0     H 4448   8.002  -0.582   1.711  2.2549  1.2881  1.2484
   34MOL0     H 4449   7.870  -0.467   1.730  1.0461  0.1464  0.1109
   34MOL0     H 4450   7.691  -0.512   1.965  2.7677 -4.8009  1.1106
   34MOL0     H 4451   7.456  -0.491   1.973  1.4099  0.3360  0.8548
   34MOL0     H 4452   7.091  -0.497   1.567  0.8779  1.7082  0.0294
   34MOL0     H 4453   6.844  -0.417   1.588  0.5134 -0.6039 -0.4711
   34MOL0     H 4454   6.613  -0.426   1.612 -3.6809  0.8249 -0.3742
   34MOL0     H 4455   6.646  -0.305   1.743  1.6664 -1.5250  2.4511
   34MOL0     H 4456   6.409  -0.315   1.693  0.7251  0.3754  0.5007
   34MOL0     H 4457   6.455  -0.355   1.858 -2.7158  2.6734 -1.0316
   34MOL0     H 4458   6.398  -0.592   1.825  2.0091  0.2493 -0.7289
   34MOL0     H 4459   6.403  -0.579   1.653 -0.5344 -0.6694 -0.0965
   34MOL0     H 4460   6.191  -0.417   1.828 -1.7110  1.5177 -0.9132
   34MOL0     H 4461   6.206  -0.415   1.648 -0.4131  0.0780  1.6286
   34MOL0     H 4462   6.164  -0.669   1.798  1.8614 -1.5758 -0.8606
   34MOL0     H 4463   6.207  -0.670   1.637 -2.0473 -1.3204 -1.0565
   34MOL0     H 4464   6.034  -0.485   1.587  0.7044  0.3586  0.0777
   34MOL0     H 4465   5.954  -0.537   1.736  2.1844  3.8843 -0.0416
   34MOL0     H 4466   6.040  -0.734   1.526 -0.2965  2.4798 -1.5347
   34MOL0     H 4467   5.920  -0.759   1.652 -0.6356  1.1073  0.7323
   34MOL0     H 4468   5.778  -0.571   1.540 -3.7284 -0.6365 -3.1648
   34MOL0     H 4469   5.788  -0.727   1.452  0.5519 -0.8037  1.8351
   34MOL0     H 4470   6.768  -0.706   1.883 -3.8677  3.3789 -1.6086
   34MOL0     H 4471   7.004  -0.779   1.882 -1.2227  0.2553  0.8638
   34MOL0     H 4472   7.424  -0.787   1.645  1.4895 -1.4416 -1.1896
   34MOL0     H 4473   7.653  -0.804   1.643  4.2621  4.7506 -1.9213
   34MOL0     H 4474   8.364   0.471   1.336  0.1477  3.3506 -2.5594
   34MOL0     H 4475   8.177   0.428   1.197 -0.5808  0.6227 -2.7790
   34MOL0     H 4476   7.929   0.375   0.953  1.8364  0.4087 -0.4068
   34MOL0     H 4477   7.702   0.388   0.867 -0.9331 -1.2462  0.2526
   34MOL0     H 4478   7.511   0.422   0.678  0.4029  1.4121  1.4089
   34MOL0     H 4479   7.517   0.300   0.808 -1.9467 -1.0388 -0.7274
   34MOL0     H 4480   7.388   0.138   0.701 -0.6598  0.3426  0.5890
   34MOL0     H 4481   7.302   0.287   0.706 -0.3353 -1.8452 -0.0952
   34MOL0     H 4482   7.455   0.266   0.450 -0.5586  1.3410 -1.2243
   34MOL0     H 4483   7.283   0.299   0.478  0.8243  0.1959  0.8203
   34MOL0     H 4484   7.331   0.083   0.348  3.0895 -1.5162  0.4365
   34MOL0     H 4485   7.395   0.021   0.495  1.6593  1.3979 -0.9223
   34MOL0     H 4486   6.989  -0.021   0.567  1.4451 -0.1769  0.1200
   34MOL0     H 4487   7.814   0.130   0.540 -1.8204 -0.9462  1.6644
   34MOL0     H 4488   8.040   0.099   0.638  0.9110  0.6810  0.4619
   35MOL0     O 4489   2.330   4.574   9.442 -0.6867 -0.1778 -0.0228
   35MOL0     C 4490   2.326   4.682   9.378 -1.3372 -0.2760  0.5746
   35MOL0     O 4491   2.229   4.725   9.297  0.1794 -0.2353  0.8864
   35MOL0     C 4492   2.107   4.670   9.295  0.4146  0.1506  0.2693
   35MOL0     C 4493   2.034   4.678   9.180 -0.3611 -0.7855 -0.3381
   35MOL0     C 4494   1.900   4.648   9.188  0.3164 -0.2353  0.3835
   35MOL0     C 4495   1.828   4.615   9.299  0.0230 -0.2050 -1.0168
   35MOL0     O 4496   1.695   4.576   9.281  0.2252 -0.3013  0.3908
   35MOL0     C 4497   1.615   4.600   9.408 -0.6190 -0.4273  0.4471
   35MOL0     C 4498   1.470   4.593   9.375 -0.0197  0.2357  0.2095
   35MOL0     C 4499   1.431   4.710   9.288 -0.4766 -0.3018 -0.7494
   35MOL0     C 4500   1.279   4.713   9.284 -0.1367 -0.1147 -0.3637
   35MOL0     C 4501   1.232   4.816   9.183 -0.3726  0.5668  0.8217
   35MOL0     C 4502   1.078   4.821   9.165  0.2319 -0.1941 -0.9072
   35MOL0     C 4503   1.049   4.914   9.046  0.0101  0.0256 -0.2124
   35MOL0     C 4504   0.910   4.891   8.986  1.3238 -0.1734 -0.0893
   35MOL0     N 4505   0.800   4.939   9.080 -1.0119 -0.2849  0.4145
   35MOL0     C 4506   0.741   5.064   9.072  0.0894 -0.5276 -0.2119
   35MOL0     C 4507   0.654   5.066   9.176 -0.4137  0.1341 -0.2894
   35MOL0     C 4508   0.567   5.178   9.218 -0.1171 -1.0832  0.5133
   35MOL0     C 4509   0.422   5.154   9.183 -0.1590 -0.3649  0.3080
   35MOL0     C 4510   0.396   5.188   9.034 -0.3090  0.6041 -0.0914
   35MOL0     C 4511   0.433   5.329   8.985 -0.4729  0.6058  1.9883
   35MOL0     O 4512   0.384   5.426   9.084  0.2946  0.6064 -0.2927
   35MOL0     C 4513   0.265   5.483   9.056  0.0850 -0.6132 -0.4386
   35MOL0     C 4514   0.248   5.604   9.131 -0.2605 -0.5542 -0.1708
   35MOL0     C 4515   0.138   5.692   9.119 -0.7606 -1.1052 -0.5179
   35MOL0     C 4516   0.042   5.659   9.029  0.4880 -0.5730 -0.4613
   35MOL0     C 4517  -0.075   5.756   9.013 -0.7928  0.5222  0.1132
   35MOL0     O 4518  -0.089   5.846   9.118 -0.2209 -0.2559 -0.4605
   35MOL0     C 4519  -0.186   5.933   9.100  0.1237 -0.0963 -0.9553
   35MOL0     C 4520  -0.260   5.965   9.210  0.1898  0.1802  0.3524
   35MOL0     C 4521  -0.351   6.077   9.205  0.8137  0.1763  0.4847
   35MOL0     C 4522  -0.371   6.161   9.089 -0.2469  0.5056  1.5329
   35MOL0     O 4523  -0.456   6.270   9.086  0.2489  0.3380 -0.6468
   35MOL0     C 4524  -0.384   6.396   9.081 -0.3628  0.3269 -0.3244
   35MOL0     C 4525  -0.398   6.475   9.208 -0.1912 -0.3984  0.1858
   35MOL0     C 4526  -0.550   6.527   9.207  0.5720  0.1600 -0.1235
   35MOL0     C 4527  -0.586   6.629   9.309  0.6981 -0.2181 -0.7425
   35MOL0     C 4528  -0.706   6.717   9.280 -0.2014 -0.3430  0.1035
   35MOL0     C 4529  -0.735   6.794   9.408  0.7687  0.9657  0.7824
   35MOL0     C 4530  -0.641   6.882   9.491 -0.9302 -0.7039 -0.2223
   35MOL0     C 4531  -0.591   7.008   9.417 -0.0990 -0.5716 -0.7463
   35MOL0    Cl 4532  -0.733   7.110   9.372  0.2551  0.1688  0.0103
   35MOL0     C 4533  -0.289   6.128   8.983 -0.4769  0.2416 -0.0515
   35MOL0     C 4534  -0.200   6.019   8.986 -0.6164 -0.3456  0.6965
   35MOL0     O 4535  -0.128   5.751   8.902  0.4815 -0.4515 -1.0306
   35MOL0     C 4536   0.052   5.540   8.948  1.2498 -0.1342 -1.2060
   35MOL0     C 4537   0.154   5.449   8.967 -0.5245 -0.3725  0.1678
   35MOL0     N 4538   0.649   4.941   9.233  0.2105  0.0721 -0.0642
   35MOL0     N 4539   0.741   4.866   9.177 -0.6445  0.4038 -0.5166
   35MOL0     C 4540   1.903   4.620   9.421  0.8250  0.7371 -0.4689
   35MOL0     C 4541   2.044   4.642   9.419 -0.1957  0.7556  0.1178
   35MOL0     C 4542   2.440   4.784   9.398 -0.1918  0.7608 -0.0357
   35MOL0     C 4543   2.431   4.923   9.364  0.1133  0.4363  0.5607
   35MOL0     C 4544   2.542   5.012   9.384  0.1036  0.4141  0.3479
   35MOL0     C 4545   2.661   4.962   9.439  0.1884  0.2928 -0.4346
   35MOL0     O 4546   2.776   5.033   9.481 -0.1971 -0.5288 -0.1121
   35MOL0     C 4547   2.793   5.170   9.431  0.3344  0.0940 -0.0288
   35MOL0     C 4548   2.941   5.210   9.440 -0.3628  0.9437 -0.4965
   35MOL0     C 4549   2.973   5.352   9.392 -0.4949  0.5852 -0.5186
   35MOL0     C 4550   2.968   5.353   9.238 -0.1112  0.3410 -0.1493
   35MOL0     C 4551   3.017   5.482   9.185  0.5745 -0.0078  0.1863
   35MOL0     C 4552   3.050   5.585   9.138 -0.3139  0.6397 -0.2843
   35MOL0     C 4553   2.673   4.828   9.475  0.6509 -0.2070  0.5970
   35MOL0     C 4554   2.557   4.743   9.468 -0.2728 -0.3356 -0.2669
   35MOL0     H 4555   2.074   4.704   9.082 -2.1014 -0.8299 -1.1023
   35MOL0     H 4556   1.861   4.628   9.089  1.4667 -0.3308 -0.0631
   35MOL0     H 4557   1.651   4.696   9.446  2.6774 -2.4142  2.9174
   35MOL0     H 4558   1.630   4.522   9.483  0.1491 -0.6271  0.0941
   35MOL0     H 4559   1.425   4.593   9.474  3.0732 -2.4720  1.8007
   35MOL0     H 4560   1.444   4.497   9.330  0.8381 -0.4204  1.0896
   35MOL0     H 4561   1.478   4.694   9.190 -0.1045 -0.1661 -0.5950
   35MOL0     H 4562   1.473   4.802   9.330 -1.9665 -0.0959  0.3536
   35MOL0     H 4563   1.235   4.619   9.251 -1.9898  1.0414 -1.4056
   35MOL0     H 4564   1.242   4.735   9.384 -1.8061  0.3177 -1.0468
   35MOL0     H 4565   1.283   4.788   9.090  1.4740  3.3672  0.8903
   35MOL0     H 4566   1.280   4.913   9.199  0.9884  0.4434 -1.9043
   35MOL0     H 4567   1.042   4.845   9.265 -0.0550 -5.2925  0.4911
   35MOL0     H 4568   1.046   4.717   9.154 -0.1507 -0.2072  0.2345
   35MOL0     H 4569   1.045   5.019   9.076 -2.2539 -0.4276  1.3764
   35MOL0     H 4570   1.122   4.892   8.968  1.2088 -2.6900  1.4944
   35MOL0     H 4571   0.896   4.784   8.970  0.2742  0.1396 -1.4259
   35MOL0     H 4572   0.907   4.938   8.887  0.5966 -0.0243 -0.0007
   35MOL0     H 4573   0.764   5.148   9.008  0.6237 -2.4939 -2.7949
   35MOL0     H 4574   0.596   5.278   9.184 -4.3286 -0.1959 -1.1219
   35MOL0     H 4575   0.562   5.192   9.326 -0.6501 -0.6395  0.4402
   35MOL0     H 4576   0.360   5.217   9.248  1.3917 -0.5629  2.0692
   35MOL0     H 4577   0.402   5.047   9.195 -1.1974 -0.2479 -0.3159
   35MOL0     H 4578   0.445   5.116   8.968 -2.6972 -2.4405  1.2291
   35MOL0     H 4579   0.289   5.170   9.023 -0.1099 -0.9349  0.2651
   35MOL0     H 4580   0.394   5.350   8.885  2.0938  2.3739  1.2448
   35MOL0     H 4581   0.539   5.329   8.959 -1.3602  2.0944 -2.7905
   35MOL0     H 4582   0.321   5.633   9.205 -1.6473  0.9603  0.6541
   35MOL0     H 4583   0.138   5.780   9.182  3.7691 -2.5088  1.9060
   35MOL0     H 4584  -0.270   5.914   9.305  1.6060 -1.2974 -0.2364
   35MOL0     H 4585  -0.396   6.091   9.303  0.8708 -2.3461  0.9202
   35MOL0     H 4586  -0.421   6.443   8.990 -0.1673 -2.9288 -2.2366
   35MOL0     H 4587  -0.279   6.396   9.050 -0.3595 -1.1267 -0.3826
   35MOL0     H 4588  -0.330   6.560   9.220  3.6831 -3.4799  2.7925
   35MOL0     H 4589  -0.383   6.427   9.305 -0.7621  0.0947  0.5270
   35MOL0     H 4590  -0.624   6.449   9.227  0.7557 -0.2489 -0.9629
   35MOL0     H 4591  -0.572   6.570   9.108 -0.6100  0.5808  0.3074
   35MOL0     H 4592  -0.597   6.567   9.398  0.5975  1.1160  0.2050
   35MOL0     H 4593  -0.499   6.694   9.328  0.2783  0.2733 -0.4942
   35MOL0     H 4594  -0.787   6.649   9.253 -1.2550  1.3380 -1.1299
   35MOL0     H 4595  -0.668   6.771   9.192 -1.2478 -0.8796 -0.6895
   35MOL0     H 4596  -0.764   6.714   9.477  2.9491  2.2594  3.3783
   35MOL0     H 4597  -0.828   6.841   9.372 -3.3576 -5.7638  0.8898
   35MOL0     H 4598  -0.696   6.918   9.579  1.2254 -3.4993  2.4613
   35MOL0     H 4599  -0.556   6.825   9.529 -0.0887  0.7087  0.1110
   35MOL0     H 4600  -0.545   6.979   9.322  0.5270 -0.0870 -0.5998
   35MOL0     H 4601  -0.532   7.066   9.488  2.5307 -2.6227 -1.1127
   35MOL0     H 4602  -0.313   6.183   8.892 -1.1169  0.4639  0.2444
   35MOL0     H 4603  -0.143   5.982   8.901 -1.9553 -0.4842 -0.1619
   35MOL0     H 4604  -0.034   5.527   8.883 -1.0314  1.9716  1.1963
   35MOL0     H 4605   0.157   5.357   8.910 -1.3872  0.1643 -0.7837
   35MOL0     H 4606   1.848   4.594   9.510  1.2338  1.7880  0.1115
   35MOL0     H 4607   2.099   4.644   9.513 -0.1874  0.1759  0.1341
   35MOL0     H 4608   2.342   4.964   9.317  1.3519  3.4300  0.6266
   35MOL0     H 4609   2.536   5.116   9.355 -0.8364 -0.0276 -1.1426
   35MOL0     H 4610   2.739   5.249   9.484 -1.6208 -0.2510 -1.3848
   35MOL0     H 4611   2.766   5.169   9.325 -0.0118 -0.2245  0.0582
   35MOL0     H 4612   2.975   5.199   9.543 -0.9743 -1.9011 -0.5034
   35MOL0     H 4613   3.007   5.141   9.386  0.0127  2.1809 -1.6757
   35MOL0     H 4614   3.074   5.374   9.428  0.6012 -1.7765 -1.9311
   35MOL0     H 4615   2.898   5.418   9.437  0.3121  2.4701 -1.8126
   35MOL0     H 4616   3.039   5.281   9.197 -2.3760 -1.9961 -0.1732
   35MOL0     H 4617   2.863   5.337   9.210 -0.0813  1.1406 -0.7747
   35MOL0     H 4618   3.082   5.676   9.092 -0.3352 -0.4037 -2.4844
   35MOL0     H 4619   2.758   4.793   9.532 -0.5425 -1.2277  1.8210
   35MOL0     H 4620   2.546   4.646   9.515 -0.4200 -0.2292 -0.0857
   36MOL0     O 4621   7.074   2.796   1.263  0.3074  0.0373 -0.4416
   36MOL0     C 4622   7.120   2.907   1.295 -0.2351  0.2283 -1.3320
   36MOL0     O 4623   7.067   3.022   1.267 -0.3037 -0.0647  0.7756
   36MOL0     C 4624   6.941   3.047   1.214  0.2449  0.1925 -0.1566
   36MOL0     C 4625   6.909   3.183   1.227 -0.5003 -0.5087  0.6232
   36MOL0     C 4626   6.778   3.226   1.188  0.3525  0.6534 -0.1673
   36MOL0     C 4627   6.685   3.130   1.127  0.4393 -0.4634  0.3078
   36MOL0     O 4628   6.557   3.167   1.081  0.0690  0.0498 -0.1553
   36MOL0     C 4629   6.539   3.288   0.992  0.3906 -0.0522  0.1837
   36MOL0     C 4630   6.493   3.248   0.856  0.1242 -0.1448 -0.1175
   36MOL0     C 4631   6.343   3.202   0.854  0.4142 -0.3157  1.0705
   36MOL0     C 4632   6.292   3.183   0.709 -0.3545  0.9888 -0.6422
   36MOL0     C 4633   6.167   3.085   0.712  0.5783 -0.4855  0.1459
   36MOL0     C 4634   6.092   3.080   0.573  1.0774 -0.1624 -0.0827
   36MOL0     C 4635   5.966   2.995   0.590 -0.5034 -0.0918  0.4762
   36MOL0     C 4636   5.896   2.989   0.452  0.0991  0.6835 -0.9087
   36MOL0     N 4637   5.797   2.878   0.440 -0.1004  0.6744  0.5490
   36MOL0     C 4638   5.691   2.869   0.523  0.0657 -0.1219  0.0126
   36MOL0     C 4639   5.613   2.773   0.461 -0.8077 -0.3209 -0.5406
   36MOL0     C 4640   5.484   2.722   0.525  0.2544  0.3443  0.5061
   36MOL0     C 4641   5.366   2.767   0.451 -0.7991  0.5892  0.3798
   36MOL0     C 4642   5.241   2.677   0.468  0.3752 -0.5872 -0.3738
   36MOL0     C 4643   5.136   2.736   0.367  0.1933  0.0238 -0.4100
   36MOL0     O 4644   5.011   2.665   0.386 -0.6970  0.1599 -0.5408
   36MOL0     C 4645   4.942   2.647   0.269  0.1595 -0.4504 -0.2867
   36MOL0     C 4646   4.864   2.539   0.264 -0.3793  1.6345  0.7889
   36MOL0     C 4647   4.788   2.503   0.151 -0.1652 -0.4577 -0.3651
   36MOL0     C 4648   4.793   2.582   0.033  0.6860 -0.2082 -0.0549
   36MOL0     C 4649   4.714   2.544  -0.088 -0.3531  0.1615 -0.2260
   36MOL0     O 4650   4.764   2.578  -0.211 -0.3486 -0.0630  0.6415
   36MOL0     C 4651   4.680   2.549  -0.323 -0.2617  0.6216 -0.4641
   36MOL0     C 4652   4.747   2.498  -0.433 -0.5074  0.3356  0.2818
   36MOL0     C 4653   4.694   2.492  -0.562 -0.0634 -0.1525 -0.3911
   36MOL0     C 4654   4.552   2.515  -0.569 -0.4529  0.7109  0.4965
   36MOL0     O 4655   4.476   2.470  -0.672  0.5912  0.2725 -0.3280
   36MOL0     C 4656   4.493   2.332  -0.706  0.3951 -0.1645 -0.3986
   36MOL0     C 4657   4.382   2.303  -0.811 -0.6440  0.4853 -0.3963
   36MOL0     C 4658   4.419   2.378  -0.934 -0.3675  0.2572  0.0470
   36MOL0     C 4659   4.344   2.334  -1.058 -0.6823  0.1536  0.0787
   36MOL0     C 4660   4.386   2.415  -1.185 -0.2211 -0.0157 -0.8177
   36MOL0     C 4661   4.298   2.400  -1.305  0.0811 -0.7808 -0.4593
   36MOL0     C 4662   4.301   2.250  -1.350 -1.0614  0.3027 -0.0347
   36MOL0     C 4663   4.447   2.200  -1.383  0.5487 -0.2297 -0.1860
   36MOL0    Cl 4664   4.527   2.317  -1.494 -0.2375  0.0915 -0.3381
   36MOL0     C 4665   4.484   2.548  -0.451  0.6042  0.1384 -0.2005
   36MOL0     C 4666   4.543   2.573  -0.328 -0.6114 -0.2036 -0.0959
   36MOL0     O 4667   4.622   2.463  -0.071  0.3333  0.3647 -1.1267
   36MOL0     C 4668   4.864   2.704   0.045  0.0013 -0.0395 -0.2133
   36MOL0     C 4669   4.946   2.731   0.154  0.0994  0.2358  0.1528
   36MOL0     N 4670   5.683   2.727   0.356 -0.6239  0.9286  0.6729
   36MOL0     N 4671   5.794   2.795   0.335  0.7252  0.3020  0.2665
   36MOL0     C 4672   6.729   2.999   1.116  0.4390  0.1988 -0.5307
   36MOL0     C 4673   6.851   2.955   1.164  0.0683 -0.0834 -0.7856
   36MOL0     C 4674   7.247   2.906   1.355 -0.4906  0.3775 -0.5086
   36MOL0     C 4675   7.310   3.030   1.381 -0.3329  1.3686 -0.6675
   36MOL0     C 4676   7.445   3.038   1.423  0.3744  0.8621 -0.1574
   36MOL0     C 4677   7.517   2.922   1.462 -0.0584 -0.1616  0.7851
   36MOL0     O 4678   7.642   2.927   1.515  0.1453 -0.3793  0.5509
   36MOL0     C 4679   7.665   3.030   1.616 -0.0470  0.0492 -0.4459
   36MOL0     C 4680   7.802   3.096   1.588 -0.4114  0.9417 -0.0607
   36MOL0     C 4681   7.927   3.002   1.578 -0.2567  0.4965 -0.0162
   36MOL0     C 4682   8.056   3.081   1.610  0.0179  0.2370  0.5823
   36MOL0     C 4683   8.165   2.975   1.593 -0.2471  0.1972 -1.0084
   36MOL0     C 4684   8.258   2.896   1.606 -1.0374  0.1690  0.0828
   36MOL0     C 4685   7.450   2.796   1.444  0.0842 -0.0635  0.3091
   36MOL0     C 4686   7.328   2.791   1.381 -0.6089  0.7231 -0.3669
   36MOL0     H 4687   6.983   3.246   1.275 -0.6653  1.1970 -1.1826
   36MOL0     H 4688   6.768   3.332   1.211  1.5644  0.3919  1.7363
   36MOL0     H 4689   6.634   3.342   0.979  0.4112  0.0824  0.8748
   36MOL0     H 4690   6.465   3.353   1.039  0.8127 -0.5426  1.5762
   36MOL0     H 4691   6.565   3.175   0.818  1.1717  1.6009 -1.6222
   36MOL0     H 4692   6.495   3.336   0.792 -2.0282 -0.5775 -0.8660
   36MOL0     H 4693   6.283   3.277   0.905 -1.6938 -0.3364 -1.2078
   36MOL0     H 4694   6.329   3.108   0.908  0.1773 -1.3414 -0.6921
   36MOL0     H 4695   6.271   3.284   0.673 -1.4057  0.2939 -2.0700
   36MOL0     H 4696   6.372   3.142   0.646  1.8270  2.6701  0.8469
   36MOL0     H 4697   6.096   3.124   0.786  1.6378  1.2414  0.2985
   36MOL0     H 4698   6.202   2.984   0.735  1.7541  0.0813  1.0033
   36MOL0     H 4699   6.166   3.047   0.500 -1.1657 -1.8975 -1.7046
   36MOL0     H 4700   6.075   3.185   0.548  2.1137  0.5517  1.9404
   36MOL0     H 4701   6.003   2.895   0.613 -0.7110 -0.8236 -2.1005
   36MOL0     H 4702   5.896   3.025   0.669  0.2136  2.0983  0.3600
   36MOL0     H 4703   5.978   2.983   0.380  0.7985  1.8081 -0.2351
   36MOL0     H 4704   5.846   3.085   0.441 -1.6301 -0.4562 -5.0365
   36MOL0     H 4705   5.666   2.914   0.618 -0.8304 -2.4090  0.9315
   36MOL0     H 4706   5.484   2.748   0.631  1.0353  1.8853  0.1538
   36MOL0     H 4707   5.468   2.618   0.497 -3.6325  1.3219 -1.6894
   36MOL0     H 4708   5.385   2.766   0.343 -0.1188 -1.1497  0.4930
   36MOL0     H 4709   5.348   2.872   0.476  2.9362  0.6433  3.9704
   36MOL0     H 4710   5.257   2.576   0.430 -0.8729 -1.6315  1.6949
   36MOL0     H 4711   5.201   2.673   0.570  0.5027 -0.3500 -0.3154
   36MOL0     H 4712   5.183   2.715   0.270 -0.8907 -2.7711 -0.4153
   36MOL0     H 4713   5.121   2.842   0.386 -1.3153 -0.6399  2.7763
   36MOL0     H 4714   4.867   2.454   0.331 -0.4126 -2.3677 -3.7207
   36MOL0     H 4715   4.732   2.410   0.156 -1.4248  0.3312  0.4705
   36MOL0     H 4716   4.854   2.482  -0.426 -0.4915  0.4496  0.3002
   36MOL0     H 4717   4.763   2.466  -0.642 -0.9889 -1.5701 -0.7742
   36MOL0     H 4718   4.456   2.268  -0.626  5.0663 -0.8331  1.5149
   36MOL0     H 4719   4.596   2.306  -0.734  1.5174  2.9880  0.4056
   36MOL0     H 4720   4.285   2.346  -0.786 -0.8775  0.1329 -0.6957
   36MOL0     H 4721   4.375   2.195  -0.827 -0.1578  0.8373 -3.7141
   36MOL0     H 4722   4.524   2.362  -0.961 -0.0642  0.2624  1.1698
   36MOL0     H 4723   4.401   2.486  -0.924 -0.3279  0.7950 -4.0101
   36MOL0     H 4724   4.368   2.228  -1.073 -0.0368 -0.0464  2.1911
   36MOL0     H 4725   4.239   2.342  -1.031 -0.2490  1.7392  1.4672
   36MOL0     H 4726   4.490   2.396  -1.212 -0.2387  0.0784 -0.9509
   36MOL0     H 4727   4.381   2.520  -1.155  5.6304  0.2235  0.3754
   36MOL0     H 4728   4.339   2.471  -1.378 -3.0695  0.3753 -1.2517
   36MOL0     H 4729   4.198   2.430  -1.272 -1.0451 -2.9608 -1.7190
   36MOL0     H 4730   4.256   2.181  -1.278  1.5054 -2.9924 -1.3094
   36MOL0     H 4731   4.237   2.241  -1.438 -1.1902  1.0872 -0.0255
   36MOL0     H 4732   4.441   2.099  -1.426 -2.0404  0.1563 -0.9067
   36MOL0     H 4733   4.509   2.201  -1.292 -0.5732  2.4490  0.6291
   36MOL0     H 4734   4.376   2.545  -0.461  0.5929  1.2552 -0.5843
   36MOL0     H 4735   4.492   2.603  -0.237  1.7064  1.0784  0.8745
   36MOL0     H 4736   4.876   2.759  -0.048 -2.1145  0.5830 -0.1656
   36MOL0     H 4737   5.010   2.819   0.147  0.1857  0.3500  1.9527
   36MOL0     H 4738   6.651   2.934   1.076 -0.7020  2.3595 -2.0200
   36MOL0     H 4739   6.872   2.849   1.173 -0.3855 -0.5181 -3.8170
   36MOL0     H 4740   7.260   3.122   1.352  1.8714  2.6807 -0.5211
   36MOL0     H 4741   7.494   3.134   1.433  0.7335  0.5731  0.9539
   36MOL0     H 4742   7.677   2.973   1.709 -0.8201  1.2545  0.4345
   36MOL0     H 4743   7.580   3.096   1.635 -0.6989 -1.7281  3.8372
   36MOL0     H 4744   7.802   3.155   1.496  1.5440 -1.9585 -2.1182
   36MOL0     H 4745   7.820   3.171   1.666  1.8409  0.3473  0.0834
   36MOL0     H 4746   7.927   2.947   1.484  2.2001  0.0868  0.1754
   36MOL0     H 4747   7.925   2.916   1.645  1.5264 -0.0515 -0.6028
   36MOL0     H 4748   8.071   3.152   1.527 -0.7960  0.6005  0.7383
   36MOL0     H 4749   8.058   3.132   1.707  3.0835 -3.6751  2.8902
   36MOL0     H 4750   8.338   2.825   1.612 -0.8832  0.2062 -1.2291
   36MOL0     H 4751   7.504   2.708   1.477 -0.0301 -0.6920 -1.0724
   36MOL0     H 4752   7.274   2.700   1.355 -3.2427  1.6091  1.5533
   37MOL0     O 4753   4.950   7.726   6.245 -0.1418 -0.1497  0.1744
   37MOL0     C 4754   4.953   7.813   6.332  0.1855 -0.5233  0.1403
   37MOL0     O 4755   4.870   7.839   6.431 -0.5491  0.0932 -0.1104
   37MOL0     C 4756   4.754   7.768   6.442  0.5800  0.3378 -0.1251
   37MOL0     C 4757   4.630   7.824   6.405 -0.1239 -1.4443  0.0527
   37MOL0     C 4758   4.511   7.751   6.437 -0.8746 -0.0889  0.6417
   37MOL0     C 4759   4.511   7.625   6.485 -0.8840  0.1350 -0.9502
   37MOL0     O 4760   4.384   7.573   6.508 -0.1191  0.6879  1.0260
   37MOL0     C 4761   4.384   7.442   6.568  0.4696 -0.0568 -0.4520
   37MOL0     C 4762   4.245   7.406   6.622 -1.0386  0.2992  0.4905
   37MOL0     C 4763   4.185   7.517   6.704 -0.7160  0.2280 -0.3285
   37MOL0     C 4764   4.058   7.463   6.768 -0.5530 -0.5650 -0.0844
   37MOL0     C 4765   3.989   7.581   6.842 -0.3525  0.8513 -0.8456
   37MOL0     C 4766   3.842   7.554   6.895 -0.1034 -0.9870 -0.2725
   37MOL0     C 4767   3.807   7.672   6.985 -0.2470  0.6167 -0.0396
   37MOL0     C 4768   3.664   7.646   7.041  0.4752  0.6905  0.1523
   37MOL0     N 4769   3.619   7.741   7.141  0.8753 -0.2664 -0.5353
   37MOL0     C 4770   3.590   7.875   7.119 -1.1297 -0.1818 -0.1245
   37MOL0     C 4771   3.557   7.919   7.247  0.6760 -0.9424 -0.0108
   37MOL0     C 4772   3.509   8.060   7.285  0.0381 -0.4716  0.2654
   37MOL0     C 4773   3.395   8.101   7.195  0.1129  0.5892 -0.0523
   37MOL0     C 4774   3.394   8.259   7.175 -0.1857 -0.1304  0.2107
   37MOL0     C 4775   3.260   8.312   7.131 -0.5190  0.0490  0.4995
   37MOL0     O 4776   3.214   8.239   7.012  0.1290  0.4136 -0.0825
   37MOL0     C 4777   3.076   8.255   6.985 -0.0298 -1.2079 -1.2667
   37MOL0     C 4778   3.013   8.150   6.923 -0.4535  0.4291  0.8275
   37MOL0     C 4779   2.878   8.148   6.893  0.1683  0.5467 -0.3006
   37MOL0     C 4780   2.796   8.246   6.920 -0.0087 -0.4722  0.4688
   37MOL0     C 4781   2.662   8.258   6.884 -0.6396  0.9701 -0.1542
   37MOL0     O 4782   2.598   8.377   6.897 -0.4865  0.1570  0.4623
   37MOL0     C 4783   2.460   8.375   6.873 -0.1891 -0.2403  0.8244
   37MOL0     C 4784   2.375   8.405   6.978 -0.9000 -0.2878 -0.9455
   37MOL0     C 4785   2.235   8.419   6.969  0.2396 -0.5841  0.3635
   37MOL0     C 4786   2.181   8.401   6.838 -0.4253  0.0728  0.2130
   37MOL0     O 4787   2.048   8.403   6.843 -0.7154 -0.4100  0.7294
   37MOL0     C 4788   1.971   8.344   6.729 -0.0875 -0.4734  0.1760
   37MOL0     C 4789   1.834   8.282   6.782 -0.6929  0.0171 -0.7400
   37MOL0     C 4790   1.754   8.399   6.838  0.1800  0.6359  0.0582
   37MOL0     C 4791   1.795   8.445   6.978 -0.0722  0.0068  0.3910
   37MOL0     C 4792   1.697   8.501   7.079 -0.2948 -0.6812  0.5213
   37MOL0     C 4793   1.714   8.664   7.072 -0.1246 -0.3381  0.6170
   37MOL0     C 4794   1.620   8.723   7.174  0.4051 -0.1786  0.0731
   37MOL0     C 4795   1.660   8.867   7.221 -0.6806  0.4039 -0.4413
   37MOL0    Cl 4796   1.528   8.912   7.347 -0.1748 -0.1682 -0.2601
   37MOL0     C 4797   2.263   8.364   6.727  2.1536  0.2391 -0.5829
   37MOL0     C 4798   2.394   8.350   6.749  0.5296 -0.8135  0.4107
   37MOL0     O 4799   2.607   8.155   6.851  0.2968 -0.0947  0.2894
   37MOL0     C 4800   2.863   8.359   6.991  0.3630  0.2881 -0.0387
   37MOL0     C 4801   2.995   8.356   7.032 -0.3559  0.1668 -0.4790
   37MOL0     N 4802   3.551   7.805   7.326 -0.1437  0.1688 -0.1289
   37MOL0     N 4803   3.579   7.703   7.266 -0.9980  0.2861  0.1965
   37MOL0     C 4804   4.637   7.579   6.534  0.5119 -0.2703 -0.3813
   37MOL0     C 4805   4.759   7.641   6.508  0.2894 -1.1787 -0.8299
   37MOL0     C 4806   5.055   7.927   6.312 -0.2698 -0.3186  0.7339
   37MOL0     C 4807   5.080   8.031   6.403  0.6487  0.0051 -0.6565
   37MOL0     C 4808   5.161   8.140   6.385 -0.8452  0.2350  0.3483
   37MOL0     C 4809   5.228   8.144   6.263  0.0702  0.8661 -0.7447
   37MOL0     O 4810   5.308   8.239   6.203  0.7749  0.3910  0.4881
   37MOL0     C 4811   5.322   8.356   6.280  0.3995 -0.3590 -0.5745
   37MOL0     C 4812   5.412   8.449   6.208 -0.1909 -0.5781  0.3472
   37MOL0     C 4813   5.552   8.393   6.177 -0.8705  0.7231 -0.7024
   37MOL0     C 4814   5.625   8.494   6.108  0.1508 -0.1585  0.0035
   37MOL0     C 4815   5.765   8.460   6.108  0.2140 -0.5112  0.1055
   37MOL0     C 4816   5.887   8.475   6.091  0.0089 -0.3572 -0.5278
   37MOL0     C 4817   5.200   8.047   6.158 -0.9434 -0.1353 -0.3435
   37MOL0     C 4818   5.129   7.931   6.188 -0.1464  0.8627 -0.5685
   37MOL0     H 4819   4.624   7.924   6.361  0.7523 -0.1621  2.6792
   37MOL0     H 4820   4.414   7.788   6.406 -0.1630  1.4776  0.2101
   37MOL0     H 4821   4.458   7.424   6.646 -0.7382 -2.1378  0.2947
   37MOL0     H 4822   4.414   7.374   6.488  2.8606  1.5407 -1.0303
   37MOL0     H 4823   4.242   7.308   6.672 -0.4778 -0.0430 -0.1213
   37MOL0     H 4824   4.172   7.394   6.542 -3.3785 -0.8184  2.6684
   37MOL0     H 4825   4.159   7.606   6.646 -0.4959  1.3675  1.2492
   37MOL0     H 4826   4.262   7.538   6.779  0.8353 -2.0238 -1.1844
   37MOL0     H 4827   3.982   7.444   6.691 -3.4044  4.5319  0.9947
   37MOL0     H 4828   4.075   7.373   6.828  2.0724 -0.5705 -0.7454
   37MOL0     H 4829   3.990   7.667   6.774  0.3333  0.4044 -1.4167
   37MOL0     H 4830   4.044   7.608   6.932 -2.5603  2.3940  0.1394
   37MOL0     H 4831   3.852   7.461   6.953  1.1294 -1.0397 -0.5521
   37MOL0     H 4832   3.768   7.553   6.814 -0.3525 -0.2855 -0.0575
   37MOL0     H 4833   3.874   7.680   7.071  0.7590  2.5016 -0.9370
   37MOL0     H 4834   3.798   7.762   6.924  0.6800  0.1177 -0.9238
   37MOL0     H 4835   3.642   7.549   7.087 -0.4351  0.4983 -0.6401
   37MOL0     H 4836   3.586   7.657   6.964  1.1511  0.4672 -0.5765
   37MOL0     H 4837   3.597   7.945   7.037 -0.4429  4.0894  3.2019
   37MOL0     H 4838   3.595   8.127   7.277 -0.5458  0.1743 -0.6753
   37MOL0     H 4839   3.479   8.070   7.390  1.3279  2.5552  0.4385
   37MOL0     H 4840   3.301   8.059   7.231  1.4993 -0.3596  2.7758
   37MOL0     H 4841   3.417   8.063   7.095  0.8050  1.6204 -0.3053
   37MOL0     H 4842   3.423   8.311   7.267  2.9571 -2.2649  0.5881
   37MOL0     H 4843   3.467   8.284   7.096 -0.5737  0.0485 -0.0954
   37MOL0     H 4844   3.240   8.419   7.120  2.4565  0.5825 -0.6913
   37MOL0     H 4845   3.192   8.285   7.213 -0.5332  0.7893  0.7373
   37MOL0     H 4846   3.081   8.073   6.887  1.9600  0.8406  4.0273
   37MOL0     H 4847   2.834   8.062   6.843  0.1358 -0.1219  0.8601
   37MOL0     H 4848   2.423   8.442   7.069  0.7870  0.4366 -2.0845
   37MOL0     H 4849   2.173   8.445   7.054  1.1741  4.5366 -0.1806
   37MOL0     H 4850   2.027   8.264   6.680 -0.2332 -2.8581  3.5488
   37MOL0     H 4851   1.941   8.421   6.657  2.2322 -0.6905 -1.1139
   37MOL0     H 4852   1.863   8.204   6.853 -0.4442 -1.2785 -2.2059
   37MOL0     H 4853   1.798   8.234   6.691  1.4555 -0.3253 -1.4785
   37MOL0     H 4854   1.651   8.364   6.850 -0.0530  1.1711 -0.3524
   37MOL0     H 4855   1.764   8.487   6.775 -1.1621 -0.0528 -1.1786
   37MOL0     H 4856   1.852   8.368   7.030  0.0376  0.6241  1.2176
   37MOL0     H 4857   1.867   8.527   6.970  1.5969 -1.2363  1.9380
   37MOL0     H 4858   1.726   8.476   7.182  1.7937  2.4902  0.8619
   37MOL0     H 4859   1.599   8.461   7.053 -1.0258  0.6608  1.0972
   37MOL0     H 4860   1.677   8.706   6.978 -1.6488 -3.4259 -0.2802
   37MOL0     H 4861   1.813   8.708   7.088  1.1233 -1.9772 -1.9257
   37MOL0     H 4862   1.514   8.721   7.146 -0.9320  0.3533  4.3111
   37MOL0     H 4863   1.625   8.657   7.262 -1.3692 -0.5875 -0.1024
   37MOL0     H 4864   1.665   8.932   7.133 -1.3360 -1.5313 -1.9732
   37MOL0     H 4865   1.754   8.866   7.277 -0.1039  1.3366 -1.3447
   37MOL0     H 4866   2.216   8.345   6.631 -1.0691  5.8030 -0.4912
   37MOL0     H 4867   2.449   8.316   6.661  1.4199  1.6310 -0.0794
   37MOL0     H 4868   2.804   8.448   7.013  0.0641  0.7279 -2.3573
   37MOL0     H 4869   3.035   8.445   7.078 -2.0916  1.3078 -1.0958
   37MOL0     H 4870   4.641   7.483   6.584  1.0623 -0.1262 -0.1350
   37MOL0     H 4871   4.857   7.598   6.530 -0.7545 -2.0978  2.6794
   37MOL0     H 4872   5.038   8.023   6.503  0.9477 -0.1876 -0.5447
   37MOL0     H 4873   5.176   8.211   6.465  0.0609  0.6428 -0.1603
   37MOL0     H 4874   5.362   8.334   6.379 -0.9962 -0.2794  0.0335
   37MOL0     H 4875   5.226   8.406   6.297  1.9679  1.7567  2.9878
   37MOL0     H 4876   5.375   8.480   6.110 -0.6205 -0.6249  0.4898
   37MOL0     H 4877   5.428   8.538   6.270  1.0655  0.6465 -1.6266
   37MOL0     H 4878   5.542   8.309   6.108  0.2400 -0.9586  1.0591
   37MOL0     H 4879   5.606   8.360   6.267  0.9426  1.5169 -1.4511
   37MOL0     H 4880   5.587   8.502   6.005 -3.7173  1.0035  1.3395
   37MOL0     H 4881   5.613   8.591   6.156  3.7200 -0.3199  1.5391
   37MOL0     H 4882   5.994   8.483   6.082  0.3736 -0.7326  2.4342
   37MOL0     H 4883   5.246   8.070   6.062  1.2234 -0.5132  0.5530
   37MOL0     H 4884   5.121   7.849   6.117 -0.0777  0.9636 -0.6911
   38MOL0     O 4885   4.001   4.690   7.608 -0.7575  0.4725  0.1347
   38MOL0     C 4886   4.057   4.590   7.637 -0.7175 -0.1420 -1.0202
   38MOL0     O 4887   4.072   4.488   7.549  0.4447 -0.8933 -0.3636
   38MOL0     C 4888   4.049   4.512   7.409 -0.2963  0.5705 -0.5915
   38MOL0     C 4889   4.130   4.607   7.336  0.4132  0.5071 -1.4824
   38MOL0     C 4890   4.090   4.641   7.218  0.5656  0.2225  1.1339
   38MOL0     C 4891   3.978   4.586   7.157 -0.3277  0.4167 -0.4268
   38MOL0     O 4892   3.941   4.612   7.034 -0.5360 -1.4208  0.4491
   38MOL0     C 4893   3.884   4.737   7.017  0.8667 -0.3164 -0.1473
   38MOL0     C 4894   3.818   4.751   6.880 -0.3892 -0.1294  0.2498
   38MOL0     C 4895   3.719   4.629   6.854  0.6809 -0.5263 -0.9930
   38MOL0     C 4896   3.600   4.642   6.959 -0.5580 -0.2644 -0.3028
   38MOL0     C 4897   3.516   4.509   6.957  0.3407 -0.2606  0.2394
   38MOL0     C 4898   3.409   4.511   7.059 -0.1893  0.5502  0.1757
   38MOL0     C 4899   3.311   4.396   7.027  0.7979  0.3559 -0.4066
   38MOL0     C 4900   3.202   4.388   7.136  0.3434  0.9413  0.4066
   38MOL0     N 4901   3.095   4.289   7.117 -0.1801 -0.0341 -0.1138
   38MOL0     C 4902   3.043   4.251   7.001  0.4552 -0.4259 -0.1944
   38MOL0     C 4903   2.936   4.164   7.038 -1.1927  0.4537 -0.1968
   38MOL0     C 4904   2.840   4.110   6.935  0.1918 -0.4010 -0.0652
   38MOL0     C 4905   2.696   4.134   6.965 -0.5974 -0.3986  0.1811
   38MOL0     C 4906   2.607   4.093   6.850 -0.1894  0.2117 -1.2711
   38MOL0     C 4907   2.471   4.137   6.885  0.0967  0.5913 -0.5835
   38MOL0     O 4908   2.393   4.106   6.773 -0.9891  0.8457 -0.3445
   38MOL0     C 4909   2.259   4.146   6.779  0.5170 -0.2125  0.1935
   38MOL0     C 4910   2.163   4.093   6.688 -0.0626 -0.0378 -0.4030
   38MOL0     C 4911   2.040   4.139   6.670  0.7363 -0.9071 -0.4215
   38MOL0     C 4912   1.980   4.233   6.760  0.1719  0.5035 -0.1050
   38MOL0     C 4913   1.837   4.269   6.752  0.6836 -0.3913 -0.2469
   38MOL0     O 4914   1.748   4.202   6.670  1.3698  0.3763  0.6364
   38MOL0     C 4915   1.611   4.222   6.699  0.0473 -0.1700  0.6705
   38MOL0     C 4916   1.540   4.119   6.754  1.0578  0.2991 -0.2966
   38MOL0     C 4917   1.402   4.129   6.787  0.0268 -0.0928  0.1704
   38MOL0     C 4918   1.326   4.240   6.751  0.0133  0.3247 -0.2360
   38MOL0     O 4919   1.196   4.227   6.780  0.9776 -0.2135  0.0427
   38MOL0     C 4920   1.090   4.307   6.716 -1.0157  1.0152  1.2349
   38MOL0     C 4921   1.067   4.424   6.808  0.3916 -1.0254 -0.6818
   38MOL0     C 4922   0.953   4.517   6.763  0.3098 -0.5755 -0.1989
   38MOL0     C 4923   0.887   4.609   6.867 -0.4719 -0.4685 -0.4658
   38MOL0     C 4924   0.788   4.708   6.817 -0.6029  0.0515  0.1161
   38MOL0     C 4925   0.688   4.656   6.723  0.4787 -0.0212 -0.6409
   38MOL0     C 4926   0.588   4.556   6.790 -0.2894 -0.0689 -0.4634
   38MOL0     C 4927   0.479   4.511   6.687  0.7808  0.4176  0.6561
   38MOL0    Cl 4928   0.381   4.651   6.651 -0.1307  0.1144 -0.5938
   38MOL0     C 4929   1.390   4.343   6.678 -0.2953 -0.1930  0.5550
   38MOL0     C 4930   1.533   4.337   6.654 -0.1017 -0.2637 -0.0482
   38MOL0     O 4931   1.808   4.353   6.840  0.3259 -0.3530  0.1203
   38MOL0     C 4932   2.069   4.288   6.859  0.7977  0.7643  0.2601
   38MOL0     C 4933   2.207   4.255   6.865 -0.1732 -0.3421  0.0952
   38MOL0     N 4934   2.940   4.149   7.170 -0.2409  0.4297 -0.4344
   38MOL0     N 4935   3.040   4.220   7.219 -0.4215  1.0567 -0.3394
   38MOL0     C 4936   3.904   4.482   7.223  0.1665  0.4930  0.4159
   38MOL0     C 4937   3.941   4.446   7.344 -0.0109 -0.1394 -0.3747
   38MOL0     C 4938   4.114   4.568   7.781  0.3060 -0.7374 -0.0528
   38MOL0     C 4939   4.062   4.641   7.890  0.2620 -0.0698  0.4061
   38MOL0     C 4940   4.112   4.630   8.023  0.2323 -0.3081 -0.4633
   38MOL0     C 4941   4.208   4.542   8.055 -0.1581  0.3003  0.5477
   38MOL0     O 4942   4.272   4.523   8.178  0.0800  0.3440  0.0990
   38MOL0     C 4943   4.222   4.596   8.295 -0.2740  0.5822  0.1694
   38MOL0     C 4944   4.327   4.595   8.401 -1.0021 -0.1441 -0.2520
   38MOL0     C 4945   4.436   4.698   8.372  0.3034  0.5757  0.8338
   38MOL0     C 4946   4.568   4.673   8.444 -0.3122 -0.2149  0.8351
   38MOL0     C 4947   4.636   4.801   8.451  0.0559  0.6373 -1.1702
   38MOL0     C 4948   4.703   4.901   8.453  0.3667 -0.9961  0.0444
   38MOL0     C 4949   4.249   4.456   7.952  0.1248 -0.0428  0.4976
   38MOL0     C 4950   4.210   4.472   7.822 -0.2772 -0.0026  0.1392
   38MOL0     H 4951   4.211   4.661   7.381 -0.4177  0.0546  0.6747
   38MOL0     H 4952   4.142   4.713   7.156 -1.7040  0.6292 -0.4470
   38MOL0     H 4953   3.971   4.803   7.019  0.5478  0.1315  2.4718
   38MOL0     H 4954   3.816   4.768   7.096 -1.4932  0.5908 -2.4055
   38MOL0     H 4955   3.903   4.736   6.813 -1.2962 -2.6734 -0.4753
   38MOL0     H 4956   3.762   4.842   6.857 -2.3576 -1.2398  0.3293
   38MOL0     H 4957   3.775   4.537   6.873 -0.5794 -1.4634 -1.6888
   38MOL0     H 4958   3.688   4.628   6.749 -2.2891  3.3745 -0.3753
   38MOL0     H 4959   3.634   4.661   7.061 -1.7514  1.5497 -0.1881
   38MOL0     H 4960   3.537   4.727   6.930  0.5785  0.6971  0.0025
   38MOL0     H 4961   3.585   4.425   6.964  0.9072  0.2314  0.8045
   38MOL0     H 4962   3.469   4.514   6.859 -0.3151  0.3831  0.5754
   38MOL0     H 4963   3.362   4.610   7.058 -1.1327  0.1054 -0.4920
   38MOL0     H 4964   3.455   4.504   7.158 -0.4499  0.1527  0.2677
   38MOL0     H 4965   3.264   4.404   6.929 -1.2931 -4.1477 -0.0102
   38MOL0     H 4966   3.367   4.302   7.028 -1.6280 -1.2337  2.0150
   38MOL0     H 4967   3.154   4.483   7.160 -1.1086  0.1843  0.6298
   38MOL0     H 4968   3.260   4.360   7.224 -0.0839 -0.5174  0.2574
   38MOL0     H 4969   3.073   4.280   6.900  1.6412  0.2548  0.3384
   38MOL0     H 4970   2.866   4.008   6.904  3.3182 -0.3509  1.9787
   38MOL0     H 4971   2.865   4.175   6.851 -1.3093 -1.0612 -1.0686
   38MOL0     H 4972   2.687   4.242   6.979 -1.1453 -0.6449  2.1177
   38MOL0     H 4973   2.661   4.083   7.055  0.4870 -0.4143  0.6021
   38MOL0     H 4974   2.642   4.131   6.754  2.1035  0.0668 -0.5402
   38MOL0     H 4975   2.610   3.984   6.855  2.7916  0.2776  1.6622
   38MOL0     H 4976   2.471   4.247   6.889 -0.6223  0.5677  0.3412
   38MOL0     H 4977   2.446   4.094   6.982  4.3841  1.1375  1.0214
   38MOL0     H 4978   2.200   4.016   6.621 -4.9142 -0.4062 -3.1547
   38MOL0     H 4979   1.993   4.102   6.580  1.6084  1.6142 -2.0505
   38MOL0     H 4980   1.601   4.034   6.784 -0.6119 -1.0374 -0.5535
   38MOL0     H 4981   1.349   4.050   6.839 -1.3097  1.0327  0.5890
   38MOL0     H 4982   0.996   4.252   6.707 -0.6992  0.7655 -1.3316
   38MOL0     H 4983   1.125   4.352   6.623  0.1306  0.6923  1.5011
   38MOL0     H 4984   1.160   4.482   6.812 -0.6668  0.8302 -1.7897
   38MOL0     H 4985   1.053   4.383   6.909  3.5759  2.0138  1.2485
   38MOL0     H 4986   0.880   4.445   6.724 -2.2428  1.7656 -0.0037
   38MOL0     H 4987   0.985   4.577   6.678 -2.5896  3.2532  1.0940
   38MOL0     H 4988   0.836   4.550   6.944 -1.5048 -0.3826 -1.0708
   38MOL0     H 4989   0.966   4.671   6.912 -0.7209 -1.7807  1.9734
   38MOL0     H 4990   0.837   4.790   6.765  1.7068 -1.0474  0.4392
   38MOL0     H 4991   0.744   4.746   6.910  0.8325  3.2281 -0.4046
   38MOL0     H 4992   0.740   4.616   6.635  0.4305  0.0268 -0.6910
   38MOL0     H 4993   0.623   4.738   6.691 -0.7310 -0.4132  0.6870
   38MOL0     H 4994   0.653   4.475   6.824  1.7615  1.8966  0.6616
   38MOL0     H 4995   0.542   4.607   6.876  0.1563  0.1889 -0.3712
   38MOL0     H 4996   0.415   4.438   6.735 -2.2143  3.0585  1.0066
   38MOL0     H 4997   0.528   4.468   6.599 -1.7257  1.7068 -1.5114
   38MOL0     H 4998   1.338   4.432   6.644 -1.8384 -0.8930  0.9752
   38MOL0     H 4999   1.585   4.417   6.603  0.9700 -0.3860  0.8202
   38MOL0     H 5000   2.026   4.356   6.932 -1.7743 -1.0117  0.5589
   38MOL0     H 5001   2.276   4.300   6.935  2.6425  0.3071 -2.8766
   38MOL0     H 5002   3.815   4.436   7.182  0.4693  0.3375 -0.0861
   38MOL0     H 5003   3.883   4.379   7.406 -1.8552  0.2807 -1.5886
   38MOL0     H 5004   3.972   4.701   7.886 -2.4864 -3.7800  1.7503
   38MOL0     H 5005   4.051   4.671   8.104  0.2618 -3.7158  1.4544
   38MOL0     H 5006   4.130   4.548   8.329 -0.8398  1.1572 -0.5022
   38MOL0     H 5007   4.195   4.699   8.270 -0.4901 -0.1027 -2.7305
   38MOL0     H 5008   4.279   4.610   8.498 -1.8351 -0.9638 -0.5308
   38MOL0     H 5009   4.383   4.501   8.403 -0.3511  0.1956 -1.4994
   38MOL0     H 5010   4.409   4.797   8.410  0.3498  2.4393 -3.3785
   38MOL0     H 5011   4.449   4.698   8.264  1.3097 -3.4853  0.7774
   38MOL0     H 5012   4.552   4.637   8.546  0.3336 -1.4932  0.5117
   38MOL0     H 5013   4.630   4.595   8.397 -0.5997 -1.0034  1.7271
   38MOL0     H 5014   4.748   4.995   8.430 -0.8051 -1.0510 -2.9487
   38MOL0     H 5015   4.314   4.370   7.958  1.3915  0.8028 -0.4390
   38MOL0     H 5016   4.250   4.411   7.742  0.2452 -0.8401  1.0244
   39MOL0     O 5017   2.402   7.763   9.966 -0.1479 -0.4699 -0.5453
   39MOL0     C 5018   2.307   7.717   9.905 -0.4198  0.0902 -0.3400
   39MOL0     O 5019   2.224   7.613   9.950  0.5128  0.1850  0.3378
   39MOL0     C 5020   2.244   7.580  10.085 -0.0794 -0.1152  0.0399
   39MOL0     C 5021   2.352   7.510  10.143 -0.1865  0.2796  0.5126
   39MOL0     C 5022   2.360   7.488  10.280 -0.5098  0.1023 -0.2963
   39MOL0     C 5023   2.268   7.554  10.364 -0.6989 -0.9179  0.0140
   39MOL0     O 5024   2.284   7.574  10.492 -0.2734 -1.1107 -0.1868
   39MOL0     C 5025   2.385   7.495  10.569  0.8589 -0.7890 -0.2319
   39MOL0     C 5026   2.320   7.437  10.696  0.1423  0.0853 -0.2103
   39MOL0     C 5027   2.182   7.356  10.677  0.9749  0.2171 -0.4382
   39MOL0     C 5028   2.103   7.357  10.813  1.1742  0.6379  0.8715
   39MOL0     C 5029   2.179   7.352  10.949  0.2259 -0.1696  0.7455
   39MOL0     C 5030   2.085   7.355  11.076  0.2505 -0.4825  0.1268
   39MOL0     C 5031   2.017   7.228  11.073  0.1981  0.4875  0.3573
   39MOL0     C 5032   1.948   7.204  11.201 -0.1430  0.0739 -0.4764
   39MOL0     N 5033   1.896   7.068  11.204  1.0066  0.2114 -0.0041
   39MOL0     C 5034   1.964   6.964  11.267  1.0546 -0.3117  0.6826
   39MOL0     C 5035   1.870   6.862  11.268 -0.0337 -0.3107 -0.1278
   39MOL0     C 5036   1.879   6.729  11.336 -0.6809 -0.5224 -0.2881
   39MOL0     C 5037   1.838   6.763  11.486  0.5359 -1.0048 -1.0340
   39MOL0     C 5038   1.876   6.652  11.588 -0.3896 -0.2435  0.4282
   39MOL0     C 5039   1.852   6.697  11.733  0.1756 -1.5161 -0.7297
   39MOL0     O 5040   1.799   6.835  11.734 -0.3509  1.0794 -0.2957
   39MOL0     C 5041   1.750   6.890  11.850  0.7689 -0.3975  0.0316
   39MOL0     C 5042   1.763   6.840  11.986 -0.1382  0.5546 -0.4634
   39MOL0     C 5043   1.695   6.904  12.091  0.1781 -0.2329 -0.3015
   39MOL0     C 5044   1.611   7.019  12.060 -0.7103  0.5416 -0.1222
   39MOL0     C 5045   1.526   7.070  12.164 -0.3029 -0.2849  0.9592
   39MOL0     O 5046   1.411   7.137  12.127  0.4801  0.5936  0.5910
   39MOL0     C 5047   1.312   7.181  12.212 -0.2557  0.5874 -0.3082
   39MOL0     C 5048   1.227   7.287  12.176  0.4744  0.3986  0.4266
   39MOL0     C 5049   1.108   7.324  12.245  0.2450 -1.1651 -0.6882
   39MOL0     C 5050   1.068   7.241  12.349 -0.7977 -0.3848 -0.1649
   39MOL0     O 5051   0.944   7.278  12.405  0.5492 -0.5958  0.2624
   39MOL0     C 5052   0.843   7.184  12.439 -0.0788  0.2246 -0.0050
   39MOL0     C 5053   0.719   7.249  12.494 -0.1643 -0.5209  0.0100
   39MOL0     C 5054   0.615   7.141  12.503  1.1351  0.5151 -0.7589
   39MOL0     C 5055   0.480   7.203  12.541  1.1059  0.1246 -0.2335
   39MOL0     C 5056   0.358   7.101  12.525  0.1924 -0.8041 -0.0408
   39MOL0     C 5057   0.222   7.168  12.547 -0.4422 -0.4517  0.4449
   39MOL0     C 5058   0.113   7.064  12.530  0.7954  0.2728 -0.8991
   39MOL0     C 5059  -0.027   7.126  12.553 -0.2892  1.2147 -0.7094
   39MOL0    Cl 5060  -0.145   7.003  12.507 -0.1136  0.2589  0.0548
   39MOL0     C 5061   1.144   7.128  12.372 -0.0719 -0.1839  0.5730
   39MOL0     C 5062   1.260   7.099  12.309  0.4040 -0.0224  0.2662
   39MOL0     O 5063   1.556   7.044  12.284  0.0960 -0.5342  0.1573
   39MOL0     C 5064   1.593   7.057  11.928  0.2643  0.2596  0.1186
   39MOL0     C 5065   1.663   6.995  11.833  0.4300  0.3370  0.0732
   39MOL0     N 5066   1.751   6.907  11.209 -0.7270  1.1978 -0.2924
   39MOL0     N 5067   1.767   7.031  11.170  0.4882 -0.1148 -0.0044
   39MOL0     C 5068   2.156   7.620  10.305  0.1309 -0.0744  0.4767
   39MOL0     C 5069   2.147   7.631  10.168  1.1254 -0.0472 -0.5473
   39MOL0     C 5070   2.283   7.781   9.778  0.2536  0.5671 -0.1353
   39MOL0     C 5071   2.153   7.776   9.723  0.7401  0.0190  0.2164
   39MOL0     C 5072   2.131   7.835   9.597  0.0571 -0.2706  0.5645
   39MOL0     C 5073   2.239   7.895   9.527 -0.5073 -0.0014 -0.2927
   39MOL0     O 5074   2.242   7.948   9.403 -0.0560 -0.0732 -0.7637
   39MOL0     C 5075   2.115   7.974   9.339  0.1931  0.2439  0.6470
   39MOL0     C 5076   2.133   8.024   9.193  0.7638 -0.5421 -0.9339
   39MOL0     C 5077   2.083   7.934   9.081 -0.1320  0.1345 -0.5669
   39MOL0     C 5078   1.937   7.968   9.051  0.7404  0.6302 -0.3296
   39MOL0     C 5079   1.902   7.874   8.937  0.0875 -0.9802 -1.4754
   39MOL0     C 5080   1.878   7.821   8.834 -0.4554  0.3507  0.4028
   39MOL0     C 5081   2.364   7.901   9.581 -0.7939  0.8209 -0.0093
   39MOL0     C 5082   2.386   7.845   9.709 -0.3076 -0.0766  0.4264
   39MOL0     H 5083   2.440   7.492  10.083  1.1660  0.3670  2.3762
   39MOL0     H 5084   2.456   7.443  10.306 -0.4908 -0.7361 -1.7520
   39MOL0     H 5085   2.468   7.560  10.596  0.4316 -2.0275  5.1842
   39MOL0     H 5086   2.421   7.411  10.510 -0.5600 -1.0995 -0.7034
   39MOL0     H 5087   2.285   7.519  10.759 -2.1506 -0.5634 -0.5372
   39MOL0     H 5088   2.385   7.372  10.754 -0.8081  1.8294  3.0208
   39MOL0     H 5089   2.223   7.258  10.654  2.7620  0.4744  1.3589
   39MOL0     H 5090   2.118   7.394  10.597 -1.3047  0.9997  1.6310
   39MOL0     H 5091   2.036   7.443  10.821 -0.6211 -0.5193 -0.9189
   39MOL0     H 5092   2.038   7.272  10.789  1.7456  0.7564 -1.2875
   39MOL0     H 5093   2.246   7.438  10.953  1.7286 -1.2429 -0.4811
   39MOL0     H 5094   2.241   7.262  10.959  0.2155 -0.1035  1.4743
   39MOL0     H 5095   2.003   7.428  11.076 -0.0637 -0.8331  0.4607
   39MOL0     H 5096   2.138   7.382  11.167 -1.0711  4.4663 -0.2499
   39MOL0     H 5097   1.942   7.227  10.994  2.3099 -1.3628 -1.7570
   39MOL0     H 5098   2.087   7.147  11.052 -1.5796 -0.8591 -0.6931
   39MOL0     H 5099   1.859   7.268  11.203 -1.6098 -1.8974  1.6138
   39MOL0     H 5100   2.020   7.218  11.282  2.5073 -1.8131 -2.3345
   39MOL0     H 5101   2.059   6.984  11.314 -0.1992  2.2053  2.4072
   39MOL0     H 5102   1.977   6.682  11.328 -0.3703 -0.2941  1.7586
   39MOL0     H 5103   1.799   6.664  11.298 -0.3679 -0.5182 -0.9657
   39MOL0     H 5104   1.730   6.779  11.496  0.6805 -0.5628 -0.1370
   39MOL0     H 5105   1.891   6.857  11.503 -1.5789 -0.3397  2.9499
   39MOL0     H 5106   1.829   6.558  11.558  2.2442 -2.7440  3.4187
   39MOL0     H 5107   1.981   6.624  11.575  0.0915  2.0269 -1.3152
   39MOL0     H 5108   1.944   6.712  11.790 -1.6292  1.6577  1.6640
   39MOL0     H 5109   1.783   6.629  11.784 -3.0333  3.0371  1.7141
   39MOL0     H 5110   1.817   6.747  12.003 -1.3443  0.4262  3.4141
   39MOL0     H 5111   1.687   6.880  12.197  2.5757  3.1507  0.8155
   39MOL0     H 5112   1.260   7.339  12.087  0.3284 -1.5813 -0.8321
   39MOL0     H 5113   1.060   7.419  12.226  0.2312 -1.1098 -0.3810
   39MOL0     H 5114   0.883   7.116  12.514 -1.5946 -4.2344 -2.8418
   39MOL0     H 5115   0.818   7.129  12.348  1.2666 -0.9488  0.2975
   39MOL0     H 5116   0.685   7.334  12.433 -1.0447 -3.0333 -3.3092
   39MOL0     H 5117   0.744   7.283  12.595  0.1724  1.4677 -0.6929
   39MOL0     H 5118   0.645   7.058  12.568 -0.0928  0.0591 -0.7575
   39MOL0     H 5119   0.592   7.090  12.408  2.3225  0.7036 -1.1727
   39MOL0     H 5120   0.482   7.206  12.650  1.1682  2.1090 -0.2470
   39MOL0     H 5121   0.457   7.303  12.502 -0.8533 -0.4949 -0.7843
   39MOL0     H 5122   0.372   7.026  12.603  1.1333 -0.1101  0.4873
   39MOL0     H 5123   0.354   7.055  12.426 -3.3387 -1.0877  0.1221
   39MOL0     H 5124   0.202   7.242  12.468 -2.6457 -1.1330  0.2851
   39MOL0     H 5125   0.212   7.222  12.642  0.4203  0.4558  0.0356
   39MOL0     H 5126   0.116   7.029  12.426 -0.4767  1.5613 -1.3929
   39MOL0     H 5127   0.130   6.978  12.596  0.8070  1.1791  0.2954
   39MOL0     H 5128  -0.033   7.228  12.514  2.4050  2.5795  1.9945
   39MOL0     H 5129  -0.031   7.157  12.658  0.7857  2.9417 -1.1321
   39MOL0     H 5130   1.095   7.067  12.448 -5.1686  2.0866 -0.4526
   39MOL0     H 5131   1.303   7.007  12.349 -2.1764 -0.7935  1.4726
   39MOL0     H 5132   1.516   7.127  11.896 -1.8259 -2.8961 -2.4257
   39MOL0     H 5133   1.639   7.015  11.729  1.2568  2.1074  0.1905
   39MOL0     H 5134   2.093   7.668  10.379  1.3743 -0.0723  1.5890
   39MOL0     H 5135   2.064   7.694  10.137 -1.2518 -1.2948  2.6509
   39MOL0     H 5136   2.079   7.739   9.793  0.9389  0.5503  0.7095
   39MOL0     H 5137   2.032   7.829   9.551 -1.0839 -0.6243  2.9151
   39MOL0     H 5138   2.062   8.051   9.395 -0.4116 -1.8551  3.2007
   39MOL0     H 5139   2.046   7.889   9.340 -3.1897  2.7745  0.3849
   39MOL0     H 5140   2.088   8.121   9.171 -2.4355 -2.2642 -2.6361
   39MOL0     H 5141   2.240   8.042   9.181  0.6812 -0.3591 -1.3907
   39MOL0     H 5142   2.094   7.834   9.125 -0.6583  0.9655  1.5895
   39MOL0     H 5143   2.150   7.929   8.995 -0.1457 -0.3212 -0.5577
   39MOL0     H 5144   1.867   7.949   9.132 -2.6968  0.6506 -3.0702
   39MOL0     H 5145   1.918   8.072   9.023 -0.7247  0.7700  1.1153
   39MOL0     H 5146   1.851   7.774   8.742  2.3662  0.3626 -0.5192
   39MOL0     H 5147   2.442   7.944   9.519 -1.1254  1.8253  0.2624
   39MOL0     H 5148   2.488   7.851   9.745 -0.5248 -0.9266  1.2129
   40MOL0     O 5149   5.278   5.060   3.816 -0.6528  0.6536 -0.0383
   40MOL0     C 5150   5.243   5.035   3.928 -0.0389 -0.3766  0.6510
   40MOL0     O 5151   5.283   4.939   4.010 -0.3234  0.4370  0.2789
   40MOL0     C 5152   5.397   4.871   3.966  0.9581  1.4266 -0.0636
   40MOL0     C 5153   5.401   4.737   4.009  0.3948 -1.1582 -0.3725
   40MOL0     C 5154   5.512   4.655   3.985  0.3586  0.5376  0.4046
   40MOL0     C 5155   5.621   4.712   3.911  0.7896 -0.4762 -0.4435
   40MOL0     O 5156   5.736   4.645   3.894  0.2968 -0.3110  0.1036
   40MOL0     C 5157   5.820   4.639   4.006 -0.7257  0.4787  0.0948
   40MOL0     C 5158   5.933   4.551   3.972  0.1039  0.9246  0.1137
   40MOL0     C 5159   6.029   4.517   4.092  0.8108 -0.4103 -0.4173
   40MOL0     C 5160   6.152   4.456   4.045  0.6560 -0.3468  0.4368
   40MOL0     C 5161   6.209   4.378   4.161 -0.4459  1.0218 -0.4361
   40MOL0     C 5162   6.340   4.298   4.126  0.2889 -0.6028  0.3822
   40MOL0     C 5163   6.356   4.185   4.221 -0.0576 -0.1465 -0.2584
   40MOL0     C 5164   6.496   4.134   4.222  0.8350  0.7152 -0.5899
   40MOL0     N 5165   6.503   4.002   4.291  0.3567 -0.1958  0.1718
   40MOL0     C 5166   6.462   3.977   4.421 -0.5537  0.1788  0.2045
   40MOL0     C 5167   6.412   3.852   4.425 -0.7222 -0.3384 -0.0419
   40MOL0     C 5168   6.381   3.776   4.548  0.3305  0.0522 -0.0098
   40MOL0     C 5169   6.277   3.835   4.640 -0.6603  0.4408 -0.3469
   40MOL0     C 5170   6.242   3.751   4.765 -0.1680  0.4377 -0.8105
   40MOL0     C 5171   6.161   3.841   4.869  0.5761 -0.7148  1.0034
   40MOL0     O 5172   6.103   3.775   4.979 -0.9654 -0.0416  0.4994
   40MOL0     C 5173   6.190   3.733   5.076  0.0273  0.0837  0.5261
   40MOL0     C 5174   6.317   3.792   5.114 -0.1902 -0.0238 -1.5499
   40MOL0     C 5175   6.386   3.743   5.226 -0.5219  0.1478 -0.7036
   40MOL0     C 5176   6.322   3.641   5.303 -0.9155 -0.2217  0.1514
   40MOL0     C 5177   6.381   3.617   5.437 -0.0272  0.5720  0.7930
   40MOL0     O 5178   6.305   3.537   5.521  0.8426 -0.3689 -0.9933
   40MOL0     C 5179   6.353   3.538   5.651 -0.5066 -0.2137 -0.4504
   40MOL0     C 5180   6.450   3.450   5.689  1.0066  0.3008  0.0177
   40MOL0     C 5181   6.505   3.450   5.814  0.2585 -0.2511 -0.0366
   40MOL0     C 5182   6.459   3.543   5.910  0.4229  0.0287 -0.6239
   40MOL0     O 5183   6.510   3.548   6.042 -0.0841 -0.1608  0.6119
   40MOL0     C 5184   6.573   3.429   6.096  1.0292  0.4995  0.3955
   40MOL0     C 5185   6.579   3.449   6.250  0.1745  0.5825 -0.1208
   40MOL0     C 5186   6.641   3.321   6.322  0.8462 -1.1890 -0.5957
   40MOL0     C 5187   6.552   3.204   6.290  0.0302 -0.3932 -0.0002
   40MOL0     C 5188   6.574   3.093   6.385 -0.5223 -0.3499 -0.3409
   40MOL0     C 5189   6.524   2.962   6.340 -0.3899  0.9533  1.2532
   40MOL0     C 5190   6.373   2.938   6.339  0.4179 -0.2366  0.0804
   40MOL0     C 5191   6.292   2.987   6.463  0.2640  0.7237 -0.2630
   40MOL0    Cl 5192   6.120   2.951   6.449  0.2504  0.2729 -0.3535
   40MOL0     C 5193   6.364   3.640   5.868  0.7892  0.8627 -0.1742
   40MOL0     C 5194   6.312   3.637   5.732  0.1741 -0.2885 -0.2968
   40MOL0     O 5195   6.467   3.696   5.476  0.6537 -0.0851  0.4888
   40MOL0     C 5196   6.206   3.579   5.266  0.2424  0.7582 -1.2956
   40MOL0     C 5197   6.139   3.617   5.148 -0.9104 -0.0501 -0.5476
   40MOL0     N 5198   6.417   3.804   4.298 -0.2546  0.3547 -0.6876
   40MOL0     N 5199   6.476   3.889   4.218  0.4773 -0.8308  0.5204
   40MOL0     C 5200   5.616   4.850   3.875 -0.2338  0.7631  0.5067
   40MOL0     C 5201   5.501   4.930   3.905 -0.9116  0.0417  0.1124
   40MOL0     C 5202   5.147   5.131   3.981  0.3536  0.6803  0.2747
   40MOL0     C 5203   5.088   5.236   3.902  0.3423  0.1517 -0.0644
   40MOL0     C 5204   5.000   5.330   3.966  0.0886 -0.0627  0.4970
   40MOL0     C 5205   4.961   5.313   4.097  0.4522  1.1991 -0.5636
   40MOL0     O 5206   4.873   5.405   4.151  0.6876  0.5896  0.4837
   40MOL0     C 5207   4.779   5.362   4.253  0.5529  0.0718 -0.7909
   40MOL0     C 5208   4.664   5.279   4.198 -0.6103  0.4753  0.1455
   40MOL0     C 5209   4.557   5.336   4.101 -0.5743 -0.1259 -0.6867
   40MOL0     C 5210   4.478   5.227   4.035  0.6860 -0.6201 -0.1454
   40MOL0     C 5211   4.366   5.168   4.114 -1.1387 -0.7514 -0.1793
   40MOL0     C 5212   4.274   5.121   4.178 -0.4392 -0.6902 -0.7002
   40MOL0     C 5213   5.027   5.221   4.179  1.0820  0.0917 -0.6112
   40MOL0     C 5214   5.108   5.120   4.120 -0.0739  0.4108  0.6959
   40MOL0     H 5215   5.319   4.686   4.059  1.5667 -3.4864 -0.6969
   40MOL0     H 5216   5.516   4.551   4.015  3.2233  1.5271  4.1671
   40MOL0     H 5217   5.766   4.592   4.088  1.7980 -2.5716  0.2053
   40MOL0     H 5218   5.849   4.738   4.043  0.2756  0.5679 -0.8580
   40MOL0     H 5219   5.990   4.593   3.889 -3.7205  2.1542 -2.1738
   40MOL0     H 5220   5.891   4.456   3.938  2.0716 -0.7503  2.0439
   40MOL0     H 5221   5.988   4.443   4.162  2.4144 -1.6051 -0.6611
   40MOL0     H 5222   6.050   4.603   4.156  1.8170 -1.2245  0.3997
   40MOL0     H 5223   6.126   4.389   3.962 -2.0676  0.3764  0.5859
   40MOL0     H 5224   6.225   4.529   4.010 -2.1003  1.7837 -1.3596
   40MOL0     H 5225   6.134   4.303   4.191 -1.0382  0.1470 -3.6745
   40MOL0     H 5226   6.228   4.447   4.244 -0.6032 -0.2245  0.6817
   40MOL0     H 5227   6.413   4.379   4.130 -0.6183  0.5457 -2.8378
   40MOL0     H 5228   6.346   4.260   4.023 -1.8873 -0.4701  0.1498
   40MOL0     H 5229   6.318   4.219   4.319 -0.0395  0.9519 -0.6138
   40MOL0     H 5230   6.294   4.099   4.197 -0.0795 -0.1126 -0.3254
   40MOL0     H 5231   6.556   4.207   4.278  1.1774 -0.4244  0.6000
   40MOL0     H 5232   6.529   4.124   4.118  3.3970 -0.8104  0.2572
   40MOL0     H 5233   6.467   4.039   4.509  0.5538  0.5070 -0.0753
   40MOL0     H 5234   6.472   3.770   4.608  1.7310  1.2904 -1.9154
   40MOL0     H 5235   6.346   3.678   4.515  0.6634  0.8682 -3.0624
   40MOL0     H 5236   6.186   3.863   4.587  0.8331  1.8243 -2.3423
   40MOL0     H 5237   6.325   3.927   4.674  0.9323 -0.0936 -1.0449
   40MOL0     H 5238   6.186   3.659   4.746  3.4834 -2.6038  1.6800
   40MOL0     H 5239   6.338   3.717   4.804 -1.5263 -2.2884  0.3794
   40MOL0     H 5240   6.081   3.895   4.817  0.8709 -1.4344 -0.2069
   40MOL0     H 5241   6.223   3.927   4.895  0.8956 -1.2985  2.2528
   40MOL0     H 5242   6.361   3.884   5.077 -0.1119 -0.2525 -2.0311
   40MOL0     H 5243   6.482   3.786   5.252 -1.0000  2.0624 -1.9149
   40MOL0     H 5244   6.488   3.390   5.607  1.7704  2.1157 -1.0060
   40MOL0     H 5245   6.586   3.383   5.840 -0.2505  0.3233  3.4780
   40MOL0     H 5246   6.672   3.407   6.055  0.6361 -1.8396  0.5431
   40MOL0     H 5247   6.503   3.350   6.065 -2.7198  3.3513  0.8797
   40MOL0     H 5248   6.481   3.479   6.289 -0.6103 -0.1158 -1.4685
   40MOL0     H 5249   6.641   3.538   6.267 -0.8430  1.2705  0.1548
   40MOL0     H 5250   6.637   3.336   6.430 -1.4781 -0.4971 -0.7189
   40MOL0     H 5251   6.743   3.299   6.290  0.7759  0.4218 -2.0479
   40MOL0     H 5252   6.449   3.241   6.289 -0.8383 -2.5824  0.9700
   40MOL0     H 5253   6.574   3.171   6.188 -0.4599  1.7717 -0.8562
   40MOL0     H 5254   6.532   3.120   6.481  1.0959 -1.1208  0.6353
   40MOL0     H 5255   6.682   3.096   6.402 -0.3913  0.6920 -1.2364
   40MOL0     H 5256   6.556   2.882   6.407 -2.1773 -0.2006  0.8086
   40MOL0     H 5257   6.560   2.941   6.239  1.2947  0.8915  1.8431
   40MOL0     H 5258   6.326   2.974   6.247 -0.4946 -0.9880  0.2401
   40MOL0     H 5259   6.352   2.830   6.341  0.0989 -0.2123  3.1760
   40MOL0     H 5260   6.305   3.091   6.494 -0.3440  0.8177 -0.2986
   40MOL0     H 5261   6.330   2.932   6.549  1.1445  1.4416 -0.1839
   40MOL0     H 5262   6.331   3.712   5.942  1.0131  0.8556 -0.0645
   40MOL0     H 5263   6.242   3.705   5.685  3.5748  2.6088 -1.6491
   40MOL0     H 5264   6.163   3.500   5.327  0.0677  1.9876  0.2459
   40MOL0     H 5265   6.047   3.576   5.108  0.2131 -0.5210 -2.8232
   40MOL0     H 5266   5.694   4.900   3.818 -2.3678  3.6824 -0.0834
   40MOL0     H 5267   5.519   5.035   3.885  1.1475 -0.8555 -3.9530
   40MOL0     H 5268   5.099   5.252   3.795 -2.8858  1.6937 -0.2880
   40MOL0     H 5269   4.961   5.412   3.907  0.1211  0.1469  0.7695
   40MOL0     H 5270   4.736   5.454   4.295  2.8346  1.3578 -1.1192
   40MOL0     H 5271   4.827   5.310   4.336  1.2342  1.8020 -0.0630
   40MOL0     H 5272   4.718   5.195   4.154  0.8266  0.5305  1.7046
   40MOL0     H 5273   4.614   5.231   4.283 -2.6834 -1.4941 -2.0248
   40MOL0     H 5274   4.622   5.388   4.031  3.1978 -2.9520  0.3647
   40MOL0     H 5275   4.485   5.406   4.145 -1.0020 -0.7551 -0.3634
   40MOL0     H 5276   4.424   5.262   3.946  1.4086  0.4051 -0.1906
   40MOL0     H 5277   4.541   5.147   3.996  0.3799 -1.9209  1.8742
   40MOL0     H 5278   4.193   5.083   4.237 -1.0941 -0.7815 -1.6380
   40MOL0     H 5279   5.000   5.207   4.284 -0.5245  2.0226 -0.7120
   40MOL0     H 5280   5.146   5.039   4.182  0.5738  1.5636  1.8833
   41MOL0     O 5281   7.934   5.792   8.846 -0.7399 -0.0082  0.1030
   41MOL0     C 5282   7.989   5.716   8.768  0.2996  0.4729  0.2607
   41MOL0     O 5283   7.926   5.673   8.659 -0.2452 -0.8015 -0.0299
   41MOL0     C 5284   7.805   5.737   8.628  0.2026  0.2248  0.1359
   41MOL0     C 5285   7.797   5.852   8.548  0.0210 -0.8918 -0.4906
   41MOL0     C 5286   7.667   5.912   8.540  0.4148  1.4585  1.1420
   41MOL0     C 5287   7.551   5.861   8.590 -0.4379 -0.4549 -0.2045
   41MOL0     O 5288   7.429   5.930   8.588 -0.5064 -0.1253  0.2396
   41MOL0     C 5289   7.324   5.884   8.675  0.3191  0.0352  0.3471
   41MOL0     C 5290   7.196   5.955   8.668  0.2038 -0.7551  0.0259
   41MOL0     C 5291   7.090   5.894   8.757 -0.2698  0.8874 -0.5980
   41MOL0     C 5292   6.964   5.977   8.760  0.2366 -0.3225 -0.1647
   41MOL0     C 5293   6.846   5.897   8.829 -0.2765  0.0481 -0.1001
   41MOL0     C 5294   6.712   5.963   8.808  0.6079  0.2402  0.0840
   41MOL0     C 5295   6.591   5.868   8.837  0.0214  0.3802  0.3678
   41MOL0     C 5296   6.476   5.952   8.787  0.6825 -1.2948  0.6301
   41MOL0     N 5297   6.344   5.902   8.821 -0.6834  0.0931 -0.0048
   41MOL0     C 5298   6.307   5.771   8.802 -0.7673 -0.4728  0.2665
   41MOL0     C 5299   6.177   5.775   8.829  0.3667  0.0484  0.2265
   41MOL0     C 5300   6.074   5.666   8.830 -0.8621  0.2026 -0.1561
   41MOL0     C 5301   5.956   5.702   8.745  0.2826  0.1603  0.2000
   41MOL0     C 5302   5.872   5.580   8.714  0.5487  0.2185 -0.1555
   41MOL0     C 5303   5.751   5.618   8.613  0.4795 -0.3710 -0.3695
   41MOL0     O 5304   5.673   5.499   8.581 -0.7969 -1.0824 -0.1449
   41MOL0     C 5305   5.590   5.447   8.679  0.7010  0.2724 -0.3429
   41MOL0     C 5306   5.535   5.528   8.774 -0.0201 -0.1614 -0.2203
   41MOL0     C 5307   5.429   5.472   8.849  0.4798  0.5416  0.5815
   41MOL0     C 5308   5.389   5.334   8.839  0.2029 -0.0930 -0.0053
   41MOL0     C 5309   5.279   5.287   8.932  0.2771  0.6533  0.0692
   41MOL0     O 5310   5.257   5.361   9.042 -0.5961 -0.0844 -0.3504
   41MOL0     C 5311   5.134   5.381   9.101 -0.5129 -0.0520 -0.2463
   41MOL0     C 5312   5.130   5.474   9.212 -0.7596  0.9244  0.2447
   41MOL0     C 5313   5.013   5.495   9.280 -0.1824  1.4230  0.6042
   41MOL0     C 5314   4.895   5.408   9.266  0.5904 -0.3672  0.1732
   41MOL0     O 5315   4.804   5.429   9.362  1.1164 -0.3280  0.1414
   41MOL0     C 5316   4.685   5.349   9.376 -0.0510  0.7010  0.3012
   41MOL0     C 5317   4.712   5.210   9.435 -1.0401 -0.1302  0.4181
   41MOL0     C 5318   4.594   5.112   9.453  0.3884 -0.5791 -0.2431
   41MOL0     C 5319   4.504   5.087   9.334 -0.3330 -0.9450  0.3040
   41MOL0     C 5320   4.415   4.969   9.359  1.1062 -0.8482 -1.0636
   41MOL0     C 5321   4.310   4.963   9.243 -0.7967  0.6752  0.4425
   41MOL0     C 5322   4.236   4.827   9.253 -0.7432 -1.0531 -0.3482
   41MOL0     C 5323   4.160   4.812   9.131 -0.0922  0.4292  0.0996
   41MOL0    Cl 5324   4.266   4.733   9.006  0.0608 -0.0174 -0.3098
   41MOL0     C 5325   4.900   5.325   9.161 -0.4022  0.7816 -0.6625
   41MOL0     C 5326   5.013   5.325   9.074 -0.3585 -0.6102  0.6173
   41MOL0     O 5327   5.215   5.190   8.895  0.3304  0.0712 -0.6148
   41MOL0     C 5328   5.450   5.253   8.747 -0.7620  0.1260  0.4088
   41MOL0     C 5329   5.558   5.313   8.671 -0.7547  0.0018 -1.0006
   41MOL0     N 5330   6.135   5.901   8.849  0.4956  0.0812  0.1996
   41MOL0     N 5331   6.238   5.980   8.835  0.5396 -0.1781 -0.0577
   41MOL0     C 5332   7.569   5.738   8.661  0.5906  0.5563  0.0687
   41MOL0     C 5333   7.691   5.676   8.676  0.1303 -1.1256 -0.5491
   41MOL0     C 5334   8.118   5.651   8.797 -0.1614 -0.8189  0.2699
   41MOL0     C 5335   8.200   5.714   8.897 -0.6304  0.8816 -0.7674
   41MOL0     C 5336   8.332   5.671   8.925  0.7843 -0.1915 -1.1501
   41MOL0     C 5337   8.383   5.562   8.847 -1.3164  0.1325 -0.4338
   41MOL0     O 5338   8.519   5.519   8.842  0.4791 -0.0187  0.0070
   41MOL0     C 5339   8.613   5.609   8.900 -0.3987  0.2826  0.1875
   41MOL0     C 5340   8.629   5.742   8.831 -0.1762 -0.5344 -0.2950
   41MOL0     C 5341   8.612   5.746   8.677  0.0756  0.9125  0.1643
   41MOL0     C 5342   8.689   5.869   8.620 -0.4717  0.7388 -1.1311
   41MOL0     C 5343   8.830   5.840   8.586  0.3317  0.1628 -0.9945
   41MOL0     C 5344   8.950   5.807   8.592  0.9515  0.8859 -0.6254
   41MOL0     C 5345   8.306   5.501   8.751  0.1034 -0.2175 -0.8513
   41MOL0     C 5346   8.178   5.554   8.725  0.0667 -0.1807  0.3292
   41MOL0     H 5347   7.889   5.896   8.511  1.7649 -2.0857  2.1394
   41MOL0     H 5348   7.663   6.007   8.488  0.1406  1.0335  0.3649
   41MOL0     H 5349   7.355   5.881   8.779  0.1610  2.8286  0.5362
   41MOL0     H 5350   7.305   5.782   8.639  0.3259  0.0046  0.4311
   41MOL0     H 5351   7.158   5.963   8.565  1.6165 -1.6358 -0.6028
   41MOL0     H 5352   7.207   6.056   8.708 -1.5111 -1.1228  1.5237
   41MOL0     H 5353   7.130   5.879   8.857 -0.0255  3.1195 -0.3245
   41MOL0     H 5354   7.060   5.799   8.711  1.1350  0.2365 -0.2145
   41MOL0     H 5355   6.989   6.072   8.808 -2.4625 -0.9383  2.7971
   41MOL0     H 5356   6.931   6.002   8.659  0.6627 -1.0093 -0.4840
   41MOL0     H 5357   6.871   5.899   8.935  2.1721 -1.2241 -0.5742
   41MOL0     H 5358   6.842   5.790   8.804  2.3902 -0.2143  0.3197
   41MOL0     H 5359   6.705   5.995   8.703  1.7351  1.7028  0.4324
   41MOL0     H 5360   6.699   6.046   8.877 -0.5016 -2.7969  3.9158
   41MOL0     H 5361   6.604   5.773   8.785  0.8032  0.4837  0.3551
   41MOL0     H 5362   6.604   5.851   8.945  3.1427  3.0462  0.5823
   41MOL0     H 5363   6.480   5.952   8.678 -0.4794 -3.3014  0.5485
   41MOL0     H 5364   6.466   6.057   8.817 -0.3301 -1.3976  0.6883
   41MOL0     H 5365   6.358   5.675   8.803 -4.8285 -2.8804  1.4515
   41MOL0     H 5366   6.033   5.666   8.931 -0.0519  0.1951  0.1838
   41MOL0     H 5367   6.109   5.566   8.803 -0.1749  0.7174 -1.2487
   41MOL0     H 5368   5.991   5.751   8.654  2.5458 -2.4635 -0.4787
   41MOL0     H 5369   5.901   5.773   8.808 -3.3651 -0.8123 -1.6258
   41MOL0     H 5370   5.925   5.491   8.679 -0.5418 -0.0193 -1.2647
   41MOL0     H 5371   5.825   5.555   8.810  0.7214 -0.3327 -0.2118
   41MOL0     H 5372   5.800   5.654   8.522  1.3011 -1.2093 -0.2660
   41MOL0     H 5373   5.680   5.696   8.644  0.3807  0.0204 -1.4983
   41MOL0     H 5374   5.557   5.634   8.784  3.1551 -0.7242 -0.3451
   41MOL0     H 5375   5.370   5.534   8.916 -1.6658 -0.6866 -0.0599
   41MOL0     H 5376   5.221   5.524   9.243  0.9470  0.0426 -2.9006
   41MOL0     H 5377   5.007   5.572   9.356  1.0313  4.2412 -1.9848
   41MOL0     H 5378   4.640   5.326   9.279  1.2814  2.7501 -0.8930
   41MOL0     H 5379   4.609   5.412   9.423 -0.2382 -0.5590  1.7924
   41MOL0     H 5380   4.768   5.215   9.530  1.3439 -1.8157 -0.7831
   41MOL0     H 5381   4.781   5.164   9.364  1.2493 -0.9894  3.0032
   41MOL0     H 5382   4.533   5.141   9.539 -0.3584  0.3611 -1.0667
   41MOL0     H 5383   4.631   5.013   9.483 -1.0356 -1.1769 -0.3785
   41MOL0     H 5384   4.442   5.172   9.302  2.2603  0.6082 -0.9452
   41MOL0     H 5385   4.573   5.076   9.250  1.7888  0.9972  1.6692
   41MOL0     H 5386   4.371   4.970   9.459 -4.1914  2.4516 -3.0335
   41MOL0     H 5387   4.475   4.878   9.347 -0.2468 -1.9844  0.3222
   41MOL0     H 5388   4.358   4.968   9.145  0.1353  2.3083  0.9589
   41MOL0     H 5389   4.247   5.051   9.257  1.4028  2.2649  0.8455
   41MOL0     H 5390   4.306   4.748   9.281 -0.1198 -0.1294  0.7899
   41MOL0     H 5391   4.162   4.820   9.333 -1.9530 -3.3864 -1.5737
   41MOL0     H 5392   4.118   4.906   9.092 -1.1881 -0.1479 -0.1445
   41MOL0     H 5393   4.068   4.755   9.146 -1.9528  3.3631  0.7413
   41MOL0     H 5394   4.818   5.256   9.146  1.9093 -1.9088 -1.9824
   41MOL0     H 5395   4.997   5.275   8.979  2.0965 -0.1445 -0.1249
   41MOL0     H 5396   5.419   5.150   8.737 -2.8376  0.7292  0.2402
   41MOL0     H 5397   5.587   5.236   8.601 -1.1859 -0.0827 -1.0861
   41MOL0     H 5398   7.486   5.698   8.718  0.3031 -0.1820 -0.8454
   41MOL0     H 5399   7.701   5.597   8.749  3.0068 -1.5899 -1.3087
   41MOL0     H 5400   8.164   5.788   8.967 -0.2309  0.1434  0.2387
   41MOL0     H 5401   8.393   5.721   9.000  2.6845 -0.0012 -2.7378
   41MOL0     H 5402   8.710   5.558   8.905 -1.8810 -2.7517  0.0268
   41MOL0     H 5403   8.578   5.613   9.003 -3.0281 -0.3841 -0.5953
   41MOL0     H 5404   8.550   5.803   8.875  2.0020  2.3775 -0.1433
   41MOL0     H 5405   8.720   5.793   8.864 -0.6823 -0.7128  1.4397
   41MOL0     H 5406   8.506   5.750   8.652 -0.0136 -0.7328  0.1782
   41MOL0     H 5407   8.649   5.648   8.643 -0.9971  0.5762 -0.0569
   41MOL0     H 5408   8.640   5.885   8.523 -3.2257 -1.7922 -0.2885
   41MOL0     H 5409   8.686   5.958   8.684  0.7012  1.0989 -1.5457
   41MOL0     H 5410   9.054   5.786   8.606  0.3723 -2.3539 -0.2730
   41MOL0     H 5411   8.337   5.423   8.682 -1.3531 -1.1562 -0.5016
   41MOL0     H 5412   8.121   5.515   8.641  1.8745  2.0413 -2.0879
   42MOL0     O 5413   5.017   5.215   4.535 -0.4152  0.7890 -0.3358
   42MOL0     C 5414   4.967   5.319   4.586 -0.4211  0.6658  0.6762
   42MOL0     O 5415   4.826   5.346   4.606 -0.3547 -0.3274 -0.3596
   42MOL0     C 5416   4.742   5.235   4.616  0.0222 -0.1532 -0.4955
   42MOL0     C 5417   4.611   5.242   4.576 -1.4324 -0.5015 -0.2711
   42MOL0     C 5418   4.524   5.138   4.573  0.1417  0.3549  1.3815
   42MOL0     C 5419   4.567   5.012   4.621 -0.1511 -0.5447  0.2133
   42MOL0     O 5420   4.504   4.896   4.614  0.3812  0.1121 -0.1048
   42MOL0     C 5421   4.360   4.901   4.658 -0.9990  0.1814 -0.0842
   42MOL0     C 5422   4.348   4.943   4.817  0.1183  1.0641  1.1948
   42MOL0     C 5423   4.387   4.808   4.882 -1.1370 -0.5253 -0.9002
   42MOL0     C 5424   4.388   4.823   5.044  0.4926  0.1631  0.1304
   42MOL0     C 5425   4.522   4.790   5.120 -0.1863  0.3404  0.1989
   42MOL0     C 5426   4.649   4.867   5.093 -0.2955 -0.6393  0.6556
   42MOL0     C 5427   4.771   4.803   5.169 -0.4577 -0.4648  0.3452
   42MOL0     C 5428   4.843   4.694   5.087  0.9904  0.0414  0.0367
   42MOL0     N 5429   4.915   4.741   4.965  0.4125 -0.0547  0.3941
   42MOL0     C 5430   5.046   4.703   4.947 -0.1722 -0.4098 -0.0133
   42MOL0     C 5431   5.059   4.695   4.812  0.0354 -0.0334  0.4550
   42MOL0     C 5432   5.176   4.630   4.740 -0.4811  0.4895 -0.1336
   42MOL0     C 5433   5.299   4.705   4.745  0.2047 -0.4147 -0.1121
   42MOL0     C 5434   5.302   4.835   4.667 -0.5960  0.1124  0.1903
   42MOL0     C 5435   5.227   4.953   4.726 -0.6719  0.2154  0.0020
   42MOL0     O 5436   5.253   4.972   4.865  0.7771  0.6949  0.3306
   42MOL0     C 5437   5.153   5.043   4.935  0.0470  0.0504  0.7744
   42MOL0     C 5438   5.086   5.147   4.878 -0.3443 -0.0540  0.1326
   42MOL0     C 5439   4.975   5.213   4.942 -0.2457  0.2054 -0.9636
   42MOL0     C 5440   4.940   5.187   5.074 -0.0994  0.2953  0.3562
   42MOL0     C 5441   4.836   5.266   5.148 -0.4192  0.4471  0.0294
   42MOL0     O 5442   4.774   5.195   5.250  0.1494  0.6979  0.1531
   42MOL0     C 5443   4.674   5.252   5.317 -0.5121 -1.1307 -0.5656
   42MOL0     C 5444   4.543   5.228   5.279 -0.2683 -0.0208  0.9749
   42MOL0     C 5445   4.436   5.281   5.353  0.1882  0.5238  0.0567
   42MOL0     C 5446   4.460   5.367   5.453 -0.1966 -1.1518 -0.7248
   42MOL0     O 5447   4.357   5.434   5.503 -0.5404  0.4565 -0.3926
   42MOL0     C 5448   4.365   5.518   5.621  0.7550 -0.0528 -0.1934
   42MOL0     C 5449   4.215   5.563   5.646 -0.4567 -0.6306 -0.8984
   42MOL0     C 5450   4.197   5.659   5.759 -0.4509  0.9800 -0.1077
   42MOL0     C 5451   4.254   5.619   5.903 -0.1809  0.4493  0.5844
   42MOL0     C 5452   4.237   5.727   6.004  0.3465  0.6247 -0.2459
   42MOL0     C 5453   4.298   5.856   5.963 -0.8020 -0.6168  0.2120
   42MOL0     C 5454   4.447   5.845   5.944  0.3701 -0.9033 -0.1222
   42MOL0     C 5455   4.510   5.985   5.961 -0.1567  0.3969 -0.4771
   42MOL0    Cl 5456   4.526   6.054   6.130  0.1499 -0.5308 -0.2285
   42MOL0     C 5457   4.595   5.394   5.499  0.7540  0.6747  0.6019
   42MOL0     C 5458   4.702   5.338   5.427 -0.9118  0.5984  0.7883
   42MOL0     O 5459   4.814   5.382   5.106  0.2618 -0.6127 -0.8291
   42MOL0     C 5460   5.012   5.080   5.129  0.4700  0.5919 -0.9260
   42MOL0     C 5461   5.108   5.004   5.058  0.6891 -0.2227 -0.0834
   42MOL0     N 5462   4.940   4.738   4.754  0.2233  0.3764  0.1235
   42MOL0     N 5463   4.854   4.754   4.846 -0.2486  1.0660 -0.7087
   42MOL0     C 5464   4.702   5.008   4.664  0.4616  0.0545 -0.4315
   42MOL0     C 5465   4.792   5.114   4.670  0.6529  0.1588 -0.4566
   42MOL0     C 5466   5.058   5.428   4.616  0.3287  0.0816 -0.0343
   42MOL0     C 5467   5.036   5.510   4.741  0.0114 -0.8344  0.5421
   42MOL0     C 5468   5.126   5.613   4.770 -0.0071 -0.0091  1.0446
   42MOL0     C 5469   5.245   5.636   4.690  0.2408  0.0993 -0.6668
   42MOL0     O 5470   5.329   5.736   4.728  0.0514 -0.2208  0.4873
   42MOL0     C 5471   5.430   5.789   4.635  0.4129 -1.1919 -0.0327
   42MOL0     C 5472   5.566   5.740   4.675  0.1468  0.5440 -0.1130
   42MOL0     C 5473   5.606   5.783   4.819 -0.2162  0.0494  0.4367
   42MOL0     C 5474   5.570   5.673   4.916  0.2442  0.0084 -0.0506
   42MOL0     C 5475   5.602   5.728   5.048 -0.6113 -0.8348  0.1106
   42MOL0     C 5476   5.639   5.759   5.157 -0.1836  0.2802 -0.1381
   42MOL0     C 5477   5.270   5.549   4.582 -0.1871  0.1312  0.3802
   42MOL0     C 5478   5.177   5.452   4.542  0.0492 -0.0947  0.5503
   42MOL0     H 5479   4.577   5.340   4.544  0.7101  0.9012  1.4425
   42MOL0     H 5480   4.420   5.142   4.545  0.1965 -0.7657  0.9684
   42MOL0     H 5481   4.316   4.801   4.649  2.0770 -1.2651 -0.3558
   42MOL0     H 5482   4.314   4.978   4.596  1.0717  1.1440 -0.4792
   42MOL0     H 5483   4.250   4.976   4.852 -0.4210 -2.2908  3.3198
   42MOL0     H 5484   4.414   5.025   4.845  3.2880 -0.3680 -1.3885
   42MOL0     H 5485   4.485   4.768   4.854 -0.4344 -0.9615  1.8308
   42MOL0     H 5486   4.316   4.730   4.853  1.5903 -3.0603 -1.2620
   42MOL0     H 5487   4.364   4.927   5.066  0.1318 -0.0785  0.8873
   42MOL0     H 5488   4.317   4.751   5.085 -3.2381  0.9984 -4.0666
   42MOL0     H 5489   4.548   4.695   5.071  1.4924  2.1146 -2.6230
   42MOL0     H 5490   4.509   4.779   5.228  4.9329 -0.3773  1.0275
   42MOL0     H 5491   4.640   4.969   5.131 -0.5466 -1.4258  2.8056
   42MOL0     H 5492   4.664   4.867   4.984 -1.8963  4.0867  0.2033
   42MOL0     H 5493   4.853   4.873   5.188 -1.0981  1.1972 -2.5160
   42MOL0     H 5494   4.742   4.747   5.258 -0.0332  2.8733  2.7981
   42MOL0     H 5495   4.773   4.617   5.055  1.0126 -1.2296  2.7455
   42MOL0     H 5496   4.915   4.644   5.153  0.8169  0.4511  0.5516
   42MOL0     H 5497   5.108   4.651   5.019 -1.4072 -0.5702  0.9742
   42MOL0     H 5498   5.138   4.597   4.643  0.2396 -4.3843  0.9640
   42MOL0     H 5499   5.191   4.536   4.794  3.2546  1.1547  0.2336
   42MOL0     H 5500   5.380   4.644   4.705  1.7534  2.0798 -0.9900
   42MOL0     H 5501   5.318   4.744   4.846  1.7328 -0.1980 -0.4521
   42MOL0     H 5502   5.410   4.853   4.670 -0.2222 -1.9793  1.0343
   42MOL0     H 5503   5.280   4.822   4.561  2.4078 -1.1114 -0.3803
   42MOL0     H 5504   5.122   4.949   4.697 -0.9472  1.2545  0.8325
   42MOL0     H 5505   5.260   5.040   4.669  0.9470  0.5609  1.3889
   42MOL0     H 5506   5.118   5.174   4.777  1.9935 -0.1708  0.7691
   42MOL0     H 5507   4.923   5.295   4.894  0.5735  2.3658  1.5848
   42MOL0     H 5508   4.522   5.186   5.182 -0.6892 -1.9915  1.8694
   42MOL0     H 5509   4.337   5.254   5.316  1.8100 -3.0477 -2.2981
   42MOL0     H 5510   4.435   5.601   5.614  0.2558  0.3256 -0.7579
   42MOL0     H 5511   4.409   5.468   5.708  0.3663  1.3460  0.8377
   42MOL0     H 5512   4.156   5.477   5.679  1.7613 -1.5806  0.7887
   42MOL0     H 5513   4.171   5.604   5.554 -1.7402 -3.9816 -1.9082
   42MOL0     H 5514   4.091   5.684   5.771 -0.5953  0.0403  0.6360
   42MOL0     H 5515   4.233   5.757   5.726  1.9055  0.3103  0.2633
   42MOL0     H 5516   4.209   5.530   5.948  0.7164  0.6990  2.0640
   42MOL0     H 5517   4.358   5.587   5.886 -0.6518 -2.3131  2.2689
   42MOL0     H 5518   4.273   5.687   6.099 -2.3256  0.9046  0.9595
   42MOL0     H 5519   4.130   5.743   6.015  0.4850  1.1275  0.3912
   42MOL0     H 5520   4.290   5.929   6.044  2.5544 -0.9683  1.0235
   42MOL0     H 5521   4.251   5.894   5.872  1.7822 -1.6993 -1.7038
   42MOL0     H 5522   4.488   5.769   6.011 -0.4217 -1.6311 -0.4510
   42MOL0     H 5523   4.471   5.821   5.840  1.9613 -3.8492  0.8067
   42MOL0     H 5524   4.468   6.061   5.895 -2.3526  0.1373  0.5270
   42MOL0     H 5525   4.613   5.967   5.929  0.3667 -2.0640  2.1666
   42MOL0     H 5526   4.611   5.460   5.583 -1.6892 -1.9100  3.3190
   42MOL0     H 5527   4.803   5.373   5.446 -0.8068  0.9071 -0.3082
   42MOL0     H 5528   4.978   5.050   5.228 -0.2430  0.2673 -1.2634
   42MOL0     H 5529   5.162   4.918   5.097 -0.2846 -0.3799  0.9739
   42MOL0     H 5530   4.723   4.906   4.694  1.9909  0.8204  1.3097
   42MOL0     H 5531   4.892   5.083   4.698  0.3336 -3.2784 -2.4836
   42MOL0     H 5532   4.958   5.498   4.815  0.5533  0.2583  1.3233
   42MOL0     H 5533   5.121   5.674   4.860  1.9126  0.1995  1.0555
   42MOL0     H 5534   5.429   5.898   4.634  0.9287 -1.1861 -0.3165
   42MOL0     H 5535   5.408   5.768   4.530  0.8545  2.1421 -0.9076
   42MOL0     H 5536   5.595   5.635   4.667 -0.5824  0.3559 -0.3627
   42MOL0     H 5537   5.626   5.791   4.599  0.6851 -0.6540 -0.5323
   42MOL0     H 5538   5.557   5.878   4.843 -1.1372 -0.7593  1.9316
   42MOL0     H 5539   5.715   5.798   4.819 -0.4666  2.6156  2.2231
   42MOL0     H 5540   5.463   5.652   4.923 -0.3043  1.8501 -1.7527
   42MOL0     H 5541   5.627   5.582   4.893 -0.0201 -0.3297  0.6101
   42MOL0     H 5542   5.688   5.777   5.251 -0.3088 -0.1063  0.0053
   42MOL0     H 5543   5.354   5.559   4.515 -0.8869  0.0275 -0.5483
   42MOL0     H 5544   5.193   5.405   4.446 -1.6433  1.9702 -0.8264
   43MOL0     O 5545   3.644  10.874  10.833 -0.5819  0.1073 -0.4184
   43MOL0     C 5546   3.678  10.818  10.937 -0.3946  0.2298  1.7551
   43MOL0     O 5547   3.599  10.788  11.040 -0.0653  0.1061  0.2090
   43MOL0     C 5548   3.467  10.808  11.047  0.4741  0.1957 -0.0575
   43MOL0     C 5549   3.419  10.816  11.176  0.0037  0.5243  0.4326
   43MOL0     C 5550   3.283  10.826  11.209 -0.4992 -0.2767  0.6878
   43MOL0     C 5551   3.186  10.831  11.105 -0.7725  0.1816 -0.5422
   43MOL0     O 5552   3.064  10.851  11.137  0.0759 -0.3537 -0.2324
   43MOL0     C 5553   3.014  10.906  11.271 -0.2732  1.4914 -0.7850
   43MOL0     C 5554   2.864  10.895  11.281 -0.5132 -1.3023 -0.2359
   43MOL0     C 5555   2.778  10.949  11.167 -0.3710 -0.0561  0.7220
   43MOL0     C 5556   2.620  10.907  11.178 -0.1831  1.0649  0.0176
   43MOL0     C 5557   2.534  10.922  11.051  0.0042 -0.4764  0.8179
   43MOL0     C 5558   2.470  11.058  11.049  0.4148  0.7834 -0.6216
   43MOL0     C 5559   2.371  11.071  10.935 -0.6654  0.7105 -1.2023
   43MOL0     C 5560   2.238  10.988  10.956 -0.0302  0.0255  0.2993
   43MOL0     N 5561   2.128  11.021  10.858  0.6897 -0.1546 -0.1085
   43MOL0     C 5562   2.022  11.105  10.888 -0.1597 -0.9467 -0.2140
   43MOL0     C 5563   1.947  11.090  10.779 -0.2299 -0.7911 -0.6207
   43MOL0     C 5564   1.828  11.167  10.753 -1.3829 -0.1782 -0.3780
   43MOL0     C 5565   1.754  11.123  10.629  1.2346  1.0922 -0.2210
   43MOL0     C 5566   1.631  11.198  10.573  0.3103  0.1611  0.8803
   43MOL0     C 5567   1.574  11.123  10.449  0.5304  0.0442  0.2028
   43MOL0     O 5568   1.502  11.211  10.358  0.6782  0.1493 -0.5378
   43MOL0     C 5569   1.409  11.147  10.283  0.3761  0.4864 -0.4871
   43MOL0     C 5570   1.411  11.020  10.223 -0.4629 -0.3425 -0.2254
   43MOL0     C 5571   1.294  10.969  10.163 -0.7203  0.2391 -0.3184
   43MOL0     C 5572   1.181  11.049  10.142 -0.1910  0.1322  0.7839
   43MOL0     C 5573   1.067  10.996  10.069 -0.2369 -0.6358  0.8365
   43MOL0     O 5574   0.958  11.075  10.060 -0.6347 -0.3347  0.5645
   43MOL0     C 5575   0.861  11.053   9.971 -0.4741 -0.3783  0.7825
   43MOL0     C 5576   0.739  11.024  10.021  0.4875  0.0670  0.2252
   43MOL0     C 5577   0.629  10.980   9.934  0.1183  0.1716 -0.7099
   43MOL0     C 5578   0.650  10.972   9.802 -0.3754 -0.9903  0.3457
   43MOL0     O 5579   0.538  10.929   9.732  0.2001 -0.2434 -0.1851
   43MOL0     C 5580   0.553  10.882   9.598  0.3198  1.5642 -0.2102
   43MOL0     C 5581   0.414  10.824   9.556  0.3436 -0.2258 -0.4185
   43MOL0     C 5582   0.421  10.732   9.432 -0.4016  0.6018 -0.1502
   43MOL0     C 5583   0.274  10.696   9.395  0.1532 -0.3843  0.4776
   43MOL0     C 5584   0.201  10.816   9.324  0.0883 -0.7767 -0.5722
   43MOL0     C 5585   0.053  10.769   9.326 -0.1244 -0.1457  0.0617
   43MOL0     C 5586  -0.033  10.847   9.220 -0.0682  0.5643  0.4600
   43MOL0     C 5587  -0.001  10.989   9.194  0.7078 -0.4504  0.0858
   43MOL0    Cl 5588  -0.028  11.090   9.347 -0.6305  0.4013 -0.5463
   43MOL0     C 5589   0.772  11.008   9.745 -0.4220 -0.2514  0.1029
   43MOL0     C 5590   0.875  11.042   9.835 -0.8448  0.7184  0.2203
   43MOL0     O 5591   1.074  10.881  10.020  0.5786 -0.0639 -0.9031
   43MOL0     C 5592   1.182  11.183  10.180 -0.1673  1.1860 -0.7613
   43MOL0     C 5593   1.289  11.225  10.257 -0.2712 -0.2398 -0.2856
   43MOL0     N 5594   1.999  10.995  10.692  0.1141  0.0975  0.7652
   43MOL0     N 5595   2.112  10.955  10.740 -0.6429  0.4809 -0.2247
   43MOL0     C 5596   3.232  10.812  10.972  0.1395  0.0084  0.1216
   43MOL0     C 5597   3.367  10.812  10.944 -0.0511  0.1067 -0.1318
   43MOL0     C 5598   3.819  10.766  10.941  0.1214 -0.1035  0.2658
   43MOL0     C 5599   3.887  10.717  10.823  0.0156 -0.1353 -0.2515
   43MOL0     C 5600   4.018  10.671  10.824  0.2603 -0.5997 -0.7151
   43MOL0     C 5601   4.090  10.683  10.953  0.2247  0.2948  0.7147
   43MOL0     O 5602   4.222  10.634  10.962  0.0859 -0.5627 -0.6091
   43MOL0     C 5603   4.324  10.702  11.042  0.7241  0.2702 -0.2562
   43MOL0     C 5604   4.347  10.617  11.167 -0.9659 -0.0796  0.2167
   43MOL0     C 5605   4.391  10.484  11.117 -0.0002  0.0213  0.2435
   43MOL0     C 5606   4.499  10.475  11.010 -0.1112 -0.3857  0.6419
   43MOL0     C 5607   4.573  10.350  10.991 -1.2330  0.2421 -1.0886
   43MOL0     C 5608   4.643  10.254  10.953  0.1387 -0.1087 -0.0834
   43MOL0     C 5609   4.025  10.730  11.062  0.3282 -0.7881  0.0164
   43MOL0     C 5610   3.889  10.768  11.063  0.2991 -0.7907  0.4003
   43MOL0     H 5611   3.479  10.793  11.263 -3.6191  1.0173  3.3007
   43MOL0     H 5612   3.251  10.823  11.313 -0.5677  0.3792  0.6915
   43MOL0     H 5613   3.055  11.007  11.288  5.0751 -0.2342 -1.4056
   43MOL0     H 5614   3.061  10.840  11.344  0.0314  1.0638 -1.3654
   43MOL0     H 5615   2.843  10.952  11.372 -2.9468  0.0116 -1.5122
   43MOL0     H 5616   2.823  10.794  11.297 -4.2348  0.2594  1.3932
   43MOL0     H 5617   2.817  10.905  11.075 -1.0853  1.3485 -0.2890
   43MOL0     H 5618   2.789  11.057  11.161 -0.8715 -0.0374 -0.0082
   43MOL0     H 5619   2.617  10.799  11.197  0.1406  1.0713  0.1110
   43MOL0     H 5620   2.574  10.954  11.266  0.0726 -2.2422  2.1025
   43MOL0     H 5621   2.450  10.851  11.055 -2.8127  2.4080 -1.5746
   43MOL0     H 5622   2.593  10.914  10.959 -0.1761  0.7136  0.5891
   43MOL0     H 5623   2.556  11.124  11.036  0.5954  0.5457 -0.6247
   43MOL0     H 5624   2.425  11.074  11.148  1.1773  1.7027 -0.4126
   43MOL0     H 5625   2.360  11.179  10.924 -1.6573  1.1870  2.8185
   43MOL0     H 5626   2.411  11.041  10.838 -3.5611  0.7102 -2.5058
   43MOL0     H 5627   2.195  10.999  11.056 -2.1094  0.8911 -0.6213
   43MOL0     H 5628   2.252  10.882  10.936  0.9328 -0.2107  1.9932
   43MOL0     H 5629   2.011  11.171  10.974  0.0295 -0.9795 -0.1642
   43MOL0     H 5630   1.864  11.270  10.739 -0.6883 -0.5624 -1.5197
   43MOL0     H 5631   1.769  11.169  10.845 -1.1919 -2.9609 -0.1296
   43MOL0     H 5632   1.713  11.023  10.647  0.7319  1.6971  2.4016
   43MOL0     H 5633   1.826  11.105  10.549 -2.5205  0.9266 -3.9166
   43MOL0     H 5634   1.555  11.193  10.651 -0.1382 -1.1865  0.3856
   43MOL0     H 5635   1.661  11.297  10.536  1.2427 -1.1674 -2.1656
   43MOL0     H 5636   1.503  11.048  10.486  2.7539 -2.4976 -0.3543
   43MOL0     H 5637   1.650  11.066  10.395 -0.2280 -1.7695  0.9422
   43MOL0     H 5638   1.503  10.964  10.234  0.2613  1.0047  0.8746
   43MOL0     H 5639   1.296  10.865  10.131  1.7684  0.2577 -0.3719
   43MOL0     H 5640   0.723  11.036  10.128 -0.5763  1.4955 -0.0537
   43MOL0     H 5641   0.533  10.963   9.981 -0.3153  3.1600 -0.3198
   43MOL0     H 5642   0.634  10.809   9.602 -2.0045 -1.1082  2.2440
   43MOL0     H 5643   0.574  10.961   9.525 -0.3269  1.1898 -0.8180
   43MOL0     H 5644   0.339  10.904   9.550  2.1661  1.6220  0.1602
   43MOL0     H 5645   0.383  10.767   9.644 -1.7161  1.9445  0.3583
   43MOL0     H 5646   0.470  10.638   9.460  0.8782  0.1301 -3.5251
   43MOL0     H 5647   0.471  10.771   9.343 -0.9716  3.5503  0.7088
   43MOL0     H 5648   0.276  10.617   9.320 -2.2014  0.1473 -0.2388
   43MOL0     H 5649   0.213  10.662   9.480  0.4594 -1.5564  0.2438
   43MOL0     H 5650   0.241  10.830   9.223 -1.4845  3.4299 -0.8013
   43MOL0     H 5651   0.218  10.908   9.380  0.8790  0.3849 -2.5999
   43MOL0     H 5652   0.016  10.791   9.427 -2.9698 -1.4800 -0.6086
   43MOL0     H 5653   0.040  10.661   9.315  1.9145 -0.4592  0.3275
   43MOL0     H 5654  -0.027  10.799   9.122 -1.5341 -1.2975  1.2157
   43MOL0     H 5655  -0.139  10.829   9.236  0.0570 -0.3255  0.3164
   43MOL0     H 5656  -0.046  11.028   9.102  2.0014  2.4146  0.5573
   43MOL0     H 5657   0.105  10.998   9.168  0.6125  2.3044  0.3238
   43MOL0     H 5658   0.798  11.004   9.640 -2.0955 -1.9894 -0.3054
   43MOL0     H 5659   0.974  11.062   9.796 -0.2358 -0.8802  0.8333
   43MOL0     H 5660   1.091  11.241  10.174 -0.5768  1.2195  3.0693
   43MOL0     H 5661   1.271  11.323  10.299 -4.4615 -0.3800 -1.3185
   43MOL0     H 5662   3.166  10.823  10.887  0.3269 -0.8682 -0.1499
   43MOL0     H 5663   3.402  10.800  10.841 -4.0810 -1.5959 -1.4958
   43MOL0     H 5664   3.830  10.711  10.732 -1.3338  0.6328  0.5150
   43MOL0     H 5665   4.056  10.631  10.730  1.7753  2.2471 -1.4180
   43MOL0     H 5666   4.286  10.801  11.068  0.6893 -0.0360  0.9317
   43MOL0     H 5667   4.421  10.722  10.997  0.1814  3.5920 -0.1823
   43MOL0     H 5668   4.434  10.643  11.229  0.9958 -2.8510 -1.1636
   43MOL0     H 5669   4.265  10.610  11.238 -1.7411  0.9303 -0.5591
   43MOL0     H 5670   4.302  10.426  11.093  0.2154 -0.1208 -0.2408
   43MOL0     H 5671   4.430  10.445  11.211 -0.2153 -0.9782 -0.0740
   43MOL0     H 5672   4.451  10.498  10.914 -2.6499 -3.7113  0.9258
   43MOL0     H 5673   4.571  10.556  11.030 -0.2984 -0.2149  0.6274
   43MOL0     H 5674   4.700  10.170  10.918 -0.1440  0.1953 -1.3411
   43MOL0     H 5675   4.079  10.742  11.155  1.8283  0.2336 -0.9519
   43MOL0     H 5676   3.838  10.811  11.148 -0.5710  0.0234 -0.5082
   44MOL0     O 5677   8.901   1.289   1.059 -0.5642  0.1139 -1.0821
   44MOL0     C 5678   8.854   1.176   1.036 -0.4600 -0.4705 -0.4583
   44MOL0     O 5679   8.925   1.060   1.015  0.3029  0.2463  0.2028
   44MOL0     C 5680   9.061   1.080   0.997  0.5794 -0.1995 -0.4264
   44MOL0     C 5681   9.124   1.054   0.878  0.4293 -0.0394  0.0742
   44MOL0     C 5682   9.259   1.039   0.866 -0.6779  0.4579 -0.1769
   44MOL0     C 5683   9.345   1.074   0.974  0.3336  0.3016 -0.8258
   44MOL0     O 5684   9.479   1.072   0.956  0.6514  0.0389 -0.1389
   44MOL0     C 5685   9.573   1.072   1.058  0.1287  0.0619  0.8586
   44MOL0     C 5686   9.568   0.935   1.139 -0.2792  0.1501 -0.2171
   44MOL0     C 5687   9.682   0.925   1.258  0.0766  0.5578 -0.7864
   44MOL0     C 5688   9.642   0.800   1.347 -0.9785  0.2184  0.1212
   44MOL0     C 5689   9.763   0.758   1.454  0.1692 -0.6174  0.7628
   44MOL0     C 5690   9.880   0.691   1.384  0.0317 -0.8478 -0.2892
   44MOL0     C 5691   9.994   0.659   1.476 -0.6649  0.2659  0.0813
   44MOL0     C 5692   9.965   0.533   1.551  0.0305  0.6708  0.5891
   44MOL0     N 5693  10.072   0.491   1.639 -0.0719  0.1010 -0.2466
   44MOL0     C 5694  10.112   0.550   1.757 -0.7789  0.0030 -0.1851
   44MOL0     C 5695  10.192   0.459   1.816  0.6100  0.1550 -0.1167
   44MOL0     C 5696  10.275   0.470   1.937  0.6114 -0.1459 -0.4194
   44MOL0     C 5697  10.179   0.474   2.056  0.0457  0.6288 -0.2055
   44MOL0     C 5698  10.262   0.490   2.190  0.4367  0.2900 -0.0587
   44MOL0     C 5699  10.169   0.542   2.309 -0.4255  0.1080  1.1317
   44MOL0     O 5700  10.056   0.457   2.328 -0.6493  0.6178 -0.6815
   44MOL0     C 5701   9.992   0.454   2.454  0.2492  0.3001 -0.0462
   44MOL0     C 5702   9.911   0.344   2.494 -0.2505  0.1589 -0.2157
   44MOL0     C 5703   9.861   0.342   2.627 -0.3359 -0.8549  0.7322
   44MOL0     C 5704   9.884   0.447   2.714 -0.0376 -0.0151 -0.1320
   44MOL0     C 5705   9.833   0.435   2.855 -0.3444  0.6789  0.7301
   44MOL0     O 5706   9.764   0.322   2.894 -0.5422  0.3647  0.3372
   44MOL0     C 5707   9.726   0.292   3.020  0.1890  0.7813 -0.0762
   44MOL0     C 5708   9.601   0.232   3.031  0.5172  0.0557 -0.8222
   44MOL0     C 5709   9.555   0.185   3.162 -0.0264  0.6795  0.6639
   44MOL0     C 5710   9.632   0.215   3.278 -0.0757  0.3756  0.6169
   44MOL0     O 5711   9.589   0.181   3.408  0.3227 -0.1508  0.5732
   44MOL0     C 5712   9.480   0.088   3.422 -0.1112 -0.3629  0.4091
   44MOL0     C 5713   9.345   0.145   3.396  0.1658 -0.6211  0.0649
   44MOL0     C 5714   9.246   0.035   3.383 -0.1441 -0.0122  0.5046
   44MOL0     C 5715   9.097   0.093   3.352 -0.1708 -0.5137 -0.7034
   44MOL0     C 5716   9.023  -0.019   3.285  0.1282  0.6438 -0.4332
   44MOL0     C 5717   8.871  -0.005   3.280 -0.6222  1.1782  0.6645
   44MOL0     C 5718   8.809   0.097   3.175  1.2345  0.1969 -0.6295
   44MOL0     C 5719   8.659   0.129   3.187 -0.3898  0.2282 -0.4650
   44MOL0    Cl 5720   8.605   0.206   3.336 -0.4376 -0.2100 -0.4475
   44MOL0     C 5721   9.755   0.270   3.261 -0.4032 -0.0798  0.4706
   44MOL0     C 5722   9.803   0.301   3.131 -0.2908  0.5225  0.7686
   44MOL0     O 5723   9.854   0.532   2.930  0.1423  0.3662 -0.7958
   44MOL0     C 5724   9.949   0.562   2.668 -0.1774  0.2079 -0.4333
   44MOL0     C 5725  10.006   0.565   2.538  0.2819 -0.7331  0.2469
   44MOL0     N 5726  10.199   0.345   1.732  0.0062 -0.0977 -0.9176
   44MOL0     N 5727  10.113   0.355   1.630 -0.7339  0.3116 -0.3333
   44MOL0     C 5728   9.284   1.112   1.095  0.0377 -0.0057 -0.2086
   44MOL0     C 5729   9.143   1.114   1.104  0.2057  0.5798  0.4812
   44MOL0     C 5730   8.709   1.158   1.023  0.7081  0.0863 -0.1796
   44MOL0     C 5731   8.647   1.024   1.024 -0.6418 -0.1809 -0.1762
   44MOL0     C 5732   8.515   1.005   1.017  0.2768  0.0404 -0.7648
   44MOL0     C 5733   8.422   1.106   1.026 -0.0374 -1.0135 -0.1110
   44MOL0     O 5734   8.286   1.096   1.045  0.2078 -0.1202 -0.3397
   44MOL0     C 5735   8.228   0.970   1.002 -0.1763  0.9395  0.2269
   44MOL0     C 5736   8.087   0.955   1.034 -0.6182 -0.6957 -0.4993
   44MOL0     C 5737   8.000   1.028   0.931 -0.1944  0.5376  0.2814
   44MOL0     C 5738   7.852   1.023   0.968 -0.1367  0.1249 -0.4581
   44MOL0     C 5739   7.797   0.885   0.966  0.7058  0.4483  0.3382
   44MOL0     C 5740   7.744   0.775   0.967 -0.7715  0.4483 -0.2614
   44MOL0     C 5741   8.475   1.234   1.026 -0.2341 -0.2695 -0.4641
   44MOL0     C 5742   8.613   1.269   1.015 -0.3382 -0.5924 -1.0161
   44MOL0     H 5743   9.064   1.028   0.792 -0.0287  1.7784 -0.2151
   44MOL0     H 5744   9.298   1.014   0.768 -3.4567  2.7717 -2.0162
   44MOL0     H 5745   9.563   1.146   1.139  0.8694 -0.2019  1.2053
   44MOL0     H 5746   9.673   1.086   1.017 -0.5487 -0.9281 -1.2658
   44MOL0     H 5747   9.588   0.849   1.075 -0.5756  1.1304 -1.6558
   44MOL0     H 5748   9.468   0.920   1.181  0.5371  1.3132  2.3683
   44MOL0     H 5749   9.689   1.009   1.329 -0.9291  1.4704 -1.7384
   44MOL0     H 5750   9.778   0.926   1.205  1.1868  0.4527  1.1183
   44MOL0     H 5751   9.548   0.825   1.398 -1.6620 -0.5415 -0.7324
   44MOL0     H 5752   9.613   0.713   1.287 -1.0534  1.6990 -2.1086
   44MOL0     H 5753   9.715   0.691   1.526 -3.4102  0.7049 -0.1681
   44MOL0     H 5754   9.799   0.850   1.500  0.3475 -0.1680 -0.2427
   44MOL0     H 5755   9.913   0.770   1.316 -2.5429  1.6064  1.1129
   44MOL0     H 5756   9.857   0.594   1.338 -0.3287 -0.2679 -1.3741
   44MOL0     H 5757  10.079   0.644   1.409 -1.9295 -0.1811 -1.4953
   44MOL0     H 5758  10.023   0.740   1.544  2.7846 -1.5875  1.0596
   44MOL0     H 5759   9.941   0.461   1.472 -1.3836  4.2795 -2.5622
   44MOL0     H 5760   9.892   0.560   1.628  3.2528  0.9994  3.8461
   44MOL0     H 5761  10.104   0.654   1.789 -0.8415 -1.0946  3.8748
   44MOL0     H 5762  10.328   0.566   1.930 -2.9168  2.0560  0.2175
   44MOL0     H 5763  10.325   0.375   1.955 -3.3905 -2.4769 -0.3907
   44MOL0     H 5764  10.128   0.378   2.058 -2.2589  1.7691 -1.0300
   44MOL0     H 5765  10.099   0.546   2.040 -1.9445 -1.7600 -1.5548
   44MOL0     H 5766  10.312   0.396   2.214 -0.2338 -1.2248 -3.9309
   44MOL0     H 5767  10.340   0.566   2.182  1.0111  0.1330  2.8558
   44MOL0     H 5768  10.133   0.644   2.292 -1.6434 -0.2954  1.1733
   44MOL0     H 5769  10.240   0.537   2.392  1.9229  0.3284 -0.7557
   44MOL0     H 5770   9.880   0.271   2.420  0.1663 -1.2015  0.9240
   44MOL0     H 5771   9.807   0.251   2.652 -0.5944 -0.6343  0.9911
   44MOL0     H 5772   9.533   0.216   2.948 -2.1421  1.1532  0.9928
   44MOL0     H 5773   9.460   0.133   3.160 -1.7910  3.6818 -0.0150
   44MOL0     H 5774   9.488   0.050   3.524 -0.6306 -0.2929  0.4793
   44MOL0     H 5775   9.497  -0.004   3.365 -0.4035  0.1970 -0.6242
   44MOL0     H 5776   9.342   0.204   3.304  2.4772 -0.2297  0.1764
   44MOL0     H 5777   9.318   0.219   3.471  0.5653  2.6828 -2.7948
   44MOL0     H 5778   9.255  -0.029   3.471 -1.7717  1.4366  1.7963
   44MOL0     H 5779   9.276  -0.015   3.290 -1.2514 -0.4657  0.3860
   44MOL0     H 5780   9.054   0.108   3.452  0.7216  1.5809 -0.6094
   44MOL0     H 5781   9.098   0.186   3.295  0.2493  0.9518  1.5794
   44MOL0     H 5782   9.043  -0.107   3.347  0.9684  0.9664 -0.2286
   44MOL0     H 5783   9.069  -0.023   3.186  1.5693  0.3236  0.2170
   44MOL0     H 5784   8.843   0.035   3.378 -1.9662 -0.1334  0.8456
   44MOL0     H 5785   8.820  -0.101   3.267  1.2458 -0.0848  2.0876
   44MOL0     H 5786   8.873   0.185   3.187 -0.1540  1.1692  0.0408
   44MOL0     H 5787   8.817   0.062   3.072 -0.6174 -2.9756  0.1672
   44MOL0     H 5788   8.595   0.042   3.169 -0.8658  0.5167 -0.1552
   44MOL0     H 5789   8.627   0.194   3.106  1.2597  0.2424 -1.1576
   44MOL0     H 5790   9.823   0.293   3.342 -0.8833  0.3648  0.7541
   44MOL0     H 5791   9.903   0.341   3.129 -0.2739  0.6086  2.1222
   44MOL0     H 5792   9.955   0.651   2.731 -3.0483 -1.0947  1.9120
   44MOL0     H 5793  10.068   0.649   2.511 -3.1852  2.7908  2.1296
   44MOL0     H 5794   9.352   1.146   1.173 -0.1055 -2.6862  1.2108
   44MOL0     H 5795   9.088   1.123   1.197 -0.6599  0.1221  0.0287
   44MOL0     H 5796   8.715   0.940   1.034  1.3584  1.4960  1.0036
   44MOL0     H 5797   8.483   0.901   1.020  2.1721 -0.5586  0.6316
   44MOL0     H 5798   8.277   0.894   1.063  1.8528  0.8622 -1.3924
   44MOL0     H 5799   8.252   0.946   0.898 -0.6467  0.2349  0.2748
   44MOL0     H 5800   8.063   0.848   1.034 -0.1937 -0.8197 -2.1644
   44MOL0     H 5801   8.074   0.988   1.138 -0.5927 -0.3704 -0.5993
   44MOL0     H 5802   8.017   0.989   0.830  1.7626 -2.1411  1.5404
   44MOL0     H 5803   8.036   1.132   0.929 -0.3969  0.6955  2.4269
   44MOL0     H 5804   7.845   1.059   1.071  1.0494  0.6324 -0.5452
   44MOL0     H 5805   7.788   1.090   0.910  1.6938  1.1772 -1.3295
   44MOL0     H 5806   7.715   0.672   0.959 -1.6413  0.7791 -1.9824
   44MOL0     H 5807   8.404   1.316   1.035  2.2833  1.9160  1.1521
   44MOL0     H 5808   8.652   1.370   1.007 -1.7094  0.0520 -0.0399
   45MOL0     O 5809  11.168   9.903   6.848 -0.2572  0.0966  0.7691
   45MOL0     C 5810  11.204   9.988   6.937 -0.8051 -0.1330 -0.3064
   45MOL0     O 5811  11.122  10.047   7.022  0.0514  0.0775  0.1909
   45MOL0     C 5812  10.998   9.994   7.009 -0.9658  0.5092  0.5413
   45MOL0     C 5813  10.879  10.053   6.947 -0.0210 -0.3765  0.2851
   45MOL0     C 5814  10.755   9.993   6.949  0.4326  0.0831  0.2955
   45MOL0     C 5815  10.732   9.879   7.027 -0.5856  0.0512  0.0571
   45MOL0     O 5816  10.602   9.841   7.054  0.6095  0.9446  0.5103
   45MOL0     C 5817  10.588   9.707   7.105 -0.5140 -0.2947  0.2716
   45MOL0     C 5818  10.444   9.660   7.098 -0.4215 -1.0431 -0.3334
   45MOL0     C 5819  10.432   9.516   7.142  0.8234 -0.5958  0.2312
   45MOL0     C 5820  10.481   9.467   7.278 -0.1099 -0.2672 -0.4061
   45MOL0     C 5821  10.441   9.547   7.397 -0.3201  0.1054  0.8609
   45MOL0     C 5822  10.531   9.518   7.527 -0.5315 -0.9173  0.4091
   45MOL0     C 5823  10.474   9.574   7.663  0.9431 -0.5905 -0.4613
   45MOL0     C 5824  10.418   9.718   7.645  0.5170  0.3423  0.8984
   45MOL0     N 5825  10.280   9.724   7.588  0.0870 -0.5551 -0.5244
   45MOL0     C 5826  10.247   9.777   7.462  0.1254 -1.0473 -0.1678
   45MOL0     C 5827  10.118   9.726   7.437 -0.5662 -0.0901  0.1894
   45MOL0     C 5828  10.042   9.757   7.314  0.2360  0.2485  0.1390
   45MOL0     C 5829  10.055   9.656   7.210  0.5681 -0.2173 -0.7298
   45MOL0     C 5830  10.042   9.711   7.070  0.2471 -0.1061  0.0731
   45MOL0     C 5831  10.064   9.599   6.965 -0.2237 -0.0255 -0.4250
   45MOL0     O 5832   9.967   9.496   6.985 -0.8308 -0.2933  0.5174
   45MOL0     C 5833   9.858   9.510   6.902  0.4984  0.1995 -0.0162
   45MOL0     C 5834   9.745   9.572   6.948 -1.0576  0.0018  0.1176
   45MOL0     C 5835   9.631   9.597   6.874 -0.1068 -0.4635 -0.4839
   45MOL0     C 5836   9.623   9.562   6.744  0.7182  0.0567 -0.8045
   45MOL0     C 5837   9.506   9.594   6.669 -0.4079 -0.5301  0.4094
   45MOL0     O 5838   9.392   9.633   6.739 -0.4528 -0.8944  0.4400
   45MOL0     C 5839   9.277   9.691   6.684  0.0070 -0.1139  0.2761
   45MOL0     C 5840   9.166   9.694   6.773  0.3212 -0.0108  0.7100
   45MOL0     C 5841   9.039   9.732   6.725  0.3777 -0.2344 -0.6071
   45MOL0     C 5842   9.027   9.796   6.598  0.4241 -0.2403 -0.3358
   45MOL0     O 5843   8.904   9.827   6.548  0.1977  0.0303  0.1447
   45MOL0     C 5844   8.786   9.803   6.627  0.1106  0.0849  0.0762
   45MOL0     C 5845   8.666   9.843   6.550  0.6640 -0.7748 -1.0894
   45MOL0     C 5846   8.669   9.972   6.472  0.7247 -0.2192  0.6087
   45MOL0     C 5847   8.665  10.096   6.565 -0.8401 -0.6009  0.5587
   45MOL0     C 5848   8.716  10.229   6.506 -0.8158 -0.1439 -0.7062
   45MOL0     C 5849   8.708  10.336   6.615  0.4582 -0.2271 -0.6253
   45MOL0     C 5850   8.759  10.469   6.560 -0.3137  0.1407 -0.3583
   45MOL0     C 5851   8.764  10.584   6.655  0.5697 -0.4987  0.5349
   45MOL0    Cl 5852   8.596  10.640   6.663 -0.0876 -0.1555  0.0503
   45MOL0     C 5853   9.145   9.816   6.520 -0.4491 -0.4753  0.6727
   45MOL0     C 5854   9.258   9.761   6.564 -1.1006 -0.0903 -0.4437
   45MOL0     O 5855   9.518   9.590   6.550  0.3151 -0.3674 -0.1896
   45MOL0     C 5856   9.732   9.498   6.688  0.5063  0.4554  0.2494
   45MOL0     C 5857   9.854   9.468   6.771 -0.1969  0.4459  0.4476
   45MOL0     N 5858  10.081   9.655   7.548 -0.3401  0.6674  0.8907
   45MOL0     N 5859  10.185   9.644   7.621  0.1877  0.1101 -0.0249
   45MOL0     C 5860  10.849   9.826   7.090 -0.6900 -0.4105  0.3790
   45MOL0     C 5861  10.971   9.879   7.087 -0.0976  0.8397  0.0370
   45MOL0     C 5862  11.354   9.993   6.964  0.9536 -0.2888  0.2565
   45MOL0     C 5863  11.411  10.075   7.062  0.0380 -0.6250 -0.3098
   45MOL0     C 5864  11.549  10.097   7.069 -0.2344  0.6838  0.2371
   45MOL0     C 5865  11.638  10.024   6.984 -1.0495  0.5571 -0.2193
   45MOL0     O 5866  11.777  10.044   6.994  0.0530 -0.4282 -0.4960
   45MOL0     C 5867  11.858   9.971   6.900 -1.0222 -0.4836  0.0822
   45MOL0     C 5868  12.006  10.016   6.906 -0.1744  0.6481 -0.1160
   45MOL0     C 5869  12.085   9.921   6.817 -0.5737  0.0867 -0.2518
   45MOL0     C 5870  12.218   9.981   6.788  0.6232 -1.2955  0.2515
   45MOL0     C 5871  12.323   9.894   6.732  0.0452  0.1539  0.1673
   45MOL0     C 5872  12.405   9.824   6.679  0.2440 -0.5116  0.7900
   45MOL0     C 5873  11.573   9.930   6.894  0.0155  0.0584  0.3737
   45MOL0     C 5874  11.439   9.917   6.889  0.7162 -0.6475  0.4427
   45MOL0     H 5875  10.908  10.145   6.898  3.6508 -1.8312 -0.6674
   45MOL0     H 5876  10.683  10.049   6.891 -1.3659 -0.1835  2.1768
   45MOL0     H 5877  10.624   9.694   7.208 -1.1512 -0.8756  0.4312
   45MOL0     H 5878  10.651   9.635   7.053 -0.1849  2.6290 -3.9300
   45MOL0     H 5879  10.408   9.661   6.995 -0.7524 -1.6533 -0.2277
   45MOL0     H 5880  10.380   9.720   7.165 -2.3801 -2.9121 -0.4195
   45MOL0     H 5881  10.469   9.446   7.067 -1.2998  0.9140 -2.4102
   45MOL0     H 5882  10.323   9.505   7.138  0.5240  1.6014  0.8111
   45MOL0     H 5883  10.456   9.364   7.304  1.0560 -0.1691  1.2230
   45MOL0     H 5884  10.590   9.468   7.277 -0.1099 -0.0036 -0.1284
   45MOL0     H 5885  10.336   9.523   7.414 -0.8278  1.0151 -0.7660
   45MOL0     H 5886  10.440   9.653   7.372 -3.5407  0.3525  1.6318
   45MOL0     H 5887  10.628   9.568   7.520  1.2641 -4.2315 -1.0983
   45MOL0     H 5888  10.556   9.411   7.526  1.9096 -0.3915 -1.3206
   45MOL0     H 5889  10.400   9.506   7.707  2.3337 -2.1675 -0.4397
   45MOL0     H 5890  10.544   9.591   7.745 -0.2220  0.8266  0.2935
   45MOL0     H 5891  10.491   9.779   7.590 -1.1518 -0.0414 -1.8992
   45MOL0     H 5892  10.413   9.767   7.743  1.7327  4.0673 -0.7091
   45MOL0     H 5893  10.314   9.818   7.387  3.1196 -3.4031  1.0262
   45MOL0     H 5894  10.075   9.853   7.273  2.6803  1.1065  3.6610
   45MOL0     H 5895   9.935   9.766   7.339  0.2590 -3.0939  2.1278
   45MOL0     H 5896   9.987   9.571   7.220  1.5922 -0.9796 -0.0339
   45MOL0     H 5897  10.153   9.611   7.229 -0.7151 -2.2209  1.8103
   45MOL0     H 5898   9.945   9.761   7.062 -0.3656 -0.2401  4.3372
   45MOL0     H 5899  10.120   9.787   7.061  0.4732 -0.1871  1.2745
   45MOL0     H 5900  10.163   9.569   7.002 -0.8939  0.6525  2.1642
   45MOL0     H 5901  10.067   9.633   6.862  3.3164  1.1050 -0.0786
   45MOL0     H 5902   9.760   9.594   7.053  3.0501  0.4622 -0.4214
   45MOL0     H 5903   9.561   9.648   6.939 -3.0311 -3.1404 -1.2550
   45MOL0     H 5904   9.171   9.671   6.879 -0.7128 -0.6172  0.6349
   45MOL0     H 5905   8.956   9.707   6.790  2.0048 -0.0454  1.6468
   45MOL0     H 5906   8.797   9.866   6.716 -1.2033  0.8237 -0.2721
   45MOL0     H 5907   8.776   9.704   6.672 -0.9494  1.2932  2.7061
   45MOL0     H 5908   8.586   9.826   6.622  1.2854 -2.3375 -0.7146
   45MOL0     H 5909   8.664   9.753   6.488  0.3165 -1.1425 -0.5522
   45MOL0     H 5910   8.582   9.970   6.405 -0.2705  3.1175  1.6088
   45MOL0     H 5911   8.763   9.978   6.416  0.8229 -0.3602  0.7586
   45MOL0     H 5912   8.562  10.112   6.599 -0.7707  1.0853  0.0606
   45MOL0     H 5913   8.721  10.064   6.653  0.1387 -3.8629 -1.1061
   45MOL0     H 5914   8.644  10.258   6.429 -3.2429  1.0194  1.8037
   45MOL0     H 5915   8.816  10.219   6.464  0.5069  1.7788  1.7372
   45MOL0     H 5916   8.754  10.302   6.709  0.3394  0.3657 -0.3473
   45MOL0     H 5917   8.605  10.352   6.647  1.2400 -0.8833  2.6386
   45MOL0     H 5918   8.863  10.446   6.538  0.0851 -2.6404  3.3014
   45MOL0     H 5919   8.704  10.494   6.469  0.9339 -0.2078 -1.2364
   45MOL0     H 5920   8.826  10.664   6.613  0.5213 -0.2336  0.9521
   45MOL0     H 5921   8.817  10.562   6.748  2.9418 -0.4098 -0.7155
   45MOL0     H 5922   9.145   9.869   6.425 -0.3361 -0.6125  0.5965
   45MOL0     H 5923   9.343   9.773   6.497 -0.2092  1.5347  0.8919
   45MOL0     H 5924   9.732   9.452   6.589 -0.6323 -2.2768  1.4148
   45MOL0     H 5925   9.932   9.398   6.746 -1.2947 -1.0612  1.0682
   45MOL0     H 5926  10.823   9.740   7.151  0.4290  0.1039  1.6358
   45MOL0     H 5927  11.060   9.835   7.132 -0.7253  0.5873  1.0607
   45MOL0     H 5928  11.347  10.127   7.133 -1.0955 -1.1051 -0.9502
   45MOL0     H 5929  11.593  10.174   7.132  1.1634  0.0563  0.0578
   45MOL0     H 5930  11.832   9.989   6.795 -0.9172 -2.2298 -0.2745
   45MOL0     H 5931  11.850   9.865   6.922 -3.3578 -0.3624  0.0656
   45MOL0     H 5932  12.013  10.122   6.882 -0.7330  1.4062  2.7049
   45MOL0     H 5933  12.036  10.002   7.011 -2.8053 -1.7673  0.4605
   45MOL0     H 5934  12.028   9.903   6.726  2.7214 -1.6253 -2.1170
   45MOL0     H 5935  12.100   9.833   6.879  0.5397  2.7726  3.7358
   45MOL0     H 5936  12.201  10.064   6.719 -4.3956 -1.3636  1.0702
   45MOL0     H 5937  12.267  10.031   6.872  2.1335  1.3573 -2.0360
   45MOL0     H 5938  12.477   9.763   6.629  1.1482  1.5143 -0.4719
   45MOL0     H 5939  11.625   9.855   6.835 -3.3842 -3.4423  1.3618
   45MOL0     H 5940  11.385   9.855   6.817 -4.1754  2.8964  0.5835
   46MOL0     O 5941   2.566   8.442   9.232  0.4023 -0.1895 -0.4598
   46MOL0     C 5942   2.681   8.442   9.191 -0.4581 -1.1226 -1.1596
   46MOL0     O 5943   2.756   8.327   9.170  0.1811  0.1418 -0.2481
   46MOL0     C 5944   2.737   8.224   9.268  0.1150  0.1081  0.9670
   46MOL0     C 5945   2.651   8.116   9.239 -0.0748  0.5788  0.1949
   46MOL0     C 5946   2.638   8.018   9.335  1.5659  0.2646 -0.2732
   46MOL0     C 5947   2.700   8.031   9.465 -0.2042  1.0260  0.2425
   46MOL0     O 5948   2.682   7.940   9.564  0.4320  0.2860 -1.0586
   46MOL0     C 5949   2.800   7.870   9.609  0.9539  0.3644  0.3605
   46MOL0     C 5950   2.835   7.905   9.747  0.6436  0.0617  0.0522
   46MOL0     C 5951   2.914   7.785   9.808  0.4524 -0.0466  1.0170
   46MOL0     C 5952   2.948   7.809   9.958  0.0609  0.0884  0.2568
   46MOL0     C 5953   2.879   7.705  10.049  0.3865 -1.0169 -1.1603
   46MOL0     C 5954   2.942   7.712  10.188 -0.5890 -0.4949  0.1978
   46MOL0     C 5955   2.923   7.578  10.260 -0.5568  0.5358  0.4788
   46MOL0     C 5956   2.775   7.544  10.272  0.1131 -0.8922 -0.2983
   46MOL0     N 5957   2.743   7.416  10.331  0.0337 -0.4598 -1.1180
   46MOL0     C 5958   2.706   7.295  10.277  0.8894 -0.5216  0.0468
   46MOL0     C 5959   2.651   7.223  10.382  0.4568 -0.1956  0.2929
   46MOL0     C 5960   2.571   7.093  10.376 -0.1097 -0.4835  0.9509
   46MOL0     C 5961   2.430   7.113  10.433  0.0197  0.0913  1.3198
   46MOL0     C 5962   2.353   6.981  10.443  0.8118 -0.0757  0.3543
   46MOL0     C 5963   2.198   6.985  10.462 -0.0719  0.2621  0.6115
   46MOL0     O 5964   2.152   7.075  10.364  0.4738  0.2591  0.3030
   46MOL0     C 5965   2.020   7.118  10.361 -0.5162 -0.7866  0.0239
   46MOL0     C 5966   1.919   7.037  10.414 -0.0580  1.3117  0.4461
   46MOL0     C 5967   1.788   7.068  10.399  0.1626  0.0770  0.2541
   46MOL0     C 5968   1.753   7.178  10.320 -0.4344  0.4136  0.4205
   46MOL0     C 5969   1.618   7.196  10.269  0.7353  0.1056 -0.4262
   46MOL0     O 5970   1.588   7.314  10.214 -0.0426 -0.5561 -0.5399
   46MOL0     C 5971   1.461   7.320  10.154 -0.5277  0.4077  0.5794
   46MOL0     C 5972   1.404   7.225  10.067  0.4981 -0.6506 -0.6352
   46MOL0     C 5973   1.275   7.241  10.016 -0.2636 -0.5810 -1.7209
   46MOL0     C 5974   1.203   7.359  10.038  0.2441 -0.3077 -0.0400
   46MOL0     O 5975   1.081   7.372   9.973  0.5469  0.3478 -0.5318
   46MOL0     C 5976   0.975   7.473  10.013 -0.3062 -0.0627 -0.2074
   46MOL0     C 5977   0.867   7.457   9.915 -0.1004  0.0532 -0.5082
   46MOL0     C 5978   0.776   7.585   9.917  0.1415 -0.3057 -0.1085
   46MOL0     C 5979   0.652   7.563   9.835 -0.0945 -1.1952  0.4646
   46MOL0     C 5980   0.556   7.683   9.822  0.9723 -0.1978  0.0728
   46MOL0     C 5981   0.409   7.642   9.797  0.1828 -0.3333 -0.1409
   46MOL0     C 5982   0.312   7.756   9.791  0.1903 -0.7065  0.1939
   46MOL0     C 5983   0.175   7.716   9.729  0.3427  0.7156 -0.2735
   46MOL0    Cl 5984   0.191   7.687   9.561 -0.3912  0.1100  0.0673
   46MOL0     C 5985   1.261   7.452  10.130  0.0967  0.1720  0.5702
   46MOL0     C 5986   1.389   7.440  10.181 -0.1031  0.6180  0.6020
   46MOL0     O 5987   1.532   7.110  10.286 -0.6862 -0.9190 -0.4853
   46MOL0     C 5988   1.855   7.256  10.269 -1.7564  0.0905 -0.2282
   46MOL0     C 5989   1.984   7.241  10.306 -0.3026  0.7913 -0.0469
   46MOL0     N 5990   2.664   7.300  10.494 -0.3246 -0.3077 -0.1326
   46MOL0     N 5991   2.716   7.411  10.461 -0.0418 -0.2489 -0.5943
   46MOL0     C 5992   2.772   8.142   9.489  0.4748 -0.1496 -0.2200
   46MOL0     C 5993   2.791   8.240   9.396  0.4013  0.2835  0.2108
   46MOL0     C 5994   2.739   8.576   9.150  0.4387  0.1732  0.2891
   46MOL0     C 5995   2.869   8.575   9.087  0.7420  0.0184  0.2497
   46MOL0     C 5996   2.929   8.695   9.034  0.8057 -0.4233  0.0450
   46MOL0     C 5997   2.870   8.821   9.058 -0.1821  0.2860  0.2917
   46MOL0     O 5998   2.928   8.943   9.033 -0.0003  0.3200  0.5962
   46MOL0     C 5999   3.046   8.954   8.948  0.2445 -0.1635  1.1032
   46MOL0     C 6000   2.997   8.932   8.796  0.0005  0.3580 -0.1269
   46MOL0     C 6001   3.085   8.963   8.667 -0.3420 -0.1049  0.1905
   46MOL0     C 6002   3.111   9.115   8.659 -0.5125  0.3619 -0.2910
   46MOL0     C 6003   2.997   9.203   8.638 -0.6108  0.3655 -0.0100
   46MOL0     C 6004   2.903   9.278   8.595 -0.4736  0.3360 -0.8095
   46MOL0     C 6005   2.747   8.823   9.125 -0.3176 -0.1016 -0.1201
   46MOL0     C 6006   2.682   8.707   9.166 -0.2124 -0.9752  0.8871
   46MOL0     H 6007   2.597   8.107   9.146 -1.0940  0.3223  0.8002
   46MOL0     H 6008   2.579   7.931   9.306 -1.0010  0.3824  3.7792
   46MOL0     H 6009   2.892   7.900   9.558  1.9225 -2.4012  0.3274
   46MOL0     H 6010   2.772   7.765   9.604 -1.7429  1.0589 -3.3212
   46MOL0     H 6011   2.745   7.911   9.809  0.9890 -4.0736  1.2422
   46MOL0     H 6012   2.890   7.999   9.740 -2.7677  2.3565  1.6786
   46MOL0     H 6013   3.012   7.776   9.760  0.5049  2.3250  0.5578
   46MOL0     H 6014   2.865   7.688   9.795  1.8312 -0.3112 -4.9416
   46MOL0     H 6015   3.056   7.794   9.967 -0.1304 -2.2701 -0.6590
   46MOL0     H 6016   2.932   7.908  10.000 -2.2624 -0.7696  1.5636
   46MOL0     H 6017   2.892   7.608  10.001 -2.5876 -1.5502 -1.0503
   46MOL0     H 6018   2.772   7.726  10.058  0.6119 -0.2777  0.0124
   46MOL0     H 6019   2.888   7.788  10.246 -0.3907 -1.6682  2.0164
   46MOL0     H 6020   3.043   7.753  10.191 -0.0650 -1.7803  0.9858
   46MOL0     H 6021   2.983   7.506  10.203 -0.6905 -0.6189  1.7595
   46MOL0     H 6022   2.972   7.584  10.358 -0.1473  0.0548  0.3058
   46MOL0     H 6023   2.723   7.550  10.176 -2.2034  2.4371  0.9709
   46MOL0     H 6024   2.729   7.621  10.334 -0.8777 -0.4026 -1.5970
   46MOL0     H 6025   2.705   7.269  10.172 -1.3817  5.3258 -1.7511
   46MOL0     H 6026   2.619   7.016  10.437 -0.6496 -0.0821  1.9259
   46MOL0     H 6027   2.559   7.060  10.273  0.0439 -0.2986  0.8738
   46MOL0     H 6028   2.380   7.178  10.361 -1.0003 -3.0704 -1.0447
   46MOL0     H 6029   2.455   7.153  10.532  0.5511  0.4942  1.0268
   46MOL0     H 6030   2.366   6.930  10.346 -0.7426  1.8760 -0.9582
   46MOL0     H 6031   2.403   6.927  10.524  0.7647  0.3460  0.6669
   46MOL0     H 6032   2.179   7.030  10.560 -1.5806 -0.6902  0.7890
   46MOL0     H 6033   2.158   6.883  10.466 -1.4060  0.7386 -0.0302
   46MOL0     H 6034   1.941   6.938  10.453 -0.2365  0.4740 -1.4472
   46MOL0     H 6035   1.717   6.993  10.434  1.6265 -2.6539 -2.2393
   46MOL0     H 6036   1.463   7.135  10.051  0.9010 -1.0252  2.3422
   46MOL0     H 6037   1.226   7.166   9.955 -1.0445  0.6685 -2.6916
   46MOL0     H 6038   1.020   7.573  10.007  1.3447 -0.6718  1.2795
   46MOL0     H 6039   0.940   7.450  10.114 -0.1247  0.6810  0.0325
   46MOL0     H 6040   0.801   7.377   9.951 -1.2681  0.8916 -0.7148
   46MOL0     H 6041   0.899   7.434   9.813  0.1084  0.6142 -0.5680
   46MOL0     H 6042   0.830   7.665   9.867  0.4620  0.7202  1.7816
   46MOL0     H 6043   0.746   7.617  10.017 -1.2846  0.1627 -0.6501
   46MOL0     H 6044   0.660   7.531   9.731 -0.7214 -0.0759  0.0517
   46MOL0     H 6045   0.592   7.487   9.886 -1.9596 -1.1701 -1.5425
   46MOL0     H 6046   0.582   7.742   9.733 -0.8846 -3.0888 -2.6435
   46MOL0     H 6047   0.555   7.742   9.913 -2.8744 -2.2651  1.6451
   46MOL0     H 6048   0.378   7.574   9.876  1.7218  1.1893  1.8647
   46MOL0     H 6049   0.415   7.585   9.704  1.2207  1.0281 -0.9552
   46MOL0     H 6050   0.283   7.806   9.884 -2.8328 -2.1733  0.1933
   46MOL0     H 6051   0.357   7.823   9.717 -0.3012 -1.2643 -0.6244
   46MOL0     H 6052   0.092   7.784   9.750 -0.5307 -0.5384  0.4913
   46MOL0     H 6053   0.134   7.624   9.773  1.3297  0.4220  0.0521
   46MOL0     H 6054   1.217   7.548  10.156 -0.1754 -0.2327  1.6466
   46MOL0     H 6055   1.432   7.526  10.229  1.0491 -0.5216  1.6777
   46MOL0     H 6056   1.835   7.332  10.193 -1.7076 -2.7028 -3.2753
   46MOL0     H 6057   2.072   7.301  10.284  0.5732  0.0067  1.1791
   46MOL0     H 6058   2.802   8.145   9.594 -0.9481  1.1338  0.1894
   46MOL0     H 6059   2.851   8.330   9.409 -0.2177  1.2446 -2.7578
   46MOL0     H 6060   2.914   8.477   9.077 -0.3796 -0.4228 -0.8292
   46MOL0     H 6061   3.027   8.683   8.988  0.2864 -4.8579 -0.2870
   46MOL0     H 6062   3.121   8.883   8.986 -0.1287 -0.4889  1.2505
   46MOL0     H 6063   3.084   9.056   8.954 -0.3218  0.0175  1.8818
   46MOL0     H 6064   2.956   8.831   8.791  0.6858  0.0600  0.2029
   46MOL0     H 6065   2.904   8.988   8.785 -1.6165 -2.1710 -0.0011
   46MOL0     H 6066   3.036   8.940   8.572  1.6008 -0.3840 -0.7955
   46MOL0     H 6067   3.175   8.901   8.669  0.8860  1.5829 -0.6421
   46MOL0     H 6068   3.151   9.147   8.755  1.4217 -1.9366 -0.2184
   46MOL0     H 6069   3.188   9.127   8.582  1.4851 -0.7368  1.4400
   46MOL0     H 6070   2.812   9.332   8.582 -2.3790 -2.2700  0.8817
   46MOL0     H 6071   2.700   8.920   9.140 -1.5468 -0.6521 -0.3120
   46MOL0     H 6072   2.586   8.722   9.216  0.4426  2.8212  1.2824
   47MOL0     O 6073   1.363   0.164   7.508 -0.6908  0.7674 -0.1706
   47MOL0     C 6074   1.432   0.200   7.607  0.4372 -1.0231  0.8753
   47MOL0     O 6075   1.382   0.211   7.736 -0.0256 -0.1533 -0.2108
   47MOL0     C 6076   1.256   0.174   7.769 -0.5027 -0.7762 -0.2696
   47MOL0     C 6077   1.139   0.228   7.702  0.1568 -0.4972 -1.1305
   47MOL0     C 6078   1.012   0.188   7.748  0.3928 -0.6683 -0.1111
   47MOL0     C 6079   0.995   0.094   7.847 -0.1381  0.1885 -0.6978
   47MOL0     O 6080   0.873   0.059   7.891  0.9723  0.6081  0.2247
   47MOL0     C 6081   0.785   0.160   7.938  0.9494 -0.2431 -0.1202
   47MOL0     C 6082   0.650   0.103   7.957  0.6728 -0.1401 -0.3515
   47MOL0     C 6083   0.660  -0.006   8.068  0.1355 -0.6662 -0.2895
   47MOL0     C 6084   0.511  -0.030   8.111  0.3084  0.8667 -0.2222
   47MOL0     C 6085   0.509  -0.136   8.226  0.1448 -0.2049 -0.2291
   47MOL0     C 6086   0.542  -0.276   8.169  0.1471 -0.7880 -0.2858
   47MOL0     C 6087   0.492  -0.373   8.269  0.1036  1.4540 -0.0300
   47MOL0     C 6088   0.512  -0.522   8.232 -0.6472 -0.3755 -0.2298
   47MOL0     N 6089   0.654  -0.564   8.250  0.1122 -0.6393 -0.2175
   47MOL0     C 6090   0.698  -0.620   8.366 -0.9559 -0.6230  0.1545
   47MOL0     C 6091   0.834  -0.654   8.339 -0.6291  0.8960 -0.0108
   47MOL0     C 6092   0.954  -0.687   8.431 -0.2364  0.3074  0.7569
   47MOL0     C 6093   1.036  -0.802   8.378 -0.2688  0.0767  0.2208
   47MOL0     C 6094   1.146  -0.838   8.480 -1.3874  0.5577  0.2051
   47MOL0     C 6095   1.194  -0.986   8.477 -0.1334  0.0339 -0.5075
   47MOL0     O 6096   1.234  -1.013   8.345 -0.5546  0.1689 -0.9259
   47MOL0     C 6097   1.224  -1.144   8.307 -0.7379 -0.3712  0.4076
   47MOL0     C 6098   1.346  -1.222   8.289 -0.2560 -0.3258 -0.1074
   47MOL0     C 6099   1.346  -1.355   8.274  0.3553 -0.3345 -0.9897
   47MOL0     C 6100   1.224  -1.422   8.282  0.4392 -0.5370 -0.5131
   47MOL0     C 6101   1.225  -1.565   8.275  0.1781  0.5176 -0.4903
   47MOL0     O 6102   1.333  -1.637   8.329  0.0357 -0.3576  0.4954
   47MOL0     C 6103   1.333  -1.772   8.313 -0.0313 -0.1364  0.6997
   47MOL0     C 6104   1.238  -1.854   8.369 -0.1734  0.3671  0.1245
   47MOL0     C 6105   1.241  -1.995   8.358  0.6497  0.0834  0.1873
   47MOL0     C 6106   1.344  -2.066   8.284 -0.9430 -0.1398 -0.4716
   47MOL0     O 6107   1.336  -2.202   8.277 -0.0171  0.7376  0.0639
   47MOL0     C 6108   1.450  -2.277   8.220 -0.2007 -0.0314 -0.9462
   47MOL0     C 6109   1.450  -2.418   8.275 -0.4241  0.0714 -0.8786
   47MOL0     C 6110   1.546  -2.506   8.203 -1.0069  0.9145 -0.2833
   47MOL0     C 6111   1.557  -2.639   8.273  0.2467  0.1763 -0.2308
   47MOL0     C 6112   1.614  -2.747   8.175  0.5698 -0.1907 -0.1484
   47MOL0     C 6113   1.760  -2.739   8.163  0.3829 -0.7795 -0.1160
   47MOL0     C 6114   1.840  -2.761   8.291  0.1152 -0.3042 -0.0438
   47MOL0     C 6115   1.996  -2.741   8.265 -0.0296 -0.9268 -0.3379
   47MOL0    Cl 6116   2.034  -2.573   8.217 -0.0428 -0.0163  0.2047
   47MOL0     C 6117   1.443  -1.978   8.227 -0.4951  0.4904 -0.2475
   47MOL0     C 6118   1.432  -1.834   8.242 -0.5602 -0.3353  0.8327
   47MOL0     O 6119   1.128  -1.627   8.217 -0.3737 -0.2601  0.4812
   47MOL0     C 6120   1.102  -1.351   8.297  0.4420  0.6448 -0.1902
   47MOL0     C 6121   1.102  -1.214   8.306 -0.5737  0.2604 -0.3602
   47MOL0     N 6122   0.854  -0.626   8.211  0.1626  0.4279  0.6465
   47MOL0     N 6123   0.752  -0.565   8.161  0.6123  0.2268 -0.4161
   47MOL0     C 6124   1.102   0.038   7.906  0.9031  0.0268 -0.6669
   47MOL0     C 6125   1.231   0.084   7.876 -0.5672 -0.7220  1.2278
   47MOL0     C 6126   1.567   0.255   7.580  0.1163  0.3745 -0.2562
   47MOL0     C 6127   1.623   0.367   7.647  0.1093 -0.1775 -0.0507
   47MOL0     C 6128   1.757   0.402   7.621 -0.4887 -2.1408  0.5589
   47MOL0     C 6129   1.825   0.338   7.507 -0.8649 -1.3451  0.6266
   47MOL0     O 6130   1.944   0.391   7.478 -0.4228 -1.2263  0.0051
   47MOL0     C 6131   2.028   0.308   7.404  0.6098 -0.1589  0.1369
   47MOL0     C 6132   2.156   0.384   7.397  0.3612  0.3407 -0.3659
   47MOL0     C 6133   2.212   0.418   7.537 -0.3669  0.7828  0.0975
   47MOL0     C 6134   2.350   0.466   7.533  0.6714 -1.4223 -0.5687
   47MOL0     C 6135   2.438   0.358   7.498  0.2965 -0.4348 -0.1667
   47MOL0     C 6136   2.503   0.272   7.448  0.1861  0.1462 -0.0105
   47MOL0     C 6137   1.766   0.226   7.447 -0.3654 -0.5347  0.5007
   47MOL0     C 6138   1.641   0.175   7.489 -0.6922 -0.4842  0.5152
   47MOL0     H 6139   1.146   0.289   7.612 -0.5808 -0.0495 -0.8894
   47MOL0     H 6140   0.924   0.233   7.704  2.1988  2.5823 -0.7147
   47MOL0     H 6141   0.779   0.245   7.870 -0.8010  1.0319  1.5217
   47MOL0     H 6142   0.819   0.212   8.028  1.1157 -1.4438  0.5339
   47MOL0     H 6143   0.610   0.062   7.864  0.5711  0.9656 -0.8149
   47MOL0     H 6144   0.585   0.187   7.982 -4.0437 -3.6198  0.3930
   47MOL0     H 6145   0.713   0.033   8.155 -1.3439  2.5712 -0.6687
   47MOL0     H 6146   0.709  -0.098   8.033  1.6052 -0.4533  1.1063
   47MOL0     H 6147   0.455   0.059   8.140 -1.3530  0.3806 -1.7217
   47MOL0     H 6148   0.456  -0.072   8.025 -1.5698 -1.9974  2.1874
   47MOL0     H 6149   0.405  -0.134   8.261  0.6215  2.6676  1.3247
   47MOL0     H 6150   0.569  -0.113   8.314  0.8771  1.1428 -1.0451
   47MOL0     H 6151   0.647  -0.293   8.146  0.0295  1.6354 -3.2389
   47MOL0     H 6152   0.482  -0.294   8.079 -2.4080 -0.1435  1.1855
   47MOL0     H 6153   0.519  -0.357   8.374  0.6741 -2.2311  0.5243
   47MOL0     H 6154   0.383  -0.364   8.265 -0.0048 -0.0603 -2.8973
   47MOL0     H 6155   0.479  -0.537   8.129  0.0819 -1.6425 -0.3002
   47MOL0     H 6156   0.447  -0.593   8.285 -0.6502 -0.9954 -1.0532
   47MOL0     H 6157   0.652  -0.613   8.465  1.5457  1.2154  1.2831
   47MOL0     H 6158   0.930  -0.688   8.538  1.1284  2.1864  1.1202
   47MOL0     H 6159   1.021  -0.602   8.419  0.3449 -0.0593  1.3575
   47MOL0     H 6160   1.075  -0.794   8.276  1.6457 -0.8286  0.8426
   47MOL0     H 6161   0.964  -0.885   8.375 -1.8018  1.3764 -1.9755
   47MOL0     H 6162   1.239  -0.784   8.459 -0.1867 -2.0484 -1.7006
   47MOL0     H 6163   1.127  -0.827   8.587  0.8364  0.3690  0.6658
   47MOL0     H 6164   1.111  -1.049   8.510  0.1243 -1.7212 -2.9537
   47MOL0     H 6165   1.275  -1.007   8.548 -1.7324  0.9496  1.7129
   47MOL0     H 6166   1.439  -1.168   8.290 -0.1255 -0.4727  2.5865
   47MOL0     H 6167   1.442  -1.405   8.274  0.4556 -0.1426 -1.2300
   47MOL0     H 6168   1.149  -1.808   8.409  0.0290  0.0386  0.9796
   47MOL0     H 6169   1.162  -2.055   8.403  0.2856  2.4301  2.9233
   47MOL0     H 6170   1.545  -2.244   8.263  0.4537 -5.2879  2.5993
   47MOL0     H 6171   1.458  -2.284   8.112 -0.4278 -1.6439 -0.8774
   47MOL0     H 6172   1.352  -2.465   8.266 -0.5604  0.5614 -2.1547
   47MOL0     H 6173   1.480  -2.417   8.381 -2.1674  0.3332 -0.3615
   47MOL0     H 6174   1.644  -2.462   8.185 -0.2213 -1.9684 -4.3463
   47MOL0     H 6175   1.516  -2.525   8.100  2.0853  2.2274 -1.5405
   47MOL0     H 6176   1.617  -2.618   8.362  0.6203 -2.9664  0.3704
   47MOL0     H 6177   1.456  -2.673   8.298  0.4573 -0.8443 -0.7195
   47MOL0     H 6178   1.561  -2.756   8.079  0.1569 -0.7496  0.1246
   47MOL0     H 6179   1.599  -2.845   8.221  0.4438 -0.2254 -0.2636
   47MOL0     H 6180   1.778  -2.638   8.125  3.2676 -1.1238  0.1012
   47MOL0     H 6181   1.797  -2.803   8.082 -0.4662 -3.7272  1.7053
   47MOL0     H 6182   1.809  -2.681   8.359  1.0929  1.0930 -1.2055
   47MOL0     H 6183   1.800  -2.859   8.321 -0.5723  0.1125  0.4393
   47MOL0     H 6184   2.032  -2.799   8.180  1.0090  0.4363 -0.8707
   47MOL0     H 6185   2.035  -2.764   8.365 -1.5721  1.0515  0.7959
   47MOL0     H 6186   1.513  -2.026   8.159  0.8885 -0.9323  2.0264
   47MOL0     H 6187   1.496  -1.778   8.175 -0.7631  0.7026  1.4917
   47MOL0     H 6188   1.008  -1.405   8.301 -0.3625  2.0616  1.1002
   47MOL0     H 6189   1.016  -1.149   8.319  0.4036  1.8284 -1.3303
   47MOL0     H 6190   1.099  -0.037   7.985  0.5866  1.4534  0.7183
   47MOL0     H 6191   1.320   0.028   7.903  0.3218  0.1004  0.0739
   47MOL0     H 6192   1.570   0.428   7.720 -1.3051  0.1794 -1.3306
   47MOL0     H 6193   1.802   0.479   7.682 -0.9332 -0.3922 -1.2157
   47MOL0     H 6194   2.000   0.298   7.299  2.6215 -0.7955 -0.3902
   47MOL0     H 6195   2.039   0.209   7.449 -0.4348 -0.8661 -1.1263
   47MOL0     H 6196   2.237   0.326   7.351  0.6039 -0.3105  0.8413
   47MOL0     H 6197   2.144   0.474   7.335  0.8843  0.6188 -0.0707
   47MOL0     H 6198   2.189   0.332   7.600  0.4629  2.0642  2.2616
   47MOL0     H 6199   2.161   0.497   7.594 -2.1456  0.4069 -0.8983
   47MOL0     H 6200   2.383   0.536   7.456 -0.8350 -1.1622 -1.0295
   47MOL0     H 6201   2.376   0.518   7.626  1.5305  1.9468 -2.5117
   47MOL0     H 6202   2.543   0.181   7.409 -0.8190  0.5001 -1.9586
   47MOL0     H 6203   1.820   0.171   7.371 -0.9506 -0.0924 -0.2486
   47MOL0     H 6204   1.591   0.086   7.450 -0.4955  0.2616 -1.5739
   48MOL0     O 6205  10.554   5.130   4.218  0.1907  0.2424 -0.0120
   48MOL0     C 6206  10.602   5.243   4.227  0.2946  0.2907 -1.1574
   48MOL0     O 6207  10.581   5.357   4.145 -0.0510  0.1960 -0.2818
   48MOL0     C 6208  10.466   5.349   4.065 -0.1158 -1.0599 -0.0668
   48MOL0     C 6209  10.338   5.312   4.114  0.5493  0.2337 -0.3584
   48MOL0     C 6210  10.230   5.308   4.022  0.2885  1.4176 -0.7035
   48MOL0     C 6211  10.244   5.357   3.891 -0.3284 -0.1182  0.6908
   48MOL0     O 6212  10.147   5.375   3.799  0.1123  0.3753 -0.2261
   48MOL0     C 6213  10.014   5.351   3.834  0.2369  0.5815 -0.3584
   48MOL0     C 6214   9.974   5.203   3.854 -0.1762  0.3698 -0.3348
   48MOL0     C 6215   9.829   5.197   3.904  0.1283  0.4332  0.3925
   48MOL0     C 6216   9.797   5.052   3.938  0.3371 -0.3773  0.7229
   48MOL0     C 6217   9.643   5.032   3.965 -0.3185  0.1020 -0.1099
   48MOL0     C 6218   9.553   5.058   3.841 -0.1737 -0.1935 -0.2910
   48MOL0     C 6219   9.407   5.024   3.884  0.5466  0.1603  0.2036
   48MOL0     C 6220   9.383   4.867   3.867 -0.4222 -0.3984  0.1466
   48MOL0     N 6221   9.287   4.810   3.969  0.3579  0.3848 -0.1724
   48MOL0     C 6222   9.323   4.716   4.068 -0.2184 -1.0168 -0.4850
   48MOL0     C 6223   9.208   4.701   4.125  0.0469 -0.3601 -0.1867
   48MOL0     C 6224   9.191   4.627   4.254  0.7512  0.2325 -0.2979
   48MOL0     C 6225   9.148   4.480   4.240  0.7166 -0.0318  0.3106
   48MOL0     C 6226   9.003   4.441   4.271 -0.4071 -0.5693 -0.5276
   48MOL0     C 6227   8.906   4.518   4.181  0.3357  0.4117 -0.7772
   48MOL0     O 6228   8.770   4.477   4.204 -0.0631 -0.6418 -0.1730
   48MOL0     C 6229   8.674   4.557   4.150  0.8136 -0.9062  0.3927
   48MOL0     C 6230   8.552   4.563   4.224  0.1198 -0.4108 -0.1851
   48MOL0     C 6231   8.447   4.630   4.163  0.1764 -0.8617  0.1609
   48MOL0     C 6232   8.458   4.703   4.043 -0.3403  0.7851  0.0435
   48MOL0     C 6233   8.338   4.774   3.991 -0.4581  0.0174  1.2368
   48MOL0     O 6234   8.218   4.758   4.053  0.5042 -0.6325 -0.3925
   48MOL0     C 6235   8.094   4.800   4.003  0.2830 -0.5831  0.8425
   48MOL0     C 6236   8.067   4.853   3.880 -0.2624 -0.6217 -0.9988
   48MOL0     C 6237   7.941   4.901   3.845  0.9574  0.2404 -0.2989
   48MOL0     C 6238   7.830   4.882   3.937  0.8790 -0.3333  0.8326
   48MOL0     O 6239   7.705   4.938   3.908  0.0328 -0.1104  0.5046
   48MOL0     C 6240   7.636   4.866   3.801  0.7974 -0.7537  0.3667
   48MOL0     C 6241   7.487   4.901   3.815  0.4263  0.9269 -0.1996
   48MOL0     C 6242   7.412   4.810   3.717 -0.1411 -0.1566  0.9599
   48MOL0     C 6243   7.253   4.803   3.722 -0.3538 -0.4023 -0.8525
   48MOL0     C 6244   7.189   4.813   3.581 -0.2705  0.8081 -0.4540
   48MOL0     C 6245   7.034   4.804   3.561  0.3022  0.3272 -0.4923
   48MOL0     C 6246   6.981   4.788   3.411  0.0656  0.2325 -0.2829
   48MOL0     C 6247   7.010   4.902   3.324  0.0463 -0.2192  0.4746
   48MOL0    Cl 6248   6.999   4.848   3.160  0.3961  0.6403 -0.1230
   48MOL0     C 6249   7.860   4.831   4.061  0.0436 -0.8408 -0.1556
   48MOL0     C 6250   7.982   4.783   4.091 -0.8819  0.3507 -0.3593
   48MOL0     O 6251   8.361   4.846   3.895  1.2187 -0.8207 -0.0752
   48MOL0     C 6252   8.588   4.698   3.976  0.3242  0.8473 -0.7775
   48MOL0     C 6253   8.693   4.623   4.026  0.9416 -0.2936 -0.3832
   48MOL0     N 6254   9.098   4.758   4.065  0.0178  1.0771  1.1281
   48MOL0     N 6255   9.150   4.818   3.967  0.0182 -0.5606 -0.1495
   48MOL0     C 6256  10.369   5.394   3.851  0.3258 -0.3941 -0.0327
   48MOL0     C 6257  10.480   5.391   3.932  0.0215 -0.0182 -1.4269
   48MOL0     C 6258  10.702   5.261   4.338 -0.1017  0.9681  0.5502
   48MOL0     C 6259  10.778   5.380   4.347  0.3361  0.3111  0.7575
   48MOL0     C 6260  10.850   5.388   4.472 -0.1585  0.2353 -0.3356
   48MOL0     C 6261  10.868   5.280   4.567 -0.5337 -0.2293  0.9844
   48MOL0     O 6262  10.937   5.287   4.688  0.7546 -0.0133  0.5592
   48MOL0     C 6263  11.043   5.376   4.691  0.0869  0.4268  0.2683
   48MOL0     C 6264  11.109   5.366   4.833  0.1056 -0.7604 -1.2080
   48MOL0     C 6265  11.248   5.447   4.839  0.0928  0.4442  0.2839
   48MOL0     C 6266  11.355   5.378   4.758  0.1687 -0.4844 -0.5725
   48MOL0     C 6267  11.401   5.241   4.806  0.0575 -0.8426  0.8635
   48MOL0     C 6268  11.452   5.133   4.832 -0.0703 -0.2276  1.1588
   48MOL0     C 6269  10.814   5.160   4.538 -0.1392 -0.1176  0.3806
   48MOL0     C 6270  10.729   5.150   4.430  1.1623 -0.4726  0.3172
   48MOL0     H 6271  10.326   5.286   4.218 -1.9317 -1.5467 -1.0047
   48MOL0     H 6272  10.134   5.271   4.056 -0.1990  1.6259 -1.8139
   48MOL0     H 6273   9.949   5.395   3.758 -1.7102 -2.0098 -0.3109
   48MOL0     H 6274   9.997   5.393   3.934  2.3195 -4.9787  2.7586
   48MOL0     H 6275  10.041   5.152   3.924  0.0744 -0.5280 -1.1987
   48MOL0     H 6276   9.986   5.153   3.757  1.5020  2.5436 -1.3287
   48MOL0     H 6277   9.760   5.242   3.833 -0.7770  0.1959  1.1060
   48MOL0     H 6278   9.811   5.247   3.999 -0.7110 -0.4994  0.7375
   48MOL0     H 6279   9.830   4.986   3.856  1.3876  1.3316 -0.3111
   48MOL0     H 6280   9.856   5.029   4.027  0.6302 -0.7040  0.4499
   48MOL0     H 6281   9.622   5.101   4.048 -1.9850  3.0075 -2.7356
   48MOL0     H 6282   9.631   4.927   3.991 -1.6565 -0.0859 -1.3664
   48MOL0     H 6283   9.581   4.999   3.753 -2.3157  0.3620 -1.4038
   48MOL0     H 6284   9.562   5.166   3.832 -0.2215 -0.0980  0.6726
   48MOL0     H 6285   9.386   5.056   3.986 -0.6754  2.3413 -0.6584
   48MOL0     H 6286   9.339   5.079   3.818 -0.8515 -0.0428  1.4077
   48MOL0     H 6287   9.473   4.805   3.872 -1.9283 -2.6058  2.5124
   48MOL0     H 6288   9.345   4.843   3.767  1.6665 -0.2552 -0.7154
   48MOL0     H 6289   9.420   4.674   4.093 -0.2191 -0.1363  1.1168
   48MOL0     H 6290   9.131   4.690   4.319  0.8736 -0.2042  0.2469
   48MOL0     H 6291   9.291   4.622   4.297  1.4045  0.1445 -1.7555
   48MOL0     H 6292   9.217   4.407   4.283  1.6481  0.0866 -0.9163
   48MOL0     H 6293   9.163   4.463   4.133  1.3723  0.2588  0.3519
   48MOL0     H 6294   8.996   4.332   4.266  1.0258 -0.7502  0.6835
   48MOL0     H 6295   8.990   4.471   4.375 -3.5497 -0.1413 -0.9484
   48MOL0     H 6296   8.933   4.482   4.081 -0.1151 -2.3145 -0.0166
   48MOL0     H 6297   8.923   4.623   4.204 -2.4670  0.5935  0.9811
   48MOL0     H 6298   8.551   4.504   4.315 -0.0919 -0.0651  0.0367
   48MOL0     H 6299   8.351   4.620   4.212 -0.5325 -1.9992 -1.3812
   48MOL0     H 6300   8.142   4.855   3.802  0.6453 -0.3761 -0.1370
   48MOL0     H 6301   7.930   4.949   3.749 -1.7118 -1.6065 -1.0341
   48MOL0     H 6302   7.652   4.757   3.805  0.8946 -0.8836 -2.2176
   48MOL0     H 6303   7.680   4.891   3.704  1.9411  0.3489  1.1341
   48MOL0     H 6304   7.470   5.004   3.782  2.3590  0.3759 -3.4327
   48MOL0     H 6305   7.441   4.871   3.909 -0.3138  0.8089 -0.5970
   48MOL0     H 6306   7.444   4.706   3.727  2.5235  0.6604  1.7971
   48MOL0     H 6307   7.439   4.851   3.619  1.3970 -0.1863  1.3439
   48MOL0     H 6308   7.228   4.709   3.772  2.7533  0.5946  3.0203
   48MOL0     H 6309   7.217   4.887   3.781  1.0197 -2.8311  3.8843
   48MOL0     H 6310   7.219   4.722   3.529  0.1476 -0.0143  1.1627
   48MOL0     H 6311   7.224   4.909   3.541 -0.3347  0.1858 -2.0588
   48MOL0     H 6312   7.003   4.899   3.605  1.7163  1.7213 -2.3115
   48MOL0     H 6313   7.011   4.712   3.614 -0.3696  1.5761  1.5036
   48MOL0     H 6314   7.018   4.692   3.373 -1.5521 -0.0038 -1.3814
   48MOL0     H 6315   6.874   4.771   3.428 -0.4003  2.4765 -0.6160
   48MOL0     H 6316   7.113   4.937   3.336  0.6987 -1.2237 -1.6338
   48MOL0     H 6317   6.948   4.988   3.352  1.1258  0.4715  0.7823
   48MOL0     H 6318   7.779   4.823   4.132 -1.4651 -1.3592 -1.8448
   48MOL0     H 6319   8.006   4.735   4.186 -0.4609 -2.9101 -1.9403
   48MOL0     H 6320   8.596   4.755   3.884 -0.2989  3.4044  0.6622
   48MOL0     H 6321   8.786   4.626   3.970  0.6067  3.7061 -1.0124
   48MOL0     H 6322  10.382   5.440   3.753 -2.1301 -0.2047 -0.3423
   48MOL0     H 6323  10.578   5.433   3.912 -0.4113  2.7604  1.5393
   48MOL0     H 6324  10.789   5.460   4.275  0.1364 -1.3357 -1.1947
   48MOL0     H 6325  10.896   5.480   4.506  2.1881 -1.2207  0.7214
   48MOL0     H 6326  11.008   5.479   4.680  2.1272  0.9948 -2.0742
   48MOL0     H 6327  11.120   5.350   4.617 -1.4414 -1.0627 -0.8517
   48MOL0     H 6328  11.048   5.415   4.909  3.1115  2.6258 -0.7213
   48MOL0     H 6329  11.129   5.261   4.860 -2.4749 -1.0606 -0.1450
   48MOL0     H 6330  11.284   5.452   4.942  0.7504 -1.0247  0.1535
   48MOL0     H 6331  11.230   5.548   4.801  1.3675  0.5877  0.0153
   48MOL0     H 6332  11.330   5.370   4.652 -1.3849 -0.8972 -0.2068
   48MOL0     H 6333  11.437   5.449   4.766 -0.6430  0.6118 -1.5976
   48MOL0     H 6334  11.499   5.038   4.846  1.8251  0.8560  2.7939
   48MOL0     H 6335  10.823   5.081   4.611  0.4861  1.3705  2.0051
   48MOL0     H 6336  10.692   5.056   4.391 -0.7207  0.9894 -1.6623
   49MOL0     O 6337   7.269   8.637   3.620 -0.2568  0.3379  0.8571
   49MOL0     C 6338   7.197   8.555   3.565  0.0342 -0.5266  0.5156
   49MOL0     O 6339   7.054   8.554   3.573  0.0957  1.0301  0.3502
   49MOL0     C 6340   7.005   8.675   3.601  0.0515  0.0765 -0.9093
   49MOL0     C 6341   6.954   8.699   3.735 -0.9819  0.0093 -0.1117
   49MOL0     C 6342   6.884   8.812   3.763 -0.3406  0.9914 -0.9853
   49MOL0     C 6343   6.869   8.915   3.674  0.5137 -0.0677  0.5476
   49MOL0     O 6344   6.820   9.038   3.713  0.3939  0.4663  0.4593
   49MOL0     C 6345   6.804   9.146   3.614 -0.0813  0.5131 -0.8819
   49MOL0     C 6346   6.750   9.264   3.680 -0.4891  0.1948  0.7876
   49MOL0     C 6347   6.685   9.369   3.596 -0.2430 -0.3777  0.0301
   49MOL0     C 6348   6.594   9.474   3.665 -0.0237 -0.4077 -0.2295
   49MOL0     C 6349   6.511   9.561   3.571  0.3558 -0.5917  0.0988
   49MOL0     C 6350   6.422   9.668   3.642  0.2836  0.0789 -1.2587
   49MOL0     C 6351   6.314   9.617   3.737  0.4391 -0.2752  0.3817
   49MOL0     C 6352   6.264   9.726   3.831 -0.9323 -0.8936 -0.1449
   49MOL0     N 6353   6.162   9.689   3.931 -0.3379  0.6675  0.5871
   49MOL0     C 6354   6.052   9.756   3.957  0.6422 -0.0288  1.0243
   49MOL0     C 6355   5.978   9.676   4.045  0.0244  0.6803  0.0956
   49MOL0     C 6356   5.849   9.709   4.108 -0.8038  0.0262  0.3617
   49MOL0     C 6357   5.861   9.803   4.233  0.5821  1.0811  0.5904
   49MOL0     C 6358   5.751   9.778   4.331 -0.4999  0.7461  0.2016
   49MOL0     C 6359   5.615   9.777   4.257 -0.4512 -0.4279 -0.1206
   49MOL0     O 6360   5.522   9.732   4.350  0.0370  0.0765 -1.3048
   49MOL0     C 6361   5.382   9.708   4.327  0.2032  0.3023  0.5377
   49MOL0     C 6362   5.326   9.699   4.191 -0.6534  0.1574  0.0250
   49MOL0     C 6363   5.195   9.677   4.169  0.1023 -0.1772 -0.5090
   49MOL0     C 6364   5.105   9.658   4.284  0.2757  0.2249 -0.3778
   49MOL0     C 6365   4.969   9.616   4.268 -0.3768  0.4761  0.1385
   49MOL0     O 6366   4.900   9.578   4.377  0.0359 -0.2833  0.1480
   49MOL0     C 6367   4.771   9.539   4.373 -0.6234  0.0786  0.1099
   49MOL0     C 6368   4.686   9.548   4.260 -0.7090  0.5003  0.0592
   49MOL0     C 6369   4.544   9.529   4.273 -0.7277 -0.7377 -1.1332
   49MOL0     C 6370   4.493   9.488   4.406  0.1601  0.1087  0.1857
   49MOL0     O 6371   4.364   9.464   4.427  0.5981  0.5695  0.6341
   49MOL0     C 6372   4.273   9.573   4.406 -0.8006  0.5860  0.5597
   49MOL0     C 6373   4.129   9.530   4.453 -1.3867  0.0988 -0.5392
   49MOL0     C 6374   4.031   9.641   4.447 -0.6045  0.3264 -0.2461
   49MOL0     C 6375   4.008   9.683   4.303  0.6330  0.2487 -0.4867
   49MOL0     C 6376   3.901   9.796   4.291  0.4568  0.1710 -0.6446
   49MOL0     C 6377   3.840   9.792   4.153  0.0788  0.1194 -0.2243
   49MOL0     C 6378   3.717   9.880   4.133 -0.1120 -0.6240 -0.6413
   49MOL0     C 6379   3.601   9.851   4.234 -0.5127  0.5847 -0.5531
   49MOL0    Cl 6380   3.576   9.675   4.249 -0.0546 -0.2783 -0.4738
   49MOL0     C 6381   4.587   9.459   4.513 -0.5182  0.3867  1.8048
   49MOL0     C 6382   4.725   9.484   4.499  0.1951  0.1306  0.3921
   49MOL0     O 6383   4.926   9.635   4.158  0.2209 -0.1271  0.0226
   49MOL0     C 6384   5.158   9.663   4.414  0.0428 -0.6277  0.4995
   49MOL0     C 6385   5.295   9.691   4.430 -0.1591  0.5340 -0.4093
   49MOL0     N 6386   6.059   9.565   4.078 -0.3557  0.6355  0.3697
   49MOL0     N 6387   6.161   9.572   4.002  0.2389 -0.2270  0.1857
   49MOL0     C 6388   6.934   8.902   3.555 -0.2654 -0.1508 -0.0160
   49MOL0     C 6389   6.988   8.782   3.515  0.2887 -0.1971 -0.1867
   49MOL0     C 6390   7.254   8.434   3.495 -0.4344 -0.1836 -0.2870
   49MOL0     C 6391   7.390   8.402   3.512 -1.4286  0.1095  0.1727
   49MOL0     C 6392   7.440   8.283   3.458 -0.6023  0.2667  0.5793
   49MOL0     C 6393   7.370   8.201   3.379  0.8345 -0.4435  1.0885
   49MOL0     O 6394   7.434   8.095   3.326  0.2144 -0.7993 -0.1033
   49MOL0     C 6395   7.368   7.973   3.284 -0.3455 -0.1339  0.2972
   49MOL0     C 6396   7.482   7.881   3.224  0.8845 -0.5442  0.0599
   49MOL0     C 6397   7.588   7.847   3.338  0.4876 -0.0796  1.0178
   49MOL0     C 6398   7.624   7.700   3.336 -0.0802 -0.0471 -0.0633
   49MOL0     C 6399   7.520   7.625   3.398 -1.0612  0.2251 -0.7593
   49MOL0     C 6400   7.440   7.560   3.466  0.8478  0.1986  0.1133
   49MOL0     C 6401   7.234   8.233   3.368  0.3307  0.2760 -0.0620
   49MOL0     C 6402   7.175   8.353   3.414 -0.9677 -0.3586 -0.1913
   49MOL0     H 6403   6.966   8.614   3.802 -0.0336 -1.1348 -1.6594
   49MOL0     H 6404   6.846   8.811   3.864  1.6980  0.3166 -0.1707
   49MOL0     H 6405   6.725   9.116   3.544  0.6093 -3.1862 -0.2928
   49MOL0     H 6406   6.896   9.169   3.558  0.4389  1.0843  0.1821
   49MOL0     H 6407   6.818   9.313   3.749  2.7177 -0.5724 -1.6092
   49MOL0     H 6408   6.665   9.224   3.737 -1.6867  1.1197 -0.2982
   49MOL0     H 6409   6.628   9.313   3.521  0.3463 -0.4863 -0.3468
   49MOL0     H 6410   6.777   9.416   3.558  0.0804  0.0447  1.3092
   49MOL0     H 6411   6.548   9.429   3.754  5.0970 -0.4171  2.7811
   49MOL0     H 6412   6.659   9.550   3.707 -0.8252 -1.2005  2.6429
   49MOL0     H 6413   6.446   9.496   3.513  1.1945  1.6375 -3.6312
   49MOL0     H 6414   6.579   9.609   3.499  1.2172 -0.2607  1.0994
   49MOL0     H 6415   6.369   9.721   3.562  1.7815 -3.4857 -4.9419
   49MOL0     H 6416   6.484   9.741   3.695 -2.0485  0.3439  1.3253
   49MOL0     H 6417   6.229   9.582   3.678  0.3507 -0.5370  0.6601
   49MOL0     H 6418   6.360   9.532   3.789  1.2614  0.2052  0.4665
   49MOL0     H 6419   6.227   9.803   3.762 -1.0983 -2.5203 -1.9869
   49MOL0     H 6420   6.346   9.773   3.886 -3.4461  3.0580  0.6167
   49MOL0     H 6421   6.018   9.852   3.920 -0.4923  0.0572  2.2185
   49MOL0     H 6422   5.801   9.620   4.151 -0.7700  0.9730  2.4955
   49MOL0     H 6423   5.783   9.757   4.036 -1.0319 -1.4729 -0.4733
   49MOL0     H 6424   5.842   9.902   4.191 -1.3564 -0.1754 -1.7096
   49MOL0     H 6425   5.962   9.796   4.275  0.5935  1.7497  0.6816
   49MOL0     H 6426   5.758   9.683   4.385 -0.7764  0.0933 -0.8902
   49MOL0     H 6427   5.757   9.861   4.402 -1.9296  1.5911 -0.6006
   49MOL0     H 6428   5.604   9.708   4.174 -0.1651 -1.1411  0.4273
   49MOL0     H 6429   5.599   9.883   4.232  1.8665  0.6072  2.2915
   49MOL0     H 6430   5.383   9.712   4.100  0.2135  1.6066  0.7339
   49MOL0     H 6431   5.163   9.655   4.067  2.8380 -4.2795 -0.7465
   49MOL0     H 6432   4.721   9.572   4.160  3.2205  2.9314  1.7823
   49MOL0     H 6433   4.482   9.564   4.191 -0.3621  2.0253 -0.3166
   49MOL0     H 6434   4.272   9.601   4.300 -1.6454 -0.6708  0.2181
   49MOL0     H 6435   4.307   9.661   4.462  2.3091  0.5620 -1.0607
   49MOL0     H 6436   4.145   9.487   4.553 -1.5020 -1.0706 -0.9994
   49MOL0     H 6437   4.101   9.450   4.383  1.7907  0.5990 -2.6018
   49MOL0     H 6438   4.070   9.727   4.502  2.1620 -0.3010 -1.0997
   49MOL0     H 6439   3.944   9.596   4.496  0.8347 -0.4572  1.6901
   49MOL0     H 6440   4.098   9.728   4.258  0.7916 -0.3492 -0.7841
   49MOL0     H 6441   3.979   9.599   4.239 -0.2591  1.3123 -1.5312
   49MOL0     H 6442   3.933   9.900   4.303 -2.9400  1.1658  1.0956
   49MOL0     H 6443   3.829   9.768   4.368  2.3532  1.0632  1.5544
   49MOL0     H 6444   3.815   9.693   4.115 -2.2196  1.8246 -3.6593
   49MOL0     H 6445   3.912   9.836   4.083  0.5352  0.2244  0.3076
   49MOL0     H 6446   3.743   9.987   4.131 -0.6041 -0.5088 -1.3778
   49MOL0     H 6447   3.677   9.855   4.034  2.4607  0.0784 -1.9535
   49MOL0     H 6448   3.510   9.898   4.195 -0.2767  0.1596 -1.6394
   49MOL0     H 6449   3.626   9.894   4.332 -2.1240  1.0396 -0.3046
   49MOL0     H 6450   4.553   9.418   4.608 -1.9127 -2.5969  0.1487
   49MOL0     H 6451   4.787   9.458   4.584 -0.4000  2.8795  1.7857
   49MOL0     H 6452   5.104   9.629   4.501  1.2296 -0.1584  1.4587
   49MOL0     H 6453   5.348   9.698   4.524  0.7668  1.5684 -0.9824
   49MOL0     H 6454   6.925   8.983   3.483  2.1300  1.9614  1.8789
   49MOL0     H 6455   7.001   8.766   3.408  1.6039  0.8286 -0.1971
   49MOL0     H 6456   7.457   8.465   3.569 -2.6464  2.4729 -0.8873
   49MOL0     H 6457   7.545   8.264   3.475 -0.2686  1.1360 -0.4070
   49MOL0     H 6458   7.282   8.006   3.224 -1.4013  1.2951  2.4348
   49MOL0     H 6459   7.327   7.922   3.372 -1.9694 -0.9391 -0.8862
   49MOL0     H 6460   7.435   7.792   3.182  2.5943 -0.2273 -2.7795
   49MOL0     H 6461   7.524   7.937   3.140  3.0003  0.7182  1.8353
   49MOL0     H 6462   7.552   7.876   3.436 -0.9431 -0.4079  0.6188
   49MOL0     H 6463   7.682   7.902   3.327  0.6644 -0.7506 -1.8769
   49MOL0     H 6464   7.643   7.663   3.235 -1.8422 -1.9948  0.2451
   49MOL0     H 6465   7.715   7.677   3.393  0.3752 -0.0065 -0.7600
   49MOL0     H 6466   7.371   7.516   3.536  1.1366  0.8420  0.8256
   49MOL0     H 6467   7.174   8.160   3.314 -0.1762 -0.5779  1.5853
   49MOL0     H 6468   7.070   8.369   3.392 -0.4141  2.4927 -1.0936
   50MOL0     O 6469   2.220   7.643   4.344  0.0906  0.3818  0.1767
   50MOL0     C 6470   2.134   7.565   4.300  0.8152  0.3366 -0.0330
   50MOL0     O 6471   2.159   7.434   4.279  0.1178 -0.3235  0.1628
   50MOL0     C 6472   2.294   7.403   4.288  0.0898 -0.1620  0.1361
   50MOL0     C 6473   2.355   7.375   4.168 -0.0693 -0.3402  0.1212
   50MOL0     C 6474   2.489   7.334   4.155  0.1341 -0.6586 -0.0317
   50MOL0     C 6475   2.563   7.322   4.276  0.6079  0.2352 -0.0214
   50MOL0     O 6476   2.696   7.282   4.278  0.1538 -0.2840 -0.3298
   50MOL0     C 6477   2.774   7.399   4.245 -0.2892  0.1740 -0.1793
   50MOL0     C 6478   2.904   7.361   4.172  0.0264 -0.8362 -0.7728
   50MOL0     C 6479   3.000   7.289   4.257  1.2155 -0.2593  0.0339
   50MOL0     C 6480   3.089   7.204   4.168 -1.1352  0.1319  0.2006
   50MOL0     C 6481   3.230   7.179   4.238 -0.1298 -0.4795  1.2730
   50MOL0     C 6482   3.345   7.169   4.123  0.3151 -0.2027 -0.5680
   50MOL0     C 6483   3.481   7.155   4.187  0.1579 -0.0420  0.5652
   50MOL0     C 6484   3.577   7.236   4.108 -0.7853  0.8376  0.6407
   50MOL0     N 6485   3.707   7.245   4.168 -0.2734  1.1115  1.0980
   50MOL0     C 6486   3.796   7.144   4.172 -0.2231 -0.0314  0.1621
   50MOL0     C 6487   3.909   7.204   4.233  0.4994  0.2363 -0.1842
   50MOL0     C 6488   4.043   7.145   4.254  0.2855  0.3660 -0.1417
   50MOL0     C 6489   4.029   7.022   4.342  0.4655 -0.6725  0.2276
   50MOL0     C 6490   4.152   7.029   4.428 -0.0638 -0.0440  0.1660
   50MOL0     C 6491   4.204   6.897   4.466 -0.4050  0.1374 -0.3274
   50MOL0     O 6492   4.265   6.837   4.359 -0.5304  0.3461  0.3450
   50MOL0     C 6493   4.322   6.712   4.373  0.4840  0.1174  0.4445
   50MOL0     C 6494   4.422   6.698   4.287 -0.9851  0.5059 -0.1670
   50MOL0     C 6495   4.511   6.589   4.281 -0.7027  0.4364 -0.6086
   50MOL0     C 6496   4.511   6.486   4.377  0.0194  0.4684 -0.7413
   50MOL0     C 6497   4.603   6.369   4.372  0.2059 -0.3629 -0.0066
   50MOL0     O 6498   4.698   6.395   4.277  0.0484 -0.0716  0.3858
   50MOL0     C 6499   4.775   6.292   4.246  0.1459 -0.5653  1.3890
   50MOL0     C 6500   4.740   6.223   4.130  1.2374  0.3704  0.2564
   50MOL0     C 6501   4.830   6.136   4.075  1.1933  0.3104 -0.4300
   50MOL0     C 6502   4.956   6.111   4.145 -0.4919  0.0502  0.3359
   50MOL0     O 6503   5.045   6.015   4.113  0.8805 -0.6251 -0.3549
   50MOL0     C 6504   5.009   5.911   4.020  0.1606 -0.7795  0.7830
   50MOL0     C 6505   5.126   5.806   3.997  0.5024 -0.8634 -0.5346
   50MOL0     C 6506   5.094   5.674   3.937  0.0168 -0.4123  0.9355
   50MOL0     C 6507   5.200   5.618   3.847  1.0763 -0.0728 -0.0163
   50MOL0     C 6508   5.329   5.584   3.907 -1.2455 -0.5081  0.7469
   50MOL0     C 6509   5.329   5.511   4.036  1.0663 -0.4773  0.7078
   50MOL0     C 6510   5.437   5.410   4.027  0.0527 -0.2496  0.5126
   50MOL0     C 6511   5.414   5.305   4.137  0.4098  0.7163 -0.3242
   50MOL0    Cl 6512   5.496   5.364   4.285 -0.2613 -0.6091 -0.1768
   50MOL0     C 6513   4.989   6.178   4.261  0.2706 -0.6282 -0.1882
   50MOL0     C 6514   4.899   6.277   4.303  0.2620  0.0771  0.4291
   50MOL0     O 6515   4.586   6.272   4.444  0.8426 -0.4785  0.9562
   50MOL0     C 6516   4.401   6.500   4.473 -0.4678  0.2084 -0.3051
   50MOL0     C 6517   4.314   6.617   4.475 -0.1991 -0.1899 -0.6025
   50MOL0     N 6518   3.880   7.334   4.259  0.0205 -0.9040  0.0121
   50MOL0     N 6519   3.760   7.359   4.219 -0.0861 -0.2485 -0.0100
   50MOL0     C 6520   2.494   7.352   4.403  0.4042 -0.4272  0.8870
   50MOL0     C 6521   2.358   7.377   4.407  0.6735 -0.0609 -0.3435
   50MOL0     C 6522   1.998   7.620   4.278 -0.0916 -1.4497  0.5099
   50MOL0     C 6523   1.966   7.757   4.299 -1.0409 -0.0622  0.8694
   50MOL0     C 6524   1.833   7.809   4.290  0.3762  0.6225  1.2906
   50MOL0     C 6525   1.734   7.711   4.259 -0.4732  0.3830 -0.5520
   50MOL0     O 6526   1.601   7.732   4.244  0.3964 -0.0102 -0.0486
   50MOL0     C 6527   1.542   7.861   4.226  1.2318  0.8151 -0.0265
   50MOL0     C 6528   1.440   7.831   4.108  0.5258 -0.2526  0.0694
   50MOL0     C 6529   1.353   7.953   4.072  0.6205 -0.3913 -0.6404
   50MOL0     C 6530   1.249   7.978   4.176 -0.2239 -0.2276 -0.3639
   50MOL0     C 6531   1.153   7.862   4.183  0.4417  0.5257 -0.3002
   50MOL0     C 6532   1.107   7.752   4.206 -0.2193  0.5892  0.7263
   50MOL0     C 6533   1.768   7.580   4.236  0.1849  0.1683  0.1502
   50MOL0     C 6534   1.897   7.536   4.233  0.3263  0.8634  0.3444
   50MOL0     H 6535   2.289   7.385   4.082 -0.8145 -1.4829  0.5456
   50MOL0     H 6536   2.537   7.318   4.059  1.1544 -3.0871  0.8060
   50MOL0     H 6537   2.807   7.453   4.335 -2.1047  1.4347 -0.2174
   50MOL0     H 6538   2.719   7.470   4.183  1.1839 -1.0899 -3.1236
   50MOL0     H 6539   2.952   7.449   4.130  1.9650 -1.3171  0.3258
   50MOL0     H 6540   2.864   7.297   4.092 -3.7650 -1.4316  1.3433
   50MOL0     H 6541   2.947   7.239   4.339 -3.7966  1.6102 -1.6655
   50MOL0     H 6542   3.067   7.358   4.310  0.4372  0.1617  0.4958
   50MOL0     H 6543   3.036   7.112   4.143  1.5178 -0.9036 -2.0943
   50MOL0     H 6544   3.109   7.253   4.073  1.3885  2.8551  1.9676
   50MOL0     H 6545   3.230   7.094   4.307  0.5059  1.8272  4.3220
   50MOL0     H 6546   3.249   7.266   4.300 -0.6754 -1.6676  3.1978
   50MOL0     H 6547   3.328   7.251   4.053 -1.8530  1.4591  1.7311
   50MOL0     H 6548   3.323   7.076   4.070 -1.3956 -0.1478 -0.0073
   50MOL0     H 6549   3.471   7.189   4.290  0.1366  0.0463  0.5334
   50MOL0     H 6550   3.504   7.048   4.178 -0.2191 -0.1448  0.7671
   50MOL0     H 6551   3.542   7.340   4.101  0.2529  1.1185 -0.7856
   50MOL0     H 6552   3.578   7.198   4.006  3.6104  0.8935  0.4788
   50MOL0     H 6553   3.795   7.037   4.150  1.7806  0.3198 -2.0619
   50MOL0     H 6554   4.107   7.227   4.289  2.9239 -0.9849 -1.4442
   50MOL0     H 6555   4.079   7.107   4.158  1.8805 -2.5912  1.4729
   50MOL0     H 6556   4.035   6.931   4.282  0.8815 -1.6849  1.7597
   50MOL0     H 6557   3.932   7.020   4.393  0.6681 -1.0668  0.5976
   50MOL0     H 6558   4.231   7.083   4.375 -0.7892  1.1847  0.3019
   50MOL0     H 6559   4.141   7.080   4.524  2.4597 -5.0635  3.5771
   50MOL0     H 6560   4.127   6.837   4.514  0.9689 -1.0980  0.4098
   50MOL0     H 6561   4.286   6.922   4.534  1.2991 -2.1300 -1.3913
   50MOL0     H 6562   4.440   6.769   4.207 -1.0427  0.1697 -0.4818
   50MOL0     H 6563   4.592   6.590   4.209 -1.0012 -1.8888 -1.0626
   50MOL0     H 6564   4.647   6.238   4.076  0.9881 -0.8119  0.3301
   50MOL0     H 6565   4.794   6.066   4.000  1.4156  1.1311 -1.3231
   50MOL0     H 6566   4.992   5.963   3.925  2.8715 -1.0162  0.0907
   50MOL0     H 6567   4.916   5.861   4.048 -0.5771 -2.0111 -3.2822
   50MOL0     H 6568   5.181   5.795   4.091  1.4569  1.3050 -0.7756
   50MOL0     H 6569   5.192   5.860   3.928 -0.8073 -0.1011 -1.2358
   50MOL0     H 6570   5.011   5.688   3.867  0.9558  2.0073  0.2067
   50MOL0     H 6571   5.056   5.600   4.009  0.0178 -2.3005 -0.8920
   50MOL0     H 6572   5.157   5.525   3.810  1.5214  0.1739 -1.2239
   50MOL0     H 6573   5.220   5.682   3.760 -2.6632  1.0618 -0.2265
   50MOL0     H 6574   5.397   5.668   3.925  0.8095 -1.7632 -0.6565
   50MOL0     H 6575   5.371   5.527   3.823  2.1879 -1.4916  2.9316
   50MOL0     H 6576   5.228   5.472   4.047  1.0457 -0.1464  1.7346
   50MOL0     H 6577   5.341   5.583   4.117 -1.3459  2.8417 -1.5603
   50MOL0     H 6578   5.438   5.368   3.926  2.4243  4.8538 -1.9593
   50MOL0     H 6579   5.540   5.447   4.029  0.2417 -0.5671 -1.7629
   50MOL0     H 6580   5.463   5.208   4.120 -0.6206  0.4790 -2.1503
   50MOL0     H 6581   5.310   5.278   4.158  0.8318  1.5436  3.4330
   50MOL0     H 6582   5.090   6.167   4.298 -0.0715 -0.1546  0.9474
   50MOL0     H 6583   4.930   6.344   4.382  1.2368  0.3286 -0.1559
   50MOL0     H 6584   4.385   6.424   4.549  0.9437 -1.7851 -1.8762
   50MOL0     H 6585   4.246   6.624   4.559 -1.5142  0.7679 -1.7116
   50MOL0     H 6586   2.552   7.347   4.495  2.0025  3.2009  0.2439
   50MOL0     H 6587   2.315   7.403   4.503  1.1205 -0.9764  0.1126
   50MOL0     H 6588   2.052   7.815   4.330  0.7075 -2.0319 -0.1379
   50MOL0     H 6589   1.820   7.916   4.302  0.9019  1.0382 -1.3042
   50MOL0     H 6590   1.601   7.948   4.197 -0.2369  1.1865 -2.1285
   50MOL0     H 6591   1.486   7.879   4.318 -0.6764 -0.8588 -0.7994
   50MOL0     H 6592   1.510   7.819   4.025  2.8088  1.0950  1.6828
   50MOL0     H 6593   1.390   7.735   4.120  0.6414 -0.4742 -1.0718
   50MOL0     H 6594   1.313   7.940   3.971  0.7175 -1.1020 -0.5906
   50MOL0     H 6595   1.418   8.041   4.074  1.0158 -0.5463  3.9959
   50MOL0     H 6596   1.305   7.996   4.268  1.1623  1.7129 -1.5060
   50MOL0     H 6597   1.204   8.075   4.155  0.0978 -0.0133 -0.0680
   50MOL0     H 6598   1.077   7.649   4.202  2.1057 -0.1027 -0.3633
   50MOL0     H 6599   1.680   7.525   4.203 -2.0765  4.8358 -2.7593
   50MOL0     H 6600   1.914   7.429   4.219  0.9000  0.5608  2.8130
   51MOL0     O 6601   1.502  11.224   1.746  0.7189  0.5013 -0.5197
   51MOL0     C 6602   1.573  11.233   1.649 -0.6638 -0.0530 -0.5578
   51MOL0     O 6603   1.547  11.309   1.540 -0.0568  0.7115 -0.1890
   51MOL0     C 6604   1.444  11.396   1.539  0.1935 -0.7218 -0.2841
   51MOL0     C 6605   1.368  11.420   1.429  0.3160 -0.1239  0.0770
   51MOL0     C 6606   1.265  11.513   1.435  0.5040  0.7426  0.5798
   51MOL0     C 6607   1.247  11.603   1.542 -1.0497 -0.2897 -0.2886
   51MOL0     O 6608   1.161  11.701   1.552  0.8030 -0.3556 -0.8606
   51MOL0     C 6609   1.048  11.725   1.469  0.0125 -0.2260  0.0477
   51MOL0     C 6610   0.945  11.822   1.534 -0.4396 -0.1493  0.5714
   51MOL0     C 6611   0.818  11.825   1.459 -0.9918 -0.5151 -0.0310
   51MOL0     C 6612   0.732  11.943   1.498 -0.5722  1.1314 -0.3436
   51MOL0     C 6613   0.625  11.982   1.399  0.2765  0.3958 -0.1525
   51MOL0     C 6614   0.506  11.867   1.384 -0.0775 -0.2307  0.4043
   51MOL0     C 6615   0.375  11.948   1.370  0.3154  1.3419  0.4164
   51MOL0     C 6616   0.367  12.030   1.241 -0.7408 -0.0456 -0.1682
   51MOL0     N 6617   0.430  11.966   1.117 -0.3629 -0.3293 -0.2275
   51MOL0     C 6618   0.363  11.900   1.017  0.3341 -0.6261  1.3965
   51MOL0     C 6619   0.453  11.879   0.916 -0.4916 -0.4857 -0.1238
   51MOL0     C 6620   0.432  11.810   0.791  0.3295  0.2119 -0.1807
   51MOL0     C 6621   0.471  11.896   0.663  0.3993  0.3018  0.2681
   51MOL0     C 6622   0.391  11.853   0.539  0.2018 -0.5183 -0.1780
   51MOL0     C 6623   0.234  11.838   0.555  0.2184  0.0637  1.1256
   51MOL0     O 6624   0.170  11.838   0.423 -0.1349  0.2036  0.3442
   51MOL0     C 6625   0.085  11.728   0.424  0.0159  0.9160  0.0271
   51MOL0     C 6626  -0.044  11.758   0.456  0.4137  0.1444  0.2977
   51MOL0     C 6627  -0.134  11.662   0.502 -0.1702 -0.2698 -0.3431
   51MOL0     C 6628  -0.095  11.522   0.496  0.3881  0.0741 -0.0363
   51MOL0     C 6629  -0.204  11.428   0.537  0.0719 -0.5272 -0.1124
   51MOL0     O 6630  -0.311  11.490   0.586 -0.0503  0.5458 -0.3218
   51MOL0     C 6631  -0.418  11.424   0.639 -0.3641  0.6768  0.3567
   51MOL0     C 6632  -0.417  11.303   0.704  0.3703  0.0865  0.5161
   51MOL0     C 6633  -0.538  11.239   0.745  0.2709  0.2069  0.2427
   51MOL0     C 6634  -0.659  11.294   0.723  0.2711 -0.1898  0.5002
   51MOL0     O 6635  -0.777  11.223   0.740 -1.0925 -0.0467  0.7060
   51MOL0     C 6636  -0.765  11.089   0.774 -0.7315  0.6257 -0.1083
   51MOL0     C 6637  -0.904  11.022   0.758 -0.1171 -0.1759 -0.3311
   51MOL0     C 6638  -0.931  11.007   0.597  0.3434  0.8188 -0.0757
   51MOL0     C 6639  -1.050  10.906   0.589 -1.0813  0.0978 -0.3351
   51MOL0     C 6640  -1.010  10.752   0.617 -0.6092 -0.2200  0.0515
   51MOL0     C 6641  -1.133  10.651   0.609 -0.2561 -0.5014  0.4575
   51MOL0     C 6642  -1.091  10.521   0.671 -0.0651  0.1061  0.1253
   51MOL0     C 6643  -1.208  10.423   0.693 -0.7394 -0.6865 -0.0747
   51MOL0    Cl 6644  -1.282  10.460   0.860  0.1366 -0.2893  0.0998
   51MOL0     C 6645  -0.665  11.417   0.648  0.3516  0.8268 -0.2716
   51MOL0     C 6646  -0.547  11.481   0.609 -0.0817 -0.6246 -1.0479
   51MOL0     O 6647  -0.183  11.311   0.528  0.3877  0.7433  0.1563
   51MOL0     C 6648   0.036  11.492   0.454  0.6211 -0.6393  0.6518
   51MOL0     C 6649   0.121  11.598   0.423  0.0824 -0.6591  0.8076
   51MOL0     N 6650   0.571  11.930   0.951 -0.3339  0.6537 -1.3348
   51MOL0     N 6651   0.561  11.975   1.076  0.1731  0.3632 -0.2407
   51MOL0     C 6652   1.333  11.585   1.653 -1.4528  0.7569 -0.1748
   51MOL0     C 6653   1.420  11.481   1.655 -0.6035  0.2884 -0.3887
   51MOL0     C 6654   1.706  11.168   1.644  0.5998 -0.2875  0.1845
   51MOL0     C 6655   1.762  11.101   1.757  0.9899 -0.3404 -0.0372
   51MOL0     C 6656   1.882  11.042   1.750 -1.1432 -0.6669  0.5178
   51MOL0     C 6657   1.966  11.060   1.635  0.0552  0.0202  0.0971
   51MOL0     O 6658   2.086  11.009   1.618 -0.7639  0.4767  0.7145
   51MOL0     C 6659   2.148  10.930   1.722  0.1460  0.7306  0.5561
   51MOL0     C 6660   2.272  10.860   1.643  0.2815 -0.3858 -0.9568
   51MOL0     C 6661   2.236  10.783   1.510  0.4069  0.0139 -1.0174
   51MOL0     C 6662   2.362  10.733   1.446 -0.4429 -0.2428 -0.2740
   51MOL0     C 6663   2.425  10.629   1.536 -0.6799 -0.5235 -0.6244
   51MOL0     C 6664   2.467  10.548   1.616  0.2369 -0.2258 -0.8640
   51MOL0     C 6665   1.913  11.127   1.525  1.0913 -0.3968  0.4414
   51MOL0     C 6666   1.781  11.183   1.523 -1.0847 -0.1438 -0.4638
   51MOL0     H 6667   1.381  11.351   1.347  0.8975 -0.4147  0.4055
   51MOL0     H 6668   1.201  11.538   1.351 -0.4662 -3.6948 -0.2731
   51MOL0     H 6669   1.000  11.630   1.444  0.5387 -0.9769  1.7339
   51MOL0     H 6670   1.083  11.764   1.373  0.7813 -1.3890 -0.1664
   51MOL0     H 6671   0.986  11.923   1.534  0.5175 -0.4859 -1.5380
   51MOL0     H 6672   0.931  11.793   1.638  1.9868 -1.3469  0.6548
   51MOL0     H 6673   0.777  11.725   1.476  1.6143 -1.2643  2.5428
   51MOL0     H 6674   0.839  11.842   1.353 -0.0265 -0.6690  0.1263
   51MOL0     H 6675   0.692  11.913   1.596  0.3657 -1.9060 -0.7893
   51MOL0     H 6676   0.805  12.023   1.510  1.5749 -0.5852 -1.1186
   51MOL0     H 6677   0.670  11.994   1.300 -2.2741 -0.6530 -1.5575
   51MOL0     H 6678   0.573  12.073   1.431 -3.1009 -0.8775 -1.5289
   51MOL0     H 6679   0.495  11.818   1.481 -1.0589  0.9441  0.9272
   51MOL0     H 6680   0.521  11.787   1.311  0.8074 -0.6092  0.9870
   51MOL0     H 6681   0.298  11.870   1.368  0.9860  0.6565  0.9923
   51MOL0     H 6682   0.361  12.008   1.459 -2.0400  1.9651 -0.3070
   51MOL0     H 6683   0.430  12.117   1.263 -0.1642 -0.6847  0.7961
   51MOL0     H 6684   0.266  12.071   1.229 -0.0434  2.7661  2.2758
   51MOL0     H 6685   0.258  11.873   1.024 -0.5553  2.2409  0.1990
   51MOL0     H 6686   0.324  11.792   0.785  0.6066 -1.7500  0.0228
   51MOL0     H 6687   0.467  11.706   0.792  0.1600  0.1057  3.0318
   51MOL0     H 6688   0.578  11.884   0.645  0.2168 -0.8646 -0.1897
   51MOL0     H 6689   0.444  11.994   0.702  1.8571  0.1932  1.6566
   51MOL0     H 6690   0.406  11.914   0.449  2.8067 -0.0666  0.4856
   51MOL0     H 6691   0.443  11.760   0.513  0.2774 -0.0188 -1.9420
   51MOL0     H 6692   0.196  11.926   0.608 -0.8425  1.8259 -2.2462
   51MOL0     H 6693   0.213  11.748   0.613 -2.1283 -0.3132 -0.2056
   51MOL0     H 6694  -0.061  11.865   0.469 -2.4458  0.1158 -2.2316
   51MOL0     H 6695  -0.229  11.680   0.550  0.6203 -3.4217  2.8785
   51MOL0     H 6696  -0.326  11.250   0.732  1.9706  1.9827 -0.7952
   51MOL0     H 6697  -0.529  11.146   0.800 -2.0634 -0.9748 -1.1769
   51MOL0     H 6698  -0.731  11.062   0.874  3.8652  0.4094 -1.4984
   51MOL0     H 6699  -0.701  11.027   0.710 -3.0524 -1.1722 -0.8794
   51MOL0     H 6700  -0.985  11.061   0.821 -0.1336  1.3343 -1.2418
   51MOL0     H 6701  -0.887  10.926   0.807  0.3252  0.2342  0.3209
   51MOL0     H 6702  -0.843  10.962   0.551  0.2228  1.5734 -1.0928
   51MOL0     H 6703  -0.956  11.102   0.547 -3.1164  0.2932  0.3849
   51MOL0     H 6704  -1.121  10.942   0.665 -0.2559  1.4619 -0.1781
   51MOL0     H 6705  -1.099  10.918   0.492 -0.5926  1.1196 -0.4684
   51MOL0     H 6706  -0.966  10.758   0.717  2.3738  1.9669 -1.2207
   51MOL0     H 6707  -0.931  10.716   0.550  2.3919  1.6824  2.3193
   51MOL0     H 6708  -1.145  10.638   0.501  1.7093 -1.4360  0.3020
   51MOL0     H 6709  -1.226  10.685   0.654 -1.0702  2.8294 -3.2316
   51MOL0     H 6710  -1.019  10.478   0.601  0.3763  1.8512 -0.5435
   51MOL0     H 6711  -1.054  10.549   0.770 -0.2588  0.8117  0.0037
   51MOL0     H 6712  -1.172  10.320   0.692 -0.3035 -0.5314 -1.6698
   51MOL0     H 6713  -1.287  10.418   0.618 -2.6178  1.2171  1.6540
   51MOL0     H 6714  -0.763  11.461   0.633  0.7745  1.9165  0.0587
   51MOL0     H 6715  -0.549  11.574   0.553 -1.4711 -1.1206 -1.8722
   51MOL0     H 6716   0.073  11.391   0.438 -0.2826 -0.5717 -2.4557
   51MOL0     H 6717   0.226  11.571   0.421  1.1470  2.8840  1.1197
   51MOL0     H 6718   1.331  11.648   1.742 -2.7704  0.3064  0.1350
   51MOL0     H 6719   1.471  11.478   1.750 -2.5583  5.1122  1.1065
   51MOL0     H 6720   1.711  11.091   1.853 -1.9726  0.8821 -1.3625
   51MOL0     H 6721   1.913  10.999   1.845 -0.0460 -1.9390 -0.3803
   51MOL0     H 6722   2.071  10.860   1.755 -2.1258  1.4686 -2.6700
   51MOL0     H 6723   2.175  11.000   1.802 -0.6912 -0.0843  1.5771
   51MOL0     H 6724   2.331  10.948   1.613 -1.5033  1.4848  0.6884
   51MOL0     H 6725   2.338  10.792   1.698  1.3772 -0.4662 -2.3163
   51MOL0     H 6726   2.182  10.847   1.439  0.7610  2.6054  0.8962
   51MOL0     H 6727   2.175  10.697   1.540 -0.2470  0.7507 -0.1557
   51MOL0     H 6728   2.345  10.687   1.348 -0.3854 -1.6585  0.3567
   51MOL0     H 6729   2.422  10.821   1.423 -1.1792  1.0910  2.4956
   51MOL0     H 6730   2.511  10.466   1.670  2.0319  0.8492 -0.6289
   51MOL0     H 6731   1.966  11.130   1.430  1.4749  0.9690  0.6888
   51MOL0     H 6732   1.734  11.229   1.437 -0.2036 -0.6832 -1.2591
   52MOL0     O 6733   5.711   6.801   8.512  0.5318 -0.6500  0.1076
   52MOL0     C 6734   5.782   6.758   8.415 -0.4033 -0.0224 -0.0381
   52MOL0     O 6735   5.767   6.638   8.349  0.3988 -0.0829  0.1125
   52MOL0     C 6736   5.672   6.558   8.400 -0.3897  0.3974 -0.5316
   52MOL0     C 6737   5.667   6.513   8.535 -0.6323  0.5312  0.2971
   52MOL0     C 6738   5.557   6.440   8.587  0.3672  0.2048  0.3319
   52MOL0     C 6739   5.446   6.417   8.510 -0.4378 -0.6072  0.8301
   52MOL0     O 6740   5.351   6.333   8.558  0.2428  0.4006  0.1707
   52MOL0     C 6741   5.322   6.320   8.698 -0.0819 -0.7091 -0.4481
   52MOL0     C 6742   5.213   6.225   8.720 -0.0427 -0.0348 -0.3149
   52MOL0     C 6743   5.074   6.286   8.719  0.2548 -0.2077 -0.2498
   52MOL0     C 6744   4.959   6.177   8.747 -0.7620  1.1344  0.2539
   52MOL0     C 6745   4.817   6.231   8.746 -0.4871  0.0424 -0.6411
   52MOL0     C 6746   4.708   6.137   8.782  0.5740  0.5999 -0.1744
   52MOL0     C 6747   4.567   6.207   8.771  1.6038  0.0688 -0.5294
   52MOL0     C 6748   4.439   6.108   8.778 -0.4237 -0.6663  0.5149
   52MOL0     N 6749   4.441   6.018   8.892 -0.1148  0.1185 -0.2117
   52MOL0     C 6750   4.485   5.889   8.883  0.1577 -0.0822 -1.1595
   52MOL0     C 6751   4.483   5.845   9.011  0.2892  0.5842  0.6115
   52MOL0     C 6752   4.517   5.705   9.055 -0.0576 -0.3023 -1.1991
   52MOL0     C 6753   4.442   5.594   8.973 -0.0274 -0.0702  0.4408
   52MOL0     C 6754   4.536   5.541   8.864  0.3652  0.3436 -0.4883
   52MOL0     C 6755   4.640   5.440   8.929  0.7959  0.5635 -0.3759
   52MOL0     O 6756   4.560   5.345   9.006 -0.2348  0.1816 -0.2087
   52MOL0     C 6757   4.482   5.250   8.937 -1.8044  0.2006 -0.3592
   52MOL0     C 6758   4.541   5.191   8.824  0.8431 -0.1367 -0.4439
   52MOL0     C 6759   4.474   5.093   8.753 -0.1104 -0.1539  0.7779
   52MOL0     C 6760   4.340   5.062   8.794  0.3199  0.8422  0.9766
   52MOL0     C 6761   4.264   4.962   8.709  0.5950 -0.1261 -0.0366
   52MOL0     O 6762   4.127   4.953   8.729 -0.9483 -0.7146  1.1452
   52MOL0     C 6763   4.052   4.880   8.638 -0.7407 -0.6091 -1.1595
   52MOL0     C 6764   4.009   4.753   8.666  0.1316  0.2972 -0.6055
   52MOL0     C 6765   3.934   4.678   8.578  0.4235  0.3668  0.8266
   52MOL0     C 6766   3.904   4.719   8.446  0.7796  0.1545  0.0110
   52MOL0     O 6767   3.857   4.642   8.347  0.3617 -0.4637 -0.0728
   52MOL0     C 6768   3.773   4.536   8.388  0.2664  0.2624  0.0834
   52MOL0     C 6769   3.691   4.481   8.263 -0.1654 -0.6190 -0.7734
   52MOL0     C 6770   3.606   4.586   8.203  0.6723 -1.1472 -0.5161
   52MOL0     C 6771   3.494   4.622   8.304  0.4167  0.0352 -0.6526
   52MOL0     C 6772   3.381   4.525   8.329  0.2504  0.7425 -0.1636
   52MOL0     C 6773   3.256   4.591   8.395  0.0863 -0.6708 -0.0531
   52MOL0     C 6774   3.192   4.517   8.505 -0.8814 -0.3535 -0.4809
   52MOL0     C 6775   3.059   4.587   8.558  0.1014  0.4731  0.1913
   52MOL0    Cl 6776   2.905   4.548   8.475  0.0152 -0.2712 -0.1633
   52MOL0     C 6777   3.941   4.854   8.425  0.1406  0.4633  0.3501
   52MOL0     C 6778   4.011   4.937   8.520 -0.3084 -0.0060  0.2600
   52MOL0     O 6779   4.323   4.901   8.623 -0.5978 -0.4589 -0.5012
   52MOL0     C 6780   4.285   5.108   8.906 -0.7658 -0.6066 -1.0980
   52MOL0     C 6781   4.366   5.201   8.984  1.8400  0.0828 -0.6745
   52MOL0     N 6782   4.428   5.937   9.091  0.2692 -0.4906  0.0319
   52MOL0     N 6783   4.402   6.042   9.016  0.4411 -0.1476 -0.5567
   52MOL0     C 6784   5.447   6.464   8.370 -0.2969  0.6836 -0.0530
   52MOL0     C 6785   5.560   6.537   8.320 -0.7647 -0.1037 -0.6538
   52MOL0     C 6786   5.887   6.852   8.359 -0.2591  0.5829 -0.1054
   52MOL0     C 6787   5.919   6.967   8.429 -0.0214 -0.1510 -0.3068
   52MOL0     C 6788   6.017   7.057   8.369 -0.1858 -0.5724 -0.4372
   52MOL0     C 6789   6.098   7.018   8.263  0.1972 -0.0979 -0.5066
   52MOL0     O 6790   6.195   7.106   8.218  0.0717 -0.2620 -0.5965
   52MOL0     C 6791   6.325   7.061   8.266  0.3862  0.6088 -0.4696
   52MOL0     C 6792   6.420   7.100   8.147  0.1564 -0.3382 -0.5023
   52MOL0     C 6793   6.560   7.087   8.204  0.0891  0.9508  0.3281
   52MOL0     C 6794   6.670   7.120   8.095 -0.1779 -0.5673 -0.1138
   52MOL0     C 6795   6.805   7.105   8.148 -0.3691 -0.9705 -1.0307
   52MOL0     C 6796   6.921   7.108   8.192  0.0319  0.4319  0.5823
   52MOL0     C 6797   6.081   6.888   8.216  0.3615 -0.2797 -0.3136
   52MOL0     C 6798   5.976   6.802   8.265  0.0922  0.1804  0.5902
   52MOL0     H 6799   5.749   6.543   8.600 -2.4638  0.5408  2.6967
   52MOL0     H 6800   5.559   6.412   8.691  3.2455 -1.1912 -0.0082
   52MOL0     H 6801   5.302   6.422   8.734 -1.1753 -1.2938  0.6540
   52MOL0     H 6802   5.407   6.286   8.758  1.4577  4.1314  0.5701
   52MOL0     H 6803   5.233   6.169   8.811  0.9528  1.4780  0.4390
   52MOL0     H 6804   5.218   6.157   8.634  0.0774 -0.0596 -0.2879
   52MOL0     H 6805   5.062   6.330   8.619 -1.3933  1.7158  0.7174
   52MOL0     H 6806   5.073   6.370   8.789  0.0652  1.6560 -2.3559
   52MOL0     H 6807   4.971   6.102   8.668  1.9687  3.7941 -2.1598
   52MOL0     H 6808   4.987   6.126   8.840 -0.5161  0.7751 -0.0133
   52MOL0     H 6809   4.787   6.278   8.652 -2.0830 -0.2756 -0.3149
   52MOL0     H 6810   4.815   6.318   8.812 -2.2419  2.4831 -3.5893
   52MOL0     H 6811   4.723   6.086   8.877 -0.6855  0.3727 -0.0759
   52MOL0     H 6812   4.715   6.059   8.705  1.1261  1.9467 -1.5272
   52MOL0     H 6813   4.557   6.281   8.850  0.5501  0.8076 -1.3314
   52MOL0     H 6814   4.568   6.260   8.675 -0.2482 -0.5236 -0.9186
   52MOL0     H 6815   4.439   6.045   8.689 -0.8434  0.4017 -0.2589
   52MOL0     H 6816   4.346   6.166   8.778 -2.8333 -4.2302  1.1896
   52MOL0     H 6817   4.508   5.826   8.798  0.1662 -1.1649 -0.3775
   52MOL0     H 6818   4.473   5.685   9.153  0.6627 -1.9913 -1.1981
   52MOL0     H 6819   4.625   5.694   9.048  0.0987  1.3781 -1.9818
   52MOL0     H 6820   4.345   5.621   8.931 -0.2435  0.6909  1.3913
   52MOL0     H 6821   4.405   5.519   9.042 -0.7061  1.2460  1.5510
   52MOL0     H 6822   4.476   5.484   8.792  1.3604 -0.6373 -0.5746
   52MOL0     H 6823   4.590   5.622   8.814 -2.3011  2.9241  0.5740
   52MOL0     H 6824   4.716   5.486   8.992 -0.0401  1.8231 -0.2413
   52MOL0     H 6825   4.698   5.395   8.848  2.5036 -0.5784  1.3889
   52MOL0     H 6826   4.642   5.213   8.791  1.4623 -0.1459  1.3406
   52MOL0     H 6827   4.519   5.050   8.663 -0.8252  2.0369 -0.7144
   52MOL0     H 6828   4.026   4.715   8.767  0.2984 -1.0436 -1.1121
   52MOL0     H 6829   3.897   4.584   8.618 -0.6319  0.1086 -0.6579
   52MOL0     H 6830   3.715   4.573   8.473  3.1751  1.0431  1.8762
   52MOL0     H 6831   3.823   4.452   8.436 -0.3285  0.8813  1.8500
   52MOL0     H 6832   3.626   4.400   8.299 -0.0624 -0.4944 -0.2963
   52MOL0     H 6833   3.749   4.431   8.185  3.3220  0.7821  0.7010
   52MOL0     H 6834   3.556   4.555   8.111 -1.4483 -0.0948  0.2175
   52MOL0     H 6835   3.654   4.684   8.198 -1.6819  0.1053 -0.1277
   52MOL0     H 6836   3.539   4.663   8.395  0.4051 -1.5276  0.0866
   52MOL0     H 6837   3.445   4.707   8.256 -1.8319 -2.0169 -2.2728
   52MOL0     H 6838   3.420   4.441   8.387 -4.1353 -2.0633 -0.7528
   52MOL0     H 6839   3.348   4.492   8.230  0.5011  1.4503 -0.4829
   52MOL0     H 6840   3.188   4.606   8.310 -0.6896 -3.1542  0.0642
   52MOL0     H 6841   3.280   4.691   8.433 -1.5489  0.7927 -2.5618
   52MOL0     H 6842   3.185   4.412   8.477  0.2483  0.5191 -4.7733
   52MOL0     H 6843   3.261   4.525   8.589 -0.5172  2.8016 -0.9496
   52MOL0     H 6844   3.068   4.696   8.547 -3.3077  0.5454 -5.0494
   52MOL0     H 6845   3.055   4.553   8.662 -0.4961 -1.7197 -0.4946
   52MOL0     H 6846   3.914   4.898   8.329  0.8902  1.8360  0.7353
   52MOL0     H 6847   4.040   5.039   8.497  1.0450 -0.7420 -1.5286
   52MOL0     H 6848   4.195   5.069   8.952 -0.1865  0.2462  0.8627
   52MOL0     H 6849   4.330   5.249   9.075 -1.2243 -0.2885 -1.5742
   52MOL0     H 6850   5.360   6.456   8.305  2.3729 -0.7088 -3.8568
   52MOL0     H 6851   5.563   6.573   8.217  1.6581  2.5748  0.2211
   52MOL0     H 6852   5.855   7.003   8.509  0.2134 -1.1608  0.3496
   52MOL0     H 6853   6.020   7.159   8.407 -0.2793 -1.3019  1.6976
   52MOL0     H 6854   6.329   6.954   8.287 -4.5498 -0.0630 -1.7697
   52MOL0     H 6855   6.352   7.114   8.358 -1.6940 -0.7954  1.0379
   52MOL0     H 6856   6.394   7.038   8.061 -0.8082  0.4526 -0.7972
   52MOL0     H 6857   6.417   7.205   8.115  0.1328  0.3135  1.5304
   52MOL0     H 6858   6.566   6.982   8.234 -2.9417  0.3614 -0.8215
   52MOL0     H 6859   6.564   7.164   8.281 -0.1307  2.1650 -0.8438
   52MOL0     H 6860   6.651   7.058   8.007 -2.9774  1.4630 -1.1034
   52MOL0     H 6861   6.657   7.220   8.052  0.3679  0.0110  1.0182
   52MOL0     H 6862   7.017   7.082   8.229 -1.8307 -4.2779  2.9056
   52MOL0     H 6863   6.148   6.855   8.137  1.1670  2.9541 -1.1255
   52MOL0     H 6864   5.962   6.707   8.214  2.7247  0.5810 -1.0780
   53MOL0     O 6865   8.893  10.974   5.364 -0.0735 -0.1612  0.8790
   53MOL0     C 6866   8.891  11.064   5.450  0.6465 -1.0462  0.4041
   53MOL0     O 6867   8.978  11.164   5.453 -0.2441  0.7084 -0.0341
   53MOL0     C 6868   9.092  11.174   5.365 -0.5160 -0.4146 -1.0414
   53MOL0     C 6869   9.165  11.064   5.324 -0.3569 -1.0864  0.2584
   53MOL0     C 6870   9.273  11.096   5.234 -1.0029  0.5807 -0.2656
   53MOL0     C 6871   9.308  11.221   5.184 -0.8307 -1.1195 -0.1905
   53MOL0     O 6872   9.418  11.241   5.097  0.3869 -0.3154 -0.5325
   53MOL0     C 6873   9.541  11.180   5.156  0.1437 -0.9728 -0.4835
   53MOL0     C 6874   9.670  11.223   5.094  1.2847 -0.4064 -0.0939
   53MOL0     C 6875   9.733  11.346   5.168 -0.0827 -0.1565 -0.3120
   53MOL0     C 6876   9.867  11.394   5.101  0.3207  0.1010 -0.1466
   53MOL0     C 6877   9.922  11.526   5.158  0.5069 -0.3977  0.3254
   53MOL0     C 6878  10.031  11.572   5.074  0.5580  1.5222  0.2539
   53MOL0     C 6879  10.110  11.694   5.125 -0.7016  0.1817 -0.8991
   53MOL0     C 6880  10.219  11.665   5.233 -0.2728  1.0220  0.0925
   53MOL0     N 6881  10.316  11.561   5.190  0.4820  0.3152  0.4543
   53MOL0     C 6882  10.432  11.571   5.116  0.1468 -0.1314  0.6178
   53MOL0     C 6883  10.490  11.449   5.126 -0.4645  0.2757 -0.0526
   53MOL0     C 6884  10.603  11.411   5.036  0.5088  1.4569  0.7392
   53MOL0     C 6885  10.737  11.424   5.096  0.1788  0.0254 -0.4852
   53MOL0     C 6886  10.755  11.349   5.223  0.7440 -0.8306 -0.6938
   53MOL0     C 6887  10.796  11.205   5.200 -0.9981 -1.3339  0.9163
   53MOL0     O 6888  10.920  11.191   5.127 -0.0214  0.8775  0.6158
   53MOL0     C 6889  11.042  11.223   5.185  0.0479  0.3148 -0.4541
   53MOL0     C 6890  11.129  11.307   5.111  0.0131 -0.2499 -0.6475
   53MOL0     C 6891  11.254  11.335   5.160 -0.9228  0.1770 -0.4416
   53MOL0     C 6892  11.304  11.291   5.283  0.2672 -0.2847 -0.6060
   53MOL0     C 6893  11.442  11.300   5.331 -0.3431 -0.3237 -0.3429
   53MOL0     O 6894  11.534  11.318   5.236 -0.3011 -0.3917 -0.5507
   53MOL0     C 6895  11.667  11.320   5.279  0.1924 -0.4764  0.5573
   53MOL0     C 6896  11.744  11.434   5.257  0.3298  0.0754  0.3676
   53MOL0     C 6897  11.880  11.431   5.298  0.5243  0.6552 -1.2578
   53MOL0     C 6898  11.940  11.307   5.343  0.3842  0.8438 -0.9472
   53MOL0     O 6899  12.077  11.290   5.372  0.4278  0.2745  0.3276
   53MOL0     C 6900  12.144  11.415   5.355  0.1641 -0.4721  0.5887
   53MOL0     C 6901  12.290  11.382   5.376 -0.5268 -0.2815  0.6334
   53MOL0     C 6902  12.382  11.506   5.351 -0.1120  0.3743 -1.1748
   53MOL0     C 6903  12.533  11.476   5.333 -0.3054 -0.1764  0.2103
   53MOL0     C 6904  12.562  11.414   5.189 -0.1729  0.0994  1.2552
   53MOL0     C 6905  12.690  11.357   5.161 -1.0103  0.5138  0.2991
   53MOL0     C 6906  12.805  11.458   5.137 -0.3604 -1.0578 -0.2059
   53MOL0     C 6907  12.923  11.391   5.075  0.3882 -0.1927  0.2396
   53MOL0    Cl 6908  13.045  11.512   5.038  0.0485  0.1118  0.5664
   53MOL0     C 6909  11.860  11.191   5.351 -0.4981  0.6392 -0.4972
   53MOL0     C 6910  11.725  11.205   5.335  0.0138  0.0684  0.0956
   53MOL0     O 6911  11.461  11.308   5.452  0.0563 -0.0983  0.0198
   53MOL0     C 6912  11.215  11.206   5.352 -0.3202  0.0716 -0.2851
   53MOL0     C 6913  11.087  11.183   5.306  0.0212 -0.1506 -0.9371
   53MOL0     N 6914  10.416  11.364   5.202  0.6881  0.4300 -0.1322
   53MOL0     N 6915  10.310  11.434   5.241 -0.4071  0.2352  0.7073
   53MOL0     C 6916   9.234  11.329   5.242 -0.1930  0.5359  0.9023
   53MOL0     C 6917   9.124  11.299   5.325 -0.0459  0.3147 -0.9519
   53MOL0     C 6918   8.775  11.074   5.539 -0.4903  0.1779 -0.5959
   53MOL0     C 6919   8.750  11.188   5.616  0.2504  0.3915 -1.0617
   53MOL0     C 6920   8.630  11.190   5.686  0.2245 -0.3470  0.1602
   53MOL0     C 6921   8.547  11.086   5.674 -0.1474  0.2095  1.0878
   53MOL0     O 6922   8.433  11.092   5.749  0.0811 -0.0141  0.5346
   53MOL0     C 6923   8.449  11.132   5.885 -0.2809  0.1673 -0.1228
   53MOL0     C 6924   8.361  11.050   5.975 -1.0779 -0.6230  0.7894
   53MOL0     C 6925   8.213  11.067   5.958  0.0323 -0.2133 -0.4101
   53MOL0     C 6926   8.149  11.034   6.093  0.0349 -0.3435 -0.2918
   53MOL0     C 6927   8.016  11.088   6.103  0.2643  0.8768  1.1521
   53MOL0     C 6928   7.900  11.117   6.081  0.5868 -0.4191  0.9058
   53MOL0     C 6929   8.573  10.976   5.593  0.8948 -1.0221 -0.1845
   53MOL0     C 6930   8.691  10.968   5.531  0.1077 -0.0144 -1.0349
   53MOL0     H 6931   9.133  10.966   5.358 -1.0666 -0.5711  1.1200
   53MOL0     H 6932   9.330  11.008   5.209 -2.3822 -1.9820  4.4636
   53MOL0     H 6933   9.531  11.071   5.150  1.8184 -1.0844 -2.7789
   53MOL0     H 6934   9.546  11.212   5.260  2.3197 -0.0701 -0.7957
   53MOL0     H 6935   9.645  11.248   4.990 -2.3277 -1.9048  0.2826
   53MOL0     H 6936   9.741  11.140   5.086  3.6715  1.4371  0.7301
   53MOL0     H 6937   9.770  11.326   5.269  0.4508  2.4242  0.0899
   53MOL0     H 6938   9.662  11.429   5.174 -1.0239 -1.0323  1.9204
   53MOL0     H 6939   9.942  11.316   5.117  0.8475  0.7761  0.7569
   53MOL0     H 6940   9.856  11.404   4.992 -2.0483  1.3760  0.1415
   53MOL0     H 6941   9.961  11.510   5.259 -0.6767 -1.6006  0.6275
   53MOL0     H 6942   9.843  11.601   5.155 -0.1231 -1.0463  0.3460
   53MOL0     H 6943   9.989  11.593   4.975  1.5456 -2.6490 -1.2640
   53MOL0     H 6944  10.094  11.485   5.053 -0.5628  0.8861 -0.6158
   53MOL0     H 6945  10.155  11.741   5.037 -2.0331  1.0928 -1.1204
   53MOL0     H 6946  10.041  11.763   5.174  1.1670  0.1999  1.9102
   53MOL0     H 6947  10.168  11.647   5.328 -1.3073 -0.4467 -0.7027
   53MOL0     H 6948  10.276  11.758   5.238  0.9053  0.3103  0.1873
   53MOL0     H 6949  10.479  11.653   5.062  0.8185 -1.2183 -0.5128
   53MOL0     H 6950  10.600  11.480   4.951 -2.9828  0.5924 -0.0005
   53MOL0     H 6951  10.585  11.309   5.001 -0.0505  1.4884  0.9249
   53MOL0     H 6952  10.753  11.532   5.103 -0.8417  0.2467 -1.2133
   53MOL0     H 6953  10.809  11.387   5.023  0.5974 -0.5294  0.1941
   53MOL0     H 6954  10.827  11.389   5.295 -1.8214  0.8584  1.1327
   53MOL0     H 6955  10.662  11.345   5.281  0.6419 -0.5541 -0.8341
   53MOL0     H 6956  10.720  11.166   5.131  0.0479  0.3797 -1.3579
   53MOL0     H 6957  10.792  11.148   5.293 -2.0117  1.4802  2.7047
   53MOL0     H 6958  11.090  11.350   5.019 -2.1731  2.5790  1.4159
   53MOL0     H 6959  11.326  11.395   5.106  0.2943  1.1482  2.1025
   53MOL0     H 6960  11.704  11.530   5.225  2.6646  1.4675  1.2977
   53MOL0     H 6961  11.933  11.524   5.286  2.4332 -0.3151 -0.7551
   53MOL0     H 6962  12.097  11.486   5.423  1.9403 -0.1789  1.5754
   53MOL0     H 6963  12.147  11.449   5.251 -2.3689 -1.6680  0.0551
   53MOL0     H 6964  12.318  11.297   5.313  2.0630  1.2902 -0.5089
   53MOL0     H 6965  12.284  11.353   5.481 -2.4118  1.6356  1.1042
   53MOL0     H 6966  12.365  11.586   5.424 -0.6100  0.5264 -1.4573
   53MOL0     H 6967  12.352  11.548   5.255  0.0576 -1.1075 -1.8977
   53MOL0     H 6968  12.578  11.576   5.336  3.1426 -1.5561 -0.3279
   53MOL0     H 6969  12.577  11.423   5.417 -3.5680 -0.4825  1.8810
   53MOL0     H 6970  12.538  11.488   5.112 -0.2492 -1.4591 -0.2901
   53MOL0     H 6971  12.495  11.327   5.182  0.8043 -0.5753 -0.0757
   53MOL0     H 6972  12.687  11.295   5.071 -1.0835 -0.1140  0.7233
   53MOL0     H 6973  12.723  11.294   5.244  1.6166  0.9133 -0.3450
   53MOL0     H 6974  12.755  11.525   5.067 -1.3035  0.2973  1.7037
   53MOL0     H 6975  12.841  11.509   5.226  2.7218 -1.7186 -0.9352
   53MOL0     H 6976  12.900  11.336   4.982  4.1676 -2.3961  0.4027
   53MOL0     H 6977  12.959  11.318   5.148 -2.4071 -0.1828  1.7791
   53MOL0     H 6978  11.893  11.095   5.390 -3.6160  1.1605  4.2968
   53MOL0     H 6979  11.665  11.116   5.352  0.9210 -0.2342  1.8356
   53MOL0     H 6980  11.249  11.163   5.446 -2.3031  0.6363  0.7393
   53MOL0     H 6981  11.020  11.120   5.364  0.7082  0.1593  0.2203
   53MOL0     H 6982   9.265  11.431   5.223 -0.0011  0.2599 -0.3507
   53MOL0     H 6983   9.063  11.379   5.365 -0.7079 -0.2660 -0.7767
   53MOL0     H 6984   8.809  11.278   5.630 -0.5521  0.4015  3.9239
   53MOL0     H 6985   8.596  11.277   5.741  1.4329  1.6976 -2.1166
   53MOL0     H 6986   8.423  11.237   5.897 -0.4557 -0.1474  3.4229
   53MOL0     H 6987   8.545  11.110   5.934 -0.9270 -0.6191  0.8388
   53MOL0     H 6988   8.384  10.944   5.959 -0.5542 -0.2177 -1.3343
   53MOL0     H 6989   8.389  11.066   6.080  2.2550  0.4946 -0.1471
   53MOL0     H 6990   8.171  11.013   5.872 -0.2951  1.8805 -1.6324
   53MOL0     H 6991   8.191  11.169   5.928 -2.2466 -1.2872 -2.8167
   53MOL0     H 6992   8.142  10.926   6.107  1.4643 -0.2569  1.3662
   53MOL0     H 6993   8.197  11.088   6.175  1.1778  1.7964 -2.2326
   53MOL0     H 6994   7.797  11.136   6.059  0.2786 -3.0437 -0.3454
   53MOL0     H 6995   8.497  10.898   5.591 -0.2408 -0.1593  2.9203
   53MOL0     H 6996   8.709  10.868   5.493 -1.4453 -0.4727 -0.6348
   54MOL0     O 6997   1.106   8.091   8.364  0.2389  0.4564  0.1442
   54MOL0     C 6998   1.096   8.208   8.328 -0.2691 -0.0497  0.1260
   54MOL0     O 6999   1.194   8.304   8.321 -0.0468  0.2538 -0.2830
   54MOL0     C 7000   1.312   8.272   8.374  0.3495  0.0037 -0.2348
   54MOL0     C 7001   1.419   8.193   8.313  0.7687  0.0122  0.4572
   54MOL0     C 7002   1.539   8.183   8.375 -0.0451 -0.8163  0.5808
   54MOL0     C 7003   1.575   8.256   8.495  0.4924  0.1540  0.5598
   54MOL0     O 7004   1.700   8.243   8.560 -0.8533 -0.5815  0.6023
   54MOL0     C 7005   1.796   8.145   8.507  0.0736 -0.1252 -0.7487
   54MOL0     C 7006   1.910   8.126   8.613 -0.7393 -0.3767 -0.1029
   54MOL0     C 7007   2.009   8.245   8.646 -0.3870  0.0676 -0.2234
   54MOL0     C 7008   2.107   8.199   8.748 -0.1914  0.3091  0.4908
   54MOL0     C 7009   2.241   8.277   8.763  0.8494 -0.8654 -0.7322
   54MOL0     C 7010   2.214   8.434   8.793  0.0132 -0.5611 -0.9291
   54MOL0     C 7011   2.340   8.526   8.789 -0.4975  0.2620 -0.0103
   54MOL0     C 7012   2.413   8.542   8.930 -0.3306 -0.2016  0.3606
   54MOL0     N 7013   2.352   8.641   9.020  0.1146  0.3454 -0.4247
   54MOL0     C 7014   2.288   8.617   9.140 -0.2647 -0.4112  0.0793
   54MOL0     C 7015   2.224   8.729   9.166 -0.7808 -0.4601  0.0733
   54MOL0     C 7016   2.162   8.765   9.296  1.0127  0.2878 -0.1976
   54MOL0     C 7017   2.013   8.736   9.285 -0.8723 -0.1086 -0.5408
   54MOL0     C 7018   1.941   8.770   9.417  0.1576 -0.3471  0.8630
   54MOL0     C 7019   1.788   8.767   9.397  1.1046 -0.3538  0.3861
   54MOL0     O 7020   1.739   8.858   9.295 -0.3234 -0.2639  0.5056
   54MOL0     C 7021   1.609   8.853   9.243  0.2748  0.2126 -0.6728
   54MOL0     C 7022   1.570   8.940   9.138 -0.7356 -0.4701 -0.0831
   54MOL0     C 7023   1.436   8.959   9.103 -0.3873 -0.3657 -0.5480
   54MOL0     C 7024   1.330   8.875   9.170 -0.1325 -0.8341  0.1825
   54MOL0     C 7025   1.180   8.879   9.142 -0.6789  0.6358  0.1896
   54MOL0     O 7026   1.100   8.772   9.187  0.1851 -0.0616  0.0953
   54MOL0     C 7027   0.969   8.766   9.166  0.6353 -0.1327  0.1541
   54MOL0     C 7028   0.873   8.868   9.159  0.0647  0.0749 -0.0329
   54MOL0     C 7029   0.747   8.842   9.106  0.5236 -0.1475 -0.8146
   54MOL0     C 7030   0.701   8.714   9.079  0.5544  1.0541  1.1859
   54MOL0     O 7031   0.569   8.683   9.039  0.0579 -0.0009 -0.5909
   54MOL0     C 7032   0.459   8.758   9.081 -0.0886  0.0342 -0.4372
   54MOL0     C 7033   0.321   8.691   9.051 -0.8225  0.4820 -0.1969
   54MOL0     C 7034   0.203   8.786   9.043 -0.3703 -0.5271  0.3950
   54MOL0     C 7035   0.099   8.707   8.957 -0.4605 -0.1727  0.0472
   54MOL0     C 7036  -0.028   8.795   8.948 -0.2177 -0.0235 -0.6874
   54MOL0     C 7037  -0.140   8.703   8.912  0.5193  0.5656 -0.1579
   54MOL0     C 7038  -0.255   8.791   8.854 -0.2887 -0.3186  0.0809
   54MOL0     C 7039  -0.400   8.725   8.854  0.0689 -0.0618 -0.7864
   54MOL0    Cl 7040  -0.472   8.699   9.023  0.2820  0.1326 -0.3878
   54MOL0     C 7041   0.791   8.607   9.105  1.0193  0.7701  0.7165
   54MOL0     C 7042   0.926   8.634   9.147  0.5506 -0.1420 -0.0354
   54MOL0     O 7043   1.138   8.967   9.072  0.7741 -0.5519  0.9766
   54MOL0     C 7044   1.372   8.787   9.272 -0.9913 -0.1608  0.4873
   54MOL0     C 7045   1.507   8.776   9.302  0.1110 -0.4072  0.0223
   54MOL0     N 7046   2.236   8.824   9.067 -0.1526  0.2075 -0.5790
   54MOL0     N 7047   2.323   8.769   8.977  0.8988 -0.1366 -0.7091
   54MOL0     C 7048   1.470   8.320   8.553  0.2191 -0.4218 -0.3828
   54MOL0     C 7049   1.343   8.328   8.498  0.2991 -0.1234  0.5178
   54MOL0     C 7050   0.952   8.244   8.293 -0.0205  0.0298  0.2236
   54MOL0     C 7051   0.848   8.149   8.277 -0.0602  0.1737  0.5119
   54MOL0     C 7052   0.720   8.198   8.260 -0.3172  0.1378 -0.4253
   54MOL0     C 7053   0.690   8.338   8.273 -0.5219 -0.3157  0.1554
   54MOL0     O 7054   0.571   8.405   8.255 -0.1416 -0.4155  0.6890
   54MOL0     C 7055   0.463   8.321   8.237  0.3524  0.2206 -0.1376
   54MOL0     C 7056   0.334   8.402   8.208  0.1918 -0.5047 -0.4354
   54MOL0     C 7057   0.222   8.296   8.198 -0.7431 -0.4039 -0.2234
   54MOL0     C 7058   0.090   8.356   8.155  0.8100  0.4426 -0.8503
   54MOL0     C 7059   0.080   8.372   8.014 -0.2398  0.3693 -0.2262
   54MOL0     C 7060   0.068   8.405   7.893  0.5252 -0.2144 -0.5351
   54MOL0     C 7061   0.803   8.427   8.287  0.7516  0.3112  0.3682
   54MOL0     C 7062   0.931   8.382   8.293  0.3723 -0.0274 -0.8517
   54MOL0     H 7063   1.406   8.158   8.211 -1.6877 -2.6189  1.5319
   54MOL0     H 7064   1.615   8.117   8.334  1.0962  0.1195  1.0911
   54MOL0     H 7065   1.835   8.190   8.416  0.1937  0.6604 -0.3197
   54MOL0     H 7066   1.755   8.049   8.476  0.1950 -0.6089  0.5345
   54MOL0     H 7067   1.969   8.041   8.577 -0.8701 -0.6706  0.3756
   54MOL0     H 7068   1.868   8.094   8.709 -0.3588 -2.7771 -0.6770
   54MOL0     H 7069   1.957   8.331   8.689  1.4572 -0.4038  3.2331
   54MOL0     H 7070   2.063   8.280   8.557  0.1523 -0.5311 -0.1343
   54MOL0     H 7071   2.061   8.206   8.847  2.2581 -1.0599  1.8419
   54MOL0     H 7072   2.141   8.097   8.726  1.4786  1.2890 -1.8932
   54MOL0     H 7073   2.296   8.273   8.669  1.6785  2.8822 -0.5735
   54MOL0     H 7074   2.290   8.233   8.850 -1.3541  2.0282  2.2516
   54MOL0     H 7075   2.171   8.459   8.891  0.8236  3.3933 -1.4521
   54MOL0     H 7076   2.144   8.465   8.715 -0.1917  0.8999 -0.1933
   54MOL0     H 7077   2.420   8.495   8.721  2.0623  0.6245  2.6105
   54MOL0     H 7078   2.297   8.620   8.754 -2.5189 -0.8300 -0.5817
   54MOL0     H 7079   2.522   8.552   8.931 -0.0612 -2.0134 -2.1241
   54MOL0     H 7080   2.401   8.446   8.981 -1.7965 -0.9873 -1.3001
   54MOL0     H 7081   2.300   8.524   9.196  3.0039 -0.4738 -0.5287
   54MOL0     H 7082   2.188   8.871   9.308  0.9280  0.1546  1.3824
   54MOL0     H 7083   2.207   8.716   9.383 -1.6633 -1.8116  0.1285
   54MOL0     H 7084   1.988   8.630   9.267 -2.2277 -0.3034  1.9743
   54MOL0     H 7085   1.969   8.796   9.205  1.3373  1.5711 -0.5981
   54MOL0     H 7086   1.972   8.712   9.504  0.1519 -0.4866  0.7717
   54MOL0     H 7087   1.959   8.877   9.435 -0.9206  0.1587 -0.7503
   54MOL0     H 7088   1.751   8.792   9.497  1.2785 -0.1292  0.3931
   54MOL0     H 7089   1.750   8.667   9.372 -0.6049  0.2093  0.5716
   54MOL0     H 7090   1.653   8.997   9.098 -1.3202  0.1543 -0.4231
   54MOL0     H 7091   1.411   9.022   9.018 -0.3722 -0.7736 -0.8548
   54MOL0     H 7092   0.907   8.971   9.164  1.0413 -0.2425  0.0828
   54MOL0     H 7093   0.692   8.935   9.089  1.8399  0.4849 -1.8329
   54MOL0     H 7094   0.472   8.857   9.037  0.7934 -0.2534 -0.8532
   54MOL0     H 7095   0.467   8.762   9.190  0.7266 -3.2902 -0.2575
   54MOL0     H 7096   0.302   8.616   9.128 -1.1216 -1.1399 -1.8096
   54MOL0     H 7097   0.330   8.642   8.954  2.2554 -2.1048  1.2221
   54MOL0     H 7098   0.233   8.872   8.982  1.4887 -1.3512  0.0827
   54MOL0     H 7099   0.164   8.817   9.140 -0.8227  1.9858 -0.5127
   54MOL0     H 7100   0.135   8.668   8.861 -0.3276 -1.7277  0.6997
   54MOL0     H 7101   0.068   8.618   9.012  1.7396 -1.9798 -1.4205
   54MOL0     H 7102  -0.008   8.871   8.873  0.0773 -0.6237 -1.2324
   54MOL0     H 7103  -0.060   8.851   9.036  4.0559 -2.1106  2.5770
   54MOL0     H 7104  -0.169   8.642   8.998  0.9930 -1.0148 -1.0781
   54MOL0     H 7105  -0.110   8.633   8.834  0.4453  0.6207 -0.2358
   54MOL0     H 7106  -0.250   8.879   8.920  4.3628 -0.6339  0.4471
   54MOL0     H 7107  -0.235   8.822   8.752 -0.2566 -4.7527 -1.4905
   54MOL0     H 7108  -0.408   8.625   8.810 -3.5468 -2.0745  3.6735
   54MOL0     H 7109  -0.474   8.788   8.805 -1.7589 -0.6089  1.1281
   54MOL0     H 7110   0.767   8.501   9.110  1.1102  0.7987  2.1190
   54MOL0     H 7111   0.995   8.551   9.147 -1.3289 -1.7892  0.0613
   54MOL0     H 7112   1.306   8.729   9.336 -1.7212  0.6080  0.4559
   54MOL0     H 7113   1.534   8.718   9.389 -0.5838 -0.8312 -0.0376
   54MOL0     H 7114   1.486   8.360   8.652 -1.7923 -2.0341  0.6810
   54MOL0     H 7115   1.272   8.380   8.561 -0.6621 -0.4295 -0.2908
   54MOL0     H 7116   0.874   8.046   8.255  0.9590  0.4873  0.1946
   54MOL0     H 7117   0.643   8.123   8.271  0.8518 -1.0336  0.0228
   54MOL0     H 7118   0.452   8.260   8.327 -0.7117 -0.9953 -1.0379
   54MOL0     H 7119   0.482   8.257   8.150  2.9084  3.1010 -1.8830
   54MOL0     H 7120   0.310   8.478   8.282  1.6024  0.0804 -0.5391
   54MOL0     H 7121   0.347   8.452   8.111 -3.2439 -0.4052 -0.9410
   54MOL0     H 7122   0.190   8.264   8.298 -2.9070  4.3706  0.8877
   54MOL0     H 7123   0.249   8.213   8.132  1.8289 -0.7639  1.1315
   54MOL0     H 7124   0.005   8.295   8.188  0.2260  1.8687  0.3768
   54MOL0     H 7125   0.069   8.450   8.207 -1.1262  0.1476 -1.0385
   54MOL0     H 7126   0.068   8.430   7.789 -1.6392  0.3892 -0.4215
   54MOL0     H 7127   0.780   8.533   8.290  0.1761  0.2041 -0.1500
   54MOL0     H 7128   1.008   8.459   8.295 -0.8233  1.2700 -2.2387
   55MOL0     O 7129   6.889   0.364   9.315  0.3628  0.3822  0.1243
   55MOL0     C 7130   6.835   0.452   9.390 -0.4288  0.0325  0.7539
   55MOL0     O 7131   6.904   0.556   9.447 -0.0250 -0.4288  1.0357
   55MOL0     C 7132   7.033   0.533   9.492  0.5685 -1.4414 -0.7153
   55MOL0     C 7133   7.049   0.431   9.585  0.9706 -0.4697  0.7254
   55MOL0     C 7134   7.164   0.420   9.647 -0.3278 -1.2446 -0.5248
   55MOL0     C 7135   7.277   0.496   9.606 -0.1858  0.1880 -0.0086
   55MOL0     O 7136   7.398   0.501   9.683  0.0539 -0.2947 -0.3485
   55MOL0     C 7137   7.378   0.518   9.822  0.0292 -0.0009  0.8664
   55MOL0     C 7138   7.300   0.637   9.867  0.2757  0.1380 -0.0753
   55MOL0     C 7139   7.313   0.656  10.022  0.6084  0.1480  0.0203
   55MOL0     C 7140   7.229   0.779  10.070 -0.0978  0.6432 -0.1994
   55MOL0     C 7141   7.232   0.784  10.222  0.1684 -1.0550  0.6818
   55MOL0     C 7142   7.112   0.716  10.289  0.6469  0.4064 -0.7838
   55MOL0     C 7143   7.094   0.744  10.437 -0.9308  0.1681  1.2394
   55MOL0     C 7144   6.963   0.702  10.501  0.2503  0.3088  0.6914
   55MOL0     N 7145   6.837   0.756  10.426 -0.7174 -0.4235 -0.7743
   55MOL0     C 7146   6.822   0.887  10.371 -0.4554  0.6643  0.2350
   55MOL0     C 7147   6.689   0.890  10.340 -0.1844 -0.4440 -0.5451
   55MOL0     C 7148   6.628   1.017  10.285  0.3843  0.5217  0.3890
   55MOL0     C 7149   6.671   1.032  10.129  0.0266  0.5923 -0.5352
   55MOL0     C 7150   6.625   1.181  10.096 -0.4789 -0.5388 -0.8352
   55MOL0     C 7151   6.478   1.199  10.077 -0.3954  0.7781  0.6406
   55MOL0     O 7152   6.455   1.309   9.993  0.6470  0.3767 -0.3354
   55MOL0     C 7153   6.326   1.352   9.966 -0.1192  0.3924  1.0003
   55MOL0     C 7154   6.200   1.288   9.992 -0.1091 -0.5882 -0.3269
   55MOL0     C 7155   6.083   1.346   9.944 -0.2498  0.9879 -0.0232
   55MOL0     C 7156   6.074   1.471   9.893 -0.9797 -0.2833 -0.3274
   55MOL0     C 7157   5.944   1.539   9.863  0.3661  0.4688 -0.4597
   55MOL0     O 7158   5.836   1.492   9.932  0.8596  0.7664 -0.3213
   55MOL0     C 7159   5.712   1.560   9.914 -0.1651 -0.2079 -0.0440
   55MOL0     C 7160   5.638   1.582  10.022 -0.3437 -0.0591  0.2206
   55MOL0     C 7161   5.509   1.644  10.021  0.5751 -0.5359  0.0645
   55MOL0     C 7162   5.441   1.658   9.900 -0.2693  1.5608  0.2143
   55MOL0     O 7163   5.308   1.696   9.904 -1.2656  0.2575 -0.1510
   55MOL0     C 7164   5.232   1.702   9.788  0.5739 -0.5820 -0.3721
   55MOL0     C 7165   5.083   1.681   9.816 -0.1236  0.2165 -0.2249
   55MOL0     C 7166   4.994   1.642   9.698 -0.0351  0.0448 -0.2310
   55MOL0     C 7167   4.849   1.605   9.731  0.3545  0.5157 -0.3924
   55MOL0     C 7168   4.765   1.563   9.610 -0.1098  0.0216  0.1932
   55MOL0     C 7169   4.639   1.483   9.631 -0.1339 -0.4711  0.1855
   55MOL0     C 7170   4.668   1.345   9.691  0.0723 -0.6812 -0.7275
   55MOL0     C 7171   4.532   1.268   9.691 -0.9314  0.2500  0.5687
   55MOL0    Cl 7172   4.457   1.316   9.840 -0.5652  0.1301  0.0881
   55MOL0     C 7173   5.523   1.634   9.784  1.6191 -0.0788  0.3502
   55MOL0     C 7174   5.657   1.597   9.794  0.0915  0.2947  0.2658
   55MOL0     O 7175   5.940   1.634   9.792  0.4042  0.9156 -0.8978
   55MOL0     C 7176   6.198   1.539   9.865  1.0436 -0.4704 -0.2683
   55MOL0     C 7177   6.311   1.473   9.905 -0.1692 -0.1073  0.2048
   55MOL0     N 7178   6.635   0.774  10.372 -0.2246 -0.2726 -0.6001
   55MOL0     N 7179   6.720   0.690  10.419  0.2389 -0.1103  0.0435
   55MOL0     C 7180   7.267   0.586   9.500  0.0866  0.3801  0.3273
   55MOL0     C 7181   7.143   0.606   9.446  0.4931  0.4818  0.4978
   55MOL0     C 7182   6.687   0.452   9.418 -0.3823  0.3321 -1.1987
   55MOL0     C 7183   6.630   0.516   9.535  0.7055 -0.0699 -0.4181
   55MOL0     C 7184   6.497   0.496   9.562  0.4000  0.6757  0.0535
   55MOL0     C 7185   6.417   0.421   9.467 -1.0258 -0.8649  0.5979
   55MOL0     O 7186   6.282   0.391   9.483 -0.2515 -0.0030  0.3991
   55MOL0     C 7187   6.202   0.515   9.506 -0.0597  0.3530  0.0667
   55MOL0     C 7188   6.059   0.476   9.549 -0.0078 -0.0205  0.0913
   55MOL0     C 7189   5.971   0.601   9.584 -0.1809 -0.0416 -0.4779
   55MOL0     C 7190   5.838   0.549   9.643  0.0649 -0.0298 -0.1446
   55MOL0     C 7191   5.740   0.661   9.660 -0.3575  0.3019 -0.3038
   55MOL0     C 7192   5.680   0.759   9.657  0.6525 -0.5720  1.1807
   55MOL0     C 7193   6.476   0.363   9.357 -0.2561  0.1806  0.5222
   55MOL0     C 7194   6.609   0.375   9.337 -0.2640 -0.3119  0.1841
   55MOL0     H 7195   6.952   0.389   9.611 -0.4391  0.4382 -2.4687
   55MOL0     H 7196   7.180   0.345   9.724  2.0319 -0.5169 -0.2135
   55MOL0     H 7197   7.478   0.534   9.865  1.0790 -1.4314 -0.8872
   55MOL0     H 7198   7.327   0.425   9.845 -1.0592 -0.2268 -1.9871
   55MOL0     H 7199   7.195   0.641   9.839 -0.8857  2.0710  3.8626
   55MOL0     H 7200   7.349   0.730   9.837  2.0119 -1.2371 -1.7940
   55MOL0     H 7201   7.415   0.682  10.051  1.0459 -1.1937 -0.2359
   55MOL0     H 7202   7.276   0.572  10.082 -0.7525  3.3304  4.1463
   55MOL0     H 7203   7.263   0.870  10.018 -1.1607  1.3112  0.2465
   55MOL0     H 7204   7.130   0.772  10.024  0.2774  4.5857 -2.1058
   55MOL0     H 7205   7.255   0.883  10.262 -2.9812 -0.5286  1.5065
   55MOL0     H 7206   7.312   0.722  10.263 -2.3815 -3.3514  2.5972
   55MOL0     H 7207   7.132   0.609  10.276  2.7385  0.6378  0.1102
   55MOL0     H 7208   7.017   0.747  10.245 -0.8316 -3.3710 -0.6971
   55MOL0     H 7209   7.177   0.699  10.491 -0.5950  1.6296  1.9889
   55MOL0     H 7210   7.111   0.850  10.455  1.4620  0.1510 -0.4690
   55MOL0     H 7211   6.952   0.741  10.603 -0.0936  1.7628  0.1189
   55MOL0     H 7212   6.956   0.593  10.506 -2.6879  0.2472 -1.9830
   55MOL0     H 7213   6.895   0.967  10.367  1.6337 -1.1296  0.1610
   55MOL0     H 7214   6.663   1.104  10.341 -2.1971  1.9126  0.0087
   55MOL0     H 7215   6.518   1.018  10.287  0.2478  4.7846 -0.0376
   55MOL0     H 7216   6.630   0.951  10.067 -1.3831  1.2136 -0.4469
   55MOL0     H 7217   6.780   1.031  10.122  0.4061  5.7141  0.6401
   55MOL0     H 7218   6.663   1.249  10.172 -2.6850 -0.3078  0.1233
   55MOL0     H 7219   6.670   1.201   9.998 -1.1517 -1.7670 -1.4192
   55MOL0     H 7220   6.428   1.216  10.173  0.4114  0.9862  1.0304
   55MOL0     H 7221   6.443   1.106  10.030 -0.6171  0.5435  1.2557
   55MOL0     H 7222   6.187   1.197  10.050  0.8822 -1.3491 -1.2572
   55MOL0     H 7223   5.986   1.306   9.971  0.9115 -1.6510  0.5636
   55MOL0     H 7224   5.676   1.560  10.121 -1.7066 -1.0689  0.5501
   55MOL0     H 7225   5.458   1.683  10.108  1.0020  1.5099 -0.5638
   55MOL0     H 7226   5.254   1.616   9.724  3.5763 -1.8644  2.1495
   55MOL0     H 7227   5.233   1.800   9.741 -4.4852 -0.2556 -0.3652
   55MOL0     H 7228   5.034   1.770   9.857 -0.7417 -0.5583  0.7839
   55MOL0     H 7229   5.077   1.598   9.888 -0.8219 -1.6035 -2.2654
   55MOL0     H 7230   5.045   1.558   9.649  2.1743  1.3528 -0.3049
   55MOL0     H 7231   5.005   1.725   9.628  1.6868 -0.4618 -0.6059
   55MOL0     H 7232   4.862   1.518   9.795  0.5907  1.2904  0.6369
   55MOL0     H 7233   4.794   1.683   9.784 -1.2191  1.1441 -2.7893
   55MOL0     H 7234   4.820   1.503   9.537 -0.9878 -1.4057  0.6419
   55MOL0     H 7235   4.724   1.647   9.553 -3.5969 -1.9529 -0.5308
   55MOL0     H 7236   4.587   1.480   9.535 -1.5626 -0.0703  0.9232
   55MOL0     H 7237   4.576   1.534   9.705  0.1024 -1.6865  1.2630
   55MOL0     H 7238   4.741   1.297   9.626  2.4356 -1.3314  2.2099
   55MOL0     H 7239   4.710   1.369   9.789  1.1981  0.9361 -1.5673
   55MOL0     H 7240   4.550   1.161   9.707  2.8920  0.2972 -2.0504
   55MOL0     H 7241   4.475   1.282   9.599 -2.1148 -2.5953  0.7735
   55MOL0     H 7242   5.481   1.638   9.683 -1.1784 -0.7075  1.4000
   55MOL0     H 7243   5.694   1.579   9.694  0.3488  0.5210  0.3206
   55MOL0     H 7244   6.208   1.636   9.817  0.5760 -2.5390 -5.1290
   55MOL0     H 7245   6.407   1.510   9.871  0.2875 -1.2615  0.1926
   55MOL0     H 7246   7.348   0.643   9.454 -1.9853  0.9294 -3.0241
   55MOL0     H 7247   7.127   0.681   9.369  1.7710 -2.5136 -2.9087
   55MOL0     H 7248   6.693   0.577   9.599 -0.9474 -0.1006  1.3497
   55MOL0     H 7249   6.451   0.525   9.656 -0.4728 -2.4875  0.7508
   55MOL0     H 7250   6.204   0.576   9.415 -2.7399 -0.3916 -0.5655
   55MOL0     H 7251   6.254   0.577   9.580 -2.2711  0.0593  1.9544
   55MOL0     H 7252   6.020   0.403   9.477  1.9237 -1.1657  0.1098
   55MOL0     H 7253   6.064   0.414   9.640 -3.2672  0.6021  0.8308
   55MOL0     H 7254   5.959   0.661   9.493  2.2732 -1.2233 -1.6934
   55MOL0     H 7255   6.030   0.663   9.652  1.9734 -0.5354 -1.7691
   55MOL0     H 7256   5.782   0.488   9.572 -2.1028 -1.0490  2.2841
   55MOL0     H 7257   5.849   0.502   9.741  1.4474 -0.3336 -0.4169
   55MOL0     H 7258   5.616   0.845   9.655  2.9042  1.2099 -1.2553
   55MOL0     H 7259   6.418   0.319   9.277 -0.3108  1.1101  0.0346
   55MOL0     H 7260   6.637   0.317   9.249 -1.6662 -2.1461  0.8801
   56MOL0     O 7261   5.641   4.337   9.008 -0.1331  0.8768 -0.0997
   56MOL0     C 7262   5.626   4.459   9.007 -0.3289  0.1404 -0.6033
   56MOL0     O 7263   5.720   4.552   8.969  0.3969 -0.5272  0.0821
   56MOL0     C 7264   5.840   4.507   8.916  0.4970  0.7934  0.9921
   56MOL0     C 7265   5.869   4.381   8.850 -0.8113 -0.3855 -0.2385
   56MOL0     C 7266   5.994   4.353   8.796 -0.3755  0.3698  0.2141
   56MOL0     C 7267   6.100   4.447   8.798 -0.4215  1.1850 -0.3587
   56MOL0     O 7268   6.224   4.417   8.752 -0.3107  1.4738 -1.2464
   56MOL0     C 7269   6.240   4.357   8.620 -0.3014 -0.4074  0.2859
   56MOL0     C 7270   6.371   4.393   8.555 -0.4051 -0.9641  0.9118
   56MOL0     C 7271   6.364   4.540   8.517 -0.3103  0.2830  0.4094
   56MOL0     C 7272   6.487   4.574   8.426 -0.3386  0.5603 -0.5621
   56MOL0     C 7273   6.622   4.540   8.498  0.1972  0.4031  0.5534
   56MOL0     C 7274   6.747   4.600   8.437 -0.1673 -0.1858  0.3432
   56MOL0     C 7275   6.873   4.548   8.512  0.6776 -0.8243 -0.0440
   56MOL0     C 7276   6.938   4.426   8.441  0.5497  0.3495  0.1480
   56MOL0     N 7277   6.864   4.293   8.454  0.4899  0.5431 -0.2313
   56MOL0     C 7278   6.815   4.217   8.347  0.2474 -0.6001 -0.5568
   56MOL0     C 7279   6.773   4.111   8.408  0.1673  0.1438 -0.0278
   56MOL0     C 7280   6.732   3.976   8.337 -0.5646 -0.4306 -0.7643
   56MOL0     C 7281   6.580   3.980   8.303 -0.0075  0.3135 -0.0592
   56MOL0     C 7282   6.500   3.966   8.432 -0.0833 -0.5749 -0.0744
   56MOL0     C 7283   6.351   3.985   8.399 -0.0884  0.3124  0.5613
   56MOL0     O 7284   6.285   3.986   8.521  0.1212  0.5191 -0.4376
   56MOL0     C 7285   6.150   3.992   8.516  0.9340  0.2676 -0.2233
   56MOL0     C 7286   6.080   4.000   8.636 -0.6050  0.8100 -0.0667
   56MOL0     C 7287   5.941   4.024   8.639  0.5322  0.3007  0.4850
   56MOL0     C 7288   5.874   4.057   8.517 -0.8484  0.1163 -0.3853
   56MOL0     C 7289   5.728   4.066   8.511 -0.0360  0.1944 -0.4060
   56MOL0     O 7290   5.668   4.059   8.391  0.9757 -0.1905  0.9958
   56MOL0     C 7291   5.529   4.046   8.371 -0.3729  0.4385 -0.8493
   56MOL0     C 7292   5.476   4.110   8.266  0.4666  0.4261 -0.8330
   56MOL0     C 7293   5.339   4.111   8.223 -0.4128  0.4495 -0.3870
   56MOL0     C 7294   5.254   4.022   8.293  0.4946  1.1370 -0.1729
   56MOL0     O 7295   5.120   4.014   8.287  0.1815 -0.1972 -1.4021
   56MOL0     C 7296   5.048   4.059   8.176 -0.2084 -0.2124  0.7702
   56MOL0     C 7297   4.923   3.967   8.158 -0.6390 -0.0786 -0.0709
   56MOL0     C 7298   4.838   3.965   8.279 -0.2421  0.3568  0.1156
   56MOL0     C 7299   4.702   3.895   8.248  0.0565  0.1488  0.4686
   56MOL0     C 7300   4.674   3.803   8.376  0.2381  0.0142 -0.1866
   56MOL0     C 7301   4.544   3.725   8.372  0.8649  0.0389  1.0900
   56MOL0     C 7302   4.423   3.819   8.392  0.8683  1.1191 -0.5518
   56MOL0     C 7303   4.306   3.732   8.455  0.2228  0.3580  0.2147
   56MOL0    Cl 7304   4.247   3.618   8.331 -0.3425  0.1943 -0.2615
   56MOL0     C 7305   5.312   3.946   8.400  0.7650  0.5966 -0.3259
   56MOL0     C 7306   5.447   3.965   8.442  0.9506 -0.5635  0.8019
   56MOL0     O 7307   5.673   4.093   8.619  0.0772  0.6306  0.0684
   56MOL0     C 7308   5.947   4.046   8.398  0.4823 -0.1431  0.2627
   56MOL0     C 7309   6.079   4.019   8.392 -1.1379 -0.0874  0.2690
   56MOL0     N 7310   6.801   4.110   8.541  0.3750 -0.3450  0.1272
   56MOL0     N 7311   6.837   4.227   8.572  0.1665  0.4308  0.0527
   56MOL0     C 7312   6.075   4.563   8.861 -0.3909  0.5640  0.6817
   56MOL0     C 7313   5.952   4.593   8.911 -0.0029 -0.7192 -0.6596
   56MOL0     C 7314   5.494   4.509   9.058  0.4928 -0.1881 -0.7927
   56MOL0     C 7315   5.382   4.426   9.085 -1.0102  0.4417  0.8852
   56MOL0     C 7316   5.258   4.475   9.118  0.0158 -0.1050 -0.3518
   56MOL0     C 7317   5.248   4.609   9.138 -1.3786  0.6980 -0.2248
   56MOL0     O 7318   5.122   4.643   9.170 -0.1847 -0.1487 -0.3884
   56MOL0     C 7319   5.093   4.748   9.278  0.1836  0.8743 -0.6275
   56MOL0     C 7320   4.970   4.824   9.226 -0.0662  0.1916 -0.4229
   56MOL0     C 7321   4.996   4.905   9.097  0.0725  0.2125  0.5427
   56MOL0     C 7322   4.875   4.988   9.043  1.0428  0.1042 -1.0308
   56MOL0     C 7323   4.767   4.909   8.985 -0.3002 -1.6700  0.1424
   56MOL0     C 7324   4.670   4.862   8.941 -0.6777 -1.0420  0.1812
   56MOL0     C 7325   5.355   4.694   9.100  0.3999 -0.1499 -0.6782
   56MOL0     C 7326   5.478   4.640   9.071  0.7079  0.2151 -0.3606
   56MOL0     H 7327   5.801   4.297   8.843 -0.3433 -0.8006  0.0907
   56MOL0     H 7328   6.006   4.258   8.745  2.6682  0.2350  0.9865
   56MOL0     H 7329   6.155   4.379   8.555 -0.5177 -0.2862  0.6068
   56MOL0     H 7330   6.230   4.248   8.625 -1.9975 -0.2318  1.5676
   56MOL0     H 7331   6.387   4.336   8.463  1.0621  1.2868 -0.3294
   56MOL0     H 7332   6.453   4.364   8.622 -0.6573 -1.0106  1.2010
   56MOL0     H 7333   6.354   4.605   8.604 -0.9491 -0.7064  1.0973
   56MOL0     H 7334   6.267   4.551   8.467 -0.8234  0.5825  1.4427
   56MOL0     H 7335   6.500   4.523   8.330  1.4597 -2.0268  0.9438
   56MOL0     H 7336   6.496   4.682   8.413  1.8413  0.3999 -0.8007
   56MOL0     H 7337   6.626   4.431   8.504  0.8246  0.3797 -0.1727
   56MOL0     H 7338   6.605   4.589   8.594  0.2058  0.3609  0.5754
   56MOL0     H 7339   6.737   4.708   8.456 -2.3652 -0.0593 -1.1641
   56MOL0     H 7340   6.755   4.598   8.328 -1.3580  2.0379  0.1367
   56MOL0     H 7341   6.942   4.629   8.536  1.3310 -2.0113  2.3919
   56MOL0     H 7342   6.841   4.522   8.613 -0.9644  1.5297  0.1302
   56MOL0     H 7343   7.041   4.416   8.478 -0.4286 -3.0297  2.4672
   56MOL0     H 7344   6.953   4.453   8.336  3.4506  1.2747  0.7049
   56MOL0     H 7345   6.828   4.241   8.242 -0.4682  0.7302 -0.3673
   56MOL0     H 7346   6.752   3.889   8.400 -0.9402 -1.9874 -2.7206
   56MOL0     H 7347   6.804   3.975   8.255  1.8904  3.6650  0.9980
   56MOL0     H 7348   6.564   3.897   8.234 -0.4282 -0.8962  1.4223
   56MOL0     H 7349   6.565   4.072   8.246  1.9314  0.3257 -0.6279
   56MOL0     H 7350   6.512   3.863   8.467  0.0239 -0.3311  0.6143
   56MOL0     H 7351   6.519   4.037   8.512 -0.0665  1.2427 -1.6154
   56MOL0     H 7352   6.322   3.896   8.341 -1.8290  2.7018 -2.5544
   56MOL0     H 7353   6.326   4.069   8.334 -3.4694 -1.1621 -0.2647
   56MOL0     H 7354   6.129   3.984   8.731 -3.0210  0.3113  1.1935
   56MOL0     H 7355   5.881   4.031   8.729  0.7690  1.3661  0.5755
   56MOL0     H 7356   5.540   4.178   8.210 -2.8885  1.9321 -3.1484
   56MOL0     H 7357   5.306   4.171   8.139 -1.1661 -1.1524 -1.2724
   56MOL0     H 7358   5.105   4.052   8.082 -0.7552  0.5361  0.3679
   56MOL0     H 7359   5.011   4.161   8.190 -1.6807 -1.0159  3.1333
   56MOL0     H 7360   4.952   3.866   8.127  1.8379  0.8234 -0.9635
   56MOL0     H 7361   4.855   3.996   8.077 -4.1398  0.5406  2.8496
   56MOL0     H 7362   4.834   4.070   8.312  2.1000 -0.5570  4.0031
   56MOL0     H 7363   4.885   3.910   8.362 -0.6596 -0.5079 -0.2160
   56MOL0     H 7364   4.622   3.968   8.232 -2.1575 -1.6967  2.4057
   56MOL0     H 7365   4.709   3.836   8.156  3.1502  2.0179 -0.6273
   56MOL0     H 7366   4.677   3.874   8.459 -0.2723  3.4293 -2.8286
   56MOL0     H 7367   4.750   3.725   8.377 -0.1600 -0.3814  0.7794
   56MOL0     H 7368   4.550   3.645   8.447  1.0098 -0.7595  0.2462
   56MOL0     H 7369   4.526   3.675   8.276  1.2310 -3.3298  2.6270
   56MOL0     H 7370   4.448   3.891   8.470  1.0868  0.0387  0.3973
   56MOL0     H 7371   4.393   3.874   8.302 -2.3390 -1.8822 -1.5266
   56MOL0     H 7372   4.219   3.797   8.464 -0.2931 -0.5707  3.1316
   56MOL0     H 7373   4.340   3.680   8.545  3.9538  1.2555 -0.5132
   56MOL0     H 7374   5.248   3.878   8.455 -0.5398  2.6776  0.8531
   56MOL0     H 7375   5.485   3.902   8.522 -1.6607 -2.4726  0.6655
   56MOL0     H 7376   5.902   4.077   8.304 -0.0803 -4.1827 -1.0312
   56MOL0     H 7377   6.137   4.025   8.300 -4.5103 -6.6935 -3.0118
   56MOL0     H 7378   6.159   4.626   8.890  0.6653 -0.6479  0.3546
   56MOL0     H 7379   5.935   4.685   8.965 -0.1938 -1.1742  0.0730
   56MOL0     H 7380   5.394   4.320   9.066 -1.4336  0.6703 -0.8037
   56MOL0     H 7381   5.176   4.405   9.123 -1.1530  1.1687 -0.8763
   56MOL0     H 7382   5.179   4.813   9.294  0.0950  0.9081 -0.2832
   56MOL0     H 7383   5.056   4.708   9.373  0.0818  1.6658 -0.3298
   56MOL0     H 7384   4.900   4.744   9.200  2.0515 -1.9451  0.0843
   56MOL0     H 7385   4.921   4.880   9.306 -0.1719 -1.2976  0.6116
   56MOL0     H 7386   5.044   4.835   9.027 -2.0296 -2.8880  1.9671
   56MOL0     H 7387   5.079   4.972   9.121 -1.4125  1.4406  2.5163
   56MOL0     H 7388   4.842   5.046   9.130  1.2168  3.4782 -3.0504
   56MOL0     H 7389   4.905   5.061   8.967 -1.4844  1.8322 -0.4764
   56MOL0     H 7390   4.588   4.806   8.901 -0.7154 -1.0123  0.2179
   56MOL0     H 7391   5.346   4.801   9.119 -1.6243 -0.4832  0.5494
   56MOL0     H 7392   5.556   4.715   9.061 -0.7010  1.7348 -0.3598
   57MOL0     O 7393   5.884   7.995  10.259  0.3429  0.1367 -0.1301
   57MOL0     C 7394   5.876   7.965  10.140  0.1693  0.8043  0.1320
   57MOL0     O 7395   5.968   7.887  10.075 -0.3667 -0.1528  0.7753
   57MOL0     C 7396   6.091   7.872  10.132 -0.6631 -0.3987  0.5825
   57MOL0     C 7397   6.181   7.977  10.120  0.0490 -0.3363  1.0221
   57MOL0     C 7398   6.309   7.960  10.179 -0.1798 -0.0836 -0.5081
   57MOL0     C 7399   6.341   7.847  10.256  0.7068 -0.6882 -0.9769
   57MOL0     O 7400   6.468   7.835  10.319 -0.0407 -0.2856 -0.4865
   57MOL0     C 7401   6.519   7.709  10.373  0.2284  0.3272  0.0610
   57MOL0     C 7402   6.644   7.723  10.447 -0.3505  0.8983 -0.2247
   57MOL0     C 7403   6.756   7.771  10.354 -0.7775 -0.3385 -0.2728
   57MOL0     C 7404   6.891   7.780  10.435 -0.7879 -0.4224 -0.3189
   57MOL0     C 7405   7.003   7.842  10.344 -0.3107  0.3322 -0.0620
   57MOL0     C 7406   7.066   7.727  10.260 -0.4557  0.1912 -0.4916
   57MOL0     C 7407   7.212   7.725  10.278  0.3453 -0.3285  0.1657
   57MOL0     C 7408   7.280   7.842  10.196  0.4542 -0.5448  0.4171
   57MOL0     N 7409   7.426   7.815  10.183  1.3977 -1.0552  0.0671
   57MOL0     C 7410   7.484   7.833  10.059 -0.3456 -0.0824  0.3720
   57MOL0     C 7411   7.620   7.822  10.089  0.3550  0.3577  0.3838
   57MOL0     C 7412   7.740   7.834   9.996 -0.5505 -0.0943  0.3667
   57MOL0     C 7413   7.838   7.940  10.051  0.4667  0.1183  0.5301
   57MOL0     C 7414   7.946   7.978   9.944  0.0398  0.1192  0.0340
   57MOL0     C 7415   8.090   7.982   9.990  0.3980 -0.0331 -0.6503
   57MOL0     O 7416   8.176   8.005   9.885 -0.2916 -0.6817 -0.2965
   57MOL0     C 7417   8.309   8.039   9.907 -0.4459  0.1017  0.0932
   57MOL0     C 7418   8.371   8.026  10.036  0.3367  0.2072 -0.5122
   57MOL0     C 7419   8.508   8.050  10.047 -0.4279  1.3006  0.0863
   57MOL0     C 7420   8.584   8.085   9.929  0.4907 -0.4513 -0.1203
   57MOL0     C 7421   8.733   8.080   9.935  0.1043  0.2426 -0.1797
   57MOL0     O 7422   8.804   8.108   9.821 -0.1341 -0.3978 -0.2780
   57MOL0     C 7423   8.941   8.084   9.807  0.3137 -0.5220 -0.3557
   57MOL0     C 7424   9.024   8.017   9.898  0.0048  0.4207  0.1281
   57MOL0     C 7425   9.162   8.010   9.873 -0.0160 -0.7910 -0.0774
   57MOL0     C 7426   9.215   8.058   9.749  0.1399 -0.0920  0.1386
   57MOL0     O 7427   9.348   8.050   9.742  0.0181  0.4425  0.4195
   57MOL0     C 7428   9.422   8.040   9.617  0.4120  0.4022  0.8960
   57MOL0     C 7429   9.572   8.009   9.641  0.9093 -0.1047  0.1703
   57MOL0     C 7430   9.671   8.121   9.675  0.6697  0.1335 -0.0400
   57MOL0     C 7431   9.689   8.203   9.545 -0.6218 -0.1452 -0.4092
   57MOL0     C 7432   9.772   8.328   9.561  0.2164  0.4794  0.0566
   57MOL0     C 7433   9.914   8.299   9.605  0.2122 -0.1827 -0.2810
   57MOL0     C 7434  10.006   8.408   9.567 -0.0435 -0.2030 -0.4147
   57MOL0     C 7435  10.145   8.365   9.617  0.2313 -0.2806 -0.2383
   57MOL0    Cl 7436  10.210   8.230   9.511  0.2932  0.2197 -0.4248
   57MOL0     C 7437   9.131   8.114   9.655  0.3548 -0.4832 -0.8032
   57MOL0     C 7438   8.994   8.141   9.691  0.3608  0.4826 -0.9523
   57MOL0     O 7439   8.775   8.068  10.053  0.0388 -0.3037 -0.3254
   57MOL0     C 7440   8.514   8.106   9.804  0.7535 -0.0322 -0.2851
   57MOL0     C 7441   8.377   8.073   9.794 -0.4033  0.0844  0.4446
   57MOL0     N 7442   7.635   7.800  10.218  0.7210 -0.7962 -0.1403
   57MOL0     N 7443   7.516   7.798  10.273 -0.1723 -0.1434 -1.1767
   57MOL0     C 7444   6.249   7.738  10.257 -0.0422  0.1369 -0.1709
   57MOL0     C 7445   6.120   7.759  10.208 -0.0343 -0.2910  0.5818
   57MOL0     C 7446   5.753   8.006  10.067 -0.4046 -0.5958  0.0402
   57MOL0     C 7447   5.656   8.104  10.105 -0.6548  1.3013  0.0022
   57MOL0     C 7448   5.543   8.136  10.025  0.2146  1.3874 -0.2408
   57MOL0     C 7449   5.526   8.059   9.913  0.8989 -0.0128  0.9822
   57MOL0     O 7450   5.422   8.079   9.837  0.7039 -0.3554  0.3776
   57MOL0     C 7451   5.389   8.216   9.791  0.7005  0.8226  0.0324
   57MOL0     C 7452   5.248   8.234   9.732  0.0161 -0.8942 -1.4734
   57MOL0     C 7453   5.140   8.174   9.822  0.3404 -0.3149 -0.1183
   57MOL0     C 7454   5.072   8.053   9.764  0.4757  0.9294  0.5564
   57MOL0     C 7455   4.955   8.014   9.842 -0.5510 -0.1518  0.1534
   57MOL0     C 7456   4.866   7.992   9.922  0.2657  0.2753  0.2770
   57MOL0     C 7457   5.612   7.962   9.870 -0.8241  0.7403 -0.2969
   57MOL0     C 7458   5.730   7.945   9.942  0.9219 -0.3708 -0.1132
   57MOL0     H 7459   6.164   8.066  10.060  2.6842  1.9846  3.3915
   57MOL0     H 7460   6.381   8.042  10.176  1.0508 -1.1348 -1.0248
   57MOL0     H 7461   6.525   7.637  10.292 -0.5507  0.4999 -0.1626
   57MOL0     H 7462   6.450   7.657  10.440  1.6608 -2.8068 -0.7252
   57MOL0     H 7463   6.671   7.623  10.483  0.6749  1.7572  1.5385
   57MOL0     H 7464   6.622   7.781  10.537 -0.7995 -0.5964  0.6611
   57MOL0     H 7465   6.735   7.866  10.305 -3.3078  0.2038  1.6750
   57MOL0     H 7466   6.764   7.695  10.276  1.3960  0.4992 -0.9693
   57MOL0     H 7467   6.869   7.828  10.531 -3.5119 -1.2017 -0.4684
   57MOL0     H 7468   6.905   7.676  10.466 -1.2702  0.1616  2.1144
   57MOL0     H 7469   7.071   7.870  10.425 -0.7006 -3.3498  1.7778
   57MOL0     H 7470   6.973   7.929  10.285 -0.9686  1.9050  2.4457
   57MOL0     H 7471   7.036   7.755  10.159 -1.0150  2.7808  0.3312
   57MOL0     H 7472   7.019   7.629  10.278  0.1984 -0.0755 -0.1941
   57MOL0     H 7473   7.241   7.724  10.383  3.4282 -1.2275 -0.6170
   57MOL0     H 7474   7.239   7.627  10.239  0.5273  0.2400 -1.2218
   57MOL0     H 7475   7.269   7.936  10.251  0.6886 -1.2891  1.7845
   57MOL0     H 7476   7.219   7.861  10.107  2.6511  1.6746 -0.7169
   57MOL0     H 7477   7.441   7.874   9.968 -3.0721 -1.2890  1.0215
   57MOL0     H 7478   7.710   7.860   9.894 -1.3301 -0.7591  0.4141
   57MOL0     H 7479   7.783   7.734   9.985 -0.1712  0.1387 -0.3086
   57MOL0     H 7480   7.882   7.891  10.138 -1.6982  0.1565  1.7273
   57MOL0     H 7481   7.783   8.029  10.081  0.2889 -0.6055  2.4426
   57MOL0     H 7482   7.948   7.905   9.862 -0.8309  3.8151 -3.6411
   57MOL0     H 7483   7.912   8.070   9.894  1.4896  2.0516  2.3744
   57MOL0     H 7484   8.116   7.890  10.042 -0.3938  1.2107  2.0836
   57MOL0     H 7485   8.107   8.073  10.049 -1.7025 -0.0742  0.0869
   57MOL0     H 7486   8.302   7.988  10.111 -3.4109  1.5878 -2.9628
   57MOL0     H 7487   8.555   8.023  10.141  0.0528 -2.3442 -1.0393
   57MOL0     H 7488   8.988   7.975   9.991  1.6571 -2.4718 -0.4338
   57MOL0     H 7489   9.234   7.968   9.943  0.1438  3.0987  2.4245
   57MOL0     H 7490   9.416   8.130   9.556  0.5884  0.0891  0.4089
   57MOL0     H 7491   9.366   7.968   9.556 -2.5302  0.9316  2.7580
   57MOL0     H 7492   9.607   7.941   9.562  1.4916  3.9372 -3.4169
   57MOL0     H 7493   9.575   7.942   9.728 -0.6898  0.1023  0.4174
   57MOL0     H 7494   9.767   8.073   9.699  0.0717 -2.0847 -1.7520
   57MOL0     H 7495   9.641   8.187   9.756  3.0101 -0.2079  1.2070
   57MOL0     H 7496   9.722   8.136   9.466 -4.0533 -4.7036  1.5459
   57MOL0     H 7497   9.597   8.242   9.499 -0.2421  0.6649 -0.4945
   57MOL0     H 7498   9.729   8.396   9.635 -2.2697 -0.3034 -0.5876
   57MOL0     H 7499   9.773   8.378   9.463  4.3689 -0.1376 -0.4116
   57MOL0     H 7500   9.951   8.203   9.568 -0.4117 -0.0515 -1.2589
   57MOL0     H 7501   9.910   8.289   9.714  2.3999 -0.4804 -0.1770
   57MOL0     H 7502  10.011   8.421   9.458 -2.6874  3.5144 -0.2719
   57MOL0     H 7503   9.974   8.503   9.609  0.6675 -0.6658  1.2421
   57MOL0     H 7504  10.139   8.316   9.715 -2.0464 -2.0781 -1.1840
   57MOL0     H 7505  10.211   8.452   9.625 -2.5930  1.8882  1.4268
   57MOL0     H 7506   9.167   8.160   9.563 -2.5212  0.1851 -1.6813
   57MOL0     H 7507   8.938   8.199   9.618 -2.3882 -0.9403 -0.1257
   57MOL0     H 7508   8.576   8.142   9.722  3.5793 -0.5244  1.4624
   57MOL0     H 7509   8.328   8.086   9.698  1.4627 -2.1998 -0.9369
   57MOL0     H 7510   6.263   7.651  10.320 -0.3487  1.3154  1.5853
   57MOL0     H 7511   6.040   7.690  10.231  1.0031 -1.6079  0.3593
   57MOL0     H 7512   5.672   8.148  10.203 -2.3340  0.4942  0.6762
   57MOL0     H 7513   5.469   8.205  10.066 -0.3049  1.1534 -0.7703
   57MOL0     H 7514   5.478   8.253   9.740  1.9267  0.0832  1.5602
   57MOL0     H 7515   5.384   8.282   9.878 -0.5951  1.4725 -0.5116
   57MOL0     H 7516   5.228   8.341   9.730 -1.8201 -1.2115 -1.6353
   57MOL0     H 7517   5.254   8.203   9.627  1.6066  0.2764 -1.7768
   57MOL0     H 7518   5.063   8.251   9.835 -0.9179 -1.4953 -0.3795
   57MOL0     H 7519   5.182   8.148   9.919  1.8492 -0.3389 -0.7492
   57MOL0     H 7520   5.030   8.069   9.665 -2.6451 -3.1327  0.9820
   57MOL0     H 7521   5.146   7.972   9.771 -2.1177 -1.4586  2.1576
   57MOL0     H 7522   4.784   7.985   9.991 -1.3518  2.7132 -1.2487
   57MOL0     H 7523   5.587   7.902   9.783 -0.3787  1.1985 -0.7463
   57MOL0     H 7524   5.803   7.873   9.906  1.6568  1.2369 -2.0363
   58MOL0     O 7525   4.020   3.289  10.168  0.0778 -0.4085  0.6438
   58MOL0     C 7526   4.139   3.251  10.189  0.1235 -0.3424 -0.4635
   58MOL0     O 7527   4.221   3.186  10.099 -0.4672  0.3387  0.6046
   58MOL0     C 7528   4.150   3.145   9.992 -0.2760 -0.4896  0.7084
   58MOL0     C 7529   4.206   3.188   9.872  1.5143  0.0842 -0.7627
   58MOL0     C 7530   4.132   3.156   9.758  0.2532 -0.9844  0.7349
   58MOL0     C 7531   4.018   3.077   9.760 -0.6481 -0.4234 -0.6996
   58MOL0     O 7532   3.944   3.051   9.650 -0.5298  0.1859  0.6471
   58MOL0     C 7533   3.966   3.119   9.525 -0.1851 -0.7703  0.1742
   58MOL0     C 7534   3.879   3.069   9.421  0.0151 -0.3600 -0.3804
   58MOL0     C 7535   3.739   3.059   9.466 -0.5376 -0.4953  0.0642
   58MOL0     C 7536   3.687   3.203   9.497 -0.4360  0.2376  0.1373
   58MOL0     C 7537   3.533   3.200   9.467 -1.0602 -0.9497 -0.1602
   58MOL0     C 7538   3.460   3.097   9.540  0.9056  0.3716  0.4093
   58MOL0     C 7539   3.310   3.135   9.530 -0.9985 -0.1305 -0.6801
   58MOL0     C 7540   3.224   3.046   9.612  0.3147 -0.5453 -0.2061
   58MOL0     N 7541   3.099   3.107   9.635  0.4510  0.2986 -0.0563
   58MOL0     C 7542   2.983   3.065   9.566  0.5311 -0.3519 -0.4764
   58MOL0     C 7543   2.895   3.168   9.593 -0.2052 -0.2774 -0.6274
   58MOL0     C 7544   2.749   3.179   9.550 -0.0481  0.1142  0.1488
   58MOL0     C 7545   2.694   3.325   9.516  0.1072  0.8354 -0.8872
   58MOL0     C 7546   2.733   3.362   9.374 -0.2402  0.2504  0.8036
   58MOL0     C 7547   2.887   3.349   9.355  0.0609 -0.2063  0.6022
   58MOL0     O 7548   2.911   3.411   9.237  0.1055  0.7499  0.4127
   58MOL0     C 7549   3.037   3.455   9.200  0.1383  0.6512 -0.1147
   58MOL0     C 7550   3.047   3.571   9.125 -0.1231 -0.2626 -0.0112
   58MOL0     C 7551   3.178   3.603   9.058 -0.2167  0.7900 -0.7630
   58MOL0     C 7552   3.293   3.517   9.089  0.4393  0.1288  1.7449
   58MOL0     C 7553   3.424   3.554   9.030 -0.2059  0.4221  0.0769
   58MOL0     O 7554   3.532   3.471   9.063  0.0561 -0.2728 -0.2367
   58MOL0     C 7555   3.657   3.483   9.004 -0.1393 -0.3663 -0.3326
   58MOL0     C 7556   3.686   3.542   8.878  0.2521 -1.1774 -0.0285
   58MOL0     C 7557   3.822   3.531   8.826  0.7085  0.0513  0.0296
   58MOL0     C 7558   3.923   3.473   8.894 -0.8749  0.8011  0.3803
   58MOL0     O 7559   4.045   3.466   8.830  0.0269  0.0658  0.2088
   58MOL0     C 7560   4.151   3.385   8.888  0.7331 -0.6146 -0.6414
   58MOL0     C 7561   4.281   3.399   8.798  0.3170  1.5700 -0.6805
   58MOL0     C 7562   4.246   3.367   8.648 -0.6376  0.0993  0.2440
   58MOL0     C 7563   4.365   3.340   8.566 -0.0528  0.0407 -0.9134
   58MOL0     C 7564   4.334   3.276   8.435 -0.5327 -0.4342  0.0378
   58MOL0     C 7565   4.450   3.311   8.343 -0.8401 -0.9890  0.3481
   58MOL0     C 7566   4.443   3.218   8.223 -0.4997  0.1922 -0.1458
   58MOL0     C 7567   4.569   3.215   8.140 -1.1890  0.0926 -0.1604
   58MOL0    Cl 7568   4.695   3.127   8.248 -0.2037 -0.4498 -0.1968
   58MOL0     C 7569   3.887   3.416   9.016 -0.1143 -0.7578 -0.5491
   58MOL0     C 7570   3.758   3.423   9.073 -0.2894 -0.6737 -0.5960
   58MOL0     O 7571   3.433   3.656   8.959 -0.0402 -1.4694  0.1208
   58MOL0     C 7572   3.283   3.407   9.169  0.5113  0.5017  0.0877
   58MOL0     C 7573   3.153   3.377   9.221 -0.3719  0.4308 -0.6826
   58MOL0     N 7574   2.963   3.264   9.663  0.0486 -0.1773  0.1938
   58MOL0     N 7575   3.084   3.236   9.687 -0.2961  0.6962 -0.3761
   58MOL0     C 7576   3.962   3.039   9.880 -0.6715  0.0815 -0.0173
   58MOL0     C 7577   4.039   3.067   9.992 -0.8260 -0.0773  0.0628
   58MOL0     C 7578   4.212   3.288  10.313  0.8218 -0.3779  0.3768
   58MOL0     C 7579   4.345   3.241  10.341  1.0029 -0.1029 -0.5464
   58MOL0     C 7580   4.416   3.280  10.450 -0.3722 -0.2314  0.9186
   58MOL0     C 7581   4.359   3.368  10.541 -0.6990 -0.4758 -0.2484
   58MOL0     O 7582   4.420   3.397  10.662 -0.2430 -0.1764 -0.1660
   58MOL0     C 7583   4.563   3.418  10.672  0.6845 -0.1214  0.3764
   58MOL0     C 7584   4.634   3.310  10.757  0.7007 -0.4149 -0.4235
   58MOL0     C 7585   4.784   3.332  10.784  0.1677 -0.9652 -0.3178
   58MOL0     C 7586   4.825   3.456  10.864 -0.7960  0.5753  0.1383
   58MOL0     C 7587   4.974   3.472  10.878 -0.9587  0.7521  0.9905
   58MOL0     C 7588   5.093   3.475  10.911  0.0210 -0.0208 -0.0191
   58MOL0     C 7589   4.243   3.437  10.509  1.1149  0.9773  0.6044
   58MOL0     C 7590   4.163   3.392  10.396  0.3925 -0.5536  0.4162
   58MOL0     H 7591   4.290   3.255   9.858  2.4443 -0.2421  2.5554
   58MOL0     H 7592   4.171   3.210   9.672 -3.0614  0.5385  0.0358
   58MOL0     H 7593   4.070   3.111   9.492 -0.6012 -0.1697 -1.3846
   58MOL0     H 7594   3.957   3.228   9.537 -0.2455 -0.7465 -0.0840
   58MOL0     H 7595   3.921   2.977   9.379  1.0424  0.6110 -1.5949
   58MOL0     H 7596   3.890   3.132   9.332  3.7903  0.8040  0.7246
   58MOL0     H 7597   3.735   2.987   9.548  1.7271  1.4555  2.0567
   58MOL0     H 7598   3.677   3.028   9.381 -2.2291  2.1519  0.2114
   58MOL0     H 7599   3.701   3.228   9.602 -2.9061 -0.7050  0.7764
   58MOL0     H 7600   3.731   3.280   9.434 -1.6240 -2.2293 -4.1884
   58MOL0     H 7601   3.515   3.186   9.361  1.5435 -1.3260 -0.6263
   58MOL0     H 7602   3.494   3.299   9.492 -0.5001  0.5240 -4.3240
   58MOL0     H 7603   3.495   3.104   9.644  0.3769 -1.5546  0.7648
   58MOL0     H 7604   3.483   2.995   9.505 -0.3106  0.4595 -0.7048
   58MOL0     H 7605   3.307   3.240   9.559  2.0076  0.0253 -0.5699
   58MOL0     H 7606   3.280   3.140   9.425 -0.7864  1.7911 -0.6808
   58MOL0     H 7607   3.257   3.018   9.713  1.2367  0.9174 -0.0773
   58MOL0     H 7608   3.227   2.957   9.548  1.5539 -0.3752 -0.4229
   58MOL0     H 7609   2.961   2.970   9.518 -2.3790  0.2211 -0.4555
   58MOL0     H 7610   2.683   3.119   9.614  2.1261 -0.1490  2.2999
   58MOL0     H 7611   2.740   3.120   9.458 -3.1620  2.4482 -1.2511
   58MOL0     H 7612   2.735   3.396   9.588 -0.3329 -0.8260  1.1267
   58MOL0     H 7613   2.586   3.330   9.533  0.0467 -3.1255  1.3771
   58MOL0     H 7614   2.684   3.297   9.301  0.9495  0.0454  0.1629
   58MOL0     H 7615   2.705   3.467   9.365 -0.7477  0.1974  1.6457
   58MOL0     H 7616   2.924   3.246   9.358 -2.4326 -1.1412  3.2800
   58MOL0     H 7617   2.940   3.408   9.430 -3.2978  2.7680  0.8661
   58MOL0     H 7618   2.952   3.622   9.122  0.6159  1.2661  1.2345
   58MOL0     H 7619   3.207   3.678   8.986  1.8122 -0.5954 -1.4882
   58MOL0     H 7620   3.613   3.594   8.817  1.3294  0.9318  0.4001
   58MOL0     H 7621   3.857   3.561   8.728 -1.1758  0.5862 -0.5239
   58MOL0     H 7622   4.116   3.281   8.889 -1.1542 -0.0317 -0.8474
   58MOL0     H 7623   4.174   3.406   8.992  1.7333  1.2332 -1.1958
   58MOL0     H 7624   4.342   3.311   8.819  0.2306  1.4375 -0.9817
   58MOL0     H 7625   4.330   3.492   8.828 -1.2990  1.4473  2.8539
   58MOL0     H 7626   4.191   3.454   8.612 -2.7812 -1.3568 -0.2340
   58MOL0     H 7627   4.184   3.276   8.648  0.6512 -0.8223  1.0363
   58MOL0     H 7628   4.423   3.433   8.560  2.5926 -0.4553  6.4095
   58MOL0     H 7629   4.435   3.265   8.605  0.1119 -0.7497 -2.6418
   58MOL0     H 7630   4.235   3.314   8.407  0.1728  1.2757 -0.2874
   58MOL0     H 7631   4.328   3.168   8.449  4.7168 -0.8573  1.0510
   58MOL0     H 7632   4.545   3.315   8.396 -1.1887 -0.8188  0.9818
   58MOL0     H 7633   4.447   3.416   8.310  2.6029 -0.8103  0.2774
   58MOL0     H 7634   4.427   3.115   8.255  0.4730 -0.0081 -0.2802
   58MOL0     H 7635   4.357   3.252   8.165  1.3941 -0.5134 -3.6792
   58MOL0     H 7636   4.600   3.318   8.122 -1.1046  0.1073  0.0728
   58MOL0     H 7637   4.565   3.157   8.047  1.1093 -2.3684  1.1238
   58MOL0     H 7638   3.962   3.353   9.062 -1.8350 -1.6749  1.1684
   58MOL0     H 7639   3.720   3.393   9.170 -4.0562  0.3335 -1.5994
   58MOL0     H 7640   3.362   3.334   9.182  0.6922  0.9363  1.5743
   58MOL0     H 7641   3.147   3.281   9.272  1.8639 -0.8418 -2.5793
   58MOL0     H 7642   3.869   2.982   9.889 -1.5717  1.7687  2.4626
   58MOL0     H 7643   3.999   3.032  10.087 -1.7201 -0.8406 -0.5724
   58MOL0     H 7644   4.390   3.166  10.278 -2.9877 -2.1807 -1.2353
   58MOL0     H 7645   4.509   3.231  10.479 -0.1235  0.8657  2.0091
   58MOL0     H 7646   4.577   3.510  10.729 -2.5471 -1.0686  3.0023
   58MOL0     H 7647   4.610   3.442  10.576 -0.4542 -2.1424 -0.7486
   58MOL0     H 7648   4.577   3.307  10.851 -1.9071  2.4109 -1.7323
   58MOL0     H 7649   4.627   3.205  10.728  2.3927 -0.5845 -0.3256
   58MOL0     H 7650   4.838   3.328  10.689  0.9044 -0.5324  0.0752
   58MOL0     H 7651   4.807   3.243  10.844 -1.6971 -1.6981 -0.6226
   58MOL0     H 7652   4.794   3.540  10.801 -1.3764  0.4194  0.2082
   58MOL0     H 7653   4.772   3.452  10.960  3.6087 -0.1647  2.8512
   58MOL0     H 7654   5.186   3.459  10.960 -0.2019  2.7091  1.5026
   58MOL0     H 7655   4.227   3.527  10.567 -3.6720  0.2392  0.8795
   58MOL0     H 7656   4.069   3.442  10.376 -0.0357 -2.1836 -1.9848
   59MOL0     O 7657   3.047   1.693   0.183  0.3267  0.0929 -0.4473
   59MOL0     C 7658   2.967   1.686   0.094 -0.5111  0.3637  0.3313
   59MOL0     O 7659   2.985   1.606  -0.016  1.1132 -0.1560  0.2570
   59MOL0     C 7660   3.053   1.482  -0.005  1.0984 -0.4354 -0.5577
   59MOL0     C 7661   3.126   1.448  -0.117 -0.3127  0.6115 -0.3997
   59MOL0     C 7662   3.218   1.342  -0.116 -0.3258  0.1247 -0.6793
   59MOL0     C 7663   3.227   1.260  -0.004  0.8030 -0.5089 -0.4564
   59MOL0     O 7664   3.310   1.160  -0.008  0.4465  0.5039  0.6179
   59MOL0     C 7665   3.324   1.071   0.110 -0.0795 -0.2645  0.2433
   59MOL0     C 7666   3.412   0.948   0.061 -0.4115  0.1811  0.5099
   59MOL0     C 7667   3.561   0.992   0.037 -0.3682  0.1881 -0.1175
   59MOL0     C 7668   3.646   0.866   0.004 -0.2791 -0.5004  0.9994
   59MOL0     C 7669   3.795   0.910  -0.016  0.1853  0.2482 -0.5899
   59MOL0     C 7670   3.878   0.786   0.016  0.0792  0.5621 -0.0644
   59MOL0     C 7671   4.029   0.822   0.021 -0.0502  1.4983 -0.8080
   59MOL0     C 7672   4.134   0.713  -0.010  0.7708  0.0856  0.5207
   59MOL0     N 7673   4.275   0.753  -0.008 -0.3485 -0.2833 -0.3687
   59MOL0     C 7674   4.385   0.714   0.074 -0.1661 -0.9606 -0.0513
   59MOL0     C 7675   4.496   0.792   0.038 -0.1970 -0.2842  0.6473
   59MOL0     C 7676   4.643   0.781   0.090 -0.1247 -0.9224 -0.2074
   59MOL0     C 7677   4.727   0.667   0.037 -0.1470  0.0556 -0.1196
   59MOL0     C 7678   4.876   0.693   0.060  0.0664  0.1137 -0.6797
   59MOL0     C 7679   4.975   0.593   0.002  0.6861 -1.0081  1.2808
   59MOL0     O 7680   4.947   0.599  -0.142 -0.5040  0.0950 -0.1681
   59MOL0     C 7681   5.051   0.538  -0.210  0.1907 -0.0668  0.0100
   59MOL0     C 7682   5.152   0.455  -0.158 -0.1875 -0.8815 -0.7024
   59MOL0     C 7683   5.248   0.396  -0.244  0.4946 -0.3396  0.4578
   59MOL0     C 7684   5.241   0.432  -0.381  0.0267  0.4338 -0.4758
   59MOL0     C 7685   5.347   0.383  -0.475 -0.4287  0.3451  0.8263
   59MOL0     O 7686   5.457   0.325  -0.415  0.8695  0.0846  0.2162
   59MOL0     C 7687   5.551   0.276  -0.503 -0.1370  0.2198 -0.0477
   59MOL0     C 7688   5.647   0.358  -0.554 -0.4122 -0.6752  0.1190
   59MOL0     C 7689   5.727   0.329  -0.664  1.1684 -0.2203  0.4511
   59MOL0     C 7690   5.725   0.198  -0.715  0.7768 -0.0007 -0.7286
   59MOL0     O 7691   5.810   0.160  -0.812 -0.6478 -0.7472  0.3774
   59MOL0     C 7692   5.841   0.011  -0.828 -0.2821  0.2659  0.3330
   59MOL0     C 7693   5.919   0.004  -0.972 -0.2201 -0.0182 -0.1381
   59MOL0     C 7694   5.929  -0.143  -1.016  0.1793  1.2981  0.2755
   59MOL0     C 7695   6.045  -0.178  -1.120  0.3200 -0.4937  0.2307
   59MOL0     C 7696   6.019  -0.296  -1.217 -0.1844  0.1676  0.1084
   59MOL0     C 7697   6.114  -0.297  -1.342 -0.2938  0.3739 -0.2960
   59MOL0     C 7698   6.267  -0.290  -1.314  0.1602 -0.2920  0.5385
   59MOL0     C 7699   6.336  -0.305  -1.446  0.5811  0.1111 -0.2335
   59MOL0    Cl 7700   6.349  -0.475  -1.484 -0.5961 -0.1095 -0.0828
   59MOL0     C 7701   5.633   0.113  -0.658  0.6885  0.9634  0.3755
   59MOL0     C 7702   5.549   0.145  -0.555  0.0324 -0.1818 -0.1762
   59MOL0     O 7703   5.331   0.405  -0.600 -0.0453 -0.5039 -0.6602
   59MOL0     C 7704   5.141   0.511  -0.425  0.2806 -0.6749 -0.1601
   59MOL0     C 7705   5.036   0.550  -0.346  0.1800 -0.4252 -0.5712
   59MOL0     N 7706   4.449   0.879  -0.065  0.0090  0.0691 -0.2086
   59MOL0     N 7707   4.325   0.861  -0.082  0.1401  1.2228 -1.3712
   59MOL0     C 7708   3.147   1.295   0.113 -0.7153  0.2781 -0.7648
   59MOL0     C 7709   3.060   1.404   0.110  1.0670 -0.7080 -0.0034
   59MOL0     C 7710   2.860   1.783   0.087 -0.0851 -0.0750 -0.7850
   59MOL0     C 7711   2.776   1.787  -0.025 -0.2280 -0.5018  0.3550
   59MOL0     C 7712   2.653   1.855  -0.013  0.2095 -0.1210  0.2546
   59MOL0     C 7713   2.630   1.946   0.090 -0.1681  0.2627  0.7132
   59MOL0     O 7714   2.525   2.025   0.067  0.3677 -0.1610  0.1946
   59MOL0     C 7715   2.458   2.095   0.181 -0.4222 -0.7073  0.4207
   59MOL0     C 7716   2.306   2.096   0.175 -0.3708  0.6226  0.1804
   59MOL0     C 7717   2.249   2.214   0.101  0.5361 -0.6062 -0.3836
   59MOL0     C 7718   2.273   2.222  -0.047  0.5627 -0.5821  0.3250
   59MOL0     C 7719   2.378   2.327  -0.072  0.2104 -0.0546 -0.1430
   59MOL0     C 7720   2.458   2.416  -0.081  0.3163  0.8895 -0.0365
   59MOL0     C 7721   2.722   1.958   0.193 -0.2093 -0.5664 -0.7736
   59MOL0     C 7722   2.833   1.872   0.193 -0.0141 -0.0660 -0.9750
   59MOL0     H 7723   3.129   1.516  -0.201  3.2009 -0.6115 -1.4367
   59MOL0     H 7724   3.295   1.341  -0.193 -1.6646 -0.9901 -2.0864
   59MOL0     H 7725   3.231   1.024   0.142  0.5126 -0.2240  2.1513
   59MOL0     H 7726   3.374   1.127   0.189 -0.6872  1.6456 -0.6778
   59MOL0     H 7727   3.387   0.902  -0.035  1.2707 -0.3508  0.3052
   59MOL0     H 7728   3.423   0.872   0.139  3.3824 -1.2177 -1.1673
   59MOL0     H 7729   3.598   1.052   0.121 -1.8212  3.5483 -1.6815
   59MOL0     H 7730   3.560   1.060  -0.049 -3.1710 -1.3649 -1.4501
   59MOL0     H 7731   3.633   0.805   0.095 -2.9417  2.4353  2.7728
   59MOL0     H 7732   3.614   0.814  -0.087 -1.0938  1.4427  0.1335
   59MOL0     H 7733   3.813   0.988   0.058 -1.9358 -0.4218  0.7033
   59MOL0     H 7734   3.808   0.961  -0.112  0.1320 -1.5916 -1.6252
   59MOL0     H 7735   3.864   0.711  -0.062 -1.4125  3.3804 -2.7171
   59MOL0     H 7736   3.844   0.743   0.111  0.3580  0.4939  0.0054
   59MOL0     H 7737   4.055   0.905  -0.045 -1.3077 -0.5986 -4.1526
   59MOL0     H 7738   4.032   0.848   0.128  0.4668 -1.0886 -0.1271
   59MOL0     H 7739   4.112   0.679  -0.112 -0.0219 -2.4157  1.4379
   59MOL0     H 7740   4.119   0.627   0.056 -0.7081  1.1953  1.6787
   59MOL0     H 7741   4.371   0.641   0.154  1.0439 -1.7402 -0.5145
   59MOL0     H 7742   4.642   0.779   0.200  0.6323 -0.2299 -0.1763
   59MOL0     H 7743   4.706   0.866   0.063  2.4314 -2.8913 -0.8139
   59MOL0     H 7744   4.703   0.654  -0.069 -1.3332  0.7543  0.0405
   59MOL0     H 7745   4.695   0.578   0.093 -2.9737  1.8675  1.3770
   59MOL0     H 7746   4.901   0.795   0.029  0.1633  0.8631  1.6562
   59MOL0     H 7747   4.891   0.700   0.169 -0.8994 -0.6838 -0.4850
   59MOL0     H 7748   4.980   0.495   0.049 -1.1163 -1.2139  1.0967
   59MOL0     H 7749   5.069   0.643   0.031 -0.4255  0.6314  2.2471
   59MOL0     H 7750   5.145   0.435  -0.051  2.2346 -4.3463 -1.0345
   59MOL0     H 7751   5.323   0.325  -0.210  1.6927  0.2019 -0.9711
   59MOL0     H 7752   5.632   0.460  -0.519 -2.7209 -2.2871  4.6152
   59MOL0     H 7753   5.799   0.394  -0.714  0.5769 -1.5964 -2.4029
   59MOL0     H 7754   5.743  -0.036  -0.832  0.6857 -1.8473 -0.3579
   59MOL0     H 7755   5.903  -0.036  -0.752  0.8055  0.1588 -0.5846
   59MOL0     H 7756   6.020   0.047  -0.968 -0.6885  1.2034 -0.8138
   59MOL0     H 7757   5.866   0.058  -1.051 -1.5216 -0.6445  0.2720
   59MOL0     H 7758   5.831  -0.178  -1.051 -1.2548  3.4124  1.9212
   59MOL0     H 7759   5.940  -0.189  -0.917 -5.0662  2.0088  1.5347
   59MOL0     H 7760   6.034  -0.100  -1.196  2.8144 -0.1051  0.2055
   59MOL0     H 7761   6.144  -0.174  -1.074 -0.5522  0.5197  2.1533
   59MOL0     H 7762   5.919  -0.313  -1.258 -0.3580  3.6884 -1.2506
   59MOL0     H 7763   6.057  -0.381  -1.159 -0.5389 -0.1215 -0.0769
   59MOL0     H 7764   6.095  -0.210  -1.406 -1.5912  0.3962  0.0814
   59MOL0     H 7765   6.080  -0.389  -1.389 -0.0843 -1.1634  2.4021
   59MOL0     H 7766   6.285  -0.186  -1.285  2.5339 -0.2893 -0.6343
   59MOL0     H 7767   6.307  -0.359  -1.239  1.0413 -2.8098 -2.0659
   59MOL0     H 7768   6.440  -0.273  -1.433  2.3100 -4.1256 -1.8340
   59MOL0     H 7769   6.287  -0.251  -1.527  0.0431  0.8933  0.5941
   59MOL0     H 7770   5.621   0.011  -0.692  3.4946  0.6940 -0.0080
   59MOL0     H 7771   5.464   0.081  -0.532  0.2841  0.2270  2.0494
   59MOL0     H 7772   5.146   0.539  -0.530 -0.3201  1.7081  0.3768
   59MOL0     H 7773   4.957   0.608  -0.391  1.6190  3.6858  1.7491
   59MOL0     H 7774   3.153   1.243   0.208 -1.8042  1.1971 -0.1669
   59MOL0     H 7775   3.005   1.418   0.203  2.8162  0.8152  0.8715
   59MOL0     H 7776   2.799   1.731  -0.115 -2.5368 -1.1224  0.0956
   59MOL0     H 7777   2.577   1.866  -0.090 -0.4984  0.4161  1.0000
   59MOL0     H 7778   2.499   2.195   0.170 -0.4668 -0.7439 -0.1260
   59MOL0     H 7779   2.488   2.051   0.276  3.5209 -0.9580 -0.7842
   59MOL0     H 7780   2.278   2.007   0.118  1.1801  0.3441 -0.2014
   59MOL0     H 7781   2.254   2.078   0.270 -0.1351 -0.8530  0.0558
   59MOL0     H 7782   2.284   2.305   0.149 -2.5506  0.2277  0.5534
   59MOL0     H 7783   2.140   2.213   0.109  0.6367 -1.2843  1.1945
   59MOL0     H 7784   2.326   2.134  -0.086  0.4797 -0.2593 -0.5361
   59MOL0     H 7785   2.184   2.245  -0.105  0.6130 -0.1792  0.4092
   59MOL0     H 7786   2.520   2.500  -0.101  1.4321 -0.0835 -0.7971
   59MOL0     H 7787   2.695   2.025   0.274  0.9603 -1.3636  0.3149
   59MOL0     H 7788   2.892   1.872   0.283 -0.8893 -2.6795 -0.3149
   60MOL0     O 7789  10.579   9.056  10.620  0.0730  0.6193 -0.0315
   60MOL0     C 7790  10.638   9.043  10.520  0.1483 -0.1707  0.6237
   60MOL0     O 7791  10.581   9.028  10.399 -0.3350  0.3004  0.7560
   60MOL0     C 7792  10.443   9.008  10.386 -0.2570 -0.1219 -0.6561
   60MOL0     C 7793  10.377   9.057  10.270 -0.3379 -0.8599 -0.3013
   60MOL0     C 7794  10.245   9.058  10.251  0.9545  0.4697  0.5810
   60MOL0     C 7795  10.150   8.990  10.337 -0.3187  0.4602  0.7833
   60MOL0     O 7796  10.014   8.983  10.337 -0.3432 -0.1688 -0.4279
   60MOL0     C 7797   9.948   9.057  10.231 -0.3577 -0.2552  0.0994
   60MOL0     C 7798   9.797   9.056  10.229  0.4073 -0.2409 -1.0809
   60MOL0     C 7799   9.753   8.911  10.204  0.5863 -0.3867  0.4644
   60MOL0     C 7800   9.601   8.910  10.203  0.3303 -0.3089  0.9008
   60MOL0     C 7801   9.525   8.774  10.190 -0.1077  0.2565  0.4936
   60MOL0     C 7802   9.569   8.667  10.296  0.3453  0.6098 -0.1074
   60MOL0     C 7803   9.485   8.680  10.427 -0.0505 -0.4528 -0.7880
   60MOL0     C 7804   9.535   8.602  10.543 -1.1578  0.3314 -0.9522
   60MOL0     N 7805   9.604   8.689  10.643 -0.1807 -0.3901  0.3324
   60MOL0     C 7806   9.739   8.706  10.659 -0.2632 -0.1135  1.2591
   60MOL0     C 7807   9.755   8.764  10.776  0.2053  0.3871 -0.1087
   60MOL0     C 7808   9.878   8.815  10.845  0.5329 -0.9274  0.7907
   60MOL0     C 7809   9.896   8.970  10.813  0.2074  0.8762  0.0987
   60MOL0     C 7810  10.038   9.020  10.857 -0.0816 -0.2100  0.6974
   60MOL0     C 7811  10.158   8.941  10.810 -0.1999  0.0733  0.3378
   60MOL0     O 7812  10.191   8.845  10.923 -0.2262  0.0888  0.8763
   60MOL0     C 7813  10.321   8.800  10.937 -0.1110  0.1266 -1.0457
   60MOL0     C 7814  10.364   8.718  11.050 -0.2481 -0.8825 -0.0642
   60MOL0     C 7815  10.499   8.683  11.065  0.2248  0.2960  0.5577
   60MOL0     C 7816  10.597   8.725  10.968 -0.2705 -0.1267  0.8219
   60MOL0     C 7817  10.736   8.689  10.985  0.3693 -0.7481  0.5463
   60MOL0     O 7818  10.825   8.777  10.936 -0.4005 -1.1779  0.2928
   60MOL0     C 7819  10.953   8.747  10.929 -0.3695  0.1997  0.6891
   60MOL0     C 7820  11.024   8.735  10.804  0.2640  1.2886  0.0947
   60MOL0     C 7821  11.163   8.727  10.814  0.1638 -0.5376  0.4339
   60MOL0     C 7822  11.229   8.704  10.935  0.8531  0.8366  0.0556
   60MOL0     O 7823  11.364   8.684  10.926 -0.1282 -0.1153  0.5032
   60MOL0     C 7824  11.438   8.742  11.036  0.6524 -0.1142  0.2389
   60MOL0     C 7825  11.582   8.768  11.030  0.7157 -0.5060  0.0418
   60MOL0     C 7826  11.678   8.650  11.032 -0.5255  0.3524 -0.7570
   60MOL0     C 7827  11.823   8.704  11.062 -0.6167  0.7045  0.3241
   60MOL0     C 7828  11.926   8.597  11.020  0.0551 -0.0072  0.2032
   60MOL0     C 7829  11.954   8.496  11.132  0.6199 -0.4779  0.6205
   60MOL0     C 7830  12.049   8.387  11.076  0.0498  0.2354  0.0128
   60MOL0     C 7831  12.046   8.255  11.140 -0.0823 -0.2908 -0.4188
   60MOL0    Cl 7832  12.051   8.276  11.316  0.0556 -0.2102  0.0955
   60MOL0     C 7833  11.151   8.696  11.046 -0.2728 -0.2053 -0.4172
   60MOL0     C 7834  11.018   8.725  11.048 -0.3698 -0.0991 -0.1896
   60MOL0     O 7835  10.758   8.582  11.033 -0.4573  0.3742 -0.2094
   60MOL0     C 7836  10.560   8.828  10.879  0.0529  1.1343 -0.2683
   60MOL0     C 7837  10.428   8.851  10.862 -0.5563  0.0078  1.1575
   60MOL0     N 7838   9.632   8.777  10.830 -0.0558  0.6083 -0.7443
   60MOL0     N 7839   9.544   8.730  10.757 -0.6457 -0.5773  1.7862
   60MOL0     C 7840  10.211   8.939  10.456  0.0286  0.2721 -0.3015
   60MOL0     C 7841  10.352   8.945  10.481 -0.3168  0.4496 -0.5255
   60MOL0     C 7842  10.789   9.033  10.523  0.1910  0.3734 -0.5772
   60MOL0     C 7843  10.855   9.065  10.644  0.3895  0.6106 -1.7416
   60MOL0     C 7844  10.988   9.035  10.660  0.2473 -0.3165  0.2557
   60MOL0     C 7845  11.063   8.983  10.552 -0.0866  0.4062  0.2108
   60MOL0     O 7846  11.186   8.926  10.571 -0.0642 -0.5378 -0.3450
   60MOL0     C 7847  11.275   8.994  10.668  0.1421  0.1857  0.6855
   60MOL0     C 7848  11.415   8.949  10.649 -0.6154  0.8106 -0.5651
   60MOL0     C 7849  11.472   8.975  10.509 -0.2501 -0.2504 -0.6179
   60MOL0     C 7850  11.610   8.916  10.509 -0.2971  0.2815  1.0340
   60MOL0     C 7851  11.707   8.977  10.411 -0.1186 -0.1903  0.0237
   60MOL0     C 7852  11.782   9.043  10.345 -0.5594 -0.0523  0.2809
   60MOL0     C 7853  10.992   8.949  10.427 -0.0990 -0.2928 -1.3310
   60MOL0     C 7854  10.857   8.981  10.415 -0.5273 -0.5017  0.7286
   60MOL0     H 7855  10.438   9.106  10.196 -0.8373  0.8152  0.3540
   60MOL0     H 7856  10.216   9.104  10.157  0.5517 -0.4730  0.2340
   60MOL0     H 7857   9.980   9.012  10.136 -1.3630  1.6371 -1.2064
   60MOL0     H 7858   9.983   9.161  10.235 -1.0354 -0.0357  0.5196
   60MOL0     H 7859   9.762   9.124  10.151  0.9035  0.8009 -0.4228
   60MOL0     H 7860   9.769   9.092  10.328  0.0149 -0.1785 -1.2141
   60MOL0     H 7861   9.800   8.858  10.287  2.3913  2.7446  1.6331
   60MOL0     H 7862   9.791   8.865  10.113  0.2643  0.8986 -0.3481
   60MOL0     H 7863   9.558   8.962  10.289 -3.3292 -1.7973  0.1498
   60MOL0     H 7864   9.555   8.966  10.121 -1.8830 -1.3392  1.3618
   60MOL0     H 7865   9.550   8.737  10.091 -0.8037  4.8645 -1.6729
   60MOL0     H 7866   9.417   8.792  10.200  0.2183  1.9651  1.2674
   60MOL0     H 7867   9.675   8.670  10.324  0.8606  1.0303 -1.9477
   60MOL0     H 7868   9.555   8.564  10.261  3.8141  0.1590 -0.5210
   60MOL0     H 7869   9.477   8.786  10.449 -2.1573 -0.6304 -0.5370
   60MOL0     H 7870   9.384   8.641  10.413  0.0411 -0.8133 -0.4494
   60MOL0     H 7871   9.604   8.527  10.502  0.6029  1.2907  0.1370
   60MOL0     H 7872   9.449   8.544  10.579 -0.3607 -0.6123 -0.5331
   60MOL0     H 7873   9.808   8.695  10.576 -3.6266  0.9875 -1.9161
   60MOL0     H 7874   9.963   8.751  10.817 -0.6248 -1.8579 -0.7638
   60MOL0     H 7875   9.869   8.805  10.953  0.4429  3.0573  1.3007
   60MOL0     H 7876   9.823   9.023  10.876  2.5012  0.4961  3.3103
   60MOL0     H 7877   9.883   8.979  10.705 -2.6176 -1.2241  0.1608
   60MOL0     H 7878  10.050   9.128  10.845 -1.3131 -0.0116  1.0805
   60MOL0     H 7879  10.042   9.016  10.967  0.0854  1.3971  0.7724
   60MOL0     H 7880  10.233   9.014  10.780 -1.0717 -0.4282 -3.5945
   60MOL0     H 7881  10.141   8.871  10.727 -2.7517 -0.1368  0.9592
   60MOL0     H 7882  10.277   8.708  11.113 -1.3345  3.0148 -0.6977
   60MOL0     H 7883  10.535   8.629  11.152  3.0221  2.7658  1.0676
   60MOL0     H 7884  10.970   8.761  10.714 -0.0458  1.5659  0.3526
   60MOL0     H 7885  11.217   8.736  10.720 -0.8888  2.3123  0.0081
   60MOL0     H 7886  11.430   8.686  11.130 -0.4989 -3.0855 -1.5242
   60MOL0     H 7887  11.396   8.841  11.055  2.2642  0.5137  0.7693
   60MOL0     H 7888  11.612   8.829  11.116  2.3261 -0.0902 -0.7901
   60MOL0     H 7889  11.613   8.824  10.941  3.8815 -0.8035  0.8315
   60MOL0     H 7890  11.661   8.600  10.937 -2.9584 -0.5429  0.0614
   60MOL0     H 7891  11.649   8.577  11.109  1.3519 -0.2993 -0.6356
   60MOL0     H 7892  11.847   8.787  10.994 -1.8485  2.1114  1.5285
   60MOL0     H 7893  11.832   8.752  11.161  0.5565 -0.4642  0.8151
   60MOL0     H 7894  12.023   8.645  11.007  2.0162 -3.7683 -0.3797
   60MOL0     H 7895  11.888   8.547  10.930 -0.4162 -1.2238  1.0541
   60MOL0     H 7896  11.857   8.450  11.151  0.3154 -0.6948 -1.3280
   60MOL0     H 7897  11.988   8.553  11.220  0.6827  1.8729 -0.8419
   60MOL0     H 7898  12.021   8.366  10.973  0.1043 -0.2495  0.0941
   60MOL0     H 7899  12.151   8.427  11.081  0.5497 -0.5120 -2.6597
   60MOL0     H 7900  12.138   8.200  11.117  1.8756  2.2272  0.8819
   60MOL0     H 7901  11.958   8.195  11.117 -1.0213  0.4171  1.2044
   60MOL0     H 7902  11.188   8.666  11.143 -0.8700 -2.9491 -0.9610
   60MOL0     H 7903  10.961   8.721  11.141  4.1839  1.8292  3.0333
   60MOL0     H 7904  10.633   8.875  10.813  2.8972 -0.3389  1.6127
   60MOL0     H 7905  10.425   8.929  10.787 -0.7308 -1.5836 -0.5487
   60MOL0     H 7906  10.146   8.903  10.536  1.0601  1.2318  1.0224
   60MOL0     H 7907  10.391   8.917  10.578  1.6203  2.5460 -0.5861
   60MOL0     H 7908  10.810   9.112  10.731  0.4997 -3.0365  0.4857
   60MOL0     H 7909  11.036   9.049  10.756 -0.4342  2.0266  0.3247
   60MOL0     H 7910  11.236   8.977  10.769 -3.3937  1.6310 -0.2879
   60MOL0     H 7911  11.277   9.102  10.652 -1.2104  0.1043 -0.1914
   60MOL0     H 7912  11.470   8.971  10.740 -1.6430 -0.6679  0.4584
   60MOL0     H 7913  11.425   8.841  10.659  0.2853  0.8580 -0.8699
   60MOL0     H 7914  11.485   9.083  10.498  1.1700 -0.4475 -1.0225
   60MOL0     H 7915  11.414   8.938  10.424  0.1136 -0.1231 -0.9209
   60MOL0     H 7916  11.648   8.934  10.610 -2.1418  0.8072  1.6660
   60MOL0     H 7917  11.611   8.807  10.504 -0.5426  0.1966  2.4265
   60MOL0     H 7918  11.851   9.095  10.282 -2.0738  0.2670 -1.1735
   60MOL0     H 7919  11.035   8.914  10.333 -0.6004  0.4501 -1.8423
   60MOL0     H 7920  10.799   8.963  10.324  1.2172 -0.2467 -0.4845
   61MOL0     O 7921   0.783   8.732   6.909  0.1471 -0.7961 -0.1991
   61MOL0     C 7922   0.699   8.732   6.818 -0.1212 -1.2403  0.4433
   61MOL0     O 7923   0.577   8.813   6.813  0.5527 -0.5636  0.6218
   61MOL0     C 7924   0.559   8.916   6.897 -0.5264  0.9672 -1.1527
   61MOL0     C 7925   0.572   8.908   7.033 -0.1214  0.0164  0.1837
   61MOL0     C 7926   0.549   9.021   7.108 -1.3337 -0.4305  0.2089
   61MOL0     C 7927   0.489   9.139   7.055  0.1709  0.8299  0.8741
   61MOL0     O 7928   0.436   9.247   7.119 -0.3180 -1.0799  0.4410
   61MOL0     C 7929   0.470   9.262   7.260  0.2975  0.2858 -0.5404
   61MOL0     C 7930   0.383   9.379   7.314  0.1150  0.3813 -0.2386
   61MOL0     C 7931   0.412   9.409   7.462  0.2562 -0.5314  0.5676
   61MOL0     C 7932   0.320   9.514   7.515  0.4952  0.2910 -0.9406
   61MOL0     C 7933   0.212   9.447   7.611  0.1448 -0.4894  0.4475
   61MOL0     C 7934   0.259   9.382   7.739 -0.2658 -0.1323  0.6149
   61MOL0     C 7935   0.368   9.454   7.823 -0.4228  0.1936 -0.3801
   61MOL0     C 7936   0.403   9.386   7.959 -0.1967  0.5294 -0.3065
   61MOL0     N 7937   0.296   9.396   8.062 -0.8048 -0.5113 -0.4913
   61MOL0     C 7938   0.325   9.427   8.195  0.3144  0.3013  0.7667
   61MOL0     C 7939   0.229   9.374   8.268 -0.0439  0.8478  0.1934
   61MOL0     C 7940   0.222   9.401   8.418  0.9738  0.6741  1.0776
   61MOL0     C 7941   0.126   9.300   8.486  0.1393 -0.2000  0.0202
   61MOL0     C 7942   0.184   9.160   8.499 -0.1443 -0.2803  0.9326
   61MOL0     C 7943   0.118   9.079   8.608 -0.2495  0.6018 -0.2755
   61MOL0     O 7944   0.041   8.972   8.553 -0.0965  0.8702  0.4818
   61MOL0     C 7945  -0.064   9.016   8.472  0.0709  0.6946 -0.2041
   61MOL0     C 7946  -0.183   9.060   8.527  0.5105 -0.5595  1.8589
   61MOL0     C 7947  -0.292   9.112   8.447  0.0853  1.3779 -0.3971
   61MOL0     C 7948  -0.283   9.112   8.317 -0.5010  0.0445  0.0286
   61MOL0     C 7949  -0.397   9.139   8.232 -0.6277 -0.2411 -1.0451
   61MOL0     O 7950  -0.378   9.113   8.101  0.5369  0.7295  0.4028
   61MOL0     C 7951  -0.474   9.128   8.004  0.5022  0.1430 -0.1126
   61MOL0     C 7952  -0.473   9.029   7.906  0.2606  0.5325 -0.0076
   61MOL0     C 7953  -0.558   9.036   7.797  0.3197  0.7589 -0.1431
   61MOL0     C 7954  -0.656   9.132   7.793  0.3326  0.2325  0.5028
   61MOL0     O 7955  -0.763   9.140   7.708  0.4844  0.5428  0.1407
   61MOL0     C 7956  -0.791   9.039   7.609 -0.4943 -0.2728  0.2281
   61MOL0     C 7957  -0.863   9.094   7.486  0.0139  1.1884 -0.5278
   61MOL0     C 7958  -1.013   9.068   7.499  0.8978  0.3416  0.1045
   61MOL0     C 7959  -1.091   9.173   7.581 -0.3932 -0.5716  0.0318
   61MOL0     C 7960  -1.239   9.143   7.594  0.4547  0.4821  0.6670
   61MOL0     C 7961  -1.266   9.053   7.715 -0.9622 -0.1153  0.4853
   61MOL0     C 7962  -1.413   9.060   7.741  0.2839 -0.7260  0.2513
   61MOL0     C 7963  -1.469   8.965   7.844 -0.0507 -0.4288 -0.3550
   61MOL0    Cl 7964  -1.652   8.984   7.853 -0.0431  0.0186  0.1272
   61MOL0     C 7965  -0.658   9.235   7.889  0.1400 -0.5197 -0.6052
   61MOL0     C 7966  -0.565   9.231   7.990 -0.8073  0.5860 -0.3020
   61MOL0     O 7967  -0.508   9.137   8.286  0.2221 -0.3040  0.5955
   61MOL0     C 7968  -0.163   9.066   8.266  0.1372 -0.1042  0.4102
   61MOL0     C 7969  -0.047   9.024   8.335  0.7783  0.0241  0.1455
   61MOL0     N 7970   0.130   9.325   8.182  0.3913  0.0321  0.1511
   61MOL0     N 7971   0.171   9.342   8.060 -0.0880  0.2342  0.8398
   61MOL0     C 7972   0.459   9.141   6.918 -0.0391  0.2463 -0.1210
   61MOL0     C 7973   0.501   9.030   6.837 -0.4982 -0.0731  0.0314
   61MOL0     C 7974   0.721   8.632   6.715 -0.1285 -0.0065  1.8419
   61MOL0     C 7975   0.605   8.581   6.662 -0.6260 -0.1284  0.6941
   61MOL0     C 7976   0.614   8.482   6.559 -0.3755 -0.0867  0.0625
   61MOL0     C 7977   0.737   8.421   6.527 -1.3561  1.4889  0.0744
   61MOL0     O 7978   0.772   8.316   6.452 -0.0315 -0.0111  0.7941
   61MOL0     C 7979   0.658   8.225   6.415 -0.7634 -0.5689 -0.3181
   61MOL0     C 7980   0.703   8.080   6.400 -0.4268 -0.4141 -0.5179
   61MOL0     C 7981   0.581   8.004   6.325  0.2993  0.5291  0.1815
   61MOL0     C 7982   0.451   7.983   6.405 -0.7526 -0.2654 -0.4076
   61MOL0     C 7983   0.345   7.956   6.313 -0.1212 -0.7616  0.7277
   61MOL0     C 7984   0.264   7.936   6.230  0.7965  0.5866 -0.1056
   61MOL0     C 7985   0.851   8.473   6.588 -0.2021 -0.4674  0.1517
   61MOL0     C 7986   0.848   8.581   6.676  0.5175 -0.1735  0.4312
   61MOL0     H 7987   0.612   8.825   7.091 -3.1189  0.7323  3.6048
   61MOL0     H 7988   0.573   9.003   7.212  0.5068  1.0588  0.1092
   61MOL0     H 7989   0.574   9.291   7.278  0.3037 -0.2332  0.3383
   61MOL0     H 7990   0.441   9.175   7.319  2.3558 -0.8639 -1.1517
   61MOL0     H 7991   0.282   9.337   7.317 -0.2683  1.3329  0.6855
   61MOL0     H 7992   0.396   9.464   7.246 -0.5992  0.9642  0.3452
   61MOL0     H 7993   0.517   9.439   7.465  0.3836 -0.2965 -2.4355
   61MOL0     H 7994   0.402   9.313   7.513 -1.3272 -1.0944 -0.6768
   61MOL0     H 7995   0.380   9.583   7.576 -2.4832  0.8875  1.5314
   61MOL0     H 7996   0.264   9.568   7.438  0.4089 -2.8233 -3.2422
   61MOL0     H 7997   0.150   9.369   7.566 -0.6834 -0.0232  0.7815
   61MOL0     H 7998   0.149   9.530   7.642  0.2756  0.4340 -1.5720
   61MOL0     H 7999   0.299   9.284   7.710 -0.6757  0.7517 -3.5019
   61MOL0     H 8000   0.168   9.379   7.799  0.9087  2.7671  2.7318
   61MOL0     H 8001   0.465   9.455   7.773  0.0514  0.6843  0.5254
   61MOL0     H 8002   0.331   9.556   7.840  0.5163  0.5382 -0.3096
   61MOL0     H 8003   0.503   9.423   7.985  1.0139 -1.0773 -2.3986
   61MOL0     H 8004   0.424   9.280   7.941  0.0033  0.6252 -0.6431
   61MOL0     H 8005   0.414   9.482   8.225  1.6375 -1.7217  0.8055
   61MOL0     H 8006   0.179   9.501   8.430 -1.5315 -0.3615  1.4320
   61MOL0     H 8007   0.319   9.401   8.469 -0.3070 -1.8349  3.8633
   61MOL0     H 8008   0.038   9.285   8.423 -0.4757  0.2950  0.7461
   61MOL0     H 8009   0.092   9.350   8.577  2.6081  3.3601 -0.8229
   61MOL0     H 8010   0.179   9.120   8.398 -0.1931  1.5197  0.1948
   61MOL0     H 8011   0.287   9.162   8.537 -0.2744  0.9507  1.2718
   61MOL0     H 8012   0.057   9.135   8.678 -4.0950 -0.6068 -2.3921
   61MOL0     H 8013   0.194   9.031   8.670  0.8125  0.1467 -1.8398
   61MOL0     H 8014  -0.186   9.081   8.634 -1.6513  0.0961  1.7192
   61MOL0     H 8015  -0.385   9.148   8.489  0.0065  0.1595  0.5102
   61MOL0     H 8016  -0.403   8.949   7.927  0.8484  0.7593 -1.0343
   61MOL0     H 8017  -0.542   8.964   7.717  0.9186  0.2301  0.4447
   61MOL0     H 8018  -0.840   8.953   7.656  0.1824  0.7963  3.0884
   61MOL0     H 8019  -0.699   8.999   7.567  0.5764  1.8090  0.4713
   61MOL0     H 8020  -0.833   9.046   7.392 -1.2295 -0.0750 -0.3172
   61MOL0     H 8021  -0.835   9.199   7.478  1.0997  0.8497 -1.3781
   61MOL0     H 8022  -1.030   8.964   7.531  0.5582  0.1966 -0.5389
   61MOL0     H 8023  -1.058   9.066   7.400  3.5564  0.9054 -1.1902
   61MOL0     H 8024  -1.043   9.199   7.676  1.9681 -2.7360 -0.4922
   61MOL0     H 8025  -1.095   9.269   7.528 -1.8747 -1.0816 -0.8487
   61MOL0     H 8026  -1.274   9.103   7.498  0.3101  0.1237  0.8670
   61MOL0     H 8027  -1.289   9.237   7.617 -0.4212 -0.2441  1.8434
   61MOL0     H 8028  -1.209   9.103   7.794 -1.1939  3.1115 -1.1940
   61MOL0     H 8029  -1.228   8.955   7.687  2.8433  1.5092 -0.7550
   61MOL0     H 8030  -1.427   9.160   7.784  1.3343 -0.3852 -0.1586
   61MOL0     H 8031  -1.470   9.038   7.651 -0.7843  1.8662  0.2124
   61MOL0     H 8032  -1.424   8.973   7.943 -1.1700 -1.4578  0.2565
   61MOL0     H 8033  -1.442   8.862   7.818 -1.9084 -1.3511  1.0983
   61MOL0     H 8034  -0.717   9.325   7.877  2.0655  0.8193 -0.4433
   61MOL0     H 8035  -0.548   9.314   8.057  1.9191  0.7330 -1.0754
   61MOL0     H 8036  -0.155   9.065   8.158  0.9140  1.1773  0.4303
   61MOL0     H 8037   0.042   8.985   8.287  0.8668 -1.1969  1.2756
   61MOL0     H 8038   0.420   9.233   6.876  0.8615  0.2442 -1.0226
   61MOL0     H 8039   0.485   9.038   6.730  0.7489 -1.6430 -0.3222
   61MOL0     H 8040   0.514   8.626   6.699  0.2632 -0.1764  3.1797
   61MOL0     H 8041   0.524   8.444   6.510  1.5466 -2.2090 -2.0901
   61MOL0     H 8042   0.617   8.255   6.318  1.7865  0.2911 -1.1999
   61MOL0     H 8043   0.588   8.224   6.499 -2.7134 -3.0022 -1.7881
   61MOL0     H 8044   0.793   8.082   6.337 -0.4564  0.9726 -0.5498
   61MOL0     H 8045   0.717   8.037   6.500 -1.6055 -1.3501 -0.7258
   61MOL0     H 8046   0.619   7.904   6.302  0.8954  1.0087 -0.9911
   61MOL0     H 8047   0.557   8.050   6.229  2.3565  0.3241 -0.4686
   61MOL0     H 8048   0.455   7.918   6.492 -3.1603 -2.4735 -1.8193
   61MOL0     H 8049   0.425   8.082   6.445 -1.4889 -0.6551  0.0986
   61MOL0     H 8050   0.182   7.914   6.165  0.9376 -1.3434  0.3355
   61MOL0     H 8051   0.950   8.430   6.579 -0.3704 -0.6701 -0.8820
   61MOL0     H 8052   0.942   8.614   6.719  0.9081 -1.0228  0.2455
   62MOL0     O 8053   4.929   3.552   4.355  0.2130 -0.5289  0.0869
   62MOL0     C 8054   4.988   3.445   4.344 -0.4980  1.1392  0.8811
   62MOL0     O 8055   4.934   3.329   4.290  0.2518 -0.3078 -0.2095
   62MOL0     C 8056   4.806   3.338   4.255  0.9387  0.8287 -0.4844
   62MOL0     C 8057   4.704   3.344   4.349  0.0303  0.1551 -0.8458
   62MOL0     C 8058   4.574   3.372   4.313 -0.0585 -0.1963 -0.9162
   62MOL0     C 8059   4.535   3.376   4.181  0.7189  0.3178 -0.6685
   62MOL0     O 8060   4.407   3.399   4.149 -0.2706  0.2969  0.0865
   62MOL0     C 8061   4.359   3.416   4.020 -0.6063  0.0570  0.3033
   62MOL0     C 8062   4.206   3.413   4.046  0.4810  0.2893 -0.0576
   62MOL0     C 8063   4.125   3.401   3.916  0.2362  0.5391  0.1601
   62MOL0     C 8064   3.975   3.402   3.959 -0.1390 -0.0229  0.0501
   62MOL0     C 8065   3.891   3.399   3.835  0.4388  0.2016 -0.1555
   62MOL0     C 8066   3.746   3.444   3.872  0.2636 -0.5977  0.0261
   62MOL0     C 8067   3.660   3.432   3.750 -0.3322 -0.7200  1.0289
   62MOL0     C 8068   3.697   3.538   3.644  0.0585  0.4000 -0.0514
   62MOL0     N 8069   3.596   3.526   3.535  1.0234  0.1810 -0.3997
   62MOL0     C 8070   3.592   3.439   3.430 -1.0220  0.7538  0.4318
   62MOL0     C 8071   3.484   3.467   3.355  0.0931 -0.3248  0.6016
   62MOL0     C 8072   3.433   3.385   3.240 -0.0741  0.1418  0.0266
   62MOL0     C 8073   3.486   3.459   3.108  0.6383 -0.3585  0.5790
   62MOL0     C 8074   3.407   3.595   3.075 -0.0921  0.2718  0.9591
   62MOL0     C 8075   3.257   3.588   3.069  1.3813 -0.3982  0.5135
   62MOL0     O 8076   3.215   3.474   2.987  0.0297  0.0751  0.8578
   62MOL0     C 8077   3.098   3.491   2.910  0.9662 -0.2276 -0.1079
   62MOL0     C 8078   3.069   3.408   2.815 -0.6493  0.1417  0.3427
   62MOL0     C 8079   2.944   3.393   2.755  0.4100  0.0600 -0.4488
   62MOL0     C 8080   2.839   3.465   2.808  0.3404  1.1483  0.2699
   62MOL0     C 8081   2.698   3.455   2.747 -0.3552  0.0880  0.2987
   62MOL0     O 8082   2.691   3.371   2.641 -0.1057 -0.4684 -0.6780
   62MOL0     C 8083   2.578   3.317   2.575 -0.0026  0.4810 -0.8581
   62MOL0     C 8084   2.603   3.229   2.474  1.3376  1.0985 -0.1608
   62MOL0     C 8085   2.499   3.168   2.401  0.6821  0.7094 -0.0639
   62MOL0     C 8086   2.364   3.209   2.415 -0.4732  0.5879 -0.0338
   62MOL0     O 8087   2.266   3.144   2.339 -0.0071  0.3245 -0.5212
   62MOL0     C 8088   2.130   3.189   2.349 -0.3499 -0.1912 -0.5183
   62MOL0     C 8089   2.046   3.115   2.247  0.3420  0.6993  0.7121
   62MOL0     C 8090   2.006   2.966   2.272  0.3834  0.7432 -0.3197
   62MOL0     C 8091   1.899   2.931   2.168  0.1893  0.2062 -0.9470
   62MOL0     C 8092   1.893   2.777   2.157  0.1177  0.3024 -0.5452
   62MOL0     C 8093   2.003   2.715   2.061  0.0169 -0.1308  0.5934
   62MOL0     C 8094   1.956   2.731   1.906  0.3320 -0.5185 -0.8183
   62MOL0     C 8095   2.056   2.699   1.799 -0.1777  0.0795 -0.1748
   62MOL0    Cl 8096   2.181   2.825   1.807 -0.3243  0.3232 -0.2618
   62MOL0     C 8097   2.337   3.299   2.521  0.4517 -0.2582  0.4626
   62MOL0     C 8098   2.442   3.354   2.597 -0.2411  0.3087 -1.0747
   62MOL0     O 8099   2.606   3.514   2.801 -0.7310  1.0190 -0.2579
   62MOL0     C 8100   2.870   3.570   2.887 -0.1425 -0.2007 -0.5497
   62MOL0     C 8101   2.996   3.579   2.953  0.6546  0.1692 -0.0434
   62MOL0     N 8102   3.421   3.571   3.426  0.3001 -0.5725  0.5172
   62MOL0     N 8103   3.497   3.618   3.524  0.6398 -0.5292  0.0524
   62MOL0     C 8104   4.630   3.365   4.090 -0.1247 -0.0725 -0.4553
   62MOL0     C 8105   4.769   3.363   4.129 -0.1591  0.1602  0.4857
   62MOL0     C 8106   5.131   3.442   4.403 -0.7371  0.6306  0.5630
   62MOL0     C 8107   5.228   3.350   4.353 -0.6305  0.3263  0.1811
   62MOL0     C 8108   5.363   3.361   4.403  0.4261  0.2627  0.1082
   62MOL0     C 8109   5.394   3.453   4.508 -0.5601  0.1291  0.2083
   62MOL0     O 8110   5.525   3.470   4.552  0.1639 -0.1550 -0.0831
   62MOL0     C 8111   5.647   3.405   4.497  0.3050 -0.9063 -0.6560
   62MOL0     C 8112   5.761   3.467   4.572  0.2208 -0.9403 -0.5524
   62MOL0     C 8113   5.754   3.481   4.720  0.3001 -0.2003 -0.5043
   62MOL0     C 8114   5.886   3.533   4.784 -0.1937  1.0352  0.0755
   62MOL0     C 8115   5.993   3.423   4.782  0.2830  0.1761  0.5708
   62MOL0     C 8116   6.089   3.349   4.767 -0.6725  0.1833 -0.0865
   62MOL0     C 8117   5.295   3.528   4.551 -0.4923  0.0847  0.3323
   62MOL0     C 8118   5.175   3.532   4.501  0.2237 -0.3546 -0.3040
   62MOL0     H 8119   4.723   3.320   4.453 -2.0549  2.1204  0.0556
   62MOL0     H 8120   4.502   3.393   4.391  1.4520  2.9385 -0.2040
   62MOL0     H 8121   4.393   3.332   3.958 -3.2749 -0.6010 -0.3958
   62MOL0     H 8122   4.385   3.511   3.973 -1.0681 -0.5683 -1.2951
   62MOL0     H 8123   4.190   3.515   4.080 -1.3546  0.9252 -2.4892
   62MOL0     H 8124   4.171   3.345   4.124  0.9535  1.8337  1.5548
   62MOL0     H 8125   4.135   3.314   3.851 -0.3938  2.8481 -3.2843
   62MOL0     H 8126   4.153   3.487   3.854 -1.9289  0.7723 -0.5529
   62MOL0     H 8127   3.950   3.318   4.024  0.3286 -1.4441 -1.5619
   62MOL0     H 8128   3.961   3.499   4.009  0.7837  0.5650 -0.7924
   62MOL0     H 8129   3.890   3.298   3.795 -0.0214 -0.4694  1.4669
   62MOL0     H 8130   3.940   3.450   3.751  0.1395  2.0008  0.7029
   62MOL0     H 8131   3.744   3.546   3.909 -1.2380 -0.4577 -0.3870
   62MOL0     H 8132   3.714   3.391   3.962  0.1491 -1.0133 -0.2544
   62MOL0     H 8133   3.679   3.329   3.719  1.0198 -0.5504  1.2290
   62MOL0     H 8134   3.551   3.431   3.759 -0.2484 -1.2885  2.1964
   62MOL0     H 8135   3.797   3.525   3.602  1.7748  4.4016  2.2404
   62MOL0     H 8136   3.692   3.638   3.686 -0.0689 -0.6098  2.4914
   62MOL0     H 8137   3.664   3.359   3.419 -0.5129  1.2532  0.0867
   62MOL0     H 8138   3.325   3.387   3.255 -0.1304 -1.2129 -0.1087
   62MOL0     H 8139   3.471   3.283   3.240  0.6467  0.2901 -3.1065
   62MOL0     H 8140   3.458   3.395   3.024 -0.1284  1.7407 -0.8380
   62MOL0     H 8141   3.594   3.475   3.102  1.2702 -3.4322  2.0384
   62MOL0     H 8142   3.423   3.675   3.148 -1.8935  0.0896  1.5967
   62MOL0     H 8143   3.453   3.617   2.978  1.6129 -0.9038  1.4563
   62MOL0     H 8144   3.217   3.683   3.031  2.4366  0.2058  0.8672
   62MOL0     H 8145   3.217   3.580   3.170 -2.0787 -1.1396 -0.7637
   62MOL0     H 8146   3.144   3.339   2.777  0.9600  1.7023  0.5599
   62MOL0     H 8147   2.935   3.332   2.665  2.6459  0.4961 -1.0294
   62MOL0     H 8148   2.706   3.204   2.453  1.0159 -0.5687  0.1241
   62MOL0     H 8149   2.515   3.103   2.316  0.0087  2.2120 -1.3820
   62MOL0     H 8150   2.138   3.295   2.326  2.1994 -0.4043 -0.9628
   62MOL0     H 8151   2.090   3.174   2.450 -0.2792  1.0784 -0.2933
   62MOL0     H 8152   2.106   3.120   2.155  0.1829  0.8922  0.6172
   62MOL0     H 8153   1.952   3.169   2.238 -0.0762 -0.2033 -0.7014
   62MOL0     H 8154   1.957   2.964   2.369 -1.6042  3.4194 -1.1318
   62MOL0     H 8155   2.093   2.900   2.264  1.4032  2.0287 -0.2228
   62MOL0     H 8156   1.798   2.964   2.190  1.2336  2.8233  0.3648
   62MOL0     H 8157   1.925   2.969   2.069 -0.8887  0.8699 -0.9858
   62MOL0     H 8158   1.793   2.756   2.119  0.2601  0.3299 -0.9329
   62MOL0     H 8159   1.910   2.730   2.254  0.2700  2.6541  0.6516
   62MOL0     H 8160   2.008   2.608   2.084 -2.0268 -1.1153 -2.8273
   62MOL0     H 8161   2.105   2.747   2.087 -0.2685  1.3027  0.0438
   62MOL0     H 8162   1.870   2.665   1.890 -0.4254  0.1553  0.3568
   62MOL0     H 8163   1.930   2.837   1.903 -0.5701 -0.6934  0.1638
   62MOL0     H 8164   1.991   2.678   1.714 -3.9860 -2.3948  2.9430
   62MOL0     H 8165   2.102   2.600   1.812 -0.1459  0.0386 -0.5989
   62MOL0     H 8166   2.236   3.334   2.540  2.1290  6.8992 -0.6602
   62MOL0     H 8167   2.408   3.422   2.674 -1.0672  1.0056 -2.0264
   62MOL0     H 8168   2.794   3.636   2.928 -0.6325 -1.0449 -0.0715
   62MOL0     H 8169   2.999   3.664   3.021  1.8738 -0.0724  0.2347
   62MOL0     H 8170   4.623   3.370   3.981 -0.7759  0.2123 -0.4080
   62MOL0     H 8171   4.837   3.374   4.045 -3.1214  1.7062 -1.8903
   62MOL0     H 8172   5.198   3.275   4.280  4.2508 -1.8319  0.0205
   62MOL0     H 8173   5.440   3.292   4.372 -1.0296 -0.3992 -2.3792
   62MOL0     H 8174   5.671   3.418   4.391 -0.2553 -0.8702 -0.7800
   62MOL0     H 8175   5.638   3.298   4.516  1.4600 -0.8304  0.4378
   62MOL0     H 8176   5.848   3.407   4.544  0.1736 -1.0013 -0.5661
   62MOL0     H 8177   5.769   3.571   4.538 -1.0545  0.3342  2.6612
   62MOL0     H 8178   5.730   3.386   4.769 -0.4578  0.6129  0.7578
   62MOL0     H 8179   5.675   3.556   4.731  1.4609  2.0914 -5.0333
   62MOL0     H 8180   5.919   3.622   4.729 -1.9246  1.0393 -1.0337
   62MOL0     H 8181   5.861   3.561   4.886 -3.4650 -0.8709 -0.0560
   62MOL0     H 8182   6.184   3.305   4.742 -0.6640  0.2685 -0.2082
   62MOL0     H 8183   5.311   3.595   4.635 -0.4986 -0.2292  0.5870
   62MOL0     H 8184   5.098   3.596   4.542 -2.6601 -1.6889 -3.2377
   63MOL0     O 8185  10.210   2.880   7.434  0.2275 -0.0854 -0.0548
   63MOL0     C 8186  10.329   2.859   7.395  0.7016 -0.2735  0.2231
   63MOL0     O 8187  10.367   2.756   7.320  0.4272 -0.7112 -1.1137
   63MOL0     C 8188  10.278   2.660   7.273  0.9245  0.1781 -0.7493
   63MOL0     C 8189  10.347   2.563   7.196  0.4268 -0.7074 -0.0864
   63MOL0     C 8190  10.275   2.465   7.126  0.6042 -0.2740  0.5059
   63MOL0     C 8191  10.133   2.459   7.134  0.5276  0.4805  0.5748
   63MOL0     O 8192  10.062   2.368   7.058  0.5861  0.2044  0.1307
   63MOL0     C 8193   9.984   2.431   6.948  0.3499  0.2346 -0.3604
   63MOL0     C 8194   9.896   2.330   6.879  0.5100 -0.5251  1.0437
   63MOL0     C 8195   9.793   2.396   6.783  0.1325 -0.7450  1.0863
   63MOL0     C 8196   9.722   2.284   6.701 -0.1076 -0.3644  0.2182
   63MOL0     C 8197   9.579   2.308   6.656 -0.7944 -0.5613  0.7120
   63MOL0     C 8198   9.560   2.428   6.577  0.7839 -0.2377 -0.1544
   63MOL0     C 8199   9.420   2.431   6.512  0.3810 -0.1423 -0.2956
   63MOL0     C 8200   9.342   2.562   6.522  0.8416  0.1889 -0.2571
   63MOL0     N 8201   9.217   2.537   6.455  0.7608 -0.6441  0.2789
   63MOL0     C 8202   9.112   2.464   6.496  0.3250 -0.1858 -0.6132
   63MOL0     C 8203   9.008   2.507   6.415 -0.1268  0.4764  0.0798
   63MOL0     C 8204   8.871   2.459   6.449  0.5004 -0.3267  0.4453
   63MOL0     C 8205   8.758   2.492   6.338 -0.7008 -0.0629  0.6426
   63MOL0     C 8206   8.622   2.442   6.382  0.1771  0.0079  1.4876
   63MOL0     C 8207   8.503   2.468   6.288 -0.5195 -0.5687 -0.6341
   63MOL0     O 8208   8.474   2.606   6.276 -1.0809  0.8686  0.3524
   63MOL0     C 8209   8.381   2.643   6.187  0.6106  0.3483 -0.1792
   63MOL0     C 8210   8.380   2.775   6.161  1.0077  0.1195 -0.8033
   63MOL0     C 8211   8.291   2.827   6.072  0.0230 -0.0477  0.5598
   63MOL0     C 8212   8.197   2.746   6.013 -0.6104 -0.2084 -0.4085
   63MOL0     C 8213   8.101   2.812   5.924  0.5900  0.2702  0.8337
   63MOL0     O 8214   8.006   2.729   5.860 -0.2388  0.0391  0.4225
   63MOL0     C 8215   7.927   2.797   5.772  0.0776  0.6037  0.0512
   63MOL0     C 8216   7.799   2.838   5.811 -0.1712 -0.0130 -0.1002
   63MOL0     C 8217   7.714   2.897   5.711  0.4291 -0.3045  0.0301
   63MOL0     C 8218   7.760   2.921   5.576  0.2588  0.5034 -0.1334
   63MOL0     O 8219   7.683   3.004   5.509 -0.2692 -0.3045  0.4368
   63MOL0     C 8220   7.756   3.075   5.402  0.2949 -1.2354 -0.8421
   63MOL0     C 8221   7.677   3.197   5.354 -0.6493  0.5181  0.2708
   63MOL0     C 8222   7.644   3.301   5.462  0.0808 -0.2711  0.1324
   63MOL0     C 8223   7.765   3.352   5.528 -0.1942 -0.0395 -0.3454
   63MOL0     C 8224   7.792   3.306   5.665  0.3170  0.6294  0.0903
   63MOL0     C 8225   7.900   3.393   5.749 -0.2424 -0.8830 -0.0990
   63MOL0     C 8226   7.892   3.384   5.903  0.3451 -0.2804  0.0119
   63MOL0     C 8227   7.908   3.242   5.948  0.3060 -0.3495  1.0460
   63MOL0    Cl 8228   7.770   3.130   5.928 -0.5439 -0.3425  0.2950
   63MOL0     C 8229   7.884   2.860   5.538  0.3881 -0.7890 -0.0228
   63MOL0     C 8230   7.963   2.791   5.636  0.3637 -0.0445  0.0613
   63MOL0     O 8231   8.097   2.933   5.909  0.3310 -0.0153 -0.0071
   63MOL0     C 8232   8.203   2.611   6.034 -0.4544  0.9186  0.4593
   63MOL0     C 8233   8.294   2.560   6.115 -0.6010  0.3985  0.0758
   63MOL0     N 8234   9.049   2.612   6.337  0.1865  0.7318  0.0371
   63MOL0     N 8235   9.173   2.633   6.355 -0.1092 -0.1208 -0.2465
   63MOL0     C 8236  10.074   2.545   7.216  0.5429 -0.0681  0.4569
   63MOL0     C 8237  10.136   2.647   7.284  0.1872 -0.4368 -0.7248
   63MOL0     C 8238  10.432   2.955   7.427  0.6053  0.5456 -0.1314
   63MOL0     C 8239  10.568   2.925   7.409  0.8735  1.5110 -0.2684
   63MOL0     C 8240  10.662   3.022   7.458 -0.1748  0.7581  0.2423
   63MOL0     C 8241  10.625   3.152   7.494 -0.1228 -0.7103  0.2157
   63MOL0     O 8242  10.738   3.239   7.511 -0.3025 -1.0653 -0.2810
   63MOL0     C 8243  10.712   3.373   7.557  0.2650  0.7768  0.3967
   63MOL0     C 8244  10.839   3.462   7.589  0.8006 -0.2178 -0.4420
   63MOL0     C 8245  10.913   3.477   7.450 -0.1460 -0.7192  0.5827
   63MOL0     C 8246  10.846   3.582   7.358 -0.1905  0.9086  0.3995
   63MOL0     C 8247  10.829   3.707   7.431 -0.7470 -0.1091  0.0787
   63MOL0     C 8248  10.812   3.819   7.480 -0.0026  0.4330  0.0743
   63MOL0     C 8249  10.491   3.177   7.509  0.5614 -0.2095  0.3785
   63MOL0     C 8250  10.392   3.085   7.469  0.2204  1.0581  0.7952
   63MOL0     H 8251  10.451   2.580   7.168  0.3786 -1.7698 -0.9529
   63MOL0     H 8252  10.323   2.396   7.057 -2.1894 -1.6553 -0.2161
   63MOL0     H 8253  10.052   2.488   6.884 -0.3366  2.1951  0.5656
   63MOL0     H 8254   9.905   2.495   6.989  2.5833  3.7088 -0.9952
   63MOL0     H 8255   9.851   2.262   6.952  0.0880 -0.4187  0.8863
   63MOL0     H 8256   9.957   2.276   6.806 -0.4924 -0.9726  0.5180
   63MOL0     H 8257   9.837   2.462   6.708 -0.6436  0.0228  1.2861
   63MOL0     H 8258   9.719   2.455   6.838 -0.5865  1.0576 -1.5873
   63MOL0     H 8259   9.779   2.241   6.618 -0.9679 -2.7155  0.7746
   63MOL0     H 8260   9.719   2.202   6.773 -0.2674  0.0434  0.6835
   63MOL0     H 8261   9.510   2.311   6.741 -0.9841  0.3397  0.5320
   63MOL0     H 8262   9.545   2.222   6.598  0.9958 -2.4595  2.3133
   63MOL0     H 8263   9.634   2.441   6.497 -0.6248 -1.0219 -1.6381
   63MOL0     H 8264   9.566   2.518   6.639  2.2356 -1.3281  1.4053
   63MOL0     H 8265   9.429   2.404   6.407  1.1428 -1.3852  0.0595
   63MOL0     H 8266   9.362   2.357   6.569 -0.9998 -1.1907 -2.9160
   63MOL0     H 8267   9.402   2.641   6.476 -1.2983  1.8878 -0.2386
   63MOL0     H 8268   9.314   2.591   6.624  0.9477 -0.7863  0.0683
   63MOL0     H 8269   9.111   2.407   6.588  0.8641  1.5093  0.4853
   63MOL0     H 8270   8.833   2.504   6.541 -2.6883 -1.7393 -0.0577
   63MOL0     H 8271   8.883   2.350   6.452  2.0433 -0.1935  0.0465
   63MOL0     H 8272   8.784   2.451   6.240 -2.5471 -0.5619  0.3234
   63MOL0     H 8273   8.740   2.599   6.334  0.1742  0.2348  3.1140
   63MOL0     H 8274   8.622   2.336   6.409 -1.4865  0.3396  3.0769
   63MOL0     H 8275   8.591   2.504   6.467 -3.3670  2.6013 -1.3407
   63MOL0     H 8276   8.413   2.429   6.337 -0.8032 -0.2904 -0.9293
   63MOL0     H 8277   8.517   2.412   6.195  2.3089  0.3187 -0.8137
   63MOL0     H 8278   8.456   2.843   6.199 -1.1803  1.5045  1.3857
   63MOL0     H 8279   8.282   2.934   6.055  0.4444 -0.1491 -0.3617
   63MOL0     H 8280   7.750   2.827   5.907 -1.0655  2.0083 -0.2810
   63MOL0     H 8281   7.620   2.932   5.753  1.0174  1.2762  0.1115
   63MOL0     H 8282   7.779   3.018   5.312  1.4752  3.2194 -3.6606
   63MOL0     H 8283   7.848   3.117   5.443 -0.2808 -0.7277 -0.0274
   63MOL0     H 8284   7.579   3.163   5.319 -1.2242  4.2596 -2.4326
   63MOL0     H 8285   7.732   3.233   5.266  3.4029 -4.2925  0.3592
   63MOL0     H 8286   7.577   3.256   5.536  1.6252 -0.8330  1.2210
   63MOL0     H 8287   7.590   3.383   5.413 -0.7230  1.6081  3.7850
   63MOL0     H 8288   7.854   3.329   5.468  0.2106 -2.5210  1.1209
   63MOL0     H 8289   7.769   3.462   5.532  3.8941 -0.0774  0.5118
   63MOL0     H 8290   7.818   3.200   5.659 -0.2715  0.5617 -1.7261
   63MOL0     H 8291   7.696   3.315   5.717  0.1526  0.8053 -0.2400
   63MOL0     H 8292   7.898   3.495   5.710  4.2422 -1.2813 -2.0606
   63MOL0     H 8293   8.002   3.363   5.723  0.5496 -0.0220  1.8077
   63MOL0     H 8294   7.981   3.437   5.940 -0.5929  1.9446 -0.7893
   63MOL0     H 8295   7.796   3.421   5.938 -1.7386 -2.4224 -2.9556
   63MOL0     H 8296   7.919   3.258   6.056 -2.9235  0.4980  1.3426
   63MOL0     H 8297   8.002   3.199   5.912 -0.2211 -0.2063 -0.5770
   63MOL0     H 8298   7.918   2.871   5.436 -2.2976 -1.2048 -1.0570
   63MOL0     H 8299   8.057   2.748   5.602 -0.1098 -1.6067  0.6495
   63MOL0     H 8300   8.134   2.548   5.980 -1.0797  2.1537 -0.2230
   63MOL0     H 8301   8.296   2.452   6.121  1.5032  0.4156  0.4063
   63MOL0     H 8302   9.966   2.550   7.225  0.5814  0.7195  0.5252
   63MOL0     H 8303  10.074   2.711   7.347 -1.2980 -0.5358 -2.0143
   63MOL0     H 8304  10.600   2.829   7.370 -0.8119 -0.7297  3.3267
   63MOL0     H 8305  10.766   2.994   7.475 -0.0721  2.4883  3.0526
   63MOL0     H 8306  10.646   3.356   7.642  0.1252 -0.1895  0.1108
   63MOL0     H 8307  10.652   3.425   7.481 -1.2369 -1.0048  0.3120
   63MOL0     H 8308  10.812   3.554   7.642 -1.7307 -0.0149 -1.9133
   63MOL0     H 8309  10.903   3.413   7.663 -2.6635  0.5058  3.4442
   63MOL0     H 8310  10.909   3.386   7.391 -2.0256 -0.2914 -0.0343
   63MOL0     H 8311  11.017   3.501   7.474  0.5088 -0.6648 -2.0688
   63MOL0     H 8312  10.909   3.596   7.269 -1.3023  2.5546 -0.1867
   63MOL0     H 8313  10.746   3.559   7.320  0.5994 -1.1218 -0.5960
   63MOL0     H 8314  10.798   3.914   7.527 -0.8029  0.8370 -0.9448
   63MOL0     H 8315  10.461   3.275   7.544  2.0906 -0.5156  2.7901
   63MOL0     H 8316  10.288   3.114   7.466 -0.1723 -0.0450  2.2306
   64MOL0     O 8317   7.380   4.656   7.214 -0.0446 -0.0383 -0.3038
   64MOL0     C 8318   7.357   4.762   7.158  0.4345  0.1319 -0.1528
   64MOL0     O 8319   7.444   4.851   7.096  0.0512  0.1609 -0.8455
   64MOL0     C 8320   7.581   4.864   7.118  0.6249  0.0478  0.3066
   64MOL0     C 8321   7.640   4.822   7.243 -0.3485 -0.4254  0.1681
   64MOL0     C 8322   7.774   4.841   7.272 -0.6648 -0.6091 -0.6091
   64MOL0     C 8323   7.855   4.901   7.175 -0.2568  0.4372 -1.2349
   64MOL0     O 8324   7.982   4.905   7.223  0.0617 -0.6060  0.2829
   64MOL0     C 8325   8.084   4.964   7.144  0.6730 -0.7179  0.2701
   64MOL0     C 8326   8.203   4.986   7.237 -0.1244  0.3389  0.2032
   64MOL0     C 8327   8.335   5.008   7.161  0.2047 -0.3587  0.3787
   64MOL0     C 8328   8.447   4.998   7.252  0.1146 -0.1160 -0.1596
   64MOL0     C 8329   8.581   5.056   7.198  0.2777 -0.2819 -0.3146
   64MOL0     C 8330   8.688   5.051   7.301 -0.1972 -0.8270 -0.0143
   64MOL0     C 8331   8.827   5.085   7.242  0.7324  0.1108  0.2372
   64MOL0     C 8332   8.925   5.123   7.356 -0.3296  0.1023 -0.2075
   64MOL0     N 8333   8.959   5.008   7.454  0.5795 -0.3083 -0.2385
   64MOL0     C 8334   9.018   4.894   7.421 -0.5780  0.6017 -0.3014
   64MOL0     C 8335   9.017   4.815   7.536  0.1817  0.4929  0.9829
   64MOL0     C 8336   9.083   4.676   7.544 -0.2100 -0.1174  0.0562
   64MOL0     C 8337   9.235   4.690   7.579  0.4294 -0.2619 -0.4848
   64MOL0     C 8338   9.257   4.740   7.726 -0.2285 -0.2407  1.1055
   64MOL0     C 8339   9.232   4.627   7.826 -0.2046 -0.7600  0.1577
   64MOL0     O 8340   9.216   4.689   7.954  0.2951 -0.3015  0.0945
   64MOL0     C 8341   9.090   4.667   8.008 -0.5244 -1.0032  0.2500
   64MOL0     C 8342   9.094   4.619   8.132 -0.3310  0.4271 -0.3495
   64MOL0     C 8343   8.982   4.596   8.202 -0.9773 -0.2897 -0.1527
   64MOL0     C 8344   8.860   4.611   8.145  1.0170  0.8586 -0.7023
   64MOL0     C 8345   8.734   4.588   8.235 -0.2167 -0.7240 -0.2262
   64MOL0     O 8346   8.750   4.526   8.358 -0.3391 -0.0454 -0.5725
   64MOL0     C 8347   8.640   4.505   8.437  0.2701  0.2217  0.2612
   64MOL0     C 8348   8.632   4.374   8.491 -0.4714  0.2886 -1.2307
   64MOL0     C 8349   8.545   4.339   8.595 -0.0145  0.4992 -0.8492
   64MOL0     C 8350   8.455   4.441   8.640 -0.9841 -0.2259 -0.8794
   64MOL0     O 8351   8.365   4.420   8.741  0.3727  1.2011  0.0153
   64MOL0     C 8352   8.421   4.450   8.869 -0.0286 -0.6513  0.8532
   64MOL0     C 8353   8.418   4.321   8.949  0.0766 -0.3492 -0.5018
   64MOL0     C 8354   8.515   4.338   9.058  0.3280  0.7013 -0.3797
   64MOL0     C 8355   8.474   4.263   9.189 -0.6467  0.5027 -0.1442
   64MOL0     C 8356   8.531   4.331   9.316 -0.2182  0.9774  0.2924
   64MOL0     C 8357   8.686   4.316   9.322 -1.0914 -0.4510  0.3619
   64MOL0     C 8358   8.739   4.168   9.327 -0.4088  0.0820  0.7766
   64MOL0     C 8359   8.901   4.165   9.346 -0.3017  0.0579 -0.2803
   64MOL0    Cl 8360   8.992   4.233   9.209  0.1473  0.5786  0.1501
   64MOL0     C 8361   8.452   4.572   8.579 -0.0602 -0.2788 -0.4701
   64MOL0     C 8362   8.548   4.603   8.484  0.1104 -0.6294 -0.5744
   64MOL0     O 8363   8.631   4.627   8.193 -0.6624 -0.6048  0.0063
   64MOL0     C 8364   8.846   4.653   8.013  0.1198  0.2548  0.4071
   64MOL0     C 8365   8.962   4.683   7.943  1.0168  1.1077  0.6688
   64MOL0     N 8366   8.941   4.880   7.631 -0.1279 -0.0091  0.4122
   64MOL0     N 8367   8.900   4.998   7.582  0.0592  0.5840  0.1364
   64MOL0     C 8368   7.806   4.943   7.050  0.2558  0.6424 -0.7737
   64MOL0     C 8369   7.664   4.924   7.025 -0.3210 -0.3460 -0.3185
   64MOL0     C 8370   7.212   4.784   7.133 -0.1775 -0.2906  0.1408
   64MOL0     C 8371   7.130   4.668   7.114 -1.1349 -0.5076 -0.4280
   64MOL0     C 8372   6.992   4.684   7.087  0.2633 -0.3579 -0.2068
   64MOL0     C 8373   6.935   4.804   7.068 -0.4022 -1.2978 -0.2568
   64MOL0     O 8374   6.801   4.825   7.048 -0.5471 -0.4299 -0.6960
   64MOL0     C 8375   6.707   4.722   7.023 -1.1991  0.4350  1.3210
   64MOL0     C 8376   6.571   4.788   7.024 -0.2166  0.2264 -0.2893
   64MOL0     C 8377   6.469   4.715   6.937  0.6321 -0.1572  0.8298
   64MOL0     C 8378   6.329   4.763   6.981  0.0669 -0.0924 -0.1327
   64MOL0     C 8379   6.233   4.676   6.908  0.6573 -0.9695 -0.4487
   64MOL0     C 8380   6.153   4.610   6.843 -0.1266  0.1477  0.2181
   64MOL0     C 8381   7.016   4.916   7.070 -0.5956  0.4675 -0.4864
   64MOL0     C 8382   7.153   4.907   7.108  0.3333 -0.5314 -0.6309
   64MOL0     H 8383   7.577   4.763   7.309 -0.4929  0.4800  0.8547
   64MOL0     H 8384   7.824   4.804   7.361  1.8089  2.9053 -0.3629
   64MOL0     H 8385   8.050   5.062   7.109  0.6106 -1.4817 -1.9431
   64MOL0     H 8386   8.103   4.901   7.057  0.5438 -0.4524  0.0471
   64MOL0     H 8387   8.211   4.899   7.303  1.8280  0.3939  0.1050
   64MOL0     H 8388   8.190   5.075   7.299 -0.5596  0.1791  0.3469
   64MOL0     H 8389   8.333   5.111   7.124  1.6770  0.4937  2.4931
   64MOL0     H 8390   8.355   4.950   7.070 -0.5594  0.3357 -0.2459
   64MOL0     H 8391   8.421   5.046   7.347  0.6828  1.0576 -0.5813
   64MOL0     H 8392   8.466   4.892   7.274  3.1029  0.3163 -0.3025
   64MOL0     H 8393   8.576   5.156   7.153  0.2474 -0.7801 -1.4263
   64MOL0     H 8394   8.612   4.983   7.123  0.6924 -1.4792  0.9827
   64MOL0     H 8395   8.684   4.949   7.340  1.2730 -0.7477  0.3926
   64MOL0     H 8396   8.664   5.129   7.375  0.6199  0.5276 -1.1376
   64MOL0     H 8397   8.874   5.004   7.187  0.8157 -0.5335  1.2333
   64MOL0     H 8398   8.809   5.165   7.169 -2.6065 -0.1541  0.6141
   64MOL0     H 8399   8.883   5.203   7.419  0.6336 -0.9772  1.9001
   64MOL0     H 8400   9.018   5.160   7.312 -0.1331  1.8493  1.4996
   64MOL0     H 8401   9.066   4.860   7.330  0.2056  1.2354 -0.1402
   64MOL0     H 8402   9.070   4.607   7.460 -0.2451 -0.2477  0.1687
   64MOL0     H 8403   9.027   4.628   7.624 -1.4281  0.5458 -0.3703
   64MOL0     H 8404   9.276   4.765   7.511 -0.5808 -0.4565 -1.3388
   64MOL0     H 8405   9.281   4.592   7.562  1.3969  0.2098 -0.5928
   64MOL0     H 8406   9.357   4.784   7.730  1.1248 -2.6720 -1.6524
   64MOL0     H 8407   9.186   4.822   7.732  1.2178  1.1606 -0.1453
   64MOL0     H 8408   9.314   4.554   7.816 -1.0623 -1.5958 -1.1608
   64MOL0     H 8409   9.143   4.567   7.804 -1.1827  0.8335 -0.3665
   64MOL0     H 8410   9.191   4.604   8.178 -0.5819 -1.5231 -0.3852
   64MOL0     H 8411   8.991   4.546   8.298  1.3034 -0.0674 -0.2074
   64MOL0     H 8412   8.699   4.300   8.448 -1.0047  0.6415 -2.7429
   64MOL0     H 8413   8.523   4.238   8.627  3.0334  0.0183  0.0195
   64MOL0     H 8414   8.357   4.520   8.923  1.4563  1.1782  0.3741
   64MOL0     H 8415   8.518   4.501   8.866 -1.4789  2.3246  0.8909
   64MOL0     H 8416   8.447   4.229   8.897  0.7966 -0.2015 -0.3790
   64MOL0     H 8417   8.316   4.314   8.987  0.5534  1.5101  1.2574
   64MOL0     H 8418   8.528   4.445   9.074  2.8014  0.5842 -1.2143
   64MOL0     H 8419   8.613   4.297   9.033 -0.8729 -0.8884 -2.8921
   64MOL0     H 8420   8.365   4.262   9.197 -0.7412 -1.0109 -1.1195
   64MOL0     H 8421   8.498   4.156   9.189 -0.6041  0.3008 -4.5314
   64MOL0     H 8422   8.493   4.284   9.407 -1.8551  1.6120 -0.0227
   64MOL0     H 8423   8.499   4.435   9.305 -2.1231  0.1634 -2.9895
   64MOL0     H 8424   8.716   4.354   9.419  2.3380 -4.3282  1.1127
   64MOL0     H 8425   8.741   4.366   9.241 -1.2417  2.3490  1.8936
   64MOL0     H 8426   8.689   4.108   9.404  0.4934 -0.8726  0.6531
   64MOL0     H 8427   8.723   4.122   9.230 -1.2164  0.6281  0.6432
   64MOL0     H 8428   8.939   4.063   9.358  0.4630  0.1014 -2.0878
   64MOL0     H 8429   8.922   4.215   9.441 -2.2996  0.1045  0.1840
   64MOL0     H 8430   8.387   4.655   8.607  0.0087  0.0656 -1.3001
   64MOL0     H 8431   8.555   4.706   8.451 -1.7746  0.4262  1.9614
   64MOL0     H 8432   8.750   4.650   7.962  0.1768 -1.8153  0.3302
   64MOL0     H 8433   8.963   4.723   7.842 -1.5935  2.8820  1.2625
   64MOL0     H 8434   7.869   4.990   6.975  3.0059  0.3190  1.1877
   64MOL0     H 8435   7.620   4.953   6.931 -1.4979 -0.5023  0.1660
   64MOL0     H 8436   7.167   4.568   7.133  0.3678 -0.2820 -1.9543
   64MOL0     H 8437   6.933   4.594   7.101  0.3698 -0.5626 -1.0090
   64MOL0     H 8438   6.714   4.632   7.085  0.5515 -0.4239 -0.0240
   64MOL0     H 8439   6.748   4.685   6.928  2.4175  0.9821  2.4923
   64MOL0     H 8440   6.530   4.800   7.125 -2.2272  1.8046 -1.2036
   64MOL0     H 8441   6.591   4.890   6.990 -5.5029  1.6327 -0.1400
   64MOL0     H 8442   6.483   4.606   6.938  2.6216  0.0718  0.6510
   64MOL0     H 8443   6.484   4.741   6.832 -1.4104 -0.1951  0.4805
   64MOL0     H 8444   6.310   4.756   7.089  1.8716  1.0478  0.3198
   64MOL0     H 8445   6.307   4.864   6.947 -3.6012 -0.3246  1.1368
   64MOL0     H 8446   6.075   4.548   6.802  1.3158 -3.2537  2.2144
   64MOL0     H 8447   6.972   5.014   7.052 -1.8084 -0.1774 -1.1456
   64MOL0     H 8448   7.205   5.000   7.127 -2.3019  1.4521 -2.4396
   65MOL0     O 8449  10.313   3.717   7.916 -0.5127  0.2349 -0.1641
   65MOL0     C 8450  10.429   3.675   7.926 -0.5007 -0.6701 -0.1788
   65MOL0     O 8451  10.498   3.607   7.822 -0.0758 -0.4148 -0.6506
   65MOL0     C 8452  10.433   3.594   7.701  0.5396 -0.0299  0.9651
   65MOL0     C 8453  10.323   3.519   7.678 -0.6104 -0.5836  0.1125
   65MOL0     C 8454  10.277   3.509   7.550  0.4180  0.1314 -1.4415
   65MOL0     C 8455  10.358   3.536   7.430  0.1123 -0.1055  0.0656
   65MOL0     O 8456  10.330   3.503   7.296 -0.1689 -0.2976  0.0275
   65MOL0     C 8457  10.196   3.458   7.259  0.3336 -0.2338  0.8857
   65MOL0     C 8458  10.207   3.434   7.104  0.7728 -0.1221 -0.7662
   65MOL0     C 8459  10.284   3.311   7.078  0.8206 -0.4661 -0.1890
   65MOL0     C 8460  10.226   3.258   6.943 -0.3841 -1.1413  0.0640
   65MOL0     C 8461  10.129   3.137   6.935  0.8766 -0.7425  0.9029
   65MOL0     C 8462  10.062   3.094   7.069 -0.3109 -0.3376  0.3747
   65MOL0     C 8463   9.940   3.000   7.030 -0.2757  0.9799  0.4718
   65MOL0     C 8464   9.882   2.933   7.149  0.2999  0.1364 -0.7382
   65MOL0     N 8465   9.771   2.851   7.117 -0.1048 -0.6513 -0.6276
   65MOL0     C 8466   9.638   2.888   7.108  0.3049 -0.3144 -0.6952
   65MOL0     C 8467   9.573   2.770   7.099 -0.0865  0.1102  0.3311
   65MOL0     C 8468   9.425   2.748   7.080  1.1216  0.4461  0.1571
   65MOL0     C 8469   9.329   2.831   7.162 -0.0036 -0.7520 -0.1707
   65MOL0     C 8470   9.181   2.790   7.143  0.1022 -0.4698 -0.5938
   65MOL0     C 8471   9.094   2.877   7.240  0.5260  0.7796  0.4445
   65MOL0     O 8472   8.956   2.871   7.204  0.4224 -0.2590 -0.3775
   65MOL0     C 8473   8.907   2.969   7.122  0.0923 -0.5880 -0.0005
   65MOL0     C 8474   8.768   2.989   7.140 -0.0590  0.6975  0.5831
   65MOL0     C 8475   8.695   3.091   7.072  0.2028  0.1425 -0.2301
   65MOL0     C 8476   8.764   3.166   6.977  0.4628 -0.4254  0.2321
   65MOL0     C 8477   8.689   3.256   6.888  0.2017  0.7053  0.1396
   65MOL0     O 8478   8.551   3.239   6.893  0.0129 -0.2773 -0.1043
   65MOL0     C 8479   8.482   3.293   6.783 -0.2684 -0.3759 -1.1621
   65MOL0     C 8480   8.472   3.238   6.658  0.5380  0.2124 -0.6742
   65MOL0     C 8481   8.399   3.310   6.564  0.0329 -0.4304  0.0992
   65MOL0     C 8482   8.339   3.425   6.592 -0.0410 -1.1360  0.5525
   65MOL0     O 8483   8.277   3.515   6.504 -1.1455  0.3245 -0.6479
   65MOL0     C 8484   8.226   3.469   6.386 -0.7067 -0.2518  0.0349
   65MOL0     C 8485   8.119   3.577   6.360 -0.1617  0.7659  0.7484
   65MOL0     C 8486   8.174   3.701   6.300 -0.3756 -0.0297  0.1383
   65MOL0     C 8487   8.265   3.788   6.388 -0.5110 -0.7446 -0.7321
   65MOL0     C 8488   8.313   3.911   6.314 -0.9199 -0.4280 -0.6521
   65MOL0     C 8489   8.194   4.010   6.313  0.3356  0.1359 -0.0538
   65MOL0     C 8490   8.241   4.139   6.252 -1.1614 -0.3579  0.3324
   65MOL0     C 8491   8.135   4.241   6.235  0.2279  0.6111 -0.4341
   65MOL0    Cl 8492   8.202   4.392   6.166  0.0442 -0.0141  0.3157
   65MOL0     C 8493   8.346   3.470   6.728  1.1330 -0.1909  0.5647
   65MOL0     C 8494   8.406   3.395   6.826 -0.0766  0.4681  0.3643
   65MOL0     O 8495   8.752   3.309   6.793  0.6300 -1.0392 -0.3543
   65MOL0     C 8496   8.898   3.150   6.970 -0.5360  0.4036  0.7143
   65MOL0     C 8497   8.968   3.054   7.036 -0.9903 -0.7258 -0.1491
   65MOL0     N 8498   9.667   2.672   7.108  1.0420  0.3591 -0.4582
   65MOL0     N 8499   9.785   2.717   7.116 -0.8952  0.1143  0.2516
   65MOL0     C 8500  10.476   3.602   7.456  0.6988 -0.2119 -0.3839
   65MOL0     C 8501  10.505   3.640   7.591 -0.3984  1.2292  0.0773
   65MOL0     C 8502  10.510   3.710   8.048  0.4470 -0.2144  0.4657
   65MOL0     C 8503  10.454   3.782   8.153  0.8640  0.2284 -0.7768
   65MOL0     C 8504  10.522   3.811   8.273  0.5130  0.4600  1.0880
   65MOL0     C 8505  10.660   3.765   8.280 -1.1761  0.0842  0.5232
   65MOL0     O 8506  10.742   3.790   8.391  0.1578 -0.0680  0.6870
   65MOL0     C 8507  10.742   3.927   8.432  0.0886  0.2557  0.6216
   65MOL0     C 8508  10.876   3.973   8.491 -0.1979  0.7883  0.0511
   65MOL0     C 8509  10.884   3.921   8.630 -0.0156 -0.1586 -0.3590
   65MOL0     C 8510  11.001   3.991   8.709 -0.4568  0.4323  0.5422
   65MOL0     C 8511  10.971   4.112   8.781  1.0954 -0.0809 -0.0255
   65MOL0     C 8512  10.919   4.208   8.842 -0.0769 -0.2637 -1.0465
   65MOL0     C 8513  10.718   3.690   8.176  0.8643  0.0562  0.4587
   65MOL0     C 8514  10.643   3.652   8.064  0.0854 -0.0360 -0.3470
   65MOL0     H 8515  10.265   3.492   7.765  1.8612 -0.0531  2.0449
   65MOL0     H 8516  10.179   3.463   7.538  1.9222 -3.2832 -1.9764
   65MOL0     H 8517  10.133   3.547   7.274  0.2710 -0.0936 -0.1100
   65MOL0     H 8518  10.156   3.369   7.308 -0.8632 -0.9677 -1.2914
   65MOL0     H 8519  10.245   3.520   7.046 -0.9698  2.1431  1.2427
   65MOL0     H 8520  10.105   3.421   7.067  0.4652 -3.5438  0.9785
   65MOL0     H 8521  10.273   3.233   7.153 -0.8642  0.2674  0.3696
   65MOL0     H 8522  10.389   3.336   7.056  1.6177 -1.8852  1.7301
   65MOL0     H 8523  10.189   3.338   6.879 -1.9038 -2.1341 -0.3649
   65MOL0     H 8524  10.317   3.233   6.887  0.2366  2.3954 -0.6971
   65MOL0     H 8525  10.163   3.058   6.867 -0.0322  0.5913 -1.1971
   65MOL0     H 8526  10.046   3.180   6.877  0.3086  0.5023  2.5762
   65MOL0     H 8527  10.024   3.188   7.110 -2.4646 -0.5280 -1.0197
   65MOL0     H 8528  10.142   3.059   7.136 -1.6676 -1.4782  1.4437
   65MOL0     H 8529   9.871   3.061   6.971  0.6297  1.0917 -0.4860
   65MOL0     H 8530   9.997   2.929   6.970 -0.3380  0.4619  1.0202
   65MOL0     H 8531   9.854   3.000   7.231  0.9392 -0.8580  0.3278
   65MOL0     H 8532   9.950   2.869   7.207  1.6276  1.6276 -0.5844
   65MOL0     H 8533   9.589   2.984   7.102 -0.2710 -0.2541  2.8567
   65MOL0     H 8534   9.405   2.641   7.089  0.8449  0.5501  0.8734
   65MOL0     H 8535   9.393   2.763   6.976 -1.5373  2.3167  1.0992
   65MOL0     H 8536   9.345   2.935   7.132  0.1125 -1.3665 -2.4706
   65MOL0     H 8537   9.360   2.826   7.267  0.6218 -1.0724 -0.3664
   65MOL0     H 8538   9.146   2.809   7.041  1.5881 -0.2523 -1.0800
   65MOL0     H 8539   9.166   2.686   7.173 -1.3000  0.2388  1.3920
   65MOL0     H 8540   9.128   2.980   7.226  0.4283  1.0390  2.0113
   65MOL0     H 8541   9.109   2.855   7.346  0.5824 -1.0345  0.0834
   65MOL0     H 8542   8.716   2.934   7.218 -1.7109  2.1441  0.5621
   65MOL0     H 8543   8.593   3.107   7.107  0.9161  3.7188  0.5780
   65MOL0     H 8544   8.524   3.143   6.649  0.5513  0.0739  0.6015
   65MOL0     H 8545   8.408   3.274   6.462 -1.7732  0.8053 -0.5550
   65MOL0     H 8546   8.184   3.368   6.393  1.6929 -1.4610 -1.6450
   65MOL0     H 8547   8.310   3.471   6.316  0.8659 -1.5422  1.7582
   65MOL0     H 8548   8.057   3.599   6.447 -2.0552  0.0897 -0.3758
   65MOL0     H 8549   8.056   3.528   6.285 -0.1747  0.6151  0.8586
   65MOL0     H 8550   8.086   3.762   6.276 -2.1764 -2.3615  0.3690
   65MOL0     H 8551   8.219   3.668   6.206 -3.3145 -2.0256 -0.7439
   65MOL0     H 8552   8.228   3.822   6.485  0.6004 -0.3940 -0.4190
   65MOL0     H 8553   8.353   3.729   6.415  1.0301  0.3269 -3.1024
   65MOL0     H 8554   8.337   3.893   6.209 -2.2661 -3.1876 -0.5888
   65MOL0     H 8555   8.396   3.968   6.358 -1.0477 -0.4617 -0.3600
   65MOL0     H 8556   8.159   4.027   6.415 -2.8136 -2.3940 -0.5454
   65MOL0     H 8557   8.108   3.976   6.255  0.8661 -0.9344 -0.2243
   65MOL0     H 8558   8.307   4.180   6.329  0.2442 -3.2648  0.8496
   65MOL0     H 8559   8.291   4.117   6.158 -1.6782 -2.9471  0.5821
   65MOL0     H 8560   8.098   4.256   6.336  3.5251  2.6855  0.6349
   65MOL0     H 8561   8.054   4.201   6.173  1.3960  0.8650 -2.2071
   65MOL0     H 8562   8.297   3.561   6.759  0.4004 -0.3621 -0.0423
   65MOL0     H 8563   8.404   3.411   6.934 -1.3041  2.2207  0.1313
   65MOL0     H 8564   8.953   3.216   6.904 -0.3249  1.2638  1.7184
   65MOL0     H 8565   9.075   3.055   7.015 -1.2811  1.2916 -1.8755
   65MOL0     H 8566  10.544   3.638   7.380  3.8182  0.9641  2.6780
   65MOL0     H 8567  10.601   3.692   7.596 -1.2216  2.8441 -0.1602
   65MOL0     H 8568  10.359   3.829   8.132  0.2674 -0.7648 -0.3945
   65MOL0     H 8569  10.484   3.879   8.349 -0.7620  0.5775  0.3643
   65MOL0     H 8570  10.666   3.947   8.508 -0.3301  0.5977  0.1176
   65MOL0     H 8571  10.713   3.993   8.349 -2.3022  0.6194  1.6616
   65MOL0     H 8572  10.962   3.935   8.434  1.6532  3.0536  1.1439
   65MOL0     H 8573  10.885   4.082   8.486  1.1116  0.6515 -1.9220
   65MOL0     H 8574  10.910   3.815   8.624  0.2707 -0.1279  0.2322
   65MOL0     H 8575  10.793   3.947   8.685  0.8494  3.1241 -0.2816
   65MOL0     H 8576  11.040   3.914   8.776  0.8417 -0.8044 -1.5284
   65MOL0     H 8577  11.087   4.012   8.644 -0.8653 -0.0116 -0.1487
   65MOL0     H 8578  10.874   4.291   8.893 -0.6589 -0.6780 -0.8741
   65MOL0     H 8579  10.821   3.658   8.188  0.0965 -1.7934  2.6833
   65MOL0     H 8580  10.708   3.604   7.991 -0.3321 -0.0883 -0.6885
   66MOL0     O 8581   1.780   1.696  10.622  0.4001 -0.5599  0.5585
   66MOL0     C 8582   1.846   1.650  10.710 -0.1998 -0.1045  0.2832
   66MOL0     O 8583   1.796   1.618  10.831 -0.4325 -0.4872 -0.6813
   66MOL0     C 8584   1.667   1.633  10.860 -0.7962 -0.4825 -1.0406
   66MOL0     C 8585   1.574   1.536  10.909 -0.0256  0.5388  0.2135
   66MOL0     C 8586   1.456   1.578  10.964 -0.6632  0.1677  0.2866
   66MOL0     C 8587   1.423   1.713  10.965  0.8687  0.1602  0.8538
   66MOL0     O 8588   1.306   1.742  11.041 -0.3507 -0.1316 -0.4468
   66MOL0     C 8589   1.323   1.837  11.146 -0.5282 -0.4121 -0.6331
   66MOL0     C 8590   1.303   1.768  11.282 -0.5535  0.2323 -1.4618
   66MOL0     C 8591   1.195   1.671  11.284  0.2024  0.2270 -0.1081
   66MOL0     C 8592   1.174   1.596  11.411 -0.2706 -0.8197 -0.3389
   66MOL0     C 8593   1.046   1.504  11.403  0.8953  0.6760  0.1392
   66MOL0     C 8594   1.051   1.381  11.301  0.1948 -0.8846  0.3433
   66MOL0     C 8595   1.139   1.271  11.357 -0.5724 -0.6750 -0.4913
   66MOL0     C 8596   1.144   1.167  11.248  0.3903 -0.0919  0.7276
   66MOL0     N 8597   1.236   1.070  11.304 -0.6502  0.3722  0.3784
   66MOL0     C 8598   1.219   0.953  11.370 -0.2695 -0.0274  0.6651
   66MOL0     C 8599   1.333   0.896  11.404 -1.1482 -0.1119 -0.6379
   66MOL0     C 8600   1.343   0.779  11.499 -0.1377  0.6264 -0.0138
   66MOL0     C 8601   1.250   0.659  11.469  0.3310  0.4154 -0.0246
   66MOL0     C 8602   1.281   0.523  11.549  0.2717 -0.7020 -0.3451
   66MOL0     C 8603   1.163   0.497  11.644  0.2403 -0.2004 -0.0116
   66MOL0     O 8604   1.035   0.488  11.564  0.4123  0.9261 -0.6743
   66MOL0     C 8605   0.932   0.426  11.625  0.0405 -0.1749 -0.1353
   66MOL0     C 8606   0.858   0.350  11.542 -0.8011 -0.2927  0.4575
   66MOL0     C 8607   0.757   0.274  11.589 -1.1165  0.1658  0.1295
   66MOL0     C 8608   0.716   0.267  11.716  0.0649  0.6307  0.2307
   66MOL0     C 8609   0.609   0.173  11.758 -0.1002  0.3322  0.0848
   66MOL0     O 8610   0.542   0.109  11.661  0.3685 -0.1592  0.6146
   66MOL0     C 8611   0.438   0.017  11.681  0.2641  0.5958  0.6350
   66MOL0     C 8612   0.438  -0.068  11.793 -0.0828  0.0714 -0.1996
   66MOL0     C 8613   0.350  -0.175  11.807 -0.7184 -0.7867  0.6926
   66MOL0     C 8614   0.258  -0.201  11.706 -0.0120  0.9607 -0.2199
   66MOL0     O 8615   0.178  -0.314  11.720  0.0298  0.4852  0.2824
   66MOL0     C 8616   0.087  -0.325  11.837 -0.6106 -0.7256  1.1228
   66MOL0     C 8617  -0.055  -0.311  11.780  0.2065 -0.9719  0.2189
   66MOL0     C 8618  -0.162  -0.342  11.877  0.0820  0.1271 -0.4098
   66MOL0     C 8619  -0.306  -0.326  11.829 -0.1098  0.8780 -0.1114
   66MOL0     C 8620  -0.362  -0.451  11.756  0.0341 -0.1949  0.3323
   66MOL0     C 8621  -0.511  -0.436  11.720  0.5664  0.3460  0.7944
   66MOL0     C 8622  -0.567  -0.566  11.653 -0.1555 -1.1631  0.3690
   66MOL0     C 8623  -0.685  -0.552  11.549  0.6389  0.2297 -0.5254
   66MOL0    Cl 8624  -0.850  -0.508  11.618 -0.1100 -0.0784 -0.3721
   66MOL0     C 8625   0.265  -0.126  11.583 -0.0600 -0.1079  0.3944
   66MOL0     C 8626   0.358  -0.015  11.572  0.2554 -0.0034  0.2082
   66MOL0     O 8627   0.571   0.184  11.873  0.0330  0.2767  0.0615
   66MOL0     C 8628   0.781   0.355  11.804 -0.5545 -0.0994  1.6796
   66MOL0     C 8629   0.898   0.432  11.758  0.4459 -0.9966  0.6383
   66MOL0     N 8630   1.435   0.982  11.358 -0.6569  0.0709  0.4855
   66MOL0     N 8631   1.375   1.086  11.292  0.2015  0.0595 -0.4205
   66MOL0     C 8632   1.496   1.810  10.903 -0.6042  0.0303 -0.0929
   66MOL0     C 8633   1.625   1.774  10.853  0.0382 -0.1243 -0.6713
   66MOL0     C 8634   1.989   1.630  10.689 -0.1237 -0.1952  0.2006
   66MOL0     C 8635   2.059   1.542  10.770 -0.4361 -0.0835 -0.3837
   66MOL0     C 8636   2.200   1.527  10.752 -0.8428  0.7632  0.1782
   66MOL0     C 8637   2.266   1.603  10.651  0.0843  0.3191 -0.7260
   66MOL0     O 8638   2.399   1.594  10.612  0.0939 -0.0937 -0.2472
   66MOL0     C 8639   2.488   1.527  10.707 -0.9191 -0.3184  0.3937
   66MOL0     C 8640   2.536   1.629  10.812 -0.2437 -0.4304  0.4149
   66MOL0     C 8641   2.610   1.753  10.747  0.2342 -0.0089 -0.2049
   66MOL0     C 8642   2.650   1.846  10.867  0.3055  0.7110  0.7078
   66MOL0     C 8643   2.529   1.922  10.930 -0.2045 -0.5333  0.4104
   66MOL0     C 8644   2.432   1.974  10.980 -0.2600 -1.3034  0.5021
   66MOL0     C 8645   2.191   1.689  10.566 -0.0814 -0.2951 -0.6682
   66MOL0     C 8646   2.051   1.701  10.592  0.2460 -0.6904 -0.2076
   66MOL0     H 8647   1.610   1.436  10.929  0.7352  1.1747  2.2943
   66MOL0     H 8648   1.388   1.504  11.007  0.7314 -0.7113  1.0738
   66MOL0     H 8649   1.245   1.913  11.137 -2.3808 -1.8493  1.9433
   66MOL0     H 8650   1.419   1.890  11.138  0.9255 -2.5017  1.4698
   66MOL0     H 8651   1.279   1.836  11.363 -0.1601 -1.3489  0.0485
   66MOL0     H 8652   1.393   1.712  11.309 -1.3513 -1.3679 -2.0037
   66MOL0     H 8653   1.207   1.599  11.203 -4.0180 -1.4102  0.5104
   66MOL0     H 8654   1.104   1.724  11.255  1.4418  2.1001 -0.7669
   66MOL0     H 8655   1.264   1.547  11.449 -1.2840 -0.4666  2.8531
   66MOL0     H 8656   1.153   1.680  11.477  0.5285  1.0526 -2.3424
   66MOL0     H 8657   0.953   1.559  11.384 -1.2700 -3.0412 -1.1608
   66MOL0     H 8658   1.017   1.467  11.502 -0.3921  0.4389 -0.3111
   66MOL0     H 8659   1.088   1.412  11.203 -0.5291 -0.4935  0.1837
   66MOL0     H 8660   0.948   1.356  11.273  0.8354 -0.0750 -3.1600
   66MOL0     H 8661   1.243   1.305  11.357 -0.5716 -0.6702 -0.8957
   66MOL0     H 8662   1.112   1.237  11.457  0.3462 -2.6236 -0.8518
   66MOL0     H 8663   1.160   1.205  11.147 -7.6946  0.6235 -0.9219
   66MOL0     H 8664   1.043   1.127  11.241 -0.2263  1.7182 -2.2231
   66MOL0     H 8665   1.118   0.918  11.388 -1.7121  3.5846  0.2681
   66MOL0     H 8666   1.316   0.824  11.595 -0.6736  0.7561 -0.2200
   66MOL0     H 8667   1.446   0.743  11.500 -1.0534 -2.2096 -0.1966
   66MOL0     H 8668   1.261   0.633  11.364  1.0034  0.4298  0.0357
   66MOL0     H 8669   1.144   0.684  11.463 -0.7147 -3.7080 -1.8386
   66MOL0     H 8670   1.299   0.437  11.484  1.3415 -2.0947  1.6523
   66MOL0     H 8671   1.379   0.532  11.599 -0.2465 -3.6240  1.4299
   66MOL0     H 8672   1.162   0.583  11.711 -1.1838 -1.6147  1.9161
   66MOL0     H 8673   1.194   0.405  11.695  5.5792  1.6965  0.7695
   66MOL0     H 8674   0.894   0.342  11.440 -2.2502 -1.2614 -0.0136
   66MOL0     H 8675   0.713   0.208  11.515 -2.2680  1.3647 -0.2848
   66MOL0     H 8676   0.512  -0.052  11.871  2.7298 -2.9516 -1.9984
   66MOL0     H 8677   0.350  -0.234  11.898  1.0809  0.3210  1.4867
   66MOL0     H 8678   0.111  -0.244  11.905  0.0981 -1.3136  1.5862
   66MOL0     H 8679   0.102  -0.418  11.892 -1.6296  0.6187  3.8551
   66MOL0     H 8680  -0.075  -0.368  11.689 -3.6330 -0.3717  0.5063
   66MOL0     H 8681  -0.054  -0.208  11.743 -1.5592 -1.3190 -0.9479
   66MOL0     H 8682  -0.155  -0.265  11.955 -1.1951  0.7151 -0.8476
   66MOL0     H 8683  -0.131  -0.439  11.916  2.1155  0.0745 -2.0281
   66MOL0     H 8684  -0.360  -0.311  11.923  1.5328  3.2580  0.5462
   66MOL0     H 8685  -0.305  -0.230  11.776 -2.4469  0.1723 -1.5699
   66MOL0     H 8686  -0.347  -0.543  11.813 -0.6100  0.9822  2.5224
   66MOL0     H 8687  -0.316  -0.466  11.658 -0.0653  0.6419  0.1501
   66MOL0     H 8688  -0.522  -0.353  11.649 -1.8405  0.2164  0.9236
   66MOL0     H 8689  -0.576  -0.415  11.806  0.5546  0.5454  0.7397
   66MOL0     H 8690  -0.488  -0.616  11.595 -0.6972 -1.9377  0.2715
   66MOL0     H 8691  -0.583  -0.625  11.744  0.2067 -1.6977  0.0946
   66MOL0     H 8692  -0.699  -0.645  11.494 -0.0481  1.3927 -2.4094
   66MOL0     H 8693  -0.648  -0.485  11.470  1.0788 -0.3554 -0.8200
   66MOL0     H 8694   0.203  -0.152  11.497  0.9132 -1.6101  0.1215
   66MOL0     H 8695   0.346   0.057  11.492 -0.6657  1.8042  1.8618
   66MOL0     H 8696   0.754   0.367  11.908 -0.5309  1.6923  1.5002
   66MOL0     H 8697   0.950   0.485  11.838  2.1517  1.0466 -1.6580
   66MOL0     H 8698   1.476   1.916  10.898  1.7620  0.5141 -0.7712
   66MOL0     H 8699   1.673   1.860  10.807  0.2679 -0.2110 -0.5924
   66MOL0     H 8700   2.003   1.490  10.847 -0.2896  0.6689  0.2430
   66MOL0     H 8701   2.254   1.455  10.811  0.7048 -0.1317 -2.2046
   66MOL0     H 8702   2.570   1.499  10.640 -1.3111 -0.5563  0.0063
   66MOL0     H 8703   2.449   1.434  10.750 -0.1097 -0.5691  0.6041
   66MOL0     H 8704   2.453   1.661  10.875 -0.0765  1.9896 -0.5121
   66MOL0     H 8705   2.608   1.578  10.877  1.0369  0.7064 -0.0500
   66MOL0     H 8706   2.543   1.813  10.685 -1.7412 -1.5079  0.3775
   66MOL0     H 8707   2.696   1.737  10.681 -1.0563  0.1144 -1.9666
   66MOL0     H 8708   2.708   1.781  10.934  2.1351 -2.2719 -3.3670
   66MOL0     H 8709   2.714   1.924  10.824 -0.8382  0.4338 -1.6314
   66MOL0     H 8710   2.352   2.017  11.036 -1.1163 -3.6774  1.2028
   66MOL0     H 8711   2.241   1.737  10.484  1.7932  1.1572  1.2215
   66MOL0     H 8712   1.994   1.778  10.541  3.6601  1.4155 -1.1210
   67MOL0     O 8713  10.998  10.397   6.832 -0.1609  0.7926 -0.1472
   67MOL0     C 8714  11.108  10.386   6.771  0.0428  0.1801  0.0183
   67MOL0     O 8715  11.118  10.350   6.640 -0.0817  0.0532 -0.2447
   67MOL0     C 8716  11.003  10.339   6.577 -0.7979 -0.0487  0.0122
   67MOL0     C 8717  10.974  10.442   6.482 -0.1610  0.4963 -0.3397
   67MOL0     C 8718  10.855  10.433   6.402  0.4676  0.0603 -0.0370
   67MOL0     C 8719  10.779  10.324   6.417 -0.6278 -0.4234 -0.7646
   67MOL0     O 8720  10.673  10.308   6.333 -0.4708 -0.1264 -0.4635
   67MOL0     C 8721  10.679  10.325   6.192  0.4312  0.3082  0.2797
   67MOL0     C 8722  10.552  10.253   6.122 -0.9742  1.6153  0.0195
   67MOL0     C 8723  10.417  10.293   6.167  0.2674 -0.5621 -0.4493
   67MOL0     C 8724  10.321  10.176   6.176  0.3943 -0.2462  1.2075
   67MOL0     C 8725  10.186  10.220   6.257 -0.5277 -0.3339 -0.2389
   67MOL0     C 8726  10.189  10.176   6.403  0.1586  0.0951  0.1859
   67MOL0     C 8727  10.068  10.246   6.470  0.1775  0.4691 -0.4911
   67MOL0     C 8728   9.938  10.200   6.426  1.0890  0.0984  0.6484
   67MOL0     N 8729   9.833  10.293   6.465 -0.2765  0.7518 -0.5630
   67MOL0     C 8730   9.707  10.260   6.507  0.1456 -0.5891  0.3159
   67MOL0     C 8731   9.642  10.376   6.532 -0.0287  0.2481  0.7041
   67MOL0     C 8732   9.503  10.373   6.588 -0.9243 -0.1941  0.3294
   67MOL0     C 8733   9.395  10.405   6.484 -0.5269 -0.2132 -0.1481
   67MOL0     C 8734   9.359  10.279   6.410  0.4718 -0.1101  0.6083
   67MOL0     C 8735   9.214  10.288   6.366 -0.2877 -0.0626  0.4786
   67MOL0     O 8736   9.172  10.164   6.308 -0.5913 -0.5605  0.0562
   67MOL0     C 8737   9.041  10.152   6.261 -0.1854 -1.6204 -0.1993
   67MOL0     C 8738   8.959  10.268   6.235  0.0267  0.8737 -0.7091
   67MOL0     C 8739   8.835  10.249   6.173  1.0348  0.1364  0.6740
   67MOL0     C 8740   8.794  10.124   6.122 -0.5684  0.8273 -0.3770
   67MOL0     C 8741   8.658  10.106   6.062  0.3344 -1.3480 -0.5628
   67MOL0     O 8742   8.633   9.983   6.005 -0.0148 -0.7328  0.0126
   67MOL0     C 8743   8.524   9.968   5.922  0.5305  0.5221  0.3203
   67MOL0     C 8744   8.540   9.906   5.797 -0.5016  0.0091  0.8453
   67MOL0     C 8745   8.438   9.900   5.700  0.1732  0.2902  0.0832
   67MOL0     C 8746   8.305   9.933   5.734 -0.0009  0.0616 -0.1043
   67MOL0     O 8747   8.203   9.917   5.647  0.2428  0.0113  0.0647
   67MOL0     C 8748   8.221   9.876   5.511  0.2925  0.0904  1.2538
   67MOL0     C 8749   8.087   9.857   5.440  0.6549  0.1124  0.0862
   67MOL0     C 8750   8.033   9.712   5.418  0.5726 -0.0451 -0.2666
   67MOL0     C 8751   7.874   9.721   5.441 -0.0613 -0.3041  0.1865
   67MOL0     C 8752   7.816   9.581   5.410  0.0208 -1.4649  0.6545
   67MOL0     C 8753   7.672   9.556   5.461 -1.1470 -0.4271  0.3590
   67MOL0     C 8754   7.570   9.636   5.374 -0.8704 -0.1892 -0.2375
   67MOL0     C 8755   7.426   9.579   5.393  0.6562  0.0157  0.4916
   67MOL0    Cl 8756   7.396   9.567   5.573 -0.3331 -0.4669 -0.1151
   67MOL0     C 8757   8.283   9.984   5.864  0.4309  0.5834  0.1595
   67MOL0     C 8758   8.387  10.000   5.952  0.7715 -0.0702  0.3159
   67MOL0     O 8759   8.576  10.200   6.071  0.2802  0.9896 -1.0431
   67MOL0     C 8760   8.875  10.012   6.142 -1.4035  0.5356  0.6607
   67MOL0     C 8761   9.005  10.031   6.204  0.1643 -0.2207 -0.6965
   67MOL0     N 8762   9.728  10.474   6.491 -1.1887 -0.2168  0.3048
   67MOL0     N 8763   9.848  10.425   6.463 -0.3660  0.0726 -0.4307
   67MOL0     C 8764  10.809  10.223   6.506  0.4854  0.4985 -0.1635
   67MOL0     C 8765  10.922  10.226   6.583 -0.1403 -0.3710  0.4373
   67MOL0     C 8766  11.238  10.422   6.839 -0.1753 -0.4434 -0.5610
   67MOL0     C 8767  11.235  10.478   6.972  0.5725  0.5405 -0.1340
   67MOL0     C 8768  11.354  10.525   7.030  0.3662  0.9388 -0.8467
   67MOL0     C 8769  11.474  10.514   6.956  0.0759  0.4434  0.1536
   67MOL0     O 8770  11.587  10.568   7.007 -0.2406  0.2996  0.3210
   67MOL0     C 8771  11.639  10.485   7.113 -0.8166  0.5324 -0.5166
   67MOL0     C 8772  11.762  10.411   7.062 -1.0854 -0.5101 -0.8943
   67MOL0     C 8773  11.877  10.516   7.026 -0.3069  0.1244  0.5567
   67MOL0     C 8774  11.984  10.442   6.949 -0.1924 -0.1460 -0.8233
   67MOL0     C 8775  12.102  10.530   6.916  0.4137 -0.4960  0.4586
   67MOL0     C 8776  12.199  10.596   6.893 -0.3134 -0.1355  0.4844
   67MOL0     C 8777  11.479  10.454   6.828 -0.2113 -0.0133  0.3069
   67MOL0     C 8778  11.361  10.409   6.769  0.4010  0.3896  0.8550
   67MOL0     H 8779  11.052  10.514   6.460 -0.4954  0.6095 -1.1731
   67MOL0     H 8780  10.830  10.506   6.326 -0.5975 -0.5000 -0.2519
   67MOL0     H 8781  10.770  10.278   6.153 -0.6705  0.1161 -2.2660
   67MOL0     H 8782  10.676  10.427   6.152  1.9368  0.7879  1.2918
   67MOL0     H 8783  10.553  10.149   6.155 -0.7846  0.7163 -2.5513
   67MOL0     H 8784  10.564  10.251   6.013  0.0743  1.8474  0.1181
   67MOL0     H 8785  10.376  10.367   6.097  0.4208 -0.5434 -0.5184
   67MOL0     H 8786  10.426  10.342   6.264 -1.8548 -0.1358 -0.4138
   67MOL0     H 8787  10.288  10.149   6.075  1.1313 -0.9303  1.1398
   67MOL0     H 8788  10.368  10.088   6.221  1.4326 -0.6130 -0.5021
   67MOL0     H 8789  10.100  10.176   6.206 -1.2811  3.7491 -3.0053
   67MOL0     H 8790  10.177  10.328   6.246  0.6766 -0.3042 -1.0860
   67MOL0     H 8791  10.283  10.206   6.448  2.5857 -4.5775 -1.1131
   67MOL0     H 8792  10.166  10.070   6.386 -0.7170  0.5172 -1.5542
   67MOL0     H 8793  10.061  10.217   6.575 -1.8084  1.7051 -0.2384
   67MOL0     H 8794  10.082  10.355   6.465 -0.7087  0.6271  0.2968
   67MOL0     H 8795   9.919  10.099   6.464 -1.6513  0.7122  1.1310
   67MOL0     H 8796   9.934  10.191   6.317 -0.4194 -0.4770  0.7144
   67MOL0     H 8797   9.666  10.160   6.512  0.7084 -0.8765 -0.5083
   67MOL0     H 8798   9.493  10.432   6.680 -3.6725 -1.9973  1.3108
   67MOL0     H 8799   9.502  10.273   6.633  0.9941 -0.5770 -0.3555
   67MOL0     H 8800   9.428  10.481   6.412 -1.0293 -0.8273 -1.0453
   67MOL0     H 8801   9.306  10.436   6.540 -1.2358 -5.8605  2.4780
   67MOL0     H 8802   9.414  10.259   6.318 -1.2697  2.5744 -1.1838
   67MOL0     H 8803   9.366  10.194   6.479  0.8867 -1.8471 -1.4888
   67MOL0     H 8804   9.196  10.367   6.293  1.3862  0.3679  0.4973
   67MOL0     H 8805   9.159  10.296   6.460  1.6473 -1.1538  1.7553
   67MOL0     H 8806   8.990  10.361   6.280 -0.4748  1.2420 -1.1014
   67MOL0     H 8807   8.767  10.334   6.167  0.9641  0.0058 -0.9889
   67MOL0     H 8808   8.638   9.872   5.765 -1.3368 -2.8862  1.1139
   67MOL0     H 8809   8.461   9.861   5.601  2.1541  0.9458  0.2361
   67MOL0     H 8810   8.266   9.776   5.512 -2.9616 -1.6234 -1.2311
   67MOL0     H 8811   8.288   9.952   5.471 -0.3512  0.3389  0.6144
   67MOL0     H 8812   8.104   9.892   5.337  3.0466 -0.4645  0.2421
   67MOL0     H 8813   8.009   9.916   5.488  1.8010  1.3451  0.4640
   67MOL0     H 8814   8.080   9.642   5.487 -0.3164  0.2778  0.6942
   67MOL0     H 8815   8.039   9.679   5.314 -3.2524  1.2889 -1.0853
   67MOL0     H 8816   7.853   9.751   5.544  4.0885 -3.4838  2.2440
   67MOL0     H 8817   7.828   9.797   5.378 -0.4746 -0.3957  0.3784
   67MOL0     H 8818   7.883   9.502   5.447  2.0667 -0.4088 -0.6122
   67MOL0     H 8819   7.816   9.567   5.302  0.1790  1.6492  0.1709
   67MOL0     H 8820   7.660   9.580   5.567  1.5223  0.0736  0.6233
   67MOL0     H 8821   7.648   9.454   5.430 -1.5429  0.4045 -2.3591
   67MOL0     H 8822   7.571   9.743   5.399 -0.8670 -0.8371  3.0669
   67MOL0     H 8823   7.593   9.625   5.268  1.7371  1.0373  0.1234
   67MOL0     H 8824   7.433   9.478   5.352 -0.3197  0.7523 -1.6290
   67MOL0     H 8825   7.349   9.624   5.330  0.9251 -1.3549 -0.8840
   67MOL0     H 8826   8.185  10.007   5.904 -0.0662  0.8246 -1.1491
   67MOL0     H 8827   8.349  10.031   6.049 -3.2213  1.2581 -1.4569
   67MOL0     H 8828   8.858   9.908   6.116  0.6412  0.8446 -2.4248
   67MOL0     H 8829   9.067   9.944   6.223 -1.2628 -1.7379 -2.6012
   67MOL0     H 8830  10.746  10.135   6.509  1.5461 -0.2595  1.0426
   67MOL0     H 8831  10.935  10.148   6.657  1.7005 -1.2557 -0.7284
   67MOL0     H 8832  11.139  10.482   7.024  0.5691 -1.9176  0.1442
   67MOL0     H 8833  11.335  10.581   7.122  0.4472  2.7393 -1.8834
   67MOL0     H 8834  11.571  10.405   7.143  1.8547 -0.9546  2.0975
   67MOL0     H 8835  11.666  10.530   7.209 -1.8219 -0.8575  0.4426
   67MOL0     H 8836  11.797  10.345   7.142 -0.1754  0.0434 -0.8219
   67MOL0     H 8837  11.728  10.367   6.968 -0.5574 -1.1739 -0.7824
   67MOL0     H 8838  11.914  10.556   7.121 -2.2399  1.6760  0.7172
   67MOL0     H 8839  11.822  10.592   6.969 -3.4026 -1.3227  1.3826
   67MOL0     H 8840  12.019  10.357   7.008  0.5040 -0.8006 -2.1334
   67MOL0     H 8841  11.945  10.407   6.853 -0.2697  0.1978 -0.9205
   67MOL0     H 8842  12.296  10.638   6.878  1.0524 -2.7959  1.1868
   67MOL0     H 8843  11.575  10.438   6.780 -0.7291 -0.5243 -0.5709
   67MOL0     H 8844  11.354  10.365   6.670 -2.3635  0.9853  0.7040
   68MOL0     O 8845   1.275   4.645   8.851  0.7908  0.4092 -0.5232
   68MOL0     C 8846   1.286   4.618   8.732  0.2903 -0.0973 -1.1744
   68MOL0     O 8847   1.189   4.609   8.640 -0.3095  0.5873 -0.5028
   68MOL0     C 8848   1.059   4.628   8.681 -0.6383  0.5437  1.2447
   68MOL0     C 8849   0.998   4.539   8.770  0.2549 -0.2702  0.0683
   68MOL0     C 8850   0.872   4.578   8.820  0.5159  0.6287 -1.0373
   68MOL0     C 8851   0.792   4.674   8.744 -0.4650 -0.2560 -0.3200
   68MOL0     O 8852   0.669   4.722   8.786 -0.1307 -0.0752  0.0632
   68MOL0     C 8853   0.598   4.636   8.868  0.9225  0.8256 -0.2877
   68MOL0     C 8854   0.452   4.679   8.885 -0.0556  0.1931  1.2314
   68MOL0     C 8855   0.377   4.631   9.008  0.6199  0.2165 -0.6830
   68MOL0     C 8856   0.232   4.698   8.996 -0.0975 -0.1916  0.1605
   68MOL0     C 8857   0.149   4.709   9.128  0.0794 -0.0300  0.9411
   68MOL0     C 8858   0.159   4.849   9.179 -0.0451 -0.2414  0.3177
   68MOL0     C 8859   0.074   4.869   9.314 -0.9928 -0.3945  0.1757
   68MOL0     C 8860   0.124   4.824   9.447  0.6056 -0.4324 -0.8740
   68MOL0     N 8861   0.238   4.911   9.491  0.7760 -0.8107  0.7932
   68MOL0     C 8862   0.374   4.876   9.497  0.0446  0.2767 -0.2134
   68MOL0     C 8863   0.440   4.992   9.531  0.3122  1.2926 -1.2025
   68MOL0     C 8864   0.591   5.002   9.564 -0.4438  0.3122 -0.3245
   68MOL0     C 8865   0.662   4.863   9.581 -0.2297 -0.1873  0.5781
   68MOL0     C 8866   0.805   4.882   9.635  1.4986 -0.0618  0.3515
   68MOL0     C 8867   0.893   4.952   9.530 -0.7974 -0.0003  0.1619
   68MOL0     O 8868   1.025   4.933   9.574 -0.4831 -1.2957  0.5392
   68MOL0     C 8869   1.131   5.013   9.532  0.0157 -0.1751  0.2344
   68MOL0     C 8870   1.131   5.095   9.411  0.3516  0.7550 -0.4908
   68MOL0     C 8871   1.258   5.156   9.372  0.2843  0.3876  1.1491
   68MOL0     C 8872   1.371   5.139   9.450 -1.0453 -0.3036 -0.1342
   68MOL0     C 8873   1.501   5.179   9.392  0.2333 -0.2300 -0.0043
   68MOL0     O 8874   1.614   5.128   9.445 -0.1504 -0.1309 -0.2688
   68MOL0     C 8875   1.724   5.145   9.361  0.1224 -0.3732 -0.1413
   68MOL0     C 8876   1.768   5.274   9.327 -0.4625 -0.2900  1.1590
   68MOL0     C 8877   1.901   5.292   9.280  0.0434 -0.4834  0.7905
   68MOL0     C 8878   1.984   5.183   9.258 -0.0891  0.0106 -0.3854
   68MOL0     O 8879   2.116   5.187   9.218 -0.9504  0.1181  0.5803
   68MOL0     C 8880   2.171   5.315   9.184 -0.1256  0.3720  0.3927
   68MOL0     C 8881   2.313   5.294   9.149 -0.2084  0.3633 -0.6274
   68MOL0     C 8882   2.382   5.430   9.114 -0.1518 -0.3626 -0.1409
   68MOL0     C 8883   2.538   5.410   9.144  0.4636  0.0001  1.4406
   68MOL0     C 8884   2.625   5.534   9.115  0.1602  0.0705  0.9886
   68MOL0     C 8885   2.669   5.549   8.966 -0.0710 -0.0447  0.3652
   68MOL0     C 8886   2.753   5.431   8.928  0.6442  0.1317 -0.9079
   68MOL0     C 8887   2.712   5.365   8.795  0.6749 -0.2949  0.7724
   68MOL0    Cl 8888   2.560   5.278   8.809 -0.7510  0.1548 -0.4707
   68MOL0     C 8889   1.935   5.051   9.291  0.3559  0.1239 -0.4479
   68MOL0     C 8890   1.808   5.031   9.341  0.4568 -0.5031 -0.8159
   68MOL0     O 8891   1.500   5.246   9.286  0.8405 -0.1936  0.7087
   68MOL0     C 8892   1.375   5.053   9.567  0.3538  0.0301  0.6723
   68MOL0     C 8893   1.252   4.995   9.606 -1.3371  0.5633 -0.3146
   68MOL0     N 8894   0.340   5.089   9.557  0.5036  0.3709  0.2475
   68MOL0     N 8895   0.226   5.039   9.528 -0.0303 -0.3227  0.5156
   68MOL0     C 8896   0.856   4.744   8.649  0.0557 -0.1116 -0.0915
   68MOL0     C 8897   0.991   4.727   8.619 -0.8630 -0.0516 -0.9997
   68MOL0     C 8898   1.416   4.588   8.678 -0.4527 -0.7663  0.5939
   68MOL0     C 8899   1.435   4.548   8.547 -0.1519 -0.3023  1.0517
   68MOL0     C 8900   1.560   4.543   8.501 -0.1965  0.3986  0.2958
   68MOL0     C 8901   1.674   4.567   8.575  0.1256 -0.0095  0.3555
   68MOL0     O 8902   1.799   4.543   8.527 -0.0178 -0.3902  0.2270
   68MOL0     C 8903   1.866   4.424   8.578  0.3510 -0.9630  0.1863
   68MOL0     C 8904   2.016   4.431   8.545  0.0200  0.2338 -0.2612
   68MOL0     C 8905   2.080   4.556   8.603 -0.8099 -0.1214 -0.6535
   68MOL0     C 8906   2.060   4.581   8.757 -0.4544  0.3272 -0.1597
   68MOL0     C 8907   2.088   4.463   8.831  0.4294 -0.0257  0.1968
   68MOL0     C 8908   2.098   4.373   8.913 -0.7001  0.2179  0.5354
   68MOL0     C 8909   1.655   4.605   8.708  0.2790 -0.0903 -0.3070
   68MOL0     C 8910   1.522   4.614   8.754 -0.4419  0.2549 -0.6127
   68MOL0     H 8911   1.045   4.456   8.824  0.6507  0.0965  0.2928
   68MOL0     H 8912   0.838   4.529   8.910 -0.9664  0.8115 -1.4572
   68MOL0     H 8913   0.626   4.647   8.973 -1.0568 -0.0448  0.3812
   68MOL0     H 8914   0.603   4.532   8.834 -2.9004  1.0918 -2.1526
   68MOL0     H 8915   0.395   4.642   8.799  1.4696  2.0532 -0.6744
   68MOL0     H 8916   0.443   4.787   8.874 -3.1314 -0.2639 -3.2834
   68MOL0     H 8917   0.423   4.653   9.104  1.2583  1.2115 -1.1933
   68MOL0     H 8918   0.355   4.524   9.005 -0.7839  0.2942  2.8669
   68MOL0     H 8919   0.255   4.798   8.957 -3.3564  1.5673  2.2723
   68MOL0     H 8920   0.181   4.648   8.913  1.2005  1.6189 -1.8610
   68MOL0     H 8921   0.191   4.644   9.205 -0.0878 -1.8496 -0.4513
   68MOL0     H 8922   0.042   4.687   9.117 -0.3487  1.9294  0.8102
   68MOL0     H 8923   0.110   4.921   9.113 -0.9569 -0.3164  0.8813
   68MOL0     H 8924   0.262   4.885   9.179 -0.3806  1.1387 -3.0983
   68MOL0     H 8925   0.050   4.976   9.321  0.8636  0.0686 -0.0546
   68MOL0     H 8926  -0.019   4.815   9.292 -0.2096 -1.4605 -0.6122
   68MOL0     H 8927   0.144   4.716   9.439  0.7785 -0.3147 -2.3284
   68MOL0     H 8928   0.038   4.830   9.514  0.7555  0.8386 -0.7771
   68MOL0     H 8929   0.434   4.790   9.468 -0.1853  0.0752 -0.0963
   68MOL0     H 8930   0.607   5.067   9.650 -1.7437  1.7068 -1.0701
   68MOL0     H 8931   0.639   5.055   9.481  1.2314 -0.1051  0.3483
   68MOL0     H 8932   0.680   4.809   9.488 -2.2455 -1.2248  0.7168
   68MOL0     H 8933   0.608   4.790   9.642  1.8912 -3.3109 -1.0015
   68MOL0     H 8934   0.805   4.942   9.726 -0.6235  1.0008 -0.2658
   68MOL0     H 8935   0.831   4.780   9.663 -3.9398 -0.9116  3.8232
   68MOL0     H 8936   0.858   5.055   9.529 -1.8384 -0.3395 -0.6314
   68MOL0     H 8937   0.890   4.904   9.431  1.0088 -2.1208  1.0542
   68MOL0     H 8938   1.039   5.119   9.360 -0.6720  2.0961  1.8541
   68MOL0     H 8939   1.259   5.212   9.279  0.7755 -0.6422  0.5131
   68MOL0     H 8940   1.705   5.359   9.350 -0.0542 -0.0735  1.4748
   68MOL0     H 8941   1.932   5.396   9.273  0.3489 -0.6790 -1.6254
   68MOL0     H 8942   2.167   5.383   9.270  3.1328 -0.2295  1.1607
   68MOL0     H 8943   2.119   5.356   9.098  1.3245 -1.4028 -1.4175
   68MOL0     H 8944   2.331   5.226   9.066  0.9841  1.8338 -1.6364
   68MOL0     H 8945   2.352   5.248   9.241 -1.7679 -0.0007 -0.1121
   68MOL0     H 8946   2.341   5.519   9.162 -0.3433 -0.5299  0.0077
   68MOL0     H 8947   2.372   5.451   9.008 -0.9936  2.8709  0.4853
   68MOL0     H 8948   2.561   5.396   9.250  0.5070  0.3514  1.4803
   68MOL0     H 8949   2.568   5.317   9.095  0.9726  0.9977 -0.2208
   68MOL0     H 8950   2.711   5.540   9.183  0.2504  2.9121  0.7447
   68MOL0     H 8951   2.573   5.627   9.140  0.5479  0.6737 -0.3383
   68MOL0     H 8952   2.714   5.641   8.929  0.7119 -1.4303 -2.3825
   68MOL0     H 8953   2.581   5.554   8.902 -0.0648  1.0499  0.4246
   68MOL0     H 8954   2.859   5.455   8.917  1.0308 -0.9479  0.1856
   68MOL0     H 8955   2.746   5.348   9.000 -3.3817  0.8800 -0.2149
   68MOL0     H 8956   2.794   5.298   8.768  1.0399  1.8909 -5.0029
   68MOL0     H 8957   2.700   5.437   8.713 -3.4037  0.4652  1.8088
   68MOL0     H 8958   1.998   4.964   9.292 -0.0346 -0.1602  0.7400
   68MOL0     H 8959   1.784   4.935   9.385  3.3543 -0.0244  2.2368
   68MOL0     H 8960   1.472   5.038   9.613  1.2469 -0.7757 -1.3875
   68MOL0     H 8961   1.252   4.931   9.694 -1.3222 -1.7896 -1.9493
   68MOL0     H 8962   0.800   4.820   8.597 -0.7564 -1.9320 -2.0127
   68MOL0     H 8963   1.061   4.787   8.561  2.3651  0.5472  3.0882
   68MOL0     H 8964   1.358   4.529   8.473  0.3802  0.4607  0.2775
   68MOL0     H 8965   1.574   4.507   8.399  0.5410  0.4163  0.3842
   68MOL0     H 8966   1.824   4.335   8.531  1.7834 -1.6968  0.2384
   68MOL0     H 8967   1.838   4.424   8.684  0.5175  1.4461  0.2943
   68MOL0     H 8968   2.071   4.342   8.577  2.7919  1.9436  0.1436
   68MOL0     H 8969   2.038   4.442   8.438  0.0889 -1.4342 -0.4423
   68MOL0     H 8970   2.054   4.650   8.552 -0.3499  0.2714 -0.1727
   68MOL0     H 8971   2.185   4.556   8.573 -0.4790 -0.8446  0.4441
   68MOL0     H 8972   2.128   4.661   8.790 -1.5330  0.0766  3.0490
   68MOL0     H 8973   1.957   4.610   8.781 -1.1380 -2.2406  0.2541
   68MOL0     H 8974   2.122   4.286   8.970 -0.3780 -1.8162 -2.4752
   68MOL0     H 8975   1.742   4.624   8.771 -1.1371 -1.4432  2.2236
   68MOL0     H 8976   1.511   4.653   8.855 -1.1014 -0.2612 -0.4790
   69MOL0     O 8977   9.355   7.693   7.490 -0.0097  0.0896  0.4145
   69MOL0     C 8978   9.366   7.608   7.570  0.2680 -0.2009 -0.9991
   69MOL0     O 8979   9.487   7.567   7.624  0.1929 -0.4437 -0.2308
   69MOL0     C 8980   9.591   7.659   7.626 -0.3400  0.7301 -0.9688
   69MOL0     C 8981   9.714   7.606   7.590 -1.3371 -0.8264  0.7479
   69MOL0     C 8982   9.828   7.680   7.624 -0.5640 -0.0863 -0.4291
   69MOL0     C 8983   9.824   7.806   7.675  0.4583  0.3271 -0.3887
   69MOL0     O 8984   9.946   7.864   7.688 -0.8044 -0.9724 -0.2993
   69MOL0     C 8985   9.966   7.981   7.774 -0.1742  0.0457 -0.5730
   69MOL0     C 8986  10.097   8.044   7.761 -1.3968  0.7168  0.2062
   69MOL0     C 8987  10.217   7.958   7.809  0.0111 -0.2190  0.0512
   69MOL0     C 8988  10.229   7.963   7.971 -0.0043  0.5029  0.9821
   69MOL0     C 8989  10.356   7.892   8.021  0.9744 -0.3048  0.1572
   69MOL0     C 8990  10.324   7.832   8.163 -0.5167 -0.4288 -0.4964
   69MOL0     C 8991  10.453   7.765   8.228 -0.5170  0.2932 -0.8330
   69MOL0     C 8992  10.514   7.637   8.163  0.0308  0.4945  0.4491
   69MOL0     N 8993  10.565   7.672   8.032  0.5452 -0.5782 -0.0506
   69MOL0     C 8994  10.669   7.754   8.003 -0.5978 -0.1291  0.0288
   69MOL0     C 8995  10.686   7.738   7.872 -0.1276 -0.3886 -0.1149
   69MOL0     C 8996  10.785   7.819   7.789  0.0328 -0.6224 -0.6544
   69MOL0     C 8997  10.909   7.876   7.871 -0.3004  0.2056 -0.0652
   69MOL0     C 8998  11.016   7.881   7.761  0.1999 -0.8488 -0.4926
   69MOL0     C 8999  11.151   7.917   7.809  0.6269  0.1197 -0.5621
   69MOL0     O 9000  11.201   7.824   7.908 -0.2815  0.1277 -0.0043
   69MOL0     C 9001  11.326   7.833   7.947 -1.7120 -0.0346 -0.5550
   69MOL0     C 9002  11.405   7.947   7.940 -0.0061  1.0333 -0.7064
   69MOL0     C 9003  11.537   7.951   7.989 -0.4407 -0.4606  0.3958
   69MOL0     C 9004  11.594   7.838   8.053 -0.2106  0.1658  1.0712
   69MOL0     C 9005  11.723   7.852   8.120 -0.0520  0.2979  0.1493
   69MOL0     O 9006  11.774   7.733   8.140 -1.0024 -0.3509  0.1729
   69MOL0     C 9007  11.903   7.725   8.191 -1.5279 -0.7156 -0.4244
   69MOL0     C 9008  11.987   7.633   8.132  0.8613  0.2373  0.1966
   69MOL0     C 9009  12.114   7.613   8.190  0.6109  0.2035  0.0436
   69MOL0     C 9010  12.156   7.682   8.305 -0.1171 -0.9581 -0.9346
   69MOL0     O 9011  12.283   7.677   8.365  0.5153  0.1808  0.1982
   69MOL0     C 9012  12.402   7.692   8.286  0.6048 -0.5331  0.9203
   69MOL0     C 9013  12.473   7.563   8.299 -0.5996  0.5452 -0.2519
   69MOL0     C 9014  12.510   7.518   8.445 -0.6419  0.0388  0.7864
   69MOL0     C 9015  12.592   7.387   8.441 -0.6861  0.0732  0.4519
   69MOL0     C 9016  12.662   7.379   8.585  0.9654  0.3592 -0.5978
   69MOL0     C 9017  12.741   7.251   8.592 -0.1147  0.6819  0.2130
   69MOL0     C 9018  12.820   7.223   8.725 -0.2294 -0.6238  0.1778
   69MOL0     C 9019  12.862   7.074   8.737 -0.5375  0.6631 -0.4594
   69MOL0    Cl 9020  12.734   7.004   8.842 -0.3479 -0.3212 -0.3997
   69MOL0     C 9021  12.067   7.767   8.365  0.0395 -0.1731  0.8018
   69MOL0     C 9022  11.952   7.798   8.298  0.7592  0.2401 -0.9673
   69MOL0     O 9023  11.768   7.967   8.147 -0.1269  0.0673  0.2722
   69MOL0     C 9024  11.514   7.723   8.058 -0.3938  0.1175 -0.1859
   69MOL0     C 9025  11.382   7.722   8.000  0.5932 -0.6976  0.7269
   69MOL0     N 9026  10.594   7.637   7.826 -1.0422  0.7589 -0.1357
   69MOL0     N 9027  10.524   7.602   7.929 -0.0768 -0.2851 -0.2475
   69MOL0     C 9028   9.698   7.857   7.705 -0.1056  0.4424  0.1881
   69MOL0     C 9029   9.583   7.780   7.689 -0.1482  0.2029 -0.4343
   69MOL0     C 9030   9.236   7.554   7.610  0.1058  0.0617 -0.0518
   69MOL0     C 9031   9.237   7.463   7.708 -0.7136 -0.4699 -0.3417
   69MOL0     C 9032   9.118   7.422   7.761 -0.0952 -0.4800 -0.6276
   69MOL0     C 9033   8.997   7.478   7.727  0.2695  0.0928 -0.3308
   69MOL0     O 9034   8.885   7.441   7.800  1.1465 -0.4207  0.1834
   69MOL0     C 9035   8.749   7.485   7.761  0.8059  0.1622 -0.4426
   69MOL0     C 9036   8.651   7.385   7.826  0.4583  0.6433 -0.2637
   69MOL0     C 9037   8.512   7.415   7.783 -0.1867 -1.1262  0.2333
   69MOL0     C 9038   8.451   7.537   7.870 -0.5237 -0.7245 -0.5197
   69MOL0     C 9039   8.306   7.536   7.868 -0.0493 -0.9045 -1.0130
   69MOL0     C 9040   8.183   7.522   7.871 -0.3330  0.1795  0.9341
   69MOL0     C 9041   8.997   7.565   7.618  0.9982 -0.0257 -0.5782
   69MOL0     C 9042   9.110   7.590   7.548 -0.6920 -0.5981  1.2730
   69MOL0     H 9043   9.715   7.502   7.559  0.3750 -1.7867  3.6196
   69MOL0     H 9044   9.919   7.631   7.591  0.7524  0.7257  1.7661
   69MOL0     H 9045   9.947   7.948   7.877 -1.6015 -1.7893 -1.3639
   69MOL0     H 9046   9.896   8.064   7.760  0.6085  1.4234  2.6992
   69MOL0     H 9047  10.104   8.135   7.822 -0.1539 -0.1248  1.3780
   69MOL0     H 9048  10.115   8.058   7.654  1.6421 -2.0137  0.2241
   69MOL0     H 9049  10.312   7.998   7.774  0.3804 -0.0873  1.1657
   69MOL0     H 9050  10.197   7.857   7.772  1.1062 -0.9799  1.4702
   69MOL0     H 9051  10.229   8.067   8.005  1.8900  0.5800  0.8366
   69MOL0     H 9052  10.136   7.915   8.005 -1.2872  0.6600 -1.9673
   69MOL0     H 9053  10.448   7.951   8.029  1.4263 -0.7164 -1.6123
   69MOL0     H 9054  10.370   7.816   7.945 -1.6892  1.4807 -2.3426
   69MOL0     H 9055  10.242   7.761   8.147 -1.4986  0.7180 -0.6675
   69MOL0     H 9056  10.279   7.907   8.230 -1.0613 -2.4064  1.4785
   69MOL0     H 9057  10.531   7.837   8.254 -1.7867  0.2011  4.3136
   69MOL0     H 9058  10.415   7.726   8.323 -1.9130 -0.5756 -1.6960
   69MOL0     H 9059  10.448   7.550   8.157  4.1447 -3.0881  1.8578
   69MOL0     H 9060  10.596   7.602   8.226 -1.7213 -1.8882  1.5607
   69MOL0     H 9061  10.710   7.836   8.061 -2.4370 -0.2621  1.6254
   69MOL0     H 9062  10.726   7.902   7.749  0.2415  1.1718  2.3953
   69MOL0     H 9063  10.822   7.757   7.707  0.9645 -2.1501  0.8420
   69MOL0     H 9064  10.940   7.796   7.938  1.1642  0.0723 -0.8670
   69MOL0     H 9065  10.890   7.974   7.915  2.0471 -0.1593  1.9732
   69MOL0     H 9066  11.016   7.784   7.711 -0.6466 -0.4784 -1.2434
   69MOL0     H 9067  10.992   7.964   7.693 -0.2743  1.1400  1.9364
   69MOL0     H 9068  11.148   8.017   7.855  1.6567 -1.6813  4.0175
   69MOL0     H 9069  11.209   7.919   7.716  0.7182  2.6414 -0.5441
   69MOL0     H 9070  11.366   8.039   7.898 -0.6005  1.6851  1.1754
   69MOL0     H 9071  11.589   8.046   7.980  0.8529 -1.3804 -2.9275
   69MOL0     H 9072  11.944   7.581   8.046  2.7715  0.3290 -0.8738
   69MOL0     H 9073  12.181   7.549   8.133 -1.7275 -3.1163  0.7330
   69MOL0     H 9074  12.463   7.776   8.321  0.8269 -1.2616  2.4020
   69MOL0     H 9075  12.390   7.711   8.179 -1.8912 -1.4914  0.9781
   69MOL0     H 9076  12.565   7.577   8.242 -0.9015  0.0473 -0.8733
   69MOL0     H 9077  12.408   7.486   8.257 -2.5208  0.1580  3.0536
   69MOL0     H 9078  12.423   7.494   8.506 -2.1777 -0.5240 -1.4737
   69MOL0     H 9079  12.571   7.592   8.497 -0.1800  0.4240 -0.2678
   69MOL0     H 9080  12.527   7.301   8.424 -2.1737  1.1469  0.5345
   69MOL0     H 9081  12.659   7.400   8.355  1.5181  0.2942  2.1188
   69MOL0     H 9082  12.584   7.384   8.662  0.3703  1.5819 -1.2414
   69MOL0     H 9083  12.731   7.461   8.605  0.2328  0.7853  0.2589
   69MOL0     H 9084  12.817   7.262   8.514  0.6313  0.2663  0.8669
   69MOL0     H 9085  12.679   7.163   8.572 -0.6932  0.9126  0.9530
   69MOL0     H 9086  12.911   7.282   8.713 -0.2223 -0.8087 -0.7137
   69MOL0     H 9087  12.770   7.255   8.817 -1.7734 -1.1397 -0.4608
   69MOL0     H 9088  12.958   7.064   8.788 -0.1325 -0.0764 -1.3395
   69MOL0     H 9089  12.868   7.023   8.641 -1.5306 -1.4554  0.5243
   69MOL0     H 9090  12.089   7.815   8.460 -0.6890  2.2276 -0.1660
   69MOL0     H 9091  11.898   7.872   8.355  3.2913  0.5742  1.2007
   69MOL0     H 9092  11.548   7.630   8.103 -0.5249 -0.6052 -1.5316
   69MOL0     H 9093  11.320   7.634   8.011 -0.8452  0.5577  3.7504
   69MOL0     H 9094   9.691   7.954   7.753 -0.3284 -0.0596  1.2046
   69MOL0     H 9095   9.497   7.833   7.729 -0.9537 -0.8287 -0.7586
   69MOL0     H 9096   9.331   7.422   7.745  0.6621  3.4525  1.0346
   69MOL0     H 9097   9.116   7.352   7.844 -0.5029 -0.7425 -0.8554
   69MOL0     H 9098   8.727   7.479   7.654  2.2634  0.4734 -0.7866
   69MOL0     H 9099   8.727   7.584   7.803 -0.2616  0.0907 -0.8116
   69MOL0     H 9100   8.677   7.284   7.790  1.6417  0.1734  1.7833
   69MOL0     H 9101   8.666   7.371   7.933  2.0242 -5.3116 -0.8629
   69MOL0     H 9102   8.448   7.333   7.814 -3.3070 -0.5871 -3.8387
   69MOL0     H 9103   8.495   7.447   7.679  0.1180  3.1321  1.2988
   69MOL0     H 9104   8.485   7.527   7.973 -0.5056  5.1041  0.3545
   69MOL0     H 9105   8.487   7.634   7.834 -0.1981 -1.5600 -2.6115
   69MOL0     H 9106   8.078   7.517   7.854 -0.2875  3.1034 -1.0878
   69MOL0     H 9107   8.903   7.609   7.586 -0.9245 -2.7688  0.9264
   69MOL0     H 9108   9.113   7.658   7.464  4.5328 -2.2306 -0.2741
   70MOL0     O 9109   9.879   5.342   4.274 -0.3167 -0.2670  0.4276
   70MOL0     C 9110   9.894   5.446   4.211  1.5114  0.0395  0.8770
   70MOL0     O 9111   9.815   5.499   4.115  0.7447  0.4659 -0.0905
   70MOL0     C 9112   9.676   5.460   4.119 -0.0766 -0.1162  1.1214
   70MOL0     C 9113   9.606   5.468   4.000  0.0937  0.5545 -0.1706
   70MOL0     C 9114   9.479   5.422   3.987 -0.4155  0.8225 -0.3865
   70MOL0     C 9115   9.406   5.383   4.101 -0.3221  0.1988 -0.8057
   70MOL0     O 9116   9.269   5.355   4.095 -0.2109 -0.1414 -0.4800
   70MOL0     C 9117   9.181   5.440   4.020  0.3939  0.1572  0.4742
   70MOL0     C 9118   9.036   5.409   4.040 -0.3770  0.0141 -0.5086
   70MOL0     C 9119   8.945   5.499   3.956  0.0439  0.0682  0.4517
   70MOL0     C 9120   8.794   5.453   3.932  0.8974 -0.2178 -0.5196
   70MOL0     C 9121   8.691   5.572   3.953  0.3248 -0.5627  1.0649
   70MOL0     C 9122   8.545   5.520   3.960 -0.4039 -0.3988  0.0877
   70MOL0     C 9123   8.459   5.631   4.015  0.0418 -0.5636  0.3525
   70MOL0     C 9124   8.309   5.596   3.988 -0.0857  0.0348  0.1198
   70MOL0     N 9125   8.222   5.695   4.052  0.4953  0.3783  0.0265
   70MOL0     C 9126   8.145   5.684   4.163  0.3346  0.2110 -1.1201
   70MOL0     C 9127   8.078   5.798   4.174 -0.0600  0.1071  0.1995
   70MOL0     C 9128   7.987   5.850   4.282  1.2949 -0.8429  1.0360
   70MOL0     C 9129   7.846   5.785   4.277  0.0044 -1.6827 -0.8954
   70MOL0     C 9130   7.776   5.817   4.415  0.0144  0.8543  0.1436
   70MOL0     C 9131   7.618   5.822   4.400  0.1918 -0.1284 -0.4739
   70MOL0     O 9132   7.570   5.784   4.533 -0.7411  0.4097 -0.0204
   70MOL0     C 9133   7.435   5.761   4.558 -0.0798 -0.2371  0.2607
   70MOL0     C 9134   7.345   5.768   4.451 -0.6920  0.0790  0.1192
   70MOL0     C 9135   7.202   5.756   4.476  0.0467 -0.3693  0.2115
   70MOL0     C 9136   7.152   5.745   4.608 -0.5109  0.0723  0.1634
   70MOL0     C 9137   7.010   5.743   4.637  0.8580  0.0114 -0.5687
   70MOL0     O 9138   6.937   5.698   4.537  0.3004 -0.4222  0.2796
   70MOL0     C 9139   6.795   5.698   4.540  0.0961 -0.9240 -0.8481
   70MOL0     C 9140   6.727   5.681   4.658  0.4937 -0.5205  0.0924
   70MOL0     C 9141   6.586   5.675   4.654 -0.8636 -0.0667 -0.1236
   70MOL0     C 9142   6.515   5.681   4.535  0.0132  0.0012 -0.1699
   70MOL0     O 9143   6.377   5.670   4.534 -0.3172 -0.3513 -0.0432
   70MOL0     C 9144   6.299   5.656   4.421  0.6754 -0.6879 -0.0367
   70MOL0     C 9145   6.156   5.619   4.471 -0.8386 -0.6230  0.7286
   70MOL0     C 9146   6.077   5.538   4.364 -0.4519 -0.1012  0.2722
   70MOL0     C 9147   5.934   5.524   4.400  0.1854 -0.1400 -1.5305
   70MOL0     C 9148   5.908   5.448   4.528  1.2272 -0.2175  1.2094
   70MOL0     C 9149   5.763   5.397   4.525 -0.8679  1.0159  0.0440
   70MOL0     C 9150   5.739   5.310   4.648  0.7599  0.0848 -0.4532
   70MOL0     C 9151   5.617   5.227   4.639 -0.3881  0.6948  0.5930
   70MOL0    Cl 9152   5.480   5.326   4.642 -0.1669  0.2267 -0.6467
   70MOL0     C 9153   6.588   5.693   4.418 -0.5390  1.0615 -0.2146
   70MOL0     C 9154   6.721   5.703   4.421 -0.6133  0.0119 -0.3907
   70MOL0     O 9155   6.976   5.805   4.741 -0.1881  0.5778  1.0557
   70MOL0     C 9156   7.252   5.716   4.707  0.1354  0.2173  0.4079
   70MOL0     C 9157   7.387   5.728   4.684  0.0665 -0.0873  0.4358
   70MOL0     N 9158   8.112   5.882   4.064  0.1885 -0.2716 -0.5300
   70MOL0     N 9159   8.207   5.819   4.001  0.6518  0.3051 -0.0199
   70MOL0     C 9160   9.476   5.360   4.231 -0.2127  0.7109  1.7077
   70MOL0     C 9161   9.609   5.414   4.233  0.8315  0.3710 -0.2024
   70MOL0     C 9162  10.027   5.519   4.228  0.6302 -1.2976 -0.3543
   70MOL0     C 9163  10.116   5.476   4.333 -0.4917 -1.1713 -0.9314
   70MOL0     C 9164  10.247   5.529   4.354 -0.1424 -0.2050  0.1765
   70MOL0     C 9165  10.283   5.636   4.277 -0.5361  0.1321 -0.3631
   70MOL0     O 9166  10.410   5.686   4.292 -0.0592 -0.1276 -0.1699
   70MOL0     C 9167  10.468   5.771   4.188  0.4234  0.5732 -0.1390
   70MOL0     C 9168  10.620   5.771   4.194 -0.1333  0.4615  0.2048
   70MOL0     C 9169  10.677   5.853   4.316 -0.3517 -0.1173 -0.5458
   70MOL0     C 9170  10.768   5.776   4.421 -0.7238  0.2139  0.3066
   70MOL0     C 9171  10.833   5.862   4.521 -0.1253 -0.0108 -0.0468
   70MOL0     C 9172  10.900   5.937   4.593 -0.7808  0.1092 -0.1384
   70MOL0     C 9173  10.196   5.685   4.172  0.2650  0.0692 -0.4737
   70MOL0     C 9174  10.067   5.625   4.150 -0.6811  1.2676 -1.0972
   70MOL0     H 9175   9.669   5.485   3.913  0.6306  0.8446  0.2731
   70MOL0     H 9176   9.425   5.423   3.892  0.2549  1.0877 -0.7703
   70MOL0     H 9177   9.196   5.429   3.912 -1.8033  1.5120 -0.0287
   70MOL0     H 9178   9.193   5.546   4.046 -2.6382  1.0947 -1.3411
   70MOL0     H 9179   9.012   5.414   4.146  1.3896 -3.1949  0.1706
   70MOL0     H 9180   9.017   5.304   4.014  1.8295 -0.8809  1.2359
   70MOL0     H 9181   8.995   5.503   3.859 -0.3765  0.2063  0.2406
   70MOL0     H 9182   8.945   5.598   4.003  1.7343  0.1145  0.4355
   70MOL0     H 9183   8.778   5.413   3.832 -0.8598  0.1093 -0.4065
   70MOL0     H 9184   8.756   5.374   3.997  0.1373  0.3857 -0.2069
   70MOL0     H 9185   8.691   5.642   3.869 -0.3855 -0.2214  1.3402
   70MOL0     H 9186   8.710   5.623   4.048  1.4807 -1.9120  1.6015
   70MOL0     H 9187   8.547   5.429   4.022  1.5966  0.9065  2.1073
   70MOL0     H 9188   8.523   5.494   3.856  0.8808 -2.3640  0.2498
   70MOL0     H 9189   8.472   5.640   4.123 -0.0099 -0.4041  0.3457
   70MOL0     H 9190   8.483   5.730   3.977  0.5836 -0.9557 -0.3465
   70MOL0     H 9191   8.284   5.493   4.015  4.0770 -1.5772 -1.2826
   70MOL0     H 9192   8.292   5.593   3.881 -1.9037  0.5596  0.3661
   70MOL0     H 9193   8.144   5.606   4.239  0.2542 -1.0015 -2.3107
   70MOL0     H 9194   7.972   5.958   4.270  2.9255 -0.8865 -2.5107
   70MOL0     H 9195   8.040   5.830   4.376  1.7519 -0.1817  0.9347
   70MOL0     H 9196   7.853   5.676   4.271 -0.4057 -1.7292 -0.5444
   70MOL0     H 9197   7.785   5.809   4.189 -1.6348 -0.9662  0.3797
   70MOL0     H 9198   7.798   5.728   4.474  0.8324 -0.0487 -1.4693
   70MOL0     H 9199   7.809   5.907   4.467  0.8886  1.2611 -1.0571
   70MOL0     H 9200   7.589   5.748   4.325 -0.8373  1.7538 -2.0239
   70MOL0     H 9201   7.585   5.924   4.380 -0.8819 -0.8240 -2.5336
   70MOL0     H 9202   7.377   5.796   4.351 -0.2864  0.4378  0.3468
   70MOL0     H 9203   7.117   5.776   4.411  0.2847  0.2927  0.0955
   70MOL0     H 9204   6.776   5.678   4.755  2.7078 -0.6759 -0.9730
   70MOL0     H 9205   6.528   5.663   4.745  1.1220  0.2623  1.2454
   70MOL0     H 9206   6.333   5.574   4.357  0.8018  0.6850 -1.7973
   70MOL0     H 9207   6.294   5.743   4.355 -0.9037  0.7021  1.7953
   70MOL0     H 9208   6.100   5.713   4.477 -2.4586 -1.5266  0.2256
   70MOL0     H 9209   6.170   5.575   4.570  0.9315  2.0747  1.8076
   70MOL0     H 9210   6.121   5.439   4.350 -0.0648  0.0944  0.0990
   70MOL0     H 9211   6.081   5.588   4.267 -0.0020 -1.1215 -0.2461
   70MOL0     H 9212   5.888   5.623   4.410  0.7239 -0.0022 -0.3327
   70MOL0     H 9213   5.883   5.468   4.321 -0.5569 -0.8073 -0.5980
   70MOL0     H 9214   5.921   5.505   4.621  2.6499 -0.9504  1.4960
   70MOL0     H 9215   5.975   5.362   4.539  1.4114  0.0235  2.1094
   70MOL0     H 9216   5.752   5.331   4.439 -0.6732  0.8645  0.1329
   70MOL0     H 9217   5.684   5.470   4.510 -1.7189 -0.4835 -4.0183
   70MOL0     H 9218   5.826   5.244   4.661  0.7201 -0.1579 -1.3732
   70MOL0     H 9219   5.736   5.370   4.740  2.6461 -1.9315  1.0554
   70MOL0     H 9220   5.610   5.164   4.728  2.2441 -1.0245 -0.2923
   70MOL0     H 9221   5.619   5.167   4.547 -1.1397 -0.5920  1.3806
   70MOL0     H 9222   6.532   5.698   4.326 -3.5022 -0.8167  1.3405
   70MOL0     H 9223   6.783   5.712   4.332  0.3801  2.8445  0.4835
   70MOL0     H 9224   7.227   5.693   4.810 -0.6124 -0.5179  0.0772
   70MOL0     H 9225   7.468   5.709   4.754 -0.0069 -0.3271  0.4562
   70MOL0     H 9226   9.410   5.317   4.305 -3.4934  2.1020 -0.1817
   70MOL0     H 9227   9.648   5.434   4.332  1.2224 -1.0187 -0.0670
   70MOL0     H 9228  10.095   5.401   4.409  1.0770  0.9409  1.7454
   70MOL0     H 9229  10.310   5.487   4.431  0.0373  1.4083  0.9345
   70MOL0     H 9230  10.434   5.872   4.213 -1.2971 -0.2069  0.7869
   70MOL0     H 9231  10.434   5.735   4.090  1.6364  1.4719 -0.9226
   70MOL0     H 9232  10.657   5.668   4.189 -0.8455  0.1937  0.1883
   70MOL0     H 9233  10.656   5.829   4.108 -0.7439  2.0114  0.9569
   70MOL0     H 9234  10.591   5.894   4.370 -1.6625 -0.2395 -2.4469
   70MOL0     H 9235  10.734   5.942   4.286  0.7277 -0.1872  1.1004
   70MOL0     H 9236  10.710   5.704   4.480 -1.0260  1.8099  2.0592
   70MOL0     H 9237  10.840   5.716   4.365 -1.4359 -1.4096  1.0651
   70MOL0     H 9238  10.962   5.993   4.660  0.9112 -0.3704 -1.2360
   70MOL0     H 9239  10.221   5.763   4.101  3.3608  0.0231  0.4534
   70MOL0     H 9240  10.002   5.649   4.066 -1.2294 -0.8166 -1.3363
   71MOL0     O 9241   5.262   6.215  10.154 -0.3073 -0.5063  0.7376
   71MOL0     C 9242   5.288   6.296  10.068 -1.3190 -0.1869 -0.1120
   71MOL0     O 9243   5.207   6.393  10.017 -0.2885  0.1354 -0.0508
   71MOL0     C 9244   5.080   6.406  10.080  0.1860 -0.4475 -0.9869
   71MOL0     C 9245   4.977   6.438   9.994  0.7839  0.2799  0.8516
   71MOL0     C 9246   4.845   6.453  10.033  0.4483 -0.4529  0.5113
   71MOL0     C 9247   4.809   6.444  10.170 -0.6708  0.8035 -0.7637
   71MOL0     O 9248   4.692   6.478  10.232 -0.7203 -0.3168  0.5731
   71MOL0     C 9249   4.627   6.578  10.166 -0.8897  1.0482 -0.1510
   71MOL0     C 9250   4.554   6.649  10.263  0.4607 -0.4625 -0.0506
   71MOL0     C 9251   4.479   6.771  10.211  0.6585 -0.8669  0.2328
   71MOL0     C 9252   4.356   6.724  10.135 -0.2884 -0.5425 -0.2816
   71MOL0     C 9253   4.274   6.845  10.064  0.2458 -0.3168 -0.6163
   71MOL0     C 9254   4.164   6.778   9.987  0.9525  0.4341 -0.0581
   71MOL0     C 9255   4.063   6.877   9.926 -0.4685  0.5258 -0.4807
   71MOL0     C 9256   3.984   6.969  10.022  0.8851  0.5681  0.4002
   71MOL0     N 9257   3.889   7.059   9.956 -0.0390  0.4706 -0.4286
   71MOL0     C 9258   3.930   7.181   9.903 -0.3002  0.5684  0.6463
   71MOL0     C 9259   3.820   7.220   9.824  0.2619 -0.6324  0.0100
   71MOL0     C 9260   3.827   7.350   9.756 -1.2459 -0.7713  0.1374
   71MOL0     C 9261   3.790   7.334   9.612 -0.3320  1.0860 -0.7528
   71MOL0     C 9262   3.819   7.461   9.536 -0.6427  0.3683  0.7363
   71MOL0     C 9263   3.785   7.453   9.383 -0.2559  0.1133  0.3596
   71MOL0     O 9264   3.863   7.352   9.319  0.5620  0.1670  0.3047
   71MOL0     C 9265   3.805   7.257   9.239  0.9235  0.3656  0.0591
   71MOL0     C 9266   3.667   7.212   9.239  0.0758 -0.4817  0.6150
   71MOL0     C 9267   3.633   7.113   9.145  0.6999 -0.2301  0.5730
   71MOL0     C 9268   3.718   7.049   9.059  0.1335  0.1157  0.4906
   71MOL0     C 9269   3.671   6.924   8.981 -0.1705 -0.3054 -0.1342
   71MOL0     O 9270   3.542   6.883   9.008  0.0650 -0.4872 -0.0871
   71MOL0     C 9271   3.483   6.783   8.934  0.6298 -0.3965 -0.0666
   71MOL0     C 9272   3.465   6.794   8.790 -0.3200 -0.1618 -0.4531
   71MOL0     C 9273   3.393   6.697   8.722 -0.3723  0.7901  0.0860
   71MOL0     C 9274   3.342   6.579   8.787  0.6029 -0.6446  0.3846
   71MOL0     O 9275   3.283   6.467   8.725  0.6366 -0.3671 -0.3046
   71MOL0     C 9276   3.240   6.477   8.585  0.3603 -0.3663  0.3058
   71MOL0     C 9277   3.187   6.340   8.530  0.3214 -0.0432 -0.6227
   71MOL0     C 9278   3.074   6.272   8.616  0.5580 -0.9204 -0.8679
   71MOL0     C 9279   3.021   6.137   8.558 -0.3948  0.5956 -0.1747
   71MOL0     C 9280   2.904   6.061   8.637  0.6168  0.3418 -0.3090
   71MOL0     C 9281   2.943   6.015   8.770 -0.6508 -0.2876  0.0425
   71MOL0     C 9282   2.840   5.930   8.849 -0.0214 -0.5474  0.1268
   71MOL0     C 9283   2.882   5.921   8.990 -0.1105  0.4476  0.1934
   71MOL0    Cl 9284   2.752   5.860   9.100 -0.0468  0.1269  0.2541
   71MOL0     C 9285   3.374   6.564   8.915  0.1480  0.8992  0.6760
   71MOL0     C 9286   3.441   6.659   8.989 -1.1857 -0.6543  0.5014
   71MOL0     O 9287   3.756   6.861   8.916  0.3926 -0.8495 -0.5676
   71MOL0     C 9288   3.853   7.086   9.067  0.3032 -0.6849 -0.5618
   71MOL0     C 9289   3.889   7.190   9.150  0.5433 -0.4210  0.3905
   71MOL0     N 9290   3.720   7.123   9.832  0.3483  0.1390  0.1456
   71MOL0     N 9291   3.765   7.028   9.916 -0.0320  0.3441 -0.1914
   71MOL0     C 9292   4.915   6.400  10.260  1.5826 -0.3689  0.8070
   71MOL0     C 9293   5.048   6.375  10.216  0.2439 -0.1971 -0.5173
   71MOL0     C 9294   5.427   6.295  10.010  0.5748  0.0396 -0.1119
   71MOL0     C 9295   5.530   6.248  10.098  0.6518  0.1117  0.1975
   71MOL0     C 9296   5.665   6.244  10.061  0.7659 -0.2457 -0.7729
   71MOL0     C 9297   5.697   6.292   9.937  0.5793 -0.1957  0.8495
   71MOL0     O 9298   5.832   6.292   9.894  0.1121 -0.1084  0.4311
   71MOL0     C 9299   5.941   6.236   9.953  0.0547  0.2505 -0.3342
   71MOL0     C 9300   6.060   6.254   9.865  0.4734 -1.0886  0.2153
   71MOL0     C 9301   6.115   6.396   9.872 -0.6185  0.0850  0.4870
   71MOL0     C 9302   6.219   6.402   9.756 -0.5826  0.1738 -0.1157
   71MOL0     C 9303   6.321   6.503   9.776  0.4988 -0.7868  0.1220
   71MOL0     C 9304   6.395   6.595   9.788  0.2900  0.3053 -0.3560
   71MOL0     C 9305   5.604   6.345   9.847 -0.1903 -0.0741 -0.8487
   71MOL0     C 9306   5.462   6.355   9.889 -0.9884 -0.1252 -0.4666
   71MOL0     H 9307   5.008   6.460   9.892  1.8454  1.6233  1.4321
   71MOL0     H 9308   4.773   6.483   9.957 -0.6883  1.0078  2.0880
   71MOL0     H 9309   4.567   6.532  10.087 -1.7776 -1.8570  2.0242
   71MOL0     H 9310   4.700   6.643  10.116 -0.0129  0.8566  0.8433
   71MOL0     H 9311   4.599   6.693  10.352 -0.6543  0.1267  0.2450
   71MOL0     H 9312   4.482   6.581  10.310 -0.1434  1.2733  1.6833
   71MOL0     H 9313   4.538   6.825  10.137 -2.9355 -2.6758 -4.4905
   71MOL0     H 9314   4.454   6.846  10.287 -0.0211  0.0049 -0.8178
   71MOL0     H 9315   4.377   6.655  10.054  0.1921  3.1194 -3.5617
   71MOL0     H 9316   4.287   6.668  10.199 -4.0383 -0.2258 -3.6503
   71MOL0     H 9317   4.336   6.918  10.012 -1.3681  1.3081 -0.3386
   71MOL0     H 9318   4.232   6.913  10.138 -0.1127  2.2357 -3.0014
   71MOL0     H 9319   4.103   6.717  10.055 -1.4889  0.6447 -1.9103
   71MOL0     H 9320   4.213   6.713   9.914  0.4011  1.3882 -1.3143
   71MOL0     H 9321   4.112   6.940   9.851 -0.2461  3.0799  1.6582
   71MOL0     H 9322   3.986   6.828   9.866  1.0476 -1.6883 -0.7310
   71MOL0     H 9323   4.056   7.032  10.075  0.8192  0.6275  0.4193
   71MOL0     H 9324   3.923   6.910  10.090 -1.5507  2.0256 -0.3825
   71MOL0     H 9325   4.027   7.229   9.903 -0.1881  0.4257 -1.1824
   71MOL0     H 9326   3.927   7.393   9.763 -2.3408  2.3988 -1.8249
   71MOL0     H 9327   3.753   7.421   9.794 -0.1769  0.4663 -0.0231
   71MOL0     H 9328   3.683   7.310   9.602 -0.1149  0.1509 -0.9361
   71MOL0     H 9329   3.861   7.263   9.569 -0.0822 -0.7698  2.3935
   71MOL0     H 9330   3.761   7.543   9.580 -2.3872 -0.7725  0.6640
   71MOL0     H 9331   3.926   7.482   9.546 -0.7185  0.1504  2.2795
   71MOL0     H 9332   3.790   7.552   9.337  1.5828  0.3731  1.0221
   71MOL0     H 9333   3.679   7.431   9.375 -0.2462  0.7348 -2.4854
   71MOL0     H 9334   3.584   7.237   9.304  0.0565 -0.1273  0.4587
   71MOL0     H 9335   3.530   7.080   9.148  0.8222 -0.5113  2.5650
   71MOL0     H 9336   3.510   6.876   8.735 -2.4046  2.0473  0.9299
   71MOL0     H 9337   3.379   6.720   8.617  0.9416  0.6680 -0.1378
   71MOL0     H 9338   3.327   6.503   8.525 -0.4917  0.1589 -0.7377
   71MOL0     H 9339   3.167   6.558   8.575  0.4473 -0.5846 -3.1275
   71MOL0     H 9340   3.277   6.280   8.513 -1.0233 -1.6888 -2.2907
   71MOL0     H 9341   3.154   6.352   8.427  3.7564  0.0217 -1.8435
   71MOL0     H 9342   2.986   6.336   8.604  0.5354 -0.8068 -0.1492
   71MOL0     H 9343   3.105   6.271   8.721 -1.0654  0.7721 -0.3214
   71MOL0     H 9344   2.992   6.155   8.454 -0.6016  0.2925 -0.1684
   71MOL0     H 9345   3.104   6.065   8.561 -1.4515 -0.6311  0.6435
   71MOL0     H 9346   2.878   5.970   8.582 -0.1039  0.6659 -0.5206
   71MOL0     H 9347   2.819   6.130   8.640  1.7768  1.7901  0.7252
   71MOL0     H 9348   2.972   6.100   8.832  1.6050 -1.0092  0.0799
   71MOL0     H 9349   3.037   5.961   8.757 -1.3327 -1.9606  1.6589
   71MOL0     H 9350   2.741   5.975   8.848 -0.6208 -1.6852  2.2931
   71MOL0     H 9351   2.834   5.827   8.813 -0.4169 -0.0195 -1.3514
   71MOL0     H 9352   2.901   6.018   9.038 -1.2672 -0.6476  3.1464
   71MOL0     H 9353   2.972   5.861   8.996 -1.2178 -1.2416  0.6173
   71MOL0     H 9354   3.354   6.469   8.964  2.4903 -0.3734 -0.6360
   71MOL0     H 9355   3.473   6.648   9.092  1.2995  0.5527 -0.0805
   71MOL0     H 9356   3.926   7.017   9.028 -0.4420 -2.2150  0.6311
   71MOL0     H 9357   3.990   7.229   9.154  1.1811 -1.8274 -0.9472
   71MOL0     H 9358   4.882   6.410  10.363  0.8077 -2.0697  0.7542
   71MOL0     H 9359   5.119   6.345  10.293  1.9388  1.2653 -1.4298
   71MOL0     H 9360   5.501   6.223  10.200 -0.1014 -0.5655 -0.1654
   71MOL0     H 9361   5.735   6.213  10.138  4.2987  3.7327 -1.9717
   71MOL0     H 9362   5.921   6.129   9.954 -4.6198  0.9290 -0.9176
   71MOL0     H 9363   5.948   6.259  10.060 -2.2317  0.5492 -0.2092
   71MOL0     H 9364   6.133   6.177   9.893  3.1639  0.5612 -1.7722
   71MOL0     H 9365   6.029   6.229   9.764 -0.9291  0.9013  0.0875
   71MOL0     H 9366   6.171   6.399   9.966  0.1908 -1.3261  0.0952
   71MOL0     H 9367   6.040   6.474   9.862 -4.4929 -3.3621  0.1661
   71MOL0     H 9368   6.277   6.311   9.733 -1.0746 -0.1621 -0.0345
   71MOL0     H 9369   6.176   6.425   9.658  0.4492  1.0892 -0.3712
   71MOL0     H 9370   6.459   6.679   9.803  0.5305  0.2371 -0.9367
   71MOL0     H 9371   5.633   6.392   9.753 -0.2806  1.4290 -0.1546
   71MOL0     H 9372   5.379   6.391   9.830 -0.4521 -1.4973 -2.1549
   72MOL0     O 9373   1.103  10.119   9.635  0.0443 -0.5971 -0.3736
   72MOL0     C 9374   1.169  10.221   9.655  0.2172 -0.6998 -0.2537
   72MOL0     O 9375   1.159  10.340   9.590  0.2444 -0.3916  0.3944
   72MOL0     C 9376   1.060  10.366   9.501  0.1424  0.0658 -0.2376
   72MOL0     C 9377   0.977  10.270   9.427 -0.1731  0.5767 -0.1401
   72MOL0     C 9378   0.875  10.308   9.339  0.2988  0.8173 -0.8366
   72MOL0     C 9379   0.850  10.449   9.326  0.4568 -0.4608 -0.6683
   72MOL0     O 9380   0.752  10.513   9.251  0.8538 -0.1286  0.3393
   72MOL0     C 9381   0.649  10.423   9.201  0.3522  0.0870  0.8016
   72MOL0     C 9382   0.537  10.513   9.143 -0.5293 -0.1336  0.3121
   72MOL0     C 9383   0.438  10.440   9.056 -1.1344 -0.6375  0.7840
   72MOL0     C 9384   0.501  10.370   8.930 -0.6143  1.0855 -1.0046
   72MOL0     C 9385   0.398  10.341   8.824  0.6721 -0.2208 -0.1477
   72MOL0     C 9386   0.313  10.215   8.849 -0.0708 -0.3201 -0.3679
   72MOL0     C 9387   0.203  10.187   8.747  1.1868  0.6174  0.3822
   72MOL0     C 9388   0.110  10.068   8.790 -0.4185  0.2927 -0.3444
   72MOL0     N 9389  -0.015  10.040   8.714  0.2057 -0.0103 -0.0579
   72MOL0     C 9390  -0.142  10.088   8.752 -0.5460  0.9010  0.1888
   72MOL0     C 9391  -0.219  10.036   8.666  0.5140  0.5425  0.0762
   72MOL0     C 9392  -0.367  10.059   8.665  0.1808  0.0309  0.8610
   72MOL0     C 9393  -0.408  10.202   8.647 -0.3639  0.0406  0.5792
   72MOL0     C 9394  -0.387  10.272   8.522 -0.3993 -0.7475 -0.3319
   72MOL0     C 9395  -0.244  10.316   8.492 -0.0817 -0.3905  0.2005
   72MOL0     O 9396  -0.198  10.410   8.592 -0.7754  0.1325  0.0638
   72MOL0     C 9397  -0.069  10.462   8.583 -0.1500  0.5454  0.2454
   72MOL0     C 9398  -0.025  10.555   8.682 -0.0983 -0.4608 -0.2882
   72MOL0     C 9399   0.104  10.609   8.667 -0.2607  0.0075 -0.2969
   72MOL0     C 9400   0.196  10.565   8.569 -0.0300  0.3224 -0.0418
   72MOL0     C 9401   0.335  10.610   8.569 -0.8549  0.4164  0.3995
   72MOL0     O 9402   0.361  10.680   8.688  0.2523  0.0189 -0.0646
   72MOL0     C 9403   0.463  10.765   8.701  0.4341  0.2448  0.4148
   72MOL0     C 9404   0.598  10.729   8.692 -0.6333  0.6386 -0.2146
   72MOL0     C 9405   0.705  10.813   8.728 -0.2638 -0.8592  0.1476
   72MOL0     C 9406   0.670  10.950   8.753 -0.2684  0.5125  0.4264
   72MOL0     O 9407   0.768  11.044   8.784 -0.0493  0.8147  0.3687
   72MOL0     C 9408   0.840  11.108   8.682  0.1512  0.2494  0.1584
   72MOL0     C 9409   0.870  11.022   8.562  0.3493  0.8738  0.0127
   72MOL0     C 9410   0.964  11.095   8.470 -1.5985 -0.1202 -0.3948
   72MOL0     C 9411   0.901  11.210   8.396 -0.0994 -0.5959 -0.0085
   72MOL0     C 9412   1.004  11.282   8.302  0.3910  0.7655  0.0121
   72MOL0     C 9413   1.098  11.372   8.377 -0.1761 -0.0624 -0.8763
   72MOL0     C 9414   1.184  11.437   8.268  1.0724 -0.0555  0.6108
   72MOL0     C 9415   1.302  11.519   8.313 -0.4007  0.1647  0.5095
   72MOL0    Cl 9416   1.402  11.549   8.175  0.0159  0.0378  0.2918
   72MOL0     C 9417   0.543  10.991   8.757 -0.5532  0.6246 -0.1096
   72MOL0     C 9418   0.438  10.905   8.724 -0.7598  0.5786 -0.1408
   72MOL0     O 9419   0.411  10.598   8.470  0.0055 -0.0204  0.8364
   72MOL0     C 9420   0.150  10.467   8.482  0.0196  0.4734 -0.0139
   72MOL0     C 9421   0.020  10.417   8.486 -0.0453  0.2439 -0.6333
   72MOL0     N 9422  -0.154   9.965   8.562 -0.2298 -0.0936  0.3238
   72MOL0     N 9423  -0.025   9.970   8.594 -0.4237 -0.3580 -1.1263
   72MOL0     C 9424   0.929  10.542   9.402 -0.4433  0.9316  0.2707
   72MOL0     C 9425   1.028  10.501   9.492  0.0129  0.0315 -1.1011
   72MOL0     C 9426   1.273  10.199   9.766  0.4932 -0.1358  1.4354
   72MOL0     C 9427   1.376  10.296   9.783 -0.4821  0.0154 -0.5161
   72MOL0     C 9428   1.475  10.280   9.881  0.7141 -0.7319  0.2572
   72MOL0     C 9429   1.472  10.167   9.963  0.5888 -2.1371 -0.0128
   72MOL0     O 9430   1.570  10.144  10.060 -0.2788 -0.3732 -0.1849
   72MOL0     C 9431   1.683  10.234  10.069 -0.7799 -0.5999 -0.9218
   72MOL0     C 9432   1.661  10.361  10.169 -0.0842  0.2562  1.3696
   72MOL0     C 9433   1.640  10.327  10.316  1.1599 -0.3701 -0.1648
   72MOL0     C 9434   1.771  10.290  10.385  0.1856 -0.3723 -0.1454
   72MOL0     C 9435   1.835  10.410  10.440 -0.3890 -1.6607 -0.1854
   72MOL0     C 9436   1.870  10.525  10.474  0.4094 -0.1886  0.5472
   72MOL0     C 9437   1.376  10.070   9.938 -0.3538 -0.1994  0.1206
   72MOL0     C 9438   1.275  10.091   9.847  0.6058  0.4764  0.6033
   72MOL0     H 9439   1.000  10.165   9.414  0.3830  0.7664 -0.6976
   72MOL0     H 9440   0.830  10.238   9.269  2.0136  2.2843 -3.5506
   72MOL0     H 9441   0.612  10.353   9.277 -1.1008  0.1631  0.2018
   72MOL0     H 9442   0.691  10.358   9.124  2.0209 -0.5105  2.1375
   72MOL0     H 9443   0.575  10.595   9.082 -1.5861  0.1731  0.0396
   72MOL0     H 9444   0.482  10.567   9.221  1.9564  2.1610  0.5964
   72MOL0     H 9445   0.359  10.508   9.024  0.3482  1.1173  0.6534
   72MOL0     H 9446   0.390  10.369   9.123  1.1078 -0.1027  3.1142
   72MOL0     H 9447   0.561  10.442   8.873  0.1516 -1.1603 -3.1889
   72MOL0     H 9448   0.558  10.285   8.967 -0.7981  1.5785  0.5025
   72MOL0     H 9449   0.452  10.330   8.729 -0.1699  1.0806 -0.7999
   72MOL0     H 9450   0.343  10.432   8.798  1.4253  0.2214 -0.2342
   72MOL0     H 9451   0.273  10.238   8.949 -3.3959 -0.2728 -1.5583
   72MOL0     H 9452   0.380  10.130   8.859 -0.1365 -0.3119  0.1550
   72MOL0     H 9453   0.136  10.273   8.736  0.0632 -0.3706 -0.8437
   72MOL0     H 9454   0.249  10.177   8.648 -0.4999  0.4491 -0.4168
   72MOL0     H 9455   0.080  10.081   8.894 -1.8181  2.2149 -0.9243
   72MOL0     H 9456   0.172   9.981   8.768  0.4379  0.4572  1.3162
   72MOL0     H 9457  -0.160  10.150   8.839 -1.5082 -3.5509  3.5366
   72MOL0     H 9458  -0.405  10.009   8.754  1.1264  0.0249  1.2702
   72MOL0     H 9459  -0.409  10.006   8.579 -0.4940 -0.3765  1.4309
   72MOL0     H 9460  -0.341  10.247   8.721 -0.3145  0.2040  0.4366
   72MOL0     H 9461  -0.511  10.214   8.679 -0.1843  0.0957  1.1481
   72MOL0     H 9462  -0.416  10.194   8.450  0.2330 -3.2812  1.9893
   72MOL0     H 9463  -0.456  10.356   8.515  2.9058  2.1400 -0.6986
   72MOL0     H 9464  -0.252  10.368   8.397  1.8945  0.2696  0.3586
   72MOL0     H 9465  -0.176  10.230   8.494 -1.7157 -1.7246  1.3837
   72MOL0     H 9466  -0.096  10.586   8.759 -1.4938 -3.0796 -0.4002
   72MOL0     H 9467   0.142  10.672   8.747  1.9230  0.6171 -1.7269
   72MOL0     H 9468   0.622  10.630   8.657 -4.3651 -0.9361  1.0776
   72MOL0     H 9469   0.810  10.791   8.740 -0.0152  0.4946  0.7357
   72MOL0     H 9470   0.925  11.166   8.719  1.2767 -0.4225 -1.2921
   72MOL0     H 9471   0.768  11.182   8.644 -1.5471 -1.7957 -0.8334
   72MOL0     H 9472   0.781  10.989   8.509  0.0376  1.5827  0.0754
   72MOL0     H 9473   0.924  10.931   8.588 -0.8806  0.8110  2.7886
   72MOL0     H 9474   1.006  11.024   8.398 -2.6099 -1.9795  0.7591
   72MOL0     H 9475   1.054  11.128   8.522 -2.8010  2.0491  0.4395
   72MOL0     H 9476   0.821  11.184   8.326 -0.3821  3.1385 -1.3077
   72MOL0     H 9477   0.856  11.285   8.463 -1.2542  0.0205 -1.4161
   72MOL0     H 9478   0.950  11.344   8.230  3.4675  0.8714 -2.4020
   72MOL0     H 9479   1.057  11.201   8.251 -2.2226 -2.1989  1.6292
   72MOL0     H 9480   1.160  11.309   8.441  1.7173  0.4954 -2.0948
   72MOL0     H 9481   1.045  11.433   8.451 -0.2937 -1.4989  0.2873
   72MOL0     H 9482   1.227  11.356   8.207  0.3355 -1.7707  2.2609
   72MOL0     H 9483   1.117  11.489   8.199  0.6897 -0.7203  0.4621
   72MOL0     H 9484   1.355  11.459   8.387 -0.2125 -4.1066 -2.6943
   72MOL0     H 9485   1.262  11.615   8.347 -2.4379  0.8067 -3.1321
   72MOL0     H 9486   0.525  11.098   8.763  0.4676  0.7951  0.0871
   72MOL0     H 9487   0.336  10.941   8.725 -0.0991  2.5593  0.2703
   72MOL0     H 9488   0.215  10.434   8.402 -2.2353 -2.9964 -0.6561
   72MOL0     H 9489  -0.003  10.337   8.417 -0.9534 -2.1874  2.2723
   72MOL0     H 9490   0.901  10.646   9.407 -0.6150  0.9442 -0.7006
   72MOL0     H 9491   1.090  10.565   9.553 -0.3937 -0.2703 -0.3665
   72MOL0     H 9492   1.376  10.390   9.729  0.0528  1.4288  1.7694
   72MOL0     H 9493   1.552  10.351   9.912  0.1610 -0.2555  0.5534
   72MOL0     H 9494   1.715  10.263   9.969 -0.1307  0.0598 -0.5323
   72MOL0     H 9495   1.763  10.173  10.111 -0.1284  1.9485  1.8770
   72MOL0     H 9496   1.751  10.423  10.175 -0.3594  0.8319 -0.0099
   72MOL0     H 9497   1.576  10.421  10.135 -0.9868 -1.6049  0.1408
   72MOL0     H 9498   1.578  10.237  10.322 -0.1758  0.4927 -0.4262
   72MOL0     H 9499   1.589  10.406  10.371  0.7334 -1.0213  0.4003
   72MOL0     H 9500   1.733  10.238  10.474 -0.1923 -0.3053 -0.2663
   72MOL0     H 9501   1.842  10.229  10.328  2.2268  0.5093  1.3359
   72MOL0     H 9502   1.897  10.626  10.497 -0.3473  0.4334 -1.1149
   72MOL0     H 9503   1.361   9.991  10.011  2.4978 -0.8158  0.1619
   72MOL0     H 9504   1.200  10.013   9.836  1.9899 -0.8636  0.2346
   73MOL0     O 9505   9.503  11.094   3.595  0.5103 -0.0298  0.3811
   73MOL0     C 9506   9.626  11.111   3.585 -0.3021  0.1993 -0.4160
   73MOL0     O 9507   9.715  11.143   3.688 -0.0809  0.6829  0.6633
   73MOL0     C 9508   9.670  11.156   3.813 -0.0902 -0.6783  0.3857
   73MOL0     C 9509   9.690  11.045   3.892 -0.1935 -0.3435 -0.5567
   73MOL0     C 9510   9.645  11.036   4.016 -0.4037 -0.7403 -1.0864
   73MOL0     C 9511   9.588  11.148   4.080  0.6392  0.4372  0.0268
   73MOL0     O 9512   9.547  11.140   4.215 -0.5875  0.4455  0.9466
   73MOL0     C 9513   9.544  11.265   4.286  0.2026  0.3521  0.4486
   73MOL0     C 9514   9.491  11.246   4.428 -0.6931 -0.5405 -0.0629
   73MOL0     C 9515   9.351  11.222   4.430 -0.2463  0.4970 -0.8192
   73MOL0     C 9516   9.296  11.178   4.568 -0.7410 -0.2863 -0.2879
   73MOL0     C 9517   9.158  11.228   4.583 -0.2305  0.0288  1.0573
   73MOL0     C 9518   9.095  11.175   4.716  0.3434  0.1086  0.6977
   73MOL0     C 9519   9.155  11.242   4.832  0.1034 -0.7159 -0.4346
   73MOL0     C 9520   9.075  11.355   4.886  0.2704 -0.5316  0.1740
   73MOL0     N 9521   8.933  11.309   4.921 -0.0796 -0.4087 -0.1991
   73MOL0     C 9522   8.901  11.257   5.043 -0.0168 -0.8254 -0.1429
   73MOL0     C 9523   8.767  11.253   5.043 -0.5382  0.4634  0.1121
   73MOL0     C 9524   8.689  11.224   5.163 -0.0159  0.4346  0.1984
   73MOL0     C 9525   8.664  11.343   5.241 -0.1119 -1.3933  0.0096
   73MOL0     C 9526   8.572  11.320   5.361 -0.4879 -0.0870 -0.2872
   73MOL0     C 9527   8.425  11.317   5.320 -0.7699  0.0562 -0.8202
   73MOL0     O 9528   8.346  11.323   5.446  1.2059 -0.0268  0.1981
   73MOL0     C 9529   8.235  11.243   5.460  0.6075  0.0473  0.3143
   73MOL0     C 9530   8.179  11.235   5.587 -0.1385 -0.0724 -0.6953
   73MOL0     C 9531   8.057  11.167   5.605 -0.1963 -0.7572  0.1826
   73MOL0     C 9532   7.997  11.093   5.501  0.5107  0.3956  0.7400
   73MOL0     C 9533   7.880  11.013   5.514 -1.1111  0.2591 -0.2345
   73MOL0     O 9534   7.821  10.952   5.404 -0.7206  0.7100  0.7889
   73MOL0     C 9535   7.721  10.862   5.424  0.1145 -0.7102 -0.0632
   73MOL0     C 9536   7.730  10.755   5.525 -0.1020  0.2900  0.8318
   73MOL0     C 9537   7.616  10.676   5.550  0.0825 -0.1249 -0.2598
   73MOL0     C 9538   7.498  10.698   5.479 -0.4000  0.2671 -0.7153
   73MOL0     O 9539   7.394  10.616   5.495 -0.4730 -0.2846  0.5004
   73MOL0     C 9540   7.353  10.582   5.624  0.1506  0.6303 -0.2101
   73MOL0     C 9541   7.212  10.532   5.626 -0.3792 -0.0133  0.0671
   73MOL0     C 9542   7.142  10.488   5.760  0.7177  0.1380 -0.4368
   73MOL0     C 9543   7.186  10.366   5.833 -0.2493  0.0641 -0.3945
   73MOL0     C 9544   7.258  10.416   5.961  0.5247  0.3613 -0.5098
   73MOL0     C 9545   7.333  10.313   6.037 -0.2029 -0.1115  0.5538
   73MOL0     C 9546   7.250  10.187   6.054  0.1136  0.3176  0.6589
   73MOL0     C 9547   7.318  10.082   6.142 -0.1413  0.3182 -0.1238
   73MOL0    Cl 9548   7.177   9.988   6.196  0.2302  0.5183 -0.2393
   73MOL0     C 9549   7.492  10.796   5.375 -0.1102  0.4777 -1.2458
   73MOL0     C 9550   7.601  10.873   5.353 -0.1042 -0.9375 -0.4627
   73MOL0     O 9551   7.836  11.007   5.627  0.6423  0.0981 -0.0146
   73MOL0     C 9552   8.061  11.092   5.378 -0.4493  0.1538  0.0107
   73MOL0     C 9553   8.179  11.165   5.364  0.5730  1.3291  0.7776
   73MOL0     N 9554   8.721  11.303   4.923  0.4634 -0.5719  0.8406
   73MOL0     N 9555   8.825  11.330   4.846 -0.3542  0.7600  0.6777
   73MOL0     C 9556   9.562  11.255   3.993 -0.6436  0.4016  0.0722
   73MOL0     C 9557   9.590  11.257   3.861 -1.8263 -1.0433 -0.3232
   73MOL0     C 9558   9.670  11.115   3.448  0.1745  0.3056 -0.1547
   73MOL0     C 9559   9.797  11.159   3.417  0.0563  0.3698  0.5702
   73MOL0     C 9560   9.841  11.165   3.279 -0.0955  0.3443 -0.2112
   73MOL0     C 9561   9.756  11.131   3.175 -0.0876  0.9478 -0.3860
   73MOL0     O 9562   9.790  11.122   3.040 -0.4654 -0.4992 -0.4131
   73MOL0     C 9563   9.928  11.150   3.001  1.0167 -0.6563 -0.8249
   73MOL0     C 9564   9.955  11.298   2.981 -1.4048 -0.2282 -0.2132
   73MOL0     C 9565  10.097  11.332   2.932 -0.2481  0.7688  1.4215
   73MOL0     C 9566  10.116  11.485   2.926  0.1088 -0.0071 -0.9952
   73MOL0     C 9567  10.255  11.513   2.897 -0.8388  0.0276  0.4930
   73MOL0     C 9568  10.378  11.529   2.888 -0.2413 -0.0278  0.1657
   73MOL0     C 9569   9.629  11.087   3.208 -0.1852  0.5067 -0.1246
   73MOL0     C 9570   9.580  11.084   3.340  0.7790 -1.5859  0.8771
   73MOL0     H 9571   9.749  10.964   3.851  0.2510  1.2033 -3.2046
   73MOL0     H 9572   9.663  10.954   4.085 -2.2624 -0.4491 -0.1781
   73MOL0     H 9573   9.484  11.342   4.238 -0.4038  0.4089  1.2850
   73MOL0     H 9574   9.652  11.283   4.290  0.3798 -0.7938  1.4944
   73MOL0     H 9575   9.520  11.327   4.496 -0.1414 -3.3303  3.2654
   73MOL0     H 9576   9.544  11.160   4.469 -0.3290  0.1951  1.0539
   73MOL0     H 9577   9.330  11.160   4.342 -0.8658  1.9535 -1.7341
   73MOL0     H 9578   9.298  11.313   4.400 -2.7612 -0.4642  0.3947
   73MOL0     H 9579   9.288  11.069   4.562  1.6561 -0.4761 -1.0107
   73MOL0     H 9580   9.371  11.206   4.643  2.5008 -3.0189 -2.2657
   73MOL0     H 9581   9.091  11.185   4.508  0.9827 -2.2269  1.1874
   73MOL0     H 9582   9.156  11.338   4.582 -1.4501  0.0601  2.6202
   73MOL0     H 9583   9.112  11.068   4.731 -1.7973 -0.1284  1.8371
   73MOL0     H 9584   8.991  11.202   4.696  1.4649  2.8954 -2.3558
   73MOL0     H 9585   9.169  11.166   4.909  4.0812  2.9701  2.9681
   73MOL0     H 9586   9.254  11.280   4.807  0.9956 -0.8636  2.4585
   73MOL0     H 9587   9.075  11.435   4.813 -3.7351  1.0091  1.6046
   73MOL0     H 9588   9.104  11.387   4.987 -4.5893 -1.4611  2.1697
   73MOL0     H 9589   8.963  11.238   5.131 -0.9570 -1.0213  0.4984
   73MOL0     H 9590   8.753  11.161   5.225 -0.2513  1.0466  1.0835
   73MOL0     H 9591   8.600  11.178   5.119 -0.5632  0.3780  1.3301
   73MOL0     H 9592   8.630  11.426   5.180  2.7693 -0.8818 -1.0227
   73MOL0     H 9593   8.759  11.378   5.281 -0.1286 -0.5692 -0.6673
   73MOL0     H 9594   8.597  11.232   5.420 -0.6802 -1.3378 -1.9976
   73MOL0     H 9595   8.586  11.403   5.431 -0.7728 -0.1656 -0.1346
   73MOL0     H 9596   8.412  11.214   5.285  0.0587 -0.7878  1.2360
   73MOL0     H 9597   8.412  11.398   5.247  0.3796  2.1717  1.2187
   73MOL0     H 9598   8.209  11.303   5.667 -3.1704  0.5544  0.0560
   73MOL0     H 9599   8.020  11.164   5.707  0.4617 -1.3164  0.4109
   73MOL0     H 9600   7.824  10.734   5.574  0.4372  2.0852  0.6521
   73MOL0     H 9601   7.627  10.590   5.615 -0.3692 -0.1372 -0.1993
   73MOL0     H 9602   7.360  10.669   5.689  1.4597  1.7840 -1.8125
   73MOL0     H 9603   7.415  10.502   5.664 -1.7249 -0.0504  1.5406
   73MOL0     H 9604   7.213  10.442   5.564 -0.5020 -0.0916  0.1793
   73MOL0     H 9605   7.151  10.612   5.581  0.7553 -0.2010 -1.9435
   73MOL0     H 9606   7.042  10.465   5.721  1.3174 -1.6721 -0.9849
   73MOL0     H 9607   7.145  10.568   5.834  0.6729 -0.9592  0.7801
   73MOL0     H 9608   7.101  10.302   5.857 -0.5595 -0.6745 -3.1205
   73MOL0     H 9609   7.252  10.308   5.768  1.5824 -0.1982  1.5895
   73MOL0     H 9610   7.187  10.468   6.026 -0.1757  0.3827 -1.2742
   73MOL0     H 9611   7.330  10.496   5.944  0.4293  0.4708 -0.4072
   73MOL0     H 9612   7.374  10.336   6.137  0.3601 -1.6879  0.7274
   73MOL0     H 9613   7.423  10.284   5.981  1.1164 -1.5196  3.1960
   73MOL0     H 9614   7.154  10.215   6.099  1.3262  3.1806  1.7279
   73MOL0     H 9615   7.213  10.150   5.958 -3.0410 -0.8067  2.1953
   73MOL0     H 9616   7.373  10.124   6.226 -0.2065 -2.3894  1.3792
   73MOL0     H 9617   7.377  10.018   6.076 -1.5083 -2.0065  0.7912
   73MOL0     H 9618   7.400  10.813   5.321 -0.8629  1.6928  0.3263
   73MOL0     H 9619   7.604  10.953   5.279  1.1743 -1.6091 -1.1710
   73MOL0     H 9620   8.021  11.036   5.294  2.9033 -0.6384 -1.2227
   73MOL0     H 9621   8.204  11.174   5.258 -2.0166 -1.5917 -0.2432
   73MOL0     H 9622   9.514  11.344   4.032 -0.8655  0.8429 -1.1727
   73MOL0     H 9623   9.553  11.342   3.804 -1.6238 -1.0944 -0.5362
   73MOL0     H 9624   9.859  11.195   3.499  0.4268  0.6456  0.1735
   73MOL0     H 9625   9.941  11.203   3.265 -0.8640  3.0655  1.0446
   73MOL0     H 9626   9.953  11.097   2.909  0.3460 -0.0834 -1.3450
   73MOL0     H 9627   9.997  11.110   3.076 -0.0586 -0.2585  0.4068
   73MOL0     H 9628   9.879  11.338   2.913 -1.1770 -0.7363 -0.7805
   73MOL0     H 9629   9.928  11.349   3.074  2.0610 -0.2811  0.9460
   73MOL0     H 9630  10.110  11.281   2.836 -1.0179 -0.2841  1.8444
   73MOL0     H 9631  10.166  11.290   3.005  1.5825 -0.2172 -0.7455
   73MOL0     H 9632  10.064  11.531   2.841  0.0528 -0.7382 -1.3650
   73MOL0     H 9633  10.075  11.517   3.022 -0.5274 -3.1029 -0.0992
   73MOL0     H 9634  10.467  11.584   2.867 -0.0422  0.1051  1.3260
   73MOL0     H 9635   9.556  11.066   3.131 -0.9912 -1.0060  1.0076
   73MOL0     H 9636   9.481  11.044   3.355  1.6454 -3.3623  2.3984
   74MOL0     O 9637   9.151   9.288   5.247 -0.8614  0.5194  1.0552
   74MOL0     C 9638   9.206   9.188   5.280  0.3379  0.0137 -0.7078
   74MOL0     O 9639   9.336   9.160   5.265  0.6581  0.5680 -0.6146
   74MOL0     C 9640   9.415   9.266   5.220 -0.3922  0.4929  0.1984
   74MOL0     C 9641   9.447   9.377   5.313  1.0821  0.3034  0.8749
   74MOL0     C 9642   9.533   9.478   5.269 -0.3307  0.5531  0.1468
   74MOL0     C 9643   9.592   9.470   5.143  0.5555  1.1433  0.5980
   74MOL0     O 9644   9.662   9.587   5.107 -0.1477 -0.0903  0.3458
   74MOL0     C 9645   9.790   9.559   5.046 -0.1816 -0.5530 -0.2463
   74MOL0     C 9646   9.886   9.484   5.139 -0.3359 -0.8130  1.1353
   74MOL0     C 9647   9.992   9.422   5.061 -0.4780  0.1353  0.7155
   74MOL0     C 9648  10.079   9.312   5.138  0.1792 -1.2391 -0.9474
   74MOL0     C 9649  10.169   9.224   5.042 -0.0165 -0.7553 -0.1929
   74MOL0     C 9650  10.222   9.109   5.116 -1.3204  0.6616  0.4202
   74MOL0     C 9651  10.340   9.049   5.029 -0.7812 -0.3320  0.5983
   74MOL0     C 9652  10.302   8.990   4.899  0.4876 -0.7551 -0.1229
   74MOL0     N 9653  10.210   8.875   4.915  0.9516 -0.0357  0.4895
   74MOL0     C 9654  10.073   8.876   4.940  0.4056 -0.7918  0.6431
   74MOL0     C 9655  10.042   8.766   4.999  0.6597  0.1178 -0.0191
   74MOL0     C 9656   9.912   8.724   5.055 -0.0527 -0.1908 -0.3897
   74MOL0     C 9657   9.782   8.736   4.985  1.6480 -0.0074  0.3399
   74MOL0     C 9658   9.780   8.670   4.846  0.4041 -0.4041 -0.5118
   74MOL0     C 9659   9.670   8.569   4.839  0.6534  0.5171 -0.8278
   74MOL0     O 9660   9.552   8.640   4.863 -0.3032 -0.5375  0.5395
   74MOL0     C 9661   9.432   8.585   4.826 -0.1034  0.9925 -1.0048
   74MOL0     C 9662   9.389   8.456   4.881 -0.6004  0.1477 -0.3313
   74MOL0     C 9663   9.272   8.392   4.838 -0.0207  0.2759 -0.0893
   74MOL0     C 9664   9.182   8.462   4.761 -1.2538 -0.5525 -0.0735
   74MOL0     C 9665   9.047   8.407   4.736 -0.0746  0.4653 -0.0744
   74MOL0     O 9666   8.959   8.493   4.670 -0.0718  0.1416  0.1626
   74MOL0     C 9667   8.836   8.467   4.618 -0.2963 -1.2117  0.5284
   74MOL0     C 9668   8.757   8.347   4.632 -0.0519  0.3634 -0.1201
   74MOL0     C 9669   8.654   8.325   4.555  0.2567  1.1695 -0.4645
   74MOL0     C 9670   8.601   8.424   4.471  0.1147  0.5213  0.8957
   74MOL0     O 9671   8.479   8.413   4.405 -0.4489  0.1441 -0.0755
   74MOL0     C 9672   8.367   8.396   4.497 -0.6454  0.3834 -0.2314
   74MOL0     C 9673   8.264   8.279   4.459 -1.5834  0.2272  0.0828
   74MOL0     C 9674   8.214   8.265   4.320 -0.7459 -1.1174  0.2503
   74MOL0     C 9675   8.129   8.138   4.304  0.3523  0.5152  0.4619
   74MOL0     C 9676   8.067   8.125   4.164  0.0726 -0.3870  0.6407
   74MOL0     C 9677   7.974   8.001   4.156 -0.1527  0.2147  0.9461
   74MOL0     C 9678   7.818   8.027   4.173 -0.8680  0.3929  0.8578
   74MOL0     C 9679   7.761   7.883   4.168  0.0375 -0.3306  0.4452
   74MOL0    Cl 9680   7.589   7.865   4.210  0.5079 -0.5381 -0.1962
   74MOL0     C 9681   8.681   8.539   4.450  0.7757 -0.2165 -0.1713
   74MOL0     C 9682   8.804   8.561   4.521  0.7782 -0.3464  0.6994
   74MOL0     O 9683   9.023   8.293   4.766  0.3946  0.3944  0.3226
   74MOL0     C 9684   9.214   8.591   4.713  0.1828  0.2694  0.1712
   74MOL0     C 9685   9.348   8.655   4.746  0.7667 -0.5157 -0.3246
   74MOL0     N 9686  10.151   8.683   4.994  0.2436 -1.0568  0.4538
   74MOL0     N 9687  10.258   8.753   4.948  0.3429 -0.0327 -0.1052
   74MOL0     C 9688   9.561   9.361   5.058  0.0977 -0.0997  0.3611
   74MOL0     C 9689   9.471   9.257   5.092  1.0317  0.1479 -0.9750
   74MOL0     C 9690   9.107   9.093   5.347 -0.9117 -0.5901  0.5036
   74MOL0     C 9691   9.150   8.966   5.394 -0.5851  0.6647 -0.4368
   74MOL0     C 9692   9.062   8.888   5.474 -0.0015  0.5678  0.7409
   74MOL0     C 9693   8.924   8.928   5.498  0.6091  0.1930  0.1090
   74MOL0     O 9694   8.850   8.850   5.588  0.9936 -0.7422 -0.0475
   74MOL0     C 9695   8.860   8.706   5.591 -0.0986  0.1855 -0.3949
   74MOL0     C 9696   8.752   8.641   5.683  0.0069  0.2142 -0.1015
   74MOL0     C 9697   8.783   8.490   5.722 -0.2490 -0.2210 -0.3348
   74MOL0     C 9698   8.663   8.433   5.797  0.1971 -0.6547  0.4633
   74MOL0     C 9699   8.708   8.298   5.831  0.6312  0.5169  0.0393
   74MOL0     C 9700   8.737   8.182   5.854  1.2787  0.0681  0.5379
   74MOL0     C 9701   8.886   9.052   5.448 -0.1399 -0.4591  0.2430
   74MOL0     C 9702   8.978   9.137   5.383 -0.9107 -0.0883 -1.3338
   74MOL0     H 9703   9.411   9.368   5.415 -3.1313  0.1254 -0.4377
   74MOL0     H 9704   9.580   9.561   5.322 -1.1185  2.0255 -1.3522
   74MOL0     H 9705   9.832   9.660   5.037  1.4780 -0.7496  3.3449
   74MOL0     H 9706   9.785   9.522   4.944  0.0051  2.9580 -1.6699
   74MOL0     H 9707   9.839   9.409   5.203 -2.8527 -0.1060  0.2426
   74MOL0     H 9708   9.937   9.558   5.200 -1.7451  0.8865  0.3376
   74MOL0     H 9709  10.054   9.500   5.016 -3.0045  1.6151 -0.4507
   74MOL0     H 9710   9.942   9.362   4.984  2.0318  0.0366 -0.9527
   74MOL0     H 9711  10.133   9.353   5.223 -1.9526  2.0361 -1.0188
   74MOL0     H 9712  10.009   9.244   5.186 -0.6560  1.3575  1.7975
   74MOL0     H 9713  10.253   9.276   4.994  0.9936  0.5486  2.7915
   74MOL0     H 9714  10.105   9.190   4.960  1.8170  0.1208 -2.1116
   74MOL0     H 9715  10.145   9.032   5.128 -1.6202  1.1338  1.7853
   74MOL0     H 9716  10.259   9.155   5.208 -2.9729  0.5885  1.1557
   74MOL0     H 9717  10.416   9.122   5.001 -2.8405  1.1309 -1.5791
   74MOL0     H 9718  10.394   8.971   5.084  0.9449 -1.9101 -3.0184
   74MOL0     H 9719  10.386   8.938   4.851  1.1428 -2.2643  2.4905
   74MOL0     H 9720  10.258   9.058   4.826  0.8829 -0.3645 -0.0051
   74MOL0     H 9721  10.005   8.961   4.936  1.2897 -0.0734  0.6517
   74MOL0     H 9722   9.909   8.775   5.152  3.0710  0.7576 -0.6728
   74MOL0     H 9723   9.921   8.618   5.079 -1.9038 -0.4842 -0.8440
   74MOL0     H 9724   9.756   8.842   4.976 -0.5643 -0.3348  1.9949
   74MOL0     H 9725   9.699   8.707   5.049  0.6903  2.4367  0.3144
   74MOL0     H 9726   9.747   8.746   4.775 -0.1320  2.3281  2.4310
   74MOL0     H 9727   9.879   8.628   4.827  1.0820 -1.0191  3.4597
   74MOL0     H 9728   9.677   8.484   4.907  0.2535  1.6836  0.7246
   74MOL0     H 9729   9.651   8.525   4.741 -0.3612 -1.2699  0.1230
   74MOL0     H 9730   9.466   8.417   4.947 -0.1247  1.1598 -0.2677
   74MOL0     H 9731   9.252   8.287   4.858  1.0218 -0.1829 -1.3370
   74MOL0     H 9732   8.789   8.276   4.708 -1.9125  0.1633  0.5191
   74MOL0     H 9733   8.591   8.237   4.559  0.3600  1.0880 -0.5961
   74MOL0     H 9734   8.308   8.487   4.488 -0.3123  0.5022 -1.3343
   74MOL0     H 9735   8.404   8.388   4.600 -0.1722 -0.6032 -0.4602
   74MOL0     H 9736   8.184   8.281   4.533 -0.6127  1.9052  1.1557
   74MOL0     H 9737   8.319   8.186   4.479 -0.6981  0.2635 -1.9022
   74MOL0     H 9738   8.292   8.274   4.244 -0.4020  0.1324  0.7274
   74MOL0     H 9739   8.151   8.352   4.300 -0.3068 -1.2180 -1.8285
   74MOL0     H 9740   8.183   8.046   4.329 -2.0801 -0.5250  2.3426
   74MOL0     H 9741   8.042   8.155   4.368 -0.6076 -1.8579 -0.1212
   74MOL0     H 9742   8.141   8.127   4.085  0.3353 -0.5498  0.8810
   74MOL0     H 9743   8.010   8.216   4.142  2.0951  0.2962 -2.3117
   74MOL0     H 9744   8.010   7.933   4.233  2.9588 -0.4889 -0.9560
   74MOL0     H 9745   7.987   7.960   4.055  0.6993 -2.2067  1.9811
   74MOL0     H 9746   7.792   8.067   4.272  0.2918  3.9388 -0.1274
   74MOL0     H 9747   7.778   8.088   4.091 -0.0927 -0.9385 -0.5755
   74MOL0     H 9748   7.826   7.820   4.229 -0.9615 -3.1801 -1.2170
   74MOL0     H 9749   7.777   7.850   4.065 -0.7201  0.5580  0.0269
   74MOL0     H 9750   8.645   8.615   4.382 -1.6535 -0.6951  0.4920
   74MOL0     H 9751   8.852   8.656   4.500 -1.5492  0.9817  0.9172
   74MOL0     H 9752   9.133   8.643   4.663  0.3161  0.3245  0.0097
   74MOL0     H 9753   9.375   8.754   4.711 -0.1719  0.1069  0.6643
   74MOL0     H 9754   9.606   9.367   4.960  0.2489 -3.0269  0.1593
   74MOL0     H 9755   9.449   9.175   5.024  1.5565  0.1584 -1.1649
   74MOL0     H 9756   9.252   8.932   5.383 -1.2851 -1.4483 -0.9045
   74MOL0     H 9757   9.103   8.794   5.510 -0.9104  0.5176  1.6823
   74MOL0     H 9758   8.956   8.675   5.633 -0.8218 -1.7201 -0.0792
   74MOL0     H 9759   8.843   8.674   5.487 -1.6951 -3.2535  0.8041
   74MOL0     H 9760   8.740   8.692   5.779 -0.7962 -2.2512  1.1955
   74MOL0     H 9761   8.651   8.643   5.642 -0.6856  0.6954  1.5267
   74MOL0     H 9762   8.877   8.488   5.779 -1.3728  0.2467  1.6396
   74MOL0     H 9763   8.801   8.429   5.633  0.0428 -0.1308 -0.3384
   74MOL0     H 9764   8.636   8.494   5.885 -1.7558  1.9521 -1.7538
   74MOL0     H 9765   8.578   8.422   5.729 -1.0186  0.3792  1.7411
   74MOL0     H 9766   8.738   8.075   5.858 -1.0546  0.0379  1.8592
   74MOL0     H 9767   8.779   9.071   5.450 -0.1007 -0.2679  0.9163
   74MOL0     H 9768   8.948   9.237   5.355  0.9192  0.4407 -1.5074
   75MOL0     O 9769   8.313   6.319   5.482  0.2317  0.4047 -0.0928
   75MOL0     C 9770   8.394   6.320   5.390  0.6042 -0.6166  0.0827
   75MOL0     O 9771   8.402   6.423   5.295 -0.0420 -0.1015  0.4447
   75MOL0     C 9772   8.301   6.508   5.287 -0.4975  0.7596  0.5176
   75MOL0     C 9773   8.326   6.635   5.302 -0.7070 -1.0797  0.4506
   75MOL0     C 9774   8.223   6.724   5.311  0.6591 -0.7767  0.3840
   75MOL0     C 9775   8.084   6.681   5.296 -0.0291 -0.8209  0.3101
   75MOL0     O 9776   7.969   6.756   5.303  0.2908  0.4444 -0.3333
   75MOL0     C 9777   7.968   6.880   5.380  0.1306  0.6728  0.3794
   75MOL0     C 9778   7.812   6.903   5.389 -0.3208  1.2560 -0.3846
   75MOL0     C 9779   7.736   6.930   5.261  1.1034 -0.3109  0.4996
   75MOL0     C 9780   7.601   6.984   5.307  0.1984 -0.4678  0.1166
   75MOL0     C 9781   7.511   7.004   5.192 -0.0157  0.3397  0.4007
   75MOL0     C 9782   7.507   7.144   5.125  0.4057 -0.0087  0.0941
   75MOL0     C 9783   7.434   7.248   5.216  0.7532  0.4897 -1.0428
   75MOL0     C 9784   7.284   7.239   5.198  0.3861  0.4437  0.4513
   75MOL0     N 9785   7.208   7.345   5.267  0.0484 -0.0683  0.4270
   75MOL0     C 9786   7.257   7.462   5.323  0.3458 -0.6746  0.3584
   75MOL0     C 9787   7.164   7.491   5.410  0.2824  0.6850  0.2389
   75MOL0     C 9788   7.152   7.601   5.513  0.1134 -0.0796  0.1094
   75MOL0     C 9789   7.115   7.727   5.434 -1.0915  0.4410  0.5995
   75MOL0     C 9790   7.102   7.855   5.525  0.6088 -0.3182  0.2681
   75MOL0     C 9791   7.000   7.821   5.648 -0.9954 -0.1309  0.1753
   75MOL0     O 9792   6.981   7.948   5.700  1.7881 -0.6393 -0.0074
   75MOL0     C 9793   6.920   7.950   5.827  0.5449 -0.2552  0.0305
   75MOL0     C 9794   6.880   7.846   5.911  0.0550  0.2234  0.4013
   75MOL0     C 9795   6.830   7.858   6.039  0.1131  0.6460  1.0190
   75MOL0     C 9796   6.829   7.986   6.094 -0.2321 -0.5385  0.1653
   75MOL0     C 9797   6.764   8.015   6.225  0.4388  0.1609  0.1629
   75MOL0     O 9798   6.766   7.919   6.314  0.3151  0.1725  0.4432
   75MOL0     C 9799   6.697   7.939   6.432 -0.0017  1.0241 -0.0126
   75MOL0     C 9800   6.754   8.014   6.537 -0.4120  0.1781  0.1568
   75MOL0     C 9801   6.673   8.070   6.638 -0.4260  0.4514 -0.6722
   75MOL0     C 9802   6.545   8.040   6.658 -0.0712 -0.1046 -0.6856
   75MOL0     O 9803   6.466   8.094   6.754 -0.7096  0.1803 -0.3389
   75MOL0     C 9804   6.357   8.019   6.812 -0.0836 -0.6780 -0.2971
   75MOL0     C 9805   6.273   8.110   6.909  0.0758 -0.2368 -0.4744
   75MOL0     C 9806   6.342   8.225   6.989  0.2658  1.4338  0.1534
   75MOL0     C 9807   6.244   8.309   7.063  0.6167  0.1987  0.6493
   75MOL0     C 9808   6.296   8.423   7.138 -0.7085 -0.4077 -0.8168
   75MOL0     C 9809   6.183   8.515   7.184 -0.6532 -1.1758  0.3695
   75MOL0     C 9810   6.203   8.582   7.324 -0.7898  0.3560 -0.1113
   75MOL0     C 9811   6.068   8.581   7.395 -0.6330 -0.2114 -0.0077
   75MOL0    Cl 9812   6.094   8.622   7.561 -0.1266 -0.2937 -0.1597
   75MOL0     C 9813   6.484   7.964   6.564  0.0411  0.7204  1.2727
   75MOL0     C 9814   6.554   7.914   6.448 -0.2951 -0.3816 -0.2620
   75MOL0     O 9815   6.731   8.125   6.249 -0.0689  0.5236  0.5180
   75MOL0     C 9816   6.873   8.099   6.011 -0.1609  0.4686 -0.5118
   75MOL0     C 9817   6.923   8.074   5.884 -0.1396  0.6413 -0.9706
   75MOL0     N 9818   7.051   7.418   5.410 -0.2987  0.2458  0.4995
   75MOL0     N 9819   7.080   7.336   5.313  0.9973  0.1315  1.3953
   75MOL0     C 9820   8.061   6.545   5.265 -0.6175 -1.2678  0.0276
   75MOL0     C 9821   8.171   6.451   5.261 -0.2248 -0.2854  0.1256
   75MOL0     C 9822   8.491   6.204   5.374 -0.0120 -0.8541 -0.3922
   75MOL0     C 9823   8.459   6.083   5.427  0.1744  0.7785 -0.5908
   75MOL0     C 9824   8.541   5.977   5.395 -0.2826  0.6919 -0.1355
   75MOL0     C 9825   8.653   5.987   5.308 -0.7690  0.1877 -0.8162
   75MOL0     O 9826   8.748   5.893   5.305  0.0333  0.0659 -0.2328
   75MOL0     C 9827   8.720   5.765   5.356 -0.0768 -0.1801 -0.4347
   75MOL0     C 9828   8.801   5.662   5.279  0.4153 -0.4299 -0.1717
   75MOL0     C 9829   8.947   5.691   5.314  0.2623  0.0791  0.9824
   75MOL0     C 9830   9.027   5.731   5.191 -1.5027 -0.5338  0.8485
   75MOL0     C 9831   9.027   5.620   5.086 -0.9062  0.7433 -0.1231
   75MOL0     C 9832   9.017   5.512   5.035  0.4775 -0.9886  0.3014
   75MOL0     C 9833   8.684   6.111   5.264  0.0983 -0.6014  0.2012
   75MOL0     C 9834   8.597   6.221   5.286  0.3778 -0.2863  0.8823
   75MOL0     H 9835   8.431   6.663   5.294 -1.4720  1.4350 -2.9663
   75MOL0     H 9836   8.242   6.830   5.320 -1.6487 -0.1646 -1.0285
   75MOL0     H 9837   8.008   6.968   5.329  1.4356 -1.8190 -3.2667
   75MOL0     H 9838   8.005   6.863   5.481 -1.3765  2.0421  1.2284
   75MOL0     H 9839   7.795   6.991   5.452  0.7983  1.2376 -0.0406
   75MOL0     H 9840   7.782   6.810   5.438  1.8369  0.3996 -0.5797
   75MOL0     H 9841   7.712   6.836   5.210 -1.3974  0.0406  0.8738
   75MOL0     H 9842   7.785   7.001   5.194  1.9863 -1.2076  0.1748
   75MOL0     H 9843   7.563   6.907   5.376  0.4446  0.9102  1.8615
   75MOL0     H 9844   7.592   7.072   5.371 -3.2847 -2.0430  2.1166
   75MOL0     H 9845   7.411   6.981   5.229  0.5555 -0.3385  1.5578
   75MOL0     H 9846   7.533   6.934   5.111  1.0202 -0.2210  1.1437
   75MOL0     H 9847   7.451   7.126   5.033  0.7055  0.2679 -0.1480
   75MOL0     H 9848   7.601   7.189   5.091 -1.1106  1.2301 -2.8340
   75MOL0     H 9849   7.466   7.238   5.321  1.5562 -5.2290 -1.5505
   75MOL0     H 9850   7.463   7.347   5.180  2.4267  0.6317  0.4986
   75MOL0     H 9851   7.245   7.137   5.208 -2.2427  1.2084 -0.9601
   75MOL0     H 9852   7.260   7.261   5.093 -2.3577 -2.1883  0.3865
   75MOL0     H 9853   7.355   7.506   5.307 -0.4951  0.4137 -2.3007
   75MOL0     H 9854   7.248   7.627   5.559 -1.0062 -0.6688  3.0057
   75MOL0     H 9855   7.078   7.574   5.590  1.5852 -0.1402  1.5564
   75MOL0     H 9856   7.021   7.714   5.380  0.8269  0.1988 -3.0080
   75MOL0     H 9857   7.175   7.758   5.347 -2.5540  4.1221  0.6954
   75MOL0     H 9858   7.201   7.891   5.555 -0.4596  1.0267  2.3842
   75MOL0     H 9859   7.057   7.928   5.457 -1.6773 -0.4078  1.5898
   75MOL0     H 9860   7.046   7.753   5.720  1.3605  1.9294  0.7647
   75MOL0     H 9861   6.902   7.786   5.614 -2.5053  1.4239  2.5924
   75MOL0     H 9862   6.887   7.747   5.868 -1.0395 -0.5955  2.0173
   75MOL0     H 9863   6.790   7.767   6.083 -0.7538  0.1559 -0.6796
   75MOL0     H 9864   6.855   8.054   6.532 -0.1664 -0.4045  0.3953
   75MOL0     H 9865   6.715   8.152   6.696 -1.3864  0.2745  0.3323
   75MOL0     H 9866   6.392   7.938   6.876 -0.8260  0.7162  1.9941
   75MOL0     H 9867   6.294   7.983   6.730  0.7556 -1.6125 -0.5454
   75MOL0     H 9868   6.237   8.033   6.978  2.0723 -0.1205  0.7612
   75MOL0     H 9869   6.186   8.142   6.850 -0.4412  1.9298  1.3126
   75MOL0     H 9870   6.404   8.296   6.934  1.9567  2.9709  3.7387
   75MOL0     H 9871   6.399   8.175   7.068  1.0009 -0.5117 -1.5037
   75MOL0     H 9872   6.182   8.335   6.977  0.8259 -1.5640 -0.0726
   75MOL0     H 9873   6.190   8.240   7.129  1.6410 -0.9298  0.3524
   75MOL0     H 9874   6.363   8.486   7.080 -1.2008  1.1622  0.2448
   75MOL0     H 9875   6.350   8.389   7.227  2.0227  1.6920 -1.5181
   75MOL0     H 9876   6.093   8.453   7.179  0.0011 -2.0581 -2.4896
   75MOL0     H 9877   6.162   8.591   7.108  0.8177 -0.7340  0.3831
   75MOL0     H 9878   6.268   8.520   7.387 -0.8554  0.9357  0.5333
   75MOL0     H 9879   6.255   8.678   7.327  1.9504 -1.0606  1.3968
   75MOL0     H 9880   6.046   8.475   7.379  4.0848 -1.1866 -1.5964
   75MOL0     H 9881   5.997   8.651   7.351  2.2108  2.1386 -1.2013
   75MOL0     H 9882   6.380   7.935   6.566 -0.2333  1.2329 -1.4898
   75MOL0     H 9883   6.497   7.863   6.372 -2.7907  3.1426 -0.9767
   75MOL0     H 9884   6.877   8.203   6.043 -0.4434  0.4812 -0.5188
   75MOL0     H 9885   6.952   8.161   5.826  1.1871  0.3118 -0.8294
   75MOL0     H 9886   7.962   6.511   5.235 -1.4028  0.1216  0.9675
   75MOL0     H 9887   8.150   6.346   5.247  1.2324 -1.0296  2.8177
   75MOL0     H 9888   8.381   6.056   5.497  0.3114  1.7387 -0.0499
   75MOL0     H 9889   8.527   5.888   5.455 -0.1003  1.2900  0.8288
   75MOL0     H 9890   8.618   5.726   5.345  0.9890 -2.9883 -1.3542
   75MOL0     H 9891   8.740   5.764   5.463  3.2549 -2.3373 -0.9222
   75MOL0     H 9892   8.766   5.565   5.315 -3.5413  0.2524 -1.6710
   75MOL0     H 9893   8.778   5.669   5.172 -1.4442  1.0642  0.2699
   75MOL0     H 9894   8.984   5.601   5.363  0.3422 -1.2294 -1.3536
   75MOL0     H 9895   8.958   5.764   5.395  1.7598 -2.7310  3.4967
   75MOL0     H 9896   9.007   5.836   5.168  0.0108  0.0394  1.9691
   75MOL0     H 9897   9.133   5.734   5.218 -0.9111  2.9746 -1.2723
   75MOL0     H 9898   8.984   5.415   5.001 -0.4049 -0.7064  0.3278
   75MOL0     H 9899   8.780   6.141   5.222 -0.2598 -1.2987 -1.1486
   75MOL0     H 9900   8.625   6.317   5.244 -0.7865 -0.2219  0.2160
   76MOL0     O 9901   9.982   8.590   5.646  0.1930 -0.0624 -0.0809
   76MOL0     C 9902   9.884   8.593   5.726 -0.4734 -0.6956 -0.0758
   76MOL0     O 9903   9.848   8.695   5.807 -0.5271  0.5226 -0.4669
   76MOL0     C 9904   9.928   8.809   5.829 -0.0265 -0.0477 -0.7442
   76MOL0     C 9905   9.853   8.912   5.881 -0.3922 -0.8423 -0.4156
   76MOL0     C 9906   9.920   9.032   5.919 -0.2802  1.3014  0.4591
   76MOL0     C 9907  10.063   9.028   5.914 -0.0673 -0.5219 -0.0534
   76MOL0     O 9908  10.106   9.146   5.957  0.3824 -0.1731  0.1351
   76MOL0     C 9909  10.240   9.189   5.956 -0.2928  0.0832 -0.5081
   76MOL0     C 9910  10.324   9.131   6.080  0.1471 -1.0539  1.0312
   76MOL0     C 9911  10.319   9.219   6.207  0.2537  1.0650  0.6474
   76MOL0     C 9912  10.388   9.152   6.327  1.3813 -0.0635 -0.1393
   76MOL0     C 9913  10.380   9.233   6.454  0.3552 -0.3472 -0.3098
   76MOL0     C 9914  10.236   9.225   6.517 -1.0896 -0.0379 -1.3109
   76MOL0     C 9915  10.228   9.318   6.639 -0.6274  0.0946 -0.0143
   76MOL0     C 9916  10.174   9.245   6.760 -0.1577  0.1780 -0.0317
   76MOL0     N 9917  10.283   9.213   6.849 -0.7945  0.0034  0.3369
   76MOL0     C 9918  10.380   9.118   6.812  0.3561 -0.1927 -0.6113
   76MOL0     C 9919  10.434   9.086   6.933 -1.2128  0.4004  1.2224
   76MOL0     C 9920  10.551   8.982   6.950 -0.7672  0.7247 -1.0093
   76MOL0     C 9921  10.657   9.016   7.056  0.4745  0.8173 -0.3035
   76MOL0     C 9922  10.686   8.892   7.133 -0.6215  0.1143  0.4390
   76MOL0     C 9923  10.769   8.943   7.258 -0.1386  0.4563  0.6557
   76MOL0     O 9924  10.775   8.835   7.354  0.1111 -0.2731  0.0677
   76MOL0     C 9925  10.884   8.818   7.435 -0.0722 -0.1000 -0.2278
   76MOL0     C 9926  10.900   8.700   7.500  0.2354 -0.0794 -0.1807
   76MOL0     C 9927  11.005   8.675   7.582 -0.6510  0.7377 -0.1585
   76MOL0     C 9928  11.103   8.773   7.614  0.5100 -0.0648  0.7123
   76MOL0     C 9929  11.196   8.760   7.724 -0.0736  0.2863 -0.4588
   76MOL0     O 9930  11.272   8.873   7.753 -0.7636 -0.0982  0.1204
   76MOL0     C 9931  11.361   8.877   7.854  0.1953 -0.6880  0.3310
   76MOL0     C 9932  11.441   8.988   7.844  0.4018 -0.1090 -0.7885
   76MOL0     C 9933  11.540   9.007   7.937  0.4206 -0.4793 -0.0139
   76MOL0     C 9934  11.565   8.909   8.037 -0.7843 -0.2525  0.4811
   76MOL0     O 9935  11.676   8.915   8.128  0.3976 -0.2402  0.3931
   76MOL0     C 9936  11.722   9.040   8.177  0.6742 -0.3750 -0.2933
   76MOL0     C 9937  11.772   9.009   8.313 -0.5932  0.8420 -0.0186
   76MOL0     C 9938  11.878   8.901   8.317  0.2372 -0.1947  0.1185
   76MOL0     C 9939  11.918   8.877   8.455  0.2003  0.1819 -0.0716
   76MOL0     C 9940  12.034   8.770   8.464  0.8619 -0.1455  0.7301
   76MOL0     C 9941  12.155   8.809   8.380  0.7237  0.5288 -0.2020
   76MOL0     C 9942  12.277   8.742   8.435  0.2192  0.1506 -0.2679
   76MOL0     C 9943  12.381   8.783   8.345 -1.2537  0.4729  0.6259
   76MOL0    Cl 9944  12.537   8.712   8.411 -0.3354 -0.1147 -0.8969
   76MOL0     C 9945  11.473   8.808   8.057 -1.0561 -0.2009 -0.5751
   76MOL0     C 9946  11.371   8.791   7.967 -0.1829 -0.4581  0.2651
   76MOL0     O 9947  11.205   8.645   7.769 -0.4152  0.3935 -0.2773
   76MOL0     C 9948  11.095   8.898   7.546 -0.0562 -1.0746 -0.4643
   76MOL0     C 9949  10.979   8.923   7.469 -0.2651  0.5984 -0.4214
   76MOL0     N 9950  10.385   9.173   7.028 -0.0655 -0.1517  0.0066
   76MOL0     N 9951  10.288   9.242   6.980  0.4702  0.1955  0.4203
   76MOL0     C 9952  10.134   8.915   5.887 -0.3019 -0.1097  0.0448
   76MOL0     C 9953  10.070   8.806   5.829  0.0398  0.0090  0.0498
   76MOL0     C 9954   9.800   8.475   5.741  1.2780 -0.4735 -0.2672
   76MOL0     C 9955   9.693   8.468   5.828  0.2931 -0.6072  0.4759
   76MOL0     C 9956   9.611   8.352   5.829 -0.1142 -0.9195 -0.4656
   76MOL0     C 9957   9.645   8.244   5.759  0.5879  0.8031 -0.1265
   76MOL0     O 9958   9.582   8.125   5.767 -0.3409  0.3277  0.2047
   76MOL0     C 9959   9.504   8.102   5.654 -0.0367  0.3965  0.6387
   76MOL0     C 9960   9.379   8.014   5.685  0.7605  0.3327  0.4163
   76MOL0     C 9961   9.260   8.110   5.710  0.1475 -0.1679 -0.5415
   76MOL0     C 9962   9.135   8.030   5.750 -0.1288  0.3802  0.1389
   76MOL0     C 9963   9.103   7.913   5.667 -0.3159  0.0134  0.6068
   76MOL0     C 9964   9.079   7.812   5.607  0.1503  0.3493 -0.1790
   76MOL0     C 9965   9.758   8.239   5.678  0.6499 -0.1369 -0.1909
   76MOL0     C 9966   9.826   8.358   5.666 -0.2731  0.1937 -0.0360
   76MOL0     H 9967   9.747   8.895   5.891 -0.4487  0.3374  1.6260
   76MOL0     H 9968   9.872   9.125   5.947 -3.0229 -0.0523  0.5576
   76MOL0     H 9969  10.251   9.298   5.962 -0.1478  0.0034  2.3117
   76MOL0     H 9970  10.291   9.142   5.871  0.0802 -2.8840  1.2151
   76MOL0     H 9971  10.422   9.105   6.040 -0.0193  0.7319 -0.6718
   76MOL0     H 9972  10.286   9.031   6.107  2.6162 -2.8719 -1.6079
   76MOL0     H 9973  10.214   9.245   6.224 -0.5754 -1.7937  0.3479
   76MOL0     H 9974  10.377   9.310   6.188  1.0639  0.3676 -0.3132
   76MOL0     H 9975  10.339   9.055   6.339 -0.8437  0.5725 -2.9413
   76MOL0     H 9976  10.495   9.142   6.307  1.2152 -1.4312 -0.4468
   76MOL0     H 9977  10.404   9.338   6.434  1.6100 -0.6263 -0.3766
   76MOL0     H 9978  10.460   9.205   6.524  0.4361 -0.5929 -0.5015
   76MOL0     H 9979  10.229   9.120   6.548  1.4856 -0.6702 -2.5557
   76MOL0     H 9980  10.157   9.248   6.445  0.0320  0.2212 -2.5051
   76MOL0     H 9981  10.319   9.377   6.654  0.1037 -0.8668 -0.5577
   76MOL0     H 9982  10.146   9.385   6.612  0.2656  0.3753 -2.2189
   76MOL0     H 9983  10.120   9.153   6.738  1.0739 -0.9498  1.4610
   76MOL0     H 9984  10.109   9.318   6.809 -0.4233 -1.0925  1.5702
   76MOL0     H 9985  10.408   9.083   6.713  1.9837  0.5426 -0.4490
   76MOL0     H 9986  10.602   8.981   6.853  0.3733 -0.1268 -0.4254
   76MOL0     H 9987  10.513   8.880   6.962 -0.3620  0.8436  2.1934
   76MOL0     H 9988  10.635   9.108   7.112 -1.6989  1.1632 -1.6247
   76MOL0     H 9989  10.754   9.039   7.012  0.2912 -0.9535 -1.7093
   76MOL0     H 9990  10.603   8.834   7.172 -0.8787 -0.3243 -0.7311
   76MOL0     H 9991  10.749   8.830   7.068 -0.6325 -1.4871  1.8844
   76MOL0     H 9992  10.714   9.025   7.305 -0.8465  1.7680 -2.2077
   76MOL0     H 9993  10.865   8.979   7.219 -1.4890  1.0937 -2.4219
   76MOL0     H 9994  10.829   8.625   7.467  0.4179  0.5049 -2.0268
   76MOL0     H 9995  11.012   8.573   7.618 -0.1062  1.2078  1.1588
   76MOL0     H 9996  11.430   9.069   7.773  0.6475  2.4649  1.8845
   76MOL0     H 9997  11.605   9.093   7.933  1.4071 -1.0725  2.1229
   76MOL0     H 9998  11.641   9.113   8.186  1.1090 -0.1844  3.7025
   76MOL0     H 9999  11.794   9.085   8.109  0.9689  0.1964  0.3858
   76MOL0     H10000  11.688   8.970   8.372 -2.3544  1.5481 -1.9117
   76MOL0     H10001  11.810   9.097   8.365  1.0782  0.6972 -0.9388
   76MOL0     H10002  11.964   8.935   8.259  1.4436 -1.0590  1.3299
   76MOL0     H10003  11.839   8.806   8.279 -1.5985 -0.6417  2.8396
   76MOL0     H10004  11.931   8.969   8.512 -3.4196  1.2417 -0.6857
   76MOL0     H10005  11.837   8.827   8.508  3.2970  0.3044  5.5401
   76MOL0     H10006  12.000   8.668   8.442 -0.8415  0.9256 -2.0741
   76MOL0     H10007  12.068   8.775   8.568  2.2158 -1.4381  0.3885
   76MOL0     H10008  12.154   8.918   8.377 -0.5372  0.5593 -4.0173
   76MOL0     H10009  12.124   8.777   8.279 -1.1192  0.4654  0.3494
   76MOL0     H10010  12.307   8.784   8.531  0.4953 -2.4840  0.8787
   76MOL0     H10011  12.263   8.633   8.439  1.9553 -0.1348 -1.1897
   76MOL0     H10012  12.404   8.888   8.366  0.2884  0.5674 -1.2311
   76MOL0     H10013  12.363   8.757   8.241  2.2269 -1.0201  0.2598
   76MOL0     H10014  11.475   8.740   8.141 -0.0423  0.5675  0.0397
   76MOL0     H10015  11.295   8.714   7.970 -0.0551 -0.6429 -0.8165
   76MOL0     H10016  11.169   8.975   7.566 -2.0429  0.6550  0.6435
   76MOL0     H10017  10.954   9.019   7.425 -2.2777 -0.1492 -1.0104
   76MOL0     H10018  10.243   8.913   5.893 -0.0749 -3.4959 -2.2401
   76MOL0     H10019  10.139   8.728   5.799  2.3529  2.1043 -0.3990
   76MOL0     H10020   9.660   8.554   5.886 -1.8319 -0.9015 -0.2072
   76MOL0     H10021   9.520   8.350   5.888 -0.5412  3.6450 -0.5440
   76MOL0     H10022   9.554   8.044   5.576 -0.6851  0.4868  0.1449
   76MOL0     H10023   9.483   8.195   5.601 -2.3714 -1.6589 -2.4075
   76MOL0     H10024   9.365   7.941   5.604 -2.3055 -0.8279  1.8351
   76MOL0     H10025   9.387   7.944   5.768  1.8479 -1.8597 -1.4145
   76MOL0     H10026   9.252   8.176   5.623  3.4552  1.9761  0.6243
   76MOL0     H10027   9.287   8.174   5.795 -1.9892 -2.4205  2.0219
   76MOL0     H10028   9.156   7.990   5.850  1.5262 -0.6746 -0.5781
   76MOL0     H10029   9.044   8.090   5.749 -0.8411 -0.6732 -0.2577
   76MOL0     H10030   9.069   7.727   5.541  2.9145  0.1312 -0.4039
   76MOL0     H10031   9.785   8.153   5.618  1.3904 -0.6252  0.8185
   76MOL0     H10032   9.905   8.358   5.591  1.1062 -0.9550  1.3364
   77MOL0     O10033   9.927   2.506   4.464 -0.5217 -0.3582 -0.2007
   77MOL0     C10034   9.844   2.588   4.436 -0.5361  0.6994 -0.2042
   77MOL0     O10035   9.751   2.644   4.521  0.2761 -0.2886 -0.2061
   77MOL0     C10036   9.734   2.594   4.648 -0.6840  0.0651  0.5326
   77MOL0     C10037   9.755   2.463   4.683  0.3576 -0.2649 -0.1742
   77MOL0     C10038   9.720   2.422   4.808 -0.6464  0.6127  0.1209
   77MOL0     C10039   9.642   2.494   4.894 -0.4740 -0.6967  0.1498
   77MOL0     O10040   9.619   2.451   5.022  0.2218  1.0538 -0.2868
   77MOL0     C10041   9.501   2.491   5.094 -0.3480 -0.0371  1.1765
   77MOL0     C10042   9.509   2.440   5.232 -0.2814 -0.0318  0.1226
   77MOL0     C10043   9.382   2.458   5.322 -0.0877 -0.3022 -1.0756
   77MOL0     C10044   9.265   2.376   5.274  0.0767  0.4914 -1.0395
   77MOL0     C10045   9.163   2.342   5.389 -0.4629 -0.2682  0.1720
   77MOL0     C10046   9.094   2.468   5.432 -0.4490  0.0621  0.2301
   77MOL0     C10047   8.983   2.449   5.543 -0.9654 -0.3274  0.3441
   77MOL0     C10048   8.846   2.421   5.491  0.2858  0.1679  0.3758
   77MOL0     N10049   8.776   2.336   5.595 -0.6241  0.0465  0.1201
   77MOL0     C10050   8.731   2.378   5.716 -1.0394 -0.4242 -0.3664
   77MOL0     C10051   8.651   2.286   5.769  0.1890  0.1813 -0.1795
   77MOL0     C10052   8.583   2.267   5.896 -0.0813  0.2639  0.0716
   77MOL0     C10053   8.663   2.181   5.991 -0.2028  0.0214 -0.0408
   77MOL0     C10054   8.821   2.184   5.992 -0.4663 -0.0594  0.4899
   77MOL0     C10055   8.879   2.095   6.100  0.5153  0.3705 -0.8916
   77MOL0     O10056   9.020   2.112   6.095 -0.2453  0.0139 -0.3394
   77MOL0     C10057   9.100   2.055   6.184 -0.7617 -0.0300 -0.8590
   77MOL0     C10058   9.153   2.127   6.291 -0.8780  0.8307  1.6733
   77MOL0     C10059   9.228   2.044   6.385  0.2197 -0.4913  0.2961
   77MOL0     C10060   9.264   1.910   6.354  0.6794 -0.5841 -0.6188
   77MOL0     C10061   9.338   1.826   6.451  0.8303  0.0853 -0.4804
   77MOL0     O10062   9.344   1.884   6.575 -0.1684 -0.4545 -0.4466
   77MOL0     C10063   9.405   1.842   6.687  1.2807  0.8924 -0.2083
   77MOL0     C10064   9.333   1.831   6.804 -0.6345 -0.5252  0.2213
   77MOL0     C10065   9.391   1.794   6.920  0.4864  0.0316 -0.3559
   77MOL0     C10066   9.526   1.784   6.928 -0.5582 -0.3572  0.7596
   77MOL0     O10067   9.567   1.734   7.052 -0.2805  0.3693  0.2799
   77MOL0     C10068   9.674   1.631   7.057 -0.3269  0.0431  0.5207
   77MOL0     C10069   9.659   1.544   7.180 -0.5628  0.5077  0.0237
   77MOL0     C10070   9.637   1.632   7.296  0.6883 -0.6747 -0.4648
   77MOL0     C10071   9.677   1.562   7.426  1.2466  0.2413 -0.4764
   77MOL0     C10072   9.598   1.620   7.553  0.9087 -0.0265  0.1817
   77MOL0     C10073   9.630   1.549   7.686  1.0769 -0.2248  0.0950
   77MOL0     C10074   9.780   1.529   7.714  0.6871 -0.1571  0.0438
   77MOL0     C10075   9.800   1.472   7.852 -0.7580  0.2717  0.1436
   77MOL0    Cl10076   9.967   1.421   7.870 -0.2873  0.1035  0.3252
   77MOL0     C10077   9.608   1.804   6.812  0.3869  0.8875 -0.6079
   77MOL0     C10078   9.546   1.826   6.693 -0.3314 -0.4365 -0.4161
   77MOL0     O10079   9.377   1.710   6.428 -0.3130 -0.0582 -0.2377
   77MOL0     C10080   9.217   1.847   6.242 -0.0892 -0.3979 -0.2300
   77MOL0     C10081   9.136   1.924   6.159  0.5782  0.1736  0.2386
   77MOL0     N10082   8.658   2.183   5.671 -0.1012  0.4016  0.2261
   77MOL0     N10083   8.718   2.223   5.564  0.4425 -0.5475 -0.1133
   77MOL0     C10084   9.612   2.622   4.856 -0.3907 -0.0239  0.4686
   77MOL0     C10085   9.657   2.667   4.733  0.8604 -0.0491 -0.0919
   77MOL0     C10086   9.843   2.638   4.292 -0.7051 -0.4346 -0.2235
   77MOL0     C10087   9.941   2.607   4.193  0.3278 -0.3268  1.0155
   77MOL0     C10088   9.921   2.661   4.064 -0.0282  0.7847  0.1854
   77MOL0     C10089   9.827   2.755   4.026  0.4636  1.1380 -1.1129
   77MOL0     O10090   9.830   2.827   3.910 -0.1923 -0.3768  0.0725
   77MOL0     C10091   9.897   2.770   3.791  0.2899  0.5886 -0.5613
   77MOL0     C10092   9.798   2.670   3.736  0.2416 -0.6464  0.7321
   77MOL0     C10093   9.655   2.728   3.710  0.1577  0.0584  0.2613
   77MOL0     C10094   9.581   2.635   3.621 -0.2172  0.2866  1.0036
   77MOL0     C10095   9.445   2.689   3.584  0.7744 -0.2979 -0.2281
   77MOL0     C10096   9.363   2.765   3.529  0.7750  1.2542 -0.5669
   77MOL0     C10097   9.733   2.785   4.129 -0.6463 -0.1757  0.3847
   77MOL0     C10098   9.743   2.725   4.250 -1.1062  0.0673 -0.0411
   77MOL0     H10099   9.799   2.392   4.613  0.8609  2.2337 -2.5417
   77MOL0     H10100   9.762   2.327   4.840 -0.6841  0.6779  0.3633
   77MOL0     H10101   9.411   2.437   5.062  1.0868 -2.4721  1.0213
   77MOL0     H10102   9.474   2.597   5.095 -2.8419 -0.5444 -0.8518
   77MOL0     H10103   9.594   2.494   5.275  0.1914  1.9407 -2.9485
   77MOL0     H10104   9.526   2.333   5.224  1.7027  0.3758 -2.5947
   77MOL0     H10105   9.353   2.563   5.329 -1.6602 -0.5585 -2.8518
   77MOL0     H10106   9.416   2.438   5.424  1.0832  4.9548 -0.1360
   77MOL0     H10107   9.216   2.422   5.188 -0.0296 -0.4951 -1.5110
   77MOL0     H10108   9.313   2.283   5.242  1.0273  0.0215  1.5147
   77MOL0     H10109   9.219   2.300   5.473 -0.9144 -2.0784 -0.3887
   77MOL0     H10110   9.083   2.276   5.354  0.6759 -1.5462 -0.0896
   77MOL0     H10111   9.043   2.518   5.348  3.0672  1.0288 -1.5340
   77MOL0     H10112   9.170   2.542   5.458  1.0000 -0.1883 -2.8647
   77MOL0     H10113   9.025   2.365   5.598 -0.2172  0.9118  1.7301
   77MOL0     H10114   8.976   2.528   5.618 -2.7194  1.8121 -1.8987
   77MOL0     H10115   8.847   2.366   5.396 -0.2793  2.9976 -1.3904
   77MOL0     H10116   8.790   2.514   5.478 -2.6584 -0.9677  3.4936
   77MOL0     H10117   8.759   2.473   5.760  1.0786 -0.9828 -0.4112
   77MOL0     H10118   8.479   2.241   5.876 -0.4067  2.2791 -1.2051
   77MOL0     H10119   8.576   2.364   5.946  2.3328  1.3561 -1.5232
   77MOL0     H10120   8.626   2.081   5.963 -2.1297  0.9441 -0.9566
   77MOL0     H10121   8.629   2.192   6.094  2.0558 -0.2867  0.7979
   77MOL0     H10122   8.853   2.140   5.897 -1.9711 -0.6818  0.2291
   77MOL0     H10123   8.867   2.280   6.015 -0.6328 -0.2504  1.6888
   77MOL0     H10124   8.847   1.994   6.074  2.4085 -0.6995  0.6974
   77MOL0     H10125   8.843   2.116   6.201  0.8117  2.4375 -1.1773
   77MOL0     H10126   9.136   2.234   6.280  1.2900  0.9777 -1.9104
   77MOL0     H10127   9.261   2.091   6.478  0.9636 -1.6584  0.6417
   77MOL0     H10128   9.226   1.842   6.789 -0.3474  2.4869 -0.2736
   77MOL0     H10129   9.324   1.785   7.005  0.8435  1.5822  0.1204
   77MOL0     H10130   9.770   1.685   7.056 -0.3746  0.1243 -0.3543
   77MOL0     H10131   9.688   1.576   6.964  2.3595  0.6832  0.4482
   77MOL0     H10132   9.744   1.474   7.185 -1.0318 -0.0060  1.2262
   77MOL0     H10133   9.571   1.480   7.166 -0.6906  0.7227 -0.1619
   77MOL0     H10134   9.533   1.666   7.296  0.3650 -1.6139 -0.7417
   77MOL0     H10135   9.694   1.724   7.287  0.2137 -0.5195 -2.2964
   77MOL0     H10136   9.653   1.456   7.412 -0.1750  0.7483 -2.2688
   77MOL0     H10137   9.784   1.572   7.443  1.4392  0.5662 -1.8044
   77MOL0     H10138   9.492   1.607   7.532  1.0217  0.0097 -0.4307
   77MOL0     H10139   9.613   1.728   7.565  2.1777 -0.0960 -0.5406
   77MOL0     H10140   9.585   1.450   7.680  2.5117 -1.2399  3.4958
   77MOL0     H10141   9.597   1.605   7.774  1.2706 -0.5157  0.3539
   77MOL0     H10142   9.802   1.455   7.637 -3.5522 -0.1344 -1.4497
   77MOL0     H10143   9.843   1.616   7.694 -0.0390  1.4428  3.8046
   77MOL0     H10144   9.743   1.385   7.887  2.1327 -0.8868  2.3902
   77MOL0     H10145   9.783   1.557   7.917 -4.9113  0.1715 -0.5863
   77MOL0     H10146   9.715   1.786   6.805  0.1887  0.2360 -3.2638
   77MOL0     H10147   9.610   1.832   6.606 -1.6494 -1.8095 -1.5357
   77MOL0     H10148   9.239   1.742   6.224  1.2967 -0.0957 -0.4263
   77MOL0     H10149   9.097   1.876   6.070  1.1151  2.5889 -1.3835
   77MOL0     H10150   9.567   2.687   4.931  1.2341  1.2728  0.3609
   77MOL0     H10151   9.631   2.770   4.708  1.1628 -0.0225 -0.3033
   77MOL0     H10152  10.027   2.544   4.209  0.5187 -0.5372 -0.6462
   77MOL0     H10153   9.987   2.621   3.989  1.4200  0.6761  1.4750
   77MOL0     H10154   9.996   2.734   3.821 -0.0075  1.7967  2.2652
   77MOL0     H10155   9.908   2.851   3.718 -3.9173  1.6315 -0.3123
   77MOL0     H10156   9.839   2.625   3.646 -0.8607 -2.9290  1.3013
   77MOL0     H10157   9.786   2.584   3.803  1.9018 -2.3310 -1.0154
   77MOL0     H10158   9.673   2.819   3.652  3.6854 -1.9383 -2.1719
   77MOL0     H10159   9.596   2.739   3.801 -1.0782 -1.3014 -0.3260
   77MOL0     H10160   9.629   2.616   3.524  0.4570  0.7036  1.2512
   77MOL0     H10161   9.581   2.541   3.677 -2.0961  1.0759  2.3915
   77MOL0     H10162   9.284   2.815   3.478  0.3005  1.1943  0.0949
   77MOL0     H10163   9.656   2.859   4.110  0.5729  0.5543 -2.1520
   77MOL0     H10164   9.669   2.757   4.323 -0.1823  0.3022  0.8143
   78MOL0     O10165   3.709   5.105   7.670 -0.0833  1.0168  0.0479
   78MOL0     C10166   3.782   5.028   7.606 -0.1399 -0.2166  0.1338
   78MOL0     O10167   3.759   4.892   7.588 -0.0629  0.1588 -0.5203
   78MOL0     C10168   3.679   4.833   7.684 -0.2841 -0.7754  0.1775
   78MOL0     C10169   3.688   4.860   7.823  0.2840  0.3065 -0.0201
   78MOL0     C10170   3.579   4.824   7.901 -0.1666  0.5586 -0.8583
   78MOL0     C10171   3.467   4.750   7.857 -0.2133  1.2107  0.4709
   78MOL0     O10172   3.368   4.739   7.945 -0.9090 -0.3117  0.4422
   78MOL0     C10173   3.250   4.669   7.893  0.8270  0.5627 -0.2025
   78MOL0     C10174   3.154   4.642   8.006  0.1582  0.1794 -0.2688
   78MOL0     C10175   3.025   4.573   7.961  0.1037 -0.1786 -0.6637
   78MOL0     C10176   2.910   4.595   8.071  0.0718  0.6169  0.6228
   78MOL0     C10177   2.774   4.531   8.032 -0.5140 -0.5798 -0.0581
   78MOL0     C10178   2.650   4.587   8.124  0.0877 -0.2115  0.6905
   78MOL0     C10179   2.521   4.500   8.133 -0.3681 -0.2224 -0.4373
   78MOL0     C10180   2.421   4.558   8.236  0.6440  0.1831  0.4609
   78MOL0     N10181   2.425   4.490   8.367  0.3379 -0.5545  0.1098
   78MOL0     C10182   2.524   4.511   8.458 -0.2000 -0.6234 -1.2460
   78MOL0     C10183   2.487   4.443   8.569 -0.3010  0.3334 -0.3167
   78MOL0     C10184   2.553   4.436   8.711  1.0731  0.6691  0.6317
   78MOL0     C10185   2.489   4.541   8.801  0.0455  0.0103 -0.5940
   78MOL0     C10186   2.556   4.552   8.949  0.6277 -0.1234 -0.3344
   78MOL0     C10187   2.487   4.655   9.029  0.4239  0.0148  0.0563
   78MOL0     O10188   2.515   4.787   8.967 -0.4307 -0.0185  0.4573
   78MOL0     C10189   2.416   4.878   8.940  1.0221 -0.5993 -0.4202
   78MOL0     C10190   2.308   4.891   9.028 -1.0148 -0.2618  0.0435
   78MOL0     C10191   2.198   4.973   8.992 -0.4189  0.5930 -0.3902
   78MOL0     C10192   2.197   5.042   8.874 -0.5677  0.2930 -0.2118
   78MOL0     C10193   2.083   5.129   8.849 -0.5170 -0.1712  0.2923
   78MOL0     O10194   1.968   5.065   8.858  0.0668 -0.2138 -0.3163
   78MOL0     C10195   1.851   5.138   8.841  0.0043  0.1714  0.5257
   78MOL0     C10196   1.814   5.197   8.719 -0.8378 -0.2813  0.1475
   78MOL0     C10197   1.688   5.264   8.703  0.2030 -0.1038 -0.1059
   78MOL0     C10198   1.604   5.297   8.805  0.2116 -0.5835  0.1104
   78MOL0     O10199   1.504   5.385   8.780  0.1635  0.6343 -0.0586
   78MOL0     C10200   1.422   5.435   8.883 -0.4280  0.5738 -0.9412
   78MOL0     C10201   1.291   5.360   8.914 -1.2191 -0.3810 -0.1018
   78MOL0     C10202   1.209   5.414   9.030 -0.4584 -0.8388  0.3963
   78MOL0     C10203   1.060   5.383   9.019  0.9695 -0.5154 -0.2073
   78MOL0     C10204   0.985   5.467   8.915  0.1732 -0.6560 -0.1787
   78MOL0     C10205   0.831   5.445   8.915  1.4153  0.6579 -0.0197
   78MOL0     C10206   0.761   5.510   8.797  0.1014  0.1826  0.1463
   78MOL0     C10207   0.735   5.655   8.826 -0.3523 -0.4904 -0.4382
   78MOL0    Cl10208   0.624   5.671   8.969 -0.3603 -0.3057 -0.5574
   78MOL0     C10209   1.643   5.239   8.929 -0.2642  0.2505  0.1402
   78MOL0     C10210   1.757   5.159   8.944 -0.5880  0.3262 -0.1770
   78MOL0     O10211   2.096   5.249   8.822  0.1481  0.3364  0.3861
   78MOL0     C10212   2.315   5.045   8.800  1.2673  0.7668 -0.4451
   78MOL0     C10213   2.421   4.953   8.822  0.4526 -0.2584 -0.5813
   78MOL0     N10214   2.367   4.380   8.540 -0.4099  0.0651  0.7447
   78MOL0     N10215   2.335   4.409   8.416  0.4576  0.9144  0.0694
   78MOL0     C10216   3.464   4.713   7.719  0.0585 -0.9053  0.3459
   78MOL0     C10217   3.567   4.762   7.632 -0.1326 -0.0799 -0.5374
   78MOL0     C10218   3.902   5.090   7.551  0.0476 -0.2827 -0.3639
   78MOL0     C10219   3.930   5.232   7.542  1.0839  0.2339 -0.0141
   78MOL0     C10220   4.052   5.278   7.488  0.4716 -0.3796  0.5318
   78MOL0     C10221   4.144   5.188   7.437 -0.2284 -0.2814  0.2703
   78MOL0     O10222   4.246   5.233   7.367 -0.1604  0.0816  0.5299
   78MOL0     C10223   4.223   5.305   7.245  0.4582 -0.4177  0.5522
   78MOL0     C10224   4.328   5.417   7.233  1.0389  0.0265 -0.3261
   78MOL0     C10225   4.323   5.497   7.104 -1.0979 -0.2934 -0.2721
   78MOL0     C10226   4.405   5.615   7.103 -0.0828 -0.8039 -0.9318
   78MOL0     C10227   4.356   5.715   7.198 -0.1590 -0.4079  0.3622
   78MOL0     C10228   4.314   5.793   7.278  0.8458  0.5407  0.2869
   78MOL0     C10229   4.124   5.050   7.454  0.3003 -0.1336  0.3728
   78MOL0     C10230   4.002   5.005   7.513  0.9802  0.4584 -0.2637
   78MOL0     H10231   3.764   4.932   7.853  0.5227  0.5397 -1.1626
   78MOL0     H10232   3.585   4.846   8.007  0.8099 -0.5218 -0.6666
   78MOL0     H10233   3.266   4.569   7.852 -1.4530  1.1175 -2.6768
   78MOL0     H10234   3.192   4.737   7.830  4.4350  2.2845 -1.9950
   78MOL0     H10235   3.130   4.745   8.032 -0.1822  1.2059 -4.0346
   78MOL0     H10236   3.207   4.584   8.082 -0.9450 -0.6093 -0.0735
   78MOL0     H10237   3.049   4.466   7.961 -2.9326 -0.9577  0.7688
   78MOL0     H10238   2.991   4.604   7.862  2.7282 -1.3858 -2.0840
   78MOL0     H10239   2.935   4.552   8.168 -1.1788 -0.9430  0.3070
   78MOL0     H10240   2.908   4.703   8.087 -2.2845  0.7869 -0.4050
   78MOL0     H10241   2.772   4.423   8.046 -3.6350 -0.4600  1.4887
   78MOL0     H10242   2.741   4.552   7.930  0.2157 -2.3077 -0.6806
   78MOL0     H10243   2.624   4.687   8.088  1.3462  0.3279  1.2033
   78MOL0     H10244   2.685   4.601   8.227 -0.7401 -0.2683  0.9850
   78MOL0     H10245   2.483   4.501   8.030 -0.1599 -0.1264 -0.5140
   78MOL0     H10246   2.527   4.393   8.150 -0.9598 -0.5367 -2.0388
   78MOL0     H10247   2.319   4.537   8.201  0.3036  2.2067  0.1458
   78MOL0     H10248   2.434   4.666   8.243  0.5837  0.3196 -1.0892
   78MOL0     H10249   2.623   4.554   8.450  1.3780 -2.3328  4.3891
   78MOL0     H10250   2.660   4.460   8.707  1.1905  0.9685  3.3963
   78MOL0     H10251   2.547   4.332   8.745  0.9654  0.1462 -0.8937
   78MOL0     H10252   2.380   4.533   8.803  0.1772 -3.8415 -0.9914
   78MOL0     H10253   2.520   4.641   8.770 -0.8583  0.5622  0.2596
   78MOL0     H10254   2.555   4.450   8.990 -0.1267  0.6986  1.8401
   78MOL0     H10255   2.658   4.589   8.936  0.8732  0.0471  1.7195
   78MOL0     H10256   2.530   4.653   9.129  1.8948  0.6406 -0.5254
   78MOL0     H10257   2.379   4.640   9.033  0.1024  1.6330 -1.2624
   78MOL0     H10258   2.306   4.842   9.124 -0.2511  1.1273  0.8100
   78MOL0     H10259   2.130   4.994   9.073  2.1682  1.9726  1.5602
   78MOL0     H10260   1.878   5.190   8.631  0.1730 -3.0474  1.0007
   78MOL0     H10261   1.659   5.298   8.604  2.2161 -1.3429 -1.1960
   78MOL0     H10262   1.399   5.540   8.861 -1.9322  0.4550 -0.0349
   78MOL0     H10263   1.480   5.432   8.976  0.7849  0.2101 -1.6839
   78MOL0     H10264   1.302   5.253   8.931 -0.7644 -0.6276 -1.7756
   78MOL0     H10265   1.233   5.374   8.823  0.8575  1.1962 -1.2743
   78MOL0     H10266   1.229   5.521   9.028  3.6121 -1.3997  1.4580
   78MOL0     H10267   1.252   5.376   9.123  0.9378 -1.9337 -0.6591
   78MOL0     H10268   1.044   5.278   8.992  0.6287 -0.2078 -1.2403
   78MOL0     H10269   1.021   5.406   9.118  0.5092  0.1710 -0.5409
   78MOL0     H10270   1.026   5.460   8.813  0.7777 -1.6486  0.1123
   78MOL0     H10271   0.989   5.572   8.944 -3.5280 -0.6387  0.6477
   78MOL0     H10272   0.791   5.476   9.011 -0.6459  1.4252 -1.0656
   78MOL0     H10273   0.811   5.337   8.907 -0.9838  0.9316  1.4078
   78MOL0     H10274   0.825   5.505   8.709  0.1833  1.0474  0.1546
   78MOL0     H10275   0.670   5.454   8.776  1.2128 -2.8924  2.5938
   78MOL0     H10276   0.683   5.709   8.746  1.6490  1.8158 -0.3119
   78MOL0     H10277   0.832   5.695   8.855 -0.8509  1.0328 -0.7305
   78MOL0     H10278   1.590   5.252   9.022  3.4078  0.2905  2.4239
   78MOL0     H10279   1.780   5.126   9.045  0.3377 -3.4417 -1.4863
   78MOL0     H10280   2.319   5.102   8.707  2.0467  0.2120 -0.7616
   78MOL0     H10281   2.506   4.955   8.755  1.0015  3.4930 -0.0002
   78MOL0     H10282   3.383   4.663   7.666 -0.0539 -0.6424  0.2659
   78MOL0     H10283   3.563   4.753   7.524 -3.2563  3.9000 -1.0178
   78MOL0     H10284   3.844   5.289   7.576 -0.0368 -0.5176 -1.4427
   78MOL0     H10285   4.062   5.385   7.475  2.5965 -0.2384  2.5476
   78MOL0     H10286   4.120   5.335   7.224  1.6363  3.1602 -0.7501
   78MOL0     H10287   4.258   5.232   7.170  0.1262 -1.1196  1.0679
   78MOL0     H10288   4.304   5.492   7.309 -2.6341  1.0532 -2.2561
   78MOL0     H10289   4.429   5.377   7.239  0.3032 -1.7295  1.2321
   78MOL0     H10290   4.227   5.531   7.065 -0.7054 -0.0728 -1.0806
   78MOL0     H10291   4.369   5.427   7.033  3.7386 -0.0504  2.2016
   78MOL0     H10292   4.513   5.610   7.119 -0.1236  2.6441  1.4737
   78MOL0     H10293   4.401   5.656   7.002  1.2199 -1.6464 -1.3493
   78MOL0     H10294   4.272   5.866   7.345 -1.0572 -0.9248  0.8093
   78MOL0     H10295   4.206   4.983   7.432 -0.7246 -0.9804 -1.0813
   78MOL0     H10296   3.985   4.898   7.523  3.2895 -0.0726 -1.2570
   79MOL0     O10297   6.367   7.914   5.421 -0.6251  0.7190  0.3562
   79MOL0     C10298   6.483   7.910   5.380  0.1727  0.0744 -0.1702
   79MOL0     O10299   6.531   7.972   5.270 -0.1882 -0.0455 -0.3334
   79MOL0     C10300   6.447   8.080   5.232 -0.1633 -0.6270 -0.8695
   79MOL0     C10301   6.380   8.171   5.321  0.1819  0.5104 -0.6117
   79MOL0     C10302   6.297   8.264   5.273  0.3479  0.3180  0.3257
   79MOL0     C10303   6.273   8.270   5.133 -0.3149 -0.4520 -0.1197
   79MOL0     O10304   6.208   8.378   5.084 -0.2336 -0.0247 -0.9847
   79MOL0     C10305   6.065   8.349   5.066  0.2038 -0.5195  0.3737
   79MOL0     C10306   5.998   8.477   4.996  0.0404 -0.8958 -1.6059
   79MOL0     C10307   5.991   8.594   5.108  0.5182  0.5891  0.1098
   79MOL0     C10308   5.888   8.688   5.064 -0.5279 -0.2840  0.2591
   79MOL0     C10309   5.911   8.824   5.134  0.0961 -0.1380 -0.1444
   79MOL0     C10310   5.854   8.936   5.036 -0.4258 -0.3313 -0.1499
   79MOL0     C10311   5.877   9.063   5.101 -0.2068  0.0844  0.6851
   79MOL0     C10312   5.818   9.187   5.011 -0.3233  0.0472 -0.1205
   79MOL0     N10313   5.673   9.194   4.990  0.1333 -0.3271 -0.5458
   79MOL0     C10314   5.575   9.177   5.087 -0.7261  0.0664  0.0600
   79MOL0     C10315   5.458   9.194   5.021  0.3940 -0.1152  0.1583
   79MOL0     C10316   5.327   9.156   5.077  0.9754 -0.6274 -0.9344
   79MOL0     C10317   5.300   9.016   5.017 -0.6582 -0.2085 -1.3681
   79MOL0     C10318   5.190   8.943   5.097  0.0550 -0.3293 -0.3383
   79MOL0     C10319   5.040   8.992   5.083 -0.1917 -0.4669  0.0756
   79MOL0     O10320   5.027   9.101   5.188  0.2240 -0.2650 -0.2328
   79MOL0     C10321   4.912   9.132   5.251  0.1150  0.9826 -0.6357
   79MOL0     C10322   4.791   9.072   5.236 -0.1913  0.0892  0.1827
   79MOL0     C10323   4.683   9.118   5.310 -0.0938 -0.5307 -0.5666
   79MOL0     C10324   4.693   9.218   5.414 -0.1320  0.3081  0.5402
   79MOL0     C10325   4.575   9.269   5.503  0.3417  0.2512 -0.5198
   79MOL0     O10326   4.585   9.391   5.565 -0.0886  0.7671 -0.3628
   79MOL0     C10327   4.485   9.442   5.635  0.7478  0.3104 -0.8001
   79MOL0     C10328   4.495   9.577   5.630  0.1818 -0.4175 -0.5953
   79MOL0     C10329   4.408   9.657   5.714 -0.7176  1.1770 -0.1615
   79MOL0     C10330   4.309   9.592   5.796 -0.0002  0.3928  0.4861
   79MOL0     O10331   4.229   9.653   5.891  0.5947  0.1302  0.1596
   79MOL0     C10332   4.267   9.783   5.929 -0.3196  0.2150 -0.0794
   79MOL0     C10333   4.153   9.837   6.016  0.1464 -0.0398  0.0061
   79MOL0     C10334   4.153   9.736   6.139 -0.3128  0.2163  0.7839
   79MOL0     C10335   4.063   9.795   6.243 -0.7081  0.1434  0.2176
   79MOL0     C10336   4.062   9.741   6.386  0.6223 -0.4645 -0.5886
   79MOL0     C10337   3.972   9.841   6.468 -0.3824  0.7144  0.4077
   79MOL0     C10338   3.982   9.817   6.623  0.1280  0.4713  0.1114
   79MOL0     C10339   3.939   9.685   6.684  0.4664  0.0021  1.1138
   79MOL0    Cl10340   3.780   9.636   6.617 -0.1887 -0.0577  0.3794
   79MOL0     C10341   4.295   9.456   5.789  0.5005  0.8328 -0.0534
   79MOL0     C10342   4.388   9.385   5.720 -0.0284  0.6316  0.7782
   79MOL0     O10343   4.478   9.193   5.510 -0.5478  0.1026 -0.4028
   79MOL0     C10344   4.823   9.270   5.437  0.0788 -0.0703 -0.1966
   79MOL0     C10345   4.929   9.239   5.348  0.6817  0.6074 -0.2202
   79MOL0     N10346   5.481   9.202   4.888 -0.1939 -0.7950 -0.3960
   79MOL0     N10347   5.614   9.209   4.874  0.0821 -0.2886 -0.3253
   79MOL0     C10348   6.340   8.191   5.049 -0.7317  0.8665 -0.4211
   79MOL0     C10349   6.432   8.095   5.096 -0.3145  1.5574 -1.0835
   79MOL0     C10350   6.569   7.811   5.443 -0.4989 -0.5960 -0.0138
   79MOL0     C10351   6.671   7.737   5.372 -0.6341  0.1358  0.3206
   79MOL0     C10352   6.741   7.642   5.445 -0.6146 -0.8962 -0.6111
   79MOL0     C10353   6.705   7.607   5.577  0.0072  0.7105 -1.1828
   79MOL0     O10354   6.770   7.508   5.656 -1.2404 -0.8060  0.6357
   79MOL0     C10355   6.764   7.381   5.600 -0.2636  0.9888 -0.3285
   79MOL0     C10356   6.719   7.277   5.700  0.0372  0.0369 -0.2926
   79MOL0     C10357   6.675   7.138   5.644  0.4084 -0.4303 -0.3750
   79MOL0     C10358   6.789   7.054   5.591  0.0427 -0.3610  0.1391
   79MOL0     C10359   6.741   6.949   5.512 -0.1368  0.6746  0.0710
   79MOL0     C10360   6.689   6.862   5.444  1.4131 -0.4979 -0.0093
   79MOL0     C10361   6.614   7.682   5.644  0.5908  0.8295  0.4063
   79MOL0     C10362   6.541   7.780   5.574  0.2908 -0.7802 -0.1216
   79MOL0     H10363   6.403   8.171   5.427 -1.3223  2.2872 -0.2235
   79MOL0     H10364   6.251   8.341   5.334  0.9185  1.8205 -1.0887
   79MOL0     H10365   6.023   8.340   5.167  0.1217  1.0796  0.4987
   79MOL0     H10366   6.056   8.258   5.005  2.2419 -2.1079  2.2812
   79MOL0     H10367   5.898   8.445   4.968  0.9157 -2.3597 -3.2178
   79MOL0     H10368   6.058   8.520   4.915  0.9439  0.9704 -0.0443
   79MOL0     H10369   6.092   8.632   5.122  1.2482 -1.6234  1.3113
   79MOL0     H10370   5.968   8.558   5.209 -1.1970  2.4526  0.4602
   79MOL0     H10371   5.907   8.696   4.957  0.8393  1.2315  0.5750
   79MOL0     H10372   5.784   8.659   5.077 -0.5443 -0.4791 -0.3037
   79MOL0     H10373   6.020   8.832   5.145  0.3602 -1.7457 -1.3574
   79MOL0     H10374   5.856   8.835   5.228  0.1582 -3.1267  0.3320
   79MOL0     H10375   5.746   8.929   5.017 -0.4645 -0.1645  0.0105
   79MOL0     H10376   5.900   8.928   4.938  0.8776  0.9367  0.3371
   79MOL0     H10377   5.839   9.067   5.203  1.4682 -0.0527  1.3490
   79MOL0     H10378   5.985   9.077   5.111 -0.3399  1.2065  0.6448
   79MOL0     H10379   5.874   9.176   4.917  1.3885 -2.3117  1.0634
   79MOL0     H10380   5.846   9.280   5.061  1.5904  2.3265 -4.8416
   79MOL0     H10381   5.582   9.166   5.195 -0.5423 -0.5699 -0.0135
   79MOL0     H10382   5.253   9.234   5.053  2.8830  1.6724  0.2418
   79MOL0     H10383   5.321   9.157   5.186 -0.4876 -2.0891 -0.9626
   79MOL0     H10384   5.390   8.955   5.028 -1.8308 -1.5937  1.8298
   79MOL0     H10385   5.301   9.023   4.908  0.0299  2.7762 -1.2575
   79MOL0     H10386   5.187   8.840   5.061  0.4765 -0.7248  0.7117
   79MOL0     H10387   5.214   8.939   5.204 -2.7174  2.7301  0.5711
   79MOL0     H10388   4.977   8.904   5.098 -0.0806 -0.4688  0.5656
   79MOL0     H10389   5.028   9.026   4.980 -0.0632 -1.1493 -0.1716
   79MOL0     H10390   4.771   8.992   5.165  0.5205  0.5584 -0.5451
   79MOL0     H10391   4.586   9.073   5.293 -1.5944  1.5892  1.6488
   79MOL0     H10392   4.580   9.622   5.579  0.4798 -0.4109 -0.0927
   79MOL0     H10393   4.438   9.761   5.722  0.8319  0.7080  0.6363
   79MOL0     H10394   4.290   9.849   5.845  3.1934 -0.1188  0.4820
   79MOL0     H10395   4.354   9.773   5.994  1.3271  4.6525 -1.2275
   79MOL0     H10396   4.059   9.857   5.965  0.1588  0.0358  0.0122
   79MOL0     H10397   4.176   9.938   6.053 -0.7311 -0.4116  1.6771
   79MOL0     H10398   4.256   9.728   6.175  0.9901 -0.9185 -2.7448
   79MOL0     H10399   4.112   9.637   6.117 -0.2799  0.3073  0.2951
   79MOL0     H10400   4.081   9.903   6.252  1.4828 -0.1146 -0.5645
   79MOL0     H10401   3.958   9.779   6.219  0.1536 -1.1818 -3.1454
   79MOL0     H10402   4.163   9.740   6.427  0.3904 -1.5094  0.0112
   79MOL0     H10403   4.017   9.641   6.385 -0.2765 -0.0743 -0.6272
   79MOL0     H10404   3.868   9.835   6.433 -0.2075  0.6582 -0.1132
   79MOL0     H10405   4.023   9.937   6.455 -0.6710  0.9909  1.2373
   79MOL0     H10406   4.085   9.832   6.658  0.3830  1.1289 -0.8967
   79MOL0     H10407   3.913   9.887   6.671  0.6056 -1.6343  4.3547
   79MOL0     H10408   3.932   9.705   6.791  1.1713  0.7281  1.0348
   79MOL0     H10409   4.004   9.603   6.653 -1.4857 -2.6477  3.4499
   79MOL0     H10410   4.215   9.406   5.842  2.3610 -0.2883  1.8390
   79MOL0     H10411   4.402   9.278   5.733  0.7673  0.6456  0.1355
   79MOL0     H10412   4.841   9.343   5.515 -2.0535 -1.3051  1.5454
   79MOL0     H10413   5.030   9.278   5.364  0.8351  0.8500 -1.6474
   79MOL0     H10414   6.332   8.196   4.941  0.4982  0.9855 -0.5145
   79MOL0     H10415   6.475   8.014   5.039  0.4412  0.7915  0.5295
   79MOL0     H10416   6.700   7.756   5.269 -1.2044 -1.9822 -0.2856
   79MOL0     H10417   6.811   7.584   5.386  0.5501 -1.0332  0.8317
   79MOL0     H10418   6.862   7.338   5.578 -1.0650 -0.1800 -1.7510
   79MOL0     H10419   6.701   7.376   5.511 -1.4676 -1.5446  0.5592
   79MOL0     H10420   6.796   7.260   5.775  0.8248  1.8459 -0.6420
   79MOL0     H10421   6.630   7.321   5.745  1.3161  0.7078  1.7156
   79MOL0     H10422   6.582   7.149   5.588  1.0798  0.5972 -1.3269
   79MOL0     H10423   6.646   7.073   5.727 -1.3467 -1.3536 -1.6616
   79MOL0     H10424   6.867   7.108   5.536 -0.2379  0.7911  0.8405
   79MOL0     H10425   6.835   7.019   5.685 -0.1366  0.2981  0.4796
   79MOL0     H10426   6.649   6.786   5.380  0.7182 -1.0176  1.0083
   79MOL0     H10427   6.616   7.679   5.752  1.0525  1.7118  0.4301
   79MOL0     H10428   6.482   7.849   5.635  3.4948  0.2497  2.0678
   80MOL0     O10429   1.845   1.237   0.946  0.2744 -0.5388  0.1169
   80MOL0     C10430   1.901   1.155   1.019 -0.1313 -0.1359 -0.6170
   80MOL0     O10431   1.903   1.149   1.152 -0.3249  0.0467 -0.2481
   80MOL0     C10432   1.816   1.230   1.217 -0.5637 -0.2001  0.5704
   80MOL0     C10433   1.824   1.374   1.225 -0.3042  0.5399 -0.4245
   80MOL0     C10434   1.715   1.448   1.275  1.3631  0.3800  0.7776
   80MOL0     C10435   1.609   1.384   1.345 -0.8859 -0.0850  0.1420
   80MOL0     O10436   1.512   1.459   1.412 -0.8248  0.2111 -0.0756
   80MOL0     C10437   1.441   1.404   1.516 -0.4589  0.5658 -0.3857
   80MOL0     C10438   1.362   1.503   1.598 -0.3809  0.0602  0.6398
   80MOL0     C10439   1.273   1.435   1.694 -0.1349  0.9664  0.4661
   80MOL0     C10440   1.188   1.532   1.767  0.2753 -0.7056  0.0015
   80MOL0     C10441   1.106   1.465   1.872 -0.1496 -0.9887  0.8188
   80MOL0     C10442   0.994   1.569   1.914 -0.1895 -0.1557  0.3027
   80MOL0     C10443   0.918   1.497   2.019 -0.0901  1.1917  0.2596
   80MOL0     C10444   0.826   1.602   2.089  0.5106 -0.4904  0.0606
   80MOL0     N10445   0.736   1.534   2.179  1.1003  0.6357 -0.2389
   80MOL0     C10446   0.608   1.486   2.156  0.5624 -0.8881  0.4627
   80MOL0     C10447   0.580   1.394   2.245 -0.1993 -0.4876  0.0188
   80MOL0     C10448   0.453   1.307   2.234  0.6840 -0.1722 -0.3560
   80MOL0     C10449   0.376   1.309   2.362 -0.8591 -0.0638 -0.1551
   80MOL0     C10450   0.252   1.222   2.357 -0.2600 -0.0554  0.4352
   80MOL0     C10451   0.163   1.249   2.470 -0.1981 -0.1790  0.1156
   80MOL0     O10452   0.028   1.236   2.426 -0.2749  0.0855 -0.3300
   80MOL0     C10453  -0.077   1.256   2.517 -0.0114 -0.2478  1.0420
   80MOL0     C10454  -0.060   1.297   2.654 -0.5200  0.3788  0.9251
   80MOL0     C10455  -0.179   1.309   2.730  0.6637 -0.0815  0.0613
   80MOL0     C10456  -0.309   1.281   2.672 -0.3355  0.4722 -0.5156
   80MOL0     C10457  -0.425   1.296   2.767  0.2309  0.1214  0.0278
   80MOL0     O10458  -0.549   1.259   2.720 -0.1892 -0.3260  0.3521
   80MOL0     C10459  -0.655   1.292   2.804  0.5654  0.1156 -0.0785
   80MOL0     C10460  -0.678   1.426   2.837  0.4818 -0.2749  0.4034
   80MOL0     C10461  -0.786   1.452   2.926  0.0302  0.2134  0.2739
   80MOL0     C10462  -0.865   1.353   2.985 -0.7149  0.3759  0.9623
   80MOL0     O10463  -0.957   1.389   3.079  0.3976  0.2885  0.0829
   80MOL0     C10464  -1.062   1.296   3.108  0.2052  0.3001  0.3890
   80MOL0     C10465  -1.172   1.343   3.190  1.1539  0.8650  0.0194
   80MOL0     C10466  -1.293   1.244   3.184  0.7988  0.6800  0.3096
   80MOL0     C10467  -1.281   1.096   3.226  0.0395  0.8842 -0.1108
   80MOL0     C10468  -1.417   1.016   3.205 -0.5831  0.0253 -0.4652
   80MOL0     C10469  -1.433   0.992   3.055  0.5061  0.0436 -0.0648
   80MOL0     C10470  -1.585   0.950   3.012  0.5105 -0.4159  0.5135
   80MOL0     C10471  -1.601   0.868   2.884 -0.6415  0.0729  0.3394
   80MOL0    Cl10472  -1.585   0.975   2.743 -0.2053  0.1265 -0.1954
   80MOL0     C10473  -0.835   1.217   2.955  0.1396  0.9554 -0.1763
   80MOL0     C10474  -0.736   1.184   2.868 -0.7188 -0.5446  0.3220
   80MOL0     O10475  -0.398   1.340   2.881 -0.1630  0.9919 -0.5688
   80MOL0     C10476  -0.320   1.248   2.540 -0.5255 -0.1784  0.6652
   80MOL0     C10477  -0.208   1.247   2.462 -0.3788  0.2638 -0.3801
   80MOL0     N10478   0.683   1.382   2.333  0.3980 -0.0118 -0.6769
   80MOL0     N10479   0.775   1.463   2.292 -1.4056 -0.6277 -0.9428
   80MOL0     C10480   1.609   1.245   1.342  0.1463  0.4100  0.0262
   80MOL0     C10481   1.710   1.173   1.280  0.2918  0.8153 -0.2504
   80MOL0     C10482   1.975   1.052   0.943  0.5545 -0.0728 -0.0169
   80MOL0     C10483   2.043   0.949   1.007  1.0144 -0.1622 -0.9358
   80MOL0     C10484   2.100   0.840   0.943  0.2888 -0.3561 -0.2042
   80MOL0     C10485   2.100   0.834   0.802  0.2684 -0.7117  0.2389
   80MOL0     O10486   2.147   0.723   0.747  0.8741  0.2497  0.3198
   80MOL0     C10487   2.151   0.709   0.607 -0.7527 -0.1811  0.7632
   80MOL0     C10488   2.164   0.559   0.572 -0.7833  0.0246 -0.3296
   80MOL0     C10489   2.306   0.506   0.588 -0.0503 -0.3980  0.3625
   80MOL0     C10490   2.310   0.356   0.595 -0.6888  0.5059  0.3633
   80MOL0     C10491   2.445   0.309   0.636 -1.1167  0.8904 -0.1455
   80MOL0     C10492   2.553   0.264   0.671 -0.0887  0.3896  0.0893
   80MOL0     C10493   2.041   0.937   0.732 -0.8180  1.0087 -0.0097
   80MOL0     C10494   1.980   1.043   0.798  0.5229 -0.2370 -0.0803
   80MOL0     H10495   1.917   1.421   1.195  0.7158 -2.0737 -1.6852
   80MOL0     H10496   1.705   1.555   1.293  3.3199  0.6146  0.6850
   80MOL0     H10497   1.508   1.350   1.584 -2.9646  0.3192  2.0688
   80MOL0     H10498   1.374   1.329   1.474  0.0799 -0.3169  0.3047
   80MOL0     H10499   1.305   1.572   1.535 -0.7296 -0.8989 -0.1144
   80MOL0     H10500   1.432   1.567   1.652 -1.6082  2.5061 -0.4947
   80MOL0     H10501   1.340   1.368   1.749  0.6742 -0.0467 -1.6176
   80MOL0     H10502   1.220   1.359   1.636 -2.2809  3.7049 -1.4310
   80MOL0     H10503   1.251   1.608   1.814  0.4739 -1.0369  0.2704
   80MOL0     H10504   1.122   1.579   1.693  1.0808 -1.3110 -1.1423
   80MOL0     H10505   1.162   1.439   1.962 -1.4693  1.0118  2.3131
   80MOL0     H10506   1.067   1.372   1.829 -0.4107 -0.5114  0.0149
   80MOL0     H10507   0.928   1.592   1.830 -2.4140  1.6600  2.4031
   80MOL0     H10508   1.042   1.665   1.938 -0.7724  0.0825  0.5314
   80MOL0     H10509   0.873   1.424   1.952  3.7484  0.4919 -1.8309
   80MOL0     H10510   0.974   1.447   2.099 -1.9251 -0.2182  0.7437
   80MOL0     H10511   0.770   1.663   2.017 -0.0000 -1.2199 -0.1719
   80MOL0     H10512   0.898   1.664   2.145  0.3789 -0.2990  0.0194
   80MOL0     H10513   0.546   1.505   2.069  5.6856  1.4423 -3.2147
   80MOL0     H10514   0.491   1.209   2.204  0.3031 -0.9111  1.4065
   80MOL0     H10515   0.383   1.354   2.165 -1.2264  0.3762  1.8001
   80MOL0     H10516   0.346   1.413   2.380  1.5170  0.6698 -0.1154
   80MOL0     H10517   0.433   1.291   2.453 -1.4957  0.0153  0.2721
   80MOL0     H10518   0.191   1.258   2.274  0.9396  0.5953 -0.2082
   80MOL0     H10519   0.269   1.114   2.359  0.2975  0.0270  0.5721
   80MOL0     H10520   0.173   1.352   2.507  0.3529 -0.3826  0.5392
   80MOL0     H10521   0.193   1.186   2.554 -1.1311  0.8094  1.2328
   80MOL0     H10522   0.041   1.307   2.693 -1.2269  1.8975  2.4998
   80MOL0     H10523  -0.172   1.347   2.831  0.1176 -1.7122  0.7375
   80MOL0     H10524  -0.603   1.498   2.806  1.3635 -0.8047  1.2428
   80MOL0     H10525  -0.805   1.548   2.972  1.0844 -0.6843  2.7565
   80MOL0     H10526  -1.027   1.209   3.163  1.4714 -0.7490 -1.9211
   80MOL0     H10527  -1.106   1.259   3.015  1.1346  0.6467 -0.2021
   80MOL0     H10528  -1.203   1.444   3.163 -0.4044  0.4104  0.0177
   80MOL0     H10529  -1.147   1.357   3.296 -1.1932  1.6071  0.5305
   80MOL0     H10530  -1.350   1.268   3.093  1.5731  0.2773 -0.2859
   80MOL0     H10531  -1.353   1.287   3.266  1.2734  0.5377  0.7360
   80MOL0     H10532  -1.201   1.055   3.162  0.0136  1.0064 -0.2210
   80MOL0     H10533  -1.249   1.094   3.331  1.6346  0.2922 -0.5751
   80MOL0     H10534  -1.491   1.085   3.247  0.4298  1.9586 -1.7073
   80MOL0     H10535  -1.423   0.920   3.258  0.0493  0.0042 -0.4256
   80MOL0     H10536  -1.373   0.905   3.029 -2.9007 -3.0713  1.5808
   80MOL0     H10537  -1.389   1.078   3.003  0.9501  0.2629  0.6625
   80MOL0     H10538  -1.620   0.889   3.096 -3.0911  2.3809  1.2737
   80MOL0     H10539  -1.646   1.040   3.018  1.8295  0.5064  0.6196
   80MOL0     H10540  -1.706   0.837   2.889 -0.7993  0.2422 -1.2658
   80MOL0     H10541  -1.542   0.776   2.873  0.0644  0.6597 -1.0028
   80MOL0     H10542  -0.902   1.138   2.987 -0.3704  2.4986  3.0336
   80MOL0     H10543  -0.722   1.080   2.838  0.8571  0.3993 -2.6072
   80MOL0     H10544  -0.420   1.226   2.503 -0.1038  0.2574 -0.8180
   80MOL0     H10545  -0.227   1.235   2.356 -5.3739  1.0851  0.2040
   80MOL0     H10546   1.532   1.190   1.395  0.3500 -0.1470 -0.2379
   80MOL0     H10547   1.702   1.065   1.285  5.2477  0.2815  1.2345
   80MOL0     H10548   2.031   0.961   1.115 -5.0038  3.7523 -1.5203
   80MOL0     H10549   2.145   0.754   0.992 -0.1455  0.8139  2.4117
   80MOL0     H10550   2.241   0.765   0.580 -0.9252 -0.6684 -0.9920
   80MOL0     H10551   2.065   0.752   0.554  0.6390  1.1891 -0.4928
   80MOL0     H10552   2.099   0.501   0.638  0.1573  2.4178  2.9799
   80MOL0     H10553   2.140   0.550   0.466 -3.7770 -2.2825  0.4122
   80MOL0     H10554   2.333   0.548   0.685 -3.3566  1.3227  0.6736
   80MOL0     H10555   2.358   0.535   0.496 -1.8500 -1.7376 -1.1629
   80MOL0     H10556   2.230   0.327   0.664 -1.9028  0.1401 -1.1391
   80MOL0     H10557   2.296   0.313   0.495 -0.1570 -0.5556  0.7303
   80MOL0     H10558   2.647   0.217   0.693 -0.1404 -1.3147 -2.8182
   80MOL0     H10559   2.048   0.943   0.624 -0.9282 -2.5171 -0.3246
   80MOL0     H10560   1.932   1.123   0.743  2.2590  0.7272 -0.2640
   81MOL0     O10561   2.798   5.050   1.477 -0.7933 -0.6788  0.2399
   81MOL0     C10562   2.903   5.064   1.413 -0.1087 -1.0678 -0.2841
   81MOL0     O10563   2.909   5.132   1.291 -0.6649 -0.3348 -0.4282
   81MOL0     C10564   2.801   5.208   1.244 -0.8202 -0.2291 -0.2380
   81MOL0     C10565   2.755   5.313   1.330  0.2144  0.1113  0.8517
   81MOL0     C10566   2.642   5.389   1.284  0.0664 -0.2289 -0.4428
   81MOL0     C10567   2.587   5.366   1.164  0.1147 -1.1804 -0.3508
   81MOL0     O10568   2.481   5.452   1.127 -0.1103  0.0488 -0.2169
   81MOL0     C10569   2.359   5.426   1.204 -0.1568 -0.0562  0.2969
   81MOL0     C10570   2.293   5.561   1.218 -0.3038  0.0063  0.4079
   81MOL0     C10571   2.206   5.584   1.347  0.3238  0.6074 -0.9272
   81MOL0     C10572   2.084   5.501   1.346  0.9680 -0.4390  0.6399
   81MOL0     C10573   1.994   5.528   1.454  0.4111  0.3803  0.0047
   81MOL0     C10574   1.869   5.440   1.450 -0.4904 -0.7589 -0.3821
   81MOL0     C10575   1.751   5.516   1.395 -0.1078  0.5138  0.5143
   81MOL0     C10576   1.624   5.433   1.393 -0.6616  0.0026 -0.3150
   81MOL0     N10577   1.500   5.500   1.364 -0.1224 -0.2790  0.3085
   81MOL0     C10578   1.446   5.505   1.237 -0.8604  0.6087 -0.2805
   81MOL0     C10579   1.330   5.568   1.256  0.5095  0.2631 -0.6197
   81MOL0     C10580   1.226   5.568   1.151  0.1847  0.7427  0.5213
   81MOL0     C10581   1.179   5.702   1.105 -0.0881  0.9043 -1.2123
   81MOL0     C10582   1.068   5.698   1.003 -0.1682 -0.9682  0.0331
   81MOL0     C10583   1.034   5.840   0.936  0.7200 -0.4061 -0.6103
   81MOL0     O10584   0.932   5.818   0.836 -0.5884  0.0272  0.6300
   81MOL0     C10585   0.795   5.836   0.862  0.0480  0.1715 -0.3560
   81MOL0     C10586   0.716   5.766   0.769 -0.7787 -0.1613  0.0078
   81MOL0     C10587   0.573   5.764   0.783 -0.1951  0.2572  0.3585
   81MOL0     C10588   0.512   5.817   0.895 -0.3249  0.5605 -0.1238
   81MOL0     C10589   0.362   5.829   0.921 -0.6917  0.0820  0.7210
   81MOL0     O10590   0.289   5.794   0.810  0.1311 -0.1155  0.5320
   81MOL0     C10591   0.146   5.795   0.815 -0.0104  0.0853 -0.1921
   81MOL0     C10592   0.066   5.869   0.903  0.1177 -0.3161  0.4453
   81MOL0     C10593  -0.071   5.866   0.904  1.0383  0.1346  0.5031
   81MOL0     C10594  -0.139   5.778   0.822  0.0947 -0.1864  0.3365
   81MOL0     O10595  -0.274   5.753   0.837  0.2468  0.1656  0.1017
   81MOL0     C10596  -0.345   5.792   0.955  0.3547 -0.0360 -0.4474
   81MOL0     C10597  -0.498   5.786   0.936  0.1356 -0.9489  0.1459
   81MOL0     C10598  -0.527   5.637   0.916 -0.0049 -0.4342  0.3836
   81MOL0     C10599  -0.680   5.604   0.930 -0.5991 -0.5629 -0.0467
   81MOL0     C10600  -0.717   5.464   0.909 -0.4639 -0.2764 -0.1149
   81MOL0     C10601  -0.692   5.414   0.763 -0.0702  0.1634 -0.0850
   81MOL0     C10602  -0.681   5.259   0.755  0.1373  0.0940 -0.2982
   81MOL0     C10603  -0.804   5.199   0.818 -0.3992  0.8173 -0.0552
   81MOL0    Cl10604  -0.948   5.261   0.735 -0.4162 -0.2766  0.2891
   81MOL0     C10605  -0.060   5.702   0.739  0.1152 -0.0382 -0.9163
   81MOL0     C10606   0.077   5.710   0.734 -0.2305 -0.6490  0.3565
   81MOL0     O10607   0.328   5.854   1.033 -0.2216  0.0364 -1.0523
   81MOL0     C10608   0.605   5.867   0.993 -0.4573  0.3209 -1.4158
   81MOL0     C10609   0.746   5.875   0.986  0.7495 -1.1535 -0.2003
   81MOL0     N10610   1.323   5.628   1.380  0.4533  0.6333  0.4410
   81MOL0     N10611   1.419   5.579   1.450  0.3267  0.4438 -0.4434
   81MOL0     C10612   2.642   5.275   1.076  0.4765  0.2713 -0.9781
   81MOL0     C10613   2.746   5.193   1.119  0.0071  0.1224 -0.3006
   81MOL0     C10614   3.023   5.004   1.465  0.0317  0.3759  0.1939
   81MOL0     C10615   3.025   4.904   1.570 -0.0773  0.6223 -0.1807
   81MOL0     C10616   3.143   4.825   1.595 -0.2127 -0.0934  0.4432
   81MOL0     C10617   3.269   4.856   1.541  1.3450  0.3465  0.2548
   81MOL0     O10618   3.390   4.800   1.573 -0.8884  0.8763 -0.9374
   81MOL0     C10619   3.411   4.702   1.672  0.4984 -0.6960 -0.2860
   81MOL0     C10620   3.536   4.637   1.630 -0.4708 -0.1317 -0.8203
   81MOL0     C10621   3.572   4.532   1.736  0.2086 -0.7983 -0.6279
   81MOL0     C10622   3.719   4.482   1.727  0.4728  0.3817 -0.6148
   81MOL0     C10623   3.821   4.585   1.748 -0.6472 -0.5257  0.6385
   81MOL0     C10624   3.892   4.684   1.772 -0.3039  0.6952 -0.2414
   81MOL0     C10625   3.262   4.970   1.453  0.1861  0.0116  0.7180
   81MOL0     C10626   3.148   5.035   1.404  1.2420 -0.0002 -0.0113
   81MOL0     H10627   2.799   5.333   1.428  3.1763  0.0370 -0.3490
   81MOL0     H10628   2.597   5.471   1.340 -1.0206 -1.0285 -0.1074
   81MOL0     H10629   2.377   5.380   1.302 -1.2950 -1.5029 -0.1269
   81MOL0     H10630   2.285   5.361   1.156 -1.7134  1.9441 -0.1155
   81MOL0     H10631   2.238   5.594   1.129  1.7319 -1.1390 -1.3635
   81MOL0     H10632   2.375   5.633   1.225 -0.0978 -0.0440 -1.1278
   81MOL0     H10633   2.176   5.690   1.348  1.2205  0.8972 -2.1787
   81MOL0     H10634   2.273   5.565   1.431  2.2598  3.8174 -1.5573
   81MOL0     H10635   2.032   5.522   1.252  3.0913 -2.6742 -1.1783
   81MOL0     H10636   2.110   5.394   1.344  1.9064 -0.2337 -1.9625
   81MOL0     H10637   1.958   5.631   1.452 -2.4576 -0.5226 -0.0175
   81MOL0     H10638   2.058   5.524   1.543  2.3926 -0.5090 -1.3724
   81MOL0     H10639   1.855   5.412   1.555  2.9317 -1.6145 -0.0367
   81MOL0     H10640   1.882   5.345   1.399 -1.1826 -1.1040  0.0567
   81MOL0     H10641   1.728   5.610   1.447  0.0719  0.9345 -0.1464
   81MOL0     H10642   1.773   5.539   1.290  1.4494 -2.2061  0.1626
   81MOL0     H10643   1.618   5.382   1.489  1.2309 -0.6083 -0.4905
   81MOL0     H10644   1.644   5.367   1.308 -3.1175  1.1365 -1.9082
   81MOL0     H10645   1.490   5.451   1.154 -1.2661  1.3641 -0.9991
   81MOL0     H10646   1.135   5.519   1.189 -0.7146  1.3469 -0.7689
   81MOL0     H10647   1.252   5.512   1.062  0.1733 -0.0774  1.0245
   81MOL0     H10648   1.266   5.746   1.056  0.9174  2.4449  1.7279
   81MOL0     H10649   1.139   5.744   1.198 -2.3260 -1.9967 -0.7268
   81MOL0     H10650   1.099   5.628   0.925  3.2364 -0.0534  0.4200
   81MOL0     H10651   0.980   5.655   1.053 -1.0079 -0.8710 -1.3205
   81MOL0     H10652   1.118   5.884   0.882  1.3632 -1.7539 -0.7580
   81MOL0     H10653   1.003   5.911   1.013  2.6162 -2.1480  1.9597
   81MOL0     H10654   0.757   5.720   0.680 -1.4221  0.8087 -0.8191
   81MOL0     H10655   0.522   5.717   0.699  0.7650 -0.3473  0.1042
   81MOL0     H10656   0.123   5.914   0.984  0.5687  1.1311 -0.6217
   81MOL0     H10657  -0.123   5.935   0.970 -0.0217 -0.4288  0.2729
   81MOL0     H10658  -0.324   5.894   0.989  2.4183 -0.5514 -0.0570
   81MOL0     H10659  -0.318   5.727   1.038 -1.2835 -2.9259 -2.0163
   81MOL0     H10660  -0.513   5.850   0.848  3.0581  0.0929  0.2872
   81MOL0     H10661  -0.558   5.826   1.018 -0.0109 -0.4684 -0.1886
   81MOL0     H10662  -0.481   5.585   1.001 -2.4135 -1.3297  1.2042
   81MOL0     H10663  -0.495   5.612   0.814 -0.4752  1.5064 -0.2788
   81MOL0     H10664  -0.710   5.624   1.033 -4.9243  0.3921 -1.2647
   81MOL0     H10665  -0.737   5.674   0.867 -1.6535 -1.5993 -0.2939
   81MOL0     H10666  -0.824   5.459   0.933 -1.0647 -0.5777 -2.6083
   81MOL0     H10667  -0.642   5.407   0.964  1.9783  1.3569 -1.5516
   81MOL0     H10668  -0.598   5.456   0.726 -0.1314 -0.9741 -1.6460
   81MOL0     H10669  -0.772   5.453   0.699 -1.1480  1.5190  1.9749
   81MOL0     H10670  -0.682   5.237   0.648 -2.5572 -1.8456  0.0324
   81MOL0     H10671  -0.585   5.221   0.790 -0.1210 -2.1685 -1.8464
   81MOL0     H10672  -0.803   5.229   0.923  1.6860 -1.0179  0.5185
   81MOL0     H10673  -0.808   5.090   0.817  0.4979  0.7301  1.8428
   81MOL0     H10674  -0.107   5.629   0.673  0.5794 -0.6955 -0.5335
   81MOL0     H10675   0.144   5.651   0.672  2.9401  1.6080  1.4021
   81MOL0     H10676   0.561   5.899   1.087 -1.9310 -2.2263 -1.1291
   81MOL0     H10677   0.792   5.919   1.073  0.1731 -0.0088 -0.4577
   81MOL0     H10678   2.585   5.260   0.984 -1.9218  3.5778 -0.2180
   81MOL0     H10679   2.778   5.113   1.052  0.9823 -0.4616  0.8183
   81MOL0     H10680   2.940   4.886   1.635 -0.1431  2.5049  0.2938
   81MOL0     H10681   3.126   4.741   1.661 -1.8390 -1.3939 -1.5489
   81MOL0     H10682   3.321   4.644   1.694 -0.0875  1.1412  2.6864
   81MOL0     H10683   3.439   4.745   1.768 -0.6480 -0.6975  0.0569
   81MOL0     H10684   3.514   4.588   1.535 -0.4685  0.7238 -1.2729
   81MOL0     H10685   3.623   4.701   1.613 -1.6002  1.1359 -1.9692
   81MOL0     H10686   3.506   4.445   1.727 -0.7123 -0.0017 -1.8576
   81MOL0     H10687   3.552   4.580   1.832  0.7283 -3.7876  1.0981
   81MOL0     H10688   3.726   4.407   1.806 -5.2269 -0.5728 -0.5635
   81MOL0     H10689   3.733   4.428   1.633 -0.4602 -0.9462 -0.0307
   81MOL0     H10690   3.941   4.777   1.788  0.9349  0.4006 -1.9845
   81MOL0     H10691   3.349   5.002   1.397 -1.8512  2.0572 -1.5257
   81MOL0     H10692   3.152   5.121   1.337 -2.5843  1.1607  0.9774
   82MOL0     O10693   1.600   5.260   7.960  0.0075  0.4486  0.4670
   82MOL0     C10694   1.694   5.275   8.035  0.1558  0.5746 -0.1977
   82MOL0     O10695   1.692   5.352   8.151 -0.0602 -0.2991  0.1549
   82MOL0     C10696   1.572   5.401   8.203 -0.6256 -0.1364 -0.4525
   82MOL0     C10697   1.449   5.328   8.196 -0.5110 -0.8189 -0.1954
   82MOL0     C10698   1.338   5.381   8.259 -0.6258  0.4929 -0.7219
   82MOL0     C10699   1.349   5.490   8.350  0.1593 -1.3263  0.2122
   82MOL0     O10700   1.238   5.512   8.425  0.1841  0.0949 -0.2336
   82MOL0     C10701   1.239   5.589   8.545  0.5004  0.0359 -0.0905
   82MOL0     C10702   1.199   5.739   8.513  0.1169 -0.4841 -0.3848
   82MOL0     C10703   1.176   5.829   8.635 -0.2561  0.2164  0.3054
   82MOL0     C10704   1.297   5.836   8.729 -0.2589 -0.7075 -0.7662
   82MOL0     C10705   1.299   5.959   8.816  0.0870 -0.3623 -0.4265
   82MOL0     C10706   1.180   5.967   8.917  0.2184  0.1388 -0.2757
   82MOL0     C10707   1.180   5.853   9.015  0.5429 -0.5239  0.4793
   82MOL0     C10708   1.032   5.830   9.055  0.2398 -0.9824  0.4895
   82MOL0     N10709   0.978   5.934   9.149  0.0991 -0.8487  0.3919
   82MOL0     C10710   0.846   5.952   9.169 -0.4904  1.4088 -0.3924
   82MOL0     C10711   0.832   6.006   9.294  0.5709  0.0573 -0.4252
   82MOL0     C10712   0.709   6.041   9.380  0.3574 -0.2768  0.0576
   82MOL0     C10713   0.662   6.178   9.333 -0.1351  0.0778  0.6370
   82MOL0     C10714   0.539   6.224   9.418  0.1919  0.2948  0.0873
   82MOL0     C10715   0.578   6.353   9.487  0.3513  0.5509 -0.0855
   82MOL0     O10716   0.460   6.422   9.519  0.6281 -0.6618  1.0902
   82MOL0     C10717   0.412   6.421   9.647 -0.3057 -0.4054  0.3300
   82MOL0     C10718   0.433   6.531   9.736  0.4549  0.4599  0.3117
   82MOL0     C10719   0.358   6.530   9.862  0.0972  0.4078  0.8833
   82MOL0     C10720   0.274   6.426   9.892  0.3995 -0.6322 -0.0823
   82MOL0     C10721   0.209   6.422  10.032  0.4136  0.5211 -0.1358
   82MOL0     O10722   0.194   6.543  10.105  0.1595  0.0491  0.1480
   82MOL0     C10723   0.108   6.536  10.209 -0.7141 -1.4591 -0.0581
   82MOL0     C10724  -0.017   6.595  10.223 -0.4531  0.0498 -0.2681
   82MOL0     C10725  -0.099   6.568  10.338 -0.3277 -0.3281 -1.0988
   82MOL0     C10726  -0.041   6.506  10.446  0.5915 -0.3344 -0.3196
   82MOL0     O10727  -0.140   6.485  10.543  0.4711  0.1849  0.5345
   82MOL0     C10728  -0.094   6.483  10.680  0.6857 -0.8949  0.2298
   82MOL0     C10729  -0.190   6.425  10.782 -0.5337 -0.0430  0.8215
   82MOL0     C10730  -0.141   6.441  10.937 -0.0526  0.9028  0.4253
   82MOL0     C10731  -0.262   6.402  11.022  0.2647 -0.3092  0.3827
   82MOL0     C10732  -0.224   6.363  11.169  0.3560 -0.2397 -0.8954
   82MOL0     C10733  -0.256   6.482  11.256  0.3654  0.0337 -0.9679
   82MOL0     C10734  -0.177   6.478  11.391  0.5092  0.8118  0.5626
   82MOL0     C10735  -0.194   6.350  11.474  1.0526  0.6496 -0.0802
   82MOL0    Cl10736  -0.050   6.338  11.583 -0.5583  0.0911 -0.3877
   82MOL0     C10737   0.089   6.450  10.442  1.0486 -0.7714  0.4698
   82MOL0     C10738   0.168   6.461  10.322  0.9052  0.9233  0.0289
   82MOL0     O10739   0.152   6.317  10.057 -0.1783  0.5963 -0.2276
   82MOL0     C10740   0.270   6.315   9.808  0.4303  0.1189 -0.6478
   82MOL0     C10741   0.336   6.309   9.688 -0.0116  0.5167  0.5196
   82MOL0     N10742   0.963   6.033   9.333  0.5221 -0.3223 -0.5608
   82MOL0     N10743   1.047   5.987   9.246  0.3185 -0.0823 -1.4428
   82MOL0     C10744   1.471   5.562   8.366  0.3906 -0.6337 -0.2281
   82MOL0     C10745   1.581   5.522   8.283  0.1529 -1.0125  0.2693
   82MOL0     C10746   1.823   5.212   7.986 -0.3542 -0.2734 -0.0129
   82MOL0     C10747   1.813   5.108   7.885 -0.8382 -0.3412 -0.1411
   82MOL0     C10748   1.933   5.072   7.832 -0.4594 -0.6179 -0.8317
   82MOL0     C10749   2.057   5.127   7.873 -0.8486  0.6355 -0.2185
   82MOL0     O10750   2.168   5.066   7.816  0.5093  0.2940  0.1595
   82MOL0     C10751   2.288   5.065   7.890  0.1137  0.1287  0.0495
   82MOL0     C10752   2.367   4.944   7.849 -0.8434  0.0365 -0.5211
   82MOL0     C10753   2.297   4.814   7.841  0.2706  0.1941  0.4475
   82MOL0     C10754   2.280   4.746   7.971 -0.9535 -0.0420 -0.4714
   82MOL0     C10755   2.206   4.620   7.962 -1.1893 -1.0750 -0.9841
   82MOL0     C10756   2.159   4.517   7.936 -0.1211  0.6799  1.3491
   82MOL0     C10757   2.058   5.223   7.966 -0.9521  0.8874 -0.5241
   82MOL0     C10758   1.944   5.264   8.022  0.8716  0.0453  0.1786
   82MOL0     H10759   1.447   5.233   8.144 -1.5136 -2.1744  2.1761
   82MOL0     H10760   1.251   5.323   8.231 -1.2490  2.1547 -2.4426
   82MOL0     H10761   1.337   5.595   8.593  0.0575  0.4784  0.7977
   82MOL0     H10762   1.163   5.560   8.618  2.3632  3.2722  3.5610
   82MOL0     H10763   1.108   5.746   8.453  0.7839  3.1738 -1.2207
   82MOL0     H10764   1.282   5.786   8.460  3.7485 -2.3360  3.0855
   82MOL0     H10765   1.083   5.792   8.681  1.5049 -0.0575  3.9866
   82MOL0     H10766   1.151   5.932   8.607 -0.5141  0.7306  2.2514
   82MOL0     H10767   1.322   5.747   8.788  3.5068  2.4661  3.1272
   82MOL0     H10768   1.389   5.843   8.671  1.5506  3.0288  2.1182
   82MOL0     H10769   1.295   6.049   8.753  0.0766 -1.1266 -1.5361
   82MOL0     H10770   1.390   5.966   8.877  0.1255  0.6194 -0.5671
   82MOL0     H10771   1.085   5.973   8.864  0.1250 -0.8544 -0.2269
   82MOL0     H10772   1.200   6.052   8.983  2.6540  1.2026 -2.2174
   82MOL0     H10773   1.228   5.759   8.987  1.4595 -0.4866  1.8030
   82MOL0     H10774   1.237   5.877   9.106  1.8140  0.2060 -0.4729
   82MOL0     H10775   1.039   5.737   9.114  1.8292 -1.7387 -0.7999
   82MOL0     H10776   0.959   5.824   8.974  1.2999  3.0262 -0.9573
   82MOL0     H10777   0.761   5.921   9.109 -0.8310  1.8293 -0.1343
   82MOL0     H10778   0.740   6.051   9.484  2.7654  1.1796 -0.7262
   82MOL0     H10779   0.630   5.966   9.373  0.9630 -1.5144  3.8830
   82MOL0     H10780   0.642   6.168   9.226 -4.2161 -1.5257  1.3492
   82MOL0     H10781   0.736   6.258   9.337  0.2280  0.2694 -3.9890
   82MOL0     H10782   0.443   6.233   9.367 -0.3986  0.1270  1.1284
   82MOL0     H10783   0.514   6.150   9.494 -3.3025  1.0998 -0.1145
   82MOL0     H10784   0.643   6.413   9.422  1.1947 -0.9304 -0.6438
   82MOL0     H10785   0.638   6.327   9.575  1.3201  1.0598 -0.5857
   82MOL0     H10786   0.491   6.618   9.707  1.5492 -0.1439  0.6528
   82MOL0     H10787   0.363   6.614   9.932 -1.0405 -1.7405  3.7485
   82MOL0     H10788  -0.051   6.653  10.138 -2.4033 -2.6237 -1.4378
   82MOL0     H10789  -0.201   6.603  10.356 -0.7381 -1.3733 -1.3111
   82MOL0     H10790  -0.074   6.586  10.710 -2.2607 -0.2997  0.4586
   82MOL0     H10791  -0.010   6.413  10.685 -0.0184 -1.8296 -0.6210
   82MOL0     H10792  -0.210   6.321  10.756 -1.7261  0.3529  0.0424
   82MOL0     H10793  -0.286   6.478  10.776 -0.2956  0.2397 -1.6933
   82MOL0     H10794  -0.103   6.540  10.967 -0.7926  0.9384  1.2943
   82MOL0     H10795  -0.058   6.374  10.960 -1.1731 -0.3261  1.0330
   82MOL0     H10796  -0.327   6.489  11.032  0.2584 -0.2913  0.1912
   82MOL0     H10797  -0.311   6.313  10.981  3.2878 -1.0126 -2.0790
   82MOL0     H10798  -0.121   6.328  11.186  1.0658  1.9016 -0.4148
   82MOL0     H10799  -0.298   6.290  11.202 -2.0586  3.2013  2.1412
   82MOL0     H10800  -0.364   6.489  11.275  0.6530  3.5772 -0.0616
   82MOL0     H10801  -0.229   6.576  11.208 -2.7292  0.2777 -2.5067
   82MOL0     H10802  -0.074   6.491  11.358  1.0769 -0.9001  1.5306
   82MOL0     H10803  -0.217   6.559  11.452 -2.6534 -0.0774 -0.1299
   82MOL0     H10804  -0.184   6.259  11.414 -1.3394 -1.2469  2.1626
   82MOL0     H10805  -0.294   6.348  11.518  1.4670  2.6697  1.0883
   82MOL0     H10806   0.111   6.380  10.523  0.0702 -0.7041  0.8064
   82MOL0     H10807   0.267   6.420  10.308  0.9169 -0.6000  3.6538
   82MOL0     H10808   0.213   6.233   9.850 -1.9431  1.8291 -0.2968
   82MOL0     H10809   0.331   6.223   9.622 -2.7937  0.9872  0.0003
   82MOL0     H10810   1.482   5.642   8.438  3.7914  0.7175 -2.0429
   82MOL0     H10811   1.683   5.561   8.286 -0.9686  2.1144  1.0322
   82MOL0     H10812   1.723   5.054   7.858 -0.9285  0.3415 -1.2541
   82MOL0     H10813   1.928   4.999   7.752  1.2930 -0.1813 -1.3712
   82MOL0     H10814   2.271   5.064   7.998  1.4634  1.4202  0.2943
   82MOL0     H10815   2.338   5.160   7.868  1.2638  0.0874  2.2536
   82MOL0     H10816   2.397   4.958   7.745  0.8552 -0.8769 -0.1876
   82MOL0     H10817   2.456   4.919   7.908 -1.4219 -2.1554 -0.4803
   82MOL0     H10818   2.345   4.743   7.774 -0.2441  1.7751 -1.7007
   82MOL0     H10819   2.192   4.825   7.813  0.4235 -1.2446 -0.8416
   82MOL0     H10820   2.379   4.729   8.012 -1.0747  1.7772  0.6952
   82MOL0     H10821   2.220   4.816   8.029 -0.2113  1.2416 -1.2112
   82MOL0     H10822   2.118   4.423   7.905  1.5750  0.0700  0.8958
   82MOL0     H10823   2.147   5.264   8.015 -0.5293  1.2643 -1.5794
   82MOL0     H10824   1.955   5.339   8.099  1.7673 -0.0910  0.1970
   83MOL0     O10825   2.361   9.884   2.627  0.3761  0.1221  0.0884
   83MOL0     C10826   2.339   9.992   2.680  0.4562  0.1725 -1.0349
   83MOL0     O10827   2.220  10.034   2.739 -0.5979 -0.0583 -0.0026
   83MOL0     C10828   2.100   9.977   2.709  0.1139  0.1172 -0.5131
   83MOL0     C10829   2.018   9.947   2.817  0.4082 -0.4984  0.8763
   83MOL0     C10830   1.888   9.891   2.800  0.6084 -0.6037 -0.4707
   83MOL0     C10831   1.840   9.873   2.670 -0.3975  0.0128 -0.0986
   83MOL0     O10832   1.715   9.837   2.646 -0.3248 -0.1468  0.4364
   83MOL0     C10833   1.650   9.740   2.734 -0.2847 -0.4089 -0.1173
   83MOL0     C10834   1.533   9.670   2.665 -0.2978 -0.0022 -0.1667
   83MOL0     C10835   1.413   9.762   2.625 -0.1373 -0.6187 -0.2436
   83MOL0     C10836   1.365   9.862   2.739 -1.0273  0.3488  1.0213
   83MOL0     C10837   1.327   9.786   2.876 -0.1462 -0.6629  0.2452
   83MOL0     C10838   1.178   9.732   2.869  0.0516  0.0155  0.9157
   83MOL0     C10839   1.144   9.647   3.001 -0.1533 -0.7572  0.7284
   83MOL0     C10840   1.005   9.582   3.014  0.1673 -0.1432  0.3383
   83MOL0     N10841   0.896   9.671   3.039 -0.0882 -0.3794  0.4146
   83MOL0     C10842   0.831   9.681   3.155  0.0481  0.5266  0.1120
   83MOL0     C10843   0.756   9.795   3.142  0.1837 -1.6870 -0.3057
   83MOL0     C10844   0.674   9.850   3.252  0.3782 -0.1990  0.6881
   83MOL0     C10845   0.530   9.867   3.209  0.1914  0.1695  0.0988
   83MOL0     C10846   0.438   9.906   3.326 -0.5595 -0.3215 -0.1996
   83MOL0     C10847   0.294   9.917   3.289  0.2563 -0.8804  0.1963
   83MOL0     O10848   0.215   9.798   3.313  0.2681 -0.1878  0.3426
   83MOL0     C10849   0.095   9.815   3.389 -0.0292 -0.0340  0.3657
   83MOL0     C10850  -0.012   9.736   3.358  0.3130 -0.7651 -0.0352
   83MOL0     C10851  -0.135   9.759   3.415 -0.0450  0.1480 -0.6033
   83MOL0     C10852  -0.157   9.867   3.497  0.0453 -0.7172 -0.1604
   83MOL0     C10853  -0.290   9.891   3.551 -0.4040 -0.3408 -0.8304
   83MOL0     O10854  -0.384   9.796   3.534 -0.0286  0.6766  0.6666
   83MOL0     C10855  -0.492   9.800   3.610 -0.1195  0.3467  0.1353
   83MOL0     C10856  -0.586   9.907   3.612  0.4940 -0.2095  0.3233
   83MOL0     C10857  -0.691   9.906   3.709  0.8289 -0.0760 -0.1525
   83MOL0     C10858  -0.704   9.788   3.791 -0.4025 -0.5797  0.4871
   83MOL0     O10859  -0.797   9.772   3.882 -0.1410  0.1691  0.2611
   83MOL0     C10860  -0.890   9.870   3.912 -0.0029 -0.5305 -0.2723
   83MOL0     C10861  -0.974   9.803   4.023  0.2111  0.1948  0.3628
   83MOL0     C10862  -1.083   9.892   4.082 -0.0613  0.1007 -0.1685
   83MOL0     C10863  -1.152   9.822   4.201  0.8141 -0.1374  0.0452
   83MOL0     C10864  -1.280   9.899   4.243  0.1327 -0.1634  0.2769
   83MOL0     C10865  -1.247  10.036   4.288  0.7864  0.4045  0.2819
   83MOL0     C10866  -1.348  10.110   4.361  0.7331 -0.3488  0.3126
   83MOL0     C10867  -1.461  10.155   4.262  0.3762 -0.0876 -0.7457
   83MOL0    Cl10868  -1.401  10.287   4.161  0.4390  0.1381  0.2683
   83MOL0     C10869  -0.609   9.678   3.773  0.1674  0.1194 -0.1236
   83MOL0     C10870  -0.499   9.690   3.690 -0.6092  0.4313  0.2162
   83MOL0     O10871  -0.308   9.983   3.627 -0.1266  0.8523 -0.1423
   83MOL0     C10872  -0.048   9.934   3.547 -0.5778 -0.2154 -0.2043
   83MOL0     C10873   0.076   9.912   3.490 -0.2305  0.3878 -0.0434
   83MOL0     N10874   0.773   9.850   3.022 -0.1331  0.2911 -0.2821
   83MOL0     N10875   0.850   9.773   2.958 -0.0829  0.3739 -0.5494
   83MOL0     C10876   1.915   9.915   2.565  0.6557 -0.5240 -0.4313
   83MOL0     C10877   2.048   9.974   2.580  0.0208 -1.5542  0.2600
   83MOL0     C10878   2.450  10.088   2.682 -0.2344 -0.0611  0.7741
   83MOL0     C10879   2.577  10.050   2.635 -0.3437  0.4200 -1.0060
   83MOL0     C10880   2.677  10.139   2.624  0.0505  0.4414 -0.7759
   83MOL0     C10881   2.664  10.278   2.673 -0.8371  0.7179  1.0878
   83MOL0     O10882   2.771  10.362   2.688 -0.6888 -0.2985  0.1942
   83MOL0     C10883   2.907  10.311   2.677  0.6775  0.2848  0.3110
   83MOL0     C10884   2.999  10.414   2.730 -0.3025 -0.2224 -0.4174
   83MOL0     C10885   2.978  10.561   2.688 -0.9342  1.2173 -0.0913
   83MOL0     C10886   3.109  10.634   2.715  0.9232  0.5206 -0.2718
   83MOL0     C10887   3.100  10.777   2.687  0.8014 -0.4786 -0.1252
   83MOL0     C10888   3.083  10.894   2.652 -0.1697 -0.7564  0.7381
   83MOL0     C10889   2.539  10.313   2.717 -0.3008 -0.0231 -0.4643
   83MOL0     C10890   2.439  10.214   2.726 -0.6022 -0.2284  0.3697
   83MOL0     H10891   2.062   9.965   2.915  3.4956  1.0829 -0.6420
   83MOL0     H10892   1.834   9.860   2.889 -2.3455  1.4773 -1.3883
   83MOL0     H10893   1.612   9.790   2.824  0.0803 -1.6430  0.7503
   83MOL0     H10894   1.723   9.663   2.762 -1.1925 -1.4144 -0.4901
   83MOL0     H10895   1.497   9.591   2.732  3.2794 -0.5934  1.3017
   83MOL0     H10896   1.570   9.625   2.573 -1.9828 -1.3729 -0.2217
   83MOL0     H10897   1.325   9.701   2.601 -0.1395 -0.6772 -0.0892
   83MOL0     H10898   1.444   9.805   2.529  0.4357 -3.5352 -1.4808
   83MOL0     H10899   1.446   9.933   2.758 -1.6249  1.9032 -1.6450
   83MOL0     H10900   1.284   9.930   2.712  1.2930  3.5231  1.4107
   83MOL0     H10901   1.337   9.866   2.949  0.0870  0.7682 -1.2988
   83MOL0     H10902   1.393   9.701   2.900 -0.9686 -0.8160  2.1427
   83MOL0     H10903   1.163   9.674   2.777 -2.0541  4.8467 -2.1726
   83MOL0     H10904   1.111   9.815   2.846  0.3935 -0.5737 -2.9411
   83MOL0     H10905   1.223   9.573   3.013  2.2933  1.2909 -1.5680
   83MOL0     H10906   1.145   9.715   3.087 -3.6387 -0.2057  0.4889
   83MOL0     H10907   1.007   9.509   3.095 -0.5351 -0.4886  0.0559
   83MOL0     H10908   0.989   9.528   2.920  0.4655 -0.2371  0.3417
   83MOL0     H10909   0.838   9.621   3.245  0.3458 -0.2645 -0.4355
   83MOL0     H10910   0.710   9.950   3.276  2.5714 -0.6285 -0.5008
   83MOL0     H10911   0.692   9.783   3.336  0.7761 -1.0147 -0.0318
   83MOL0     H10912   0.495   9.769   3.176  2.4471 -1.4679  2.1789
   83MOL0     H10913   0.525   9.943   3.130  0.1035 -0.5210 -0.5713
   83MOL0     H10914   0.446   9.830   3.404  0.5893  0.5034  0.5102
   83MOL0     H10915   0.478   9.993   3.378 -1.9811  0.1493  0.1629
   83MOL0     H10916   0.279   9.936   3.183 -0.4722 -0.3999  0.3790
   83MOL0     H10917   0.260  10.002   3.349  0.1449 -1.6696  1.2966
   83MOL0     H10918   0.013   9.649   3.299 -1.5699 -0.1833 -1.8400
   83MOL0     H10919  -0.218   9.692   3.394  0.1626 -1.1083  2.1934
   83MOL0     H10920  -0.561  10.001   3.565 -1.5392 -0.0267 -0.4958
   83MOL0     H10921  -0.755   9.991   3.729  0.8117 -0.4486  1.5293
   83MOL0     H10922  -0.962   9.901   3.836 -0.4581 -2.2190 -0.5651
   83MOL0     H10923  -0.843   9.958   3.957  0.1143 -0.0382 -1.3299
   83MOL0     H10924  -0.908   9.770   4.103 -0.7107 -0.1235  1.0002
   83MOL0     H10925  -1.014   9.716   3.970  3.5512  0.3342 -2.7855
   83MOL0     H10926  -1.159   9.913   4.006 -0.3652 -2.9258 -0.8121
   83MOL0     H10927  -1.047   9.989   4.119 -0.7868  0.8137 -1.2703
   83MOL0     H10928  -1.171   9.717   4.175  0.2769 -0.2039  0.6805
   83MOL0     H10929  -1.082   9.819   4.285  0.3887 -0.9986  0.3787
   83MOL0     H10930  -1.344   9.852   4.319 -1.0602 -0.1776 -0.6961
   83MOL0     H10931  -1.341   9.902   4.152  1.3788  0.1429 -0.5782
   83MOL0     H10932  -1.217  10.096   4.202  0.4586 -3.1744 -2.6155
   83MOL0     H10933  -1.155  10.040   4.346  1.9128  1.7099 -1.5051
   83MOL0     H10934  -1.387  10.046   4.441 -4.1372  0.3371 -1.1543
   83MOL0     H10935  -1.299  10.200   4.400 -4.8103  3.7914 -1.0006
   83MOL0     H10936  -1.551  10.173   4.321 -0.2067  0.3326 -1.7483
   83MOL0     H10937  -1.482  10.064   4.205 -3.1965 -0.2591  0.5592
   83MOL0     H10938  -0.619   9.582   3.822 -2.3722 -0.7279 -2.0657
   83MOL0     H10939  -0.422   9.615   3.691  1.4917  2.3752 -2.1542
   83MOL0     H10940  -0.068  10.001   3.630 -1.5769  0.1044 -0.6800
   83MOL0     H10941   0.161   9.966   3.531 -0.0206  0.5666 -0.6961
   83MOL0     H10942   1.871   9.907   2.467 -0.2567  3.9098 -0.5985
   83MOL0     H10943   2.106  10.012   2.496 -2.3667  1.5718 -0.1437
   83MOL0     H10944   2.594   9.952   2.592 -1.2880 -0.2857  0.1878
   83MOL0     H10945   2.772  10.101   2.590  0.2604  0.8106 -0.6099
   83MOL0     H10946   2.941  10.289   2.576  3.2893 -0.8062  1.3317
   83MOL0     H10947   2.925  10.224   2.740 -0.6470 -0.7159 -0.6595
   83MOL0     H10948   2.993  10.400   2.838 -2.7897 -0.5459 -0.5501
   83MOL0     H10949   3.098  10.375   2.702 -0.6954 -1.0588 -0.6784
   83MOL0     H10950   2.905  10.606   2.757  0.7076  0.0819  2.5352
   83MOL0     H10951   2.944  10.563   2.584  2.2732  1.5105 -1.2324
   83MOL0     H10952   3.137  10.623   2.820  0.2493  1.1063 -0.0171
   83MOL0     H10953   3.187  10.585   2.657  0.7246  0.2204 -0.2873
   83MOL0     H10954   3.084  10.989   2.604  2.0184 -1.3294 -0.4772
   83MOL0     H10955   2.512  10.411   2.755 -2.0900 -0.2386 -1.0770
   83MOL0     H10956   2.340  10.241   2.763 -1.3878 -1.8426 -0.4277
   84MOL0     O10957   7.168   2.211   0.915 -0.1752  0.0826 -0.5854
   84MOL0     C10958   7.165   2.316   0.975 -0.1983 -0.0908  0.4451
   84MOL0     O10959   7.051   2.376   1.025 -0.8560  0.2848  0.6341
   84MOL0     C10960   6.937   2.300   1.017  1.1712 -0.1035 -1.0853
   84MOL0     C10961   6.869   2.285   1.142 -0.3902  1.3579  0.3629
   84MOL0     C10962   6.738   2.243   1.136  0.4989 -0.0793 -0.0393
   84MOL0     C10963   6.680   2.208   1.014 -0.7887  0.1193 -0.4149
   84MOL0     O10964   6.550   2.174   0.998 -0.6629  0.6960 -0.2360
   84MOL0     C10965   6.444   2.225   1.079 -0.1444 -0.0744 -0.1378
   84MOL0     C10966   6.337   2.117   1.080  0.1043  0.3298  0.4017
   84MOL0     C10967   6.220   2.161   1.166 -0.3350  0.7203  0.1321
   84MOL0     C10968   6.110   2.055   1.182 -0.7022 -0.3345 -0.3408
   84MOL0     C10969   5.980   2.084   1.263  0.1004 -0.2979 -0.3868
   84MOL0     C10970   5.916   2.219   1.214 -0.5714  0.2276  0.7520
   84MOL0     C10971   5.789   2.245   1.288 -0.4575  0.7764  1.0716
   84MOL0     C10972   5.732   2.377   1.228  0.2380  0.0173  0.2150
   84MOL0     N10973   5.584   2.374   1.251  0.0826 -0.0030  0.4295
   84MOL0     C10974   5.491   2.319   1.161  1.3005  0.0285  0.1311
   84MOL0     C10975   5.370   2.341   1.219 -0.1969 -0.3615 -0.6435
   84MOL0     C10976   5.225   2.298   1.193  0.5393 -0.1314 -0.3003
   84MOL0     C10977   5.225   2.160   1.128  0.0737 -0.4371  0.0512
   84MOL0     C10978   5.085   2.097   1.110  0.3295 -0.2015 -0.2588
   84MOL0     C10979   5.007   2.072   1.230 -0.5449  0.2937  0.3321
   84MOL0     O10980   4.918   2.178   1.262 -0.2265 -0.2360  0.3091
   84MOL0     C10981   4.809   2.163   1.342  0.5256 -0.0294 -0.1430
   84MOL0     C10982   4.755   2.281   1.394 -1.0121  0.2291  0.1213
   84MOL0     C10983   4.647   2.290   1.475  0.2763  0.2647  0.1973
   84MOL0     C10984   4.580   2.172   1.513  0.6641 -0.4511 -0.6059
   84MOL0     C10985   4.452   2.175   1.599 -0.2520  0.1569  0.2418
   84MOL0     O10986   4.386   2.296   1.599 -0.3192  0.1141 -0.5744
   84MOL0     C10987   4.252   2.309   1.629 -1.6326  0.6935  0.1327
   84MOL0     C10988   4.223   2.399   1.727 -0.3150  0.0985 -1.3470
   84MOL0     C10989   4.092   2.444   1.731 -0.4874 -0.4372 -0.0226
   84MOL0     C10990   3.992   2.387   1.655 -0.3293  0.0298 -0.2554
   84MOL0     O10991   3.858   2.419   1.659  0.1321 -0.3492 -0.8007
   84MOL0     C10992   3.816   2.489   1.781  0.3604  0.7564  0.5574
   84MOL0     C10993   3.663   2.488   1.792 -0.4222  0.5679  0.6775
   84MOL0     C10994   3.599   2.550   1.665  0.3562  0.4363 -0.0482
   84MOL0     C10995   3.465   2.477   1.648  0.1648 -0.4023 -0.5089
   84MOL0     C10996   3.386   2.526   1.522  0.0686 -0.6110 -0.2074
   84MOL0     C10997   3.260   2.438   1.500  0.4189 -1.0485 -0.2703
   84MOL0     C10998   3.174   2.489   1.388  0.6069  0.1583  0.5719
   84MOL0     C10999   3.064   2.591   1.415  0.9457 -1.0973 -0.0392
   84MOL0    Cl11000   2.952   2.528   1.538 -0.0804  0.1747 -0.1534
   84MOL0     C11001   4.020   2.275   1.583 -0.4544  1.0326  0.1460
   84MOL0     C11002   4.156   2.239   1.558 -1.0280  0.1873 -0.2148
   84MOL0     O11003   4.420   2.073   1.665 -0.5132  1.0963 -0.4672
   84MOL0     C11004   4.632   2.050   1.470  0.2731  0.2011 -0.7645
   84MOL0     C11005   4.741   2.043   1.378 -0.3576 -0.4711 -1.2292
   84MOL0     N11006   5.397   2.395   1.346  0.2778 -0.8254 -0.3099
   84MOL0     N11007   5.524   2.419   1.363 -0.3022  0.2209 -0.6182
   84MOL0     C11008   6.750   2.219   0.895 -1.0775  0.3069 -0.6480
   84MOL0     C11009   6.879   2.268   0.897  0.1273 -0.7556 -1.2696
   84MOL0     C11010   7.296   2.384   0.997  0.8683 -0.4865  1.0584
   84MOL0     C11011   7.404   2.308   0.971 -1.1089  1.3022  0.2378
   84MOL0     C11012   7.533   2.358   1.005  0.4438 -1.2444  0.1916
   84MOL0     C11013   7.546   2.482   1.077 -0.7202  0.5590  0.5914
   84MOL0     O11014   7.658   2.523   1.137  0.1182  0.5514  0.8243
   84MOL0     C11015   7.757   2.428   1.166 -0.0813 -1.0419 -0.3964
   84MOL0     C11016   7.876   2.501   1.231 -0.4092  0.1300  0.6125
   84MOL0     C11017   7.992   2.402   1.275 -0.2696 -0.0133  0.3498
   84MOL0     C11018   8.082   2.381   1.154  0.2314 -0.7851 -0.3971
   84MOL0     C11019   8.196   2.286   1.181  0.3138 -0.2304 -0.0057
   84MOL0     C11020   8.280   2.211   1.217 -0.9319 -0.1660 -0.9794
   84MOL0     C11021   7.432   2.561   1.096 -0.0822  1.0823 -0.5430
   84MOL0     C11022   7.304   2.514   1.051  0.2697 -0.7418  0.6210
   84MOL0     H11023   6.920   2.305   1.236 -1.4185 -1.8551  1.7296
   84MOL0     H11024   6.685   2.229   1.229 -0.5160 -0.4678 -0.6655
   84MOL0     H11025   6.391   2.315   1.047 -0.9027 -0.3393  0.3679
   84MOL0     H11026   6.479   2.220   1.183 -3.1580 -1.9562  0.9012
   84MOL0     H11027   6.378   2.022   1.117 -0.1838  0.5527  1.3226
   84MOL0     H11028   6.305   2.093   0.978  0.6968 -1.0900  0.5329
   84MOL0     H11029   6.167   2.247   1.125 -0.0256  0.0577 -1.7607
   84MOL0     H11030   6.250   2.165   1.271  1.4140  0.7788 -0.3293
   84MOL0     H11031   6.084   2.037   1.077  0.7386 -1.7628 -0.4923
   84MOL0     H11032   6.164   1.972   1.229  0.1089  2.1793  3.6621
   84MOL0     H11033   6.017   2.099   1.365  3.0944 -2.2046 -1.0540
   84MOL0     H11034   5.908   2.002   1.265  0.3439 -0.6276  3.9212
   84MOL0     H11035   5.894   2.207   1.108  0.5210 -1.2460  0.6606
   84MOL0     H11036   5.989   2.299   1.232  0.9211 -1.2679  1.7129
   84MOL0     H11037   5.722   2.162   1.261  2.8897 -1.0002 -2.8601
   84MOL0     H11038   5.805   2.246   1.396 -2.9882  2.8916  1.5241
   84MOL0     H11039   5.751   2.379   1.120 -1.3500 -0.9415 -0.1072
   84MOL0     H11040   5.791   2.455   1.278  0.8813  0.3123 -0.9622
   84MOL0     H11041   5.523   2.267   1.072  0.4298  1.2106 -0.9011
   84MOL0     H11042   5.163   2.372   1.142 -0.0990  0.7597  1.6836
   84MOL0     H11043   5.186   2.287   1.294  0.6495  2.8146  0.1426
   84MOL0     H11044   5.299   2.092   1.173  0.1041 -0.8970 -0.6725
   84MOL0     H11045   5.270   2.182   1.030 -0.6202  3.8337  0.5031
   84MOL0     H11046   5.028   2.149   1.033 -0.6811 -0.9813 -0.0552
   84MOL0     H11047   5.101   1.998   1.065 -1.0487 -0.2118 -0.7707
   84MOL0     H11048   5.076   2.062   1.315  1.8015 -0.8157 -1.6141
   84MOL0     H11049   4.943   1.984   1.220  0.3485 -0.4863  1.2986
   84MOL0     H11050   4.799   2.372   1.356 -1.6912 -0.4976 -2.6083
   84MOL0     H11051   4.607   2.388   1.496 -2.1049 -0.3752 -0.9926
   84MOL0     H11052   4.292   2.448   1.794  1.0463 -1.0908 -1.8493
   84MOL0     H11053   4.066   2.523   1.800  0.1793 -1.7000  1.7303
   84MOL0     H11054   3.853   2.592   1.779 -0.8468  1.2021  0.2704
   84MOL0     H11055   3.861   2.427   1.860 -1.3408  1.5831  2.2681
   84MOL0     H11056   3.626   2.533   1.885 -0.5800 -0.7818  1.2964
   84MOL0     H11057   3.637   2.382   1.800  3.1469 -0.3529  2.3915
   84MOL0     H11058   3.661   2.536   1.576 -0.6652  0.1296 -0.7459
   84MOL0     H11059   3.575   2.657   1.674 -1.0401  0.1366  0.0568
   84MOL0     H11060   3.482   2.370   1.638  2.4725 -0.1142 -0.4088
   84MOL0     H11061   3.424   2.498   1.747  1.1294 -1.1861  0.0683
   84MOL0     H11062   3.444   2.530   1.429 -0.3942  1.5109 -0.4619
   84MOL0     H11063   3.349   2.624   1.553 -1.0981 -0.9549 -0.4740
   84MOL0     H11064   3.201   2.430   1.592  0.7713 -1.8984 -0.1125
   84MOL0     H11065   3.291   2.339   1.466  0.8261 -0.0507 -3.0533
   84MOL0     H11066   3.245   2.536   1.319  0.3832 -0.9859 -0.4894
   84MOL0     H11067   3.134   2.406   1.329 -4.3806  3.2114 -0.9918
   84MOL0     H11068   3.019   2.624   1.321 -0.8755  0.5055  1.3252
   84MOL0     H11069   3.116   2.673   1.465  1.2916 -0.1616 -1.8459
   84MOL0     H11070   3.948   2.220   1.522  2.6538 -4.0153  0.4541
   84MOL0     H11071   4.178   2.156   1.491 -0.6151 -1.3832  1.7770
   84MOL0     H11072   4.596   1.953   1.503  3.6887 -0.9448  0.0338
   84MOL0     H11073   4.775   1.943   1.352  4.6627  0.4102  0.7876
   84MOL0     H11074   6.709   2.183   0.801  0.9052  0.0027 -1.4393
   84MOL0     H11075   6.928   2.301   0.806  1.1760 -1.7383 -1.0826
   84MOL0     H11076   7.387   2.204   0.945 -1.0817  1.7195 -1.5603
   84MOL0     H11077   7.611   2.286   0.981 -0.5486 -2.3553  0.2178
   84MOL0     H11078   7.798   2.369   1.083 -0.5387 -1.8348 -0.0707
   84MOL0     H11079   7.715   2.363   1.244 -0.8311  2.0467  1.9793
   84MOL0     H11080   7.904   2.575   1.155 -0.2779 -0.4249  0.1094
   84MOL0     H11081   7.837   2.549   1.321 -2.0846  1.1259 -0.5697
   84MOL0     H11082   7.946   2.306   1.301 -0.8894 -0.4190 -2.0475
   84MOL0     H11083   8.055   2.427   1.361  1.1165 -0.5973 -0.4469
   84MOL0     H11084   8.020   2.354   1.068 -0.8420 -2.6274  0.9052
   84MOL0     H11085   8.126   2.479   1.130 -1.2317 -0.2266 -0.8722
   84MOL0     H11086   8.357   2.153   1.263  1.1214  3.0299  0.0184
   84MOL0     H11087   7.430   2.663   1.132 -1.0329  1.7411 -2.3299
   84MOL0     H11088   7.219   2.579   1.069  2.0546  2.7395 -2.3338
   85MOL0     O11089   4.093   9.852   5.655  1.5161  0.5119  0.4919
   85MOL0     C11090   4.006   9.916   5.700  0.6110  0.3882 -0.1307
   85MOL0     O11091   4.005  10.048   5.728 -0.2123  0.3137  0.3888
   85MOL0     C11092   4.111  10.127   5.703 -0.2579 -0.2212 -0.6042
   85MOL0     C11093   4.116  10.182   5.571  0.0109  0.2722  0.1848
   85MOL0     C11094   4.238  10.231   5.521 -0.7250  0.7665 -0.1402
   85MOL0     C11095   4.352  10.240   5.604 -0.3026  0.2322 -0.0474
   85MOL0     O11096   4.479  10.260   5.561 -0.5106  0.1854  0.1402
   85MOL0     C11097   4.489  10.302   5.422 -0.3807 -0.1924  0.5072
   85MOL0     C11098   4.634  10.300   5.376  0.5152  0.4023  0.6496
   85MOL0     C11099   4.641  10.285   5.222  0.5285  0.2230 -0.3849
   85MOL0     C11100   4.784  10.284   5.176  0.0418  0.3735  0.0946
   85MOL0     C11101   4.790  10.245   5.032  0.2156  0.6754  0.6922
   85MOL0     C11102   4.736  10.340   4.923 -0.0431 -0.5356 -0.3981
   85MOL0     C11103   4.814  10.484   4.921  0.5457 -0.5256  0.6725
   85MOL0     C11104   4.906  10.497   4.795 -0.3070 -0.5461  0.0977
   85MOL0     N11105   4.917  10.642   4.786  0.5050  0.1480  0.0729
   85MOL0     C11106   4.825  10.723   4.736  0.9119  1.0329 -0.5166
   85MOL0     C11107   4.872  10.851   4.758 -1.0883  0.0085  0.1769
   85MOL0     C11108   4.817  10.980   4.703 -0.7004  0.3933 -0.0731
   85MOL0     C11109   4.909  11.045   4.604 -0.9828 -0.1304  0.8417
   85MOL0     C11110   4.850  11.179   4.552  0.7077  1.0710 -1.3642
   85MOL0     C11111   4.898  11.228   4.423  0.8969 -0.9233 -0.4802
   85MOL0     O11112   4.852  11.131   4.324  0.3183 -1.1431  0.1109
   85MOL0     C11113   4.740  11.174   4.258 -0.4268 -0.0572  0.7739
   85MOL0     C11114   4.621  11.123   4.293  0.1661 -0.6835 -0.1843
   85MOL0     C11115   4.496  11.173   4.243 -0.2408  0.0471  0.3979
   85MOL0     C11116   4.492  11.265   4.138 -0.0104  0.4627 -0.2433
   85MOL0     C11117   4.377  11.279   4.066  0.9053  0.0702  0.2760
   85MOL0     O11118   4.271  11.206   4.112 -0.1292  0.9606  0.8269
   85MOL0     C11119   4.149  11.226   4.037  0.8063  0.5432 -0.3669
   85MOL0     C11120   4.108  11.131   3.939 -0.1168  0.7631  0.9088
   85MOL0     C11121   3.987  11.144   3.867  0.4926 -1.1375  0.4903
   85MOL0     C11122   3.901  11.253   3.892 -0.0546  0.4784  0.0877
   85MOL0     O11123   3.794  11.262   3.809 -0.1863  0.0320  0.8974
   85MOL0     C11124   3.679  11.298   3.883  0.6968 -0.0831 -0.2013
   85MOL0     C11125   3.551  11.289   3.797  0.5562  0.8396  0.1167
   85MOL0     C11126   3.430  11.326   3.869  0.7961  1.0400 -0.3663
   85MOL0     C11127   3.315  11.286   3.783  0.2962 -0.4971  1.0985
   85MOL0     C11128   3.193  11.346   3.842 -0.9889 -0.3947 -0.4589
   85MOL0     C11129   3.072  11.291   3.776  0.6013  0.1324 -0.0718
   85MOL0     C11130   2.941  11.354   3.835 -0.9211 -0.5961  0.4795
   85MOL0     C11131   2.818  11.266   3.803  0.0935 -0.2219  0.3014
   85MOL0    Cl11132   2.669  11.362   3.846  0.2586 -0.3539  0.0672
   85MOL0     C11133   3.931  11.339   4.000  1.0204 -0.0207 -0.0194
   85MOL0     C11134   4.054  11.325   4.067  0.4189  0.5945 -0.6314
   85MOL0     O11135   4.381  11.343   3.965  0.7700  0.3230 -0.2631
   85MOL0     C11136   4.616  11.324   4.107 -0.5599  0.2817  0.3566
   85MOL0     C11137   4.740  11.280   4.165 -0.1278  0.3451  0.0491
   85MOL0     N11138   4.985  10.835   4.831  0.4790  0.2389  0.5312
   85MOL0     N11139   5.016  10.718   4.840 -0.0308  1.1939 -0.5627
   85MOL0     C11140   4.343  10.178   5.732 -0.0306 -0.6107 -0.9386
   85MOL0     C11141   4.227  10.125   5.780  0.4713 -0.3753 -0.4393
   85MOL0     C11142   3.878   9.840   5.724 -0.3773  0.0075  0.3349
   85MOL0     C11143   3.865   9.696   5.700 -0.0268  0.1335 -0.0863
   85MOL0     C11144   3.742   9.637   5.708  0.3226 -0.5324  0.7311
   85MOL0     C11145   3.624   9.711   5.753 -0.1388  0.4851  0.1189
   85MOL0     O11146   3.509   9.632   5.766  0.2817 -1.0147 -0.5494
   85MOL0     C11147   3.384   9.710   5.788 -0.6382  0.1267 -0.2922
   85MOL0     C11148   3.259   9.618   5.786  0.3437  0.2973  0.0695
   85MOL0     C11149   3.126   9.693   5.812  0.0703 -0.5224 -0.2428
   85MOL0     C11150   3.066   9.744   5.685  0.2944  0.9116  0.5840
   85MOL0     C11151   2.972   9.648   5.623 -0.3676  0.4949  0.6371
   85MOL0     C11152   2.880   9.580   5.576 -0.6801  1.0156 -0.9398
   85MOL0     C11153   3.644   9.842   5.789 -0.1790  0.4612  0.3532
   85MOL0     C11154   3.765   9.906   5.777 -0.5706  0.0806 -0.2326
   85MOL0     H11155   4.028  10.180   5.508 -0.1339  3.0315  0.1674
   85MOL0     H11156   4.227  10.264   5.419  0.5130 -1.2197 -0.9736
   85MOL0     H11157   4.423  10.389   5.414 -0.2638  0.0259  1.7744
   85MOL0     H11158   4.432  10.232   5.360  1.4331  2.1756 -4.4067
   85MOL0     H11159   4.675  10.204   5.410 -1.6882 -1.3738 -1.2821
   85MOL0     H11160   4.696  10.380   5.417 -1.8559  2.0133  1.3448
   85MOL0     H11161   4.599  10.375   5.177  3.1332  0.5128 -2.4852
   85MOL0     H11162   4.585  10.198   5.185  1.4471  0.4756 -2.5148
   85MOL0     H11163   4.807  10.385   5.213 -2.5155  1.5897 -1.3740
   85MOL0     H11164   4.836  10.214   5.242 -2.3109 -0.0271  1.6618
   85MOL0     H11165   4.730  10.153   5.026  1.9837 -0.8410  3.7369
   85MOL0     H11166   4.897  10.226   5.020  0.7953  2.9351  1.8081
   85MOL0     H11167   4.631  10.356   4.950 -0.2675  0.7915 -1.9705
   85MOL0     H11168   4.736  10.293   4.824  1.4187  3.7177 -2.6574
   85MOL0     H11169   4.742  10.566   4.920 -0.0640 -0.9951  2.5463
   85MOL0     H11170   4.873  10.497   5.012 -1.1929  1.7136  1.5958
   85MOL0     H11171   4.860  10.450   4.707 -0.1607  0.1328 -0.3430
   85MOL0     H11172   5.004  10.452   4.814  0.8538  1.3494 -1.0705
   85MOL0     H11173   4.740  10.692   4.676  1.3282  1.4733 -1.3563
   85MOL0     H11174   4.813  11.048   4.789  2.5974  1.9750 -1.0405
   85MOL0     H11175   4.721  10.958   4.655 -0.8992  0.9721  0.0604
   85MOL0     H11176   4.934  10.983   4.517 -1.7075  1.4873 -0.5803
   85MOL0     H11177   5.006  11.071   4.648 -1.0165 -0.0824  0.8879
   85MOL0     H11178   4.742  11.167   4.555  0.8016 -1.0061 -3.1423
   85MOL0     H11179   4.875  11.263   4.617  1.9683 -0.3680  0.0966
   85MOL0     H11180   5.006  11.236   4.413  1.0659  1.2709  1.9788
   85MOL0     H11181   4.865  11.331   4.403  1.0927 -0.3746  1.7243
   85MOL0     H11182   4.609  11.050   4.373 -1.9588 -0.6510 -0.4182
   85MOL0     H11183   4.406  11.154   4.300 -0.2310  0.8320  0.6793
   85MOL0     H11184   4.173  11.048   3.913  0.8550  2.3271 -2.2991
   85MOL0     H11185   3.959  11.070   3.794 -1.4283  2.0088 -2.2569
   85MOL0     H11186   3.678  11.403   3.913 -0.3106 -0.2021  0.2041
   85MOL0     H11187   3.653  11.229   3.965 -1.3813 -0.2993 -0.9837
   85MOL0     H11188   3.548  11.186   3.758 -0.3618  1.2331 -0.8881
   85MOL0     H11189   3.572  11.344   3.705 -0.7014 -0.2525 -0.8575
   85MOL0     H11190   3.421  11.432   3.895 -0.4427  0.9549 -0.3869
   85MOL0     H11191   3.411  11.270   3.961 -5.0974 -0.2581 -1.9155
   85MOL0     H11192   3.331  11.337   3.688 -0.5221 -1.9908  0.1124
   85MOL0     H11193   3.306  11.177   3.773 -1.2062 -0.3341  0.4706
   85MOL0     H11194   3.188  11.455   3.841 -3.0700 -0.4315  0.8710
   85MOL0     H11195   3.196  11.317   3.947  0.4654 -0.5274 -0.5220
   85MOL0     H11196   3.071  11.188   3.813  1.0864  0.1356 -0.0415
   85MOL0     H11197   3.072  11.287   3.667 -0.5958 -0.3060 -0.0766
   85MOL0     H11198   2.955  11.353   3.943 -0.4019 -0.6049  0.4177
   85MOL0     H11199   2.928  11.455   3.793 -1.5567 -1.2380 -0.9354
   85MOL0     H11200   2.806  11.174   3.862 -1.4114 -0.7128 -0.6981
   85MOL0     H11201   2.803  11.228   3.701 -0.7538 -4.6002  1.8190
   85MOL0     H11202   3.865  11.423   4.018  2.0701  1.2049 -1.5876
   85MOL0     H11203   4.076  11.396   4.145 -0.7722  2.1344 -1.6398
   85MOL0     H11204   4.620  11.402   4.031  1.4751 -0.8029 -0.7463
   85MOL0     H11205   4.833  11.322   4.129 -0.5943  2.6551  1.3762
   85MOL0     H11206   4.432  10.174   5.794 -0.2824 -2.5009 -0.6425
   85MOL0     H11207   4.232  10.087   5.882  6.0361  2.7953  0.8872
   85MOL0     H11208   3.959   9.646   5.679  0.3207  0.4690  0.6229
   85MOL0     H11209   3.748   9.538   5.664  0.7326 -0.4269  0.5438
   85MOL0     H11210   3.381   9.778   5.702  0.5853  2.2967  1.2759
   85MOL0     H11211   3.389   9.765   5.883  4.3512  0.9816 -0.7451
   85MOL0     H11212   3.254   9.555   5.697  0.8080 -0.0017  0.2483
   85MOL0     H11213   3.279   9.551   5.870  1.2789  2.4495  1.6724
   85MOL0     H11214   3.146   9.779   5.876  0.9262  0.6250 -1.9624
   85MOL0     H11215   3.059   9.625   5.865  0.3508 -0.2699  0.4451
   85MOL0     H11216   3.012   9.838   5.701  2.7211  2.4746  0.1259
   85MOL0     H11217   3.153   9.760   5.621 -0.0319  0.1087 -0.0738
   85MOL0     H11218   2.793   9.523   5.551 -1.1378  0.6357  1.3031
   85MOL0     H11219   3.565   9.896   5.840  0.5636  1.3446  0.5957
   85MOL0     H11220   3.765  10.014   5.786 -2.0059  0.3209 -2.2912
   86MOL0     O11221   0.528  10.375   7.434  1.3891  0.0599  0.4985
   86MOL0     C11222   0.596  10.402   7.532  0.3794 -0.2044 -0.2673
   86MOL0     O11223   0.732  10.389   7.542 -0.2917  0.3286  0.4111
   86MOL0     C11224   0.793  10.368   7.426  0.0452  0.8120 -0.4002
   86MOL0     C11225   0.774  10.254   7.349 -1.2749  0.4030  0.5708
   86MOL0     C11226   0.850  10.224   7.236  0.0734 -0.3382  0.2636
   86MOL0     C11227   0.949  10.307   7.200 -0.4132  0.0799  0.4063
   86MOL0     O11228   1.020  10.276   7.088  0.0949  0.1775  0.1334
   86MOL0     C11229   1.157  10.296   7.070 -1.0781  0.1187  0.4137
   86MOL0     C11230   1.188  10.410   6.978  0.2411  0.0602 -0.2218
   86MOL0     C11231   1.341  10.433   6.965 -0.9880  0.0169  0.6185
   86MOL0     C11232   1.378  10.545   6.868  0.0798 -0.3150 -0.0454
   86MOL0     C11233   1.529  10.569   6.881  0.2602 -0.0577  0.5699
   86MOL0     C11234   1.563  10.693   6.794  0.0975  0.5748 -0.3472
   86MOL0     C11235   1.713  10.727   6.809 -0.2162 -0.7449  0.6120
   86MOL0     C11236   1.741  10.810   6.934  0.5153 -0.3901  0.8766
   86MOL0     N11237   1.876  10.862   6.918 -0.0771  0.2592  0.2296
   86MOL0     C11238   1.987  10.787   6.912  0.5779  0.6571 -0.7017
   86MOL0     C11239   2.083  10.880   6.909 -1.1468 -0.0296 -0.0303
   86MOL0     C11240   2.232  10.845   6.919  0.1574  0.7191  0.5518
   86MOL0     C11241   2.308  10.889   6.796  1.2630 -0.6447 -0.2975
   86MOL0     C11242   2.370  11.041   6.811  0.1944  0.7898  0.7932
   86MOL0     C11243   2.336  11.111   6.680 -0.5450  0.4475  0.3944
   86MOL0     O11244   2.338  11.250   6.708  0.0511  0.1745  0.0983
   86MOL0     C11245   2.430  11.325   6.642  0.8886 -0.1399 -0.5091
   86MOL0     C11246   2.568  11.296   6.658  0.7680 -0.1581 -0.4732
   86MOL0     C11247   2.666  11.377   6.602  0.1578 -0.5808 -0.0510
   86MOL0     C11248   2.627  11.477   6.513 -0.9192 -0.2154 -0.8516
   86MOL0     C11249   2.731  11.544   6.449 -0.4242  0.3483  0.1835
   86MOL0     O11250   2.832  11.603   6.517 -0.4126 -0.4351  0.0265
   86MOL0     C11251   2.951  11.626   6.451  0.6765 -0.4075  1.0717
   86MOL0     C11252   3.058  11.627   6.538  0.0167 -0.3988  0.3047
   86MOL0     C11253   3.191  11.644   6.489  0.7042 -0.0532 -0.8594
   86MOL0     C11254   3.218  11.655   6.348 -0.8466  0.5088 -0.4172
   86MOL0     O11255   3.340  11.674   6.299  0.4191 -0.6079 -0.0415
   86MOL0     C11256   3.428  11.557   6.325  0.9242  0.1347 -0.4952
   86MOL0     C11257   3.560  11.585   6.276  0.0671 -0.3013 -0.0714
   86MOL0     C11258   3.638  11.661   6.378  0.4473 -0.7320  0.9440
   86MOL0     C11259   3.764  11.705   6.313 -0.0399 -0.4286 -0.8585
   86MOL0     C11260   3.881  11.606   6.345 -0.5341 -0.4557 -0.2579
   86MOL0     C11261   4.017  11.643   6.293 -0.2467  0.4643 -0.1583
   86MOL0     C11262   4.123  11.541   6.331  0.0227  0.3726 -0.5245
   86MOL0     C11263   4.126  11.420   6.229 -1.2218  0.5349 -0.9058
   86MOL0    Cl11264   4.184  11.472   6.068  0.0548 -0.1417  0.0320
   86MOL0     C11265   3.109  11.649   6.266  0.3205 -0.2433 -0.1384
   86MOL0     C11266   2.979  11.634   6.314 -0.6089 -0.8065 -0.3664
   86MOL0     O11267   2.724  11.528   6.323  0.3633  0.4455  0.4555
   86MOL0     C11268   2.499  11.517   6.516  0.2381  0.3567  1.1608
   86MOL0     C11269   2.404  11.449   6.581 -0.1386 -0.4333 -0.1607
   86MOL0     N11270   2.036  11.002   6.917  0.1435 -0.5855 -0.0325
   86MOL0     N11271   1.907  10.992   6.912 -0.8407  0.8828 -0.2725
   86MOL0     C11272   0.980  10.408   7.283  0.1145 -0.8644  0.4928
   86MOL0     C11273   0.896  10.448   7.392  1.3635  0.5641  0.7301
   86MOL0     C11274   0.527  10.451   7.660 -0.0829 -0.5012  0.0423
   86MOL0     C11275   0.388  10.443   7.681  0.1630 -1.3900  0.0353
   86MOL0     C11276   0.323  10.480   7.803  0.9416 -0.4864  0.8676
   86MOL0     C11277   0.399  10.547   7.899  0.1726 -0.4091  0.0639
   86MOL0     O11278   0.348  10.587   8.015  0.4167 -0.6822  0.0443
   86MOL0     C11279   0.208  10.575   8.053  0.6528  0.0432  0.2240
   86MOL0     C11280   0.122  10.695   7.997 -0.0347  0.7467 -0.9672
   86MOL0     C11281   0.157  10.832   8.067  0.7796  0.4108  0.0726
   86MOL0     C11282   0.055  10.953   8.033 -0.3294  0.0742 -0.2725
   86MOL0     C11283   0.111  11.069   8.101 -0.4499  0.5914 -1.0418
   86MOL0     C11284   0.158  11.150   8.182 -0.1100 -0.1860 -0.9405
   86MOL0     C11285   0.535  10.569   7.876  0.0350 -0.8968  0.1972
   86MOL0     C11286   0.601  10.517   7.766 -0.4795  0.2344  0.1861
   86MOL0     H11287   0.697  10.182   7.372  0.0158 -1.2651 -0.1153
   86MOL0     H11288   0.821  10.137   7.178 -1.9008  0.4615 -0.0037
   86MOL0     H11289   1.189  10.201   7.026 -0.3454  0.9032 -0.7998
   86MOL0     H11290   1.208  10.315   7.165  1.6792 -0.3367 -0.8783
   86MOL0     H11291   1.160  10.502   7.030 -0.3365 -0.5930  0.6548
   86MOL0     H11292   1.143  10.403   6.879  0.9157  0.2927 -0.5561
   86MOL0     H11293   1.390  10.341   6.931 -0.1904  0.1373  1.4267
   86MOL0     H11294   1.386  10.453   7.062  0.9454 -0.9650 -0.0274
   86MOL0     H11295   1.356  10.524   6.763 -2.0023 -3.4492  0.9161
   86MOL0     H11296   1.330  10.637   6.904  0.3777 -0.2464  0.1886
   86MOL0     H11297   1.573  10.476   6.844 -1.7736 -1.9238  2.5544
   86MOL0     H11298   1.564  10.591   6.982  4.1166  0.7097 -0.7705
   86MOL0     H11299   1.501  10.773   6.837  1.6018 -0.2472  3.8270
   86MOL0     H11300   1.545  10.660   6.691 -1.7718 -0.9281  0.3913
   86MOL0     H11301   1.772  10.634   6.810 -0.9450 -1.2382 -0.5048
   86MOL0     H11302   1.746  10.779   6.719 -1.3942 -3.4830 -1.5460
   86MOL0     H11303   1.747  10.753   7.027 -0.7802 -1.3539  0.3936
   86MOL0     H11304   1.664  10.886   6.944 -0.8033 -1.5826  0.1038
   86MOL0     H11305   2.003  10.680   6.919 -0.6731  0.4719 -0.4542
   86MOL0     H11306   2.248  10.737   6.928  1.3354  0.9068  0.8272
   86MOL0     H11307   2.274  10.882   7.012 -0.5150 -0.7002  1.4427
   86MOL0     H11308   2.248  10.877   6.706  0.9258  1.0945 -0.3274
   86MOL0     H11309   2.389  10.815   6.786 -1.0039 -3.3403  0.0427
   86MOL0     H11310   2.345  11.099   6.901  0.8346 -0.6838  1.9630
   86MOL0     H11311   2.478  11.027   6.809 -0.0247 -1.0601  0.2034
   86MOL0     H11312   2.231  11.096   6.653 -0.4000  0.1691 -0.0253
   86MOL0     H11313   2.395  11.081   6.592 -0.7565  1.7219 -0.2016
   86MOL0     H11314   2.598  11.227   6.737 -0.9752 -1.2913 -0.7424
   86MOL0     H11315   2.772  11.359   6.614  0.0009 -2.8482 -1.4303
   86MOL0     H11316   3.038  11.608   6.643 -1.0522 -1.4074 -0.0617
   86MOL0     H11317   3.271  11.645   6.563 -1.3813 -1.8046  1.6212
   86MOL0     H11318   3.396  11.465   6.275 -1.5259 -0.7243  2.3771
   86MOL0     H11319   3.420  11.533   6.431 -0.7051  0.8376 -0.4318
   86MOL0     H11320   3.551  11.641   6.182 -0.9698 -2.2934 -1.2081
   86MOL0     H11321   3.611  11.493   6.246 -2.3107 -1.7426  0.0464
   86MOL0     H11322   3.665  11.592   6.459  2.7643  1.3874  2.0950
   86MOL0     H11323   3.591  11.753   6.412 -0.9619 -1.0257 -0.1335
   86MOL0     H11324   3.752  11.734   6.208  0.3059  1.4573 -0.4089
   86MOL0     H11325   3.795  11.788   6.377 -0.7428 -2.9457  3.0776
   86MOL0     H11326   3.837  11.507   6.328 -1.3023 -0.9868  3.9072
   86MOL0     H11327   3.884  11.608   6.454 -1.0823 -0.8840 -0.2275
   86MOL0     H11328   4.047  11.735   6.344 -0.6227 -0.3685  1.6408
   86MOL0     H11329   4.012  11.655   6.184  0.1341 -2.8769 -0.6598
   86MOL0     H11330   4.218  11.593   6.325  0.2737 -0.1547 -1.1857
   86MOL0     H11331   4.121  11.500   6.433  0.9769  1.6766  0.0471
   86MOL0     H11332   4.025  11.380   6.219 -1.3095  0.4771  0.1678
   86MOL0     H11333   4.181  11.336   6.271 -0.3945  2.4481  2.1389
   86MOL0     H11334   3.124  11.664   6.160  0.6838  1.7461  0.1410
   86MOL0     H11335   2.905  11.646   6.235  0.4158  1.9042 -1.0519
   86MOL0     H11336   2.477  11.605   6.456  2.6779  1.9958  2.4363
   86MOL0     H11337   2.304  11.491   6.567  0.3215  2.3654  3.2888
   86MOL0     H11338   1.058  10.475   7.248 -0.3313 -1.1879 -1.2364
   86MOL0     H11339   0.926  10.537   7.447  2.8329  0.5532  0.0045
   86MOL0     H11340   0.332  10.389   7.605 -0.7876  0.3000 -0.5316
   86MOL0     H11341   0.219  10.451   7.817  0.4762  0.6165 -0.1818
   86MOL0     H11342   0.197  10.559   8.161 -0.3018  0.1802  0.1588
   86MOL0     H11343   0.170  10.484   8.004 -0.4868  1.1814 -1.0982
   86MOL0     H11344   0.136  10.687   7.889  0.8640 -3.7591 -0.7056
   86MOL0     H11345   0.016  10.674   8.014  0.2060  1.0528  1.2159
   86MOL0     H11346   0.256  10.861   8.032 -0.1613  3.0928 -0.5900
   86MOL0     H11347   0.174  10.808   8.172  0.0839  0.2329  0.1488
   86MOL0     H11348   0.028  10.958   7.927 -2.5867 -0.6362  0.2176
   86MOL0     H11349  -0.041  10.933   8.081 -0.3903  5.0487  2.2527
   86MOL0     H11350   0.190  11.223   8.254  2.0203 -0.6229 -1.3729
   86MOL0     H11351   0.588  10.611   7.960 -3.3976  2.4211  0.9421
   86MOL0     H11352   0.708  10.535   7.764 -0.6497  1.8767  2.2935
   87MOL0     O11353   1.689  10.061   1.701 -0.3142 -0.0430 -0.0235
   87MOL0     C11354   1.713  10.180   1.683  0.9634 -0.4706 -0.4094
   87MOL0     O11355   1.621  10.277   1.639 -0.6111  1.1226 -0.4467
   87MOL0     C11356   1.492  10.237   1.616 -0.7251 -0.8491  1.4546
   87MOL0     C11357   1.383  10.285   1.695 -0.0870  0.5187  0.4019
   87MOL0     C11358   1.249  10.246   1.675 -0.6161  0.3763 -0.1856
   87MOL0     C11359   1.216  10.152   1.587  0.2586 -0.1096 -0.2248
   87MOL0     O11360   1.084  10.115   1.595 -0.8167  0.4359  0.3272
   87MOL0     C11361   1.028  10.036   1.493  0.7493 -0.2235  0.2668
   87MOL0     C11362   0.951  10.113   1.387 -0.0020 -0.2839 -0.3307
   87MOL0     C11363   0.878  10.021   1.300 -0.0375  1.4200 -0.0141
   87MOL0     C11364   0.792  10.075   1.175  0.6896  1.0692  0.2600
   87MOL0     C11365   0.710   9.967   1.103  0.2962  0.0065  0.1514
   87MOL0     C11366   0.583   9.940   1.179 -0.6285  0.2770  0.0107
   87MOL0     C11367   0.496   9.845   1.103 -0.5877  0.0938  0.3995
   87MOL0     C11368   0.450   9.899   0.969  0.3893  0.5388  0.6713
   87MOL0     N11369   0.382   9.796   0.886  0.4974 -0.0502 -0.2790
   87MOL0     C11370   0.291   9.691   0.918 -0.3028  0.0619 -0.2012
   87MOL0     C11371   0.269   9.625   0.799  0.3172 -0.3107  0.2147
   87MOL0     C11372   0.175   9.518   0.790  0.1733  1.2862 -0.0823
   87MOL0     C11373   0.233   9.393   0.861  0.7627 -0.1079  0.4095
   87MOL0     C11374   0.319   9.318   0.765  0.0296 -0.6422 -0.8102
   87MOL0     C11375   0.398   9.214   0.848 -0.1754  0.1982  0.5069
   87MOL0     O11376   0.485   9.146   0.753 -0.8573 -0.1197 -0.2388
   87MOL0     C11377   0.618   9.155   0.795 -0.5036 -0.2625 -0.4898
   87MOL0     C11378   0.710   9.226   0.719  0.0942  0.8058 -0.1592
   87MOL0     C11379   0.848   9.245   0.754  0.3318  0.7481  0.0172
   87MOL0     C11380   0.891   9.175   0.862 -0.4825  1.1613 -0.4596
   87MOL0     C11381   1.028   9.178   0.910 -0.2239 -0.2316  0.2683
   87MOL0     O11382   1.061   9.071   0.988 -0.5470 -0.5534 -0.7974
   87MOL0     C11383   1.186   9.070   1.042 -0.6042 -0.2690  1.2386
   87MOL0     C11384   1.215   9.107   1.165 -1.0963 -0.6366  0.8974
   87MOL0     C11385   1.350   9.097   1.219  0.6050 -0.4175  0.0782
   87MOL0     C11386   1.450   9.062   1.125 -0.2591 -0.5248 -0.3949
   87MOL0     O11387   1.578   9.068   1.166  0.2040  0.7090  0.2711
   87MOL0     C11388   1.643   9.189   1.132  0.1488  0.9483  0.2890
   87MOL0     C11389   1.594   9.295   1.228 -0.6858 -0.2084 -0.0361
   87MOL0     C11390   1.642   9.260   1.377 -0.1067  0.7179  0.4911
   87MOL0     C11391   1.784   9.326   1.397 -0.1428  0.1266  0.5580
   87MOL0     C11392   1.819   9.357   1.538  0.2245  0.1918 -0.2963
   87MOL0     C11393   1.711   9.450   1.608  0.2217  0.4870  0.5855
   87MOL0     C11394   1.753   9.493   1.755 -0.0339 -0.2565 -0.3883
   87MOL0     C11395   1.780   9.381   1.851  0.9894 -0.5077  0.0943
   87MOL0    Cl11396   1.645   9.262   1.854  0.0277 -0.6875  0.1066
   87MOL0     C11397   1.413   9.017   1.001  0.5476 -0.6121 -0.4237
   87MOL0     C11398   1.285   9.014   0.956  0.2831 -0.6478 -0.6450
   87MOL0     O11399   1.102   9.266   0.860  0.0594 -1.1740  0.2354
   87MOL0     C11400   0.800   9.107   0.939  0.1194  0.8567 -0.6094
   87MOL0     C11401   0.667   9.091   0.906 -0.5652  0.3055 -0.3902
   87MOL0     N11402   0.341   9.677   0.697 -0.0267 -0.0091  0.1256
   87MOL0     N11403   0.408   9.778   0.757  0.2176  0.4277 -0.0125
   87MOL0     C11404   1.315  10.104   1.504 -0.2919  0.2648  0.0783
   87MOL0     C11405   1.454  10.148   1.512  0.5710  0.3900 -0.0961
   87MOL0     C11406   1.842  10.226   1.741 -0.6723  0.7506  0.2880
   87MOL0     C11407   1.948  10.132   1.773  0.1567 -0.7110 -0.6295
   87MOL0     C11408   2.079  10.169   1.807  0.2100 -0.0309  0.8583
   87MOL0     C11409   2.095  10.305   1.820  1.3141 -0.1284  0.1601
   87MOL0     O11410   2.210  10.349   1.871 -0.2188 -0.7563 -0.0836
   87MOL0     C11411   2.208  10.390   2.013  0.1909 -0.3917 -0.2694
   87MOL0     C11412   2.340  10.411   2.078  0.1452 -0.4598 -0.0128
   87MOL0     C11413   2.409  10.269   2.089  0.5353 -0.7286  0.7472
   87MOL0     C11414   2.565  10.291   2.122 -0.2577  1.7085  0.1857
   87MOL0     C11415   2.589  10.374   2.239  0.1359 -0.3881  0.2245
   87MOL0     C11416   2.594  10.435   2.341 -0.6126  0.5159 -0.7122
   87MOL0     C11417   1.996  10.394   1.790 -0.2959 -0.5839  0.4083
   87MOL0     C11418   1.872  10.360   1.744 -0.2992  0.1673 -0.5187
   87MOL0     H11419   1.405  10.347   1.781  0.7178  1.7290 -0.6456
   87MOL0     H11420   1.179  10.288   1.747  1.4378  2.3148  0.7996
   87MOL0     H11421   0.954   9.969   1.536  1.7020 -1.8699 -0.5380
   87MOL0     H11422   1.103   9.971   1.447  3.2992  1.2116  2.1552
   87MOL0     H11423   1.027  10.166   1.329 -1.4402  1.9781 -0.2613
   87MOL0     H11424   0.877  10.175   1.439  3.1200  1.3145  2.5841
   87MOL0     H11425   0.816   9.948   1.354  2.6393 -0.8257  0.2712
   87MOL0     H11426   0.952   9.947   1.269 -0.0878  0.5726  1.7506
   87MOL0     H11427   0.728  10.154   1.216 -2.2598 -2.9063  4.3367
   87MOL0     H11428   0.865  10.118   1.106 -0.1016 -0.9796 -2.0318
   87MOL0     H11429   0.761   9.874   1.078 -0.9317 -0.4041 -0.9299
   87MOL0     H11430   0.687  10.012   1.006  2.0174 -3.3411 -1.9913
   87MOL0     H11431   0.531  10.029   1.215  3.7118  1.4970  4.3416
   87MOL0     H11432   0.620   9.891   1.269  2.1205 -1.4152 -1.8644
   87MOL0     H11433   0.558   9.755   1.098 -0.6651 -0.0168  1.3867
   87MOL0     H11434   0.414   9.816   1.169 -0.2598 -1.2633  0.2248
   87MOL0     H11435   0.539   9.931   0.913  2.3085  2.7315  4.5508
   87MOL0     H11436   0.392   9.991   0.981 -2.1667 -0.6626 -1.5281
   87MOL0     H11437   0.255   9.669   1.018  0.0956 -3.0805 -0.6662
   87MOL0     H11438   0.134   9.495   0.692  2.1413 -1.4174 -0.3866
   87MOL0     H11439   0.086   9.555   0.843  0.3855 -0.1216  1.3420
   87MOL0     H11440   0.150   9.326   0.885  3.7866 -3.9253  1.1343
   87MOL0     H11441   0.281   9.423   0.954  0.3331  1.6679  0.0952
   87MOL0     H11442   0.243   9.271   0.702 -2.2026  2.0426 -0.3057
   87MOL0     H11443   0.387   9.379   0.704 -2.9244  2.9216 -0.8790
   87MOL0     H11444   0.321   9.146   0.887 -3.1255  2.4313 -0.9997
   87MOL0     H11445   0.449   9.266   0.929 -1.2049  1.6261  0.2847
   87MOL0     H11446   0.675   9.284   0.635 -0.5414 -1.0990 -1.2646
   87MOL0     H11447   0.912   9.298   0.685 -1.8288  2.4113 -0.8389
   87MOL0     H11448   1.129   9.128   1.229 -2.1382  1.7756 -1.1016
   87MOL0     H11449   1.386   9.126   1.317  1.7979 -1.0197 -0.1659
   87MOL0     H11450   1.642   9.197   1.023  1.0850 -4.0458 -0.3176
   87MOL0     H11451   1.749   9.172   1.151 -0.0962 -4.8964 -1.6230
   87MOL0     H11452   1.485   9.297   1.220 -0.7600 -0.3143  0.9195
   87MOL0     H11453   1.624   9.392   1.187  0.1362 -1.2061 -1.9211
   87MOL0     H11454   1.658   9.152   1.385 -0.5566  0.5715 -0.4940
   87MOL0     H11455   1.565   9.301   1.442  0.5800  1.4661  0.8554
   87MOL0     H11456   1.857   9.266   1.341 -0.2883  0.3542  0.1240
   87MOL0     H11457   1.773   9.420   1.343  3.1234  0.9331  1.0573
   87MOL0     H11458   1.910   9.415   1.548  0.9905 -1.2668  1.8215
   87MOL0     H11459   1.845   9.271   1.600  3.2290 -0.2985 -2.0355
   87MOL0     H11460   1.607   9.416   1.602  0.2371  0.4807  0.3085
   87MOL0     H11461   1.701   9.543   1.551  0.4991  1.1300  1.5645
   87MOL0     H11462   1.835   9.565   1.756  1.1611 -1.5671  0.0970
   87MOL0     H11463   1.663   9.545   1.788 -0.8104 -2.4455  1.1674
   87MOL0     H11464   1.794   9.410   1.956 -1.0715 -2.5261  1.0104
   87MOL0     H11465   1.874   9.344   1.809  2.1109  1.3728  0.8357
   87MOL0     H11466   1.493   8.997   0.930 -0.7975 -2.8193 -1.4194
   87MOL0     H11467   1.251   8.986   0.857  1.3935 -3.6959 -0.2679
   87MOL0     H11468   0.843   9.058   1.026  2.2609  0.9720 -1.5388
   87MOL0     H11469   0.601   9.027   0.964  0.5131  1.2823  2.0332
   87MOL0     H11470   1.294  10.021   1.437  1.2733 -0.6721  0.6928
   87MOL0     H11471   1.511  10.099   1.434  1.4400  1.2223  0.0035
   87MOL0     H11472   1.941  10.023   1.766  1.9386 -1.0517  1.6242
   87MOL0     H11473   2.148  10.089   1.829 -1.4842 -1.2449  2.0509
   87MOL0     H11474   2.148  10.320   2.072 -1.3786  1.3437  0.3006
   87MOL0     H11475   2.150  10.482   2.023  2.0868  1.2803 -3.1520
   87MOL0     H11476   2.401  10.479   2.018  1.5199 -0.9896  0.7336
   87MOL0     H11477   2.327  10.456   2.177  0.5778  0.2136 -0.2496
   87MOL0     H11478   2.408  10.221   1.990  1.3954  2.6293 -1.0367
   87MOL0     H11479   2.360  10.205   2.163 -0.8730 -1.3317 -0.6494
   87MOL0     H11480   2.612  10.193   2.133 -1.2055  1.0389 -1.3131
   87MOL0     H11481   2.603  10.343   2.033 -0.2439 -0.1080 -0.9060
   87MOL0     H11482   2.618  10.476   2.437  1.2483 -0.6381 -0.6193
   87MOL0     H11483   2.022  10.499   1.798 -1.1891 -0.3235  0.0795
   87MOL0     H11484   1.803  10.440   1.718  0.9066  0.6513 -2.4574
   88MOL0     O11485   6.773   9.608  10.047 -0.3423 -0.2613  0.2382
   88MOL0     C11486   6.841   9.699   9.993  0.0857 -0.6061  0.4694
   88MOL0     O11487   6.792   9.820   9.943 -0.6173 -0.5325 -0.2577
   88MOL0     C11488   6.662   9.838   9.972  0.3335 -0.3316  0.2968
   88MOL0     C11489   6.565   9.806   9.872 -0.3167  0.7496  0.6709
   88MOL0     C11490   6.434   9.804   9.909  0.3122 -0.0850 -0.0138
   88MOL0     C11491   6.390   9.851  10.030 -0.2490 -0.1440  0.6196
   88MOL0     O11492   6.258   9.857  10.058 -0.4363  0.6768 -0.7001
   88MOL0     C11493   6.159   9.909   9.972 -0.5924 -0.3163 -0.0478
   88MOL0     C11494   6.021   9.869  10.020  0.1608  0.2417  1.1780
   88MOL0     C11495   5.910   9.941   9.940 -0.1417 -0.1622  0.5265
   88MOL0     C11496   5.774   9.891   9.979 -1.3155  0.7942  0.3498
   88MOL0     C11497   5.658   9.962   9.895  0.3613 -0.1388  0.5315
   88MOL0     C11498   5.668   9.957   9.740  0.5408  0.3949  0.7262
   88MOL0     C11499   5.632   9.809   9.691 -0.9918  0.3697 -0.4083
   88MOL0     C11500   5.645   9.786   9.540 -0.4175 -0.2451  0.6575
   88MOL0     N11501   5.678   9.649   9.489  1.2462 -0.0930  0.0130
   88MOL0     C11502   5.615   9.543   9.545  0.1038 -1.0540 -0.1233
   88MOL0     C11503   5.666   9.439   9.480 -0.7526  0.0515 -0.9781
   88MOL0     C11504   5.625   9.296   9.504 -0.8083 -1.0662 -0.2193
   88MOL0     C11505   5.665   9.218   9.376  0.4632 -0.2283 -0.4986
   88MOL0     C11506   5.644   9.069   9.400 -0.0575 -0.1666 -0.3093
   88MOL0     C11507   5.661   8.986   9.270 -0.5980  0.7410  0.0279
   88MOL0     O11508   5.540   8.989   9.192  0.3264 -0.1815 -0.5158
   88MOL0     C11509   5.453   8.890   9.199  0.2948  0.5091  1.0226
   88MOL0     C11510   5.441   8.792   9.300 -0.1427  0.8768 -0.5636
   88MOL0     C11511   5.335   8.701   9.311  0.3598 -0.2123  0.4812
   88MOL0     C11512   5.239   8.686   9.208 -0.1341  0.0411 -0.2709
   88MOL0     C11513   5.134   8.582   9.221 -0.2204 -0.4685  0.6294
   88MOL0     O11514   5.138   8.499   9.321  0.6981 -0.4609  0.2474
   88MOL0     C11515   5.049   8.396   9.332 -0.0885  0.6165  0.3792
   88MOL0     C11516   5.023   8.303   9.229  0.1425 -0.0117 -0.4924
   88MOL0     C11517   4.930   8.194   9.251 -1.1564 -0.3814 -0.0220
   88MOL0     C11518   4.866   8.179   9.369  0.5636 -0.5375  0.2194
   88MOL0     O11519   4.776   8.076   9.374 -0.4933 -0.1737 -0.0440
   88MOL0     C11520   4.713   8.041   9.497  0.6011  0.5801 -0.7273
   88MOL0     C11521   4.632   7.913   9.486  0.4172  0.4227 -0.3134
   88MOL0     C11522   4.523   7.903   9.589 -1.0564 -0.0196 -0.3779
   88MOL0     C11523   4.441   7.776   9.584 -1.2143  1.1613 -0.0608
   88MOL0     C11524   4.339   7.774   9.694 -0.1111  0.2839 -0.0450
   88MOL0     C11525   4.243   7.650   9.722  0.5432  0.5469  0.3024
   88MOL0     C11526   4.138   7.678   9.826 -0.4949 -0.4370  0.2135
   88MOL0     C11527   4.187   7.696   9.966  0.4728 -0.1099  0.1630
   88MOL0    Cl11528   4.056   7.761  10.063  0.3121 -0.3998 -0.0312
   88MOL0     C11529   4.894   8.262   9.472 -0.5823  0.2588 -0.1505
   88MOL0     C11530   4.982   8.373   9.458 -0.1576 -0.5293  0.4663
   88MOL0     O11531   5.058   8.576   9.128 -0.1629  0.4857  0.4211
   88MOL0     C11532   5.249   8.778   9.096  0.1551  0.4934 -0.1736
   88MOL0     C11533   5.347   8.881   9.098 -0.3072  0.1980 -0.5132
   88MOL0     N11534   5.770   9.482   9.397 -0.5935  0.9475 -0.5498
   88MOL0     N11535   5.775   9.609   9.403 -0.3283  0.1924 -0.1657
   88MOL0     C11536   6.483   9.878  10.128  0.7150 -0.5712 -0.1023
   88MOL0     C11537   6.625   9.872  10.109  0.6801 -0.8015  0.2586
   88MOL0     C11538   6.990   9.683   9.987 -0.5392 -0.0682  0.0864
   88MOL0     C11539   7.063   9.581  10.047  0.6775 -0.7946 -0.1418
   88MOL0     C11540   7.204   9.591  10.057  0.5620 -0.4992 -0.7307
   88MOL0     C11541   7.280   9.694   9.992  0.0437  0.5770 -0.0631
   88MOL0     O11542   7.417   9.700  10.003 -0.4488 -0.5664  0.3162
   88MOL0     C11543   7.500   9.791   9.928 -0.3673 -0.1577  0.2616
   88MOL0     C11544   7.646   9.786   9.970  0.2281  1.6148 -0.1442
   88MOL0     C11545   7.714   9.656   9.938  0.5424  0.1220  1.2108
   88MOL0     C11546   7.789   9.577  10.049  0.1194  0.6620  0.2639
   88MOL0     C11547   7.883   9.677  10.089 -0.2815  0.3070  0.2590
   88MOL0     C11548   7.955   9.753  10.149  0.5497 -0.3697 -1.1283
   88MOL0     C11549   7.206   9.782   9.915  0.4405 -0.7638  0.5762
   88MOL0     C11550   7.065   9.783   9.920 -0.4156  1.2304  0.2009
   88MOL0     H11551   6.596   9.777   9.772  2.2964  2.3638  0.9300
   88MOL0     H11552   6.355   9.789   9.836 -0.8041  0.0361  1.1388
   88MOL0     H11553   6.172   9.884   9.866  1.9369 -0.0006  0.1236
   88MOL0     H11554   6.151  10.017   9.986  1.5033 -0.2875  1.3768
   88MOL0     H11555   6.017   9.887  10.128  3.9840 -1.7888  1.8389
   88MOL0     H11556   6.031   9.761  10.007 -2.2504  0.1870 -1.1420
   88MOL0     H11557   5.921   9.923   9.833 -1.4362  1.0860  0.1629
   88MOL0     H11558   5.919  10.047   9.963  1.6580  0.0396 -0.8823
   88MOL0     H11559   5.772   9.782   9.975  2.1347  0.6212 -4.2126
   88MOL0     H11560   5.765   9.917  10.085  2.9301  2.2617  0.5348
   88MOL0     H11561   5.674  10.069   9.912  0.2800  0.1316 -0.9842
   88MOL0     H11562   5.559   9.936   9.934 -0.1943  0.9573 -0.1204
   88MOL0     H11563   5.764   9.971   9.690 -0.1729 -1.4586 -1.3601
   88MOL0     H11564   5.594  10.032   9.712 -1.5141 -0.9052  2.3367
   88MOL0     H11565   5.697   9.735   9.740 -3.5829 -0.3537  2.2948
   88MOL0     H11566   5.527   9.782   9.707 -1.0700 -0.3735 -1.9780
   88MOL0     H11567   5.719   9.849   9.490 -1.2361 -0.7572 -1.3261
   88MOL0     H11568   5.548   9.811   9.496 -1.7057  0.9449  3.8885
   88MOL0     H11569   5.541   9.538   9.625 -0.1003 -1.6829 -0.3411
   88MOL0     H11570   5.520   9.293   9.537 -0.9993 -0.4590 -0.7430
   88MOL0     H11571   5.682   9.254   9.588 -0.5975 -0.0867  0.1404
   88MOL0     H11572   5.773   9.226   9.360  0.1496  2.9691 -1.8374
   88MOL0     H11573   5.611   9.256   9.289 -0.1261  2.4870  0.9381
   88MOL0     H11574   5.721   9.030   9.468  0.4471  1.1600 -0.0807
   88MOL0     H11575   5.544   9.045   9.437  0.2753  2.4953  2.8132
   88MOL0     H11576   5.696   8.886   9.298 -1.6489 -0.0558 -1.4077
   88MOL0     H11577   5.749   9.031   9.223  0.2122  0.2166  1.0039
   88MOL0     H11578   5.505   8.784   9.388  3.1003 -3.9214 -2.9142
   88MOL0     H11579   5.319   8.650   9.405 -2.4254  0.6533  0.5671
   88MOL0     H11580   5.071   8.309   9.132 -1.4194 -4.3025 -1.7583
   88MOL0     H11581   4.902   8.124   9.173  0.9407 -0.0289 -1.1857
   88MOL0     H11582   4.647   8.127   9.504  2.1164  1.7412 -0.1346
   88MOL0     H11583   4.781   8.036   9.582 -1.2965 -0.3457  0.8120
   88MOL0     H11584   4.700   7.827   9.488  2.0870  1.5458 -3.2088
   88MOL0     H11585   4.584   7.907   9.387  0.5017 -4.2928 -0.2865
   88MOL0     H11586   4.454   7.986   9.573  2.6342  4.2724  3.0582
   88MOL0     H11587   4.569   7.904   9.688  3.1029 -1.8317 -2.0156
   88MOL0     H11588   4.376   7.777   9.496 -2.5210  2.7941  0.8642
   88MOL0     H11589   4.505   7.687   9.588 -2.0638  0.4728 -1.2476
   88MOL0     H11590   4.267   7.854   9.674  1.1039  1.9358  1.8446
   88MOL0     H11591   4.382   7.808   9.789  1.5052 -0.1535 -0.5904
   88MOL0     H11592   4.317   7.573   9.748  3.1172  3.5186  2.5904
   88MOL0     H11593   4.191   7.635   9.628 -1.5383 -2.3735  1.7664
   88MOL0     H11594   4.080   7.763   9.790  0.2877 -0.9822 -2.5356
   88MOL0     H11595   4.072   7.591   9.819 -0.2612 -0.6172  0.2477
   88MOL0     H11596   4.266   7.771   9.978 -0.7617  0.7587  4.9878
   88MOL0     H11597   4.210   7.596  10.002 -0.4988 -0.3272  0.1994
   88MOL0     H11598   4.831   8.247   9.559  0.6114  1.5680  0.9847
   88MOL0     H11599   5.009   8.441   9.538  1.2720  0.3420 -0.6939
   88MOL0     H11600   5.179   8.774   9.013 -2.2571  1.0489  1.7207
   88MOL0     H11601   5.342   8.956   9.020  1.2285 -0.3524 -1.1826
   88MOL0     H11602   6.447   9.912  10.225  1.1659  1.2959 -0.5538
   88MOL0     H11603   6.706   9.872  10.182  2.0236 -0.7036 -1.1831
   88MOL0     H11604   7.003   9.503  10.093 -1.6196  1.5651  1.1230
   88MOL0     H11605   7.246   9.515  10.124  0.6451 -0.0979 -0.3183
   88MOL0     H11606   7.471   9.893   9.956 -2.9675  0.0922 -2.8142
   88MOL0     H11607   7.481   9.773   9.822 -0.4487 -2.7643  0.6603
   88MOL0     H11608   7.703   9.861   9.913  1.7214 -1.0143 -2.3356
   88MOL0     H11609   7.654   9.805  10.078 -3.1474 -2.2947  1.0509
   88MOL0     H11610   7.778   9.670   9.851 -2.3255  2.3638 -0.7136
   88MOL0     H11611   7.639   9.582   9.908  1.2019 -0.0271 -0.1524
   88MOL0     H11612   7.737   9.550  10.141  1.2635  0.6630  0.9244
   88MOL0     H11613   7.836   9.498   9.991 -1.4665 -0.4655  0.4280
   88MOL0     H11614   8.016   9.826  10.198 -3.3145  3.8326 -1.9017
   88MOL0     H11615   7.258   9.864   9.867  0.0310 -2.2346 -2.5897
   88MOL0     H11616   7.015   9.858   9.859 -1.7262  2.1208  2.2748
   89MOL0     O11617   7.996   0.698   1.260 -0.7828  0.5289 -0.3590
   89MOL0     C11618   8.026   0.648   1.368 -0.4030 -1.2286  0.0900
   89MOL0     O11619   7.963   0.551   1.435 -0.0398  0.1113  0.4535
   89MOL0     C11620   7.850   0.509   1.375 -1.1743  0.5215 -0.0653
   89MOL0     C11621   7.845   0.420   1.267  0.2205  0.5106  0.2149
   89MOL0     C11622   7.727   0.380   1.214  0.3108  0.4765 -0.0452
   89MOL0     C11623   7.613   0.437   1.272  0.2695  1.3539 -0.1758
   89MOL0     O11624   7.499   0.382   1.218  0.0870 -0.2214 -0.5024
   89MOL0     C11625   7.396   0.361   1.314  1.0511 -0.0199  0.1163
   89MOL0     C11626   7.278   0.289   1.235 -0.0852 -0.9244  0.6158
   89MOL0     C11627   7.173   0.241   1.326  0.1296  0.4938  0.8180
   89MOL0     C11628   7.089   0.345   1.404 -0.4045  0.9916 -0.4785
   89MOL0     C11629   6.948   0.291   1.430  0.5011  0.1372  0.4043
   89MOL0     C11630   6.865   0.399   1.501 -0.2930  0.0553 -0.7935
   89MOL0     C11631   6.723   0.361   1.535  0.0714 -0.6178 -0.3382
   89MOL0     C11632   6.641   0.482   1.591 -0.3521  0.2600  0.4448
   89MOL0     N11633   6.514   0.429   1.630 -0.5073  0.5250 -0.5514
   89MOL0     C11634   6.445   0.470   1.746 -0.6045  0.1625 -0.0274
   89MOL0     C11635   6.319   0.423   1.729  0.2914  0.0362 -0.0156
   89MOL0     C11636   6.209   0.428   1.831  0.1039  0.3518 -0.7833
   89MOL0     C11637   6.086   0.500   1.775 -0.2605 -0.9459  0.0741
   89MOL0     C11638   5.970   0.529   1.878  0.0431 -0.2977 -0.6192
   89MOL0     C11639   6.016   0.587   2.004 -1.0879 -0.5036  0.5552
   89MOL0     O11640   6.065   0.491   2.097  0.5962  1.3200 -0.1802
   89MOL0     C11641   5.971   0.420   2.171  0.8532 -0.0984 -0.4004
   89MOL0     C11642   6.020   0.318   2.251 -0.5153  0.6493 -0.6491
   89MOL0     C11643   5.937   0.248   2.342 -0.8063 -1.0569  0.0377
   89MOL0     C11644   5.793   0.258   2.334 -0.4321  0.1243 -0.1121
   89MOL0     C11645   5.705   0.173   2.418 -0.4239 -0.5477 -0.1522
   89MOL0     O11646   5.574   0.194   2.389 -0.0316  0.2096 -0.0355
   89MOL0     C11647   5.487   0.122   2.471 -0.1921 -0.3111 -0.1344
   89MOL0     C11648   5.484  -0.016   2.496 -0.1738 -0.7342 -0.6245
   89MOL0     C11649   5.371  -0.072   2.558 -0.2635  0.2002  0.5369
   89MOL0     C11650   5.263   0.006   2.604 -0.1257 -0.5980  0.9362
   89MOL0     O11651   5.154  -0.055   2.665  0.3825 -0.4444 -0.0653
   89MOL0     C11652   5.054   0.015   2.740  1.0943  0.5533 -0.5331
   89MOL0     C11653   4.932  -0.083   2.775  0.1571 -0.7343 -0.3522
   89MOL0     C11654   4.845  -0.128   2.665  0.0441 -0.1544 -0.4770
   89MOL0     C11655   4.748  -0.230   2.718  0.5497  0.3009 -0.3602
   89MOL0     C11656   4.638  -0.171   2.806 -0.2466 -0.1311  0.0820
   89MOL0     C11657   4.558  -0.050   2.747  0.0994 -0.6303 -0.1679
   89MOL0     C11658   4.503  -0.078   2.610  1.7132 -0.3367  0.8904
   89MOL0     C11659   4.456   0.044   2.525 -0.5935 -0.1054 -0.0551
   89MOL0    Cl11660   4.342   0.147   2.611  0.2792  0.0989 -0.0496
   89MOL0     C11661   5.283   0.150   2.604  0.7132  0.0484  0.8394
   89MOL0     C11662   5.383   0.202   2.525 -0.3008  0.7809  0.4088
   89MOL0     O11663   5.749   0.108   2.502  0.2863  0.6005 -0.1469
   89MOL0     C11664   5.744   0.360   2.241 -1.3491  1.2501  0.0627
   89MOL0     C11665   5.830   0.440   2.171  0.2497  0.3225  0.1048
   89MOL0     N11666   6.315   0.371   1.602 -0.0959  0.3629 -0.4029
   89MOL0     N11667   6.431   0.368   1.547  0.7635 -0.1199  0.8194
   89MOL0     C11668   7.618   0.532   1.373 -0.1041 -0.3429 -0.3324
   89MOL0     C11669   7.740   0.567   1.426 -0.2556 -0.3885 -0.4322
   89MOL0     C11670   8.141   0.713   1.444 -0.1388 -0.4415  0.2780
   89MOL0     C11671   8.195   0.652   1.554  0.0229 -0.4053 -0.7409
   89MOL0     C11672   8.290   0.711   1.628  0.5039 -0.4665 -0.3622
   89MOL0     C11673   8.350   0.835   1.588  0.7119  0.0140  0.1297
   89MOL0     O11674   8.442   0.894   1.661  0.0987  0.9567 -0.5457
   89MOL0     C11675   8.580   0.878   1.622 -0.0533  0.4694 -0.6067
   89MOL0     C11676   8.629   0.990   1.530 -0.3595  0.0575 -0.3736
   89MOL0     C11677   8.760   0.955   1.447  0.7754 -0.0504 -0.0390
   89MOL0     C11678   8.734   0.842   1.337 -0.2554 -0.0785  0.7724
   89MOL0     C11679   8.866   0.830   1.270 -0.2393  0.9127  0.3500
   89MOL0     C11680   8.964   0.820   1.205 -0.0218 -0.4284  1.3008
   89MOL0     C11681   8.303   0.883   1.467  0.2271 -0.6106 -0.7861
   89MOL0     C11682   8.199   0.832   1.394 -0.5606  0.0542 -0.2725
   89MOL0     H11683   7.942   0.390   1.228 -2.0067 -2.6741 -3.5822
   89MOL0     H11684   7.738   0.307   1.135 -0.3383 -1.6479  1.7235
   89MOL0     H11685   7.362   0.456   1.355 -1.3775 -1.7363  2.4447
   89MOL0     H11686   7.431   0.293   1.393 -0.4319 -1.2524 -0.2395
   89MOL0     H11687   7.309   0.201   1.177 -2.4834 -1.1039 -0.5481
   89MOL0     H11688   7.225   0.369   1.183 -0.6704  1.0309  3.9467
   89MOL0     H11689   7.210   0.162   1.393  1.0759 -0.5955 -0.9160
   89MOL0     H11690   7.092   0.204   1.263 -1.2739  0.5834  2.5011
   89MOL0     H11691   7.144   0.367   1.496 -0.3033 -2.8981  0.5548
   89MOL0     H11692   7.085   0.441   1.351 -1.0136  0.3505 -1.6342
   89MOL0     H11693   6.967   0.193   1.477  1.2622 -0.0269 -0.2117
   89MOL0     H11694   6.906   0.270   1.332  2.1256 -0.3938 -0.2150
   89MOL0     H11695   6.854   0.492   1.444 -1.0022  0.9077  0.6816
   89MOL0     H11696   6.915   0.436   1.591 -1.8511  3.9614 -1.3301
   89MOL0     H11697   6.671   0.318   1.448 -1.3030  0.9823 -0.3621
   89MOL0     H11698   6.721   0.290   1.618 -0.2100  0.4100  0.5525
   89MOL0     H11699   6.629   0.556   1.511 -1.6092  0.1956  0.5520
   89MOL0     H11700   6.698   0.520   1.677  1.4374 -1.6797  0.1977
   89MOL0     H11701   6.495   0.509   1.834  1.3561 -3.3979  0.6499
   89MOL0     H11702   6.243   0.458   1.931 -0.8307  1.4938 -0.7869
   89MOL0     H11703   6.173   0.331   1.864  2.6608 -0.0957  1.0235
   89MOL0     H11704   6.046   0.444   1.690 -0.3554 -1.9206  0.7510
   89MOL0     H11705   6.121   0.597   1.738  5.7438 -1.8474  2.2068
   89MOL0     H11706   5.908   0.602   1.825  2.6318  0.6737 -2.5276
   89MOL0     H11707   5.912   0.437   1.892 -2.1551  1.2630  1.5111
   89MOL0     H11708   5.938   0.649   2.048 -0.6505 -0.4290  1.2410
   89MOL0     H11709   6.086   0.667   1.979 -3.1491  0.1763 -4.0370
   89MOL0     H11710   6.126   0.296   2.242 -0.1635  2.5463 -1.6945
   89MOL0     H11711   5.967   0.173   2.415  0.1518 -0.8077 -0.0917
   89MOL0     H11712   5.561  -0.088   2.472  0.3580 -1.1027  1.8681
   89MOL0     H11713   5.359  -0.179   2.554  1.1367  0.0715 -1.0449
   89MOL0     H11714   5.008   0.101   2.690  1.0479 -0.1060 -1.6676
   89MOL0     H11715   5.097   0.048   2.835 -0.4020 -1.8903  1.1063
   89MOL0     H11716   4.867  -0.038   2.850 -0.0245 -1.2586 -0.1923
   89MOL0     H11717   4.984  -0.171   2.814  0.9781 -0.3352 -0.5102
   89MOL0     H11718   4.915  -0.175   2.595  0.3902  0.0686 -0.2832
   89MOL0     H11719   4.782  -0.056   2.612 -4.9421 -4.0175 -0.5344
   89MOL0     H11720   4.698  -0.281   2.636 -0.5733  2.6041 -1.2115
   89MOL0     H11721   4.798  -0.304   2.781 -2.1992  0.2489  1.9905
   89MOL0     H11722   4.684  -0.137   2.900 -0.7752  0.4169  0.1465
   89MOL0     H11723   4.566  -0.251   2.825 -2.7165  2.0526  0.4872
   89MOL0     H11724   4.618   0.040   2.731  2.7774 -2.4256 -0.9836
   89MOL0     H11725   4.479  -0.032   2.820 -0.8665 -3.6306 -0.3152
   89MOL0     H11726   4.563  -0.134   2.539 -0.6725  0.2264 -1.7596
   89MOL0     H11727   4.415  -0.139   2.634  0.6316  1.2216  1.0215
   89MOL0     H11728   4.411   0.008   2.431 -1.4773  1.4792 -0.2751
   89MOL0     H11729   4.547   0.099   2.498 -2.2117  1.3868 -3.0175
   89MOL0     H11730   5.217   0.227   2.642  0.8588  0.4597  0.2779
   89MOL0     H11731   5.363   0.307   2.504 -2.7095  0.2299 -0.3670
   89MOL0     H11732   5.637   0.371   2.227 -2.2624 -0.9678  3.7562
   89MOL0     H11733   5.785   0.527   2.125  0.4436  0.8014  0.8093
   89MOL0     H11734   7.527   0.585   1.403 -0.8514  1.5704 -5.0569
   89MOL0     H11735   7.753   0.634   1.510  2.2796 -2.3419  0.8965
   89MOL0     H11736   8.169   0.549   1.579 -1.0693 -0.3254 -1.4602
   89MOL0     H11737   8.321   0.646   1.710  1.2734 -0.5940 -0.7468
   89MOL0     H11738   8.590   0.781   1.572 -2.5371 -0.2554  0.1454
   89MOL0     H11739   8.650   0.870   1.706 -1.4916  0.2783  0.6082
   89MOL0     H11740   8.561   1.022   1.451 -1.1376  1.1864  0.7063
   89MOL0     H11741   8.652   1.080   1.589 -0.3235  0.4789 -1.0183
   89MOL0     H11742   8.837   0.909   1.509 -0.6179 -3.3461 -0.5409
   89MOL0     H11743   8.802   1.048   1.407 -1.3461  0.8570 -0.3012
   89MOL0     H11744   8.711   0.746   1.383  2.7719 -2.4112 -2.1408
   89MOL0     H11745   8.654   0.875   1.270 -1.0694  1.9633  2.6060
   89MOL0     H11746   9.065   0.811   1.169 -0.5535  1.9119 -1.1294
   89MOL0     H11747   8.348   0.978   1.437  0.9415 -0.1363  1.5325
   89MOL0     H11748   8.163   0.893   1.312 -1.3914  1.3500  1.0069
   90MOL0     O11749   2.700   9.455  10.901 -0.3652  0.4506  0.3661
   90MOL0     C11750   2.799   9.501  10.844 -0.4715 -0.5278  0.1390
   90MOL0     O11751   2.812   9.633  10.800 -0.2910  0.5687 -0.6966
   90MOL0     C11752   2.708   9.720  10.790 -0.6269  0.6722  0.0331
   90MOL0     C11753   2.661   9.756  10.665 -0.0999 -0.0537  0.1485
   90MOL0     C11754   2.544   9.824  10.645 -0.8643 -1.1199  0.8957
   90MOL0     C11755   2.471   9.873  10.748 -0.0633  0.0832 -0.2889
   90MOL0     O11756   2.364   9.954  10.726 -0.5802  0.2713 -0.0176
   90MOL0     C11757   2.239   9.913  10.793 -0.5380  0.1565 -0.2171
   90MOL0     C11758   2.127   9.999  10.738  0.8011  0.6955 -0.1636
   90MOL0     C11759   1.990   9.925  10.760 -0.3166 -0.0879  1.0785
   90MOL0     C11760   1.865   9.992  10.707  0.3312 -0.1799 -0.8653
   90MOL0     C11761   1.752   9.898  10.673  0.5899 -0.4919 -0.2992
   90MOL0     C11762   1.620   9.983  10.644  0.1726 -0.4029 -0.6615
   90MOL0     C11763   1.506   9.907  10.578 -0.4510  0.0774 -0.4065
   90MOL0     C11764   1.412   9.838  10.677 -0.0060  0.9220 -0.2778
   90MOL0     N11765   1.271   9.836  10.621 -0.7908 -0.2494 -0.3646
   90MOL0     C11766   1.187   9.939  10.629 -0.2864 -1.1678  0.1483
   90MOL0     C11767   1.080   9.904  10.567  0.3270 -0.4753 -1.1558
   90MOL0     C11768   0.949   9.981  10.549  0.2865  0.2983 -0.4036
   90MOL0     C11769   0.919   9.998  10.403 -0.1550 -1.4893  0.7007
   90MOL0     C11770   1.034  10.066  10.329  0.5820  1.3061  0.3062
   90MOL0     C11771   1.005  10.108  10.188  0.2196  0.5706  0.6099
   90MOL0     O11772   0.891  10.196  10.188 -0.5658  0.8083 -0.4986
   90MOL0     C11773   0.775  10.142  10.133 -0.1116  0.2324  0.6612
   90MOL0     C11774   0.754  10.008  10.101 -0.7622  0.8996  0.3222
   90MOL0     C11775   0.629   9.980  10.034 -0.6364  0.1945 -0.2187
   90MOL0     C11776   0.533  10.074   9.999 -0.1342  0.0524  0.2152
   90MOL0     C11777   0.422  10.032   9.912 -0.2446 -0.0708 -0.4500
   90MOL0     O11778   0.431   9.910   9.844 -0.3558  0.0831 -1.2872
   90MOL0     C11779   0.326   9.856   9.778  0.5076 -0.0198 -0.4921
   90MOL0     C11780   0.267   9.745   9.831 -0.4819  0.2417  0.0982
   90MOL0     C11781   0.162   9.685   9.760 -0.0177  0.6544  0.4871
   90MOL0     C11782   0.122   9.728   9.630 -0.2829 -0.1914 -0.3175
   90MOL0     O11783   0.017   9.681   9.564 -0.0858 -0.1977  0.2340
   90MOL0     C11784  -0.000   9.709   9.424 -0.0381 -0.6204  0.3802
   90MOL0     C11785  -0.121   9.626   9.384  0.0289  0.1308 -0.2510
   90MOL0     C11786  -0.255   9.662   9.433 -0.0180  1.1855  0.3066
   90MOL0     C11787  -0.364   9.556   9.381  0.0961 -0.2976  0.6786
   90MOL0     C11788  -0.361   9.549   9.224 -0.4479 -0.2794 -0.5477
   90MOL0     C11789  -0.453   9.451   9.148 -0.1833 -0.7091  0.3314
   90MOL0     C11790  -0.597   9.474   9.210 -0.2583 -0.0599  0.3822
   90MOL0     C11791  -0.701   9.403   9.126  0.8774 -0.2848  0.3169
   90MOL0    Cl11792  -0.864   9.382   9.204  0.1956  0.1594 -0.3373
   90MOL0     C11793   0.185   9.846   9.587 -0.2581 -0.3276  0.8287
   90MOL0     C11794   0.285   9.912   9.658  0.3409 -0.0969  0.3315
   90MOL0     O11795   0.325  10.107   9.910  0.0220 -0.6630  0.6912
   90MOL0     C11796   0.556  10.208  10.059 -0.5264 -0.5285 -0.6005
   90MOL0     C11797   0.680  10.239  10.120  0.4826 -1.3102 -0.1920
   90MOL0     N11798   1.114   9.785  10.510  0.7169  0.0699 -0.5152
   90MOL0     N11799   1.221   9.736  10.556  0.0187  0.2714  0.3919
   90MOL0     C11800   2.528   9.840  10.877  0.6605 -0.8849 -0.1089
   90MOL0     C11801   2.642   9.767  10.902  0.2067 -0.6035  0.2925
   90MOL0     C11802   2.901   9.407  10.796 -0.2748 -0.0592 -0.0708
   90MOL0     C11803   3.030   9.456  10.760 -0.2037 -0.2579 -0.2186
   90MOL0     C11804   3.134   9.374  10.724 -0.6525 -0.2573 -0.0095
   90MOL0     C11805   3.118   9.237  10.730 -0.0759 -0.6882  0.3412
   90MOL0     O11806   3.224   9.164  10.681  0.2591 -0.2444 -0.1047
   90MOL0     C11807   3.229   9.024  10.713  0.4052  0.1752  0.1692
   90MOL0     C11808   3.365   8.965  10.669 -0.7635 -0.5330 -0.5516
   90MOL0     C11809   3.471   8.985  10.771  0.7017  0.4058  0.4238
   90MOL0     C11810   3.614   8.965  10.735 -0.0184  0.3362 -0.1785
   90MOL0     C11811   3.645   9.066  10.636 -0.3295 -0.0199  0.0353
   90MOL0     C11812   3.684   9.135  10.551  0.7220 -0.1136  0.1307
   90MOL0     C11813   2.996   9.185  10.777  0.7030  0.3306 -0.4238
   90MOL0     C11814   2.888   9.269  10.817  0.7149 -0.0605 -0.8577
   90MOL0     H11815   2.715   9.718  10.579 -2.1245  0.2247 -1.3045
   90MOL0     H11816   2.499   9.849  10.549 -3.1760  0.4780  2.2914
   90MOL0     H11817   2.252   9.938  10.899 -1.4414  0.7441 -0.2363
   90MOL0     H11818   2.218   9.807  10.774  0.8329 -0.2147  0.1622
   90MOL0     H11819   2.143   9.998  10.630 -2.9509 -2.3000 -0.9134
   90MOL0     H11820   2.125  10.103  10.770 -2.3662  0.5525  0.3952
   90MOL0     H11821   1.960   9.897  10.861 -1.8469 -3.8380 -0.2385
   90MOL0     H11822   1.995   9.826  10.714 -2.6152 -1.2052  3.0734
   90MOL0     H11823   1.828  10.050  10.792  1.3952  0.7987 -1.0328
   90MOL0     H11824   1.876  10.066  10.627 -3.5044  1.5457 -0.0152
   90MOL0     H11825   1.733   9.834  10.760  0.7042 -0.0345  0.0725
   90MOL0     H11826   1.778   9.834  10.589  1.1554 -0.6699  0.0036
   90MOL0     H11827   1.644  10.068  10.580 -1.9003  0.6391 -0.1619
   90MOL0     H11828   1.586  10.027  10.738  0.9175 -1.0344 -0.0845
   90MOL0     H11829   1.447   9.980  10.521  0.1608  1.4727  0.6888
   90MOL0     H11830   1.562   9.842  10.511 -2.2943 -1.4093 -0.5869
   90MOL0     H11831   1.413   9.892  10.772  2.5500 -1.9654  1.5235
   90MOL0     H11832   1.450   9.736  10.686 -0.1694  0.9329  0.6587
   90MOL0     H11833   1.189  10.030  10.687 -4.0376 -2.5680  2.8675
   90MOL0     H11834   0.947  10.077  10.600  2.8058  0.0734  0.2337
   90MOL0     H11835   0.872   9.920  10.597  2.6018 -0.2919  2.8989
   90MOL0     H11836   0.830  10.061  10.389 -0.7890 -2.1604  1.6435
   90MOL0     H11837   0.894   9.902  10.356 -3.5052 -2.0624  3.2625
   90MOL0     H11838   1.055  10.158  10.384 -0.7793  0.6478  2.0203
   90MOL0     H11839   1.102   9.979  10.329 -3.6179 -2.3867  1.8444
   90MOL0     H11840   1.002  10.025  10.116  3.0901 -2.1697  3.3549
   90MOL0     H11841   1.090  10.167  10.152  0.7693 -0.3292  0.4078
   90MOL0     H11842   0.823   9.928  10.125 -1.4835 -0.0085 -0.5799
   90MOL0     H11843   0.636   9.877   9.998  3.3160  0.0345  0.5790
   90MOL0     H11844   0.281   9.724   9.936 -2.0698  1.6005  0.6267
   90MOL0     H11845   0.114   9.597   9.801  1.7011 -0.0716  1.0458
   90MOL0     H11846   0.081   9.679   9.357 -0.7311 -1.9920  0.1141
   90MOL0     H11847  -0.026   9.815   9.416  0.1451 -0.4296  1.9876
   90MOL0     H11848  -0.099   9.524   9.417  0.5503 -0.6980 -2.9122
   90MOL0     H11849  -0.125   9.642   9.276 -0.3324  0.4044 -0.1989
   90MOL0     H11850  -0.284   9.752   9.378 -1.1479  0.3683 -0.4901
   90MOL0     H11851  -0.261   9.662   9.542 -0.2538 -1.7481  0.3773
   90MOL0     H11852  -0.323   9.465   9.426  3.0305  0.3175 -0.4910
   90MOL0     H11853  -0.471   9.568   9.399 -0.7436 -0.4558 -3.2798
   90MOL0     H11854  -0.260   9.526   9.190  0.3313 -3.2124  3.0897
   90MOL0     H11855  -0.385   9.651   9.193  1.0520  0.3284  0.2284
   90MOL0     H11856  -0.419   9.348   9.162 -0.1299 -0.3920  3.0183
   90MOL0     H11857  -0.447   9.464   9.039  0.8869 -3.0382  0.0419
   90MOL0     H11858  -0.609   9.432   9.310  0.1293  1.9356  1.3273
   90MOL0     H11859  -0.615   9.582   9.221 -0.6238  0.1245 -1.7042
   90MOL0     H11860  -0.660   9.302   9.114 -2.7232 -1.9394  0.5672
   90MOL0     H11861  -0.709   9.463   9.035  3.2886  0.6321  0.6375
   90MOL0     H11862   0.168   9.894   9.491 -0.2047  0.2283  1.0945
   90MOL0     H11863   0.329   9.999   9.611  1.2440 -1.3801 -1.2973
   90MOL0     H11864   0.486  10.290  10.044 -0.1494 -0.2809 -1.0354
   90MOL0     H11865   0.709  10.337  10.158  0.1905 -1.7968  1.3766
   90MOL0     H11866   2.470   9.882  10.959 -1.7228 -0.3298 -1.9552
   90MOL0     H11867   2.671   9.750  11.005 -0.0305  0.9227  0.6355
   90MOL0     H11868   3.065   9.558  10.746  0.3699 -0.4182 -0.0037
   90MOL0     H11869   3.225   9.415  10.682 -0.2822 -3.0119 -2.1550
   90MOL0     H11870   3.155   8.967  10.656  1.2783 -2.6650  1.6721
   90MOL0     H11871   3.203   9.003  10.817  1.1969  2.2007  0.8209
   90MOL0     H11872   3.362   8.858  10.647 -4.0646 -0.8349  0.7896
   90MOL0     H11873   3.396   9.005  10.572  0.6307 -2.8230 -1.1279
   90MOL0     H11874   3.450   8.907  10.845 -0.1846 -1.9955 -2.2182
   90MOL0     H11875   3.452   9.079  10.825 -3.6485  0.5244 -0.9059
   90MOL0     H11876   3.665   8.979  10.831 -3.1635 -0.4292  1.7528
   90MOL0     H11877   3.629   8.866  10.692  0.4087 -0.1650  1.0912
   90MOL0     H11878   3.709   9.207  10.476 -0.9382  0.7833  0.3942
   90MOL0     H11879   2.989   9.077  10.771 -1.8654  0.4983 -1.2842
   90MOL0     H11880   2.791   9.235  10.853  1.3872  0.6533  1.8902
   91MOL0     O11881   3.379   5.729   1.590 -1.0242  0.0832  0.1123
   91MOL0     C11882   3.317   5.658   1.666 -1.1006  0.0035 -0.5491
   91MOL0     O11883   3.227   5.564   1.631 -0.9717  0.7933 -0.2417
   91MOL0     C11884   3.215   5.531   1.498  0.2622  0.6370 -0.5530
   91MOL0     C11885   3.312   5.450   1.435 -0.1831 -0.1257  0.3169
   91MOL0     C11886   3.307   5.424   1.294 -0.1548  0.7962 -0.8283
   91MOL0     C11887   3.180   5.438   1.243  0.5197  0.1285  0.4048
   91MOL0     O11888   3.160   5.387   1.119 -0.3205 -0.5300 -0.8070
   91MOL0     C11889   3.046   5.412   1.043 -0.4740  0.6909 -0.3108
   91MOL0     C11890   3.067   5.363   0.896  0.7977  0.2627  0.1380
   91MOL0     C11891   3.188   5.418   0.830 -0.5854 -0.9505  0.6635
   91MOL0     C11892   3.222   5.346   0.699 -0.0990  0.6355 -0.7212
   91MOL0     C11893   3.379   5.364   0.671 -0.2322  0.0032 -1.2818
   91MOL0     C11894   3.433   5.303   0.544 -0.5122  0.9222 -0.3439
   91MOL0     C11895   3.424   5.149   0.551  0.7239  0.8215 -0.4460
   91MOL0     C11896   3.535   5.086   0.467  0.2060 -0.1833 -0.5599
   91MOL0     N11897   3.669   5.141   0.508 -0.9886 -0.1145  0.3140
   91MOL0     C11898   3.767   5.190   0.418 -0.2187 -0.5092 -0.0901
   91MOL0     C11899   3.875   5.208   0.500 -0.6000 -0.0256  0.5362
   91MOL0     C11900   3.994   5.287   0.462 -0.2971 -0.0917 -0.7685
   91MOL0     C11901   4.100   5.300   0.573 -0.6331 -0.0831 -0.0996
   91MOL0     C11902   4.170   5.162   0.610  0.5336 -0.9566  0.1265
   91MOL0     C11903   4.246   5.094   0.489 -0.0431 -0.0354  0.7013
   91MOL0     O11904   4.321   5.187   0.411 -0.1559 -0.5406  0.1926
   91MOL0     C11905   4.429   5.116   0.350 -0.2554  0.0954  1.2297
   91MOL0     C11906   4.439   4.973   0.338 -0.1659 -0.4584 -0.9050
   91MOL0     C11907   4.544   4.923   0.265  0.8032 -0.7841  0.5707
   91MOL0     C11908   4.635   5.005   0.190  0.8591 -0.2703  0.8770
   91MOL0     C11909   4.753   4.966   0.114  0.3190  1.0502  0.9784
   91MOL0     O11910   4.859   5.048   0.127  0.8198  0.3185 -0.2085
   91MOL0     C11911   4.978   5.029   0.063  0.9552 -0.4953  0.9526
   91MOL0     C11912   4.996   4.983  -0.066 -0.2529 -1.0560 -0.2396
   91MOL0     C11913   5.119   4.982  -0.119 -0.6091  0.9673  1.1692
   91MOL0     C11914   5.238   5.024  -0.051 -0.3663  0.0575 -0.7339
   91MOL0     O11915   5.349   5.008  -0.121 -0.1487 -0.2802  0.6997
   91MOL0     C11916   5.466   5.007  -0.044 -0.3204  0.4520 -0.4078
   91MOL0     C11917   5.580   4.968  -0.136  0.6493 -0.0219  2.1048
   91MOL0     C11918   5.713   4.941  -0.054  0.3326  0.4058  0.7722
   91MOL0     C11919   5.823   4.935  -0.145  0.7449 -0.6223 -0.2901
   91MOL0     C11920   5.959   4.906  -0.068 -0.0780 -0.3005 -0.2519
   91MOL0     C11921   6.072   4.897  -0.174  0.5882 -0.5098 -0.5385
   91MOL0     C11922   6.138   5.036  -0.214 -0.3463  0.8918  0.7590
   91MOL0     C11923   6.224   5.026  -0.344  0.1661  0.3927  0.5788
   91MOL0    Cl11924   6.320   5.178  -0.350 -0.2332 -0.0193  0.3494
   91MOL0     C11925   5.222   5.073   0.083  0.1437 -0.3268 -0.4647
   91MOL0     C11926   5.094   5.073   0.137 -0.0757  0.1481 -1.0876
   91MOL0     O11927   4.750   4.851   0.060  0.5207 -0.3948 -0.5382
   91MOL0     C11928   4.615   5.145   0.207 -0.6020 -0.6553 -0.4139
   91MOL0     C11929   4.515   5.199   0.277 -0.6648  0.3523  0.0043
   91MOL0     N11930   3.841   5.167   0.629 -0.4621 -0.4489  0.4299
   91MOL0     N11931   3.721   5.124   0.629  0.5055 -0.1079  0.1260
   91MOL0     C11932   3.074   5.505   1.303  0.4411 -0.4530 -0.6529
   91MOL0     C11933   3.099   5.560   1.432 -0.6375 -0.0777  0.5296
   91MOL0     C11934   3.327   5.686   1.813  0.4220 -0.0552 -1.0476
   91MOL0     C11935   3.425   5.771   1.864 -0.1748 -0.1078  1.5475
   91MOL0     C11936   3.431   5.803   1.995 -0.0428  0.4759 -0.3801
   91MOL0     C11937   3.337   5.755   2.089 -0.2449 -0.7569  0.6415
   91MOL0     O11938   3.326   5.769   2.228 -0.6955  0.6769  0.0556
   91MOL0     C11939   3.420   5.863   2.286  0.4305  0.7319 -0.6886
   91MOL0     C11940   3.401   5.876   2.437  0.4725 -0.1161 -0.2807
   91MOL0     C11941   3.464   5.767   2.521  0.9632 -0.2999 -0.9681
   91MOL0     C11942   3.618   5.777   2.540  0.0684  0.3547  0.4723
   91MOL0     C11943   3.657   5.688   2.649 -0.1306 -0.7739 -0.4750
   91MOL0     C11944   3.681   5.605   2.731  0.8267 -0.8440 -1.2802
   91MOL0     C11945   3.239   5.670   2.040  0.3054 -0.3192  0.4352
   91MOL0     C11946   3.231   5.638   1.906  0.3880  0.5469 -0.5921
   91MOL0     H11947   3.403   5.433   1.492  1.1317  1.6446 -1.0959
   91MOL0     H11948   3.390   5.382   1.240  3.1661  2.7268  2.3377
   91MOL0     H11949   3.013   5.516   1.046  1.3948  1.2915  1.0577
   91MOL0     H11950   2.962   5.348   1.072 -0.5824 -0.0142 -2.0524
   91MOL0     H11951   2.983   5.407   0.840 -1.7869 -2.1321  1.8788
   91MOL0     H11952   3.071   5.254   0.898 -0.6517  0.1878  0.0444
   91MOL0     H11953   3.269   5.394   0.899 -0.4110 -2.7130 -0.1033
   91MOL0     H11954   3.193   5.524   0.803  0.3022 -1.4536 -1.3757
   91MOL0     H11955   3.197   5.240   0.713 -1.6225  1.0180 -0.3344
   91MOL0     H11956   3.155   5.368   0.616  0.0301 -2.6736 -1.8766
   91MOL0     H11957   3.434   5.316   0.752 -0.4122 -1.9581 -2.2541
   91MOL0     H11958   3.399   5.471   0.678 -0.9493  0.0505  0.6229
   91MOL0     H11959   3.536   5.340   0.542  0.2552 -0.5480  3.1273
   91MOL0     H11960   3.394   5.339   0.449 -1.0429  2.1833  0.3266
   91MOL0     H11961   3.457   5.112   0.648  0.9000  1.8843 -0.0943
   91MOL0     H11962   3.325   5.115   0.518  2.4862 -2.3200 -3.1793
   91MOL0     H11963   3.511   5.097   0.361 -2.4938 -0.8647 -0.0905
   91MOL0     H11964   3.526   4.979   0.487  0.5313 -0.4731 -1.9011
   91MOL0     H11965   3.753   5.207   0.312 -2.2493  0.3397  0.2566
   91MOL0     H11966   3.965   5.389   0.436 -1.1824  0.0735  0.7463
   91MOL0     H11967   4.033   5.240   0.372  1.2671  0.4927 -0.4289
   91MOL0     H11968   4.060   5.340   0.666  1.2307  2.1116 -0.1320
   91MOL0     H11969   4.177   5.370   0.540 -0.4478 -0.5616 -0.6957
   91MOL0     H11970   4.249   5.181   0.684  1.1653 -1.3783 -0.4271
   91MOL0     H11971   4.089   5.096   0.642 -2.8297  3.8089  2.6968
   91MOL0     H11972   4.180   5.029   0.432  1.5318 -0.0716 -1.1766
   91MOL0     H11973   4.313   5.024   0.541 -0.7987 -1.2960  0.0028
   91MOL0     H11974   4.374   4.905   0.393 -1.1293  0.3628 -0.9998
   91MOL0     H11975   4.567   4.820   0.241 -2.2948 -1.8059  1.5899
   91MOL0     H11976   4.905   4.956  -0.119 -1.6413  3.8916 -0.9340
   91MOL0     H11977   5.134   4.926  -0.211  2.1397  1.1901  1.3734
   91MOL0     H11978   5.454   4.944   0.045 -2.4903  1.5197  0.1186
   91MOL0     H11979   5.495   5.109  -0.014  3.0271  0.1256 -2.0595
   91MOL0     H11980   5.586   5.047  -0.211 -2.0872 -1.6400 -0.0566
   91MOL0     H11981   5.575   4.879  -0.199  3.0095  0.9959  0.3438
   91MOL0     H11982   5.704   4.847   0.001 -0.5326  0.3417  0.5438
   91MOL0     H11983   5.732   5.020   0.019  1.1961 -0.3883  1.4186
   91MOL0     H11984   5.807   4.862  -0.224 -2.1140 -1.2808  0.7689
   91MOL0     H11985   5.837   5.034  -0.190  1.7760 -0.8352 -0.4566
   91MOL0     H11986   5.965   4.808  -0.020  2.7366  0.0233  0.2235
   91MOL0     H11987   5.974   4.974   0.017 -0.4999 -1.0369  0.4296
   91MOL0     H11988   6.035   4.848  -0.264  0.5503 -0.5047 -0.5262
   91MOL0     H11989   6.149   4.831  -0.133 -0.8801 -2.9125 -1.4592
   91MOL0     H11990   6.066   5.116  -0.231  1.1817  2.9218  2.9793
   91MOL0     H11991   6.200   5.065  -0.128 -0.6133 -2.3662  2.1945
   91MOL0     H11992   6.164   5.016  -0.435  1.5001  0.4083 -0.3328
   91MOL0     H11993   6.292   4.941  -0.334 -1.3261 -1.0797 -1.3144
   91MOL0     H11994   5.311   5.105   0.137 -0.7121  0.9720  0.2361
   91MOL0     H11995   5.078   5.114   0.236 -1.0574 -0.5249 -0.9584
   91MOL0     H11996   4.686   5.211   0.158 -1.2140  1.0605  0.9051
   91MOL0     H11997   4.514   5.306   0.259  2.2519  0.6008  0.8825
   91MOL0     H11998   2.976   5.514   1.258  1.0836 -2.8861 -2.8044
   91MOL0     H11999   3.027   5.619   1.489 -0.1516  0.5317  0.5217
   91MOL0     H12000   3.484   5.823   1.789 -3.2362 -2.1835 -2.8154
   91MOL0     H12001   3.503   5.875   2.034  1.9165 -1.3975 -0.3289
   91MOL0     H12002   3.401   5.961   2.242  1.2483  1.7614  1.1359
   91MOL0     H12003   3.521   5.825   2.266  0.5389  0.3554  0.4715
   91MOL0     H12004   3.443   5.973   2.467 -2.4968  1.9530 -2.3336
   91MOL0     H12005   3.294   5.884   2.456  0.8014  0.0606  1.7464
   91MOL0     H12006   3.445   5.674   2.466 -0.9173  0.0364 -0.9703
   91MOL0     H12007   3.413   5.761   2.618  0.2517 -0.0507 -1.3177
   91MOL0     H12008   3.678   5.747   2.453  1.6810  2.1914  0.8624
   91MOL0     H12009   3.640   5.883   2.555 -1.4327  0.7136  0.3149
   91MOL0     H12010   3.703   5.510   2.775 -0.4797 -0.8734 -0.6243
   91MOL0     H12011   3.166   5.641   2.115  1.1262 -2.7645  0.3787
   91MOL0     H12012   3.153   5.568   1.881 -0.4717 -1.0647  5.1504
   92MOL0     O12013   9.410   4.983   3.491 -0.1346  0.3738  0.1481
   92MOL0     C12014   9.421   4.862   3.472  0.0147  0.5878  0.8159
   92MOL0     O12015   9.329   4.768   3.504 -0.5701  0.0400  0.2699
   92MOL0     C12016   9.197   4.806   3.540  0.5606  0.3145 -0.4077
   92MOL0     C12017   9.131   4.738   3.646 -1.4027 -0.3404  0.4244
   92MOL0     C12018   8.992   4.744   3.654 -0.0610  0.1991 -0.2269
   92MOL0     C12019   8.916   4.833   3.574  0.1542  0.1414  0.4204
   92MOL0     O12020   8.791   4.860   3.603  0.2365 -0.1538  0.5082
   92MOL0     C12021   8.763   4.901   3.737 -0.4006  0.4432 -0.9357
   92MOL0     C12022   8.816   5.037   3.782  0.0390  0.5221  0.6933
   92MOL0     C12023   8.797   5.046   3.934  0.0370  0.5172 -1.3129
   92MOL0     C12024   8.658   5.081   3.984 -0.1976 -0.5571  0.2845
   92MOL0     C12025   8.643   5.092   4.135 -0.3849  0.0220  0.0645
   92MOL0     C12026   8.511   5.037   4.177  0.9605 -0.1530  0.2239
   92MOL0     C12027   8.392   5.130   4.123 -0.3948 -0.1266  0.3605
   92MOL0     C12028   8.269   5.090   4.202  0.5872  0.1779  0.3463
   92MOL0     N12029   8.184   5.212   4.174 -0.7172  0.1653 -0.3980
   92MOL0     C12030   8.087   5.224   4.080 -0.0970 -0.2205 -0.6244
   92MOL0     C12031   7.999   5.318   4.117  0.1365  0.2806 -0.4694
   92MOL0     C12032   7.869   5.375   4.044  1.0368  0.1604  1.2470
   92MOL0     C12033   7.746   5.283   4.069  0.6802  0.6016 -2.1065
   92MOL0     C12034   7.728   5.209   4.210  0.0223 -0.1566  0.2768
   92MOL0     C12035   7.624   5.091   4.211 -0.2809  0.0525  0.5264
   92MOL0     O12036   7.514   5.144   4.137 -0.3049  0.0790  0.0063
   92MOL0     C12037   7.403   5.060   4.123 -0.3191 -1.3563  0.1993
   92MOL0     C12038   7.389   4.938   4.183 -0.4108 -0.3580  0.8108
   92MOL0     C12039   7.272   4.862   4.156 -0.3722  0.8087 -0.4540
   92MOL0     C12040   7.165   4.911   4.071 -0.0457 -0.6999 -0.0501
   92MOL0     C12041   7.055   4.826   4.023  1.2236  0.0857  0.2062
   92MOL0     O12042   7.052   4.699   4.084 -0.6104  0.4558 -0.9182
   92MOL0     C12043   6.945   4.622   4.061  0.3744  0.4072 -0.6383
   92MOL0     C12044   6.874   4.561   4.160 -0.2182 -0.4945 -0.5633
   92MOL0     C12045   6.776   4.470   4.137  0.1897 -0.5404 -0.5212
   92MOL0     C12046   6.746   4.431   4.006 -0.5232  0.7269 -0.6859
   92MOL0     O12047   6.642   4.346   3.991  0.6904  0.5759  0.1823
   92MOL0     C12048   6.648   4.248   3.885  0.0987 -0.2913 -0.4800
   92MOL0     C12049   6.759   4.141   3.904 -1.5638  0.5813  0.3206
   92MOL0     C12050   6.856   4.127   3.797  0.3436 -0.0721  0.6536
   92MOL0     C12051   6.964   4.005   3.828  0.3407 -0.3164  0.1337
   92MOL0     C12052   7.087   4.032   3.762 -1.3718 -0.0451 -0.0658
   92MOL0     C12053   7.182   3.914   3.762  0.4000 -0.4863 -0.3648
   92MOL0     C12054   7.328   3.947   3.760 -0.4950 -0.9281 -0.1352
   92MOL0     C12055   7.386   3.934   3.896  0.1143  0.1950 -0.2982
   92MOL0    Cl12056   7.550   3.999   3.915 -0.1436  0.0893 -0.1475
   92MOL0     C12057   6.824   4.486   3.896  0.7018  0.1713 -0.1463
   92MOL0     C12058   6.924   4.575   3.929  0.9579  0.0846 -0.0180
   92MOL0     O12059   6.967   4.874   3.952  0.4708  0.3330  0.7694
   92MOL0     C12060   7.182   5.048   4.030  0.2479 -0.0764 -0.5802
   92MOL0     C12061   7.299   5.114   4.054  0.0557 -0.6037  0.4458
   92MOL0     N12062   8.054   5.380   4.230 -1.0148  0.1323 -0.6151
   92MOL0     N12063   8.161   5.310   4.274 -0.4392 -0.3798  0.0068
   92MOL0     C12064   8.985   4.904   3.475  0.5693  0.0195 -0.6348
   92MOL0     C12065   9.118   4.881   3.456  0.2327  0.3634  0.1851
   92MOL0     C12066   9.559   4.830   3.424  0.3467 -1.1674  0.8302
   92MOL0     C12067   9.658   4.931   3.428  0.0698 -0.5776 -1.3296
   92MOL0     C12068   9.787   4.893   3.396 -0.5213 -0.0992 -0.5206
   92MOL0     C12069   9.815   4.768   3.348 -0.7743 -1.6170 -0.2291
   92MOL0     O12070   9.942   4.732   3.334 -0.0086 -0.3534 -0.2332
   92MOL0     C12071   9.982   4.664   3.459 -0.0689 -0.4122  0.2038
   92MOL0     C12072  10.039   4.750   3.569 -0.4804  0.6631  0.8727
   92MOL0     C12073  10.183   4.783   3.528 -0.8073 -0.0103 -0.8468
   92MOL0     C12074  10.255   4.887   3.616  0.6561  1.0059 -0.4826
   92MOL0     C12075  10.392   4.917   3.574 -0.0258 -0.9233 -0.1293
   92MOL0     C12076  10.497   4.936   3.521 -0.1475 -1.3737 -0.1994
   92MOL0     C12077   9.715   4.674   3.334  0.7191  0.3006  0.1082
   92MOL0     C12078   9.580   4.701   3.377 -0.7712 -0.4516  0.0278
   92MOL0     H12079   9.205   4.687   3.706  1.3218  2.3595 -0.3858
   92MOL0     H12080   8.946   4.695   3.739 -1.6573  2.8943  0.5798
   92MOL0     H12081   8.788   4.820   3.807  0.3181  0.4370 -1.1908
   92MOL0     H12082   8.655   4.917   3.736 -0.5854 -0.7151 -0.8301
   92MOL0     H12083   8.747   5.111   3.741 -1.2723 -0.0922  1.7197
   92MOL0     H12084   8.917   5.049   3.743 -0.5286 -0.5354 -1.2889
   92MOL0     H12085   8.859   5.131   3.965 -0.8084  0.2006  1.4745
   92MOL0     H12086   8.835   4.951   3.971 -0.5919  0.1295 -1.6413
   92MOL0     H12087   8.635   5.180   3.944  2.4808  0.9934  2.2281
   92MOL0     H12088   8.584   5.011   3.944 -0.0184  0.6579 -2.3699
   92MOL0     H12089   8.666   5.194   4.167 -0.4446  0.3817 -0.9802
   92MOL0     H12090   8.718   5.018   4.165 -1.6589 -0.4367  2.2909
   92MOL0     H12091   8.496   5.036   4.286  1.1091 -1.1162  0.2397
   92MOL0     H12092   8.490   4.935   4.144  3.8646 -1.1102  1.0391
   92MOL0     H12093   8.412   5.235   4.144 -1.2701 -0.0010  0.6216
   92MOL0     H12094   8.381   5.118   4.015 -3.2648 -6.0191  0.8581
   92MOL0     H12095   8.290   5.083   4.309 -1.9438  1.6079  1.0277
   92MOL0     H12096   8.228   5.001   4.152  2.1326 -1.6844  2.2374
   92MOL0     H12097   8.071   5.163   3.991 -0.5412 -1.6025  0.3658
   92MOL0     H12098   7.888   5.388   3.937  2.3084  0.3734  1.4774
   92MOL0     H12099   7.847   5.468   4.098 -3.1226  0.5008 -0.6205
   92MOL0     H12100   7.743   5.202   3.995 -1.8448 -1.0048 -0.3825
   92MOL0     H12101   7.664   5.354   4.062  1.4252  1.8006  0.1468
   92MOL0     H12102   7.825   5.161   4.227  1.0889  1.6412 -0.4993
   92MOL0     H12103   7.690   5.278   4.286 -2.6295 -2.2372  1.0294
   92MOL0     H12104   7.601   5.079   4.317 -0.6326  2.4561  0.7921
   92MOL0     H12105   7.660   4.994   4.178 -2.4107 -1.4799  2.4047
   92MOL0     H12106   7.473   4.899   4.240  2.1091 -0.4456 -2.6389
   92MOL0     H12107   7.256   4.760   4.191 -2.0685  0.2040 -2.7751
   92MOL0     H12108   6.908   4.583   4.260 -1.7500 -0.5526 -0.0038
   92MOL0     H12109   6.745   4.419   4.228  1.6355 -4.2859 -1.8969
   92MOL0     H12110   6.655   4.295   3.787  0.1181  0.2853 -0.2069
   92MOL0     H12111   6.549   4.202   3.879 -1.3856  2.4577  1.0117
   92MOL0     H12112   6.717   4.042   3.925 -0.0783 -0.1649 -0.1123
   92MOL0     H12113   6.815   4.172   3.993  1.3693 -2.6500 -0.1696
   92MOL0     H12114   6.901   4.225   3.778 -3.1063  1.4091 -0.6075
   92MOL0     H12115   6.803   4.089   3.709  0.6663 -1.0291  0.8525
   92MOL0     H12116   6.979   4.007   3.936 -2.9447  1.0926  0.6946
   92MOL0     H12117   6.919   3.909   3.800  1.1328 -0.8635  0.7241
   92MOL0     H12118   7.136   4.122   3.802 -1.3122  0.2902 -0.8886
   92MOL0     H12119   7.072   4.061   3.658  0.3928  3.9750  0.6010
   92MOL0     H12120   7.147   3.844   3.686 -1.2767 -0.4735  0.3463
   92MOL0     H12121   7.173   3.878   3.866  1.0547 -1.8375 -0.7490
   92MOL0     H12122   7.378   3.877   3.693 -0.3631 -0.1804 -0.8372
   92MOL0     H12123   7.348   4.049   3.727  2.7937 -1.3135  0.3556
   92MOL0     H12124   7.381   3.828   3.922 -1.7826  0.9787  3.2423
   92MOL0     H12125   7.322   3.981   3.971  0.0823 -0.2843 -0.0222
   92MOL0     H12126   6.820   4.469   3.789  0.6230 -0.4899 -0.0444
   92MOL0     H12127   6.979   4.613   3.844 -0.0115  1.7881  0.0607
   92MOL0     H12128   7.105   5.100   3.974  1.7006  0.7325 -1.8631
   92MOL0     H12129   7.301   5.213   4.010 -1.4749 -1.0208 -0.6105
   92MOL0     H12130   8.937   4.980   3.415 -0.5677  1.4735  1.9668
   92MOL0     H12131   9.173   4.936   3.380 -0.1026 -0.5255 -0.7298
   92MOL0     H12132   9.633   5.028   3.471  1.3566 -0.3256 -1.0985
   92MOL0     H12133   9.856   4.975   3.418  0.4799 -1.2855  0.9503
   92MOL0     H12134  10.049   4.583   3.430  1.2481  0.4388  0.7461
   92MOL0     H12135   9.892   4.616   3.496 -0.8613  1.4216  0.7785
   92MOL0     H12136   9.991   4.848   3.571 -1.9652  0.2479 -3.4474
   92MOL0     H12137  10.036   4.697   3.665 -1.8054  2.4299  1.8610
   92MOL0     H12138  10.191   4.815   3.424 -1.9882  0.9369 -0.6658
   92MOL0     H12139  10.246   4.693   3.531 -2.5707 -1.2821 -0.2461
   92MOL0     H12140  10.187   4.972   3.608 -1.9996 -0.7476  1.5941
   92MOL0     H12141  10.259   4.857   3.722 -1.2422  0.2243 -0.5995
   92MOL0     H12142  10.584   4.939   3.458 -1.4488  2.7530 -2.1836
   92MOL0     H12143   9.729   4.573   3.297 -0.6667 -0.3434  1.2286
   92MOL0     H12144   9.505   4.624   3.361  1.4555 -2.6114 -0.7447
   93MOL0     O12145   2.705   6.127   0.976 -0.0389 -0.4362 -0.1522
   93MOL0     C12146   2.802   6.177   0.936 -0.7007 -0.0663  1.0423
   93MOL0     O12147   2.812   6.309   0.884 -0.0343  0.6123  0.3624
   93MOL0     C12148   2.708   6.398   0.889  0.4032  0.1698  0.5933
   93MOL0     C12149   2.579   6.363   0.852  0.3090  0.4083 -1.0851
   93MOL0     C12150   2.486   6.460   0.836 -0.0122 -0.3997 -0.7759
   93MOL0     C12151   2.511   6.599   0.849  0.4806  0.5515  0.4117
   93MOL0     O12152   2.419   6.699   0.845 -0.3462 -0.3526 -0.2195
   93MOL0     C12153   2.300   6.689   0.764  0.1031 -0.0292  0.7517
   93MOL0     C12154   2.212   6.813   0.760 -0.4417 -0.3068  0.5508
   93MOL0     C12155   2.178   6.863   0.895  0.1028 -0.3556  0.4483
   93MOL0     C12156   2.060   6.956   0.893 -0.0321  0.4398  0.1446
   93MOL0     C12157   1.995   6.954   1.032  0.0424  0.0359  0.1860
   93MOL0     C12158   1.890   7.070   1.049  0.1069 -0.4308 -0.7034
   93MOL0     C12159   1.845   7.086   1.203  0.2907 -0.2876 -0.1838
   93MOL0     C12160   1.762   6.972   1.236  0.8524  0.4288  0.2141
   93MOL0     N12161   1.682   6.975   1.370 -0.4165  0.1712  0.4789
   93MOL0     C12162   1.550   6.959   1.367  0.3054  0.0400  0.0721
   93MOL0     C12163   1.520   6.928   1.494 -0.2123 -0.5727 -0.2845
   93MOL0     C12164   1.375   6.908   1.525  0.0693  0.6178  0.2875
   93MOL0     C12165   1.316   7.013   1.612  0.2145 -0.6379  0.9066
   93MOL0     C12166   1.324   7.154   1.548 -0.3850  0.0323 -0.2928
   93MOL0     C12167   1.282   7.165   1.398 -0.6380  0.7579 -0.5367
   93MOL0     O12168   1.159   7.088   1.374 -0.7366  0.0556  0.0958
   93MOL0     C12169   1.049   7.134   1.437 -0.2388  0.7218  0.5034
   93MOL0     C12170   1.025   7.266   1.460  0.8096 -0.7117 -0.5066
   93MOL0     C12171   0.912   7.319   1.520  0.7356 -0.1469  1.0806
   93MOL0     C12172   0.807   7.231   1.546 -0.2903  0.8214  1.5680
   93MOL0     C12173   0.669   7.262   1.593 -0.1719  0.0685 -0.2376
   93MOL0     O12174   0.584   7.158   1.584 -0.6838  0.0309  0.0644
   93MOL0     C12175   0.456   7.158   1.615 -0.2470 -0.1191  0.3159
   93MOL0     C12176   0.376   7.267   1.640 -0.0222 -0.1536  0.5936
   93MOL0     C12177   0.237   7.266   1.635  0.4315 -0.1496  0.4319
   93MOL0     C12178   0.172   7.142   1.627  0.0104 -0.0860 -0.8169
   93MOL0     O12179   0.034   7.120   1.631  0.0188  0.3612  0.0243
   93MOL0     C12180  -0.038   7.204   1.727 -0.6330  0.1212  0.7701
   93MOL0     C12181  -0.188   7.170   1.718 -0.5722 -0.2182 -0.1612
   93MOL0     C12182  -0.264   7.229   1.838 -0.1179 -0.3907  0.4541
   93MOL0     C12183  -0.413   7.201   1.812 -0.2051 -0.5259 -0.1331
   93MOL0     C12184  -0.501   7.279   1.910  0.0597  0.6030 -0.3700
   93MOL0     C12185  -0.646   7.217   1.913  0.1762  1.0725  0.6444
   93MOL0     C12186  -0.717   7.286   2.032 -0.1331  0.8489  0.7528
   93MOL0     C12187  -0.689   7.227   2.162 -0.4146  0.1845  0.6648
   93MOL0    Cl12188  -0.812   7.261   2.274 -0.5445  0.0162 -0.2380
   93MOL0     C12189   0.245   7.035   1.599 -0.5640 -0.0957 -1.0056
   93MOL0     C12190   0.389   7.039   1.596  0.4989  0.1721  0.7457
   93MOL0     O12191   0.648   7.378   1.620  0.1360 -0.7540 -0.2844
   93MOL0     C12192   0.827   7.094   1.509  1.0135 -0.4244  0.0396
   93MOL0     C12193   0.943   7.051   1.449 -1.1058  0.0814  1.2227
   93MOL0     N12194   1.636   6.918   1.576 -0.2132 -0.1039  0.3044
   93MOL0     N12195   1.733   6.948   1.495  0.0456  0.1417 -0.3026
   93MOL0     C12196   2.644   6.645   0.884  0.8565  0.6600  0.3445
   93MOL0     C12197   2.742   6.534   0.894  0.0089 -0.2636 -0.0500
   93MOL0     C12198   2.930   6.087   0.924 -0.0994 -0.5104  0.0669
   93MOL0     C12199   3.043   6.131   0.861  0.6483 -0.0125  0.3289
   93MOL0     C12200   3.162   6.063   0.881  0.3333  0.9226 -0.3643
   93MOL0     C12201   3.173   5.944   0.956  0.2495  0.0616  0.3775
   93MOL0     O12202   3.297   5.891   0.963  0.0272  0.6107 -0.2587
   93MOL0     C12203   3.292   5.753   1.013  0.5527 -0.4837  1.3501
   93MOL0     C12204   3.436   5.716   1.043 -0.5619 -0.1226 -0.1926
   93MOL0     C12205   3.504   5.810   1.144  0.6008  0.5777 -0.3275
   93MOL0     C12206   3.648   5.756   1.174  0.8778 -0.6726 -0.0925
   93MOL0     C12207   3.658   5.642   1.274 -0.7077 -0.6104  0.2182
   93MOL0     C12208   3.670   5.560   1.362  0.4451 -0.0644  0.2735
   93MOL0     C12209   3.050   5.893   1.008 -0.2594 -0.7978 -1.1007
   93MOL0     C12210   2.933   5.971   0.995 -0.2058 -0.3593  0.1621
   93MOL0     H12211   2.554   6.259   0.837  4.2472 -0.9582  0.5611
   93MOL0     H12212   2.386   6.432   0.807 -0.7620  2.9060 -1.8965
   93MOL0     H12213   2.245   6.598   0.789  0.6078 -1.0006 -1.4865
   93MOL0     H12214   2.331   6.665   0.662  2.2374  0.5676  1.2162
   93MOL0     H12215   2.127   6.803   0.693 -0.9993  1.0415  1.0370
   93MOL0     H12216   2.283   6.885   0.717  1.0157 -1.0736  1.5614
   93MOL0     H12217   2.271   6.906   0.932  0.7610 -1.1276 -0.2679
   93MOL0     H12218   2.146   6.782   0.962  1.1523  0.1156  1.5416
   93MOL0     H12219   2.092   7.060   0.880  2.1973 -0.2451 -0.2325
   93MOL0     H12220   1.982   6.933   0.819 -2.5483  3.0023  1.7707
   93MOL0     H12221   2.079   6.968   1.101  2.9650 -0.7670 -2.9469
   93MOL0     H12222   1.957   6.854   1.055  1.5486 -1.2518 -2.5070
   93MOL0     H12223   1.796   7.035   1.005  0.8296 -1.6778 -1.3357
   93MOL0     H12224   1.933   7.165   1.015 -0.4959  2.2001  4.8328
   93MOL0     H12225   1.935   7.088   1.266  0.1259 -0.6377  0.0683
   93MOL0     H12226   1.791   7.178   1.225 -0.0339 -0.8163  1.3844
   93MOL0     H12227   1.825   6.882   1.234 -0.1642 -0.3841 -3.1860
   93MOL0     H12228   1.690   6.943   1.158  3.8362 -0.2412 -2.5477
   93MOL0     H12229   1.487   6.969   1.279 -0.4717  0.2971  0.6522
   93MOL0     H12230   1.364   6.811   1.575  0.0371 -1.4940 -3.3902
   93MOL0     H12231   1.315   6.887   1.436 -0.5063  1.7221  0.4069
   93MOL0     H12232   1.367   7.026   1.708  0.2729  1.6894  0.6289
   93MOL0     H12233   1.213   6.978   1.620  1.3205 -4.0092  1.8247
   93MOL0     H12234   1.257   7.219   1.605 -3.3743 -0.9990 -2.4207
   93MOL0     H12235   1.423   7.200   1.554 -0.4211  0.3742 -1.9201
   93MOL0     H12236   1.357   7.120   1.332 -1.1811 -0.2003 -0.5038
   93MOL0     H12237   1.280   7.269   1.364 -0.2817  1.5940  1.8102
   93MOL0     H12238   1.101   7.338   1.431  0.6630 -0.6766 -0.8053
   93MOL0     H12239   0.899   7.423   1.548  1.6501 -0.4189  2.6128
   93MOL0     H12240   0.426   7.364   1.642 -0.2557  0.1072  5.0828
   93MOL0     H12241   0.184   7.361   1.632  2.0969  0.7977 -0.6999
   93MOL0     H12242  -0.017   7.310   1.710 -0.7981  0.0860  0.3514
   93MOL0     H12243  -0.001   7.177   1.827  1.7747 -3.2504 -0.8282
   93MOL0     H12244  -0.200   7.062   1.731  0.1075 -0.1249  1.4449
   93MOL0     H12245  -0.231   7.193   1.620 -2.3468 -3.8759 -0.4265
   93MOL0     H12246  -0.251   7.338   1.841  0.8398 -0.4959  0.2550
   93MOL0     H12247  -0.216   7.191   1.928  2.2514  0.4695 -0.3733
   93MOL0     H12248  -0.440   7.229   1.710  0.4524 -0.0449 -0.1779
   93MOL0     H12249  -0.429   7.092   1.817 -0.7593 -0.5485 -1.7042
   93MOL0     H12250  -0.500   7.380   1.870  1.3987  0.2732 -1.2438
   93MOL0     H12251  -0.457   7.289   2.010 -0.5157 -0.8275  0.0489
   93MOL0     H12252  -0.650   7.109   1.931  4.4131  0.2832 -1.7239
   93MOL0     H12253  -0.695   7.245   1.819 -2.4423  0.6104  1.7975
   93MOL0     H12254  -0.693   7.393   2.027  0.3051  0.7129 -0.4995
   93MOL0     H12255  -0.820   7.268   2.001  0.7632 -0.9520 -1.4506
   93MOL0     H12256  -0.604   7.279   2.206  0.6092 -1.2480  0.4382
   93MOL0     H12257  -0.683   7.118   2.158  3.6764  0.2480  0.8337
   93MOL0     H12258   0.192   6.944   1.575  3.8425 -2.5775 -2.4133
   93MOL0     H12259   0.439   6.946   1.570 -0.9744 -0.6216  0.6491
   93MOL0     H12260   0.757   7.015   1.533 -1.5705  2.1548  1.6180
   93MOL0     H12261   0.966   6.947   1.426  0.0136  0.7443 -1.0339
   93MOL0     H12262   2.673   6.744   0.919  1.8287  1.2406 -1.9065
   93MOL0     H12263   2.844   6.553   0.928 -0.0399 -0.9242  0.4712
   93MOL0     H12264   3.039   6.226   0.809 -2.2328  0.9575  2.0726
   93MOL0     H12265   3.256   6.101   0.841  3.2893 -2.1149  2.9132
   93MOL0     H12266   3.252   5.678   0.945 -0.1716  0.7480  0.3592
   93MOL0     H12267   3.243   5.754   1.111  2.4872 -1.1984  2.3683
   93MOL0     H12268   3.440   5.610   1.071  1.5930 -0.5867 -1.9235
   93MOL0     H12269   3.490   5.717   0.948 -1.9599  0.1234 -1.0000
   93MOL0     H12270   3.438   5.808   1.231 -1.8741  1.5243 -2.0486
   93MOL0     H12271   3.512   5.908   1.097  1.6007  0.0493 -1.2849
   93MOL0     H12272   3.689   5.726   1.077 -1.0190 -1.0697 -0.8174
   93MOL0     H12273   3.705   5.841   1.213  2.1973 -1.1008 -1.0324
   93MOL0     H12274   3.689   5.487   1.438 -1.7429 -3.7330 -2.3756
   93MOL0     H12275   3.042   5.811   1.078  0.5588  0.8201  0.9875
   93MOL0     H12276   2.849   5.919   1.041  0.7752 -2.6913 -0.5467
   94MOL0     O12277   0.648   7.395   7.174 -0.2356  0.1447  0.5058
   94MOL0     C12278   0.734   7.398   7.092 -1.3839  0.6732  0.2166
   94MOL0     O12279   0.738   7.478   6.984  1.2717  0.1506 -0.1832
   94MOL0     C12280   0.638   7.566   6.954 -0.3663  0.7391 -0.8699
   94MOL0     C12281   0.683   7.688   6.915  0.6481  0.5875  0.0641
   94MOL0     C12282   0.577   7.784   6.898  0.4040 -1.2306  1.0994
   94MOL0     C12283   0.438   7.763   6.922  0.4330  0.9703  0.2263
   94MOL0     O12284   0.332   7.857   6.912  0.4174 -0.9896  0.4706
   94MOL0     C12285   0.309   7.896   6.775  0.1997 -0.8091 -0.5236
   94MOL0     C12286   0.279   8.049   6.782  0.0541  0.3334 -1.1288
   94MOL0     C12287   0.407   8.121   6.809 -0.2160 -0.3702 -0.7007
   94MOL0     C12288   0.390   8.272   6.793 -0.7612 -0.1810 -0.4478
   94MOL0     C12289   0.285   8.336   6.891  0.2176  0.2163  0.4682
   94MOL0     C12290   0.265   8.489   6.858  0.9272 -0.5100 -0.9398
   94MOL0     C12291   0.131   8.550   6.932 -0.2639 -0.2757 -0.0850
   94MOL0     C12292   0.103   8.516   7.078  0.0540  0.2996  0.8787
   94MOL0     N12293   0.215   8.550   7.175  0.6473 -0.3900  0.3753
   94MOL0     C12294   0.296   8.461   7.245  0.3080  0.1078  0.4074
   94MOL0     C12295   0.392   8.532   7.307  0.8038  0.8669 -0.2709
   94MOL0     C12296   0.519   8.492   7.389 -0.0425  0.5668 -0.2921
   94MOL0     C12297   0.640   8.552   7.313 -0.4873 -1.0614 -0.4797
   94MOL0     C12298   0.668   8.510   7.170 -0.3300 -0.3590 -0.0372
   94MOL0     C12299   0.650   8.359   7.142  0.4438 -0.8821 -0.1439
   94MOL0     O12300   0.697   8.334   7.012 -0.0735 -0.5477 -0.4458
   94MOL0     C12301   0.764   8.218   6.971 -0.5578  0.4507 -0.5942
   94MOL0     C12302   0.843   8.147   7.065 -0.6459 -0.4801  0.5828
   94MOL0     C12303   0.940   8.037   7.028 -0.0812 -0.4844 -0.6476
   94MOL0     C12304   0.947   8.000   6.896 -0.2503  0.1917 -0.7029
   94MOL0     C12305   1.050   7.903   6.849  0.2901 -0.3592  0.7174
   94MOL0     O12306   1.039   7.856   6.721 -0.2859  0.4120 -0.4390
   94MOL0     C12307   1.122   7.758   6.680  1.0578  0.8406 -0.1446
   94MOL0     C12308   1.211   7.790   6.578  0.8942  0.2158  0.2076
   94MOL0     C12309   1.315   7.708   6.538 -0.6101  0.0393  0.0465
   94MOL0     C12310   1.321   7.584   6.596 -0.5799 -0.2466  0.2729
   94MOL0     O12311   1.411   7.507   6.536  0.0645  0.4589 -0.3786
   94MOL0     C12312   1.372   7.385   6.487  0.5135 -0.4800  0.8204
   94MOL0     C12313   1.484   7.328   6.404 -0.9930  0.5315 -1.2597
   94MOL0     C12314   1.448   7.260   6.275  0.3081  0.5555  0.4356
   94MOL0     C12315   1.546   7.174   6.204 -0.0511 -0.4887  0.3111
   94MOL0     C12316   1.678   7.229   6.186 -0.3817  0.2064 -0.2617
   94MOL0     C12317   1.761   7.133   6.108  0.5537  0.0988 -0.5023
   94MOL0     C12318   1.893   7.193   6.059  0.0116  0.7927 -0.1519
   94MOL0     C12319   1.981   7.253   6.170 -0.1608  0.2525 -0.1957
   94MOL0    Cl12320   1.992   7.150   6.316 -0.0342  0.2847 -0.1079
   94MOL0     C12321   1.234   7.543   6.689 -0.2475  0.0156 -0.0089
   94MOL0     C12322   1.133   7.635   6.741 -0.7877  0.6480 -1.2766
   94MOL0     O12323   1.133   7.870   6.930 -0.0830  0.7215 -0.4461
   94MOL0     C12324   0.866   8.060   6.799  0.0091  0.7053 -0.2394
   94MOL0     C12325   0.793   8.177   6.836 -0.6071  0.5008  0.6577
   94MOL0     N12326   0.365   8.665   7.277 -0.3107 -0.8579 -0.2205
   94MOL0     N12327   0.265   8.674   7.196 -0.3751 -0.3589  0.7386
   94MOL0     C12328   0.405   7.644   6.980  0.3781  0.1895  0.4657
   94MOL0     C12329   0.504   7.541   6.987  0.3254 -0.8530 -0.7512
   94MOL0     C12330   0.854   7.300   7.112 -0.2193  0.0654  0.6838
   94MOL0     C12331   0.879   7.246   7.240  0.8490 -0.2747 -0.0139
   94MOL0     C12332   0.990   7.164   7.257  0.8768  0.5882  0.0229
   94MOL0     C12333   1.075   7.129   7.150 -0.2546  0.5832  0.1525
   94MOL0     O12334   1.195   7.071   7.168  0.1189  0.4051  0.1131
   94MOL0     C12335   1.229   7.025   7.301  0.3509 -1.3655 -0.6339
   94MOL0     C12336   1.353   6.934   7.293  0.8678  0.0412 -0.4122
   94MOL0     C12337   1.481   6.986   7.368 -1.2138  0.6609  0.3445
   94MOL0     C12338   1.594   6.872   7.357  0.2085 -0.1249  0.6593
   94MOL0     C12339   1.718   6.910   7.424 -0.2545  0.2554 -0.1982
   94MOL0     C12340   1.819   6.910   7.494 -0.2229  0.0357  0.6483
   94MOL0     C12341   1.045   7.165   7.026  0.1437  0.2389 -0.4906
   94MOL0     C12342   0.939   7.258   7.001  0.1191 -0.1988 -0.6523
   94MOL0     H12343   0.789   7.706   6.897  1.6085 -4.4888 -0.9253
   94MOL0     H12344   0.601   7.879   6.851  1.0190 -0.3502  3.0588
   94MOL0     H12345   0.217   7.855   6.732 -0.3273 -1.4999  1.1418
   94MOL0     H12346   0.401   7.876   6.720  0.9182 -2.6761  1.2383
   94MOL0     H12347   0.196   8.066   6.851  1.8404 -3.5367  2.3862
   94MOL0     H12348   0.241   8.080   6.684 -1.3727  0.6953 -0.4938
   94MOL0     H12349   0.485   8.081   6.744 -1.4344 -1.7228 -1.3745
   94MOL0     H12350   0.437   8.094   6.911 -4.6147 -4.3050 -0.1350
   94MOL0     H12351   0.488   8.321   6.795 -0.5703 -0.5720 -0.1143
   94MOL0     H12352   0.361   8.295   6.690  0.6838 -0.4056 -0.9266
   94MOL0     H12353   0.318   8.321   6.994 -3.1409 -1.3643  1.4502
   94MOL0     H12354   0.186   8.289   6.887  0.4809 -0.2942 -0.2596
   94MOL0     H12355   0.254   8.497   6.749  0.8669 -1.6546 -1.0322
   94MOL0     H12356   0.354   8.542   6.892  1.6458 -1.0301 -1.9468
   94MOL0     H12357   0.141   8.658   6.918  1.3928 -0.4811 -0.8419
   94MOL0     H12358   0.045   8.512   6.876  0.0766  1.2403 -1.7191
   94MOL0     H12359   0.087   8.408   7.082 -4.3999  0.8004  4.2173
   94MOL0     H12360   0.009   8.569   7.095  0.5981  1.3294  0.7254
   94MOL0     H12361   0.265   8.364   7.282 -2.3234  1.1163  1.0401
   94MOL0     H12362   0.527   8.385   7.409  0.3438  0.5857 -0.3350
   94MOL0     H12363   0.516   8.539   7.487 -1.5632 -2.2406  1.1452
   94MOL0     H12364   0.733   8.549   7.372 -0.0459  1.5623 -0.8974
   94MOL0     H12365   0.632   8.661   7.306  1.0130 -0.7141  1.8254
   94MOL0     H12366   0.597   8.561   7.105 -0.6136 -1.1408 -0.3509
   94MOL0     H12367   0.771   8.541   7.151  0.1304 -0.2554  2.3019
   94MOL0     H12368   0.547   8.323   7.137  0.9800 -2.4225 -0.7298
   94MOL0     H12369   0.695   8.293   7.217 -3.8680 -2.7784  1.0432
   94MOL0     H12370   0.845   8.147   7.173  3.4259  0.0068  0.6879
   94MOL0     H12371   0.988   7.982   7.108 -1.6240 -0.9547  0.0060
   94MOL0     H12372   1.211   7.887   6.529  0.8405 -0.0921 -0.4088
   94MOL0     H12373   1.386   7.725   6.457  0.2562  0.3121  0.8486
   94MOL0     H12374   1.287   7.406   6.422 -1.2115  4.3578  4.0776
   94MOL0     H12375   1.350   7.324   6.575 -0.3249 -1.3581  0.0191
   94MOL0     H12376   1.528   7.243   6.458 -3.3508 -0.0513 -0.1488
   94MOL0     H12377   1.560   7.403   6.380 -0.5917  0.9488  1.1253
   94MOL0     H12378   1.422   7.336   6.201  1.1097  0.0834 -0.3420
   94MOL0     H12379   1.359   7.196   6.281  0.9814 -0.4578 -0.1340
   94MOL0     H12380   1.533   7.083   6.264 -3.0714 -0.8908 -0.7737
   94MOL0     H12381   1.506   7.148   6.106 -1.5050 -3.4169  1.5285
   94MOL0     H12382   1.729   7.243   6.281 -1.0366  0.7544  0.0234
   94MOL0     H12383   1.671   7.328   6.139  2.7741  1.0189  0.7774
   94MOL0     H12384   1.708   7.093   6.021 -0.8120 -0.2090  0.4373
   94MOL0     H12385   1.777   7.043   6.170 -0.0380  1.0983  1.1691
   94MOL0     H12386   1.950   7.119   6.002  0.9006  1.7033 -0.4837
   94MOL0     H12387   1.875   7.274   5.988  3.2189  1.9828  0.2232
   94MOL0     H12388   1.953   7.353   6.204 -3.3577 -0.7923  0.6398
   94MOL0     H12389   2.083   7.259   6.132  0.0498 -1.1339  0.0980
   94MOL0     H12390   1.214   7.442   6.722 -0.1942  1.2835  4.6091
   94MOL0     H12391   1.070   7.601   6.822  1.5368 -0.3276  0.2157
   94MOL0     H12392   0.877   8.025   6.697 -4.3093  0.2524 -0.7345
   94MOL0     H12393   0.762   8.238   6.752 -0.2659  0.2591  0.3560
   94MOL0     H12394   0.306   7.622   7.018  1.2271 -0.9901  2.1397
   94MOL0     H12395   0.466   7.445   7.021  1.0678 -1.3007 -1.1616
   94MOL0     H12396   0.821   7.270   7.328  1.4898  0.2199  0.2797
   94MOL0     H12397   1.023   7.127   7.353  0.4822  0.5403  0.1424
   94MOL0     H12398   1.151   6.967   7.350  1.4356 -2.0846  0.2805
   94MOL0     H12399   1.250   7.119   7.353  1.4036 -1.4028 -0.9666
   94MOL0     H12400   1.327   6.835   7.330  0.9430 -0.4825 -1.7027
   94MOL0     H12401   1.384   6.922   7.189 -0.2455  4.4471 -1.4813
   94MOL0     H12402   1.457   6.997   7.474 -1.5208 -0.4982  0.4024
   94MOL0     H12403   1.515   7.088   7.346  1.6328  0.0758  1.6672
   94MOL0     H12404   1.554   6.773   7.382  1.6702 -1.1485 -0.7844
   94MOL0     H12405   1.626   6.860   7.253 -1.8929 -0.6167  0.0213
   94MOL0     H12406   1.912   6.912   7.546  0.0473  1.1005  0.1488
   94MOL0     H12407   1.115   7.130   6.951  0.9359  0.4413  0.1362
   94MOL0     H12408   0.928   7.305   6.904 -1.6583  1.0877  0.1055
   95MOL0     O12409  10.998   0.586   3.254 -0.5329  0.0961  0.8792
   95MOL0     C12410  10.958   0.535   3.149 -0.5104 -0.4721 -0.4081
   95MOL0     O12411  10.989   0.576   3.020  0.3712 -0.2334  0.1860
   95MOL0     C12412  11.109   0.644   3.007  0.0634  0.5313 -0.6588
   95MOL0     C12413  11.116   0.778   2.974  0.1422 -0.9814  0.3151
   95MOL0     C12414  11.238   0.847   2.971  0.4309 -0.3281 -0.1240
   95MOL0     C12415  11.360   0.777   2.979 -0.3087  0.3718 -0.8941
   95MOL0     O12416  11.484   0.836   2.973 -0.3452 -0.4047  0.5376
   95MOL0     C12417  11.600   0.779   3.035  0.2987  0.2330  1.5219
   95MOL0     C12418  11.708   0.887   3.041 -0.3243 -0.5096 -0.5414
   95MOL0     C12419  11.748   0.946   2.901  0.3550  0.0318 -0.3027
   95MOL0     C12420  11.834   1.072   2.914  0.2928  0.0290  0.8101
   95MOL0     C12421  11.857   1.127   2.775 -0.3494  0.1696  0.2148
   95MOL0     C12422  11.950   1.252   2.789 -0.7477 -0.4031 -0.8794
   95MOL0     C12423  12.051   1.280   2.679 -0.5749 -0.4484 -0.5615
   95MOL0     C12424  12.115   1.418   2.706 -0.3081 -0.0355 -0.4192
   95MOL0     N12425  12.164   1.431   2.843 -0.0493 -0.6718 -0.0378
   95MOL0     C12426  12.289   1.402   2.871 -0.0450  0.1765  0.3016
   95MOL0     C12427  12.297   1.431   3.001 -0.4100 -0.7297 -0.4673
   95MOL0     C12428  12.424   1.398   3.075  0.1884 -0.0975 -0.3840
   95MOL0     C12429  12.547   1.426   2.987 -0.3215 -0.2925 -0.4851
   95MOL0     C12430  12.685   1.402   3.070  0.7772 -0.4590 -0.0240
   95MOL0     C12431  12.800   1.440   2.986  0.4290  0.4767 -0.3196
   95MOL0     O12432  12.918   1.386   3.047  0.3514  0.5239  1.0686
   95MOL0     C12433  13.033   1.415   2.974 -0.2234 -0.2114  0.3318
   95MOL0     C12434  13.143   1.329   2.999 -0.0048 -0.6530  0.7856
   95MOL0     C12435  13.256   1.347   2.921  0.2029 -0.8703 -0.6929
   95MOL0     C12436  13.280   1.458   2.843  0.5979 -0.0490  0.1977
   95MOL0     C12437  13.415   1.482   2.781  0.0636  1.2876 -0.3798
   95MOL0     O12438  13.499   1.371   2.763 -0.0608  0.1467 -0.4427
   95MOL0     C12439  13.636   1.384   2.739 -0.2335  0.0872 -0.6131
   95MOL0     C12440  13.720   1.489   2.781  0.7080 -0.0694 -0.0919
   95MOL0     C12441  13.859   1.481   2.757 -0.0960  0.6683  0.1600
   95MOL0     C12442  13.909   1.375   2.689 -0.2961  0.0617 -0.6142
   95MOL0     O12443  14.040   1.384   2.663 -0.0963  0.1792  0.1266
   95MOL0     C12444  14.123   1.280   2.725  0.7653 -1.0986 -1.0118
   95MOL0     C12445  14.205   1.209   2.616 -0.8721 -0.3975  1.2145
   95MOL0     C12446  14.320   1.135   2.673 -0.1221  0.0337  0.2437
   95MOL0     C12447  14.396   1.067   2.571 -1.2562  0.1706 -0.8217
   95MOL0     C12448  14.511   0.997   2.647  0.2559  0.4281  0.7084
   95MOL0     C12449  14.584   0.895   2.559  1.0737 -0.0363 -0.6221
   95MOL0     C12450  14.633   0.940   2.421 -0.4804  0.3287 -0.3518
   95MOL0     C12451  14.715   0.827   2.358  0.5481  0.5525 -0.4800
   95MOL0    Cl12452  14.843   0.759   2.459 -0.3672 -0.0068  0.3760
   95MOL0     C12453  13.829   1.274   2.637 -0.0982  0.9881 -0.7051
   95MOL0     C12454  13.691   1.274   2.676 -0.0163  0.9209  0.4734
   95MOL0     O12455  13.443   1.592   2.736  1.4137 -0.0873  0.5680
   95MOL0     C12456  13.173   1.546   2.826 -0.6352  0.9211  0.6395
   95MOL0     C12457  13.050   1.524   2.892  0.1234  0.2418  0.1117
   95MOL0     N12458  12.179   1.503   3.043  0.6100  0.2864  0.4269
   95MOL0     N12459  12.096   1.503   2.942  0.6161 -0.4359 -0.9823
   95MOL0     C12460  11.355   0.641   3.016  0.2296 -0.8465  0.9615
   95MOL0     C12461  11.239   0.579   3.036  1.5809  0.0126  0.7054
   95MOL0     C12462  10.870   0.405   3.165  0.1778  0.0788 -0.5808
   95MOL0     C12463  10.849   0.347   3.299 -0.9086 -0.3992  0.8878
   95MOL0     C12464  10.760   0.245   3.321  0.4479 -0.0585  0.0416
   95MOL0     C12465  10.702   0.181   3.219  0.8689  0.0139  0.7985
   95MOL0     O12466  10.607   0.086   3.249 -0.5721 -0.5533  0.5142
   95MOL0     C12467  10.483   0.148   3.271 -0.6371 -1.1070 -0.1590
   95MOL0     C12468  10.384   0.064   3.346  0.3014 -0.9384 -0.4021
   95MOL0     C12469  10.251   0.143   3.380 -0.6467 -0.1723  0.2504
   95MOL0     C12470  10.154   0.037   3.430 -0.4348  0.2450  0.1288
   95MOL0     C12471  10.021   0.090   3.478 -0.0430  0.2000 -0.1986
   95MOL0     C12472   9.910   0.110   3.535 -0.0912 -0.3209 -0.7135
   95MOL0     C12473  10.717   0.227   3.088  0.9392 -0.1736 -0.1896
   95MOL0     C12474  10.798   0.343   3.056 -0.3182 -0.0856 -0.2246
   95MOL0     H12475  11.024   0.834   2.972  1.5936  1.5638 -0.5283
   95MOL0     H12476  11.244   0.954   2.955 -2.6095  0.9343  4.9257
   95MOL0     H12477  11.627   0.699   2.965 -2.0629  0.2509  0.4762
   95MOL0     H12478  11.589   0.740   3.136 -1.3618 -1.1185  0.8788
   95MOL0     H12479  11.799   0.843   3.083  1.5667  2.8729 -0.7191
   95MOL0     H12480  11.675   0.960   3.115 -3.3720 -2.9184  0.6879
   95MOL0     H12481  11.656   0.991   2.862 -0.0504 -0.3480  0.2019
   95MOL0     H12482  11.801   0.868   2.846 -0.8257 -1.2606  0.3359
   95MOL0     H12483  11.788   1.160   2.961  3.3527  1.5688  1.1275
   95MOL0     H12484  11.928   1.062   2.968 -1.3326 -1.0676  3.6516
   95MOL0     H12485  11.760   1.151   2.731  0.5643  1.9447 -0.9322
   95MOL0     H12486  11.901   1.046   2.718 -0.0553  0.0352  0.6274
   95MOL0     H12487  12.012   1.230   2.877 -0.9881  0.8597 -0.3763
   95MOL0     H12488  11.883   1.335   2.815 -1.0838 -0.5835 -1.1609
   95MOL0     H12489  12.119   1.197   2.656 -0.9622 -0.6419 -1.0241
   95MOL0     H12490  11.991   1.298   2.590 -2.5166  1.7132  1.0506
   95MOL0     H12491  12.042   1.497   2.692 -0.0080  0.7955  2.1173
   95MOL0     H12492  12.200   1.444   2.643 -0.2242  2.2172  0.5216
   95MOL0     H12493  12.357   1.351   2.803  0.1650  0.1261  0.5516
   95MOL0     H12494  12.427   1.295   3.111  0.8999  0.1140  0.1818
   95MOL0     H12495  12.410   1.452   3.170 -2.0380 -2.2557  0.6354
   95MOL0     H12496  12.546   1.527   2.946  1.4531 -1.2039 -3.0300
   95MOL0     H12497  12.548   1.353   2.906  0.2462  0.2277 -0.9573
   95MOL0     H12498  12.677   1.471   3.154 -1.0814  2.0590 -2.0875
   95MOL0     H12499  12.678   1.305   3.121 -2.2570 -0.3989 -0.0955
   95MOL0     H12500  12.800   1.549   2.977 -0.3055  0.7361  2.0519
   95MOL0     H12501  12.782   1.387   2.892  3.9212 -1.6805  0.0228
   95MOL0     H12502  13.126   1.243   3.064 -1.2140  0.4258  1.9590
   95MOL0     H12503  13.344   1.288   2.946  1.6513  1.5480  0.2779
   95MOL0     H12504  13.673   1.567   2.840  2.2138 -0.7500  2.1182
   95MOL0     H12505  13.929   1.561   2.779 -1.9250  1.8873  1.8860
   95MOL0     H12506  14.062   1.210   2.784 -2.1130  1.5986 -0.5337
   95MOL0     H12507  14.187   1.341   2.790 -2.3082  2.7168 -1.2525
   95MOL0     H12508  14.245   1.277   2.540  0.4828 -1.8310  0.6112
   95MOL0     H12509  14.139   1.135   2.569  0.5047 -1.8653  1.5239
   95MOL0     H12510  14.276   1.069   2.749 -3.5500  2.1277  0.2724
   95MOL0     H12511  14.394   1.205   2.712  1.2131 -0.4736 -1.2596
   95MOL0     H12512  14.345   0.996   2.506 -1.5378  0.2049 -0.6411
   95MOL0     H12513  14.444   1.151   2.518 -1.4124  2.2363  2.0768
   95MOL0     H12514  14.478   0.959   2.744  2.0530  1.9857  2.0052
   95MOL0     H12515  14.575   1.084   2.664  1.4247 -0.3217  0.2871
   95MOL0     H12516  14.523   0.805   2.550  1.1134 -0.3550  1.7387
   95MOL0     H12517  14.665   0.863   2.625  0.9935  0.6882 -0.1556
   95MOL0     H12518  14.545   0.959   2.359 -2.5432  0.6101  2.4914
   95MOL0     H12519  14.680   1.039   2.415  1.9378 -0.7880 -0.8462
   95MOL0     H12520  14.769   0.870   2.273  3.5930  0.5757  1.3096
   95MOL0     H12521  14.654   0.741   2.332 -1.4920  1.8329 -0.1000
   95MOL0     H12522  13.855   1.182   2.584 -1.6090  0.4780 -0.6119
   95MOL0     H12523  13.626   1.194   2.645  0.4934  0.0789  1.5301
   95MOL0     H12524  13.189   1.629   2.757 -0.0068 -1.1783 -1.8975
   95MOL0     H12525  12.971   1.595   2.875  1.1807  1.7199  1.1173
   95MOL0     H12526  11.442   0.578   3.031 -0.7280 -2.4339  0.1460
   95MOL0     H12527  11.251   0.473   3.053  0.8360 -0.4817 -1.4912
   95MOL0     H12528  10.919   0.388   3.371 -0.3138 -1.8445  1.1587
   95MOL0     H12529  10.742   0.206   3.420  2.5885  0.4618  0.6792
   95MOL0     H12530  10.442   0.169   3.172 -0.7851 -2.7856 -0.4904
   95MOL0     H12531  10.495   0.240   3.328  1.1771 -1.0367 -0.5847
   95MOL0     H12532  10.357  -0.017   3.277  1.2425 -0.3209 -1.5355
   95MOL0     H12533  10.434   0.025   3.436  2.2765  0.6210 -0.7519
   95MOL0     H12534  10.209   0.201   3.298 -3.2545 -0.6845  1.1270
   95MOL0     H12535  10.275   0.208   3.465  1.1025 -0.0169 -0.3241
   95MOL0     H12536  10.125  -0.040   3.358 -2.9692 -3.1558  4.3123
   95MOL0     H12537  10.198  -0.026   3.508 -3.3916 -1.2649  0.7094
   95MOL0     H12538   9.811   0.118   3.576 -0.2365 -1.2751 -0.8471
   95MOL0     H12539  10.658   0.176   3.013 -0.9623  1.0163  0.4196
   95MOL0     H12540  10.804   0.384   2.956 -1.1212  1.0624  0.1782
   96MOL0     O12541   8.113   2.227  10.187  0.3089 -0.7909 -0.1824
   96MOL0     C12542   8.201   2.273  10.123  0.1044  0.4077  0.2974
   96MOL0     O12543   8.186   2.331  10.000  0.0357 -0.1548  0.1708
   96MOL0     C12544   8.062   2.327   9.944  0.1271  0.2392  0.4980
   96MOL0     C12545   7.944   2.358  10.008 -0.6642 -0.4078  0.5818
   96MOL0     C12546   7.826   2.360   9.929  0.6604 -0.7652 -0.3773
   96MOL0     C12547   7.823   2.325   9.798 -0.4653  0.1041 -0.9158
   96MOL0     O12548   7.722   2.328   9.711 -0.1202 -0.0638 -0.8912
   96MOL0     C12549   7.586   2.353   9.752  0.5190  0.2789  0.4094
   96MOL0     C12550   7.495   2.312   9.640 -0.3778  0.4779 -1.0326
   96MOL0     C12551   7.347   2.322   9.668 -0.0220 -0.3861  0.2057
   96MOL0     C12552   7.273   2.442   9.608 -0.5664  0.4030 -0.0211
   96MOL0     C12553   7.121   2.450   9.649 -0.4330  0.0587 -0.1791
   96MOL0     C12554   7.037   2.329   9.607  0.1069 -0.7866  0.2120
   96MOL0     C12555   6.884   2.361   9.603 -0.1135  0.2335  0.3806
   96MOL0     C12556   6.813   2.259   9.516  0.3746  0.3661  0.1492
   96MOL0     N12557   6.666   2.284   9.505 -0.2008  0.1635  0.4040
   96MOL0     C12558   6.577   2.367   9.562  0.6033 -0.6790 -0.6711
   96MOL0     C12559   6.455   2.354   9.503 -0.0565 -0.9972  0.1559
   96MOL0     C12560   6.326   2.422   9.547  0.0648  0.4665 -0.1432
   96MOL0     C12561   6.267   2.483   9.425 -0.1488  0.2561 -0.3407
   96MOL0     C12562   6.185   2.391   9.332  1.2065  0.6771 -0.7644
   96MOL0     C12563   6.062   2.466   9.281 -0.1723 -0.2681 -0.4886
   96MOL0     O12564   5.997   2.363   9.223  0.1884  0.7302 -0.3916
   96MOL0     C12565   5.856   2.372   9.220  0.1116  0.1366  0.4622
   96MOL0     C12566   5.801   2.485   9.160  0.3928 -0.3218 -0.0192
   96MOL0     C12567   5.663   2.483   9.123  0.3010  0.4246  0.2760
   96MOL0     C12568   5.579   2.380   9.163 -0.1399 -0.2868 -0.2139
   96MOL0     C12569   5.426   2.378   9.143 -0.4086  0.0688  0.1009
   96MOL0     O12570   5.357   2.270   9.187 -0.5002  0.0962  0.6072
   96MOL0     C12571   5.221   2.276   9.188 -0.7501  0.6712 -1.0275
   96MOL0     C12572   5.155   2.276   9.316 -0.1506 -0.3249 -0.5833
   96MOL0     C12573   5.015   2.284   9.325  0.3866  0.7860  0.8486
   96MOL0     C12574   4.934   2.283   9.210 -0.5568  0.1429  0.1642
   96MOL0     O12575   4.800   2.274   9.238 -0.3537 -0.6663  0.3495
   96MOL0     C12576   4.704   2.332   9.152  0.7331 -0.4867  0.1969
   96MOL0     C12577   4.566   2.297   9.209 -0.2336 -0.7300 -0.1665
   96MOL0     C12578   4.498   2.415   9.273  0.0891 -1.0504  0.6111
   96MOL0     C12579   4.452   2.520   9.167  0.0640 -0.8678  0.4324
   96MOL0     C12580   4.372   2.471   9.046 -0.3232  0.0464  0.2563
   96MOL0     C12581   4.250   2.392   9.081  0.1742  0.3955  0.0353
   96MOL0     C12582   4.179   2.329   8.955 -0.4237 -0.0431 -0.0177
   96MOL0     C12583   4.234   2.203   8.910  0.3569  0.5764 -0.6743
   96MOL0    Cl12584   4.179   2.085   9.036 -0.1522 -0.2110  0.0838
   96MOL0     C12585   4.994   2.266   9.089 -0.1943  0.4299 -0.1842
   96MOL0     C12586   5.133   2.265   9.074 -0.0929 -0.6735  0.3667
   96MOL0     O12587   5.381   2.487   9.107 -0.0210 -0.8407  0.0461
   96MOL0     C12588   5.643   2.279   9.231 -0.1654  0.1204 -0.2150
   96MOL0     C12589   5.774   2.267   9.255 -0.3562  0.3136 -0.2901
   96MOL0     N12590   6.475   2.262   9.405 -0.0493  0.9008  0.6843
   96MOL0     N12591   6.593   2.225   9.406 -0.7767 -0.2336  0.6893
   96MOL0     C12592   7.943   2.279   9.743  0.3274  0.1483  0.4195
   96MOL0     C12593   8.060   2.291   9.805 -0.3303 -0.6274 -0.3932
   96MOL0     C12594   8.328   2.284  10.192  0.0256  0.1572 -0.4697
   96MOL0     C12595   8.442   2.307  10.110  0.9053 -0.9876 -0.8017
   96MOL0     C12596   8.571   2.307  10.173 -0.1768  0.0395  0.0474
   96MOL0     C12597   8.585   2.275  10.304  0.0330  0.5906 -0.0120
   96MOL0     O12598   8.705   2.245  10.366  1.0008  0.3773 -0.3734
   96MOL0     C12599   8.824   2.211  10.295  0.6794  0.7145  0.5490
   96MOL0     C12600   8.925   2.145  10.376 -1.1326  0.4653 -0.4110
   96MOL0     C12601   9.068   2.144  10.307  0.8488 -0.1921 -0.0557
   96MOL0     C12602   9.187   2.083  10.387  0.6794  0.0054 -0.6054
   96MOL0     C12603   9.310   2.064  10.312 -0.0991 -0.9499  0.4424
   96MOL0     C12604   9.418   2.080  10.257 -0.1714  1.0035 -0.3831
   96MOL0     C12605   8.469   2.258  10.386 -0.0994  0.4668  0.3805
   96MOL0     C12606   8.342   2.269  10.334 -0.1077  0.0530  0.1692
   96MOL0     H12607   7.937   2.392  10.110 -2.0769 -0.1355  0.4240
   96MOL0     H12608   7.738   2.408   9.971  0.9387 -1.9531  1.7183
   96MOL0     H12609   7.564   2.454   9.787  0.0070 -0.3445  1.9848
   96MOL0     H12610   7.561   2.286   9.835 -3.0323  1.0565  0.1252
   96MOL0     H12611   7.519   2.207   9.622 -1.2202  0.0718  0.0861
   96MOL0     H12612   7.523   2.375   9.554  1.2521  0.9559 -0.1865
   96MOL0     H12613   7.333   2.324   9.777  2.7694  1.1929  0.6515
   96MOL0     H12614   7.298   2.236   9.623 -1.8338  0.5743  0.2564
   96MOL0     H12615   7.332   2.533   9.623  1.1554 -0.4369 -1.4159
   96MOL0     H12616   7.270   2.439   9.499 -2.2628 -2.7168  0.0013
   96MOL0     H12617   7.078   2.540   9.603  0.5495  0.8143  0.3595
   96MOL0     H12618   7.125   2.460   9.757  0.6544 -0.4926 -0.1462
   96MOL0     H12619   7.052   2.248   9.680  0.2834 -1.3218 -0.4026
   96MOL0     H12620   7.069   2.290   9.510  0.4115  1.7560 -0.7660
   96MOL0     H12621   6.841   2.359   9.704  1.1576  1.4044  0.9709
   96MOL0     H12622   6.858   2.460   9.565  0.4370  0.2430  0.0103
   96MOL0     H12623   6.823   2.157   9.555 -1.4394  1.0616  2.6522
   96MOL0     H12624   6.862   2.278   9.420  1.4295  2.6921  1.0747
   96MOL0     H12625   6.588   2.444   9.638 -1.8037 -2.1161  1.2781
   96MOL0     H12626   6.341   2.501   9.621  0.5077  0.6550 -0.4295
   96MOL0     H12627   6.263   2.348   9.596  1.2702 -1.9993 -2.0642
   96MOL0     H12628   6.351   2.521   9.365  1.2324 -2.3999 -0.2639
   96MOL0     H12629   6.209   2.569   9.458 -0.6305 -1.2000  2.9347
   96MOL0     H12630   6.255   2.344   9.262  3.6267 -1.9144  2.9748
   96MOL0     H12631   6.148   2.306   9.390 -0.1728  0.2823 -2.1601
   96MOL0     H12632   6.085   2.549   9.214  1.2562 -0.8115 -0.6961
   96MOL0     H12633   6.002   2.499   9.366  0.2054  0.2601 -0.4238
   96MOL0     H12634   5.862   2.569   9.129  2.2398 -0.5321  2.7106
   96MOL0     H12635   5.627   2.573   9.072  3.6368  0.8049 -1.7369
   96MOL0     H12636   5.204   2.286   9.412 -1.8113 -4.1643  0.8356
   96MOL0     H12637   4.969   2.300   9.422 -0.2607  3.3741  0.1820
   96MOL0     H12638   4.706   2.296   9.049 -0.6035  0.2093 -0.0933
   96MOL0     H12639   4.735   2.437   9.147 -1.3109  0.1661  0.6033
   96MOL0     H12640   4.581   2.223   9.288  2.5814  0.5470  0.6508
   96MOL0     H12641   4.507   2.254   9.127  0.5949 -0.1714 -1.0875
   96MOL0     H12642   4.566   2.469   9.340  1.1706 -0.7998 -0.6362
   96MOL0     H12643   4.407   2.388   9.326 -0.7612 -2.6825 -1.5168
   96MOL0     H12644   4.393   2.602   9.207  0.8802  0.2106 -0.5084
   96MOL0     H12645   4.541   2.572   9.130 -0.7014  1.0604  1.2074
   96MOL0     H12646   4.439   2.406   8.989  1.1103  3.2023 -1.9770
   96MOL0     H12647   4.357   2.555   8.978  3.2378  1.6171  1.1455
   96MOL0     H12648   4.180   2.456   9.135 -1.4315 -1.0721 -0.2176
   96MOL0     H12649   4.276   2.307   9.144  2.6227  2.4321  1.9836
   96MOL0     H12650   4.078   2.311   8.991 -0.4231  0.5853  0.3137
   96MOL0     H12651   4.168   2.392   8.865  1.2844 -0.3863 -0.5058
   96MOL0     H12652   4.343   2.214   8.906  0.7899 -2.9931 -2.1474
   96MOL0     H12653   4.206   2.172   8.809 -1.5798 -1.0214  0.2916
   96MOL0     H12654   4.935   2.255   8.998  1.6885 -0.1451 -1.3960
   96MOL0     H12655   5.174   2.248   8.976  2.1031  4.4633  0.0634
   96MOL0     H12656   5.572   2.205   9.267 -2.3008  2.4202  0.5470
   96MOL0     H12657   5.807   2.175   9.303  1.2594  1.1406  0.2619
   96MOL0     H12658   7.946   2.278   9.635 -4.9959 -1.4276 -0.0027
   96MOL0     H12659   8.151   2.259   9.756  0.3829  0.3150  0.2715
   96MOL0     H12660   8.443   2.337  10.006  0.9291  1.9875 -0.0334
   96MOL0     H12661   8.666   2.328  10.125  0.0735 -0.8002  0.1526
   96MOL0     H12662   8.867   2.303  10.254 -1.5475  0.1076 -3.8100
   96MOL0     H12663   8.807   2.151  10.205 -1.1452  0.3434  1.1030
   96MOL0     H12664   8.930   2.194  10.474 -0.8875 -1.3837  0.5390
   96MOL0     H12665   8.901   2.042  10.401 -2.3615  1.1338  1.3165
   96MOL0     H12666   9.090   2.251  10.296 -0.6867  0.5226  3.0161
   96MOL0     H12667   9.059   2.096  10.209  0.5978  1.8699 -1.0928
   96MOL0     H12668   9.229   2.141  10.470  1.0899 -1.9487  0.6215
   96MOL0     H12669   9.156   1.997  10.447 -1.5133  2.1291  1.5037
   96MOL0     H12670   9.509   2.099  10.204 -0.5823  0.6152 -1.2332
   96MOL0     H12671   8.485   2.225  10.488 -0.6789 -2.6148 -0.4117
   96MOL0     H12672   8.251   2.253  10.392  0.1098 -0.5833  0.3460
   97MOL0     O12673   6.063   7.817   0.684 -0.1855 -0.4280 -0.4346
   97MOL0     C12674   6.033   7.703   0.712 -0.5122  0.1783 -0.2721
   97MOL0     O12675   5.931   7.637   0.667  0.2121  0.0785  0.0165
   97MOL0     C12676   5.878   7.671   0.544 -0.9797 -0.7645 -0.3494
   97MOL0     C12677   5.959   7.658   0.426 -0.2852 -0.1180 -1.5803
   97MOL0     C12678   5.917   7.695   0.303  0.1820 -0.3480  0.4987
   97MOL0     C12679   5.782   7.737   0.285 -0.6790  0.5202  0.0063
   97MOL0     O12680   5.739   7.782   0.164 -0.0621 -0.0472 -0.5631
   97MOL0     C12681   5.810   7.758   0.047 -0.4516  0.0259  0.1746
   97MOL0     C12682   5.734   7.804  -0.079 -0.3051 -0.0619 -0.9580
   97MOL0     C12683   5.756   7.955  -0.087  0.1834 -0.3960  0.0280
   97MOL0     C12684   5.696   8.012  -0.215  0.3073 -0.2181 -0.6984
   97MOL0     C12685   5.738   8.158  -0.254 -0.1319  0.5884  0.2849
   97MOL0     C12686   5.677   8.207  -0.391  0.7265  0.0772 -0.4891
   97MOL0     C12687   5.700   8.356  -0.423 -0.0934  0.2082  1.4225
   97MOL0     C12688   5.850   8.390  -0.416  0.1349 -0.1854 -0.2305
   97MOL0     N12689   5.886   8.504  -0.507 -0.8121  0.2310  0.0011
   97MOL0     C12690   6.017   8.518  -0.549 -1.3430 -0.2776 -0.7731
   97MOL0     C12691   6.015   8.630  -0.630  0.2334  0.4575 -0.3174
   97MOL0     C12692   6.140   8.704  -0.695 -0.3049  0.0827  0.0639
   97MOL0     C12693   6.237   8.782  -0.602  1.4138  0.3066  0.3103
   97MOL0     C12694   6.338   8.686  -0.534  0.2668  0.5796 -0.3071
   97MOL0     C12695   6.465   8.754  -0.467 -0.5027  0.3398 -0.1072
   97MOL0     O12696   6.551   8.641  -0.440 -1.1182 -0.7088 -0.0434
   97MOL0     C12697   6.660   8.677  -0.361 -0.0545  0.5354 -0.9994
   97MOL0     C12698   6.730   8.802  -0.369  1.3194 -0.6983 -0.5662
   97MOL0     C12699   6.837   8.826  -0.282 -0.5226 -0.4548  0.4481
   97MOL0     C12700   6.891   8.725  -0.202 -0.5930  0.5113  0.7655
   97MOL0     C12701   7.005   8.744  -0.107  0.2945 -0.1513  0.0528
   97MOL0     O12702   7.040   8.874  -0.077 -1.0912  0.2220 -0.0343
   97MOL0     C12703   7.152   8.907   0.009  0.2185  0.6743 -0.1586
   97MOL0     C12704   7.219   9.031  -0.005  0.1355  0.6510  0.0344
   97MOL0     C12705   7.327   9.069   0.078  0.4353  0.1834  0.8142
   97MOL0     C12706   7.353   8.985   0.197  0.8854  0.6193  0.1874
   97MOL0     O12707   7.450   9.016   0.299 -0.1707 -0.1517  0.3947
   97MOL0     C12708   7.541   9.137   0.299  0.1539  0.4881  0.5996
   97MOL0     C12709   7.664   9.118   0.213 -0.2540  0.8793 -0.7947
   97MOL0     C12710   7.762   9.019   0.278 -0.0443 -0.2132 -0.2291
   97MOL0     C12711   7.896   9.038   0.197 -0.2587  0.3511  0.0537
   97MOL0     C12712   8.007   8.950   0.261  0.2062 -0.7981  1.1084
   97MOL0     C12713   8.142   8.968   0.187  0.2172 -0.3744  0.1861
   97MOL0     C12714   8.243   9.047   0.258  0.3289  0.1928  0.1335
   97MOL0     C12715   8.214   9.192   0.251  1.1826  0.1882  0.3490
   97MOL0    Cl12716   8.121   9.270   0.379  0.1772  0.3304  0.2006
   97MOL0     C12717   7.285   8.864   0.205 -0.7432 -0.0496 -0.3894
   97MOL0     C12718   7.180   8.827   0.128  0.6902 -0.6537  0.1892
   97MOL0     O12719   7.057   8.644  -0.068 -0.3664 -0.2618 -0.4224
   97MOL0     C12720   6.830   8.601  -0.208  0.5307  0.7494  1.0410
   97MOL0     C12721   6.725   8.575  -0.288 -0.1385  0.1990  0.5525
   97MOL0     N12722   5.886   8.684  -0.623 -0.3003  0.3103 -0.5980
   97MOL0     N12723   5.807   8.607  -0.557 -0.4327 -0.1445  0.2358
   97MOL0     C12724   5.696   7.738   0.399  0.5650 -0.6937 -0.5846
   97MOL0     C12725   5.746   7.702   0.525  1.0403  0.2689 -0.7824
   97MOL0     C12726   6.125   7.620   0.799  0.3115 -0.1262 -0.2851
   97MOL0     C12727   6.255   7.668   0.846  0.1583 -0.6002  0.0862
   97MOL0     C12728   6.345   7.587   0.920  0.1338 -0.2446  0.1524
   97MOL0     C12729   6.310   7.463   0.950  0.3307 -0.2772 -0.4044
   97MOL0     O12730   6.398   7.392   1.023 -0.4559  0.5988  1.0059
   97MOL0     C12731   6.345   7.320   1.134 -0.7589 -0.7299  0.4690
   97MOL0     C12732   6.440   7.338   1.253 -0.5689  0.0729  0.1160
   97MOL0     C12733   6.583   7.269   1.239  0.0777  0.2247  0.1276
   97MOL0     C12734   6.669   7.297   1.359  0.5109  0.2949  0.4164
   97MOL0     C12735   6.800   7.238   1.331 -0.8315  0.2417 -0.8584
   97MOL0     C12736   6.915   7.196   1.308 -0.6612  0.2334 -0.5434
   97MOL0     C12737   6.195   7.408   0.896  0.2773 -0.7825  0.0244
   97MOL0     C12738   6.106   7.481   0.821  0.7646 -0.0810 -0.3192
   97MOL0     H12739   6.063   7.627   0.433 -0.0488  0.8900 -0.0826
   97MOL0     H12740   5.988   7.687   0.221 -0.0239 -1.8554  0.4376
   97MOL0     H12741   5.820   7.649   0.037 -1.3901 -0.0120 -0.4875
   97MOL0     H12742   5.903   7.815   0.048  0.6973 -1.2776 -4.8379
   97MOL0     H12743   5.630   7.771  -0.076  0.1483 -1.4979  0.3650
   97MOL0     H12744   5.778   7.763  -0.170  1.8658 -1.8195  0.7371
   97MOL0     H12745   5.863   7.975  -0.092  0.4686 -1.5418  1.1697
   97MOL0     H12746   5.706   8.007  -0.005 -1.2683 -1.6692  0.0016
   97MOL0     H12747   5.703   7.935  -0.293 -2.0693  0.8390 -2.0439
   97MOL0     H12748   5.587   8.015  -0.209  0.3091 -0.7277 -0.2789
   97MOL0     H12749   5.847   8.166  -0.266  0.0730 -1.9295 -0.2307
   97MOL0     H12750   5.711   8.220  -0.168 -3.2347  2.3697 -1.8062
   97MOL0     H12751   5.572   8.177  -0.394  0.6658  0.3061 -0.6587
   97MOL0     H12752   5.721   8.148  -0.472  1.4466  0.6962 -0.5585
   97MOL0     H12753   5.675   8.365  -0.529  2.4870 -0.3189  0.6783
   97MOL0     H12754   5.632   8.424  -0.370 -1.6341  0.6136 -0.9546
   97MOL0     H12755   5.908   8.299  -0.433 -0.2415 -0.2706 -1.0600
   97MOL0     H12756   5.879   8.410  -0.312 -0.0694 -1.4300  0.0770
   97MOL0     H12757   6.099   8.454  -0.517 -1.4724 -0.2136 -0.2987
   97MOL0     H12758   6.092   8.766  -0.771 -1.0923  1.5269  1.6546
   97MOL0     H12759   6.210   8.637  -0.744  1.7697  0.9423  1.6974
   97MOL0     H12760   6.166   8.819  -0.527  1.0308 -0.2763  0.2459
   97MOL0     H12761   6.283   8.864  -0.657 -4.2963  4.5760  0.9475
   97MOL0     H12762   6.286   8.632  -0.454  1.7121  0.8396  0.8496
   97MOL0     H12763   6.368   8.616  -0.612  1.5066  5.0621 -4.3447
   97MOL0     H12764   6.451   8.818  -0.379 -2.1124 -0.0112 -0.0782
   97MOL0     H12765   6.513   8.811  -0.547 -2.5571 -0.7141 -2.2112
   97MOL0     H12766   6.696   8.882  -0.433  0.0098  0.7651  1.7828
   97MOL0     H12767   6.868   8.929  -0.266  0.5359 -0.8257  0.8529
   97MOL0     H12768   7.183   9.085  -0.093  0.3383 -3.7522 -3.1038
   97MOL0     H12769   7.381   9.159   0.049 -0.2240 -0.7869 -4.2803
   97MOL0     H12770   7.576   9.156   0.401 -1.1259  0.5555  1.0455
   97MOL0     H12771   7.477   9.215   0.257  2.4381  1.6245 -1.0027
   97MOL0     H12772   7.710   9.217   0.222  1.4385  0.1020 -0.4561
   97MOL0     H12773   7.649   9.103   0.106  0.7453  3.6704 -1.4229
   97MOL0     H12774   7.729   8.915   0.279 -1.6564  0.2153  2.5792
   97MOL0     H12775   7.772   9.053   0.382 -3.9317 -0.7172  0.4353
   97MOL0     H12776   7.893   9.004   0.094  1.3841 -1.1403  0.4402
   97MOL0     H12777   7.925   9.144   0.202 -0.4686  0.4143 -0.0750
   97MOL0     H12778   7.973   8.847   0.246  1.2382 -0.6255 -5.2922
   97MOL0     H12779   8.023   8.971   0.367  0.9673  2.4773  0.4659
   97MOL0     H12780   8.139   8.990   0.079  0.9217 -0.0075  0.2385
   97MOL0     H12781   8.180   8.866   0.196  1.7943  0.3668  3.2809
   97MOL0     H12782   8.271   9.004   0.355  0.2742  1.0808  0.5482
   97MOL0     H12783   8.334   9.033   0.198  0.8619 -2.4400  1.4296
   97MOL0     H12784   8.165   9.204   0.155  1.1115 -0.0736  0.3508
   97MOL0     H12785   8.315   9.231   0.239  1.1962  0.3113  0.8148
   97MOL0     H12786   7.322   8.807   0.290  0.0290 -0.2715 -0.8729
   97MOL0     H12787   7.115   8.743   0.150 -1.1557  0.2466 -1.4963
   97MOL0     H12788   6.872   8.516  -0.155 -0.6450  1.8282  3.9094
   97MOL0     H12789   6.675   8.479  -0.296 -1.6975  0.9443  1.1548
   97MOL0     H12790   5.594   7.776   0.391  0.9728  1.0713  1.6973
   97MOL0     H12791   5.674   7.713   0.606 -0.2891  3.8510 -2.2308
   97MOL0     H12792   6.290   7.767   0.817  2.5400 -1.2989  0.3524
   97MOL0     H12793   6.442   7.626   0.947  0.5113 -0.9334 -0.1886
   97MOL0     H12794   6.344   7.214   1.104 -1.7573 -0.3495 -0.9279
   97MOL0     H12795   6.242   7.351   1.149 -0.2067  1.1989  0.5192
   97MOL0     H12796   6.455   7.445   1.273 -3.2682  0.0390  3.3112
   97MOL0     H12797   6.398   7.294   1.344 -0.9097 -0.0104 -0.0848
   97MOL0     H12798   6.636   7.306   1.151 -0.2852 -0.5351 -0.4257
   97MOL0     H12799   6.566   7.162   1.224  0.3504  0.1633  0.2474
   97MOL0     H12800   6.688   7.404   1.373  3.1656 -0.0785  0.1764
   97MOL0     H12801   6.638   7.250   1.453 -2.2307 -3.0425 -1.9096
   97MOL0     H12802   7.017   7.176   1.281  0.2086  2.3797  0.9140
   97MOL0     H12803   6.179   7.301   0.907 -2.4746 -0.6251 -1.7109
   97MOL0     H12804   6.018   7.430   0.783  0.7562 -0.6772  0.4679
   98MOL0     O12805   1.995   0.212   7.920  1.1809  0.7111 -0.2378
   98MOL0     C12806   1.947   0.205   8.037 -0.8905  0.0787  0.3312
   98MOL0     O12807   2.010   0.243   8.151 -0.4892  0.2905 -0.2470
   98MOL0     C12808   2.134   0.291   8.138 -0.9478 -0.3480  0.0632
   98MOL0     C12809   2.240   0.208   8.109 -0.3752  0.6098  1.3134
   98MOL0     C12810   2.374   0.250   8.098 -0.1507 -1.4909 -0.4071
   98MOL0     C12811   2.405   0.386   8.117 -0.3662  0.7247 -1.1119
   98MOL0     O12812   2.537   0.430   8.124  0.4256 -0.3414  0.0272
   98MOL0     C12813   2.639   0.341   8.074 -0.3197 -0.0088  0.5086
   98MOL0     C12814   2.759   0.436   8.039 -0.4891 -0.5614  0.0854
   98MOL0     C12815   2.736   0.508   7.897  0.8816  0.1112 -0.1001
   98MOL0     C12816   2.797   0.431   7.776  0.2071 -0.6633  0.0654
   98MOL0     C12817   2.753   0.484   7.643 -0.1306 -0.6314 -0.5020
   98MOL0     C12818   2.812   0.401   7.536 -0.2170  0.4684  0.2347
   98MOL0     C12819   2.779   0.447   7.400  0.1794  0.1922  0.2650
   98MOL0     C12820   2.796   0.334   7.301 -0.2617  0.9517 -0.0536
   98MOL0     N12821   2.742   0.375   7.172  0.8416 -0.1830  0.4416
   98MOL0     C12822   2.812   0.384   7.052  0.4314 -0.4050  0.9216
   98MOL0     C12823   2.710   0.363   6.966  0.1723  0.5370  0.9744
   98MOL0     C12824   2.735   0.344   6.817 -0.0500 -0.1261  1.1373
   98MOL0     C12825   2.691   0.464   6.730  0.0677 -0.1333  0.5080
   98MOL0     C12826   2.743   0.597   6.786  0.1607 -0.6796 -0.3577
   98MOL0     C12827   2.880   0.638   6.742  0.4856  0.6226 -0.3452
   98MOL0     O12828   2.976   0.561   6.824 -0.1279  0.4257  0.2762
   98MOL0     C12829   3.110   0.569   6.799  0.2207 -0.1426  0.1580
   98MOL0     C12830   3.169   0.623   6.689  0.3378  1.0605 -0.3191
   98MOL0     C12831   3.307   0.621   6.671  0.7293 -0.2235 -0.5442
   98MOL0     C12832   3.385   0.561   6.773  0.2088  0.0933  0.6430
   98MOL0     C12833   3.536   0.545   6.750  0.3075  0.0133 -0.2703
   98MOL0     O12834   3.614   0.508   6.856 -0.2329  0.1088  0.4560
   98MOL0     C12835   3.759   0.506   6.838  0.9987 -0.0243 -0.5640
   98MOL0     C12836   3.828   0.592   6.925  0.8283  0.5095  0.3397
   98MOL0     C12837   3.966   0.591   6.935  0.3608 -0.2133  0.0569
   98MOL0     C12838   4.042   0.504   6.855  0.6560  1.1530 -0.3694
   98MOL0     O12839   4.173   0.501   6.880  0.3824 -0.4518  0.3901
   98MOL0     C12840   4.257   0.424   6.796 -0.3286  0.5038 -1.2010
   98MOL0     C12841   4.407   0.453   6.804  0.3182 -1.0858  0.9215
   98MOL0     C12842   4.438   0.607   6.766  0.1239  0.6078 -0.2197
   98MOL0     C12843   4.582   0.650   6.803 -0.5903  1.3397 -0.8158
   98MOL0     C12844   4.665   0.567   6.700 -0.1038 -1.0550 -1.1057
   98MOL0     C12845   4.793   0.646   6.667  0.5191  1.1874 -0.6012
   98MOL0     C12846   4.877   0.558   6.572 -1.3655  0.5485  0.1840
   98MOL0     C12847   5.017   0.600   6.579  0.2417 -0.0214 -0.1199
   98MOL0    Cl12848   5.108   0.516   6.707  0.4516 -0.1679 -0.3594
   98MOL0     C12849   3.976   0.434   6.758  0.4257  0.9827 -0.1411
   98MOL0     C12850   3.838   0.434   6.747  0.4947  0.5972 -1.0782
   98MOL0     O12851   3.580   0.569   6.636 -0.5286 -0.1164 -0.5421
   98MOL0     C12852   3.327   0.506   6.885  0.5439  0.6613 -0.4988
   98MOL0     C12853   3.185   0.505   6.891  0.1569  0.2377 -0.6586
   98MOL0     N12854   2.593   0.353   7.027 -0.2106 -0.4590  0.1842
   98MOL0     N12855   2.612   0.353   7.150 -0.4792 -0.7882 -0.2065
   98MOL0     C12856   2.304   0.474   8.140  0.1269  0.1443  0.7647
   98MOL0     C12857   2.170   0.429   8.160  0.0789 -0.5059  0.2927
   98MOL0     C12858   1.825   0.125   8.051  0.1714 -0.3296  1.0020
   98MOL0     C12859   1.762   0.096   8.175  0.9331  0.2464 -0.2320
   98MOL0     C12860   1.642   0.022   8.176 -0.0639  0.2969  0.0070
   98MOL0     C12861   1.577  -0.028   8.057 -1.2793  0.3050  0.4553
   98MOL0     O12862   1.476  -0.122   8.067 -0.4346 -0.4864  0.0880
   98MOL0     C12863   1.461  -0.231   7.976 -1.2352 -0.1900 -0.6893
   98MOL0     C12864   1.341  -0.311   8.023 -1.0862  0.2066 -1.0954
   98MOL0     C12865   1.379  -0.443   8.109  0.1478  0.3077 -0.0023
   98MOL0     C12866   1.247  -0.488   8.193 -0.0909 -0.1792 -0.1045
   98MOL0     C12867   1.272  -0.441   8.324 -0.1225  0.1603 -0.1063
   98MOL0     C12868   1.276  -0.392   8.432  0.4366 -0.9937  0.0524
   98MOL0     C12869   1.643  -0.003   7.937  0.5828 -1.0405  0.4331
   98MOL0     C12870   1.758   0.078   7.934  0.1416  0.4068  0.2653
   98MOL0     H12871   2.219   0.104   8.089 -2.7238  0.8321  2.2559
   98MOL0     H12872   2.447   0.172   8.081  0.1197 -1.4637  0.5556
   98MOL0     H12873   2.610   0.293   7.980  1.4989  0.5706 -0.3931
   98MOL0     H12874   2.669   0.267   8.148 -0.3276  0.3296  0.8529
   98MOL0     H12875   2.856   0.386   8.045 -0.5441 -0.5839  0.8959
   98MOL0     H12876   2.771   0.524   8.102 -0.5407  0.1732 -0.9122
   98MOL0     H12877   2.783   0.607   7.902  2.8230 -0.8264  1.8581
   98MOL0     H12878   2.630   0.536   7.888  1.2677  0.9586 -3.7432
   98MOL0     H12879   2.906   0.433   7.784  0.1963  0.6791  0.1763
   98MOL0     H12880   2.779   0.324   7.782 -1.0041 -0.4541  0.3325
   98MOL0     H12881   2.788   0.587   7.633 -1.3818 -0.2573 -1.2341
   98MOL0     H12882   2.645   0.482   7.627 -0.0472 -2.5691 -1.1927
   98MOL0     H12883   2.785   0.296   7.548  1.3977 -0.4632 -3.0581
   98MOL0     H12884   2.921   0.399   7.539 -0.1955 -1.2180 -0.4332
   98MOL0     H12885   2.676   0.482   7.398  0.9348  2.5153 -0.0746
   98MOL0     H12886   2.848   0.522   7.361  0.6636  0.1597  1.0450
   98MOL0     H12887   2.735   0.250   7.336 -0.2720  0.9977  0.0409
   98MOL0     H12888   2.900   0.301   7.295 -0.4751  0.3565 -0.6135
   98MOL0     H12889   2.920   0.384   7.044  0.4229  0.5447  0.7613
   98MOL0     H12890   2.677   0.255   6.791 -1.2053  1.4561 -2.2590
   98MOL0     H12891   2.841   0.318   6.806 -0.0534 -0.4650  1.7961
   98MOL0     H12892   2.582   0.462   6.733 -0.0534  2.0589 -0.6915
   98MOL0     H12893   2.714   0.459   6.623  1.6512  1.4142  0.7405
   98MOL0     H12894   2.664   0.668   6.760  1.0907  0.0777 -1.1453
   98MOL0     H12895   2.740   0.596   6.896 -0.0880 -1.8882 -0.3539
   98MOL0     H12896   2.884   0.747   6.739  3.0903  0.5967 -4.0220
   98MOL0     H12897   2.895   0.592   6.644 -0.4776 -0.1255 -0.1631
   98MOL0     H12898   3.092   0.669   6.627 -2.8682 -2.1607  0.9422
   98MOL0     H12899   3.356   0.650   6.579  2.1026  2.8896  1.0294
   98MOL0     H12900   3.774   0.636   7.009 -0.4471  0.8189 -0.6058
   98MOL0     H12901   4.023   0.639   7.013 -0.1751  0.8308 -0.1811
   98MOL0     H12902   4.226   0.428   6.692  1.5793 -1.3265 -1.9201
   98MOL0     H12903   4.248   0.322   6.834 -0.0669  2.2469  4.7227
   98MOL0     H12904   4.469   0.383   6.747  1.4626  0.5695  0.0730
   98MOL0     H12905   4.446   0.454   6.906 -0.6160 -0.6306  1.2887
   98MOL0     H12906   4.368   0.677   6.813 -2.2528  0.4385 -3.1239
   98MOL0     H12907   4.410   0.632   6.663 -0.9781  2.1596  0.4269
   98MOL0     H12908   4.593   0.757   6.786 -2.5709  2.3415  3.1138
   98MOL0     H12909   4.612   0.616   6.903  0.8964  3.8783 -0.3215
   98MOL0     H12910   4.619   0.550   6.602  1.2517 -2.8178 -1.5019
   98MOL0     H12911   4.692   0.474   6.753 -2.8611  0.2619  3.1604
   98MOL0     H12912   4.826   0.663   6.770 -4.3152  1.1975  1.1986
   98MOL0     H12913   4.779   0.744   6.620  1.4992  0.9084 -1.5323
   98MOL0     H12914   4.875   0.448   6.572  0.2644  0.4924  0.8917
   98MOL0     H12915   4.840   0.574   6.471 -1.0089  0.2525  0.0016
   98MOL0     H12916   5.025   0.709   6.582  2.0615 -0.1533  1.3823
   98MOL0     H12917   5.072   0.582   6.486 -0.9525 -0.4004 -0.7701
   98MOL0     H12918   4.029   0.369   6.689  0.8279  0.1449  0.9386
   98MOL0     H12919   3.790   0.377   6.669 -0.8392 -0.7625  0.6461
   98MOL0     H12920   3.383   0.454   6.961 -2.0034 -2.1988 -0.3775
   98MOL0     H12921   3.158   0.458   6.985  1.3196  1.6970  0.4627
   98MOL0     H12922   2.331   0.579   8.146 -1.0648  0.7714 -2.4365
   98MOL0     H12923   2.096   0.507   8.178 -0.1822 -0.4526 -0.9328
   98MOL0     H12924   1.784   0.127   8.276 -0.8168  1.7029 -0.2463
   98MOL0     H12925   1.592  -0.008   8.268 -1.3886 -0.9850 -1.0828
   98MOL0     H12926   1.555  -0.284   7.959 -1.7712 -2.3748  2.2906
   98MOL0     H12927   1.434  -0.178   7.884  1.7758  0.4795 -1.2720
   98MOL0     H12928   1.281  -0.239   8.081  0.5284 -0.2556  1.2983
   98MOL0     H12929   1.276  -0.357   7.948 -2.6522 -0.7306  0.7430
   98MOL0     H12930   1.460  -0.411   8.175  0.9148  1.1100 -1.2874
   98MOL0     H12931   1.417  -0.519   8.040  0.0029  0.9412 -0.7954
   98MOL0     H12932   1.158  -0.446   8.145 -2.3600 -0.1245  3.7165
   98MOL0     H12933   1.247  -0.596   8.178  0.2709 -0.8536  3.7861
   98MOL0     H12934   1.287  -0.352   8.530 -1.7821 -3.5366  1.4932
   98MOL0     H12935   1.616  -0.052   7.845  0.0616 -2.5991  1.3730
   98MOL0     H12936   1.791   0.110   7.836 -3.7672  1.0810 -1.0382
   99MOL0     O12937   0.166   6.016   9.561 -0.5036  0.3016 -0.0612
   99MOL0     C12938   0.102   6.053   9.460 -0.3733  0.5154  0.0019
   99MOL0     O12939  -0.030   6.091   9.467  0.9070  0.0923  0.2722
   99MOL0     C12940  -0.077   6.117   9.592 -0.0482 -0.2701  0.4564
   99MOL0     C12941  -0.184   6.057   9.637  0.0291  0.0999 -0.2544
   99MOL0     C12942  -0.239   6.066   9.767 -0.5846  0.1309 -0.5745
   99MOL0     C12943  -0.166   6.147   9.858  0.8276 -0.1650 -0.3568
   99MOL0     O12944  -0.231   6.147   9.976 -0.0358  0.4255 -0.2945
   99MOL0     C12945  -0.149   6.174  10.092 -0.4267 -0.3945 -0.0687
   99MOL0     C12946  -0.207   6.116  10.221  0.1305  0.2729 -0.0973
   99MOL0     C12947  -0.326   6.209  10.270 -0.5866 -0.2634 -0.2996
   99MOL0     C12948  -0.379   6.168  10.414 -0.5607  0.6963 -0.5155
   99MOL0     C12949  -0.506   6.231  10.441 -0.0118  0.0266 -0.5123
   99MOL0     C12950  -0.623   6.188  10.351 -0.2342 -0.3275 -0.7462
   99MOL0     C12951  -0.753   6.235  10.414 -0.2496  0.1847  1.0320
   99MOL0     C12952  -0.877   6.200  10.328 -0.5054 -0.4715  0.1008
   99MOL0     N12953  -1.004   6.237  10.388 -0.9565 -0.5771 -0.3712
   99MOL0     C12954  -1.110   6.162  10.367  0.5053  0.0816  0.3104
   99MOL0     C12955  -1.206   6.230  10.435  0.4399  0.2266  0.0966
   99MOL0     C12956  -1.354   6.188  10.450 -0.0915  0.1870 -0.7476
   99MOL0     C12957  -1.368   6.044  10.491  0.6657 -0.1125  0.4040
   99MOL0     C12958  -1.496   5.977  10.435  0.1132  0.1478 -0.4423
   99MOL0     C12959  -1.508   5.830  10.471 -0.4331  0.0295  0.8200
   99MOL0     O12960  -1.604   5.774  10.388 -0.2513  0.7133  1.1311
   99MOL0     C12961  -1.717   5.734  10.448 -0.2828 -0.5918 -0.1063
   99MOL0     C12962  -1.802   5.643  10.381  0.4122 -0.3567  0.0081
   99MOL0     C12963  -1.918   5.601  10.440 -0.8748  0.2548 -0.2382
   99MOL0     C12964  -1.960   5.647  10.563  0.4860 -0.0304  0.1985
   99MOL0     C12965  -2.069   5.586  10.640  0.0678 -0.2200  0.2251
   99MOL0     O12966  -2.083   5.456  10.634  0.0673 -0.0815  0.0424
   99MOL0     C12967  -2.176   5.394  10.724 -1.3953 -0.6333  0.1787
   99MOL0     C12968  -2.158   5.362  10.861 -0.5315  0.6746 -0.3632
   99MOL0     C12969  -2.262   5.324  10.945  0.4830 -0.3742 -0.3487
   99MOL0     C12970  -2.389   5.306  10.898 -0.7453  0.1015  0.0125
   99MOL0     O12971  -2.493   5.274  10.983  0.2483 -1.0454 -0.2815
   99MOL0     C12972  -2.616   5.216  10.924 -0.7689 -0.1822 -1.1687
   99MOL0     C12973  -2.721   5.189  11.028  0.0048  0.0437 -0.2473
   99MOL0     C12974  -2.736   5.301  11.130  0.5737  0.6838  0.5933
   99MOL0     C12975  -2.885   5.297  11.173  0.9470 -0.5993 -0.4368
   99MOL0     C12976  -2.928   5.431  11.225  0.0145 -0.0024 -0.4276
   99MOL0     C12977  -3.081   5.451  11.247 -0.3071  0.1675  0.4488
   99MOL0     C12978  -3.119   5.513  11.385  0.5899 -0.0415 -0.0484
   99MOL0     C12979  -3.065   5.650  11.414 -0.8203 -0.5855 -0.0825
   99MOL0    Cl12980  -3.151   5.712  11.562 -0.1679  0.3599 -0.6197
   99MOL0     C12981  -2.406   5.315  10.758 -0.3029  0.5670  0.4567
   99MOL0     C12982  -2.303   5.360  10.674  0.2111 -0.0547 -0.5053
   99MOL0     O12983  -2.121   5.658  10.724  0.2078 -0.5735  0.0721
   99MOL0     C12984  -1.888   5.751  10.619  0.4653 -0.7278 -0.2635
   99MOL0     C12985  -1.773   5.796  10.564 -0.4754 -0.6940 -0.4191
   99MOL0     N12986  -1.165   6.339  10.493  0.8729 -0.7671  0.1582
   99MOL0     N12987  -1.040   6.352  10.457 -0.1812 -0.2142 -0.6962
   99MOL0     C12988  -0.058   6.225   9.811  0.8283  0.2500 -1.3538
   99MOL0     C12989  -0.014   6.208   9.684  1.0864  0.3565  1.5614
   99MOL0     C12990   0.182   6.036   9.335  0.5488  1.0305 -0.3469
   99MOL0     C12991   0.117   6.071   9.218 -0.0680 -0.2930 -0.0926
   99MOL0     C12992   0.185   6.064   9.093  1.3372 -0.9212 -0.0114
   99MOL0     C12993   0.309   5.998   9.082 -0.4022  0.8648 -0.0233
   99MOL0     O12994   0.388   5.983   8.967  0.0914 -0.3164 -0.1436
   99MOL0     C12995   0.335   6.007   8.834  0.3173 -0.0538 -0.1195
   99MOL0     C12996   0.310   5.876   8.754  0.0595 -0.7493 -0.5231
   99MOL0     C12997   0.453   5.838   8.703 -0.6546 -0.2734 -0.1679
   99MOL0     C12998   0.521   5.921   8.598  0.3966 -0.0134 -0.1176
   99MOL0     C12999   0.432   5.979   8.499  0.6267  0.0200 -0.3062
   99MOL0     C13000   0.359   6.023   8.416 -0.4363 -0.5777  0.0501
   99MOL0     C13001   0.362   5.949   9.198 -0.1344 -0.4936 -0.3632
   99MOL0     C13002   0.307   5.966   9.333 -0.0579  0.7584  0.3818
   99MOL0     H13003  -0.227   5.996   9.558 -1.6206 -0.1697  0.7962
   99MOL0     H13004  -0.325   6.008   9.798 -1.0903  2.4123  2.7052
   99MOL0     H13005  -0.106   6.274  10.098  0.9808 -0.9663 -0.1421
   99MOL0     H13006  -0.057   6.114  10.086  1.0150  1.7864 -1.7814
   99MOL0     H13007  -0.124   6.119  10.292  0.6074 -1.9622 -0.4778
   99MOL0     H13008  -0.242   6.013  10.204  0.3032  0.8367 -5.8909
   99MOL0     H13009  -0.402   6.201  10.192  0.0756 -1.7794 -0.8159
   99MOL0     H13010  -0.294   6.313  10.265  0.6929 -0.7025 -2.5767
   99MOL0     H13011  -0.379   6.059  10.410  1.3709  0.6824 -0.7929
   99MOL0     H13012  -0.300   6.207  10.478 -1.6515  1.1132  0.6201
   99MOL0     H13013  -0.490   6.339  10.432 -0.3472  0.2519  1.1480
   99MOL0     H13014  -0.529   6.197  10.543  2.7376 -2.8239 -0.6676
   99MOL0     H13015  -0.636   6.080  10.338 -0.4980 -0.6456  1.6847
   99MOL0     H13016  -0.614   6.245  10.258 -3.7265  1.3321 -0.2337
   99MOL0     H13017  -0.756   6.194  10.515 -2.4236  0.6958  1.2211
   99MOL0     H13018  -0.756   6.339  10.447 -3.5562  2.1605 -4.2011
   99MOL0     H13019  -0.865   6.093  10.313 -0.0585 -0.4191  0.0789
   99MOL0     H13020  -0.864   6.249  10.231 -0.9193 -1.4910 -0.4810
   99MOL0     H13021  -1.105   6.071  10.307  2.5167  0.2469  0.1688
   99MOL0     H13022  -1.407   6.213  10.357 -1.5644  0.3383  0.0995
   99MOL0     H13023  -1.399   6.249  10.529  1.4668 -2.7164  2.6243
   99MOL0     H13024  -1.374   6.033  10.600  1.3606 -0.2194  0.4363
   99MOL0     H13025  -1.282   5.985  10.459  0.8211  0.6819 -0.6920
   99MOL0     H13026  -1.593   6.022  10.457 -1.0520 -2.5028  0.1728
   99MOL0     H13027  -1.493   5.983  10.326 -2.3290 -0.6005 -0.6085
   99MOL0     H13028  -1.520   5.804  10.577 -0.4254 -0.3488  0.7317
   99MOL0     H13029  -1.417   5.779  10.436 -1.1566  0.4314 -1.8557
   99MOL0     H13030  -1.774   5.607  10.282 -2.0123 -3.6337  0.3507
   99MOL0     H13031  -1.980   5.527  10.390  0.2528 -2.8565  2.6213
   99MOL0     H13032  -2.060   5.386  10.902 -0.3375 -0.7962  0.1216
   99MOL0     H13033  -2.230   5.312  11.048 -0.5681 -1.9980 -0.1769
   99MOL0     H13034  -2.585   5.120  10.881  0.4702  0.9711 -3.0560
   99MOL0     H13035  -2.649   5.282  10.843  1.0645  1.6422 -0.5459
   99MOL0     H13036  -2.701   5.098  11.085  1.0324 -0.4627 -1.3703
   99MOL0     H13037  -2.812   5.169  10.970 -0.7131  0.7777  0.6038
   99MOL0     H13038  -2.714   5.396  11.081 -1.4363  0.8994  0.0517
   99MOL0     H13039  -2.672   5.288  11.218  1.9802  5.0342  0.4534
   99MOL0     H13040  -2.955   5.276  11.092 -0.5963  0.6199  0.5167
   99MOL0     H13041  -2.900   5.216  11.246  1.2485  0.2335  0.5813
   99MOL0     H13042  -2.893   5.510  11.159  1.4577 -0.8314 -0.6874
   99MOL0     H13043  -2.879   5.444  11.322 -3.4807  0.5300  1.4376
   99MOL0     H13044  -3.126   5.351  11.249 -2.7992  1.2360  1.1554
   99MOL0     H13045  -3.131   5.509  11.169  2.0552  2.8216  0.7493
   99MOL0     H13046  -3.228   5.508  11.389  0.4105  0.5331 -2.6287
   99MOL0     H13047  -3.086   5.446  11.465  3.2435  1.9273  0.6533
   99MOL0     H13048  -3.095   5.708  11.326 -1.8469  0.6899  1.0601
   99MOL0     H13049  -2.956   5.661  11.424 -0.8295  1.3021 -1.4711
   99MOL0     H13050  -2.504   5.295  10.716 -1.1347  2.1066  1.5521
   99MOL0     H13051  -2.313   5.366  10.566  3.7588 -3.1097 -1.2013
   99MOL0     H13052  -1.918   5.788  10.716  2.3000 -0.7889  0.3651
   99MOL0     H13053  -1.719   5.870  10.622 -3.0976 -0.2057  1.5817
   99MOL0     H13054  -0.011   6.293   9.882 -2.4339  0.6119  0.6425
   99MOL0     H13055   0.065   6.269   9.639  3.7422 -3.7231  0.1445
   99MOL0     H13056   0.019   6.116   9.227  1.1805  2.4210  0.8315
   99MOL0     H13057   0.130   6.119   9.017  0.2082 -0.0724  1.3706
   99MOL0     H13058   0.406   6.069   8.779 -1.3636  3.1025  0.9674
   99MOL0     H13059   0.239   6.060   8.844  1.4700  2.4750 -1.4248
   99MOL0     H13060   0.261   5.805   8.820 -0.8880 -0.6322 -1.0872
   99MOL0     H13061   0.238   5.890   8.673 -0.5491  0.3735  0.2067
   99MOL0     H13062   0.449   5.737   8.661  1.6113 -0.1759 -0.7871
   99MOL0     H13063   0.520   5.823   8.788 -0.9416 -3.7548 -0.4066
   99MOL0     H13064   0.570   6.003   8.651  2.3606 -0.6628 -0.7932
   99MOL0     H13065   0.609   5.884   8.544  1.2343  3.8809 -1.7180
   99MOL0     H13066   0.289   6.055   8.342 -3.2939 -4.5053  0.7169
   99MOL0     H13067   0.462   5.907   9.201  1.8771  3.8223  0.8712
   99MOL0     H13068   0.355   5.933   9.425 -2.3096  2.8111  2.4578
  100MOL0     O13069   4.550   2.220   2.852 -0.1583 -0.7797  0.2485
  100MOL0     C13070   4.529   2.252   2.967 -0.4809 -0.2977  0.3794
  100MOL0     O13071   4.613   2.208   3.073  0.7121 -0.3912  0.4309
  100MOL0     C13072   4.677   2.087   3.041 -0.5553 -1.2255 -0.2786
  100MOL0     C13073   4.803   2.093   2.966 -0.6058  0.2799  0.4969
  100MOL0     C13074   4.875   1.978   2.936 -0.5778  0.4850  0.2290
  100MOL0     C13075   4.822   1.853   2.984 -0.1249  0.5529  0.2389
  100MOL0     O13076   4.901   1.739   2.961  0.3742 -0.6973 -0.3188
  100MOL0     C13077   4.982   1.740   2.843 -0.3386  0.1855  0.4167
  100MOL0     C13078   5.019   1.596   2.802  0.2987  0.2802  0.4436
  100MOL0     C13079   5.084   1.529   2.915  0.0089 -0.4625 -0.2102
  100MOL0     C13080   5.097   1.382   2.884  0.1456  0.4463  1.0890
  100MOL0     C13081   5.164   1.293   2.989 -0.2977 -0.0307  0.7823
  100MOL0     C13082   5.157   1.144   2.941  1.3150  0.1596 -0.3591
  100MOL0     C13083   5.192   1.056   3.058  0.7601 -0.0271 -0.2702
  100MOL0     C13084   5.226   0.912   3.020  0.1736  0.2392  0.5961
  100MOL0     N13085   5.125   0.860   2.935  0.1667 -0.3241  0.0086
  100MOL0     C13086   5.011   0.813   2.990  0.0960 -0.4417  0.4368
  100MOL0     C13087   4.936   0.765   2.891  0.6018  0.5902  0.2030
  100MOL0     C13088   4.793   0.727   2.902  0.5053 -0.3433 -0.1356
  100MOL0     C13089   4.714   0.818   2.803 -0.4226  0.1081  0.5551
  100MOL0     C13090   4.713   0.962   2.843  0.2687 -0.1817 -0.1138
  100MOL0     C13091   4.655   1.044   2.737 -0.1532 -0.0548  0.9145
  100MOL0     O13092   4.657   1.187   2.770  0.8621  0.2163  0.1397
  100MOL0     C13093   4.543   1.257   2.808 -1.1494  0.2915 -0.2729
  100MOL0     C13094   4.566   1.372   2.891 -0.5020 -0.7131 -0.5195
  100MOL0     C13095   4.453   1.427   2.956  0.2983  0.1037  0.3539
  100MOL0     C13096   4.320   1.377   2.940 -0.2766 -0.0258 -0.7931
  100MOL0     C13097   4.200   1.444   2.998 -0.6063  1.1125  0.1239
  100MOL0     O13098   4.090   1.385   2.958  0.6687  0.4757 -0.1625
  100MOL0     C13099   3.970   1.452   2.972  0.0714 -0.3831  0.3326
  100MOL0     C13100   3.854   1.371   2.968 -0.5649 -0.3607 -0.1522
  100MOL0     C13101   3.723   1.422   2.970 -0.3865  1.3864 -0.4887
  100MOL0     C13102   3.702   1.559   2.985  1.4237 -0.2096 -0.6764
  100MOL0     O13103   3.573   1.605   2.982 -0.0818 -0.3651 -0.3841
  100MOL0     C13104   3.512   1.622   3.108 -0.5060 -0.4405 -0.1783
  100MOL0     C13105   3.447   1.492   3.170  0.5367  0.2223  0.1166
  100MOL0     C13106   3.408   1.502   3.313 -0.1291  0.3496 -0.2055
  100MOL0     C13107   3.273   1.451   3.339 -0.1492 -1.0454 -0.2131
  100MOL0     C13108   3.218   1.480   3.476  0.2878 -0.6386 -0.8949
  100MOL0     C13109   3.077   1.422   3.472 -0.1500  0.4624 -0.4594
  100MOL0     C13110   2.983   1.466   3.582 -0.7745  0.7577  0.5196
  100MOL0     C13111   2.841   1.415   3.591 -0.6922 -1.2614 -0.2160
  100MOL0    Cl13112   2.737   1.527   3.498  0.1727 -0.3213  0.0278
  100MOL0     C13113   3.808   1.635   2.961  0.2080 -0.5106 -0.7220
  100MOL0     C13114   3.944   1.587   2.962  0.2928  0.3758  0.3445
  100MOL0     O13115   4.215   1.541   3.075  0.0304 -0.1675 -0.5333
  100MOL0     C13116   4.305   1.260   2.867 -0.2165 -0.8756  0.3603
  100MOL0     C13117   4.418   1.208   2.795  0.4215  0.3442 -0.1951
  100MOL0     N13118   5.010   0.781   2.776 -0.0964  0.2391  0.4548
  100MOL0     N13119   5.128   0.838   2.802  0.1828 -0.4867 -0.0631
  100MOL0     C13120   4.704   1.842   3.060  0.5872 -0.1064  0.0718
  100MOL0     C13121   4.637   1.961   3.093  0.4505 -0.2196  1.0998
  100MOL0     C13122   4.411   2.327   2.998  0.3200 -0.3095  0.1811
  100MOL0     C13123   4.314   2.344   2.898  0.1950 -0.8450 -0.5268
  100MOL0     C13124   4.196   2.417   2.922  0.3027  0.0276 -0.1439
  100MOL0     C13125   4.166   2.470   3.053  0.0092 -0.0033  0.1431
  100MOL0     O13126   4.050   2.531   3.092  0.4601 -0.5386  0.3958
  100MOL0     C13127   3.961   2.578   2.988 -0.8110  0.2150  0.2490
  100MOL0     C13128   3.826   2.599   3.044 -0.4781 -0.2491  0.2684
  100MOL0     C13129   3.827   2.724   3.127  0.8604  0.2374 -0.3979
  100MOL0     C13130   3.712   2.714   3.232  0.2482 -0.6388  1.0058
  100MOL0     C13131   3.712   2.832   3.315  1.3885 -0.4729  0.3007
  100MOL0     C13132   3.700   2.930   3.387 -0.3372  0.4487 -0.5809
  100MOL0     C13133   4.267   2.462   3.151  0.3040 -0.7077 -0.4235
  100MOL0     C13134   4.381   2.390   3.124  0.0448  0.7869 -0.3935
  100MOL0     H13135   4.833   2.187   2.920 -1.3913  0.4626  0.3465
  100MOL0     H13136   4.963   1.976   2.872  0.5221  2.5589  1.5672
  100MOL0     H13137   5.073   1.799   2.860 -0.3377  0.5758 -0.8339
  100MOL0     H13138   4.922   1.778   2.760  0.1460 -1.2648 -0.6521
  100MOL0     H13139   5.072   1.595   2.706 -1.1197  4.6833 -0.6097
  100MOL0     H13140   4.926   1.539   2.798 -1.0549  2.2619  2.1831
  100MOL0     H13141   5.015   1.530   3.001 -1.1143  1.2580 -1.0682
  100MOL0     H13142   5.183   1.567   2.940 -0.6132  1.0871  0.0114
  100MOL0     H13143   4.992   1.351   2.882  0.0766  0.6673 -0.8310
  100MOL0     H13144   5.142   1.365   2.786  0.3777 -1.2642  1.4483
  100MOL0     H13145   5.113   1.306   3.086 -0.5891  0.6959  0.5370
  100MOL0     H13146   5.266   1.329   3.004 -0.2474 -0.9885  3.1573
  100MOL0     H13147   5.224   1.134   2.855 -0.3081 -0.5758 -1.5868
  100MOL0     H13148   5.060   1.110   2.906  2.7654 -3.1612 -1.5511
  100MOL0     H13149   5.283   1.106   3.094  2.1228  1.7438 -5.3180
  100MOL0     H13150   5.120   1.049   3.139 -2.5980 -1.2707 -3.1302
  100MOL0     H13151   5.240   0.849   3.108  1.9593 -0.1207  0.0895
  100MOL0     H13152   5.319   0.924   2.963 -0.8518 -0.3174 -1.2709
  100MOL0     H13153   4.981   0.834   3.093 -1.9901 -1.8541  0.1828
  100MOL0     H13154   4.760   0.729   3.006  1.0666  2.1650  0.0494
  100MOL0     H13155   4.778   0.622   2.874  4.2176 -0.8966 -0.6320
  100MOL0     H13156   4.614   0.776   2.792 -0.5412  0.6555 -0.5482
  100MOL0     H13157   4.765   0.810   2.707  0.9203 -2.3297  1.3662
  100MOL0     H13158   4.676   0.983   2.943  0.4922 -1.9207  0.3686
  100MOL0     H13159   4.816   0.998   2.832 -0.8844  3.0098 -1.4245
  100MOL0     H13160   4.554   1.006   2.718 -0.0262 -0.9362  1.9093
  100MOL0     H13161   4.712   1.031   2.645 -1.2502  0.9561  0.0405
  100MOL0     H13162   4.664   1.417   2.899 -1.1057  1.2505 -2.9477
  100MOL0     H13163   4.461   1.509   3.028 -1.9995  0.9609 -0.2714
  100MOL0     H13164   3.880   1.267   2.953 -0.6239 -0.2495 -1.0640
  100MOL0     H13165   3.646   1.346   2.962  2.5855 -2.3380  2.2151
  100MOL0     H13166   3.438   1.702   3.098  0.8569  0.6837 -1.9074
  100MOL0     H13167   3.592   1.662   3.171  1.1083  0.7652 -2.8073
  100MOL0     H13168   3.507   1.405   3.142 -0.4844  0.2443 -2.4120
  100MOL0     H13169   3.353   1.476   3.115  1.9241 -2.9436 -1.6110
  100MOL0     H13170   3.420   1.601   3.356 -0.1266 -0.1827  1.0544
  100MOL0     H13171   3.475   1.433   3.366  2.2374  1.4953 -1.5734
  100MOL0     H13172   3.211   1.505   3.267  1.6823  3.6821  1.3861
  100MOL0     H13173   3.274   1.344   3.315 -0.9078 -0.7921 -1.4095
  100MOL0     H13174   3.220   1.588   3.497 -4.2931 -0.9970  2.9186
  100MOL0     H13175   3.269   1.419   3.551 -2.7892 -3.1150 -0.6328
  100MOL0     H13176   3.090   1.314   3.459  0.3140 -0.2653  4.2682
  100MOL0     H13177   3.025   1.456   3.382  2.6376 -1.6632 -3.0848
  100MOL0     H13178   3.033   1.439   3.676  1.8601  0.9483 -0.7153
  100MOL0     H13179   2.971   1.574   3.570 -0.4879  0.8033  0.6149
  100MOL0     H13180   2.809   1.406   3.695  0.3291  2.1780  0.5267
  100MOL0     H13181   2.842   1.314   3.548 -0.3130 -2.0015  1.4858
  100MOL0     H13182   3.806   1.743   2.964 -0.0826 -0.5180 -0.5969
  100MOL0     H13183   4.024   1.660   2.959 -0.2992  1.0123 -0.6968
  100MOL0     H13184   4.208   1.216   2.847 -0.2997 -0.6627  0.2887
  100MOL0     H13185   4.397   1.129   2.723 -3.1847  2.4466 -1.7004
  100MOL0     H13186   4.673   1.746   3.100 -3.5322  1.1280  0.3558
  100MOL0     H13187   4.552   1.951   3.160 -0.6686 -0.1750 -0.2632
  100MOL0     H13188   4.306   2.308   2.795 -0.3910 -0.7417 -0.5245
  100MOL0     H13189   4.127   2.413   2.838 -0.1340  1.4415  0.1251
  100MOL0     H13190   3.949   2.501   2.912 -0.2135  1.1204 -0.7983
  100MOL0     H13191   4.010   2.665   2.944  0.6185  0.1939  1.7315
  100MOL0     H13192   3.753   2.606   2.963  0.2430 -0.9259 -0.4568
  100MOL0     H13193   3.799   2.511   3.103  3.5195  0.2319  3.1961
  100MOL0     H13194   3.821   2.806   3.055  0.7126  0.6988  0.1337
  100MOL0     H13195   3.916   2.731   3.190  0.1314 -0.4262  0.7679
  100MOL0     H13196   3.609   2.703   3.197 -0.0250  3.5343 -0.0683
  100MOL0     H13197   3.744   2.635   3.300  0.6451  0.7898  2.5548
  100MOL0     H13198   3.666   3.000   3.462 -1.8800 -1.5786  0.7300
  100MOL0     H13199   4.243   2.507   3.247  0.1316 -2.4581  0.3863
  100MOL0     H13200   4.447   2.381   3.210 -0.0031  1.3802 -0.2901
  101MOL0     O13201   9.899  10.215   2.416 -0.1974 -0.7305 -0.1295
  101MOL0     C13202   9.862  10.182   2.304  0.4317 -0.1082 -0.5913
  101MOL0     O13203   9.732  10.143   2.275  0.3311  0.0462 -0.2168
  101MOL0     C13204   9.628  10.137   2.361 -0.0823  0.8237  0.0838
  101MOL0     C13205   9.635  10.090   2.495 -0.5323  0.5456  0.4085
  101MOL0     C13206   9.523  10.092   2.576 -0.4128 -0.8688  0.3410
  101MOL0     C13207   9.402  10.143   2.519 -0.1673  0.2493 -0.6704
  101MOL0     O13208   9.297  10.156   2.605 -0.0216 -0.3154 -0.2318
  101MOL0     C13209   9.212  10.266   2.589 -1.4962 -0.8020  0.4682
  101MOL0     C13210   9.112  10.268   2.699  0.8550  1.1665 -0.6763
  101MOL0     C13211   8.984  10.178   2.679 -0.2724  0.3379  0.4287
  101MOL0     C13212   8.888  10.159   2.799 -0.2186 -0.1268  0.1919
  101MOL0     C13213   8.787  10.044   2.774  0.3542 -0.3634 -0.2937
  101MOL0     C13214   8.653  10.114   2.734 -0.0618  0.1889  0.0001
  101MOL0     C13215   8.530  10.025   2.709 -0.4294  0.0645 -0.6897
  101MOL0     C13216   8.564   9.941   2.590  0.3458  1.4695  0.3153
  101MOL0     N13217   8.448   9.896   2.497 -0.1169 -0.1622 -0.4891
  101MOL0     C13218   8.317   9.897   2.533 -0.3409 -0.0531  0.2845
  101MOL0     C13219   8.257   9.842   2.430 -0.3517  0.7395  0.2650
  101MOL0     C13220   8.111   9.794   2.422 -0.3977  1.0271 -1.3613
  101MOL0     C13221   8.076   9.653   2.465  0.6346  0.8875 -0.2371
  101MOL0     C13222   7.942   9.601   2.415 -0.0449 -0.1069  0.5495
  101MOL0     C13223   7.958   9.553   2.272  0.8185 -0.9027  1.3022
  101MOL0     O13224   7.861   9.451   2.213 -0.3206 -0.9254  0.5283
  101MOL0     C13225   7.733   9.482   2.198 -0.1451  0.3990  0.0300
  101MOL0     C13226   7.685   9.606   2.207  0.2881 -0.0956 -0.6811
  101MOL0     C13227   7.546   9.638   2.199  0.1708 -0.7457 -0.2377
  101MOL0     C13228   7.461   9.528   2.168  0.7010  0.3481  0.5840
  101MOL0     C13229   7.311   9.549   2.151 -0.2892  0.1759  0.4378
  101MOL0     O13230   7.267   9.680   2.146 -0.4575 -0.5203  0.1135
  101MOL0     C13231   7.146   9.717   2.092 -0.3681 -1.3857  0.0377
  101MOL0     C13232   7.089   9.658   1.983 -0.5484 -0.8431  0.4464
  101MOL0     C13233   6.948   9.671   1.938 -0.3087  0.3297  0.2958
  101MOL0     C13234   6.874   9.770   2.006 -0.7585 -0.5418  0.3630
  101MOL0     O13235   6.742   9.782   1.964  0.3116  0.6111  0.6905
  101MOL0     C13236   6.657   9.859   2.046 -0.0281 -0.5918 -0.0212
  101MOL0     C13237   6.508   9.835   2.001 -0.5682  0.9481 -0.1089
  101MOL0     C13238   6.485   9.916   1.869  0.1551 -0.0624 -0.7203
  101MOL0     C13239   6.351   9.898   1.805 -0.7788 -0.1150 -0.0769
  101MOL0     C13240   6.327  10.007   1.700  0.3351 -0.8689  0.9649
  101MOL0     C13241   6.314  10.168   1.730  0.0851 -0.2141 -0.3438
  101MOL0     C13242   6.233  10.249   1.626  0.9351  0.0089 -0.5740
  101MOL0     C13243   6.233  10.404   1.655 -0.8291 -0.6656  0.3604
  101MOL0    Cl13244   6.391  10.485   1.650  0.3090 -0.0810 -0.0628
  101MOL0     C13245   6.941   9.837   2.113  0.3312 -0.7991  0.9485
  101MOL0     C13246   7.071   9.816   2.151  0.3297 -0.3251 -0.2212
  101MOL0     O13247   7.222   9.458   2.152  0.3267 -0.0708 -0.3810
  101MOL0     C13248   7.510   9.401   2.150 -0.7139  0.5145 -0.7549
  101MOL0     C13249   7.648   9.378   2.180  0.5405  0.3635  0.4100
  101MOL0     N13250   8.356   9.812   2.330  1.0898 -0.0064 -0.0571
  101MOL0     N13251   8.476   9.836   2.378  0.9288 -0.2696 -0.2875
  101MOL0     C13252   9.395  10.191   2.388 -0.2816 -0.4217 -0.5657
  101MOL0     C13253   9.512  10.196   2.308 -0.1524  0.2970 -0.4424
  101MOL0     C13254   9.960  10.193   2.191 -0.0883 -1.5505 -0.9623
  101MOL0     C13255  10.099  10.201   2.216  0.0801 -0.2061  0.0326
  101MOL0     C13256  10.194  10.209   2.111 -0.4713  0.3204 -0.3567
  101MOL0     C13257  10.159  10.204   1.976  0.4008  0.9737  0.0909
  101MOL0     O13258  10.240  10.190   1.868 -0.7060  0.1354  0.1796
  101MOL0     C13259  10.346  10.278   1.853 -0.0343 -0.1549 -0.2802
  101MOL0     C13260  10.318  10.404   1.778  0.0957  0.4432  0.4727
  101MOL0     C13261  10.452  10.470   1.738  0.2448 -0.1768  0.2905
  101MOL0     C13262  10.515  10.390   1.616 -0.3472  0.5898 -0.0902
  101MOL0     C13263  10.657  10.341   1.644 -0.2083 -0.6059 -0.3097
  101MOL0     C13264  10.772  10.313   1.670  0.5104  0.4417  0.3823
  101MOL0     C13265  10.017  10.195   1.948 -0.4415  0.1401 -0.2068
  101MOL0     C13266   9.921  10.189   2.053 -0.9260  0.5586 -0.3600
  101MOL0     H13267   9.727  10.048   2.534 -1.6290 -2.0556  0.3836
  101MOL0     H13268   9.524  10.072   2.682  2.9190  0.8815  0.7413
  101MOL0     H13269   9.158  10.272   2.494 -0.0532 -0.4506 -0.3580
  101MOL0     H13270   9.275  10.354   2.597 -0.0364 -1.5638 -1.7743
  101MOL0     H13271   9.069  10.368   2.716 -1.7529 -0.1993  1.6218
  101MOL0     H13272   9.158  10.240   2.794 -0.6826  1.5579  0.2313
  101MOL0     H13273   9.024  10.076   2.670 -2.6603 -0.5455 -1.4331
  101MOL0     H13274   8.924  10.205   2.592 -4.1747 -1.6581  2.2701
  101MOL0     H13275   8.960  10.127   2.875  1.9369 -1.9401 -2.4032
  101MOL0     H13276   8.842  10.256   2.821  2.1864  0.9542  0.8478
  101MOL0     H13277   8.772   9.999   2.872  0.9937  0.5836  0.2571
  101MOL0     H13278   8.818   9.968   2.701 -1.9425 -2.3943  0.6955
  101MOL0     H13279   8.675  10.177   2.647  0.0770 -4.1599 -3.4535
  101MOL0     H13280   8.624  10.177   2.818  0.3767  0.8981 -0.3694
  101MOL0     H13281   8.516   9.973   2.804 -0.9850  0.2888 -0.6408
  101MOL0     H13282   8.434  10.077   2.694 -3.4399 -4.2013  1.5455
  101MOL0     H13283   8.620   9.853   2.622 -1.0070  0.7241  0.7358
  101MOL0     H13284   8.630  10.007   2.534  0.6455  0.8095 -0.1161
  101MOL0     H13285   8.272   9.934   2.624  0.6340 -3.9831  2.5935
  101MOL0     H13286   8.091   9.796   2.314 -1.9558 -1.8251 -1.2245
  101MOL0     H13287   8.051   9.872   2.469  2.8167  1.1998  3.0007
  101MOL0     H13288   8.070   9.642   2.573 -2.7385 -0.5835 -0.4448
  101MOL0     H13289   8.165   9.594   2.440  2.2760  3.0538  0.2732
  101MOL0     H13290   7.897   9.516   2.467 -1.2441 -0.6041 -1.2176
  101MOL0     H13291   7.872   9.684   2.423  2.4511  2.0352  1.4971
  101MOL0     H13292   8.055   9.503   2.265 -0.4572 -3.6083  1.8424
  101MOL0     H13293   7.966   9.643   2.210  1.8965 -2.7425 -1.3741
  101MOL0     H13294   7.756   9.684   2.233 -0.9929  0.0500  2.8952
  101MOL0     H13295   7.525   9.745   2.206  3.7957  0.2772 -2.2130
  101MOL0     H13296   7.146   9.577   1.938  0.7283 -1.3213  2.7500
  101MOL0     H13297   6.906   9.618   1.853 -2.1440  0.2570  1.1878
  101MOL0     H13298   6.684   9.964   2.035 -0.6827 -0.4144 -0.0112
  101MOL0     H13299   6.670   9.842   2.154 -0.9297 -1.5716 -0.0401
  101MOL0     H13300   6.438   9.854   2.083 -1.6813 -0.3152 -0.7320
  101MOL0     H13301   6.493   9.731   1.971 -2.4048  1.1184  0.1226
  101MOL0     H13302   6.563   9.886   1.798 -0.8435  0.5239 -2.0942
  101MOL0     H13303   6.496  10.022   1.893 -2.0527 -0.1929  1.2069
  101MOL0     H13304   6.359   9.805   1.747 -2.6364  0.5176 -1.4245
  101MOL0     H13305   6.267   9.896   1.875 -1.4384  0.0405 -0.8462
  101MOL0     H13306   6.229   9.974   1.663  0.6527 -1.7956  0.9215
  101MOL0     H13307   6.406   9.993   1.626  0.0260  0.5004  0.3437
  101MOL0     H13308   6.413  10.215   1.726 -0.7227  1.9279  1.8898
  101MOL0     H13309   6.269  10.181   1.829  2.1733  2.1913  0.4152
  101MOL0     H13310   6.285  10.249   1.530  0.5940  2.9252 -0.8409
  101MOL0     H13311   6.130  10.212   1.618  0.3871  1.1129  0.8125
  101MOL0     H13312   6.189  10.418   1.754  1.6753 -2.9301  1.9686
  101MOL0     H13313   6.176  10.443   1.570  0.6803 -0.1268 -0.4390
  101MOL0     H13314   6.881   9.920   2.149 -2.0185 -0.4798 -3.1030
  101MOL0     H13315   7.123   9.873   2.228  2.2444 -3.9121  1.3886
  101MOL0     H13316   7.440   9.322   2.124 -0.9623  0.3279  0.4275
  101MOL0     H13317   7.679   9.275   2.173  0.4735  0.4284 -1.5590
  101MOL0     H13318   9.300  10.228   2.351 -0.5816 -1.2012 -0.5951
  101MOL0     H13319   9.510  10.223   2.204 -2.1662  2.6517  0.1111
  101MOL0     H13320  10.144  10.220   2.313 -0.9445 -0.6717  0.6155
  101MOL0     H13321  10.302  10.216   2.123 -0.4204  0.2573 -0.7518
  101MOL0     H13322  10.432  10.223   1.811  0.5722 -1.7725  2.8017
  101MOL0     H13323  10.385  10.304   1.952  0.5732 -3.2466  0.4099
  101MOL0     H13324  10.252  10.384   1.694 -1.9541 -0.7577  2.2519
  101MOL0     H13325  10.266  10.471   1.846 -1.7591  3.8173 -3.8243
  101MOL0     H13326  10.524  10.481   1.820  2.0899  0.8974 -1.3644
  101MOL0     H13327  10.433  10.575   1.715  2.0524 -0.0596 -0.9300
  101MOL0     H13328  10.453  10.308   1.580 -2.1417  0.7793  2.3764
  101MOL0     H13329  10.527  10.457   1.530  0.8927 -0.3340 -0.6728
  101MOL0     H13330  10.874  10.299   1.698 -0.3914 -0.7965  3.4796
  101MOL0     H13331   9.981  10.207   1.847  1.5508  3.7674 -0.6362
  101MOL0     H13332   9.819  10.178   2.017  0.3992 -2.0690 -3.7897
  102MOL0     O13333   6.226   6.286   2.723 -0.2461  0.0220 -0.4389
  102MOL0     C13334   6.134   6.218   2.754 -0.3125  0.4845  0.6260
  102MOL0     O13335   6.114   6.090   2.716  0.2917  0.0169  0.0410
  102MOL0     C13336   6.212   6.021   2.653  0.9828  1.2870  0.1494
  102MOL0     C13337   6.206   5.880   2.664  0.4583  0.4773 -0.0928
  102MOL0     C13338   6.290   5.789   2.596 -0.4551  0.3054 -0.6468
  102MOL0     C13339   6.395   5.835   2.516  0.7092 -0.7070 -0.0525
  102MOL0     O13340   6.459   5.752   2.429 -0.1316 -0.4793  0.2548
  102MOL0     C13341   6.507   5.623   2.471 -0.0426 -0.6288  0.2187
  102MOL0     C13342   6.550   5.522   2.362  0.2333  0.0260 -0.5762
  102MOL0     C13343   6.653   5.591   2.277  0.6528  0.3389  0.7025
  102MOL0     C13344   6.681   5.517   2.142  0.2304 -0.4287 -0.5387
  102MOL0     C13345   6.751   5.382   2.172 -0.0930 -0.2419  0.5858
  102MOL0     C13346   6.653   5.259   2.133  0.1025 -0.0730 -0.4642
  102MOL0     C13347   6.703   5.133   2.206  0.3172 -0.5295  0.2932
  102MOL0     C13348   6.625   5.000   2.175 -0.1081  0.2024 -0.8024
  102MOL0     N13349   6.478   5.002   2.212 -0.2899  0.0767 -1.1402
  102MOL0     C13350   6.374   5.013   2.123  0.5554  0.5380  1.0051
  102MOL0     C13351   6.266   4.999   2.196 -1.2044 -0.5013  0.5137
  102MOL0     C13352   6.123   4.991   2.147 -0.3834 -0.5764 -0.4789
  102MOL0     C13353   6.030   5.110   2.190 -0.3181 -1.0597 -0.1249
  102MOL0     C13354   5.884   5.073   2.199 -0.0995 -0.2456 -0.0607
  102MOL0     C13355   5.803   5.086   2.070  1.5032 -0.0495 -0.5617
  102MOL0     O13356   5.665   5.070   2.120 -0.8780  0.2225 -0.4336
  102MOL0     C13357   5.551   5.084   2.045  0.1890  0.9371 -0.2906
  102MOL0     C13358   5.544   5.142   1.912  0.0268  0.4511 -0.6551
  102MOL0     C13359   5.413   5.159   1.857  0.0115 -0.5725  0.4362
  102MOL0     C13360   5.305   5.109   1.918  0.0549 -0.1460 -0.9975
  102MOL0     C13361   5.166   5.127   1.860  0.7912 -0.3031  0.2387
  102MOL0     O13362   5.155   5.166   1.722  0.4943 -0.2567 -0.4569
  102MOL0     C13363   5.035   5.194   1.671 -0.3513  0.2123 -0.4828
  102MOL0     C13364   4.937   5.101   1.667 -1.0795 -0.1032  0.2478
  102MOL0     C13365   4.811   5.140   1.622  0.5177 -0.4304  0.1205
  102MOL0     C13366   4.782   5.269   1.569  0.3006  0.7618  0.0218
  102MOL0     O13367   4.659   5.286   1.509  0.0852 -0.1838  0.2861
  102MOL0     C13368   4.605   5.417   1.526 -0.0237  0.7672  0.5090
  102MOL0     C13369   4.455   5.405   1.484 -0.0623  0.3758 -0.4942
  102MOL0     C13370   4.349   5.503   1.543 -0.0328  0.9044  0.2393
  102MOL0     C13371   4.215   5.501   1.472  0.5052  0.3742 -0.0630
  102MOL0     C13372   4.122   5.607   1.518 -0.2201  0.1381  0.0980
  102MOL0     C13373   3.994   5.611   1.437  0.2559 -0.3670  0.6213
  102MOL0     C13374   4.009   5.693   1.302 -0.3174  0.0513  0.0448
  102MOL0     C13375   4.035   5.849   1.314 -0.6154  0.3118 -0.6198
  102MOL0    Cl13376   3.893   5.929   1.395  0.2413 -0.6554  0.1157
  102MOL0     C13377   4.881   5.366   1.572  0.6717  0.1670 -0.9594
  102MOL0     C13378   5.005   5.327   1.632  0.4149  0.1824 -0.8959
  102MOL0     O13379   5.075   5.129   1.946 -0.1887 -0.6434  0.0611
  102MOL0     C13380   5.314   5.057   2.049  0.2737 -0.6537  0.6161
  102MOL0     C13381   5.439   5.045   2.114 -0.0148  1.0109  0.7059
  102MOL0     N13382   6.303   4.991   2.326 -0.0136 -0.2507  0.0294
  102MOL0     N13383   6.428   4.989   2.335 -0.2868  0.1668 -0.4797
  102MOL0     C13384   6.408   5.976   2.509 -0.5461  0.4687 -0.0374
  102MOL0     C13385   6.326   6.067   2.573  0.8877 -0.4837  0.2432
  102MOL0     C13386   6.028   6.292   2.824 -0.4607  0.2072 -0.6952
  102MOL0     C13387   5.906   6.230   2.856 -0.4664  0.5141  0.7743
  102MOL0     C13388   5.800   6.299   2.921 -0.3881 -1.0938 -0.0238
  102MOL0     C13389   5.815   6.439   2.948 -0.1155 -0.4564 -0.9597
  102MOL0     O13390   5.702   6.509   2.992 -0.5217 -0.4531 -0.1061
  102MOL0     C13391   5.688   6.648   2.960  0.3473 -0.5620 -0.4038
  102MOL0     C13392   5.549   6.702   3.005 -0.5093  0.3691  0.4405
  102MOL0     C13393   5.511   6.686   3.143 -0.8051  0.6781  0.5384
  102MOL0     C13394   5.377   6.749   3.173 -0.4393  0.7434 -0.8486
  102MOL0     C13395   5.345   6.724   3.316  0.6590  0.0631  0.2950
  102MOL0     C13396   5.315   6.709   3.434 -0.3704  0.5531  0.0933
  102MOL0     C13397   5.941   6.496   2.931 -1.3904  0.2384 -0.2139
  102MOL0     C13398   6.045   6.421   2.878 -0.6378 -0.7474  0.3266
  102MOL0     H13399   6.115   5.844   2.711  0.5791 -0.6332 -0.6697
  102MOL0     H13400   6.279   5.683   2.617 -1.0280 -0.2165 -3.2201
  102MOL0     H13401   6.416   5.581   2.515 -2.1447  2.0076 -1.3414
  102MOL0     H13402   6.586   5.630   2.547 -1.1759 -7.3532  2.6710
  102MOL0     H13403   6.463   5.496   2.301 -0.7816  0.1394  0.7773
  102MOL0     H13404   6.595   5.436   2.411  0.2122  1.2051  1.6345
  102MOL0     H13405   6.747   5.592   2.333 -0.2109  2.3373  2.2318
  102MOL0     H13406   6.621   5.693   2.254 -1.4390 -0.1002  1.4604
  102MOL0     H13407   6.588   5.499   2.087  0.0988 -0.8832 -0.1770
  102MOL0     H13408   6.758   5.573   2.089  3.4003 -2.1683  1.9036
  102MOL0     H13409   6.784   5.376   2.276 -0.0446  1.2781  0.6725
  102MOL0     H13410   6.841   5.382   2.110 -0.1247 -5.4177  0.0951
  102MOL0     H13411   6.645   5.243   2.025  0.0105 -2.2983 -0.1859
  102MOL0     H13412   6.557   5.283   2.181  1.0021  0.8026  0.9527
  102MOL0     H13413   6.810   5.128   2.184  0.1079 -0.1488 -0.9231
  102MOL0     H13414   6.688   5.151   2.312 -0.7551  0.4632 -0.0150
  102MOL0     H13415   6.673   4.923   2.235 -0.9233 -0.0641 -0.4796
  102MOL0     H13416   6.634   4.967   2.071  0.5996 -2.0221 -0.0734
  102MOL0     H13417   6.384   5.032   2.017  1.1536  0.8908  1.1202
  102MOL0     H13418   6.088   4.892   2.176  2.3505 -1.6215 -0.4463
  102MOL0     H13419   6.109   4.990   2.038 -5.6518  2.1910 -0.1191
  102MOL0     H13420   6.046   5.193   2.120  1.9756 -0.1586  1.3373
  102MOL0     H13421   6.054   5.146   2.290 -2.1136  0.0035 -0.0185
  102MOL0     H13422   5.880   4.972   2.239  0.1267  0.0789  0.8062
  102MOL0     H13423   5.839   5.139   2.274 -1.0947 -0.8332 -0.1278
  102MOL0     H13424   5.828   5.017   1.989  0.3137 -0.7731 -0.3356
  102MOL0     H13425   5.804   5.183   2.020  0.2359 -1.2327 -3.0722
  102MOL0     H13426   5.628   5.193   1.866 -2.0814  6.5265  1.2242
  102MOL0     H13427   5.401   5.218   1.766 -0.2595 -0.0107  0.8354
  102MOL0     H13428   4.958   5.000   1.701  1.4473 -0.3597 -1.7731
  102MOL0     H13429   4.739   5.059   1.611 -0.6537  0.9223 -3.1468
  102MOL0     H13430   4.663   5.485   1.463  2.1238 -2.3905 -1.2541
  102MOL0     H13431   4.607   5.451   1.629  0.9332 -1.2187  1.1977
  102MOL0     H13432   4.426   5.302   1.508 -1.0642  1.5427  4.1826
  102MOL0     H13433   4.458   5.426   1.376  1.7673  1.6449 -0.2394
  102MOL0     H13434   4.398   5.600   1.535 -4.5665  3.6392  2.0574
  102MOL0     H13435   4.331   5.487   1.649 -3.2756  0.5833 -0.2632
  102MOL0     H13436   4.238   5.511   1.366 -1.5003  1.3034 -0.4669
  102MOL0     H13437   4.162   5.406   1.462 -0.0376  0.7660 -1.0887
  102MOL0     H13438   4.179   5.700   1.510 -1.5263  0.8593 -1.6507
  102MOL0     H13439   4.101   5.611   1.625 -1.0740  2.7326 -0.0999
  102MOL0     H13440   3.928   5.666   1.504 -2.3491  0.7042 -2.5468
  102MOL0     H13441   3.949   5.514   1.418  1.9102 -1.7786  3.2971
  102MOL0     H13442   4.089   5.653   1.239 -0.9559 -0.7639 -0.2755
  102MOL0     H13443   3.920   5.684   1.239 -0.3404 -2.5989  0.3458
  102MOL0     H13444   4.054   5.901   1.219  1.3110 -0.4545 -0.7023
  102MOL0     H13445   4.128   5.861   1.372  0.1296  2.0961 -2.0874
  102MOL0     H13446   4.849   5.460   1.528  2.5092  1.0803 -0.4377
  102MOL0     H13447   5.084   5.401   1.641 -2.0634  2.7986  0.9810
  102MOL0     H13448   5.225   5.011   2.092 -1.7954  0.7913 -1.8560
  102MOL0     H13449   5.448   5.002   2.214  0.8774 -1.9499 -0.5428
  102MOL0     H13450   6.479   6.013   2.436  0.4071 -0.4587  0.4014
  102MOL0     H13451   6.342   6.173   2.556 -2.9693  0.1010 -0.8170
  102MOL0     H13452   5.867   6.138   2.813 -1.2402  0.9904  0.4461
  102MOL0     H13453   5.710   6.241   2.937 -1.5901  1.2520  2.6440
  102MOL0     H13454   5.704   6.667   2.853  0.4880  1.8201 -0.0144
  102MOL0     H13455   5.766   6.711   3.004  0.1873  0.3786 -1.3974
  102MOL0     H13456   5.553   6.807   2.976 -0.5381  0.8947  2.2146
  102MOL0     H13457   5.465   6.661   2.948 -0.4392  0.6847  0.1072
  102MOL0     H13458   5.587   6.737   3.202  0.7701  0.5637 -1.3142
  102MOL0     H13459   5.506   6.581   3.173  1.4320 -0.0873 -1.4809
  102MOL0     H13460   5.392   6.853   3.140 -0.9000  1.0211 -0.2096
  102MOL0     H13461   5.296   6.700   3.119 -2.1329  0.4009  1.8394
  102MOL0     H13462   5.270   6.680   3.526 -0.1284 -2.2581 -0.5796
  102MOL0     H13463   5.979   6.597   2.949  0.4427 -0.0833 -1.9294
  102MOL0     H13464   6.133   6.477   2.846 -0.5299 -0.8182  0.4958
  103MOL0     O13465   1.734   9.630   7.849  0.4616 -0.4416  0.0542
  103MOL0     C13466   1.732   9.506   7.849  0.1243 -0.2661 -0.7675
  103MOL0     O13467   1.691   9.427   7.746  0.4487  0.0130 -0.6209
  103MOL0     C13468   1.670   9.487   7.624 -0.1774  0.8565 -0.5433
  103MOL0     C13469   1.751   9.587   7.567 -0.5507 -0.3028  0.0060
  103MOL0     C13470   1.735   9.641   7.436 -0.4344 -0.0862 -0.5615
  103MOL0     C13471   1.627   9.589   7.355  0.5999  0.1444 -0.5247
  103MOL0     O13472   1.605   9.642   7.225 -0.4737 -1.3075 -0.5775
  103MOL0     C13473   1.610   9.536   7.122  0.1218  0.0168  0.5422
  103MOL0     C13474   1.748   9.529   7.059  0.2415  0.5373  1.0282
  103MOL0     C13475   1.854   9.470   7.154 -1.1973 -0.7342 -0.2057
  103MOL0     C13476   1.848   9.323   7.197 -0.2320  0.6308  1.3003
  103MOL0     C13477   1.965   9.270   7.289  0.1695  1.2136 -0.8088
  103MOL0     C13478   2.104   9.278   7.221  0.6158  0.5188 -0.7109
  103MOL0     C13479   2.208   9.232   7.327  0.1599  0.1013 -0.5710
  103MOL0     C13480   2.341   9.249   7.260 -0.1324  0.3127  0.7866
  103MOL0     N13481   2.449   9.231   7.358 -0.4540  0.6982  0.6013
  103MOL0     C13482   2.481   9.130   7.448 -0.5948  0.2296  0.7602
  103MOL0     C13483   2.597   9.173   7.502 -0.3615 -0.2371 -0.3775
  103MOL0     C13484   2.689   9.099   7.604  0.1486  0.1673 -1.0675
  103MOL0     C13485   2.750   9.189   7.712  0.4905 -0.4682  0.7451
  103MOL0     C13486   2.848   9.138   7.825 -0.3603  0.0255 -0.2612
  103MOL0     C13487   2.794   9.016   7.902  0.2966 -0.2132  0.5950
  103MOL0     O13488   2.884   8.955   7.992 -0.5181 -0.0389  0.0167
  103MOL0     C13489   2.856   8.831   8.045  0.0703 -0.1431 -0.7031
  103MOL0     C13490   2.737   8.762   8.026  0.2650  0.0412  0.2970
  103MOL0     C13491   2.709   8.635   8.084  0.9642  0.6123 -1.1033
  103MOL0     C13492   2.807   8.569   8.164 -0.0902 -0.9512  0.6190
  103MOL0     C13493   2.774   8.434   8.221 -0.1473  0.2643  1.3988
  103MOL0     O13494   2.658   8.384   8.184 -0.2389 -0.0555  0.4117
  103MOL0     C13495   2.612   8.289   8.270 -0.5364  0.0168 -0.6602
  103MOL0     C13496   2.607   8.299   8.412  0.6526 -0.6927  0.0812
  103MOL0     C13497   2.551   8.196   8.486  0.6576 -0.6011  0.2006
  103MOL0     C13498   2.501   8.073   8.430  0.2429 -1.4528 -0.0914
  103MOL0     O13499   2.447   7.985   8.520 -0.0901 -0.2061 -0.4107
  103MOL0     C13500   2.401   7.857   8.478  0.2366 -0.1056  0.9647
  103MOL0     C13501   2.248   7.849   8.440 -0.7641 -0.0416 -0.1180
  103MOL0     C13502   2.199   7.708   8.458 -0.5126 -0.4353  0.1047
  103MOL0     C13503   2.053   7.702   8.406 -0.0312 -0.1095 -0.7574
  103MOL0     C13504   1.984   7.563   8.427  0.3120 -0.0887  0.5420
  103MOL0     C13505   1.995   7.488   8.556 -0.5167 -0.4331 -0.8855
  103MOL0     C13506   1.927   7.359   8.559  0.5448 -0.6377  0.7703
  103MOL0     C13507   1.924   7.300   8.701  0.6419 -0.8293  0.1567
  103MOL0    Cl13508   1.798   7.374   8.813 -0.1805  0.2537 -0.4845
  103MOL0     C13509   2.510   8.063   8.295 -0.3640  0.5225 -0.0480
  103MOL0     C13510   2.565   8.172   8.214 -0.7189  0.3391 -0.4893
  103MOL0     O13511   2.851   8.385   8.303  0.1983  0.1341  0.0965
  103MOL0     C13512   2.929   8.636   8.182  0.8614  1.1380 -0.8300
  103MOL0     C13513   2.948   8.759   8.125  0.3382  0.5802 -0.0030
  103MOL0     N13514   2.650   9.283   7.436  0.4963  0.3124  0.6796
  103MOL0     N13515   2.561   9.311   7.343  0.3292 -0.2902  0.2446
  103MOL0     C13516   1.542   9.484   7.413 -0.8782  0.0139 -0.6485
  103MOL0     C13517   1.567   9.437   7.545 -0.2224  0.4641 -0.1984
  103MOL0     C13518   1.777   9.431   7.967 -0.6299 -0.5437  0.1555
  103MOL0     C13519   1.751   9.288   7.989  0.2036  0.1397 -0.1101
  103MOL0     C13520   1.806   9.216   8.101  0.8339  0.2984  0.4580
  103MOL0     C13521   1.870   9.289   8.204 -0.3557 -0.0421  0.0887
  103MOL0     O13522   1.913   9.232   8.323 -0.1294 -0.2963  0.1466
  103MOL0     C13523   1.978   9.103   8.315  0.8014  0.5384 -0.1978
  103MOL0     C13524   2.074   9.081   8.434  0.4726 -0.2072  0.5288
  103MOL0     C13525   1.992   9.078   8.565  0.8550 -0.2639  0.0949
  103MOL0     C13526   2.084   9.043   8.680  0.2091  0.4821 -0.3520
  103MOL0     C13527   2.007   9.033   8.810 -0.3274  0.0773  0.4354
  103MOL0     C13528   1.957   9.028   8.923  1.3086 -0.2851 -0.5176
  103MOL0     C13529   1.892   9.427   8.185  0.1930 -0.0602  0.7036
  103MOL0     C13530   1.848   9.493   8.069 -0.3664  0.0405 -0.6017
  103MOL0     H13531   1.842   9.611   7.621 -1.3934  3.1033  0.1238
  103MOL0     H13532   1.820   9.701   7.407  2.0330 -1.4479  3.1663
  103MOL0     H13533   1.538   9.566   7.046  0.7588  0.2486  0.0137
  103MOL0     H13534   1.592   9.435   7.162 -1.9316 -0.1351 -0.6360
  103MOL0     H13535   1.767   9.628   7.016  1.5570  1.3427  3.2673
  103MOL0     H13536   1.733   9.460   6.976  0.6581 -0.3975  1.7093
  103MOL0     H13537   1.874   9.522   7.249 -0.1799 -0.6171 -0.4680
  103MOL0     H13538   1.954   9.479   7.111 -1.0243 -1.9111 -0.0808
  103MOL0     H13539   1.751   9.295   7.241 -1.5328  0.5151 -1.4646
  103MOL0     H13540   1.852   9.269   7.103 -1.8910  0.1895  1.4417
  103MOL0     H13541   1.931   9.168   7.310 -0.4780  1.2093 -1.8309
  103MOL0     H13542   1.964   9.333   7.378 -1.1331  1.9299 -1.3134
  103MOL0     H13543   2.122   9.382   7.194  3.4513 -0.1042 -1.5630
  103MOL0     H13544   2.116   9.216   7.132 -0.8898 -0.6260 -0.1735
  103MOL0     H13545   2.213   9.288   7.421  0.7300 -0.1999 -0.4148
  103MOL0     H13546   2.188   9.127   7.348 -1.7563  0.3887 -0.8535
  103MOL0     H13547   2.343   9.353   7.227 -0.6531 -0.3000 -1.3308
  103MOL0     H13548   2.356   9.188   7.170  3.6567  0.2036  1.3539
  103MOL0     H13549   2.416   9.047   7.477 -2.5549  0.9106 -1.4436
  103MOL0     H13550   2.758   9.037   7.547 -0.6261 -2.0735  0.3157
  103MOL0     H13551   2.627   9.023   7.654  3.0995 -1.5127  0.2908
  103MOL0     H13552   2.668   9.237   7.766  1.0700 -0.2554  1.4573
  103MOL0     H13553   2.803   9.267   7.657  0.3089 -0.6118  0.3657
  103MOL0     H13554   2.949   9.116   7.788 -0.0487 -0.3127  0.7664
  103MOL0     H13555   2.850   9.215   7.902 -2.5864  0.2386 -0.3346
  103MOL0     H13556   2.759   8.945   7.826  2.2731 -0.4710 -0.1180
  103MOL0     H13557   2.709   9.040   7.967  2.7926  0.0374  4.0062
  103MOL0     H13558   2.660   8.823   7.980 -1.2686 -1.6893  0.4541
  103MOL0     H13559   2.608   8.596   8.075  1.3361 -0.8073  0.3842
  103MOL0     H13560   2.652   8.375   8.475  0.4386  0.0327 -0.6284
  103MOL0     H13561   2.554   8.209   8.594  2.1550  1.3760 -0.0241
  103MOL0     H13562   2.417   7.785   8.559  0.8879 -0.1086  0.8344
  103MOL0     H13563   2.461   7.826   8.392  2.9022  2.0630  1.8941
  103MOL0     H13564   2.240   7.878   8.335  1.8255  1.8090  0.1097
  103MOL0     H13565   2.192   7.926   8.493  0.4161  0.3224  0.6469
  103MOL0     H13566   2.185   7.685   8.564 -0.3479  0.1380  0.2569
  103MOL0     H13567   2.260   7.634   8.406 -0.0007 -0.5128  0.8004
  103MOL0     H13568   1.995   7.774   8.465 -0.5833 -1.1773  0.0341
  103MOL0     H13569   2.044   7.725   8.299 -1.7581 -3.1439 -1.3765
  103MOL0     H13570   2.021   7.493   8.351 -0.9163 -0.3145  0.1302
  103MOL0     H13571   1.877   7.574   8.409  0.5362  1.0396 -0.2265
  103MOL0     H13572   1.952   7.554   8.632  0.6936 -0.1681 -0.4052
  103MOL0     H13573   2.099   7.478   8.590  0.8052  3.5887 -3.1023
  103MOL0     H13574   1.826   7.370   8.516 -0.0422 -1.7533  1.8217
  103MOL0     H13575   1.980   7.287   8.496 -0.8818 -0.1090 -1.1358
  103MOL0     H13576   2.027   7.307   8.736  1.4303 -3.7381 -1.2480
  103MOL0     H13577   1.900   7.194   8.692  2.1089 -1.0544 -1.8131
  103MOL0     H13578   2.478   7.973   8.242  0.1842  0.1237  0.2882
  103MOL0     H13579   2.555   8.168   8.106 -3.2934  3.6459 -0.5385
  103MOL0     H13580   3.004   8.589   8.244 -0.4279 -0.6690 -0.5305
  103MOL0     H13581   3.044   8.809   8.139  0.4231 -0.3417  3.8505
  103MOL0     H13582   1.471   9.426   7.355  1.2441 -3.2256 -0.2730
  103MOL0     H13583   1.517   9.350   7.584 -0.5064  0.7137  0.0003
  103MOL0     H13584   1.686   9.242   7.916 -0.6909  0.3008  0.5705
  103MOL0     H13585   1.780   9.113   8.122  2.6095 -0.6270 -1.5013
  103MOL0     H13586   2.033   9.107   8.221 -0.1140  1.7968 -0.7153
  103MOL0     H13587   1.899   9.028   8.328  0.5540  1.1015  1.9586
  103MOL0     H13588   2.126   8.985   8.425 -2.5974 -2.1971  2.2422
  103MOL0     H13589   2.140   9.168   8.441  2.8294 -2.0264  2.7590
  103MOL0     H13590   1.921   8.997   8.546  1.6925 -1.1076  0.4803
  103MOL0     H13591   1.941   9.174   8.581 -1.5744 -1.4415 -0.1106
  103MOL0     H13592   2.136   8.947   8.668  1.7061  0.8853  2.1329
  103MOL0     H13593   2.155   9.121   8.708  0.3546  0.0507  0.5258
  103MOL0     H13594   1.934   9.009   9.026 -0.4090 -4.6920 -1.4998
  103MOL0     H13595   1.945   9.483   8.262 -0.8202  1.7850  0.1288
  103MOL0     H13596   1.862   9.600   8.063  1.7903  0.0822  2.5375
  104MOL0     O13597  10.723   6.778   8.251 -0.2309  0.3945 -0.1672
  104MOL0     C13598  10.774   6.671   8.282 -0.3588  0.0501  0.0148
  104MOL0     O13599  10.717   6.568   8.351  0.6200 -0.0001  0.2204
  104MOL0     C13600  10.592   6.587   8.408 -0.5032 -1.0138 -1.7297
  104MOL0     C13601  10.471   6.577   8.338 -0.5078 -0.0104 -0.3233
  104MOL0     C13602  10.352   6.573   8.416  0.6234  0.0356  0.2776
  104MOL0     C13603  10.346   6.603   8.550  0.0586  0.0420  0.0661
  104MOL0     O13604  10.236   6.594   8.627  0.1163 -0.4782 -0.3427
  104MOL0     C13605  10.106   6.629   8.581  0.0378  0.1938  0.3531
  104MOL0     C13606  10.002   6.601   8.692  0.1120 -0.6482  1.0179
  104MOL0     C13607   9.984   6.448   8.712 -0.0473 -0.5217  0.3173
  104MOL0     C13608   9.860   6.419   8.798 -0.7555 -0.3325  0.3107
  104MOL0     C13609   9.813   6.270   8.803 -0.1513  0.0269 -0.4156
  104MOL0     C13610   9.668   6.261   8.874  0.2629  0.7534 -0.0357
  104MOL0     C13611   9.622   6.116   8.879  0.4670  0.0443  0.6755
  104MOL0     C13612   9.682   6.052   9.004 -0.4395  0.7232  0.1652
  104MOL0     N13613   9.592   6.084   9.111  0.5992  0.4603  0.0994
  104MOL0     C13614   9.463   6.034   9.121 -0.2261 -0.0736 -0.3414
  104MOL0     C13615   9.421   6.080   9.237 -0.7375 -0.4117  0.9252
  104MOL0     C13616   9.291   6.058   9.296  0.1934 -0.4682 -0.2535
  104MOL0     C13617   9.205   6.181   9.329 -0.1282  0.4293  0.2102
  104MOL0     C13618   9.074   6.146   9.393  0.3601  0.2090 -0.3939
  104MOL0     C13619   8.955   6.109   9.298 -0.1602  0.0577 -0.5111
  104MOL0     O13620   8.836   6.161   9.359  0.2671 -0.6405  0.4000
  104MOL0     C13621   8.730   6.170   9.277  0.9334 -0.4768  0.4978
  104MOL0     C13622   8.714   6.140   9.134 -0.2550  1.1814  0.5955
  104MOL0     C13623   8.586   6.147   9.078  1.7900  0.5772 -0.0438
  104MOL0     C13624   8.470   6.166   9.162 -0.3838 -0.0451 -0.1773
  104MOL0     C13625   8.341   6.164   9.095 -0.2474 -0.0454  0.0171
  104MOL0     O13626   8.236   6.253   9.124  0.3470 -0.2419 -0.2769
  104MOL0     C13627   8.115   6.234   9.059 -0.1432 -0.7976 -0.3926
  104MOL0     C13628   8.045   6.355   9.049  0.1148  0.4226  0.0803
  104MOL0     C13629   7.910   6.358   9.003 -0.8383 -0.4945  0.3053
  104MOL0     C13630   7.842   6.233   8.989 -1.2196  0.9267  1.3375
  104MOL0     O13631   7.711   6.211   8.963  0.4620 -0.3435  0.3747
  104MOL0     C13632   7.632   6.326   8.972 -0.2081  0.6310  0.3800
  104MOL0     C13633   7.495   6.288   9.019 -0.6672 -0.0696  0.7842
  104MOL0     C13634   7.422   6.216   8.911 -0.3502  0.2077  0.0241
  104MOL0     C13635   7.278   6.192   8.960  1.6048  0.2300 -0.3975
  104MOL0     C13636   7.201   6.318   8.993 -0.0106 -0.7041 -0.1912
  104MOL0     C13637   7.167   6.424   8.884 -0.8981 -0.1480 -0.2510
  104MOL0     C13638   7.164   6.569   8.928 -0.0232 -0.4482 -0.0329
  104MOL0     C13639   7.151   6.663   8.809  0.3768 -0.3353  0.5519
  104MOL0    Cl13640   7.172   6.819   8.879 -0.1287  0.1736  0.4547
  104MOL0     C13641   7.917   6.109   8.994 -0.4790  0.3132  0.0367
  104MOL0     C13642   8.056   6.116   9.027 -0.3739 -0.2849  0.8627
  104MOL0     O13643   8.343   6.080   9.006 -0.4293 -0.4918 -0.0959
  104MOL0     C13644   8.488   6.209   9.292 -0.6303 -1.0756 -0.8120
  104MOL0     C13645   8.613   6.209   9.349 -0.0404  0.5597  0.7645
  104MOL0     N13646   9.526   6.161   9.287  0.3084 -0.0734 -0.9923
  104MOL0     N13647   9.633   6.170   9.216  0.8554  0.2604 -0.5088
  104MOL0     C13648  10.464   6.627   8.611  0.4239  0.4268  0.8325
  104MOL0     C13649  10.586   6.611   8.547  0.3235  0.4897  0.3485
  104MOL0     C13650  10.917   6.653   8.226  0.9678 -0.4008 -0.0586
  104MOL0     C13651  10.982   6.533   8.247 -0.7768 -0.0296 -0.9078
  104MOL0     C13652  11.121   6.516   8.216  0.6472 -0.1411  0.7029
  104MOL0     C13653  11.194   6.625   8.166 -0.6119 -0.1505 -0.4409
  104MOL0     O13654  11.327   6.623   8.118  0.1646  0.8615 -0.1206
  104MOL0     C13655  11.416   6.514   8.158  0.1836 -0.1718  0.0049
  104MOL0     C13656  11.553   6.540   8.119  0.6433  0.3135  0.0132
  104MOL0     C13657  11.609   6.671   8.167  0.7772  0.0793 -0.2395
  104MOL0     C13658  11.756   6.692   8.135  0.6042 -0.5701 -0.1950
  104MOL0     C13659  11.797   6.819   8.195 -0.6780  0.1763  0.2930
  104MOL0     C13660  11.845   6.914   8.245 -0.5580 -0.2270 -0.5175
  104MOL0     C13661  11.124   6.752   8.158 -0.8226 -0.0326  0.3545
  104MOL0     C13662  10.991   6.765   8.181  0.3333  0.1647  1.0108
  104MOL0     H13663  10.479   6.548   8.234  0.0625 -0.1312 -0.2491
  104MOL0     H13664  10.270   6.532   8.358  0.0651  1.1037  0.3017
  104MOL0     H13665  10.096   6.560   8.498 -0.1928 -2.0387  2.1348
  104MOL0     H13666  10.093   6.731   8.544 -1.3004 -1.3356 -3.8597
  104MOL0     H13667   9.907   6.651   8.672  0.2992 -0.9834 -0.9108
  104MOL0     H13668  10.038   6.645   8.785  0.1609  0.5780  0.4385
  104MOL0     H13669  10.068   6.408   8.770  1.9432  2.0946 -0.5461
  104MOL0     H13670   9.961   6.387   8.624  1.1923  1.6996 -1.6331
  104MOL0     H13671   9.895   6.456   8.895  1.6727  1.6988 -1.2279
  104MOL0     H13672   9.786   6.489   8.757  1.4001  2.0318  0.2650
  104MOL0     H13673   9.888   6.218   8.863 -1.1908 -2.5165 -1.2291
  104MOL0     H13674   9.815   6.222   8.705 -1.1099 -0.3853 -0.2353
  104MOL0     H13675   9.586   6.308   8.818  2.0754  2.0058 -1.8059
  104MOL0     H13676   9.665   6.292   8.978 -3.7125 -0.4362  0.3980
  104MOL0     H13677   9.514   6.108   8.872  0.4465 -1.9361  2.3647
  104MOL0     H13678   9.655   6.063   8.790 -0.0964 -0.9466  1.0503
  104MOL0     H13679   9.783   6.079   9.036 -0.0050 -2.8976  2.2864
  104MOL0     H13680   9.678   5.944   8.992 -0.4306  0.7536 -0.1137
  104MOL0     H13681   9.419   5.955   9.060  1.3406 -1.1385 -0.1594
  104MOL0     H13682   9.317   6.017   9.394 -3.6413 -1.2717  0.6018
  104MOL0     H13683   9.240   5.990   9.227  2.4378  0.4444 -3.0108
  104MOL0     H13684   9.186   6.249   9.245 -1.6767 -1.1084 -0.7431
  104MOL0     H13685   9.269   6.236   9.398 -0.0753 -0.6894  1.0795
  104MOL0     H13686   9.089   6.064   9.464  1.1142 -2.3959 -3.2925
  104MOL0     H13687   9.037   6.235   9.445  0.9729  0.1467  0.1569
  104MOL0     H13688   8.946   6.001   9.282 -0.9225 -0.0855  0.7722
  104MOL0     H13689   8.973   6.172   9.211 -3.2907  1.4112 -0.3009
  104MOL0     H13690   8.790   6.113   9.061 -1.5921  1.4701 -0.9747
  104MOL0     H13691   8.576   6.107   8.978  0.3015 -1.5099  0.8538
  104MOL0     H13692   8.106   6.439   9.080 -0.7758  1.8105 -1.7244
  104MOL0     H13693   7.862   6.455   8.996  0.9399  0.4305  0.2393
  104MOL0     H13694   7.622   6.372   8.874 -1.0015 -3.0522 -1.4472
  104MOL0     H13695   7.668   6.400   9.044  0.0647  1.8207 -0.9499
  104MOL0     H13696   7.446   6.384   9.042 -1.4402 -0.4624  0.8278
  104MOL0     H13697   7.504   6.229   9.110 -0.1593 -0.2936  0.5869
  104MOL0     H13698   7.468   6.118   8.894  0.3691 -0.0829  3.0397
  104MOL0     H13699   7.420   6.273   8.818  3.2770 -0.7990 -0.8105
  104MOL0     H13700   7.225   6.141   8.878 -0.6271  1.7937 -0.0340
  104MOL0     H13701   7.286   6.133   9.052  5.0477  0.0862 -0.6719
  104MOL0     H13702   7.252   6.370   9.075 -0.7037 -0.9642  0.4120
  104MOL0     H13703   7.103   6.292   9.034  0.0904  1.0973  1.2891
  104MOL0     H13704   7.072   6.384   8.846  1.3631 -3.8610 -2.6466
  104MOL0     H13705   7.246   6.414   8.809 -1.1513  2.3786 -0.9325
  104MOL0     H13706   7.084   6.589   8.999  1.7621  1.6306  1.5204
  104MOL0     H13707   7.264   6.593   8.965  0.0532  3.0493 -2.0790
  104MOL0     H13708   7.049   6.649   8.770  1.0603 -0.5699 -1.2604
  104MOL0     H13709   7.210   6.642   8.719 -0.4505  1.3167 -0.4245
  104MOL0     H13710   7.876   6.013   8.966 -0.3086  0.7691 -1.8937
  104MOL0     H13711   8.111   6.025   9.047  1.5317  1.3805  4.0344
  104MOL0     H13712   8.401   6.237   9.351  0.3560 -2.0630  1.2502
  104MOL0     H13713   8.628   6.241   9.452 -0.6331 -0.9532  1.3601
  104MOL0     H13714  10.450   6.644   8.717 -1.1487  0.5531  0.6242
  104MOL0     H13715  10.682   6.624   8.595  1.0079 -0.5865 -0.6940
  104MOL0     H13716  10.936   6.458   8.311 -1.0313  2.0944  1.5980
  104MOL0     H13717  11.170   6.420   8.231  1.4237  0.1885  0.3493
  104MOL0     H13718  11.379   6.418   8.121 -0.3777  0.4436 -1.0979
  104MOL0     H13719  11.412   6.496   8.266 -2.3423 -2.4859 -0.3640
  104MOL0     H13720  11.623   6.462   8.151  0.9699  0.9545  0.9160
  104MOL0     H13721  11.540   6.526   8.012 -0.8628  1.1748  0.0616
  104MOL0     H13722  11.585   6.671   8.274  1.7696  0.5277 -0.0131
  104MOL0     H13723  11.542   6.750   8.131 -0.8946 -0.6914  1.0405
  104MOL0     H13724  11.810   6.601   8.164 -1.7090 -2.0131 -0.0883
  104MOL0     H13725  11.752   6.698   8.026 -1.6411  2.3289 -0.0652
  104MOL0     H13726  11.892   6.998   8.291  1.8320 -2.1938  0.9141
  104MOL0     H13727  11.171   6.840   8.117 -2.1645  0.1488 -0.8588
  104MOL0     H13728  10.950   6.864   8.165 -0.2704 -0.0001  1.5194
  105MOL0     O13729  10.539   5.745   3.104 -0.0517 -1.2956  0.8115
  105MOL0     C13730  10.567   5.629   3.108 -0.0430  0.7788  0.8628
  105MOL0     O13731  10.475   5.521   3.091 -0.5295 -0.1149  0.3309
  105MOL0     C13732  10.341   5.545   3.106  0.0260  0.6211  0.5063
  105MOL0     C13733  10.255   5.446   3.066  0.0886  0.1940  0.7944
  105MOL0     C13734  10.113   5.461   3.068  0.1080  0.3794  0.9833
  105MOL0     C13735  10.054   5.583   3.102  1.0214  0.7182  0.7586
  105MOL0     O13736   9.926   5.596   3.059  0.0227  0.0456  0.2713
  105MOL0     C13737   9.884   5.738   3.032 -0.5066 -0.6174  0.2808
  105MOL0     C13738   9.734   5.744   2.981 -1.5934 -0.5110  0.8249
  105MOL0     C13739   9.617   5.717   3.080  0.1383 -0.6947  0.8575
  105MOL0     C13740   9.491   5.692   3.003  0.2164  0.2401 -0.7859
  105MOL0     C13741   9.372   5.662   3.088  0.1096  0.1007 -0.7246
  105MOL0     C13742   9.238   5.687   3.002  0.5030  0.2798  0.3295
  105MOL0     C13743   9.116   5.698   3.102 -0.1947  0.3236  0.8044
  105MOL0     C13744   9.003   5.749   3.025 -0.4389  0.2219 -0.7715
  105MOL0     N13745   8.862   5.747   3.084 -0.0561 -0.4393  0.4619
  105MOL0     C13746   8.795   5.856   3.132  0.4655 -0.2971  0.4570
  105MOL0     C13747   8.681   5.810   3.184 -0.7477  0.0345  0.7444
  105MOL0     C13748   8.579   5.907   3.241 -0.2103  0.7719  0.7606
  105MOL0     C13749   8.500   5.849   3.362  0.2372  1.0568  0.0966
  105MOL0     C13750   8.405   5.954   3.422  0.5152  0.4944  0.1784
  105MOL0     C13751   8.321   5.885   3.520 -0.8197  0.2972 -0.6750
  105MOL0     O13752   8.222   5.978   3.571 -0.6352  0.4609  0.1057
  105MOL0     C13753   8.123   5.936   3.653 -0.2525  0.4380  0.3337
  105MOL0     C13754   8.090   5.799   3.663  0.1343 -1.1675 -0.1428
  105MOL0     C13755   7.986   5.761   3.741  0.2385 -0.1942  0.8350
  105MOL0     C13756   7.898   5.860   3.801 -0.3483  0.3659  0.6571
  105MOL0     C13757   7.788   5.808   3.885  0.1655  0.7182  0.0640
  105MOL0     O13758   7.772   5.667   3.920 -0.0258 -1.1912 -0.3437
  105MOL0     C13759   7.640   5.644   3.944  0.9630  0.2907 -0.1435
  105MOL0     C13760   7.596   5.597   4.072 -0.0058 -0.6885 -0.6531
  105MOL0     C13761   7.462   5.576   4.100  0.1140 -0.1054 -0.5606
  105MOL0     C13762   7.371   5.606   4.011  0.2317  0.1815  0.7623
  105MOL0     O13763   7.247   5.569   4.060  0.8668  0.5918  0.2395
  105MOL0     C13764   7.140   5.585   3.961  0.2945  0.1334  0.0299
  105MOL0     C13765   7.005   5.575   4.026  0.6229 -0.9652 -0.0164
  105MOL0     C13766   6.991   5.440   4.097 -0.0834 -0.2244 -0.3061
  105MOL0     C13767   6.851   5.425   4.155  0.1480 -0.1010 -0.5044
  105MOL0     C13768   6.741   5.384   4.046  0.7465  0.1088 -0.9370
  105MOL0     C13769   6.604   5.351   4.117 -0.1636 -0.5782 -0.1156
  105MOL0     C13770   6.608   5.277   4.247 -0.4889  0.6183 -0.4388
  105MOL0     C13771   6.464   5.205   4.260  0.2789 -0.0241  0.1570
  105MOL0    Cl13772   6.344   5.335   4.247 -0.4628 -0.1549  0.3762
  105MOL0     C13773   7.397   5.644   3.881 -0.3979 -0.0097  0.1995
  105MOL0     C13774   7.536   5.670   3.847  0.1315 -0.3006  0.1997
  105MOL0     O13775   7.698   5.892   3.916 -0.0708  0.4256  0.2439
  105MOL0     C13776   7.920   5.992   3.771 -0.1618  0.0706  0.3986
  105MOL0     C13777   8.031   6.031   3.705  0.9838 -0.3957 -0.0849
  105MOL0     N13778   8.677   5.673   3.150  0.5890 -1.2570 -0.2952
  105MOL0     N13779   8.791   5.632   3.107  0.5183  0.2301 -0.0263
  105MOL0     C13780  10.141   5.678   3.148 -0.4779  0.6405 -0.2898
  105MOL0     C13781  10.281   5.656   3.165  0.9068  0.9264 -0.2858
  105MOL0     C13782  10.707   5.580   3.102 -0.1569 -0.6152  0.5365
  105MOL0     C13783  10.742   5.450   3.076  1.0454 -0.5934 -0.7501
  105MOL0     C13784  10.873   5.413   3.065  0.4394 -0.1630 -0.7570
  105MOL0     C13785  10.979   5.505   3.095 -0.3415  0.1095 -0.3256
  105MOL0     O13786  11.113   5.474   3.108  0.0264  0.5384  0.0651
  105MOL0     C13787  11.163   5.343   3.085 -0.5787  0.7780 -0.4341
  105MOL0     C13788  11.313   5.346   3.100 -0.2824  0.8376 -0.5965
  105MOL0     C13789  11.376   5.453   3.198  0.9014 -0.4168  0.4601
  105MOL0     C13790  11.318   5.443   3.334  0.4557  0.4078  0.5922
  105MOL0     C13791  11.394   5.516   3.433 -0.7512 -0.1163  0.2999
  105MOL0     C13792  11.429   5.590   3.522  0.9535 -0.6420  0.4734
  105MOL0     C13793  10.940   5.633   3.126 -0.7054 -0.3398  0.5557
  105MOL0     C13794  10.806   5.675   3.126 -0.4380 -0.9056 -0.3075
  105MOL0     H13795  10.296   5.360   3.015 -0.7807  0.7308 -0.8752
  105MOL0     H13796  10.054   5.381   3.025  1.7713  0.6412 -2.1037
  105MOL0     H13797   9.955   5.782   2.961  0.4680 -2.7219 -0.1115
  105MOL0     H13798   9.898   5.794   3.125 -0.1849  0.5907 -0.4748
  105MOL0     H13799   9.738   5.672   2.899  2.0971  0.8882 -0.4282
  105MOL0     H13800   9.712   5.843   2.941  3.0484  0.2342 -0.5501
  105MOL0     H13801   9.603   5.788   3.161 -1.6383 -0.6251  0.5187
  105MOL0     H13802   9.642   5.620   3.124 -0.2938 -1.3727 -0.3551
  105MOL0     H13803   9.466   5.771   2.932  0.5436 -0.7047 -1.9903
  105MOL0     H13804   9.517   5.612   2.933  1.9943  1.9253 -2.1540
  105MOL0     H13805   9.360   5.730   3.173 -2.5787  1.5126 -2.0953
  105MOL0     H13806   9.373   5.563   3.136 -0.2641  1.6629  2.8482
  105MOL0     H13807   9.226   5.606   2.930  1.1989 -0.4030  0.9576
  105MOL0     H13808   9.240   5.776   2.940  1.1993 -1.9986 -3.1950
  105MOL0     H13809   9.106   5.599   3.147 -1.7051 -0.4776 -1.1555
  105MOL0     H13810   9.140   5.768   3.183  2.0727 -1.0087  1.4021
  105MOL0     H13811   9.004   5.693   2.931  0.9152 -1.8379  0.4099
  105MOL0     H13812   9.027   5.852   2.996 -1.2591  0.9394  0.9566
  105MOL0     H13813   8.825   5.959   3.121 -1.9889  0.3099 -1.3164
  105MOL0     H13814   8.514   5.928   3.155 -0.4762 -1.1322  0.4328
  105MOL0     H13815   8.625   6.003   3.265  1.9408  0.0785 -0.4039
  105MOL0     H13816   8.570   5.814   3.438  0.6858 -1.9828 -1.5853
  105MOL0     H13817   8.443   5.764   3.324 -0.2211  0.9870  0.9013
  105MOL0     H13818   8.460   6.039   3.463 -0.6027  3.5156 -3.9718
  105MOL0     H13819   8.324   6.001   3.365 -0.8312  0.1062  1.6713
  105MOL0     H13820   8.382   5.861   3.608 -1.2453 -1.8341 -0.9049
  105MOL0     H13821   8.283   5.793   3.475  0.2192 -1.0695  1.0973
  105MOL0     H13822   8.157   5.731   3.612 -0.7036 -0.2769 -2.5875
  105MOL0     H13823   7.991   5.656   3.769 -0.3995 -0.4347  0.0757
  105MOL0     H13824   7.677   5.574   4.141  0.8278  0.1443 -1.3167
  105MOL0     H13825   7.437   5.518   4.189  0.4674 -2.2021 -1.7444
  105MOL0     H13826   7.150   5.505   3.888  2.4458  1.3898 -1.1468
  105MOL0     H13827   7.140   5.684   3.915  0.4454  0.2341  0.2395
  105MOL0     H13828   6.930   5.593   3.949 -2.3044 -1.7002  2.4631
  105MOL0     H13829   6.986   5.654   4.099 -3.1289 -1.6980  0.0231
  105MOL0     H13830   7.068   5.428   4.174 -0.9688  3.9555  1.4653
  105MOL0     H13831   7.002   5.360   4.022 -3.7336  0.4968 -1.7961
  105MOL0     H13832   6.845   5.345   4.229 -1.8953  1.9094  1.6978
  105MOL0     H13833   6.825   5.520   4.203  1.2789  0.7255 -1.4708
  105MOL0     H13834   6.752   5.285   4.002 -1.9498 -0.4787 -0.4889
  105MOL0     H13835   6.724   5.471   3.981 -0.3571  2.3610  2.0629
  105MOL0     H13836   6.545   5.291   4.047  0.7172 -1.4750 -0.1089
  105MOL0     H13837   6.555   5.447   4.135 -0.0683 -0.4661 -0.4436
  105MOL0     H13838   6.674   5.190   4.242  0.6685  1.4154  0.5597
  105MOL0     H13839   6.636   5.341   4.330  1.7785 -2.1049  1.0846
  105MOL0     H13840   6.441   5.159   4.357 -1.3472  0.1285 -0.1386
  105MOL0     H13841   6.436   5.128   4.188 -0.5453 -1.3535  1.8399
  105MOL0     H13842   7.320   5.665   3.807 -0.1433  0.9541  0.1949
  105MOL0     H13843   7.554   5.715   3.750  1.4013  0.7159  0.8672
  105MOL0     H13844   7.862   6.073   3.814 -0.7619  1.9136 -3.4259
  105MOL0     H13845   8.057   6.136   3.695 -0.6308  0.1900  1.3290
  105MOL0     H13846  10.098   5.773   3.181  1.0880  1.5931 -0.8626
  105MOL0     H13847  10.337   5.735   3.216  1.6392  0.2029  0.0482
  105MOL0     H13848  10.658   5.384   3.054 -0.9832  1.8134 -0.7398
  105MOL0     H13849  10.907   5.316   3.029 -0.3580  0.6721 -4.1893
  105MOL0     H13850  11.132   5.313   2.984  2.3699  1.9223 -1.8043
  105MOL0     H13851  11.117   5.275   3.157  1.2884 -0.0865 -0.0075
  105MOL0     H13852  11.346   5.244   3.121 -0.3557  1.0796  0.8331
  105MOL0     H13853  11.354   5.369   3.002  3.0568 -4.9219 -0.9453
  105MOL0     H13854  11.357   5.555   3.164 -0.0065  0.1046  2.4227
  105MOL0     H13855  11.485   5.438   3.194  0.7273 -1.7094 -0.0794
  105MOL0     H13856  11.213   5.474   3.333  0.0202 -0.9954  0.7845
  105MOL0     H13857  11.315   5.339   3.367 -2.8148  0.1879 -0.0238
  105MOL0     H13858  11.463   5.663   3.593 -1.3212  1.8456 -0.8161
  105MOL0     H13859  11.010   5.709   3.159 -0.3980 -1.2981  2.2448
  105MOL0     H13860  10.785   5.781   3.137  0.9055 -0.8027  2.0446
  106MOL0     O13861   7.264   8.070  10.452 -0.0858 -0.0258 -0.4518
  106MOL0     C13862   7.289   8.174  10.505  0.3938  0.1942  0.6710
  106MOL0     O13863   7.189   8.275  10.518 -0.0790 -0.3371  0.2560
  106MOL0     C13864   7.055   8.260  10.493  0.6715 -0.1128 -0.2190
  106MOL0     C13865   6.995   8.366  10.417  0.4530 -0.1557 -0.1377
  106MOL0     C13866   6.857   8.361  10.374  0.7694 -0.3404 -0.1817
  106MOL0     C13867   6.782   8.246  10.402  0.2940 -0.5019  0.2430
  106MOL0     O13868   6.653   8.230  10.355  0.4006  0.6479 -0.6740
  106MOL0     C13869   6.563   8.340  10.378  0.4052 -0.1683 -0.4899
  106MOL0     C13870   6.428   8.273  10.388  0.2342 -0.4456 -0.0317
  106MOL0     C13871   6.319   8.378  10.399  0.7058 -0.0022 -0.8141
  106MOL0     C13872   6.172   8.312  10.393  0.1984  0.1550 -0.4080
  106MOL0     C13873   6.069   8.396  10.329  0.2603  0.1749  0.5442
  106MOL0     C13874   5.927   8.365  10.375 -0.3373  0.1254  0.0449
  106MOL0     C13875   5.826   8.440  10.310 -0.8315 -0.2263 -0.6864
  106MOL0     C13876   5.787   8.560  10.395 -0.2353 -0.3893  0.0196
  106MOL0     N13877   5.679   8.648  10.351  0.7354 -0.0610 -0.6298
  106MOL0     C13878   5.604   8.718  10.439  0.3285  0.3847 -0.1252
  106MOL0     C13879   5.510   8.788  10.368 -0.0289  0.8936 -1.7093
  106MOL0     C13880   5.399   8.872  10.424 -0.2787  0.5873  0.1224
  106MOL0     C13881   5.262   8.796  10.406  0.0044 -0.7052 -0.2209
  106MOL0     C13882   5.217   8.788  10.259 -0.0603 -0.6097  0.3445
  106MOL0     C13883   5.190   8.916  10.175 -0.1837  0.6040 -0.0557
  106MOL0     O13884   5.051   8.984  10.186  0.2814  0.7626 -0.1997
  106MOL0     C13885   5.032   9.048  10.304  0.7954  0.0408 -0.8651
  106MOL0     C13886   4.940   9.012  10.393 -0.1452  0.1091 -0.6182
  106MOL0     C13887   4.922   9.063  10.528  0.1704  0.1594 -0.4263
  106MOL0     C13888   4.994   9.177  10.568  0.8332  0.1953 -0.3765
  106MOL0     C13889   4.978   9.241  10.696  0.2641 -0.5211  0.4210
  106MOL0     O13890   5.087   9.315  10.742  0.8565 -0.0104  0.0827
  106MOL0     C13891   5.071   9.382  10.860 -0.1812  0.8654 -0.5764
  106MOL0     C13892   5.004   9.330  10.978  0.0813 -0.5804 -0.3834
  106MOL0     C13893   5.020   9.388  11.100  0.2473  0.6527  0.0453
  106MOL0     C13894   5.094   9.504  11.114 -0.2056 -0.8911 -1.2355
  106MOL0     O13895   5.094   9.579  11.234  0.1376 -0.0198 -0.2545
  106MOL0     C13896   5.161   9.502  11.343 -0.7978  0.2852  0.4370
  106MOL0     C13897   5.310   9.528  11.328 -0.3266  0.1187  0.5906
  106MOL0     C13898   5.351   9.661  11.379 -0.0273  0.2554  0.1972
  106MOL0     C13899   5.501   9.688  11.367 -0.6489 -0.3693  0.0938
  106MOL0     C13900   5.547   9.829  11.397  1.0737  0.0807  0.1038
  106MOL0     C13901   5.701   9.834  11.428  0.0273 -0.5014 -0.3382
  106MOL0     C13902   5.737   9.970  11.479 -0.3070 -0.3580  1.0786
  106MOL0     C13903   5.890   9.991  11.454 -0.5367 -0.2521  1.0043
  106MOL0    Cl13904   5.951  10.095  11.588  0.0812  0.5818 -0.6543
  106MOL0     C13905   5.168   9.554  11.006 -0.7497 -0.3564  0.8322
  106MOL0     C13906   5.152   9.497  10.870  0.4260  0.8322 -0.0291
  106MOL0     O13907   4.871   9.237  10.752  0.4311 -0.6167  0.3139
  106MOL0     C13908   5.084   9.225  10.462  1.7430 -0.3412 -0.3794
  106MOL0     C13909   5.108   9.156  10.336 -0.5532 -1.1143  0.0328
  106MOL0     N13910   5.547   8.776  10.242  0.5969 -1.0745 -0.6917
  106MOL0     N13911   5.655   8.708  10.231 -0.9336  0.0632 -0.6096
  106MOL0     C13912   6.845   8.137  10.463 -0.1856 -0.5809  0.0139
  106MOL0     C13913   6.972   8.144  10.518  0.9051 -0.1316 -0.0224
  106MOL0     C13914   7.417   8.209  10.560  0.0256 -0.3173  0.2623
  106MOL0     C13915   7.515   8.116  10.571  0.3170  0.3056  0.4854
  106MOL0     C13916   7.654   8.147  10.603  0.7317 -0.1468  0.2855
  106MOL0     C13917   7.688   8.269  10.644  0.9334 -0.2135 -0.6674
  106MOL0     O13918   7.813   8.283  10.692  0.0929  1.1532 -0.2913
  106MOL0     C13919   7.851   8.412  10.759  0.3403  0.6616  1.4677
  106MOL0     C13920   7.980   8.403  10.838 -0.7703 -0.6477 -0.3295
  106MOL0     C13921   8.002   8.515  10.937 -0.7982  0.0600  0.2070
  106MOL0     C13922   8.132   8.499  11.019 -0.2334 -0.3052 -0.2032
  106MOL0     C13923   8.255   8.514  10.937  0.6307  0.0698 -0.3172
  106MOL0     C13924   8.342   8.514  10.853 -0.5215 -0.0988  0.4753
  106MOL0     C13925   7.587   8.371  10.635  0.7598  0.5456  0.8890
  106MOL0     C13926   7.459   8.347  10.575 -0.6866 -0.0852 -0.9867
  106MOL0     H13927   7.064   8.450  10.418  0.8787 -0.5028  0.2865
  106MOL0     H13928   6.805   8.442  10.323  0.1945  0.8150  2.1146
  106MOL0     H13929   6.577   8.421  10.306  0.1035  0.5038  0.1876
  106MOL0     H13930   6.574   8.381  10.479 -3.2002 -0.8302  0.2909
  106MOL0     H13931   6.433   8.215  10.481 -0.3228 -0.2735  0.1118
  106MOL0     H13932   6.416   8.206  10.303  0.0163 -0.8899  0.3419
  106MOL0     H13933   6.324   8.452  10.318  0.0467  0.4821 -0.4314
  106MOL0     H13934   6.319   8.425  10.499 -1.1785  0.8313 -1.1631
  106MOL0     H13935   6.181   8.215  10.342  1.5033 -1.5403  2.7778
  106MOL0     H13936   6.139   8.298  10.496 -0.4595 -1.6605 -0.8274
  106MOL0     H13937   6.079   8.389  10.220 -1.8941 -3.6772  0.4357
  106MOL0     H13938   6.083   8.503  10.349  1.7566  0.5461 -1.9479
  106MOL0     H13939   5.919   8.381  10.483 -1.8150 -2.8553  0.4837
  106MOL0     H13940   5.913   8.258  10.357  0.8430  0.1310 -1.0683
  106MOL0     H13941   5.870   8.457  10.211  2.9884 -1.9249  0.5404
  106MOL0     H13942   5.736   8.378  10.309 -1.7451  1.0403 -1.3407
  106MOL0     H13943   5.874   8.623  10.415 -0.2626 -0.1725 -0.5432
  106MOL0     H13944   5.754   8.506  10.485  3.6340 -4.0229 -0.4278
  106MOL0     H13945   5.605   8.718  10.548 -2.6713  0.3105 -0.0270
  106MOL0     H13946   5.399   8.968  10.371 -3.5590  1.1021  0.8471
  106MOL0     H13947   5.419   8.895  10.529 -0.3298 -1.1166  0.5256
  106MOL0     H13948   5.185   8.856  10.456  0.8916 -0.0912  0.4405
  106MOL0     H13949   5.267   8.703  10.463 -3.7792 -1.2153 -0.4608
  106MOL0     H13950   5.307   8.762  10.202  1.8173  3.2567  1.1643
  106MOL0     H13951   5.139   8.712  10.252 -0.7486  0.0116  1.0098
  106MOL0     H13952   5.203   8.904  10.067 -2.3078 -0.1883 -0.2776
  106MOL0     H13953   5.272   8.988  10.186 -0.3214  0.8462 -0.5951
  106MOL0     H13954   4.893   8.917  10.368 -0.3850  0.3755 -1.2085
  106MOL0     H13955   4.854   9.010  10.594  0.0360  0.8955  0.0245
  106MOL0     H13956   4.956   9.233  10.970  2.4438 -1.7142 -1.6045
  106MOL0     H13957   4.979   9.341  11.189  0.8000  0.5631  0.2522
  106MOL0     H13958   5.152   9.393  11.336  3.0900 -0.0808 -1.1020
  106MOL0     H13959   5.110   9.521  11.438 -1.2980  0.0296  0.2218
  106MOL0     H13960   5.347   9.521  11.225  0.6491 -1.0754  1.0061
  106MOL0     H13961   5.358   9.447  11.382 -1.2820 -2.4517 -2.1178
  106MOL0     H13962   5.319   9.656  11.483  2.3779  2.2038  1.1014
  106MOL0     H13963   5.294   9.740  11.328  0.6729  0.2310 -0.6503
  106MOL0     H13964   5.555   9.623  11.437 -1.9846 -0.5470  1.0222
  106MOL0     H13965   5.527   9.663  11.264  1.9903  1.3675  0.2536
  106MOL0     H13966   5.490   9.862  11.483 -0.9075 -1.1723 -0.6682
  106MOL0     H13967   5.531   9.891  11.308  0.3904 -1.8058 -1.1612
  106MOL0     H13968   5.759   9.805  11.340 -0.7018 -2.2442 -0.2759
  106MOL0     H13969   5.723   9.764  11.510  3.2751  0.4801 -0.2130
  106MOL0     H13970   5.694  10.048  11.416 -1.1682 -2.6990 -1.4074
  106MOL0     H13971   5.713   9.969  11.586  1.3885 -3.6245  1.5611
  106MOL0     H13972   5.903  10.027  11.352 -2.4807  3.4101  1.8546
  106MOL0     H13973   5.944   9.896  11.466  2.0115  1.1565  1.3260
  106MOL0     H13974   5.216   9.650  11.019  1.0877 -1.2488  1.0240
  106MOL0     H13975   5.200   9.536  10.781 -0.9099  2.0173 -0.2808
  106MOL0     H13976   5.141   9.317  10.475  2.9687 -1.2667  1.0665
  106MOL0     H13977   5.172   9.211  10.268 -1.3317  2.1448  1.7573
  106MOL0     H13978   6.774   8.061  10.495  0.0682  0.1505  2.4845
  106MOL0     H13979   7.013   8.057  10.568  4.5232  0.3969 -1.7870
  106MOL0     H13980   7.491   8.013  10.545 -4.0529  1.1084  0.6168
  106MOL0     H13981   7.731   8.071  10.614  1.1161 -0.0421 -1.4198
  106MOL0     H13982   7.770   8.446  10.824  0.1305  0.7421  1.1680
  106MOL0     H13983   7.870   8.488  10.683  1.7707  0.8541  1.9900
  106MOL0     H13984   7.987   8.308  10.892  0.6102  0.8969  2.4464
  106MOL0     H13985   8.066   8.399  10.770  2.6836 -1.7602  3.6533
  106MOL0     H13986   7.930   8.508  11.020  0.1390 -3.0048  0.8994
  106MOL0     H13987   8.023   8.604  10.878  3.3266 -1.1124 -0.3934
  106MOL0     H13988   8.133   8.566  11.106  2.2807 -1.4338  0.7508
  106MOL0     H13989   8.124   8.402  11.070  0.4653 -0.4243 -0.3022
  106MOL0     H13990   8.425   8.521  10.785 -0.3538  0.6190  0.7437
  106MOL0     H13991   7.599   8.474  10.668  1.0402  1.6630 -2.3376
  106MOL0     H13992   7.390   8.430  10.562 -0.9825 -0.4725 -2.0148
  107MOL0     O13993   3.346   4.015   0.316 -0.5794 -0.3461 -0.1832
  107MOL0     C13994   3.424   3.988   0.407 -0.6783  0.2674  0.3943
  107MOL0     O13995   3.438   4.055   0.523  0.3815 -0.0559 -0.5959
  107MOL0     C13996   3.333   4.130   0.575 -0.7593  0.2173 -0.7960
  107MOL0     C13997   3.366   4.183   0.702 -0.0715 -0.9817  0.5758
  107MOL0     C13998   3.274   4.270   0.769 -0.5922  0.0817  0.1269
  107MOL0     C13999   3.149   4.298   0.715  0.6624  0.5466  0.3633
  107MOL0     O14000   3.061   4.371   0.780 -0.2309 -0.6668 -0.3474
  107MOL0     C14001   2.921   4.345   0.761  0.5841  0.2293 -0.4097
  107MOL0     C14002   2.901   4.212   0.832  0.1962  0.0332 -1.0064
  107MOL0     C14003   2.756   4.188   0.883 -0.2297  0.0286  0.6225
  107MOL0     C14004   2.637   4.262   0.814  0.5199 -0.1343  0.9059
  107MOL0     C14005   2.500   4.198   0.839 -0.7961  0.6086  0.2547
  107MOL0     C14006   2.473   4.150   0.981  0.5386 -0.2129  1.1364
  107MOL0     C14007   2.319   4.098   0.993  0.1979 -0.1775 -0.0639
  107MOL0     C14008   2.312   3.968   0.920 -0.3686 -0.0691 -0.1467
  107MOL0     N14009   2.181   3.908   0.922  0.4539 -0.0039  0.1767
  107MOL0     C14010   2.054   3.965   0.899 -0.0639 -0.1132  0.7213
  107MOL0     C14011   1.968   3.865   0.911  0.6001 -0.4058 -0.0380
  107MOL0     C14012   1.817   3.883   0.897  0.2020  0.3967  0.0346
  107MOL0     C14013   1.746   3.759   0.958  0.0753 -0.4311 -0.4417
  107MOL0     C14014   1.596   3.783   0.998  0.2585  0.7531 -0.0921
  107MOL0     C14015   1.504   3.802   0.882  0.4892 -0.6825  0.2079
  107MOL0     O14016   1.369   3.770   0.915 -0.5698  0.5169 -0.8262
  107MOL0     C14017   1.280   3.762   0.811  1.1002 -0.8980  0.1644
  107MOL0     C14018   1.303   3.799   0.678  0.6086  0.4833 -0.4489
  107MOL0     C14019   1.207   3.773   0.581  0.2818 -0.9990 -0.3185
  107MOL0     C14020   1.076   3.726   0.605  0.3284 -0.9939 -0.0484
  107MOL0     C14021   0.980   3.713   0.496 -0.6332  0.4715  0.8437
  107MOL0     O14022   0.846   3.684   0.537 -0.1450  0.1219 -0.7354
  107MOL0     C14023   0.735   3.670   0.462 -0.4331 -0.4883  0.1720
  107MOL0     C14024   0.608   3.689   0.527  0.1971 -0.3100 -0.6248
  107MOL0     C14025   0.493   3.698   0.454  0.5641  0.3100 -0.2115
  107MOL0     C14026   0.493   3.669   0.323 -0.5623  0.5141  0.6278
  107MOL0     O14027   0.374   3.651   0.258 -1.1276  0.4487  0.8861
  107MOL0     C14028   0.359   3.630   0.115 -0.1578  0.6413 -0.0215
  107MOL0     C14029   0.227   3.566   0.090  0.4276 -0.6692 -0.6605
  107MOL0     C14030   0.237   3.448  -0.005  0.7032 -0.3260  0.2960
  107MOL0     C14031   0.109   3.363   0.019 -0.8513 -0.1745  0.1947
  107MOL0     C14032   0.123   3.248  -0.095  0.3236 -0.0602  0.1962
  107MOL0     C14033  -0.004   3.160  -0.093 -0.3415 -0.8251  0.1963
  107MOL0     C14034  -0.023   3.085   0.045 -0.0398  0.0033  0.5371
  107MOL0     C14035  -0.144   3.003   0.049 -0.1910 -0.0035  0.6241
  107MOL0    Cl14036  -0.274   3.105   0.104 -0.1378  0.1107  0.2384
  107MOL0     C14037   0.613   3.646   0.249  0.3901 -0.3419 -0.3195
  107MOL0     C14038   0.735   3.654   0.321 -0.2705  0.3232  0.0712
  107MOL0     O14039   1.021   3.723   0.378  0.8662 -0.2490  0.1817
  107MOL0     C14040   1.046   3.692   0.734 -0.0158  0.4253  0.3955
  107MOL0     C14041   1.151   3.711   0.839  0.7813  0.5559 -0.3069
  107MOL0     N14042   2.030   3.743   0.932 -0.3675  0.3717  0.4872
  107MOL0     N14043   2.158   3.774   0.941  0.0383 -0.8107 -0.0655
  107MOL0     C14044   3.120   4.241   0.585 -0.6823 -0.9826 -0.7764
  107MOL0     C14045   3.208   4.158   0.522  0.8808 -0.4515  0.8997
  107MOL0     C14046   3.505   3.862   0.411  0.2821  0.0543  0.3598
  107MOL0     C14047   3.480   3.751   0.334  0.4378  0.0373 -0.3084
  107MOL0     C14048   3.536   3.633   0.354  0.0584  0.1669 -0.7123
  107MOL0     C14049   3.632   3.607   0.456 -0.0173  1.1106 -0.2321
  107MOL0     O14050   3.691   3.474   0.443  0.1423 -0.5618  0.2586
  107MOL0     C14051   3.832   3.458   0.467  0.2685  0.0641  0.4070
  107MOL0     C14052   3.847   3.331   0.560 -0.0901  0.6788  0.3293
  107MOL0     C14053   3.786   3.363   0.695 -0.2997 -0.5896  0.3113
  107MOL0     C14054   3.786   3.239   0.785  0.6415 -0.8518 -0.1954
  107MOL0     C14055   3.666   3.261   0.867  0.1788  0.6851 -0.3472
  107MOL0     C14056   3.581   3.248   0.954 -0.0927  0.9661  0.2512
  107MOL0     C14057   3.676   3.718   0.522  0.1922  1.1180 -0.5343
  107MOL0     C14058   3.607   3.847   0.503 -0.1713  0.4547 -0.1878
  107MOL0     H14059   3.471   4.168   0.724  0.6035 -3.2360 -3.2553
  107MOL0     H14060   3.306   4.306   0.867  1.5389  0.8842 -0.7893
  107MOL0     H14061   2.887   4.359   0.658  0.5536  0.5234 -0.3622
  107MOL0     H14062   2.875   4.418   0.829  0.3304  0.6316 -1.0036
  107MOL0     H14063   2.976   4.205   0.911 -0.5200  0.5695 -0.2637
  107MOL0     H14064   2.927   4.138   0.756  2.4639 -1.0617  0.7148
  107MOL0     H14065   2.762   4.227   0.985 -0.6084 -0.3709  0.7990
  107MOL0     H14066   2.724   4.084   0.887 -0.0879 -0.0246  0.4000
  107MOL0     H14067   2.629   4.364   0.851 -1.7441 -1.0120  3.1359
  107MOL0     H14068   2.661   4.281   0.709 -0.5725  0.1712  0.7021
  107MOL0     H14069   2.501   4.119   0.764 -2.1562 -0.5151  1.3622
  107MOL0     H14070   2.426   4.272   0.805  1.4938  2.8011 -0.2147
  107MOL0     H14071   2.480   4.234   1.051 -0.1487 -1.1603  2.4086
  107MOL0     H14072   2.546   4.075   1.014 -0.6476 -0.3863  3.6498
  107MOL0     H14073   2.292   4.073   1.096 -1.2848  1.5927  0.0181
  107MOL0     H14074   2.250   4.176   0.961  0.8520  0.2883 -0.3579
  107MOL0     H14075   2.387   3.898   0.959 -1.2011  0.3569  2.3936
  107MOL0     H14076   2.342   3.991   0.818 -0.8247  2.9676  0.3168
  107MOL0     H14077   2.027   4.068   0.879 -0.1555 -0.3569 -0.5119
  107MOL0     H14078   1.785   3.884   0.793  1.3257 -3.4600 -0.4981
  107MOL0     H14079   1.792   3.970   0.959 -0.9083 -1.5582  2.5425
  107MOL0     H14080   1.791   3.720   1.050 -2.5637 -2.1707  0.2337
  107MOL0     H14081   1.746   3.688   0.874 -3.0789  1.6094 -2.4062
  107MOL0     H14082   1.576   3.692   1.057  0.3481 -1.2963 -3.0272
  107MOL0     H14083   1.581   3.866   1.068  0.2365  1.6770 -1.1666
  107MOL0     H14084   1.534   3.732   0.803 -1.3530 -2.3725  0.9442
  107MOL0     H14085   1.516   3.909   0.862  0.1682 -0.5592  0.6685
  107MOL0     H14086   1.399   3.837   0.643  0.0392 -0.9494 -4.0200
  107MOL0     H14087   1.242   3.798   0.482  1.3733 -2.7412 -0.4110
  107MOL0     H14088   0.616   3.714   0.632 -1.6478  1.6912 -0.8955
  107MOL0     H14089   0.398   3.721   0.499  1.2462 -0.3896  1.6976
  107MOL0     H14090   0.435   3.566   0.068  1.1738  3.3240 -1.7909
  107MOL0     H14091   0.374   3.729   0.070  1.6439  0.6515  0.5008
  107MOL0     H14092   0.168   3.651   0.056 -0.1718  0.5182  2.8895
  107MOL0     H14093   0.186   3.529   0.184  1.0937 -1.4689 -0.6781
  107MOL0     H14094   0.325   3.385   0.005  2.2477  1.5419 -0.8887
  107MOL0     H14095   0.234   3.493  -0.105 -0.8229  0.6512  0.7478
  107MOL0     H14096   0.122   3.320   0.118  1.6919 -0.0629 -0.0346
  107MOL0     H14097   0.026   3.432   0.002 -3.6225 -3.7075 -2.1656
  107MOL0     H14098   0.208   3.179  -0.097 -0.7723 -1.6198  2.5219
  107MOL0     H14099   0.126   3.304  -0.188  1.8134 -1.1435 -0.4536
  107MOL0     H14100   0.006   3.080  -0.167 -1.7401 -0.1514 -0.7508
  107MOL0     H14101  -0.095   3.214  -0.119 -0.1152 -1.4711 -2.2271
  107MOL0     H14102   0.062   3.017   0.061  1.3354  1.4765 -0.2030
  107MOL0     H14103  -0.026   3.154   0.130 -4.1708 -1.9706  2.2863
  107MOL0     H14104  -0.140   2.918   0.118 -2.0546 -0.0784  0.6830
  107MOL0     H14105  -0.167   2.973  -0.054  0.6367  0.6443  0.2394
  107MOL0     H14106   0.608   3.628   0.142 -1.1606 -4.2138  0.2211
  107MOL0     H14107   0.827   3.634   0.267 -1.2273 -1.6417 -0.9795
  107MOL0     H14108   0.951   3.653   0.769  0.1782  2.0677  3.0364
  107MOL0     H14109   1.139   3.691   0.944  1.6471 -0.4925 -0.3947
  107MOL0     H14110   3.022   4.266   0.544 -0.3792  3.0838  0.5395
  107MOL0     H14111   3.173   4.120   0.426  0.9585 -1.0273  1.0958
  107MOL0     H14112   3.389   3.754   0.275 -1.3024 -1.6556  2.0728
  107MOL0     H14113   3.498   3.543   0.305  0.4829 -0.6354  0.3833
  107MOL0     H14114   3.874   3.545   0.518  0.1516 -0.1343  0.8433
  107MOL0     H14115   3.891   3.448   0.376 -0.7361  0.9076 -0.3738
  107MOL0     H14116   3.791   3.254   0.507  0.0039  1.4089 -0.8750
  107MOL0     H14117   3.953   3.305   0.569 -0.7185 -2.1662  0.5448
  107MOL0     H14118   3.688   3.408   0.675 -0.0796  0.0960  0.7495
  107MOL0     H14119   3.847   3.440   0.744  1.5257 -1.7603 -0.0511
  107MOL0     H14120   3.756   3.151   0.727 -1.7933  0.8422 -1.6510
  107MOL0     H14121   3.882   3.217   0.834  1.2169  0.5838 -0.6422
  107MOL0     H14122   3.500   3.215   1.016  0.1451 -0.3659 -0.0977
  107MOL0     H14123   3.775   3.711   0.567  1.4362  2.1418 -2.9238
  107MOL0     H14124   3.635   3.940   0.551 -2.5514  0.9794  0.2816
  108MOL0     O14125   7.777   9.585   1.878  0.0721  0.7620 -0.1353
  108MOL0     C14126   7.725   9.476   1.844  0.3718 -0.3261 -0.0108
  108MOL0     O14127   7.789   9.353   1.820 -0.3727  0.2847 -0.2964
  108MOL0     C14128   7.928   9.364   1.819  1.2610 -0.6285 -0.1940
  108MOL0     C14129   8.011   9.344   1.704 -0.2444  0.2630 -0.4918
  108MOL0     C14130   8.148   9.362   1.710 -0.2257 -0.4936  0.8208
  108MOL0     C14131   8.210   9.389   1.831  0.2923 -0.0403 -0.6967
  108MOL0     O14132   8.346   9.410   1.822  0.1214 -0.8384  0.5753
  108MOL0     C14133   8.414   9.408   1.949  0.7681 -0.2184 -0.4068
  108MOL0     C14134   8.561   9.443   1.931  0.7223 -0.7461 -0.8877
  108MOL0     C14135   8.636   9.316   1.895  0.2326 -0.1809  0.5663
  108MOL0     C14136   8.785   9.339   1.866  0.3932  0.9532  0.5251
  108MOL0     C14137   8.861   9.397   1.985 -0.1433 -0.9619  0.7939
  108MOL0     C14138   9.013   9.415   1.946 -0.6549  0.3303 -0.6018
  108MOL0     C14139   9.083   9.524   2.032  0.0538  0.3625  0.9069
  108MOL0     C14140   9.060   9.483   2.179  0.2058 -1.0314  0.0854
  108MOL0     N14141   9.157   9.376   2.202  0.2184  0.0170  0.8153
  108MOL0     C14142   9.284   9.399   2.233  0.3085 -0.2060  0.8873
  108MOL0     C14143   9.344   9.276   2.252  0.1411  0.5101 -0.1321
  108MOL0     C14144   9.490   9.242   2.266 -0.7069 -0.6633 -0.4055
  108MOL0     C14145   9.537   9.244   2.418 -0.4842  0.1513 -0.8341
  108MOL0     C14146   9.630   9.359   2.461  0.1324  0.7873  0.0358
  108MOL0     C14147   9.771   9.346   2.407 -1.0941  0.2741 -0.0418
  108MOL0     O14148   9.840   9.251   2.493  0.2923  0.3900  0.1756
  108MOL0     C14149   9.973   9.243   2.483 -0.2208 -0.1474  0.4920
  108MOL0     C14150  10.056   9.320   2.396 -0.9153 -0.3033 -0.1916
  108MOL0     C14151  10.195   9.309   2.405 -0.3169 -1.1994  0.5088
  108MOL0     C14152  10.264   9.221   2.488 -0.0679  0.0158  0.0515
  108MOL0     C14153  10.404   9.204   2.492  0.3596 -0.0879 -0.3880
  108MOL0     O14154  10.458   9.218   2.368  0.4965  0.0039 -0.7214
  108MOL0     C14155  10.590   9.211   2.350  0.4451 -0.1108  0.4914
  108MOL0     C14156  10.679   9.290   2.432  0.5802 -0.0774  0.4396
  108MOL0     C14157  10.813   9.285   2.420  0.1286 -0.0626  0.6274
  108MOL0     C14158  10.877   9.196   2.330 -0.1906  0.3804  0.6092
  108MOL0     O14159  11.011   9.189   2.305 -0.8479  0.1646  0.4013
  108MOL0     C14160  11.088   9.306   2.355 -0.3887  0.2891  0.5080
  108MOL0     C14161  11.219   9.320   2.287  1.3380  0.0908  0.4052
  108MOL0     C14162  11.312   9.416   2.354 -0.0544  0.1025 -0.5946
  108MOL0     C14163  11.444   9.437   2.288  0.3263  0.2104  0.6671
  108MOL0     C14164  11.554   9.336   2.309  0.1055  0.0782 -0.1714
  108MOL0     C14165  11.697   9.380   2.270 -0.1359  0.1676 -0.6508
  108MOL0     C14166  11.789   9.252   2.271 -0.3536  0.4578  0.2264
  108MOL0     C14167  11.933   9.287   2.300  0.3353  0.6233  0.3163
  108MOL0    Cl14168  12.006   9.422   2.209 -0.3227 -0.1094  0.0935
  108MOL0     C14169  10.790   9.126   2.245  0.1342 -0.4906  0.2451
  108MOL0     C14170  10.649   9.141   2.249  0.3045  0.2329  0.1568
  108MOL0     O14171  10.464   9.160   2.594 -0.2450 -0.1661  0.0414
  108MOL0     C14172  10.186   9.142   2.571  0.3139  0.6394 -0.6469
  108MOL0     C14173  10.045   9.159   2.568  0.6439 -0.5241 -0.3135
  108MOL0     N14174   9.243   9.179   2.236 -0.7101 -0.7922 -0.4643
  108MOL0     N14175   9.132   9.246   2.217  0.0135 -0.6622 -0.3892
  108MOL0     C14176   8.124   9.411   1.944 -1.0913 -0.5106  0.6580
  108MOL0     C14177   7.991   9.400   1.930  0.1525  0.6626  0.6438
  108MOL0     C14178   7.589   9.491   1.799  0.0913 -0.9687 -0.6134
  108MOL0     C14179   7.533   9.413   1.695 -0.7715  0.1523 -0.6910
  108MOL0     C14180   7.405   9.427   1.651  1.0433  0.3744  0.4989
  108MOL0     C14181   7.320   9.523   1.707  0.0994 -0.5465  0.6368
  108MOL0     O14182   7.188   9.529   1.670  0.6066  0.0931  0.6140
  108MOL0     C14183   7.131   9.450   1.560  0.1165  0.7643 -0.0082
  108MOL0     C14184   6.975   9.454   1.565  0.2000 -1.1897  0.9370
  108MOL0     C14185   6.915   9.335   1.631 -0.5418  0.1282 -0.7093
  108MOL0     C14186   6.756   9.330   1.630 -0.5364  0.1958 -0.7566
  108MOL0     C14187   6.703   9.425   1.727 -0.2244  0.1165 -0.0130
  108MOL0     C14188   6.643   9.496   1.799  1.0673  0.1439  0.2604
  108MOL0     C14189   7.376   9.601   1.808  0.2518 -0.4604 -0.8657
  108MOL0     C14190   7.509   9.594   1.846  0.1990  0.1566  0.3934
  108MOL0     H14191   7.964   9.331   1.607 -0.0924  0.9007 -0.6541
  108MOL0     H14192   8.217   9.368   1.626  0.7107  0.4270  1.6225
  108MOL0     H14193   8.404   9.313   2.003  1.2825  0.7747  1.5434
  108MOL0     H14194   8.374   9.480   2.022 -2.8554 -0.7981 -1.6513
  108MOL0     H14195   8.609   9.503   2.010  5.3720 -3.6717 -1.1722
  108MOL0     H14196   8.567   9.509   1.844 -1.3432  0.4336 -0.2050
  108MOL0     H14197   8.590   9.266   1.809  3.0135 -1.6467 -0.1658
  108MOL0     H14198   8.628   9.240   1.973  1.7176  0.3571  1.2878
  108MOL0     H14199   8.816   9.236   1.846 -0.1869  0.7292  0.7482
  108MOL0     H14200   8.801   9.414   1.788  2.9478  0.2046  0.2382
  108MOL0     H14201   8.853   9.327   2.068  0.1557 -2.3243 -0.2778
  108MOL0     H14202   8.814   9.491   2.015 -0.7800 -1.0412  0.1101
  108MOL0     H14203   9.011   9.441   1.839 -0.4848 -0.1182 -0.7159
  108MOL0     H14204   9.061   9.317   1.946 -2.7018 -0.7685 -1.9773
  108MOL0     H14205   9.191   9.526   2.012 -0.0519 -0.1598  0.2526
  108MOL0     H14206   9.039   9.620   2.004 -2.3344 -0.5543  1.3096
  108MOL0     H14207   8.957   9.463   2.207 -0.3922  2.0714  0.3939
  108MOL0     H14208   9.074   9.566   2.248 -3.1052 -1.0198  0.8889
  108MOL0     H14209   9.342   9.490   2.241  0.9268 -0.6113  1.1169
  108MOL0     H14210   9.544   9.329   2.227 -1.2253 -0.1023  0.1247
  108MOL0     H14211   9.512   9.146   2.218 -1.5771 -1.5631  0.9276
  108MOL0     H14212   9.584   9.146   2.433  1.1346  0.9887 -0.2174
  108MOL0     H14213   9.444   9.258   2.474 -0.2380  0.3960 -0.4860
  108MOL0     H14214   9.588   9.448   2.412 -1.9401 -1.9261 -3.6410
  108MOL0     H14215   9.623   9.362   2.570 -1.9623 -0.9145  0.0155
  108MOL0     H14216   9.815   9.447   2.409 -1.0189  0.2456 -0.2157
  108MOL0     H14217   9.779   9.308   2.304 -0.4128 -0.6600  0.3481
  108MOL0     H14218  10.031   9.398   2.325  1.0807  0.5641 -0.0136
  108MOL0     H14219  10.252   9.373   2.339 -2.4642 -0.7499 -0.9987
  108MOL0     H14220  10.641   9.359   2.508  0.9048 -2.1990  2.6503
  108MOL0     H14221  10.864   9.351   2.490 -0.3075  1.2980 -0.2850
  108MOL0     H14222  11.100   9.302   2.464 -0.8048 -0.0761  0.5426
  108MOL0     H14223  11.034   9.399   2.334  0.3932  1.1719  2.1906
  108MOL0     H14224  11.191   9.360   2.188 -1.1198 -2.6532 -0.1566
  108MOL0     H14225  11.267   9.222   2.283  2.4683  0.5741  1.5797
  108MOL0     H14226  11.345   9.375   2.450  0.7674  0.0338 -0.8978
  108MOL0     H14227  11.262   9.513   2.363 -0.1364 -0.1398  2.7517
  108MOL0     H14228  11.424   9.450   2.182 -2.2375 -1.8211  0.7983
  108MOL0     H14229  11.485   9.533   2.321  0.7462 -0.1366  1.1808
  108MOL0     H14230  11.518   9.245   2.260 -2.8704  1.5879 -0.9884
  108MOL0     H14231  11.558   9.320   2.417 -2.1847  0.8676  0.0758
  108MOL0     H14232  11.730   9.469   2.324 -0.1375  0.4188 -1.0550
  108MOL0     H14233  11.709   9.422   2.170  0.3419  3.5106  0.6863
  108MOL0     H14234  11.763   9.181   2.350  0.0577 -3.5576 -2.9610
  108MOL0     H14235  11.777   9.195   2.178  0.4111  2.1082 -0.9290
  108MOL0     H14236  11.987   9.199   2.265 -2.4233 -1.6054  1.2939
  108MOL0     H14237  11.930   9.291   2.410 -3.0622 -3.9121  0.6822
  108MOL0     H14238  10.845   9.066   2.172  0.4270 -1.1180  0.9636
  108MOL0     H14239  10.591   9.079   2.181  1.0004  2.7899 -3.0100
  108MOL0     H14240  10.228   9.071   2.641  0.4890  0.4941 -0.8997
  108MOL0     H14241   9.988   9.087   2.627  1.2786 -0.5877  0.2421
  108MOL0     H14242   8.167   9.437   2.040  1.2199  0.3548 -0.5301
  108MOL0     H14243   7.928   9.439   2.009 -1.2512  0.1100 -0.1632
  108MOL0     H14244   7.598   9.335   1.657  1.3032  0.7940  1.3060
  108MOL0     H14245   7.367   9.363   1.572 -0.0238  0.9692  0.5212
  108MOL0     H14246   7.152   9.346   1.586 -1.9817  0.2262 -0.2578
  108MOL0     H14247   7.168   9.482   1.462 -0.1361 -2.1112 -1.1423
  108MOL0     H14248   6.956   9.535   1.636 -1.5449 -2.9397  2.5894
  108MOL0     H14249   6.935   9.479   1.465 -0.2460 -2.5000  0.7739
  108MOL0     H14250   6.952   9.328   1.733  0.4662  1.4748 -0.9531
  108MOL0     H14251   6.950   9.242   1.586  1.7226 -0.8534  2.7053
  108MOL0     H14252   6.716   9.350   1.531 -1.5600 -0.5412 -0.5154
  108MOL0     H14253   6.723   9.229   1.658  0.3618  0.1306  0.1268
  108MOL0     H14254   6.598   9.560   1.872 -0.5813 -0.5895 -0.0758
  108MOL0     H14255   7.326   9.682   1.860  1.1760 -0.2340 -0.3205
  108MOL0     H14256   7.546   9.664   1.920  0.5017  1.8710 -1.2996
  109MOL0     O14257   2.150   8.549   6.083 -0.1107  0.3926 -0.2199
  109MOL0     C14258   2.058   8.520   6.156  0.3433  0.7762 -0.2592
  109MOL0     O14259   2.066   8.471   6.290  0.5607  0.0595 -0.0709
  109MOL0     C14260   2.192   8.452   6.338 -0.1639  0.3546 -0.6844
  109MOL0     C14261   2.265   8.542   6.407 -0.8821 -0.6593  0.2024
  109MOL0     C14262   2.400   8.511   6.432 -0.0435  0.3758 -0.1018
  109MOL0     C14263   2.462   8.392   6.394 -0.1566 -1.1279  0.2808
  109MOL0     O14264   2.599   8.368   6.403  0.0852 -0.0422 -0.6020
  109MOL0     C14265   2.677   8.470   6.342 -0.1567  0.4346 -0.1289
  109MOL0     C14266   2.827   8.435   6.378  0.3399 -0.3607  0.6155
  109MOL0     C14267   2.916   8.535   6.302  0.8781 -0.5780  1.0547
  109MOL0     C14268   2.927   8.674   6.353 -0.2284 -0.6525 -0.1655
  109MOL0     C14269   3.014   8.767   6.258 -0.1936 -0.5638  0.8436
  109MOL0     C14270   3.155   8.713   6.209  0.5125 -0.3801  0.4893
  109MOL0     C14271   3.245   8.698   6.330  0.8815 -0.3266  0.5250
  109MOL0     C14272   3.306   8.834   6.368 -0.9892 -0.0021  1.1546
  109MOL0     N14273   3.359   8.848   6.497  0.1956  0.0913 -0.8032
  109MOL0     C14274   3.479   8.794   6.535  1.2735  0.4758  1.1570
  109MOL0     C14275   3.486   8.820   6.659 -0.4384  0.0165 -0.2862
  109MOL0     C14276   3.616   8.789   6.743  0.0673 -0.6344 -0.5657
  109MOL0     C14277   3.588   8.741   6.890  0.3452 -0.0804 -0.4799
  109MOL0     C14278   3.547   8.595   6.897 -0.7168 -0.4722 -0.3386
  109MOL0     C14279   3.417   8.565   6.836 -0.8272 -1.0572 -0.7922
  109MOL0     O14280   3.320   8.607   6.935  0.3332  0.1607 -0.1291
  109MOL0     C14281   3.203   8.627   6.872  0.0786  0.0711 -0.1371
  109MOL0     C14282   3.128   8.533   6.806 -0.3301 -0.2099 -0.4875
  109MOL0     C14283   3.005   8.568   6.741  0.2886 -0.6883  0.1131
  109MOL0     C14284   2.945   8.689   6.765  0.9190  0.5293  0.6249
  109MOL0     C14285   2.795   8.708   6.735 -0.8988 -0.3599 -0.0517
  109MOL0     O14286   2.734   8.825   6.765  0.2419  0.9048 -1.0402
  109MOL0     C14287   2.600   8.830   6.723 -0.3402 -0.4626 -0.5056
  109MOL0     C14288   2.507   8.754   6.789  0.6725  0.7116  0.1067
  109MOL0     C14289   2.370   8.755   6.747 -0.2694 -0.0587  0.3022
  109MOL0     C14290   2.323   8.846   6.644 -0.1753 -0.0378 -0.7914
  109MOL0     O14291   2.190   8.835   6.600 -0.0465 -0.6047  1.4159
  109MOL0     C14292   2.153   8.900   6.469 -0.9290 -0.2351 -0.2596
  109MOL0     C14293   2.021   8.860   6.412  0.2122  0.6530  0.4608
  109MOL0     C14294   1.906   8.908   6.495 -0.1859 -0.2088  0.7055
  109MOL0     C14295   1.890   9.058   6.501 -0.0314  0.1871  0.9445
  109MOL0     C14296   1.837   9.113   6.640  0.1470 -0.1254 -0.1911
  109MOL0     C14297   1.708   9.045   6.692 -0.3044 -0.8369  0.0418
  109MOL0     C14298   1.622   9.137   6.781  0.3378  0.8546  0.5570
  109MOL0     C14299   1.559   9.067   6.887  0.6365  0.2911 -0.3724
  109MOL0    Cl14300   1.468   9.180   6.982  0.1420  0.1425  0.5095
  109MOL0     C14301   2.429   8.934   6.592  0.5460  0.0457 -0.4513
  109MOL0     C14302   2.560   8.926   6.623  0.2089  0.3876 -1.1875
  109MOL0     O14303   2.739   8.608   6.694 -0.1026  0.0958  0.0635
  109MOL0     C14304   3.016   8.788   6.840 -0.0282 -0.1953 -0.6275
  109MOL0     C14305   3.143   8.751   6.887 -0.5429 -0.6092  0.1634
  109MOL0     N14306   3.375   8.892   6.698  1.9566 -0.2568 -0.9186
  109MOL0     N14307   3.290   8.888   6.610  0.3360 -1.3323 -0.3386
  109MOL0     C14308   2.386   8.300   6.314  0.6573  0.0974 -0.7958
  109MOL0     C14309   2.248   8.327   6.297  0.2175  0.0267 -0.3839
  109MOL0     C14310   1.922   8.550   6.102 -0.6414  0.1165  0.8893
  109MOL0     C14311   1.894   8.618   5.982 -0.3297 -0.8281 -0.2179
  109MOL0     C14312   1.765   8.619   5.929 -0.4199 -0.1706 -0.5268
  109MOL0     C14313   1.658   8.552   5.996  0.0593 -0.3035 -0.4755
  109MOL0     O14314   1.526   8.548   5.954 -0.0945 -0.3630  0.1879
  109MOL0     C14315   1.507   8.588   5.817  0.6333  1.0658 -0.0819
  109MOL0     C14316   1.362   8.553   5.771  0.5295 -0.3545 -0.4189
  109MOL0     C14317   1.339   8.570   5.621 -0.0755  0.0596 -0.8859
  109MOL0     C14318   1.190   8.540   5.595 -0.2771 -0.7784 -0.1097
  109MOL0     C14319   1.103   8.646   5.637 -1.5345  0.0677 -0.4523
  109MOL0     C14320   1.029   8.719   5.694 -0.1143 -0.6471 -0.1954
  109MOL0     C14321   1.684   8.492   6.124  0.6653 -1.1098 -0.2242
  109MOL0     C14322   1.813   8.489   6.166 -0.2368  0.0481  0.0187
  109MOL0     H14323   2.228   8.638   6.442  0.7145  0.1527 -0.2358
  109MOL0     H14324   2.462   8.580   6.488 -2.2214  0.0938  2.8917
  109MOL0     H14325   2.660   8.566   6.391  1.1306  0.6688 -0.1132
  109MOL0     H14326   2.666   8.473   6.234 -0.0325 -1.6541 -0.2361
  109MOL0     H14327   2.852   8.334   6.344  0.0963 -0.4291  0.6364
  109MOL0     H14328   2.839   8.452   6.485  0.0923  1.5707  0.3771
  109MOL0     H14329   2.887   8.548   6.198  1.6368 -0.0216  0.9072
  109MOL0     H14330   3.012   8.482   6.296  0.5956 -0.9717 -0.6634
  109MOL0     H14331   2.833   8.727   6.371 -0.5631 -1.3452  0.1845
  109MOL0     H14332   2.976   8.667   6.450 -1.5579 -1.3984  0.4814
  109MOL0     H14333   3.026   8.864   6.308 -2.2818  0.9472 -1.3379
  109MOL0     H14334   2.958   8.772   6.164 -0.6040 -0.7824  1.0694
  109MOL0     H14335   3.192   8.769   6.123 -1.4521  0.0617 -0.1206
  109MOL0     H14336   3.148   8.616   6.158 -0.1411 -0.3539  0.5154
  109MOL0     H14337   3.182   8.669   6.414  2.5205  1.3109  2.4074
  109MOL0     H14338   3.316   8.614   6.322  0.1728 -1.1028  2.0131
  109MOL0     H14339   3.239   8.916   6.339 -0.6159 -0.7573 -2.2312
  109MOL0     H14340   3.386   8.858   6.298 -0.9900 -0.1494  1.1032
  109MOL0     H14341   3.554   8.749   6.470 -0.6725  2.1871 -2.6268
  109MOL0     H14342   3.664   8.887   6.748 -0.5474 -0.3114 -0.9397
  109MOL0     H14343   3.682   8.709   6.709 -0.1122 -1.5556  1.1342
  109MOL0     H14344   3.506   8.804   6.926 -1.0219 -1.8276 -0.4622
  109MOL0     H14345   3.667   8.768   6.961 -0.5576 -0.7814  0.8292
  109MOL0     H14346   3.624   8.529   6.856  1.5470 -0.5424  3.5033
  109MOL0     H14347   3.555   8.556   6.999  2.9026  2.5198  0.7846
  109MOL0     H14348   3.403   8.458   6.819 -2.3535 -1.0163  0.0117
  109MOL0     H14349   3.392   8.611   6.740 -1.6841 -0.9957 -0.5489
  109MOL0     H14350   3.159   8.429   6.803 -0.3235 -0.1733 -2.2991
  109MOL0     H14351   2.952   8.485   6.696  0.2908 -1.5526  1.6401
  109MOL0     H14352   2.541   8.676   6.857  0.4955  0.5741  0.0370
  109MOL0     H14353   2.295   8.686   6.783 -0.5066 -0.4448 -0.9006
  109MOL0     H14354   2.226   8.862   6.398  1.9457  0.6508  2.0111
  109MOL0     H14355   2.159   9.008   6.486 -0.3910 -0.3545  0.3244
  109MOL0     H14356   2.015   8.752   6.399  2.8502  0.2885  1.6322
  109MOL0     H14357   2.022   8.894   6.308 -1.7407 -2.6331 -0.8025
  109MOL0     H14358   1.910   8.865   6.595  2.4668 -0.2621  0.6444
  109MOL0     H14359   1.819   8.871   6.441  1.7172  0.3984 -3.1821
  109MOL0     H14360   1.985   9.110   6.483  2.1097 -3.2320  1.5262
  109MOL0     H14361   1.819   9.082   6.421  1.5201  1.6633 -0.0592
  109MOL0     H14362   1.805   9.217   6.629 -0.4678 -0.3747 -0.8332
  109MOL0     H14363   1.912   9.116   6.720  1.9160  0.3994 -1.7952
  109MOL0     H14364   1.749   8.962   6.751 -1.2224 -0.3541  1.4007
  109MOL0     H14365   1.645   9.001   6.614  1.1748 -1.8793 -0.6145
  109MOL0     H14366   1.683   9.213   6.831 -0.0820 -0.8579  3.9466
  109MOL0     H14367   1.547   9.182   6.716 -0.8681  0.0190  1.3363
  109MOL0     H14368   1.628   9.018   6.956 -1.4298  0.2390  1.7678
  109MOL0     H14369   1.499   8.983   6.847  0.6333 -0.6482  1.4927
  109MOL0     H14370   2.401   9.014   6.523  1.6579  2.0323  1.2940
  109MOL0     H14371   2.633   9.003   6.599  0.6362 -0.1867 -1.7627
  109MOL0     H14372   2.981   8.891   6.843  0.5876 -0.0048  0.2065
  109MOL0     H14373   3.204   8.818   6.948 -1.4809 -0.3662  0.8683
  109MOL0     H14374   2.438   8.206   6.295  1.2479  0.4444 -0.9202
  109MOL0     H14375   2.182   8.275   6.227 -0.0166  3.9471 -3.3914
  109MOL0     H14376   1.968   8.664   5.916 -1.3662 -2.4188 -2.6399
  109MOL0     H14377   1.749   8.682   5.842 -0.4400  0.4689 -0.0747
  109MOL0     H14378   1.577   8.535   5.753 -1.7818 -2.4460 -0.1170
  109MOL0     H14379   1.521   8.696   5.805 -0.7081  1.2797  0.0770
  109MOL0     H14380   1.351   8.447   5.795 -0.1101 -0.1497  0.2355
  109MOL0     H14381   1.297   8.618   5.830 -0.8849 -3.1464  1.3023
  109MOL0     H14382   1.393   8.487   5.574 -1.6171 -2.0984  0.9448
  109MOL0     H14383   1.383   8.664   5.586 -1.0540  0.2163 -1.7362
  109MOL0     H14384   1.181   8.513   5.490  1.1077  1.3981 -0.8505
  109MOL0     H14385   1.150   8.462   5.661 -1.1541  1.2251  1.9013
  109MOL0     H14386   0.956   8.778   5.746  0.6296 -0.4494  0.6453
  109MOL0     H14387   1.605   8.449   6.185  0.0469 -0.1075 -0.2929
  109MOL0     H14388   1.835   8.424   6.250  0.5313 -2.2769 -1.8777
  110MOL0     O14389   8.275   4.681   2.161 -0.2895 -0.0432  0.3996
  110MOL0     C14390   8.317   4.793   2.192 -0.8221  0.5394 -1.2073
  110MOL0     O14391   8.235   4.902   2.234  0.1666 -0.8365 -0.0488
  110MOL0     C14392   8.099   4.878   2.234  0.7858 -0.2456 -0.3587
  110MOL0     C14393   8.017   4.929   2.135  0.5990 -0.3445  0.1764
  110MOL0     C14394   7.880   4.909   2.147 -0.5416  0.4191 -0.7228
  110MOL0     C14395   7.827   4.826   2.245  0.2315  0.2967 -0.6887
  110MOL0     O14396   7.697   4.808   2.257  0.2753  0.5128  0.2313
  110MOL0     C14397   7.661   4.673   2.223  0.2792 -0.2071 -1.2585
  110MOL0     C14398   7.515   4.644   2.254  0.2225 -0.1038  0.2204
  110MOL0     C14399   7.471   4.656   2.398 -0.1261 -0.5384 -0.5965
  110MOL0     C14400   7.331   4.607   2.418 -0.1978  1.0797  1.3160
  110MOL0     C14401   7.282   4.568   2.555 -0.3482 -0.6792  0.0489
  110MOL0     C14402   7.274   4.685   2.653  0.3147 -0.1304  0.8483
  110MOL0     C14403   7.237   4.633   2.790  0.2416 -0.5482 -0.4831
  110MOL0     C14404   7.159   4.735   2.873 -0.3107  0.2441  0.4433
  110MOL0     N14405   7.024   4.781   2.827  0.3453  0.0061  0.0811
  110MOL0     C14406   6.973   4.909   2.828 -0.3682 -0.0920 -0.1836
  110MOL0     C14407   6.845   4.897   2.801  1.2135  0.2673  0.6953
  110MOL0     C14408   6.750   5.010   2.778 -0.3938 -0.2626 -0.2963
  110MOL0     C14409   6.648   4.991   2.666 -0.5605  0.1492 -0.6914
  110MOL0     C14410   6.554   5.111   2.656  0.5879 -0.8307  0.4162
  110MOL0     C14411   6.626   5.239   2.603 -0.0043  1.0334  0.4486
  110MOL0     O14412   6.575   5.368   2.654  0.1569 -0.2963 -0.2681
  110MOL0     C14413   6.434   5.370   2.673  0.0185 -0.2153  0.1947
  110MOL0     C14414   6.344   5.314   2.584  0.0321 -0.1352 -0.0098
  110MOL0     C14415   6.206   5.343   2.611  0.4055  1.0274  0.0753
  110MOL0     C14416   6.164   5.417   2.724 -0.7088 -0.6354 -1.0002
  110MOL0     C14417   6.025   5.458   2.742  0.0993  0.6845 -0.8411
  110MOL0     O14418   5.934   5.356   2.751 -1.2388 -0.3038 -0.0115
  110MOL0     C14419   5.797   5.383   2.762  0.0395  0.0544  0.2042
  110MOL0     C14420   5.723   5.314   2.853  0.1917  0.5066  0.9249
  110MOL0     C14421   5.580   5.340   2.875 -0.2374 -0.2585  0.3565
  110MOL0     C14422   5.525   5.449   2.806  0.3412  0.0533 -1.1441
  110MOL0     O14423   5.387   5.468   2.813  0.4187  0.0269 -0.2900
  110MOL0     C14424   5.321   5.494   2.688  0.9556 -0.2320 -0.3727
  110MOL0     C14425   5.169   5.464   2.702  1.0694  0.1031  0.1515
  110MOL0     C14426   5.132   5.313   2.742 -0.4443 -0.0624  0.6630
  110MOL0     C14427   4.991   5.321   2.798  0.1825  0.9957 -0.4905
  110MOL0     C14428   4.959   5.203   2.898 -0.0043  0.6333 -1.0776
  110MOL0     C14429   4.884   5.088   2.824 -0.6263  0.0074 -0.0522
  110MOL0     C14430   4.842   4.971   2.913  0.1382  1.6903 -0.8032
  110MOL0     C14431   4.760   4.871   2.820 -0.2913 -0.8827 -0.6802
  110MOL0    Cl14432   4.708   4.735   2.917  0.2592 -0.1375 -0.1990
  110MOL0     C14433   5.605   5.521   2.714 -0.7534 -0.0363 -1.1779
  110MOL0     C14434   5.740   5.493   2.692  0.9108  0.2823 -1.4543
  110MOL0     O14435   6.003   5.581   2.736  0.4882  0.2206 -0.2884
  110MOL0     C14436   6.264   5.454   2.813 -0.0492  0.2251 -0.4839
  110MOL0     C14437   6.397   5.437   2.779 -0.2190  0.1684  0.2697
  110MOL0     N14438   6.809   4.760   2.804 -0.5026 -1.4878  0.1934
  110MOL0     N14439   6.918   4.692   2.817 -0.1940  0.3035  0.1836
  110MOL0     C14440   7.914   4.770   2.335  0.0947 -0.2817 -0.1288
  110MOL0     C14441   8.046   4.782   2.326 -0.1866  0.3674  0.4663
  110MOL0     C14442   8.461   4.825   2.173 -1.3995 -0.3914 -0.3425
  110MOL0     C14443   8.546   4.716   2.139 -0.3551 -0.8748  0.9282
  110MOL0     C14444   8.678   4.744   2.103  0.2343 -0.3047 -0.7997
  110MOL0     C14445   8.726   4.873   2.120  0.3694 -0.0482 -0.0829
  110MOL0     O14446   8.850   4.912   2.081  0.0848 -0.3542 -0.2788
  110MOL0     C14447   8.948   4.812   2.064  1.0602  0.1465 -0.6922
  110MOL0     C14448   9.076   4.865   2.024  0.8643 -0.0167  0.6346
  110MOL0     C14449   9.116   4.963   2.135  0.4428  1.3273 -0.7611
  110MOL0     C14450   9.254   5.007   2.112  0.2064  0.0390 -0.5434
  110MOL0     C14451   9.270   5.110   2.010 -0.2749  0.0124 -0.7813
  110MOL0     C14452   9.270   5.186   1.920 -0.2338 -0.9135 -0.9907
  110MOL0     C14453   8.649   4.970   2.173 -0.5149 -0.0320  0.1685
  110MOL0     C14454   8.513   4.950   2.194 -0.3224  0.0859 -1.0668
  110MOL0     H14455   8.062   5.002   2.069 -0.3510  0.3799  0.2968
  110MOL0     H14456   7.816   4.958   2.074  1.2706 -1.7468 -4.0199
  110MOL0     H14457   7.717   4.593   2.273 -0.4902 -1.1322 -1.8443
  110MOL0     H14458   7.691   4.671   2.118  0.0432 -1.4619 -1.3185
  110MOL0     H14459   7.495   4.543   2.217  1.6426 -0.2498 -0.2087
  110MOL0     H14460   7.455   4.708   2.190  1.3493 -1.6300 -2.5116
  110MOL0     H14461   7.492   4.755   2.438  2.4987 -1.3960  0.3570
  110MOL0     H14462   7.545   4.603   2.458  0.3952  2.0492  1.1967
  110MOL0     H14463   7.268   4.691   2.385 -2.2077 -0.9292 -0.2957
  110MOL0     H14464   7.314   4.532   2.340 -1.0864  0.6334  1.9276
  110MOL0     H14465   7.344   4.484   2.587  1.9343  1.2004  0.8549
  110MOL0     H14466   7.182   4.533   2.528 -1.8793  2.8244  0.5746
  110MOL0     H14467   7.198   4.753   2.614  0.9751 -1.2122 -2.7165
  110MOL0     H14468   7.373   4.730   2.651  0.2510  0.1598 -3.1363
  110MOL0     H14469   7.179   4.540   2.784  1.3241 -1.6821  3.6503
  110MOL0     H14470   7.329   4.623   2.848 -0.6715  0.0561  1.1298
  110MOL0     H14471   7.210   4.831   2.872 -1.9589  1.1876 -1.1747
  110MOL0     H14472   7.146   4.691   2.973 -0.5720 -1.0476 -0.1273
  110MOL0     H14473   7.026   5.003   2.836 -1.1708  0.2769  1.2284
  110MOL0     H14474   6.814   5.092   2.744 -0.5696 -0.2498 -0.5983
  110MOL0     H14475   6.705   5.031   2.876  0.0757  1.7624 -0.4653
  110MOL0     H14476   6.595   4.898   2.684  0.3495 -1.4202 -4.9234
  110MOL0     H14477   6.690   4.963   2.569  0.2200 -1.7115  0.1441
  110MOL0     H14478   6.475   5.076   2.589 -0.1239 -3.6891  2.5250
  110MOL0     H14479   6.508   5.137   2.752  0.6556 -1.8031  0.7329
  110MOL0     H14480   6.610   5.252   2.495  2.4793  1.3920  0.0474
  110MOL0     H14481   6.734   5.222   2.612  0.2054  2.0569  0.0161
  110MOL0     H14482   6.359   5.267   2.487  1.3954 -1.4315  0.7861
  110MOL0     H14483   6.132   5.322   2.536  2.0382  3.6123 -2.4657
  110MOL0     H14484   5.776   5.243   2.915  2.6757  2.0845  0.7548
  110MOL0     H14485   5.525   5.274   2.942 -2.0551  2.1233  1.3447
  110MOL0     H14486   5.358   5.429   2.608 -0.2577 -0.0209 -1.1341
  110MOL0     H14487   5.327   5.597   2.651 -0.8554  0.1562  0.3278
  110MOL0     H14488   5.132   5.489   2.602 -1.2655 -0.7401  0.7314
  110MOL0     H14489   5.125   5.549   2.756  0.3217  1.1518 -1.9682
  110MOL0     H14490   5.200   5.277   2.819 -1.1862 -1.7782  0.5546
  110MOL0     H14491   5.136   5.249   2.653  0.4418 -0.3507  0.8997
  110MOL0     H14492   4.977   5.416   2.852  3.8855  0.9645  0.8297
  110MOL0     H14493   4.933   5.301   2.708  4.2872  0.2486 -3.2488
  110MOL0     H14494   4.886   5.232   2.974  0.2155 -3.7789  1.1483
  110MOL0     H14495   5.054   5.168   2.939 -1.1652 -1.0840  0.2687
  110MOL0     H14496   4.950   5.052   2.744  1.1758  0.7157  1.0636
  110MOL0     H14497   4.798   5.139   2.779 -1.2538  0.8992  2.0305
  110MOL0     H14498   4.932   4.918   2.945 -1.8059 -0.1211  2.1039
  110MOL0     H14499   4.783   4.990   3.003  3.2207  0.5372  1.6211
  110MOL0     H14500   4.817   4.831   2.736 -1.1875 -0.1132 -1.6708
  110MOL0     H14501   4.674   4.926   2.782 -1.0324 -1.7183 -0.2618
  110MOL0     H14502   5.569   5.604   2.655  2.1201  1.7192 -0.6759
  110MOL0     H14503   5.795   5.565   2.632 -2.8269  3.4078 -1.5703
  110MOL0     H14504   6.246   5.523   2.896 -1.8804  1.0049 -1.4822
  110MOL0     H14505   6.475   5.475   2.845  1.2822 -1.5951 -0.4093
  110MOL0     H14506   7.878   4.687   2.395  1.2989 -2.9697 -2.8604
  110MOL0     H14507   8.115   4.733   2.394 -0.9567 -0.6865  0.5140
  110MOL0     H14508   8.494   4.621   2.125  0.7103 -1.3217 -0.1989
  110MOL0     H14509   8.739   4.661   2.071  1.7366 -0.9621  3.2406
  110MOL0     H14510   8.908   4.742   1.990 -1.2511  0.3008  0.3438
  110MOL0     H14511   8.963   4.761   2.160  0.9408  2.1855  0.4703
  110MOL0     H14512   9.145   4.782   2.005  0.4108  0.1055 -1.8981
  110MOL0     H14513   9.059   4.908   1.924 -0.1931 -2.6615 -0.4150
  110MOL0     H14514   9.122   4.902   2.226  0.9365 -0.0129 -1.6511
  110MOL0     H14515   9.047   5.046   2.147  0.5342  1.1730  1.0999
  110MOL0     H14516   9.285   5.066   2.199 -1.8544  0.5198 -0.0860
  110MOL0     H14517   9.321   4.921   2.108  1.9561  1.3447 -1.1159
  110MOL0     H14518   9.255   5.270   1.856 -1.5207 -0.7056 -0.4546
  110MOL0     H14519   8.697   5.067   2.185  0.1464 -0.2618 -0.5074
  110MOL0     H14520   8.450   5.031   2.229 -0.1346 -0.5208  0.7700
  111MOL0     O14521   6.153   7.756   4.629 -1.1684  0.3514  0.3531
  111MOL0     C14522   6.174   7.639   4.624 -1.1389  0.0299 -0.5719
  111MOL0     O14523   6.088   7.546   4.648  0.1172  0.4546  0.0010
  111MOL0     C14524   5.970   7.579   4.707 -0.9908  0.1742 -0.3845
  111MOL0     C14525   5.860   7.604   4.629 -0.0700 -0.1210  0.5395
  111MOL0     C14526   5.737   7.641   4.692 -0.3646  0.6464  0.7328
  111MOL0     C14527   5.732   7.641   4.834  0.8100 -0.3052 -0.5674
  111MOL0     O14528   5.608   7.663   4.899  0.2236 -0.0755 -0.3828
  111MOL0     C14529   5.483   7.651   4.837  0.7380 -0.1320  0.6801
  111MOL0     C14530   5.392   7.606   4.950  0.3234  0.9761  0.5580
  111MOL0     C14531   5.374   7.723   5.046 -0.1343  0.0953  0.2079
  111MOL0     C14532   5.289   7.670   5.162  0.4055  0.4133 -0.6632
  111MOL0     C14533   5.252   7.779   5.255 -0.2997  0.2732 -1.1169
  111MOL0     C14534   5.164   7.725   5.382  0.4694  0.1622 -0.6054
  111MOL0     C14535   5.119   7.844   5.452 -1.1386 -0.6612 -0.1750
  111MOL0     C14536   5.133   7.840   5.611 -0.9520  0.0455  0.2756
  111MOL0     N14537   5.121   7.961   5.680 -0.1185 -0.4486 -0.0085
  111MOL0     C14538   5.195   8.082   5.656  0.0518  0.5492 -0.0970
  111MOL0     C14539   5.162   8.167   5.746  0.0733  0.2423 -0.1333
  111MOL0     C14540   5.205   8.308   5.771  0.6037  0.6722 -0.4591
  111MOL0     C14541   5.258   8.367   5.652  0.4401 -0.5377 -0.4315
  111MOL0     C14542   5.268   8.529   5.668 -0.5681  0.7527  0.1935
  111MOL0     C14543   5.260   8.604   5.537  0.2356 -0.3492  0.2680
  111MOL0     O14544   5.128   8.607   5.469 -0.5434  0.1634 -0.7486
  111MOL0     C14545   5.029   8.685   5.528 -0.9507  0.1154  0.5710
  111MOL0     C14546   4.970   8.638   5.644  0.7705 -1.2291 -0.7961
  111MOL0     C14547   4.875   8.721   5.703  0.1529 -1.2824 -0.3485
  111MOL0     C14548   4.839   8.851   5.648 -0.0846 -0.6716  0.1581
  111MOL0     C14549   4.736   8.928   5.708  0.1904  0.6107 -0.7773
  111MOL0     O14550   4.654   8.874   5.805  0.5342  0.7860  0.6517
  111MOL0     C14551   4.552   8.954   5.871  1.1936 -0.2587 -0.0877
  111MOL0     C14552   4.439   8.889   5.938 -0.0402  0.2522  0.7066
  111MOL0     C14553   4.353   8.963   6.016  0.1461 -0.1519  0.6800
  111MOL0     C14554   4.363   9.099   6.033  0.0102 -0.0773 -0.2583
  111MOL0     O14555   4.273   9.184   6.099  0.8269 -0.0996  0.4147
  111MOL0     C14556   4.178   9.109   6.169  0.3777  0.7591  0.3016
  111MOL0     C14557   4.082   9.175   6.271  0.5548  0.4888  0.7570
  111MOL0     C14558   3.962   9.231   6.192  0.8112  0.0452 -0.5630
  111MOL0     C14559   4.006   9.362   6.125  0.2236  0.6344 -0.3201
  111MOL0     C14560   3.889   9.440   6.052 -1.0909  0.4355  0.3029
  111MOL0     C14561   3.768   9.489   6.146 -0.4787  0.8559 -0.3000
  111MOL0     C14562   3.657   9.550   6.071 -0.7941 -0.8723  0.1450
  111MOL0     C14563   3.544   9.600   6.155  0.0532  0.4102  0.0217
  111MOL0    Cl14564   3.613   9.713   6.281  0.0006 -0.5886 -0.2070
  111MOL0     C14565   4.460   9.170   5.966 -0.1623 -0.0742  0.6327
  111MOL0     C14566   4.557   9.099   5.885  0.2112 -0.4336 -0.9519
  111MOL0     O14567   4.719   9.033   5.661 -0.1831  0.6175 -0.1998
  111MOL0     C14568   4.894   8.882   5.519 -0.1856 -1.0538 -0.8308
  111MOL0     C14569   4.988   8.794   5.456 -0.6871 -0.1490  0.6167
  111MOL0     N14570   5.058   8.111   5.822  0.2334  0.0718  0.1325
  111MOL0     N14571   5.035   7.991   5.778  0.5380  0.7912 -0.2649
  111MOL0     C14572   5.844   7.618   4.913 -0.3929 -0.6152 -0.2490
  111MOL0     C14573   5.966   7.580   4.846  0.2771  0.1644 -0.9133
  111MOL0     C14574   6.301   7.583   4.571 -0.0015  0.0051  0.0109
  111MOL0     C14575   6.340   7.449   4.596  0.5836  0.4664  0.4561
  111MOL0     C14576   6.457   7.396   4.536  0.5286 -0.7697  0.6318
  111MOL0     C14577   6.536   7.481   4.457 -0.7575  0.6035 -0.0730
  111MOL0     O14578   6.655   7.441   4.401 -0.9383 -0.1850 -0.3880
  111MOL0     C14579   6.621   7.374   4.278 -0.5447  0.4483  0.1128
  111MOL0     C14580   6.691   7.447   4.164 -0.6740 -0.0466  0.3136
  111MOL0     C14581   6.843   7.464   4.182  0.0892  0.9145  1.7617
  111MOL0     C14582   6.917   7.328   4.170 -0.5638  0.1240  0.4342
  111MOL0     C14583   6.926   7.275   4.030  0.5163 -0.2199  0.0077
  111MOL0     C14584   6.937   7.222   3.919  0.6457 -0.1671 -0.3648
  111MOL0     C14585   6.503   7.615   4.441 -0.2686  0.0445 -0.6026
  111MOL0     C14586   6.382   7.664   4.492 -0.1809 -0.3726  1.0253
  111MOL0     H14587   5.886   7.611   4.524  1.6835  2.9061  1.0643
  111MOL0     H14588   5.648   7.661   4.634  0.4873  0.1223 -0.8192
  111MOL0     H14589   5.485   7.587   4.749  1.3616  2.5835 -1.4002
  111MOL0     H14590   5.461   7.754   4.809 -0.4783 -0.0902  1.7007
  111MOL0     H14591   5.443   7.521   4.996  1.1431  0.3558 -1.3857
  111MOL0     H14592   5.297   7.589   4.899  0.5899  2.4721 -0.5314
  111MOL0     H14593   5.327   7.812   5.003 -0.1462 -0.1894 -0.3697
  111MOL0     H14594   5.469   7.755   5.091  0.8902 -0.2701 -1.5919
  111MOL0     H14595   5.197   7.634   5.116  0.4745  2.3915 -2.4830
  111MOL0     H14596   5.344   7.590   5.213  0.6183  0.9375 -0.0657
  111MOL0     H14597   5.199   7.863   5.209 -0.7040 -0.4211 -1.9693
  111MOL0     H14598   5.347   7.822   5.287  1.0829 -1.3928 -2.7409
  111MOL0     H14599   5.238   7.665   5.436  0.9521  1.2124 -0.0686
  111MOL0     H14600   5.078   7.675   5.338  1.2020 -0.4279 -1.3947
  111MOL0     H14601   5.184   7.929   5.429  0.6343 -0.8970  3.2941
  111MOL0     H14602   5.012   7.862   5.433 -1.7686  1.3746  4.0984
  111MOL0     H14603   5.235   7.810   5.638 -1.6236 -3.5806 -0.6606
  111MOL0     H14604   5.071   7.758   5.651 -1.4838  0.5867  0.5708
  111MOL0     H14605   5.272   8.101   5.581 -1.0946  0.6217 -1.2911
  111MOL0     H14606   5.274   8.306   5.856 -1.9615 -0.4166  1.7404
  111MOL0     H14607   5.113   8.358   5.802  1.2544  1.1193  0.8527
  111MOL0     H14608   5.196   8.353   5.563 -1.1819 -0.4711  0.6476
  111MOL0     H14609   5.349   8.309   5.634 -0.8107 -3.0066  0.7741
  111MOL0     H14610   5.188   8.566   5.733 -2.0440  1.4823 -1.9474
  111MOL0     H14611   5.362   8.546   5.722  1.5042 -4.0490 -1.3104
  111MOL0     H14612   5.333   8.564   5.465  1.5700 -0.6808  1.7388
  111MOL0     H14613   5.286   8.707   5.561 -2.6285  0.7675 -1.0391
  111MOL0     H14614   4.985   8.537   5.681  0.0380  0.6140  5.7309
  111MOL0     H14615   4.821   8.693   5.793 -0.3068  1.8527  0.4584
  111MOL0     H14616   4.409   8.788   5.912  0.6632  0.3392 -0.5285
  111MOL0     H14617   4.271   8.905   6.057  0.2334 -3.2325 -2.9677
  111MOL0     H14618   4.231   9.033   6.228  1.8603  0.6967 -1.0574
  111MOL0     H14619   4.115   9.055   6.097 -0.0536  0.8972  0.5703
  111MOL0     H14620   4.130   9.247   6.337 -1.3625  0.3680  2.3714
  111MOL0     H14621   4.043   9.089   6.326  1.2971  0.7493  1.6987
  111MOL0     H14622   3.890   9.256   6.270  0.3816 -1.7074 -0.3650
  111MOL0     H14623   3.923   9.155   6.125  3.4678  0.3270 -2.5931
  111MOL0     H14624   4.059   9.420   6.201 -1.8461  2.0770  0.1187
  111MOL0     H14625   4.068   9.324   6.044  0.3041 -0.7014  0.3304
  111MOL0     H14626   3.848   9.365   5.983 -0.3297 -1.7022  2.0687
  111MOL0     H14627   3.928   9.523   5.992 -1.5362  0.0360 -0.5612
  111MOL0     H14628   3.812   9.569   6.206 -1.4754  1.2305 -0.0422
  111MOL0     H14629   3.721   9.414   6.211  0.2904 -0.2866 -1.0146
  111MOL0     H14630   3.699   9.633   6.013  2.0603 -3.3488 -1.6081
  111MOL0     H14631   3.626   9.485   5.989  0.4468  1.1988 -2.0964
  111MOL0     H14632   3.473   9.522   6.186 -1.6493  1.9182  0.0878
  111MOL0     H14633   3.482   9.662   6.089  0.5898  1.1860  0.2339
  111MOL0     H14634   4.450   9.278   5.974  1.1745  0.5175 -3.4728
  111MOL0     H14635   4.641   9.156   5.846  0.5147 -0.9009 -0.9950
  111MOL0     H14636   4.862   8.971   5.467 -2.0959 -0.6385  0.9493
  111MOL0     H14637   5.043   8.812   5.365 -1.6037 -0.9565 -0.1185
  111MOL0     H14638   5.848   7.620   5.021  4.0300 -3.0629 -0.1465
  111MOL0     H14639   6.055   7.552   4.900 -0.0246  3.9861  1.9702
  111MOL0     H14640   6.287   7.385   4.666  1.2280 -1.4055 -0.7011
  111MOL0     H14641   6.489   7.297   4.566  1.5006  0.7011  5.2879
  111MOL0     H14642   6.514   7.383   4.257 -1.6208 -1.9454  3.6668
  111MOL0     H14643   6.658   7.272   4.286  0.9108  0.8977 -0.5581
  111MOL0     H14644   6.681   7.399   4.066 -1.0395 -0.2648  0.4562
  111MOL0     H14645   6.654   7.550   4.159  3.8273  1.7782 -0.1340
  111MOL0     H14646   6.852   7.504   4.284 -0.0869  0.8848  1.7899
  111MOL0     H14647   6.884   7.552   4.131 -3.5456  1.2868 -0.9260
  111MOL0     H14648   7.021   7.355   4.191 -0.6014 -1.3563  2.8234
  111MOL0     H14649   6.882   7.260   4.248  0.9897 -1.2156  0.0220
  111MOL0     H14650   6.935   7.170   3.826 -2.7287 -1.9571  0.5624
  111MOL0     H14651   6.577   7.679   4.393  0.0299 -0.3751 -0.7151
  111MOL0     H14652   6.368   7.768   4.465  1.1254 -0.6404 -0.8426
  112MOL0     O14653   9.900   5.553   9.675 -0.0948 -0.1678  1.0510
  112MOL0     C14654   9.932   5.457   9.609 -0.0227  0.2647 -0.0585
  112MOL0     O14655   9.851   5.348   9.587 -0.6616 -0.1659 -0.6121
  112MOL0     C14656   9.720   5.346   9.615  0.2189 -0.9765 -0.4468
  112MOL0     C14657   9.675   5.228   9.657 -0.5574 -0.3156  0.2727
  112MOL0     C14658   9.539   5.207   9.679 -0.2353  0.1392 -0.4456
  112MOL0     C14659   9.445   5.304   9.667 -0.2448  0.4610  0.1341
  112MOL0     O14660   9.310   5.294   9.694  0.0070 -0.1840 -0.3017
  112MOL0     C14661   9.259   5.161   9.715  0.8343  0.7388  0.4035
  112MOL0     C14662   9.101   5.171   9.706 -0.2559  0.1754 -0.1008
  112MOL0     C14663   9.062   5.166   9.562  0.2725 -0.7885 -0.0802
  112MOL0     C14664   8.909   5.177   9.555 -0.8165 -0.0574 -0.6988
  112MOL0     C14665   8.835   5.050   9.592  0.9981  0.4584 -1.1244
  112MOL0     C14666   8.681   5.066   9.589  0.4806  0.4429  0.3267
  112MOL0     C14667   8.644   5.106   9.446 -0.9240 -0.0645 -0.0530
  112MOL0     C14668   8.493   5.092   9.412 -0.4859  0.0454 -0.7617
  112MOL0     N14669   8.404   5.178   9.497  0.0287 -0.8899 -0.3211
  112MOL0     C14670   8.399   5.319   9.486  0.0585 -0.0165 -1.0963
  112MOL0     C14671   8.296   5.364   9.571  0.5323  0.2867  1.7706
  112MOL0     C14672   8.233   5.506   9.571 -0.4187  0.1670 -0.2268
  112MOL0     C14673   8.293   5.569   9.692  0.7397  0.8877  0.4543
  112MOL0     C14674   8.441   5.592   9.687  0.1182 -0.4122 -0.3424
  112MOL0     C14675   8.482   5.692   9.802  1.0589 -0.3983 -0.2582
  112MOL0     O14676   8.618   5.688   9.839 -0.5999  0.5867 -0.0140
  112MOL0     C14677   8.728   5.684   9.753 -0.4144 -0.5749  0.6491
  112MOL0     C14678   8.728   5.753   9.635 -0.3612 -0.7407 -0.4699
  112MOL0     C14679   8.848   5.771   9.564  0.0363 -0.3714 -0.4083
  112MOL0     C14680   8.968   5.703   9.587  0.2964 -0.0627 -0.1345
  112MOL0     C14681   9.083   5.708   9.502 -0.3573 -0.0857  0.5879
  112MOL0     O14682   9.159   5.598   9.506  0.3805  0.3994  0.2720
  112MOL0     C14683   9.268   5.600   9.429  0.5175  0.4317 -0.2662
  112MOL0     C14684   9.359   5.704   9.417 -1.0485 -0.0937 -0.1589
  112MOL0     C14685   9.472   5.677   9.332  0.7751 -0.3953 -0.5685
  112MOL0     C14686   9.498   5.555   9.280  0.7069 -0.2035  0.0757
  112MOL0     O14687   9.621   5.530   9.223 -0.3327 -0.9878  0.4354
  112MOL0     C14688   9.680   5.393   9.226  1.1075 -0.4422  0.8967
  112MOL0     C14689   9.810   5.412   9.143  0.7157 -0.2363 -0.2618
  112MOL0     C14690   9.912   5.509   9.195  0.5032 -0.4805 -0.8539
  112MOL0     C14691  10.020   5.538   9.096  0.0360 -0.0706  0.5812
  112MOL0     C14692  10.158   5.573   9.167 -0.6914 -0.2047 -0.5357
  112MOL0     C14693  10.267   5.633   9.072  0.8107 -0.8298 -0.2159
  112MOL0     C14694  10.383   5.698   9.153  0.2699  0.2066 -0.5845
  112MOL0     C14695  10.487   5.730   9.051  0.4375 -0.0194 -0.0719
  112MOL0    Cl14696  10.597   5.587   9.047 -0.3570 -0.0468 -0.3136
  112MOL0     C14697   9.406   5.448   9.300  0.1692  1.1716 -0.3704
  112MOL0     C14698   9.289   5.473   9.367  0.6396 -0.3598  0.4313
  112MOL0     O14699   9.080   5.786   9.407  0.2008 -0.2488  0.1512
  112MOL0     C14700   8.974   5.633   9.710  0.2066  0.3326  0.1283
  112MOL0     C14701   8.860   5.632   9.788  0.0909 -0.0054 -0.8402
  112MOL0     N14702   8.247   5.248   9.641 -0.5460 -0.8799 -0.1863
  112MOL0     N14703   8.317   5.144   9.595 -0.3373  0.0468  0.2702
  112MOL0     C14704   9.495   5.437   9.649  0.3039  0.0981  0.5381
  112MOL0     C14705   9.631   5.451   9.613  0.4161 -0.8444  0.1910
  112MOL0     C14706  10.066   5.452   9.547  0.2777 -0.1075 -1.4072
  112MOL0     C14707  10.136   5.329   9.532  0.6541 -0.3681  0.5203
  112MOL0     C14708  10.256   5.321   9.480 -0.9811 -0.1071 -1.3577
  112MOL0     C14709  10.329   5.433   9.450 -0.0872 -0.3024 -1.0499
  112MOL0     O14710  10.447   5.427   9.389  0.6119  0.1720 -0.4632
  112MOL0     C14711  10.557   5.456   9.473 -0.0463  1.5551 -0.1557
  112MOL0     C14712  10.596   5.329   9.552 -0.6941 -0.1714 -0.8142
  112MOL0     C14713  10.736   5.345   9.618 -0.2873 -0.6410 -0.1171
  112MOL0     C14714  10.850   5.300   9.531  0.9021  0.1080  0.7099
  112MOL0     C14715  10.962   5.317   9.614 -0.6530 -1.1891 -0.6623
  112MOL0     C14716  11.057   5.333   9.683  0.3206  0.3981 -0.4527
  112MOL0     C14717  10.262   5.550   9.468  0.4249  0.6091  0.1432
  112MOL0     C14718  10.135   5.564   9.513  0.0887 -0.4482 -0.2939
  112MOL0     H14719   9.743   5.149   9.688  0.5681  1.2792  2.1055
  112MOL0     H14720   9.522   5.107   9.718  0.0354  0.8108  1.4664
  112MOL0     H14721   9.300   5.125   9.809 -0.5086  0.8154  1.0312
  112MOL0     H14722   9.293   5.096   9.633 -3.2638  1.8455 -2.5131
  112MOL0     H14723   9.073   5.260   9.762 -0.3027 -1.5610  2.8111
  112MOL0     H14724   9.064   5.083   9.760 -3.1743  0.9526 -0.6772
  112MOL0     H14725   9.097   5.073   9.518 -1.5770 -0.0920 -3.3628
  112MOL0     H14726   9.097   5.259   9.516 -1.1226  2.2506  4.2364
  112MOL0     H14727   8.879   5.254   9.626  2.3322  0.4251  0.2494
  112MOL0     H14728   8.892   5.196   9.448  2.8792  3.1117 -0.8966
  112MOL0     H14729   8.860   5.019   9.693 -0.7408  3.0741  0.2343
  112MOL0     H14730   8.867   4.965   9.531  0.3792 -1.9356  1.6975
  112MOL0     H14731   8.643   5.154   9.641 -1.5645  0.1992 -0.6408
  112MOL0     H14732   8.622   4.979   9.622  2.0416 -0.9446 -0.4070
  112MOL0     H14733   8.672   5.207   9.415 -0.4313  0.3986  1.8096
  112MOL0     H14734   8.684   5.028   9.380 -2.2126 -1.7728  1.0856
  112MOL0     H14735   8.464   4.987   9.425  0.1306  0.0745  1.2753
  112MOL0     H14736   8.487   5.120   9.307  3.7514 -3.5078 -2.2389
  112MOL0     H14737   8.458   5.380   9.419 -0.8375  1.1195 -0.8828
  112MOL0     H14738   8.125   5.487   9.575 -0.8392  1.2297 -3.3770
  112MOL0     H14739   8.260   5.564   9.483  1.7855  2.0713  1.5804
  112MOL0     H14740   8.277   5.495   9.771  0.4721  0.5070  0.0471
  112MOL0     H14741   8.230   5.656   9.714 -1.4913 -0.9355  1.7052
  112MOL0     H14742   8.491   5.498   9.712 -1.0146 -0.7397  0.8234
  112MOL0     H14743   8.480   5.627   9.592  1.0836  1.3916  0.6554
  112MOL0     H14744   8.427   5.661   9.891 -0.4483 -0.2145 -1.0913
  112MOL0     H14745   8.447   5.791   9.770 -1.2975 -1.9772 -2.9908
  112MOL0     H14746   8.634   5.799   9.605 -1.0407 -2.1493 -0.5387
  112MOL0     H14747   8.859   5.838   9.478  0.7073  0.8223  0.5751
  112MOL0     H14748   9.346   5.798   9.469 -3.3681  0.6309 -1.9130
  112MOL0     H14749   9.539   5.761   9.317 -0.0356  1.3132  3.8728
  112MOL0     H14750   9.620   5.320   9.169  2.2585 -0.4555 -0.3387
  112MOL0     H14751   9.696   5.369   9.332 -0.1840 -1.4316  0.9018
  112MOL0     H14752   9.774   5.467   9.055  3.9758  1.1631 -0.8602
  112MOL0     H14753   9.849   5.315   9.112 -1.3050 -1.1171 -0.2071
  112MOL0     H14754   9.950   5.470   9.289  1.3359 -0.8792 -1.3460
  112MOL0     H14755   9.865   5.605   9.220 -1.4654 -1.1847 -1.6522
  112MOL0     H14756  10.039   5.449   9.036 -3.2671 -0.0443 -0.7246
  112MOL0     H14757   9.991   5.624   9.034 -4.2920  0.6092  3.1015
  112MOL0     H14758  10.188   5.473   9.199 -2.6932 -1.4810 -2.3083
  112MOL0     H14759  10.146   5.645   9.248  1.7593  0.1075 -0.3857
  112MOL0     H14760  10.211   5.709   9.016 -1.3319 -2.3560 -0.2503
  112MOL0     H14761  10.298   5.551   9.006  0.3310  0.0017 -1.5257
  112MOL0     H14762  10.365   5.793   9.203 -1.6857 -0.8723  0.9563
  112MOL0     H14763  10.420   5.619   9.220  1.1419 -1.3457 -2.7808
  112MOL0     H14764  10.542   5.820   9.079 -0.0776  0.2505  0.0841
  112MOL0     H14765  10.449   5.746   8.949  0.2865 -1.0836 -0.1927
  112MOL0     H14766   9.417   5.345   9.268 -3.5429 -0.3415  2.4667
  112MOL0     H14767   9.227   5.390   9.398  1.2992 -0.0205  2.8576
  112MOL0     H14768   9.068   5.604   9.756  0.3968  0.9660  0.1480
  112MOL0     H14769   8.878   5.566   9.872 -0.9556 -1.4084 -1.6544
  112MOL0     H14770   9.422   5.518   9.641 -0.7304 -0.8347  0.2637
  112MOL0     H14771   9.671   5.552   9.610 -0.7027 -0.1845  3.2775
  112MOL0     H14772  10.100   5.230   9.562 -0.2330 -0.8012 -1.7905
  112MOL0     H14773  10.303   5.225   9.458 -1.4068 -0.6842  0.1183
  112MOL0     H14774  10.545   5.547   9.534 -0.6218  1.7826 -0.5911
  112MOL0     H14775  10.643   5.490   9.413  2.8276 -2.7732  1.0880
  112MOL0     H14776  10.522   5.318   9.633 -0.4220  0.4972 -0.4656
  112MOL0     H14777  10.585   5.241   9.488  1.2703 -0.7015 -0.4847
  112MOL0     H14778  10.739   5.282   9.707 -2.3276 -1.4865 -0.5837
  112MOL0     H14779  10.761   5.447   9.649  1.1988 -0.3112 -2.1806
  112MOL0     H14780  10.829   5.203   9.484 -2.0784  0.0382  1.9456
  112MOL0     H14781  10.852   5.370   9.447  1.2822 -0.2528  0.4139
  112MOL0     H14782  11.135   5.359   9.751 -0.5762  3.0278 -0.2990
  112MOL0     H14783  10.309   5.642   9.433  2.0466 -0.5782 -0.9652
  112MOL0     H14784  10.099   5.666   9.528  0.2346 -0.4449  0.0442
  113MOL0     O14785   2.619   9.213   4.849 -0.2090  0.5607  0.5514
  113MOL0     C14786   2.585   9.168   4.739  0.3609 -0.0763  0.5807
  113MOL0     O14787   2.658   9.159   4.623 -0.5910  0.1139  0.2875
  113MOL0     C14788   2.802   9.168   4.640  0.2811  0.9402 -0.4236
  113MOL0     C14789   2.877   9.054   4.654  0.5158 -0.2202 -0.2149
  113MOL0     C14790   3.016   9.052   4.693  0.3986 -0.7080  0.3732
  113MOL0     C14791   3.083   9.175   4.698 -0.0872 -0.4523  0.5825
  113MOL0     O14792   3.216   9.180   4.731 -0.9913 -0.5382 -0.1355
  113MOL0     C14793   3.304   9.281   4.661  0.0267  0.8478 -0.0986
  113MOL0     C14794   3.342   9.382   4.767  0.4778 -0.8014  0.1460
  113MOL0     C14795   3.406   9.313   4.887 -0.3488 -0.9147  0.1917
  113MOL0     C14796   3.468   9.413   4.988 -0.2493 -0.4292 -0.8005
  113MOL0     C14797   3.537   9.357   5.115 -0.0358 -0.7083 -0.2091
  113MOL0     C14798   3.547   9.470   5.209  0.5858 -0.5012  0.4042
  113MOL0     C14799   3.419   9.504   5.275 -0.6759  0.8973 -0.5609
  113MOL0     C14800   3.433   9.633   5.355 -0.0845  0.1380 -0.0892
  113MOL0     N14801   3.433   9.761   5.271  0.3901 -0.5012  0.3533
  113MOL0     C14802   3.331   9.817   5.193  0.1835  0.7812  0.2309
  113MOL0     C14803   3.389   9.935   5.145  0.6884  1.0149 -0.6342
  113MOL0     C14804   3.311  10.012   5.041 -0.1227 -0.3468  0.0333
  113MOL0     C14805   3.170  10.038   5.074 -0.7938  0.1912 -0.1611
  113MOL0     C14806   3.101  10.105   4.952  0.4815 -0.1719 -1.1028
  113MOL0     C14807   2.958  10.067   4.945  0.4205 -0.7884 -0.2582
  113MOL0     O14808   2.877  10.143   4.858  0.8102  0.0138 -0.3228
  113MOL0     C14809   2.738  10.128   4.860 -0.7243 -0.9479  0.5928
  113MOL0     C14810   2.674  10.021   4.922 -0.9543  0.1243  0.3149
  113MOL0     C14811   2.543  10.002   4.911  0.3294  0.3596 -0.1833
  113MOL0     C14812   2.455  10.089   4.827 -0.0556  0.2888  0.8230
  113MOL0     C14813   2.313  10.062   4.797  0.2116 -0.3315 -0.0324
  113MOL0     O14814   2.241  10.007   4.896 -0.3807  0.8719 -0.2903
  113MOL0     C14815   2.117   9.959   4.867 -0.4574 -0.0588 -0.4622
  113MOL0     C14816   2.102   9.863   4.767 -0.6028  0.6626  0.0565
  113MOL0     C14817   1.980   9.813   4.744 -0.2071  0.0548 -0.0165
  113MOL0     C14818   1.867   9.841   4.816 -0.0928 -0.9020 -0.3489
  113MOL0     O14819   1.753   9.772   4.787 -0.0444 -0.1607  0.0633
  113MOL0     C14820   1.637   9.855   4.774  1.0915 -0.7373  0.3809
  113MOL0     C14821   1.533   9.806   4.670 -1.1990  0.3677  0.8579
  113MOL0     C14822   1.451   9.696   4.724  0.1760 -0.1604  0.3326
  113MOL0     C14823   1.345   9.669   4.615  0.8945 -0.5269  0.3729
  113MOL0     C14824   1.211   9.615   4.658  0.2393 -0.2561  1.1096
  113MOL0     C14825   1.221   9.485   4.725  0.3388  0.6606  1.1630
  113MOL0     C14826   1.083   9.422   4.743  0.6514  0.2073  0.4179
  113MOL0     C14827   1.065   9.314   4.849  0.5232 -0.2467 -1.3901
  113MOL0    Cl14828   1.110   9.145   4.804 -0.2242  0.2135 -0.3522
  113MOL0     C14829   1.881   9.939   4.918 -0.1913 -0.6904  0.1890
  113MOL0     C14830   2.003   9.998   4.936  0.0531 -0.7347 -0.4567
  113MOL0     O14831   2.262  10.084   4.691 -0.7328  0.0553 -0.0051
  113MOL0     C14832   2.517  10.190   4.758  0.5512 -0.4292 -0.1949
  113MOL0     C14833   2.660  10.213   4.777 -0.7846  0.1163 -0.6776
  113MOL0     N14834   3.514   9.941   5.180  0.0553  0.5779 -0.2445
  113MOL0     N14835   3.539   9.834   5.247  1.0131 -0.3727 -0.0180
  113MOL0     C14836   3.008   9.299   4.679  0.1047  0.4545 -0.6500
  113MOL0     C14837   2.874   9.284   4.661  0.1911 -0.3683  0.6601
  113MOL0     C14838   2.433   9.141   4.748  0.0887  0.2810 -0.4811
  113MOL0     C14839   2.372   9.090   4.631  0.2478 -0.7054  0.2564
  113MOL0     C14840   2.229   9.067   4.632 -0.0657  0.7192 -0.3191
  113MOL0     C14841   2.153   9.088   4.751  0.3046 -1.0627 -0.1523
  113MOL0     O14842   2.023   9.074   4.767 -0.2903  0.1164  0.0275
  113MOL0     C14843   1.944   9.020   4.662 -0.8872 -0.6573  0.1129
  113MOL0     C14844   1.806   9.001   4.720  0.1492  0.1764 -0.2080
  113MOL0     C14845   1.742   9.134   4.745 -0.2973  0.3352 -0.3767
  113MOL0     C14846   1.618   9.113   4.832 -0.1967 -0.0633 -0.6387
  113MOL0     C14847   1.585   9.238   4.909  1.0207 -0.4970  0.3598
  113MOL0     C14848   1.568   9.334   4.983 -0.0577 -0.1134 -0.5119
  113MOL0     C14849   2.211   9.140   4.866 -0.5840  0.2636  0.1755
  113MOL0     C14850   2.354   9.170   4.867  0.4806 -0.0503  0.2054
  113MOL0     H14851   2.834   8.955   4.642 -0.8163  0.4067 -0.8869
  113MOL0     H14852   3.063   8.956   4.714  0.7812 -0.8971 -1.2574
  113MOL0     H14853   3.255   9.323   4.572  1.0701 -0.7042 -1.4566
  113MOL0     H14854   3.386   9.226   4.615 -2.3084 -2.9222 -0.1413
  113MOL0     H14855   3.262   9.444   4.808 -0.1756 -1.2881 -0.3755
  113MOL0     H14856   3.408   9.456   4.719  3.3239 -1.8197  2.2315
  113MOL0     H14857   3.491   9.259   4.845 -0.6020 -1.9228  0.9388
  113MOL0     H14858   3.329   9.259   4.943 -1.3080 -2.2756 -2.2805
  113MOL0     H14859   3.530   9.481   4.929 -0.0521  0.7192  0.6757
  113MOL0     H14860   3.388   9.478   5.024  2.7205  1.5924  2.9441
  113MOL0     H14861   3.639   9.327   5.092  0.1641 -0.3950  0.2525
  113MOL0     H14862   3.485   9.277   5.169  1.0345  1.1407  3.9212
  113MOL0     H14863   3.569   9.567   5.163  0.7273  0.0620  1.6242
  113MOL0     H14864   3.619   9.444   5.287  2.4404 -1.0919 -1.4003
  113MOL0     H14865   3.336   9.509   5.204  2.0769 -1.1178 -4.3177
  113MOL0     H14866   3.390   9.429   5.350 -0.6104  1.4154 -0.0113
  113MOL0     H14867   3.528   9.620   5.408  1.0987 -1.9905 -2.4904
  113MOL0     H14868   3.348   9.635   5.424  0.3952  2.3369  0.4912
  113MOL0     H14869   3.237   9.767   5.174  2.7889 -4.2874 -1.2307
  113MOL0     H14870   3.309   9.950   4.951 -0.2802 -0.7333  0.3008
  113MOL0     H14871   3.370  10.104   5.042 -1.8436  0.8147  1.0901
  113MOL0     H14872   3.170  10.106   5.160  3.4829 -0.1147  0.2836
  113MOL0     H14873   3.125   9.947   5.114 -0.1627  0.5873  1.5266
  113MOL0     H14874   3.116  10.213   4.947 -2.2595  0.2998 -0.9919
  113MOL0     H14875   3.141  10.064   4.859 -2.1599  2.1095 -3.4489
  113MOL0     H14876   2.916  10.077   5.046 -1.5032 -0.0682 -1.0842
  113MOL0     H14877   2.956   9.959   4.928  1.8412 -1.1539  1.5816
  113MOL0     H14878   2.726   9.953   4.989 -0.1694 -1.1171 -1.4641
  113MOL0     H14879   2.493   9.911   4.943 -0.3196  0.5083 -0.7766
  113MOL0     H14880   2.183   9.823   4.707 -0.6940 -1.3975  1.1924
  113MOL0     H14881   1.959   9.747   4.660 -1.0585 -0.7402  0.8021
  113MOL0     H14882   1.663   9.943   4.714  0.7056 -2.1614 -2.0214
  113MOL0     H14883   1.589   9.868   4.871 -4.6705 -2.8601 -1.7305
  113MOL0     H14884   1.584   9.770   4.580  3.5474  4.1296  1.6910
  113MOL0     H14885   1.474   9.893   4.642  1.8447  1.9779 -1.0968
  113MOL0     H14886   1.407   9.717   4.822 -2.2539  1.3436 -0.9837
  113MOL0     H14887   1.514   9.609   4.741 -0.8577 -0.8080  0.9531
  113MOL0     H14888   1.322   9.757   4.554  2.3412 -0.5617 -0.2708
  113MOL0     H14889   1.381   9.587   4.552  4.1260 -1.8141  3.4839
  113MOL0     H14890   1.152   9.594   4.568  1.8648 -1.3762  0.2631
  113MOL0     H14891   1.163   9.685   4.728 -0.6319 -0.6126  0.8841
  113MOL0     H14892   1.262   9.481   4.826  2.6386 -1.9328  0.2407
  113MOL0     H14893   1.282   9.422   4.660 -0.7934  4.0665 -3.7264
  113MOL0     H14894   1.014   9.504   4.765 -0.9339 -0.8575 -0.3113
  113MOL0     H14895   1.045   9.383   4.648  2.1332  1.2504 -0.6400
  113MOL0     H14896   0.957   9.301   4.862  0.8977 -0.2282  4.2166
  113MOL0     H14897   1.114   9.346   4.942  1.5972 -1.0069 -1.6717
  113MOL0     H14898   1.800   9.976   4.981 -0.4395 -1.4168  0.3056
  113MOL0     H14899   2.027  10.084   4.999  0.2936 -1.0554 -0.1017
  113MOL0     H14900   2.463  10.266   4.702  2.6924  1.1820 -0.2045
  113MOL0     H14901   2.723  10.282   4.722 -0.9303 -0.2466 -1.3136
  113MOL0     H14902   3.048   9.400   4.688 -1.2801  1.1797 -2.1121
  113MOL0     H14903   2.824   9.381   4.660  1.6483  0.4900  3.0066
  113MOL0     H14904   2.428   9.077   4.539  0.5670 -1.3804  0.5429
  113MOL0     H14905   2.187   9.013   4.547 -0.0618 -1.7262  1.1295
  113MOL0     H14906   1.991   8.928   4.626  1.4620  0.3987  0.2883
  113MOL0     H14907   1.936   9.091   4.580 -1.4352  2.9734  3.0570
  113MOL0     H14908   1.744   8.948   4.646 -0.5634  1.2490 -0.4030
  113MOL0     H14909   1.818   8.953   4.817  0.3826  5.9412  3.0160
  113MOL0     H14910   1.714   9.195   4.659 -1.5360 -1.4755 -1.3395
  113MOL0     H14911   1.808   9.195   4.807 -1.0145 -0.1945  0.9685
  113MOL0     H14912   1.530   9.092   4.770 -1.1779  2.2894 -0.1531
  113MOL0     H14913   1.646   9.042   4.910  1.5248 -2.3725 -3.1459
  113MOL0     H14914   1.561   9.415   5.053  2.7204  0.0467 -0.3217
  113MOL0     H14915   2.152   9.168   4.953 -1.1374 -1.0956  0.2643
  113MOL0     H14916   2.397   9.210   4.957 -1.9286  2.3117  0.4358
  114MOL0     O14917   8.274   0.049   7.863  0.7889 -0.5230  0.6735
  114MOL0     C14918   8.329   0.072   7.973 -0.2692  0.2230  0.4815
  114MOL0     O14919   8.267   0.103   8.085  0.8946 -0.4297  0.4263
  114MOL0     C14920   8.144   0.166   8.084  1.0841 -0.3031 -0.4103
  114MOL0     C14921   8.061   0.148   8.200 -0.0202 -0.2414 -0.2792
  114MOL0     C14922   7.941   0.222   8.216  0.0769 -1.1532  0.8730
  114MOL0     C14923   7.886   0.291   8.105  0.6531 -0.0963 -0.2025
  114MOL0     O14924   7.755   0.333   8.116 -0.0167 -1.0138 -0.2528
  114MOL0     C14925   7.680   0.373   8.004 -0.3634  0.7162  0.4058
  114MOL0     C14926   7.539   0.405   8.053 -0.7915 -0.5402  0.6103
  114MOL0     C14927   7.517   0.493   8.184  0.7929 -0.0416 -0.4820
  114MOL0     C14928   7.572   0.636   8.165  0.0112  0.5962 -0.3649
  114MOL0     C14929   7.513   0.706   8.053  0.0387 -0.0884 -0.4435
  114MOL0     C14930   7.363   0.717   8.046  0.3663 -0.0538  0.5835
  114MOL0     C14931   7.322   0.829   7.943 -0.5257  0.2974  0.5379
  114MOL0     C14932   7.322   0.791   7.793 -0.6037  0.9477 -0.3548
  114MOL0     N14933   7.235   0.873   7.709 -0.5310 -0.4726 -0.7135
  114MOL0     C14934   7.100   0.851   7.693 -0.2852  0.1528 -0.8650
  114MOL0     C14935   7.063   0.965   7.623 -0.3940 -0.0086  0.8212
  114MOL0     C14936   6.921   0.999   7.581 -0.3140  0.1438  0.3284
  114MOL0     C14937   6.893   1.148   7.594  0.2269 -0.6892  0.4755
  114MOL0     C14938   6.756   1.200   7.539 -0.1408 -1.3700  0.4305
  114MOL0     C14939   6.631   1.099   7.558  0.2163 -0.8224  0.7390
  114MOL0     O14940   6.524   1.178   7.500  0.6974  0.2571 -0.4405
  114MOL0     C14941   6.397   1.122   7.498  0.1038  0.2218 -0.4522
  114MOL0     C14942   6.364   0.982   7.505 -0.3537 -0.6234  0.9120
  114MOL0     C14943   6.227   0.942   7.501 -0.8851  0.1570  0.8553
  114MOL0     C14944   6.126   1.041   7.501  0.0874  0.4470 -0.6018
  114MOL0     C14945   5.986   0.990   7.507 -0.5061 -0.2254  0.5139
  114MOL0     O14946   5.958   0.862   7.552 -0.0844  0.7644  0.3163
  114MOL0     C14947   5.825   0.822   7.549 -0.3875 -0.0477 -0.7440
  114MOL0     C14948   5.767   0.772   7.669  0.2058  0.3087  0.1888
  114MOL0     C14949   5.637   0.718   7.673 -0.3250 -0.6086  0.7450
  114MOL0     C14950   5.566   0.708   7.552  0.7357  0.1436 -1.1285
  114MOL0     O14951   5.447   0.647   7.561  0.3935 -0.0225  0.0424
  114MOL0     C14952   5.345   0.662   7.459  0.1767 -0.7627 -0.1059
  114MOL0     C14953   5.206   0.678   7.523  0.6511  0.0489  0.1706
  114MOL0     C14954   5.103   0.702   7.406  1.0598 -0.6987  1.1913
  114MOL0     C14955   4.952   0.706   7.451 -0.4494  0.0526  0.3159
  114MOL0     C14956   4.876   0.799   7.359 -0.2647 -0.2747  1.0661
  114MOL0     C14957   4.720   0.766   7.355 -0.0661  0.5366  0.9355
  114MOL0     C14958   4.696   0.629   7.289  0.5520 -0.0903 -0.4071
  114MOL0     C14959   4.548   0.591   7.282  0.1132 -0.7474 -0.3535
  114MOL0    Cl14960   4.490   0.510   7.418  0.4454 -0.3667  0.1053
  114MOL0     C14961   5.623   0.749   7.440 -0.7318 -0.0172  0.0072
  114MOL0     C14962   5.758   0.802   7.433  0.6267  0.0055 -0.3053
  114MOL0     O14963   5.909   1.067   7.449 -0.3293  0.1374  0.1737
  114MOL0     C14964   6.155   1.176   7.495 -0.2095 -0.3575  0.3749
  114MOL0     C14965   6.293   1.217   7.492  1.3486 -0.3329 -0.5036
  114MOL0     N14966   7.181   1.032   7.591  0.2706 -0.3985 -0.7702
  114MOL0     N14967   7.275   0.986   7.657  0.5035  0.9529  1.1147
  114MOL0     C14968   7.966   0.296   7.987  0.1418 -0.5521 -0.0927
  114MOL0     C14969   8.090   0.243   7.979 -0.0220  0.0392 -0.6525
  114MOL0     C14970   8.477   0.044   7.997  0.0733  1.6910  0.4094
  114MOL0     C14971   8.531  -0.007   8.113  0.2750 -0.3442  0.1862
  114MOL0     C14972   8.665  -0.054   8.117  0.0325 -0.6240  0.5398
  114MOL0     C14973   8.748  -0.052   8.010 -0.6473  0.6119  0.0824
  114MOL0     O14974   8.886  -0.094   8.017  0.5895 -0.2780 -0.2840
  114MOL0     C14975   8.919  -0.207   7.930  1.0989  0.4998 -0.1162
  114MOL0     C14976   9.066  -0.236   7.911  0.4931  0.0465 -0.0697
  114MOL0     C14977   9.132  -0.108   7.861  0.9591 -0.3281  0.2230
  114MOL0     C14978   9.279  -0.125   7.800  0.4729  0.0169 -0.6466
  114MOL0     C14979   9.376  -0.174   7.903  0.8033  0.2140  0.4417
  114MOL0     C14980   9.452  -0.206   7.991 -0.1442  0.4932  0.2036
  114MOL0     C14981   8.699   0.019   7.891 -0.8630  0.6388 -0.7893
  114MOL0     C14982   8.562   0.051   7.877 -0.0621  0.2255 -0.4038
  114MOL0     H14983   8.094   0.084   8.281 -1.0179 -0.9915 -0.4532
  114MOL0     H14984   7.886   0.212   8.309  0.9720 -2.7587  1.2681
  114MOL0     H14985   7.655   0.298   7.928 -1.5420  3.2349 -1.8749
  114MOL0     H14986   7.719   0.465   7.960  0.6559 -0.2513 -0.8301
  114MOL0     H14987   7.485   0.312   8.074 -1.0600 -0.1039  1.9575
  114MOL0     H14988   7.489   0.450   7.967  1.1783 -0.1557 -0.3805
  114MOL0     H14989   7.557   0.443   8.273  2.0973 -0.6113 -1.3514
  114MOL0     H14990   7.408   0.499   8.189  0.7874 -0.5025  0.1672
  114MOL0     H14991   7.565   0.700   8.254 -0.3320 -2.6833  2.1405
  114MOL0     H14992   7.680   0.620   8.162 -0.3263 -2.2707  0.1806
  114MOL0     H14993   7.562   0.671   7.961 -0.5079  0.4109 -0.9311
  114MOL0     H14994   7.552   0.807   8.068 -1.5663  0.4949 -0.0812
  114MOL0     H14995   7.323   0.755   8.140  3.4580 -1.8620  2.7900
  114MOL0     H14996   7.313   0.623   8.017  2.2098 -0.9886  0.3047
  114MOL0     H14997   7.223   0.864   7.974  1.0003  3.5548  2.3324
  114MOL0     H14998   7.386   0.918   7.932 -0.5990  0.0421 -3.4575
  114MOL0     H14999   7.300   0.687   7.769 -0.6976  1.3211 -1.9698
  114MOL0     H15000   7.424   0.810   7.760 -0.7271  2.6430  0.1206
  114MOL0     H15001   7.038   0.773   7.737  2.2797 -1.9381 -0.7256
  114MOL0     H15002   6.855   0.952   7.654  0.8748 -2.6153 -0.2370
  114MOL0     H15003   6.895   0.977   7.477 -2.3607  0.8452  0.6488
  114MOL0     H15004   6.979   1.204   7.556 -0.5620  2.2917  2.7248
  114MOL0     H15005   6.908   1.182   7.697  2.7693 -1.7098  0.5075
  114MOL0     H15006   6.728   1.290   7.593 -3.8475 -2.0962  0.0477
  114MOL0     H15007   6.765   1.234   7.436 -2.5409  0.0290  0.5983
  114MOL0     H15008   6.624   1.095   7.667 -1.2122 -1.3449  0.6492
  114MOL0     H15009   6.650   1.003   7.509  1.1929  0.7302 -2.1917
  114MOL0     H15010   6.446   0.911   7.498 -0.2791 -0.7392  2.5220
  114MOL0     H15011   6.200   0.837   7.504  0.7712 -0.3996 -1.3003
  114MOL0     H15012   5.825   0.779   7.761  1.3839 -0.3020 -0.4719
  114MOL0     H15013   5.606   0.699   7.776  0.0357 -3.8987  0.3722
  114MOL0     H15014   5.342   0.571   7.398  1.1408 -0.2230 -0.9876
  114MOL0     H15015   5.365   0.754   7.403  1.1624 -1.0525 -0.2537
  114MOL0     H15016   5.209   0.765   7.590  0.0141 -1.0366  1.6751
  114MOL0     H15017   5.180   0.585   7.575  2.0806 -1.3617 -1.5068
  114MOL0     H15018   5.113   0.622   7.332  0.8987  0.9942 -0.7400
  114MOL0     H15019   5.120   0.802   7.364 -2.1766  1.6206  4.7262
  114MOL0     H15020   4.909   0.606   7.442 -1.5833  0.3910  1.5927
  114MOL0     H15021   4.948   0.738   7.556  1.5135 -0.8627  0.7049
  114MOL0     H15022   4.918   0.777   7.261  0.3487 -4.5721  2.1143
  114MOL0     H15023   4.892   0.905   7.383 -1.5446  1.0545 -3.1513
  114MOL0     H15024   4.663   0.842   7.301  3.5959  2.5864 -0.4354
  114MOL0     H15025   4.681   0.752   7.456 -0.7277  0.5392  0.6807
  114MOL0     H15026   4.747   0.634   7.193  0.6781 -0.9383 -0.3908
  114MOL0     H15027   4.746   0.548   7.343  1.3441  0.6227 -0.0550
  114MOL0     H15028   4.531   0.522   7.198 -0.2358 -0.9931 -0.0868
  114MOL0     H15029   4.495   0.683   7.258  2.4191  1.2759  1.7836
  114MOL0     H15030   5.556   0.730   7.356 -0.9873  0.6301  0.0622
  114MOL0     H15031   5.800   0.832   7.337 -2.0316  1.1262 -1.2483
  114MOL0     H15032   6.089   1.261   7.509  1.3248  0.7858  0.8658
  114MOL0     H15033   6.317   1.322   7.498 -0.4710  0.1821 -1.5298
  114MOL0     H15034   7.935   0.355   7.901  0.2465 -0.3685 -0.0042
  114MOL0     H15035   8.151   0.260   7.891  0.7768 -0.1529 -0.1461
  114MOL0     H15036   8.468  -0.004   8.201  0.0004  0.3289 -0.0285
  114MOL0     H15037   8.707  -0.105   8.203 -0.0503 -0.3178  0.7647
  114MOL0     H15038   8.874  -0.193   7.832 -0.1803 -2.7473 -0.1127
  114MOL0     H15039   8.872  -0.299   7.966 -0.1708  2.0471  2.4522
  114MOL0     H15040   9.112  -0.282   7.999  0.9039  1.7267  0.6402
  114MOL0     H15041   9.073  -0.319   7.840  1.7771 -0.5697  0.7500
  114MOL0     H15042   9.149  -0.045   7.949  0.7480 -0.2064  0.1784
  114MOL0     H15043   9.068  -0.050   7.793  0.2376 -1.8734 -0.4619
  114MOL0     H15044   9.286  -0.187   7.710 -0.8951  1.8160 -2.0806
  114MOL0     H15045   9.312  -0.023   7.776 -1.4996  0.1643 -3.1932
  114MOL0     H15046   9.527  -0.251   8.053 -0.8983 -4.3373 -1.8927
  114MOL0     H15047   8.766   0.015   7.806  1.4850  1.6540  0.8944
  114MOL0     H15048   8.517   0.082   7.783  1.4268  1.5256 -0.7402
  115MOL0     O15049   1.948   8.015   7.043  1.4492  0.3653  0.3970
  115MOL0     C15050   1.978   8.097   7.131  0.5623  0.1411 -0.4060
  115MOL0     O15051   2.106   8.111   7.185  1.0536 -0.0992  0.6275
  115MOL0     C15052   2.214   8.035   7.145 -0.4458 -0.3337 -0.2062
  115MOL0     C15053   2.258   8.029   7.017 -0.4467  0.5407  0.1025
  115MOL0     C15054   2.380   7.968   6.972 -0.3733 -0.1871  0.1443
  115MOL0     C15055   2.446   7.880   7.063 -0.1460 -0.8743 -0.1356
  115MOL0     O15056   2.546   7.797   7.025  0.3072  0.6308 -0.4755
  115MOL0     C15057   2.596   7.805   6.891 -0.0046 -0.7054 -0.1238
  115MOL0     C15058   2.661   7.676   6.832  0.5122  0.0135 -0.5302
  115MOL0     C15059   2.541   7.580   6.784  0.2141  0.4427 -0.8224
  115MOL0     C15060   2.443   7.512   6.883 -1.0619 -0.9368 -0.1193
  115MOL0     C15061   2.321   7.482   6.804 -0.2788  0.6482 -0.0295
  115MOL0     C15062   2.223   7.600   6.775  1.0240 -0.1865 -0.4429
  115MOL0     C15063   2.157   7.650   6.901 -0.3219 -0.2258  0.1036
  115MOL0     C15064   2.080   7.547   6.973 -0.5146  0.2206 -0.6288
  115MOL0     N15065   1.987   7.607   7.073 -0.4325  0.0665  0.2116
  115MOL0     C15066   2.023   7.686   7.175 -0.1217 -0.2812 -0.5283
  115MOL0     C15067   1.914   7.742   7.228 -0.9910 -0.5864  0.6569
  115MOL0     C15068   1.919   7.821   7.348 -0.1995 -0.4548  0.0817
  115MOL0     C15069   1.783   7.870   7.388  0.5742 -0.8194  0.1144
  115MOL0     C15070   1.774   7.953   7.521  0.0812 -0.1045  0.7508
  115MOL0     C15071   1.629   7.976   7.545  0.3368 -0.8711 -0.5306
  115MOL0     O15072   1.557   7.883   7.637  0.0641  0.2415 -0.7368
  115MOL0     C15073   1.588   7.857   7.769  1.1574 -1.5386  0.2284
  115MOL0     C15074   1.489   7.792   7.850 -0.4362  0.3848 -0.4112
  115MOL0     C15075   1.500   7.787   7.991 -0.2148 -0.1405  1.1000
  115MOL0     C15076   1.612   7.838   8.057 -0.4312  0.3684  0.2137
  115MOL0     C15077   1.627   7.839   8.202  0.8989  0.5055 -0.8226
  115MOL0     O15078   1.503   7.825   8.275  0.3344  0.2071  0.0459
  115MOL0     C15079   1.506   7.834   8.416  0.6167 -0.2257  0.4546
  115MOL0     C15080   1.394   7.907   8.472 -0.3420 -0.6104 -0.2861
  115MOL0     C15081   1.372   7.903   8.608 -0.0299  0.7883  0.8792
  115MOL0     C15082   1.451   7.823   8.686  0.3991 -0.1326 -0.3821
  115MOL0     O15083   1.430   7.813   8.823 -0.7100  0.1152  0.4143
  115MOL0     C15084   1.420   7.938   8.900  0.1689 -0.1803 -0.0416
  115MOL0     C15085   1.543   8.019   8.864 -0.1561 -1.0080 -0.5745
  115MOL0     C15086   1.532   8.167   8.907  0.2071 -0.0812  0.6145
  115MOL0     C15087   1.675   8.237   8.920  1.6665 -0.1115 -0.6775
  115MOL0     C15088   1.662   8.386   8.980  0.2914 -0.0449  0.6941
  115MOL0     C15089   1.785   8.466   8.928  0.2022 -0.0661  0.7118
  115MOL0     C15090   1.796   8.605   8.971 -0.4581 -0.1048 -0.0673
  115MOL0     C15091   1.935   8.665   8.930  0.4992 -0.6637 -0.1965
  115MOL0    Cl15092   1.933   8.689   8.756 -0.2896  0.3036 -0.0128
  115MOL0     C15093   1.557   7.747   8.639  0.8733 -1.2009 -0.2007
  115MOL0     C15094   1.585   7.755   8.500  0.4039 -0.0676 -0.5743
  115MOL0     O15095   1.732   7.840   8.259 -0.0897 -0.2147 -0.0470
  115MOL0     C15096   1.706   7.903   7.977  1.2519 -0.1976 -0.0453
  115MOL0     C15097   1.685   7.922   7.840 -0.5448 -0.2817 -0.1462
  115MOL0     N15098   1.810   7.679   7.165  0.1871  0.3821 -0.8636
  115MOL0     N15099   1.850   7.601   7.081 -0.6828  0.2306 -0.0839
  115MOL0     C15100   2.391   7.876   7.198  0.2770  1.0514 -0.4669
  115MOL0     C15101   2.289   7.952   7.239  0.7424 -0.5183  0.2459
  115MOL0     C15102   1.875   8.169   7.200  0.4743 -0.4066 -0.2843
  115MOL0     C15103   1.740   8.154   7.157  0.6733 -0.2078 -0.8312
  115MOL0     C15104   1.637   8.220   7.230  0.2270 -0.4437  1.1673
  115MOL0     C15105   1.658   8.287   7.348 -0.5963  0.5045  0.6609
  115MOL0     O15106   1.558   8.343   7.421  0.3131 -0.2242 -0.7173
  115MOL0     C15107   1.423   8.319   7.391  0.0592 -0.5576  0.0874
  115MOL0     C15108   1.320   8.391   7.480  0.0589 -0.3974  0.6034
  115MOL0     C15109   1.331   8.543   7.463  0.3049 -0.8713 -0.7015
  115MOL0     C15110   1.222   8.607   7.551  0.2421  0.4561 -0.1354
  115MOL0     C15111   1.233   8.754   7.565 -0.1193 -0.9068 -0.2800
  115MOL0     C15112   1.231   8.878   7.575 -0.4503 -0.2389  0.1437
  115MOL0     C15113   1.787   8.298   7.390 -0.0218  0.3403 -0.2122
  115MOL0     C15114   1.902   8.252   7.315 -0.8126 -0.5169 -0.4666
  115MOL0     H15115   2.208   8.094   6.945 -0.5851 -0.4305 -0.7052
  115MOL0     H15116   2.413   7.993   6.872  2.0973 -0.5456  0.7989
  115MOL0     H15117   2.666   7.890   6.888 -1.1174  0.2888  1.0306
  115MOL0     H15118   2.514   7.824   6.821 -1.1822 -2.4293  0.7141
  115MOL0     H15119   2.723   7.633   6.911  0.7122 -0.7557 -1.0902
  115MOL0     H15120   2.720   7.694   6.742  1.5424 -2.5893 -0.4649
  115MOL0     H15121   2.591   7.493   6.740  0.3511 -0.8652  1.7437
  115MOL0     H15122   2.475   7.639   6.720 -4.4275 -0.4098  2.6958
  115MOL0     H15123   2.481   7.421   6.932  1.0037 -0.5811 -0.9277
  115MOL0     H15124   2.402   7.581   6.957 -1.1078  4.2283 -4.3523
  115MOL0     H15125   2.266   7.395   6.840  0.4472 -0.1765 -0.8529
  115MOL0     H15126   2.348   7.458   6.701  0.6829  1.3371  0.0368
  115MOL0     H15127   2.141   7.580   6.705  0.2816 -0.1723  0.4001
  115MOL0     H15128   2.285   7.677   6.730  0.1866  1.4827  1.1368
  115MOL0     H15129   2.224   7.713   6.960 -1.8632  2.4041 -0.7790
  115MOL0     H15130   2.078   7.721   6.874 -1.5955 -1.1876  1.1191
  115MOL0     H15131   2.152   7.486   7.028  3.3806  3.1161 -2.0228
  115MOL0     H15132   2.027   7.485   6.901 -4.5522  0.5313  1.7307
  115MOL0     H15133   2.121   7.724   7.201  0.4295 -0.8959 -1.6331
  115MOL0     H15134   1.984   7.908   7.338  0.1025 -0.7317 -0.3708
  115MOL0     H15135   1.952   7.761   7.433 -0.1284  0.1923  0.5256
  115MOL0     H15136   1.721   7.780   7.403 -1.0142  0.1569 -0.3683
  115MOL0     H15137   1.737   7.929   7.308  0.6307  0.1239  0.7671
  115MOL0     H15138   1.819   7.895   7.602  4.2173 -0.0521 -1.2575
  115MOL0     H15139   1.834   8.044   7.511  0.5691 -0.6210 -1.9804
  115MOL0     H15140   1.573   7.983   7.451  2.5198  0.1676 -1.8459
  115MOL0     H15141   1.629   8.074   7.593 -0.3952 -0.1164 -2.0049
  115MOL0     H15142   1.407   7.734   7.808 -0.2322 -1.9761  2.1883
  115MOL0     H15143   1.418   7.750   8.052 -1.9502 -1.7726 -2.0099
  115MOL0     H15144   1.321   7.951   8.404  0.0913  0.2143 -0.2380
  115MOL0     H15145   1.278   7.945   8.641 -1.9933 -2.6698  0.1723
  115MOL0     H15146   1.407   7.924   9.008 -0.4389  0.5388 -0.0161
  115MOL0     H15147   1.330   7.995   8.875 -1.1096 -0.8287  2.7113
  115MOL0     H15148   1.567   8.018   8.757  2.6319  1.9793 -0.1399
  115MOL0     H15149   1.620   7.966   8.921 -0.8403 -3.5862 -1.9033
  115MOL0     H15150   1.482   8.175   9.004  2.4821 -0.0528  1.8735
  115MOL0     H15151   1.471   8.214   8.830  2.4643 -1.2867 -2.0903
  115MOL0     H15152   1.736   8.181   8.991  0.3906 -0.5184  0.1505
  115MOL0     H15153   1.729   8.239   8.825  0.4664 -2.4122 -1.4954
  115MOL0     H15154   1.661   8.387   9.089  0.6901  2.4433  0.7409
  115MOL0     H15155   1.567   8.430   8.948 -0.3135 -0.0313  2.4148
  115MOL0     H15156   1.805   8.457   8.821 -0.6009  2.5391  0.2639
  115MOL0     H15157   1.865   8.416   8.983 -1.4483 -1.9312  1.5228
  115MOL0     H15158   1.712   8.665   8.935 -2.1346 -0.0694  3.5091
  115MOL0     H15159   1.778   8.608   9.079  0.5199 -2.3057  0.2109
  115MOL0     H15160   2.022   8.619   8.977  0.8924  0.4414  0.2069
  115MOL0     H15161   1.924   8.770   8.959 -0.9364 -0.3768 -1.6547
  115MOL0     H15162   1.611   7.675   8.700  0.0439 -0.9708  0.8148
  115MOL0     H15163   1.668   7.701   8.457  2.0157  2.1613 -0.4620
  115MOL0     H15164   1.780   7.961   8.032 -2.8174  3.1677  2.5364
  115MOL0     H15165   1.751   7.990   7.787 -2.7797  1.5754 -0.7287
  115MOL0     H15166   2.443   7.831   7.282  0.7603  4.8212  1.4654
  115MOL0     H15167   2.264   7.968   7.343  1.1020  0.5313  0.1855
  115MOL0     H15168   1.706   8.108   7.066 -2.3976  1.4606 -0.6510
  115MOL0     H15169   1.542   8.223   7.179  0.1562  2.6405  1.3231
  115MOL0     H15170   1.398   8.213   7.393  0.0499 -0.5508  0.2886
  115MOL0     H15171   1.402   8.363   7.292  1.9479  2.5682  0.9243
  115MOL0     H15172   1.223   8.362   7.437 -0.1955  1.8038 -0.4115
  115MOL0     H15173   1.322   8.356   7.584  3.6358 -0.3549  0.6746
  115MOL0     H15174   1.305   8.568   7.360  1.2821 -0.4524 -0.8498
  115MOL0     H15175   1.429   8.580   7.494 -0.5325 -0.0860  1.1843
  115MOL0     H15176   1.121   8.578   7.519  0.7209  0.7100 -2.0201
  115MOL0     H15177   1.229   8.570   7.653  1.4827 -3.8454 -1.5863
  115MOL0     H15178   1.227   8.983   7.595  0.1003 -0.4489  1.4020
  115MOL0     H15179   1.807   8.359   7.478 -0.9319  0.5156 -0.1228
  115MOL0     H15180   1.999   8.272   7.360 -1.0155  2.6115 -1.1876
  116MOL0     O15181   3.529   6.236  10.111  0.3995 -0.1004 -0.1534
  116MOL0     C15182   3.596   6.249  10.006  1.0017 -0.5121 -0.6467
  116MOL0     O15183   3.613   6.360   9.935  0.6915  0.3039 -0.7266
  116MOL0     C15184   3.552   6.480   9.959  0.1078 -0.3867  0.8315
  116MOL0     C15185   3.621   6.599   9.926 -0.6211  0.3620  0.0237
  116MOL0     C15186   3.555   6.723   9.937 -0.4937  0.2250  0.9979
  116MOL0     C15187   3.422   6.734   9.970 -0.0313  0.0269 -0.6480
  116MOL0     O15188   3.340   6.843   9.977 -0.3531 -0.1809  0.4981
  116MOL0     C15189   3.384   6.968   9.909 -0.2241  0.1070 -0.6691
  116MOL0     C15190   3.392   6.971   9.752 -0.2946  0.8084 -0.0471
  116MOL0     C15191   3.263   6.927   9.668  0.4915 -0.7087 -0.0122
  116MOL0     C15192   3.280   6.951   9.514  0.0610 -0.3891 -0.1205
  116MOL0     C15193   3.146   6.910   9.460 -0.0715  0.4095 -0.3187
  116MOL0     C15194   3.145   6.932   9.309 -0.4055 -0.7440 -0.8399
  116MOL0     C15195   3.229   6.827   9.227 -0.0493  0.3258  0.3208
  116MOL0     C15196   3.156   6.688   9.203  0.4660  0.3277  0.0022
  116MOL0     N15197   3.221   6.577   9.260  0.7016  0.7912 -0.5292
  116MOL0     C15198   3.306   6.561   9.369  0.5808 -0.6215 -0.5971
  116MOL0     C15199   3.351   6.430   9.379  0.3797 -1.1474  0.4492
  116MOL0     C15200   3.453   6.384   9.472  0.9185 -0.0250  0.9739
  116MOL0     C15201   3.585   6.377   9.399 -0.2287 -0.3174  0.0072
  116MOL0     C15202   3.689   6.361   9.510 -0.2132 -0.3220  0.2677
  116MOL0     C15203   3.827   6.427   9.486 -0.3098 -0.1226 -0.0957
  116MOL0     O15204   3.921   6.379   9.588 -0.0673 -0.3092  0.1304
  116MOL0     C15205   4.038   6.444   9.600  0.2173  0.0397  0.3147
  116MOL0     C15206   4.101   6.426   9.721  0.6941  0.5692 -0.4139
  116MOL0     C15207   4.230   6.489   9.742  0.4276  0.1688 -0.3041
  116MOL0     C15208   4.284   6.571   9.643  0.2943 -0.2397 -0.0999
  116MOL0     C15209   4.421   6.624   9.657  0.4126 -0.1706  0.5202
  116MOL0     O15210   4.509   6.573   9.742 -0.5700 -0.2911 -0.4136
  116MOL0     C15211   4.639   6.613   9.734  0.3549 -0.0134  0.2163
  116MOL0     C15212   4.683   6.695   9.839 -0.3040  0.3595 -0.1763
  116MOL0     C15213   4.815   6.732   9.837  0.6560  0.2255  0.1627
  116MOL0     C15214   4.906   6.700   9.735 -0.8165  1.0874  0.0064
  116MOL0     O15215   5.034   6.730   9.742 -0.3749  0.6796  0.0593
  116MOL0     C15216   5.098   6.751   9.865 -0.5718 -0.5828  0.9087
  116MOL0     C15217   5.241   6.739   9.846  0.4096  0.2599 -0.3832
  116MOL0     C15218   5.301   6.742   9.988 -0.0869 -0.6736  0.5404
  116MOL0     C15219   5.450   6.719   9.968  0.1970 -0.4358 -0.1961
  116MOL0     C15220   5.517   6.676  10.103 -0.0162 -0.3254  0.6669
  116MOL0     C15221   5.664   6.638  10.085  0.1978 -0.5943  0.1853
  116MOL0     C15222   5.718   6.575  10.219 -0.5738 -0.1729 -0.2531
  116MOL0     C15223   5.870   6.540  10.194 -0.3570 -0.3970  0.3897
  116MOL0    Cl15224   5.933   6.432  10.329  0.0766  0.3213 -0.1547
  116MOL0     C15225   4.854   6.623   9.636  0.7524 -0.3571  0.1493
  116MOL0     C15226   4.727   6.581   9.629 -0.4673  0.2492  0.0669
  116MOL0     O15227   4.444   6.726   9.591 -0.5059  0.1301 -0.7684
  116MOL0     C15228   4.226   6.588   9.522  0.0261  1.2724 -0.5213
  116MOL0     C15229   4.104   6.522   9.502 -0.8508 -0.1482  0.1760
  116MOL0     N15230   3.290   6.364   9.273 -0.2072  0.5195 -0.5757
  116MOL0     N15231   3.222   6.451   9.208  0.0057 -0.4833 -0.1940
  116MOL0     C15232   3.362   6.615  10.017  0.5321 -0.0610 -0.3747
  116MOL0     C15233   3.418   6.491  10.007 -0.2713 -0.8265  0.3458
  116MOL0     C15234   3.692   6.139   9.967  0.6085  0.5210  0.3116
  116MOL0     C15235   3.768   6.148   9.849 -0.0096  0.3381  0.1309
  116MOL0     C15236   3.875   6.053   9.830  1.1751 -0.3103  0.4853
  116MOL0     C15237   3.907   5.956   9.917  0.1799  0.0787 -0.7039
  116MOL0     O15238   4.012   5.871   9.888  0.4454 -0.2592  0.0120
  116MOL0     C15239   4.049   5.776   9.987 -0.1988 -0.2451 -0.3485
  116MOL0     C15240   4.182   5.705   9.964  0.4121 -0.1909 -0.3433
  116MOL0     C15241   4.290   5.800   9.922 -0.6282 -0.5610 -0.4120
  116MOL0     C15242   4.358   5.879  10.035  0.6328  0.0133  0.4577
  116MOL0     C15243   4.436   5.785  10.121 -1.2869 -0.2998  0.0080
  116MOL0     C15244   4.497   5.710  10.197 -0.1024  0.6060  0.3453
  116MOL0     C15245   3.818   5.941  10.035 -0.3636 -0.2171  0.0985
  116MOL0     C15246   3.718   6.032  10.056 -0.0505 -0.2206 -0.1614
  116MOL0     H15247   3.719   6.583   9.882 -1.3886 -0.6416 -1.4208
  116MOL0     H15248   3.603   6.817   9.909 -0.0045  0.5426  2.7642
  116MOL0     H15249   3.485   6.987   9.947  0.9102 -1.5043 -2.6169
  116MOL0     H15250   3.314   7.046   9.940 -1.5236 -1.3167  0.1290
  116MOL0     H15251   3.464   6.890   9.732  1.5303  2.7287 -1.7222
  116MOL0     H15252   3.422   7.066   9.706 -1.1229  2.2070  2.1492
  116MOL0     H15253   3.178   6.984   9.709  0.6893 -0.9222  0.7199
  116MOL0     H15254   3.239   6.823   9.688  4.1830 -1.9718 -1.3410
  116MOL0     H15255   3.311   7.052   9.487  1.0292  0.2345  2.8961
  116MOL0     H15256   3.361   6.885   9.480 -0.6963 -1.5251  0.2117
  116MOL0     H15257   3.068   6.966   9.512 -0.2387 -0.0178 -0.1010
  116MOL0     H15258   3.125   6.804   9.476  2.6037 -0.3573 -1.2782
  116MOL0     H15259   3.197   7.025   9.286 -2.7501  0.7914 -0.2141
  116MOL0     H15260   3.038   6.931   9.285 -0.9384  1.9507  1.0129
  116MOL0     H15261   3.247   6.876   9.131 -1.4677 -0.5460 -0.4204
  116MOL0     H15262   3.329   6.809   9.269  1.4357  3.6472 -1.4565
  116MOL0     H15263   3.146   6.684   9.095 -0.0999 -0.0892  0.0685
  116MOL0     H15264   3.060   6.685   9.256 -0.2899  1.7514 -1.1992
  116MOL0     H15265   3.339   6.647   9.427 -0.7514  0.4681 -1.4009
  116MOL0     H15266   3.423   6.285   9.508 -0.5437 -1.3854 -3.3977
  116MOL0     H15267   3.456   6.453   9.557  2.3647 -0.9665  1.7483
  116MOL0     H15268   3.602   6.473   9.348 -0.0965 -0.0951  0.4653
  116MOL0     H15269   3.592   6.292   9.330 -3.3046  0.0707 -0.9029
  116MOL0     H15270   3.653   6.422   9.594  1.0907  0.5724  0.2002
  116MOL0     H15271   3.699   6.255   9.532 -2.1679 -0.1980  2.1437
  116MOL0     H15272   3.819   6.536   9.476 -1.5282 -0.3601 -2.4112
  116MOL0     H15273   3.868   6.392   9.391 -1.1985  2.0379 -1.3702
  116MOL0     H15274   4.057   6.354   9.790 -3.7574  0.8044 -2.6954
  116MOL0     H15275   4.285   6.478   9.834 -1.8727  0.3573  1.1850
  116MOL0     H15276   4.608   6.716   9.914  0.1966  1.3667  0.0487
  116MOL0     H15277   4.861   6.800   9.908  0.0200 -0.1580  0.9520
  116MOL0     H15278   5.048   6.688   9.939 -3.8020 -1.8758 -2.0578
  116MOL0     H15279   5.086   6.858   9.884 -1.3938 -0.4159 -0.4252
  116MOL0     H15280   5.280   6.826   9.793  0.5768 -0.2991 -1.1948
  116MOL0     H15281   5.273   6.655   9.784  2.1250 -0.9782  2.0335
  116MOL0     H15282   5.259   6.664  10.052 -1.7014  0.0873  0.4510
  116MOL0     H15283   5.283   6.843  10.026 -3.0053 -0.7123 -0.4871
  116MOL0     H15284   5.464   6.631   9.905  1.1224 -0.1230 -0.4397
  116MOL0     H15285   5.507   6.800   9.923 -0.4995  1.1214  1.5983
  116MOL0     H15286   5.466   6.586  10.139 -0.1346 -0.1254  1.0022
  116MOL0     H15287   5.495   6.760  10.170 -1.4338 -0.3789  0.3007
  116MOL0     H15288   5.727   6.724  10.061  0.7915 -0.6356  1.4959
  116MOL0     H15289   5.676   6.557  10.012 -1.2503  0.7173 -1.6208
  116MOL0     H15290   5.715   6.638  10.308  1.4998 -0.6975  0.2508
  116MOL0     H15291   5.672   6.482  10.253  1.5126 -0.9520  0.6533
  116MOL0     H15292   5.917   6.638  10.189 -2.1400  0.5480  1.3830
  116MOL0     H15293   5.874   6.489  10.098  0.2756  0.5623 -0.0992
  116MOL0     H15294   4.927   6.592   9.562  2.9682 -1.1704  2.5000
  116MOL0     H15295   4.693   6.524   9.543 -1.8043  1.4502 -0.2335
  116MOL0     H15296   4.270   6.652   9.446 -0.6468  3.0291  0.4843
  116MOL0     H15297   4.051   6.527   9.407 -1.5491 -1.8704  0.4321
  116MOL0     H15298   3.258   6.632  10.042  0.7832 -0.3794  0.9658
  116MOL0     H15299   3.353   6.406  10.026 -2.0818  0.8589  2.2550
  116MOL0     H15300   3.734   6.209   9.766  0.3598 -3.9660 -3.5473
  116MOL0     H15301   3.932   6.063   9.738  1.3582 -0.0852  0.6247
  116MOL0     H15302   3.976   5.695   9.995  0.3931 -0.8160 -0.6761
  116MOL0     H15303   4.051   5.831  10.082  0.0214 -0.3356 -0.3001
  116MOL0     H15304   4.220   5.654  10.053 -1.1780  0.8533  0.9802
  116MOL0     H15305   4.174   5.633   9.881 -1.9439  0.0223 -0.3625
  116MOL0     H15306   4.247   5.882   9.865 -3.4254 -1.5102  0.1574
  116MOL0     H15307   4.368   5.741   9.872 -0.8918 -0.7481 -0.6043
  116MOL0     H15308   4.411   5.969  10.002 -1.3056  2.1450  2.7521
  116MOL0     H15309   4.284   5.918  10.106  1.3865  1.1028  0.6731
  116MOL0     H15310   4.571   5.650  10.245  0.1258  0.3249 -0.3441
  116MOL0     H15311   3.841   5.877  10.120  1.5290 -0.9852 -0.9308
  116MOL0     H15312   3.652   6.014  10.141  0.6965 -1.9732  0.1073
  117MOL0     O15313   0.349  10.747   4.989 -0.8062 -0.2603  0.6179
  117MOL0     C15314   0.408  10.823   5.060  0.3997 -0.4121  0.2425
  117MOL0     O15315   0.349  10.892   5.146  0.1703 -1.0073 -0.9567
  117MOL0     C15316   0.221  10.881   5.177  0.1419 -0.5433  0.2118
  117MOL0     C15317   0.132  10.973   5.133 -1.3855  0.2297 -0.4974
  117MOL0     C15318  -0.005  10.957   5.156  0.2227 -0.4222  0.3428
  117MOL0     C15319  -0.059  10.856   5.235 -0.2310 -0.0672 -0.5470
  117MOL0     O15320  -0.194  10.872   5.252  0.3167  0.2425  0.7732
  117MOL0     C15321  -0.258  10.788   5.339 -1.1806  1.0791 -0.4793
  117MOL0     C15322  -0.395  10.822   5.361  0.5831 -0.6050  0.4350
  117MOL0     C15323  -0.496  10.841   5.247 -1.5712  0.8557  0.5616
  117MOL0     C15324  -0.531  10.699   5.195  0.4067 -0.1407  0.3824
  117MOL0     C15325  -0.679  10.715   5.153 -0.8423  0.7026  0.2259
  117MOL0     C15326  -0.734  10.568   5.143  0.1671 -0.9444 -0.8478
  117MOL0     C15327  -0.887  10.569   5.099  0.2507 -0.2299  0.0666
  117MOL0     C15328  -0.947  10.434   5.135 -0.9063 -0.3417  0.0492
  117MOL0     N15329  -1.096  10.447   5.133 -0.0927  0.1072  0.3630
  117MOL0     C15330  -1.168  10.515   5.228  0.6133  0.4729 -0.1907
  117MOL0     C15331  -1.299  10.471   5.207 -0.5014 -0.2520  0.3896
  117MOL0     C15332  -1.426  10.526   5.268  0.9988 -0.5827  0.6092
  117MOL0     C15333  -1.501  10.419   5.350  0.3175 -0.3701 -0.0690
  117MOL0     C15334  -1.637  10.468   5.410 -0.6084  0.5378  0.2024
  117MOL0     C15335  -1.761  10.459   5.310  0.0252  0.6661 -0.8568
  117MOL0     O15336  -1.766  10.317   5.276  0.1899 -0.7847 -0.9643
  117MOL0     C15337  -1.801  10.227   5.377  0.2670  0.4697  0.1048
  117MOL0     C15338  -1.918  10.242   5.460  0.4004 -0.2053  1.0045
  117MOL0     C15339  -1.972  10.129   5.531 -0.1614  0.2308 -0.6117
  117MOL0     C15340  -1.911  10.003   5.519  0.7734 -0.2575  0.4530
  117MOL0     C15341  -1.960   9.880   5.582  0.2447 -0.4127  0.1941
  117MOL0     O15342  -1.952   9.763   5.510 -0.0572 -0.0233  0.1025
  117MOL0     C15343  -1.994   9.649   5.573  0.3923 -0.2988  0.7562
  117MOL0     C15344  -2.126   9.602   5.532  0.3094  0.7581 -0.1225
  117MOL0     C15345  -2.163   9.473   5.585  0.3553 -0.3534 -0.3141
  117MOL0     C15346  -2.076   9.406   5.680  0.8550 -0.4041  0.0658
  117MOL0     O15347  -2.099   9.277   5.725 -0.1982 -0.1173  0.5323
  117MOL0     C15348  -2.197   9.298   5.831 -0.5999  0.4047 -0.4677
  117MOL0     C15349  -2.302   9.189   5.825  0.0218 -0.7926  0.6109
  117MOL0     C15350  -2.282   9.077   5.931 -0.3973 -0.1571 -0.6989
  117MOL0     C15351  -2.351   8.948   5.887  0.9359 -0.5095  0.8848
  117MOL0     C15352  -2.335   8.841   5.993  0.0052  1.0057 -0.7427
  117MOL0     C15353  -2.179   8.789   6.016 -0.2359 -0.5134 -0.2987
  117MOL0     C15354  -2.172   8.638   6.062 -0.1473 -0.4391 -0.6424
  117MOL0     C15355  -2.028   8.580   6.051 -0.1440 -0.4554  0.5349
  117MOL0    Cl15356  -1.934   8.614   6.196 -0.0298  0.5015 -0.3679
  117MOL0     C15357  -1.962   9.467   5.719 -0.0128  0.1034 -0.5516
  117MOL0     C15358  -1.925   9.574   5.666 -0.1709 -0.2093  0.9640
  117MOL0     O15359  -2.022   9.891   5.690  0.4182 -0.1808  0.5122
  117MOL0     C15360  -1.797   9.996   5.440  1.0810  0.7533  1.4167
  117MOL0     C15361  -1.749  10.101   5.369 -0.8478 -1.1459 -0.4869
  117MOL0     N15362  -1.296  10.383   5.102  1.2603 -0.4358  0.6353
  117MOL0     N15363  -1.180  10.367   5.063 -0.6365  0.6476  0.6553
  117MOL0     C15364   0.030  10.765   5.299 -0.6696  0.4838  0.1450
  117MOL0     C15365   0.167  10.765   5.244 -0.3474 -0.0931 -0.1605
  117MOL0     C15366   0.546  10.843   5.032 -0.7091  0.2642  0.5347
  117MOL0     C15367   0.596  10.970   5.055 -0.1333 -0.5507  0.1763
  117MOL0     C15368   0.728  10.999   5.011  0.3989  0.5445 -0.2891
  117MOL0     C15369   0.818  10.903   4.960 -0.2508 -0.3101  0.3839
  117MOL0     O15370   0.953  10.923   4.925 -0.5382  0.0421 -0.0881
  117MOL0     C15371   1.013  11.056   4.929  0.6315 -0.1404  0.3804
  117MOL0     C15372   1.162  11.051   4.900 -0.1811 -1.0365  0.6634
  117MOL0     C15373   1.258  10.998   5.002 -0.4560 -0.3539  0.5731
  117MOL0     C15374   1.238  10.859   5.050 -0.2301  0.1602  0.2793
  117MOL0     C15375   1.271  10.758   4.952  0.3598  1.7307  0.1088
  117MOL0     C15376   1.312  10.678   4.885  0.2962  0.4190  0.2755
  117MOL0     C15377   0.768  10.775   4.937  0.0705  0.0957 -1.0174
  117MOL0     C15378   0.639  10.743   4.980  0.2774 -0.2965  0.7818
  117MOL0     H15379   0.161  11.051   5.063  0.2204 -2.0387 -2.4834
  117MOL0     H15380  -0.082  11.012   5.101 -1.0646 -2.0211  0.4540
  117MOL0     H15381  -0.212  10.774   5.437 -1.9875 -0.1996 -0.2547
  117MOL0     H15382  -0.255  10.685   5.302 -3.0876  1.7944 -2.8851
  117MOL0     H15383  -0.394  10.920   5.410 -3.2300  0.5593 -1.4427
  117MOL0     H15384  -0.443  10.747   5.424 -1.2985  0.2262  0.0425
  117MOL0     H15385  -0.457  10.902   5.165  0.2718 -0.6219  0.2343
  117MOL0     H15386  -0.586  10.895   5.275 -0.8094  2.3186  0.3023
  117MOL0     H15387  -0.471  10.673   5.108 -2.1363 -1.8311 -0.9953
  117MOL0     H15388  -0.523  10.624   5.274 -2.6297  0.0734  1.0262
  117MOL0     H15389  -0.680  10.769   5.058  1.8894 -1.9858 -1.5277
  117MOL0     H15390  -0.736  10.777   5.222 -1.9341  2.6389 -2.2836
  117MOL0     H15391  -0.727  10.525   5.244  3.2741 -0.1248 -0.6271
  117MOL0     H15392  -0.676  10.509   5.072  0.0714  1.3458 -2.9383
  117MOL0     H15393  -0.934  10.658   5.143  2.9299  1.1416  0.3841
  117MOL0     H15394  -0.893  10.588   4.992  3.8293 -0.9669 -0.3879
  117MOL0     H15395  -0.917  10.389   5.230  0.1106 -1.3590 -0.7158
  117MOL0     H15396  -0.917  10.359   5.060  0.0909  0.5801 -0.5080
  117MOL0     H15397  -1.127  10.581   5.303 -0.0189  1.0283 -0.3301
  117MOL0     H15398  -1.493  10.555   5.187  2.5608 -0.0029 -0.5242
  117MOL0     H15399  -1.412  10.617   5.327 -2.2323 -0.3173  1.1407
  117MOL0     H15400  -1.433  10.384   5.428  0.0308 -0.3673  0.1809
  117MOL0     H15401  -1.531  10.332   5.291 -1.3107 -0.3978  0.7575
  117MOL0     H15402  -1.656  10.406   5.498 -1.7487  0.9462  0.2694
  117MOL0     H15403  -1.629  10.576   5.427  1.3060  0.4147  0.3139
  117MOL0     H15404  -1.751  10.520   5.220 -1.8060  2.4826  0.0799
  117MOL0     H15405  -1.848  10.490   5.368  1.6203 -0.6053  2.5007
  117MOL0     H15406  -1.971  10.337   5.466 -2.4878 -1.2222 -3.6016
  117MOL0     H15407  -2.074  10.143   5.568  0.3266  2.9218 -0.0592
  117MOL0     H15408  -2.184   9.641   5.449 -1.3150 -0.9482  0.1369
  117MOL0     H15409  -2.251   9.421   5.549  1.0367 -2.0106  0.3421
  117MOL0     H15410  -2.246   9.396   5.835  1.9133  1.6999  2.6250
  117MOL0     H15411  -2.139   9.298   5.924  1.2428  0.7950 -1.5681
  117MOL0     H15412  -2.285   9.163   5.720  4.4179 -0.4182  1.0459
  117MOL0     H15413  -2.398   9.240   5.826  0.6564  0.6221 -2.3846
  117MOL0     H15414  -2.337   9.124   6.013 -2.5478 -0.4167 -1.9383
  117MOL0     H15415  -2.176   9.067   5.957 -0.6516  1.4674  1.2006
  117MOL0     H15416  -2.459   8.961   5.879  0.9576 -0.2322  1.0335
  117MOL0     H15417  -2.325   8.912   5.787 -1.1456 -1.7514  0.7458
  117MOL0     H15418  -2.391   8.754   5.956  0.2885  0.5725 -0.1593
  117MOL0     H15419  -2.377   8.878   6.087  3.1496  0.3385  1.0595
  117MOL0     H15420  -2.120   8.842   6.092 -1.3626  2.8673 -1.5958
  117MOL0     H15421  -2.130   8.791   5.918  1.0257  0.1285  0.3267
  117MOL0     H15422  -2.212   8.626   6.163  2.2799 -1.0386  0.3292
  117MOL0     H15423  -2.233   8.575   5.997  2.2691  0.2878 -3.8437
  117MOL0     H15424  -1.982   8.636   5.969 -2.3454 -0.5535 -0.8427
  117MOL0     H15425  -2.043   8.475   6.025  1.2874 -0.2511 -1.2740
  117MOL0     H15426  -1.920   9.411   5.802  0.3430  1.0371 -0.0735
  117MOL0     H15427  -1.828   9.612   5.699  0.0806  0.6536 -0.6678
  117MOL0     H15428  -1.748   9.900   5.426 -1.6045 -1.1722  3.8297
  117MOL0     H15429  -1.661  10.087   5.308  1.7709  1.0115  2.4861
  117MOL0     H15430   0.009  10.688   5.373  3.6464  2.0245  3.3904
  117MOL0     H15431   0.235  10.686   5.274  1.4222  2.2555  2.6048
  117MOL0     H15432   0.533  11.056   5.077  2.4153  1.5429 -0.2722
  117MOL0     H15433   0.749  11.104   5.031 -2.3844  0.7669  2.1223
  117MOL0     H15434   1.000  11.089   5.033 -1.6437 -3.1665  1.2013
  117MOL0     H15435   0.959  11.119   4.858  0.4646  0.3216  0.9014
  117MOL0     H15436   1.171  10.989   4.811 -1.1030 -1.9422  1.1717
  117MOL0     H15437   1.194  11.153   4.874 -3.3585 -0.6175 -2.1834
  117MOL0     H15438   1.260  11.071   5.084  1.5810 -0.3592  0.5866
  117MOL0     H15439   1.357  11.011   4.959 -1.0344  1.7864 -0.2439
  117MOL0     H15440   1.291  10.826   5.140 -0.0336 -2.5786 -0.7346
  117MOL0     H15441   1.133  10.849   5.076  0.1129 -0.0818  1.6577
  117MOL0     H15442   1.369  10.610   4.825  2.4739  3.1023 -0.8763
  117MOL0     H15443   0.845  10.717   4.887  0.5768 -0.8438  0.7655
  117MOL0     H15444   0.608  10.644   4.951 -0.7883  0.1650  0.2893
  118MOL0     O15445   1.672   2.327   6.095  0.0267 -0.6072 -0.4696
  118MOL0     C15446   1.763   2.410   6.109  0.4929  0.4957  0.8750
  118MOL0     O15447   1.752   2.544   6.146  0.2578  0.0231  0.2278
  118MOL0     C15448   1.640   2.599   6.203  0.2992 -0.5037 -0.4770
  118MOL0     C15449   1.511   2.550   6.181 -0.3609 -0.8603  0.5521
  118MOL0     C15450   1.393   2.619   6.216 -0.8876  0.8450  0.4021
  118MOL0     C15451   1.406   2.744   6.290 -0.6638  0.5941  0.0888
  118MOL0     O15452   1.307   2.834   6.331  0.5128 -0.0954 -0.4267
  118MOL0     C15453   1.169   2.817   6.287  0.2371 -0.1721 -0.4731
  118MOL0     C15454   1.072   2.910   6.365 -0.0476 -0.0739  0.0802
  118MOL0     C15455   0.931   2.893   6.303  0.0382  0.6477 -0.0233
  118MOL0     C15456   0.832   2.976   6.389 -0.5158  0.7005  0.1432
  118MOL0     C15457   0.847   3.131   6.385 -0.7452  0.6797  0.3327
  118MOL0     C15458   0.719   3.206   6.441  0.2223 -0.0893 -0.2928
  118MOL0     C15459   0.591   3.218   6.358  0.5827 -0.2995  0.0838
  118MOL0     C15460   0.467   3.250   6.439  0.2568 -0.0994 -1.1019
  118MOL0     N15461   0.342   3.274   6.352 -0.2247  0.3749 -0.2759
  118MOL0     C15462   0.215   3.217   6.357  0.7843  0.4742  0.0305
  118MOL0     C15463   0.142   3.279   6.264 -0.8139 -0.2320  0.6423
  118MOL0     C15464  -0.004   3.249   6.218 -0.4040  0.3211 -0.1584
  118MOL0     C15465  -0.100   3.290   6.324  0.2509  0.3295 -0.3853
  118MOL0     C15466  -0.092   3.437   6.345  0.1841 -0.3299  0.2159
  118MOL0     C15467  -0.155   3.512   6.217 -0.3303  0.8455 -0.6924
  118MOL0     O15468  -0.185   3.647   6.241  0.5169  0.2772  0.3312
  118MOL0     C15469  -0.290   3.663   6.326  0.9966 -0.2135 -0.0228
  118MOL0     C15470  -0.423   3.616   6.293 -0.5915  0.0571  0.2558
  118MOL0     C15471  -0.532   3.636   6.382 -0.2771 -0.3793  0.7857
  118MOL0     C15472  -0.514   3.706   6.509  0.8161 -0.0565  0.5754
  118MOL0     C15473  -0.627   3.726   6.601 -0.1014 -0.4178  0.2890
  118MOL0     O15474  -0.604   3.801   6.712  0.1665 -0.3143  0.5790
  118MOL0     C15475  -0.687   3.821   6.818 -0.1429 -0.1923  1.3069
  118MOL0     C15476  -0.665   3.946   6.887 -0.3675  0.5785 -0.1783
  118MOL0     C15477  -0.760   3.982   6.987 -0.0012 -0.5573 -0.4477
  118MOL0     C15478  -0.858   3.893   7.029  0.7821  1.2699  1.3130
  118MOL0     O15479  -0.944   3.937   7.130  0.1173  0.4196 -0.0917
  118MOL0     C15480  -1.023   3.840   7.212 -0.7584  0.2013  0.1532
  118MOL0     C15481  -1.057   3.909   7.348  0.3940  0.1841 -0.6772
  118MOL0     C15482  -0.928   3.957   7.418  0.1496  0.2785  0.3479
  118MOL0     C15483  -0.969   4.012   7.563  0.0365  0.2488 -0.3181
  118MOL0     C15484  -0.860   4.077   7.654  0.0458  0.1049 -0.0601
  118MOL0     C15485  -0.928   4.161   7.763  0.0517 -0.3514  0.5982
  118MOL0     C15486  -1.037   4.089   7.841 -0.2329  0.6956 -0.3250
  118MOL0     C15487  -1.058   4.147   7.983 -0.2690  1.2165  0.0338
  118MOL0    Cl15488  -1.194   4.040   8.039  0.0289 -0.1824 -0.1867
  118MOL0     C15489  -0.867   3.769   6.966  0.4504  1.0320 -0.6972
  118MOL0     C15490  -0.784   3.730   6.863 -1.0736  0.6641 -0.1288
  118MOL0     O15491  -0.729   3.669   6.567 -0.3863  0.1818  0.1603
  118MOL0     C15492  -0.375   3.750   6.539 -0.3367  0.4274 -0.5679
  118MOL0     C15493  -0.276   3.737   6.443 -0.8001 -0.6991  0.4155
  118MOL0     N15494   0.219   3.384   6.214  0.0214  0.2832  0.6187
  118MOL0     N15495   0.339   3.383   6.260 -0.7977 -0.1216 -0.4123
  118MOL0     C15496   1.540   2.789   6.309  0.9148 -0.3097 -0.6313
  118MOL0     C15497   1.650   2.722   6.271  0.2977  0.0472  1.0137
  118MOL0     C15498   1.905   2.359   6.087 -0.2805  0.1954 -0.1775
  118MOL0     C15499   2.018   2.439   6.137 -0.2656 -0.4728  0.3338
  118MOL0     C15500   2.153   2.400   6.119 -0.0105  0.1047 -0.4734
  118MOL0     C15501   2.186   2.295   6.038  0.2168  0.1871 -0.4182
  118MOL0     O15502   2.318   2.273   6.005  0.1741 -1.0482  0.6597
  118MOL0     C15503   2.355   2.162   5.917 -0.1785  0.1971  0.1693
  118MOL0     C15504   2.501   2.158   5.882  0.2496 -0.0199 -0.5847
  118MOL0     C15505   2.591   2.155   6.006 -0.2251 -0.2576 -0.7164
  118MOL0     C15506   2.743   2.176   5.970 -0.1536 -0.4744 -1.2080
  118MOL0     C15507   2.814   2.067   5.898 -1.0418 -0.8435 -1.4899
  118MOL0     C15508   2.890   1.989   5.857 -0.8828 -0.3467 -0.6076
  118MOL0     C15509   2.078   2.216   5.991  0.8726  0.5819  0.1897
  118MOL0     C15510   1.933   2.237   6.026 -0.3801  0.2663 -0.4486
  118MOL0     H15511   1.479   2.451   6.149 -5.2246  0.3842  0.8917
  118MOL0     H15512   1.299   2.581   6.180 -0.6138 -0.5457  1.0746
  118MOL0     H15513   1.146   2.710   6.291  1.3297 -0.5208 -2.3280
  118MOL0     H15514   1.172   2.841   6.180  0.4075  1.2994 -0.1528
  118MOL0     H15515   1.119   3.008   6.372  0.7863 -0.4508 -0.1376
  118MOL0     H15516   1.079   2.869   6.466 -0.5203  0.4989  0.3470
  118MOL0     H15517   0.899   2.789   6.301  3.5812 -0.5868 -0.2587
  118MOL0     H15518   0.936   2.928   6.200  1.4396  1.8339  0.3986
  118MOL0     H15519   0.736   2.955   6.341 -1.1356  3.3743  0.0829
  118MOL0     H15520   0.828   2.936   6.491  3.3395  1.5766  0.8009
  118MOL0     H15521   0.863   3.163   6.282 -0.7201  0.8652  0.3943
  118MOL0     H15522   0.938   3.159   6.439  0.3995 -1.9248 -0.0646
  118MOL0     H15523   0.744   3.308   6.469  0.8993  0.2613 -2.0687
  118MOL0     H15524   0.698   3.151   6.533  1.3684 -0.7073 -0.3873
  118MOL0     H15525   0.595   3.300   6.286  3.3156  0.6352  1.1488
  118MOL0     H15526   0.577   3.128   6.298 -1.1778  0.8267 -1.2868
  118MOL0     H15527   0.495   3.347   6.481  3.2752  0.4383 -3.8975
  118MOL0     H15528   0.432   3.190   6.523 -1.1516 -0.9325 -2.2315
  118MOL0     H15529   0.183   3.121   6.395  2.1235 -1.0048 -2.3285
  118MOL0     H15530  -0.003   3.140   6.208 -0.1365  0.2436  0.6181
  118MOL0     H15531  -0.026   3.292   6.120  0.8188  2.8853  0.5924
  118MOL0     H15532  -0.062   3.251   6.419 -0.1402  1.6295  0.3463
  118MOL0     H15533  -0.203   3.255   6.310 -1.2567  3.7745  0.7510
  118MOL0     H15534  -0.153   3.464   6.433 -0.8294 -3.2446  0.4952
  118MOL0     H15535   0.006   3.476   6.376  0.2021  0.9045 -1.2676
  118MOL0     H15536  -0.238   3.458   6.170  1.9913 -1.8437 -1.9960
  118MOL0     H15537  -0.080   3.503   6.139  0.5462  0.3531  0.1831
  118MOL0     H15538  -0.426   3.550   6.207  2.8016  1.8177 -1.4022
  118MOL0     H15539  -0.627   3.590   6.357 -0.9038  2.1217 -1.9536
  118MOL0     H15540  -0.592   4.014   6.847  0.5607 -2.8363 -5.1536
  118MOL0     H15541  -0.749   4.076   7.040  1.9494 -1.0848  0.1594
  118MOL0     H15542  -0.962   3.751   7.221  1.2073  1.5991  1.2819
  118MOL0     H15543  -1.114   3.823   7.152 -0.5254  3.1596 -1.2488
  118MOL0     H15544  -1.117   3.832   7.398 -1.8975  2.3090  0.0381
  118MOL0     H15545  -1.123   3.992   7.322 -0.3878 -0.3183 -0.3403
  118MOL0     H15546  -0.881   4.033   7.354 -0.2024 -0.7753 -1.2402
  118MOL0     H15547  -0.858   3.873   7.417  1.3704  1.2537 -0.4012
  118MOL0     H15548  -1.052   4.083   7.565 -0.9937 -0.8403 -2.0625
  118MOL0     H15549  -0.991   3.931   7.633  0.4770 -1.5911 -2.2064
  118MOL0     H15550  -0.786   4.140   7.603  3.3309 -0.6261  3.3825
  118MOL0     H15551  -0.800   3.992   7.687  0.0921 -1.0213 -2.7869
  118MOL0     H15552  -0.970   4.250   7.715 -1.5182 -0.4801  1.6765
  118MOL0     H15553  -0.854   4.192   7.837  1.9751 -1.1560 -0.9094
  118MOL0     H15554  -1.132   4.084   7.787 -1.3837 -1.5834  1.7336
  118MOL0     H15555  -1.005   3.985   7.848  0.0488  0.7645 -0.5746
  118MOL0     H15556  -1.097   4.249   7.974 -2.1490  0.5110 -0.2884
  118MOL0     H15557  -0.970   4.149   8.047  0.7082 -0.6718 -1.1666
  118MOL0     H15558  -0.947   3.702   6.993  1.3794 -1.0238 -2.7156
  118MOL0     H15559  -0.817   3.643   6.807 -1.0255  1.6014 -1.6704
  118MOL0     H15560  -0.350   3.790   6.637  1.4446 -0.5789 -0.5652
  118MOL0     H15561  -0.184   3.790   6.462  0.1099 -2.0074 -0.1773
  118MOL0     H15562   1.546   2.892   6.344  0.6797 -0.5146  0.0219
  118MOL0     H15563   1.740   2.779   6.290 -0.2057  0.9258  0.8216
  118MOL0     H15564   2.001   2.532   6.191  1.0873  0.3914 -0.6653
  118MOL0     H15565   2.238   2.450   6.165 -0.7501  1.7876 -0.8648
  118MOL0     H15566   2.301   2.160   5.821 -0.3711 -0.2716  0.2828
  118MOL0     H15567   2.342   2.065   5.966 -3.6535 -0.3369 -1.5080
  118MOL0     H15568   2.523   2.071   5.819  0.1065  0.2313 -0.9864
  118MOL0     H15569   2.507   2.247   5.818 -2.9432  1.1769  0.5844
  118MOL0     H15570   2.573   2.064   6.063  0.2155  1.0902  1.6829
  118MOL0     H15571   2.562   2.237   6.072 -3.5503 -1.5344 -0.4131
  118MOL0     H15572   2.756   2.268   5.913 -1.9742 -0.5805 -1.8830
  118MOL0     H15573   2.798   2.199   6.062 -0.6524 -0.2433 -0.9646
  118MOL0     H15574   2.941   1.904   5.815  1.2447 -2.0131  4.4770
  118MOL0     H15575   2.091   2.122   5.936 -6.1702 -0.5105 -0.5615
  118MOL0     H15576   1.857   2.174   5.982  1.0405 -0.1132 -2.4766
  119MOL0     O15577   7.738   4.031   2.298 -0.2660 -0.7013  0.2831
  119MOL0     C15578   7.759   4.132   2.368 -0.3212 -0.7432  1.0664
  119MOL0     O15579   7.666   4.212   2.423 -0.3123  0.4619 -0.1094
  119MOL0     C15580   7.533   4.170   2.433 -0.1417 -0.3305 -0.8578
  119MOL0     C15581   7.492   4.041   2.465  0.1412  0.1132  0.2831
  119MOL0     C15582   7.360   4.003   2.458  0.2603 -0.6780 -0.8449
  119MOL0     C15583   7.257   4.092   2.408 -0.6680  0.8980  0.1981
  119MOL0     O15584   7.127   4.067   2.418 -0.2052  0.0250 -0.3582
  119MOL0     C15585   7.079   3.941   2.371 -0.3830  0.5282 -0.6877
  119MOL0     C15586   6.925   3.945   2.335 -0.9018  0.8809 -0.3427
  119MOL0     C15587   6.907   4.086   2.271  0.9403 -0.8656  0.3631
  119MOL0     C15588   6.770   4.076   2.225 -0.2721 -0.0230  0.1497
  119MOL0     C15589   6.709   4.209   2.185 -0.7820 -0.7405 -0.3789
  119MOL0     C15590   6.552   4.218   2.188  1.0871  0.1367  1.9260
  119MOL0     C15591   6.472   4.092   2.132 -0.1716  0.4340 -0.7321
  119MOL0     C15592   6.471   4.081   1.981 -0.0232 -0.3041  0.3784
  119MOL0     N15593   6.399   4.192   1.917  0.2219  0.0430 -0.5525
  119MOL0     C15594   6.436   4.317   1.865 -0.3112  0.2581 -0.1193
  119MOL0     C15595   6.326   4.389   1.847  0.9162 -0.3530  0.4996
  119MOL0     C15596   6.324   4.526   1.800 -0.3754  0.1866  0.2719
  119MOL0     C15597   6.250   4.532   1.666 -0.1440  0.2269  0.1713
  119MOL0     C15598   6.337   4.563   1.536 -0.4030 -1.3379 -0.2432
  119MOL0     C15599   6.234   4.544   1.417  0.0919  0.1886 -0.5398
  119MOL0     O15600   6.310   4.583   1.305 -0.3818 -0.0033  0.0598
  119MOL0     C15601   6.235   4.626   1.197  0.4472  0.1785 -0.1000
  119MOL0     C15602   6.104   4.573   1.183 -0.2965 -0.6547  0.1355
  119MOL0     C15603   6.023   4.616   1.074 -0.9853 -0.0879  0.3039
  119MOL0     C15604   6.084   4.713   0.981  0.8032  0.5994  0.2254
  119MOL0     C15605   6.012   4.742   0.856  0.4627 -0.6583 -0.5647
  119MOL0     O15606   5.876   4.706   0.864 -0.2225  0.2264  0.4474
  119MOL0     C15607   5.782   4.727   0.766  0.1726  0.6927 -0.3133
  119MOL0     C15608   5.660   4.653   0.776  0.6437 -0.1683 -1.3388
  119MOL0     C15609   5.546   4.670   0.694 -0.7525  0.0307 -0.6397
  119MOL0     C15610   5.554   4.766   0.594  0.2460  0.3520  0.3055
  119MOL0     O15611   5.432   4.798   0.542 -0.1087 -0.8314  0.2191
  119MOL0     C15612   5.433   4.768   0.400 -0.4294  0.4237  0.3240
  119MOL0     C15613   5.290   4.810   0.350 -0.1178  0.5132 -0.5175
  119MOL0     C15614   5.187   4.716   0.411 -0.0647 -0.3741 -0.4669
  119MOL0     C15615   5.053   4.765   0.368  0.5568  0.5138  0.7557
  119MOL0     C15616   4.963   4.654   0.401  0.7897 -0.6882  0.1415
  119MOL0     C15617   4.820   4.698   0.383 -0.3293  0.2071  0.1141
  119MOL0     C15618   4.742   4.594   0.466  0.2003  0.4871  0.9406
  119MOL0     C15619   4.593   4.593   0.437 -0.5019 -0.4173  0.6969
  119MOL0    Cl15620   4.524   4.454   0.524  0.2565  0.0244 -0.0425
  119MOL0     C15621   5.676   4.839   0.577 -0.7050 -0.0738  0.0203
  119MOL0     C15622   5.783   4.826   0.667 -1.0125  0.5533 -0.0407
  119MOL0     O15623   6.062   4.812   0.769  0.6526 -0.2793 -0.7621
  119MOL0     C15624   6.219   4.759   0.994 -0.1939  0.1802 -0.0571
  119MOL0     C15625   6.289   4.718   1.104  0.4085 -0.0787 -0.1725
  119MOL0     N15626   6.220   4.308   1.885  0.0176  0.7036 -0.1060
  119MOL0     N15627   6.263   4.195   1.927 -0.0809 -0.0482 -0.4989
  119MOL0     C15628   7.296   4.219   2.385 -0.3454 -0.8712  0.7173
  119MOL0     C15629   7.430   4.258   2.392 -1.2414  0.4801 -0.5877
  119MOL0     C15630   7.892   4.183   2.392 -0.6887  1.2836  0.3217
  119MOL0     C15631   7.999   4.085   2.384  0.0350  0.0606 -0.5742
  119MOL0     C15632   8.131   4.134   2.401 -0.3346 -0.5865  0.2055
  119MOL0     C15633   8.155   4.276   2.418 -0.1320 -0.2691 -0.8799
  119MOL0     O15634   8.284   4.315   2.399  0.1652 -0.8239  0.6886
  119MOL0     C15635   8.322   4.451   2.413  0.4989 -0.4178  0.2771
  119MOL0     C15636   8.471   4.471   2.450  0.2728  0.5097 -0.9414
  119MOL0     C15637   8.565   4.385   2.365  0.0162  1.1017  0.3967
  119MOL0     C15638   8.708   4.432   2.337 -0.7396  0.3514 -0.4045
  119MOL0     C15639   8.791   4.312   2.302 -0.6620  0.2129 -1.2763
  119MOL0     C15640   8.850   4.214   2.253 -0.2301 -0.0241 -0.2359
  119MOL0     C15641   8.047   4.365   2.437 -0.0136 -0.3823  0.1123
  119MOL0     C15642   7.915   4.313   2.426 -0.7203 -0.2929 -0.1735
  119MOL0     H15643   7.566   3.970   2.499 -0.3146  0.5043  2.2715
  119MOL0     H15644   7.329   3.907   2.499  2.9686 -0.4864  2.0387
  119MOL0     H15645   7.101   3.865   2.447 -0.0773 -1.0378 -2.2778
  119MOL0     H15646   7.133   3.934   2.276  1.3251 -2.5988  0.3627
  119MOL0     H15647   6.866   3.912   2.421 -2.2405 -0.7285 -1.7939
  119MOL0     H15648   6.916   3.864   2.263 -0.0588 -1.2066  1.7792
  119MOL0     H15649   6.971   4.101   2.184 -1.2944 -2.5191 -1.7153
  119MOL0     H15650   6.899   4.165   2.346  2.6133 -2.5795  2.5035
  119MOL0     H15651   6.763   4.008   2.140 -2.3546 -3.0467  2.5393
  119MOL0     H15652   6.698   4.039   2.299  1.5577  1.1468  2.6463
  119MOL0     H15653   6.758   4.231   2.090  1.8192 -4.1077  0.0029
  119MOL0     H15654   6.743   4.296   2.242  1.2296 -0.8550 -1.3450
  119MOL0     H15655   6.525   4.319   2.155  2.4044  0.6444  2.3284
  119MOL0     H15656   6.518   4.214   2.292 -1.2223  0.5744  1.2487
  119MOL0     H15657   6.522   4.001   2.167  1.2849  1.9829  1.5840
  119MOL0     H15658   6.375   4.094   2.182  1.2273  3.9385  2.3475
  119MOL0     H15659   6.427   3.991   1.937  3.1641 -1.5242 -0.5790
  119MOL0     H15660   6.571   4.091   1.939 -0.4249  3.4923 -0.0228
  119MOL0     H15661   6.539   4.349   1.854 -0.7129  2.6427  2.0451
  119MOL0     H15662   6.426   4.564   1.800 -0.4671  0.4541  0.8874
  119MOL0     H15663   6.272   4.590   1.872  1.3892  0.4973  1.3264
  119MOL0     H15664   6.188   4.622   1.670  0.1532  0.5774 -2.1524
  119MOL0     H15665   6.187   4.443   1.657 -2.2073  1.7021 -0.5601
  119MOL0     H15666   6.374   4.666   1.540 -1.9353 -0.8050  2.1851
  119MOL0     H15667   6.419   4.491   1.527 -0.3142 -1.3472  0.5452
  119MOL0     H15668   6.145   4.606   1.432 -0.3503 -0.4686 -0.3927
  119MOL0     H15669   6.207   4.438   1.416  0.8959 -0.0724  1.3224
  119MOL0     H15670   6.059   4.510   1.259 -2.0089 -0.4712 -0.6810
  119MOL0     H15671   5.925   4.579   1.048 -1.8438  1.8337  0.6081
  119MOL0     H15672   5.661   4.559   0.830  0.6480 -1.6975 -3.7951
  119MOL0     H15673   5.461   4.605   0.707 -2.1266  2.0917  1.3159
  119MOL0     H15674   5.430   4.660   0.379 -0.4066  0.7531 -1.5689
  119MOL0     H15675   5.503   4.830   0.343 -2.4953  2.5186 -0.0878
  119MOL0     H15676   5.296   4.797   0.242 -0.2891 -0.1452 -0.4546
  119MOL0     H15677   5.271   4.916   0.369 -1.8002  0.5811 -2.2508
  119MOL0     H15678   5.193   4.723   0.520 -1.7970  1.2287 -0.4175
  119MOL0     H15679   5.211   4.616   0.374 -2.5241 -1.0590 -0.3680
  119MOL0     H15680   5.026   4.861   0.412  1.4562  0.7156  0.8787
  119MOL0     H15681   5.038   4.777   0.260 -0.3349 -0.7817  0.7094
  119MOL0     H15682   4.969   4.611   0.502 -4.1802 -0.9267  0.5786
  119MOL0     H15683   4.989   4.575   0.329  2.1298 -0.4179  0.3153
  119MOL0     H15684   4.789   4.695   0.278 -1.8532 -1.1748  0.5569
  119MOL0     H15685   4.802   4.797   0.427 -1.0144 -0.3880  1.2159
  119MOL0     H15686   4.772   4.490   0.446 -0.1561  0.6453 -0.6174
  119MOL0     H15687   4.753   4.618   0.571 -0.1356 -2.9378  1.8924
  119MOL0     H15688   4.580   4.594   0.328  2.4206  3.0768  0.1678
  119MOL0     H15689   4.545   4.685   0.471 -2.9250 -1.6253  0.7742
  119MOL0     H15690   5.694   4.901   0.490 -0.2295  0.5694  0.5707
  119MOL0     H15691   5.871   4.888   0.653 -0.7810  0.7451  1.9387
  119MOL0     H15692   6.252   4.814   0.906 -1.6688  0.6730 -0.3394
  119MOL0     H15693   6.392   4.751   1.117  0.8389  0.6128 -3.9644
  119MOL0     H15694   7.219   4.291   2.362  0.0962  0.1853  2.3459
  119MOL0     H15695   7.457   4.362   2.375 -0.2221  0.3130 -0.1015
  119MOL0     H15696   7.977   3.991   2.334 -1.6079  1.8209 -3.4630
  119MOL0     H15697   8.212   4.076   2.358 -0.1364  2.0998 -3.6171
  119MOL0     H15698   8.259   4.510   2.480 -0.1698  0.6787 -1.2523
  119MOL0     H15699   8.309   4.501   2.316 -0.6820  0.9711  1.1034
  119MOL0     H15700   8.485   4.578   2.431 -1.4248  1.4210  2.1664
  119MOL0     H15701   8.488   4.453   2.557 -2.0687 -1.2348 -0.7773
  119MOL0     H15702   8.515   4.356   2.272 -4.5098  0.7699  2.6494
  119MOL0     H15703   8.565   4.293   2.424 -2.6722  0.9082  0.1930
  119MOL0     H15704   8.715   4.505   2.255  0.1343 -0.1262 -0.7672
  119MOL0     H15705   8.749   4.478   2.428  1.9982 -0.8673 -0.9006
  119MOL0     H15706   8.900   4.123   2.230  3.5901  0.5264  4.3000
  119MOL0     H15707   8.049   4.471   2.460 -1.8790 -0.5148  1.0820
  119MOL0     H15708   7.833   4.384   2.434 -0.7970 -0.2120 -1.4607
  120MOL0     O15709   8.585   2.938   2.049 -0.1766 -0.2302 -0.0829
  120MOL0     C15710   8.487   2.964   1.981  0.2752 -0.2467 -0.5518
  120MOL0     O15711   8.478   2.994   1.854 -0.2684  0.3351 -0.1744
  120MOL0     C15712   8.562   2.924   1.772  1.2672 -0.1974  0.1963
  120MOL0     C15713   8.606   3.002   1.669  0.2293 -0.0224  0.1787
  120MOL0     C15714   8.695   2.946   1.577  0.8067  0.0223 -0.2239
  120MOL0     C15715   8.729   2.812   1.597 -1.0770 -0.6260  0.5460
  120MOL0     O15716   8.825   2.760   1.521 -0.5400  0.0624  0.2523
  120MOL0     C15717   8.947   2.742   1.588 -0.5506  0.5529  0.5019
  120MOL0     C15718   9.063   2.753   1.494 -0.1149 -0.5214 -0.0297
  120MOL0     C15719   9.203   2.763   1.554 -0.1325 -0.2112  0.4990
  120MOL0     C15720   9.237   2.644   1.650 -0.9985  0.0620  0.1336
  120MOL0     C15721   9.235   2.497   1.601  0.1811 -0.6725  1.0246
  120MOL0     C15722   9.308   2.403   1.697  0.9659  0.3315  0.0264
  120MOL0     C15723   9.306   2.249   1.650  0.2729  0.2666  0.3065
  120MOL0     C15724   9.169   2.192   1.619  0.4723 -0.8976  0.1353
  120MOL0     N15725   9.088   2.193   1.733  0.1689 -0.4614 -0.1597
  120MOL0     C15726   9.125   2.183   1.872  1.0487 -0.4472  0.4127
  120MOL0     C15727   9.017   2.222   1.937  0.6631  0.5680  0.2880
  120MOL0     C15728   8.990   2.177   2.074  1.0480 -0.9323  0.4430
  120MOL0     C15729   8.846   2.229   2.106  0.0648  1.0287  1.0266
  120MOL0     C15730   8.832   2.198   2.251 -0.5739 -0.2929 -0.4716
  120MOL0     C15731   8.685   2.243   2.300 -0.0964 -0.6167  0.1349
  120MOL0     O15732   8.682   2.225   2.441 -0.0838  0.4962 -0.0208
  120MOL0     C15733   8.561   2.218   2.496  0.6140 -0.2736  0.2259
  120MOL0     C15734   8.559   2.180   2.628 -0.0992 -0.9683  0.4876
  120MOL0     C15735   8.441   2.163   2.705  0.1814 -0.5653 -0.1918
  120MOL0     C15736   8.317   2.202   2.641  0.1352 -0.1235  0.6258
  120MOL0     C15737   8.193   2.208   2.710 -0.1662 -0.2284  0.2570
  120MOL0     O15738   8.084   2.227   2.630  0.6721  0.1677  0.3403
  120MOL0     C15739   7.957   2.224   2.676  0.4399 -1.3008  0.3127
  120MOL0     C15740   7.865   2.208   2.581 -0.0056 -0.4537  0.7337
  120MOL0     C15741   7.729   2.203   2.613  0.5993 -0.1667  0.2377
  120MOL0     C15742   7.690   2.241   2.746 -1.1254 -0.1070 -0.6425
  120MOL0     O15743   7.559   2.251   2.777  0.2903 -0.0182 -0.2297
  120MOL0     C15744   7.469   2.191   2.674 -0.4334  1.1524 -1.2862
  120MOL0     C15745   7.314   2.205   2.698  0.5124  0.3726  0.2562
  120MOL0     C15746   7.280   2.356   2.699 -0.0005  0.0267  0.4414
  120MOL0     C15747   7.145   2.374   2.752  0.3109 -0.6016 -0.9482
  120MOL0     C15748   7.101   2.519   2.727 -0.2793  1.1868  0.2099
  120MOL0     C15749   6.946   2.513   2.719 -0.7120 -0.2035 -0.4263
  120MOL0     C15750   6.869   2.641   2.722 -0.6612 -0.1310 -0.4954
  120MOL0     C15751   6.792   2.666   2.594  0.7280 -0.0949 -0.3501
  120MOL0    Cl15752   6.735   2.841   2.594 -0.5124 -0.5629  0.0932
  120MOL0     C15753   7.786   2.264   2.846 -0.3503 -0.3068  0.7717
  120MOL0     C15754   7.919   2.259   2.805 -0.5113 -0.2212 -0.4285
  120MOL0     O15755   8.199   2.204   2.830  0.2143 -0.2687 -1.0070
  120MOL0     C15756   8.322   2.240   2.506  0.4338 -1.0814 -0.0812
  120MOL0     C15757   8.437   2.242   2.432  0.7634  0.3631  0.0946
  120MOL0     N15758   8.929   2.275   1.847  0.0962  0.0799  0.8217
  120MOL0     N15759   8.967   2.254   1.730 -0.7330  0.0803  0.0585
  120MOL0     C15760   8.671   2.738   1.698 -0.2039 -0.1668 -0.1644
  120MOL0     C15761   8.588   2.793   1.787  0.1220  0.2122  0.3733
  120MOL0     C15762   8.356   2.992   2.057 -0.1049 -0.6399  0.2838
  120MOL0     C15763   8.349   2.988   2.198 -0.7682 -0.2286 -0.5081
  120MOL0     C15764   8.233   2.995   2.267  0.3207 -0.9322 -0.3602
  120MOL0     C15765   8.106   3.010   2.199 -0.5237 -0.8006  0.8613
  120MOL0     O15766   7.981   3.006   2.256 -0.0153  0.0206 -0.3605
  120MOL0     C15767   7.971   2.966   2.395  0.8573 -0.3598  0.2961
  120MOL0     C15768   7.824   2.939   2.420 -0.0625 -0.1364 -0.8047
  120MOL0     C15769   7.729   3.055   2.392  0.6126 -0.6474  0.2257
  120MOL0     C15770   7.590   3.021   2.444  0.4017  0.4610  0.1041
  120MOL0     C15771   7.495   3.128   2.409  0.5293 -0.2145 -0.6776
  120MOL0     C15772   7.406   3.196   2.366 -0.1520  0.5902 -0.2872
  120MOL0     C15773   8.113   3.029   2.062  0.8490 -0.7448 -0.2722
  120MOL0     C15774   8.237   3.018   1.995 -0.0234 -0.6782 -0.0081
  120MOL0     H15775   8.586   3.108   1.670  1.2298  0.2087  2.2430
  120MOL0     H15776   8.740   3.007   1.500  1.5329 -1.4876 -1.0513
  120MOL0     H15777   8.950   2.658   1.658 -2.1073 -1.6648 -1.9009
  120MOL0     H15778   8.966   2.831   1.650  2.8407  0.5262 -0.3030
  120MOL0     H15779   9.043   2.844   1.437 -1.6625 -1.2443 -0.6987
  120MOL0     H15780   9.069   2.667   1.427  3.7146 -2.2223  2.1415
  120MOL0     H15781   9.202   2.857   1.610 -1.4303 -0.8514  1.6236
  120MOL0     H15782   9.275   2.771   1.473 -0.3559  0.2755  0.3485
  120MOL0     H15783   9.340   2.668   1.679 -0.9617  0.2699 -0.1635
  120MOL0     H15784   9.177   2.649   1.741 -1.1919 -0.6633  0.0557
  120MOL0     H15785   9.278   2.504   1.501 -0.4943  1.7816  0.8260
  120MOL0     H15786   9.130   2.467   1.592  0.7314 -2.6330  0.6527
  120MOL0     H15787   9.276   2.422   1.800 -2.2235  0.6579 -0.8998
  120MOL0     H15788   9.414   2.426   1.711  0.8171 -0.1801  2.3800
  120MOL0     H15789   9.371   2.239   1.562  0.3801 -0.8105  0.4928
  120MOL0     H15790   9.351   2.181   1.722  3.1651  0.1649 -1.4494
  120MOL0     H15791   9.179   2.094   1.572 -4.6753 -1.5271 -0.1859
  120MOL0     H15792   9.120   2.254   1.544  0.5563 -0.9285  0.0553
  120MOL0     H15793   9.199   2.134   1.934 -2.6363 -1.5312  4.5259
  120MOL0     H15794   9.061   2.219   2.146  2.3997  0.2987 -1.5213
  120MOL0     H15795   8.987   2.068   2.068 -3.8559 -0.9275 -3.8530
  120MOL0     H15796   8.765   2.174   2.057  0.5841  0.8915  0.3070
  120MOL0     H15797   8.842   2.336   2.083 -1.8685  0.2800 -2.9912
  120MOL0     H15798   8.849   2.091   2.265  2.5550  0.2524  0.8405
  120MOL0     H15799   8.907   2.261   2.301 -1.9670  0.5774  0.6055
  120MOL0     H15800   8.613   2.183   2.244  0.3799 -0.1753 -0.9869
  120MOL0     H15801   8.668   2.348   2.273 -1.2381 -1.1397 -1.3643
  120MOL0     H15802   8.656   2.154   2.669  1.0596 -0.7438 -1.9157
  120MOL0     H15803   8.448   2.139   2.810  1.6313 -0.2680 -0.2057
  120MOL0     H15804   7.895   2.211   2.477 -3.1167  0.1465 -0.2491
  120MOL0     H15805   7.670   2.172   2.527  2.1741  0.0005 -0.9718
  120MOL0     H15806   7.498   2.087   2.659  2.5885  1.5058  1.0880
  120MOL0     H15807   7.475   2.243   2.579  1.0235  0.1771 -1.7514
  120MOL0     H15808   7.300   2.176   2.802  0.5989  3.0774  1.1025
  120MOL0     H15809   7.277   2.149   2.611  1.1187  3.2624 -2.0339
  120MOL0     H15810   7.279   2.390   2.595 -0.9360  1.4125  0.8702
  120MOL0     H15811   7.349   2.416   2.758  0.4678 -0.0522 -0.0185
  120MOL0     H15812   7.076   2.313   2.692 -1.0723 -1.6920  1.6091
  120MOL0     H15813   7.141   2.349   2.858  0.6439  0.8909 -0.5695
  120MOL0     H15814   7.131   2.560   2.630  2.2789  1.4224  1.0266
  120MOL0     H15815   7.138   2.585   2.807  0.6893  0.5155  0.3402
  120MOL0     H15816   6.918   2.459   2.810  0.4045 -1.6610 -0.9061
  120MOL0     H15817   6.909   2.455   2.633 -1.9285 -1.6383  0.9950
  120MOL0     H15818   6.805   2.625   2.809 -0.1434  0.5906  0.0238
  120MOL0     H15819   6.940   2.721   2.744  0.2962 -0.9710 -0.4561
  120MOL0     H15820   6.708   2.597   2.593 -0.7812  1.5965  1.4760
  120MOL0     H15821   6.856   2.651   2.506  2.0214  1.5833  0.2312
  120MOL0     H15822   7.753   2.307   2.940  2.2360  0.5199  1.3741
  120MOL0     H15823   7.992   2.294   2.877 -0.9791  0.0519 -0.0834
  120MOL0     H15824   8.226   2.266   2.461 -0.4386  0.9433  2.6079
  120MOL0     H15825   8.433   2.278   2.330  0.4567 -0.3640 -0.1534
  120MOL0     H15826   8.711   2.637   1.710  2.0941  0.8821  1.7149
  120MOL0     H15827   8.536   2.748   1.871  0.8421 -0.1704  0.6160
  120MOL0     H15828   8.436   2.977   2.261  0.4019  2.2748 -1.5464
  120MOL0     H15829   8.240   2.968   2.372 -1.8425  1.6768  0.5828
  120MOL0     H15830   7.976   3.046   2.469 -2.9895  0.6023 -0.2481
  120MOL0     H15831   8.035   2.884   2.427  1.0582  0.6099  2.5864
  120MOL0     H15832   7.798   2.847   2.367  1.0509 -0.9896  0.0730
  120MOL0     H15833   7.825   2.908   2.525 -2.0114 -0.2443 -0.7891
  120MOL0     H15834   7.724   3.091   2.288 -0.9929 -0.6436  0.2816
  120MOL0     H15835   7.755   3.142   2.453 -1.1975 -0.9944  1.5661
  120MOL0     H15836   7.550   2.936   2.389 -1.0057  0.3218  1.2780
  120MOL0     H15837   7.585   2.997   2.550 -2.0703 -0.5726 -0.1828
  120MOL0     H15838   7.311   3.238   2.340 -1.3061 -2.3210 -1.2562
  120MOL0     H15839   8.015   3.038   2.018 -0.4204 -0.2860  2.4396
  120MOL0     H15840   8.230   3.030   1.887 -2.2249  0.9300  0.2331
  121MOL0     O15841  10.597   8.411   1.778  0.1043  0.0153  0.4280
  121MOL0     C15842  10.613   8.288   1.791 -0.3720  0.1803 -0.4511
  121MOL0     O15843  10.737   8.225   1.802  0.5019 -0.1203  0.2815
  121MOL0     C15844  10.846   8.288   1.745  0.8190 -0.4355 -0.9270
  121MOL0     C15845  10.887   8.241   1.620  0.5989  0.8044  0.6506
  121MOL0     C15846  11.009   8.279   1.573 -0.3755 -0.6739 -0.2768
  121MOL0     C15847  11.094   8.371   1.636  0.9621 -1.0303 -0.5285
  121MOL0     O15848  11.216   8.407   1.590 -0.3401  0.0005  0.1174
  121MOL0     C15849  11.217   8.437   1.449  0.2180  0.7459  0.2129
  121MOL0     C15850  11.260   8.587   1.452  0.1985  0.2558  0.0632
  121MOL0     C15851  11.410   8.604   1.470  0.1531 -0.8048  0.5070
  121MOL0     C15852  11.447   8.748   1.423  0.6021  0.3666  0.4207
  121MOL0     C15853  11.582   8.801   1.478 -0.3962  0.5729  0.6141
  121MOL0     C15854  11.653   8.892   1.375  0.3531 -0.4177  0.1259
  121MOL0     C15855  11.697   8.810   1.248  1.4344  0.2997  0.1714
  121MOL0     C15856  11.789   8.899   1.162 -0.8359 -0.1838 -0.4389
  121MOL0     N15857  11.934   8.870   1.208  0.5882 -0.7128  0.4029
  121MOL0     C15858  12.016   8.778   1.153 -0.0627 -0.0123  0.0400
  121MOL0     C15859  12.142   8.819   1.191  0.2321 -0.4815 -0.3573
  121MOL0     C15860  12.279   8.770   1.149  0.1109 -0.8590  0.8682
  121MOL0     C15861  12.309   8.635   1.211 -1.2353  0.6139  0.4023
  121MOL0     C15862  12.444   8.582   1.162  0.0804 -0.5099  0.7986
  121MOL0     C15863  12.569   8.659   1.216 -0.6359  0.0092  0.3913
  121MOL0     O15864  12.589   8.623   1.357  0.2553  0.5967  0.0245
  121MOL0     C15865  12.698   8.673   1.419  0.0454  0.8051  0.9791
  121MOL0     C15866  12.777   8.784   1.389 -0.3066 -0.0391  0.1349
  121MOL0     C15867  12.875   8.832   1.479 -0.1356  0.7121 -0.6046
  121MOL0     C15868  12.898   8.770   1.605 -0.5272  0.1391  0.4066
  121MOL0     C15869  13.011   8.799   1.690 -0.0913  0.7685 -0.1140
  121MOL0     O15870  13.075   8.918   1.667  0.1846  0.0506  0.0974
  121MOL0     C15871  13.192   8.953   1.733  1.0253  0.7149  0.3205
  121MOL0     C15872  13.222   8.928   1.866 -0.2089  0.0092 -0.3379
  121MOL0     C15873  13.339   8.975   1.920 -0.7864  1.1991  0.9022
  121MOL0     C15874  13.423   9.053   1.834  0.1193  1.2565  0.4103
  121MOL0     O15875  13.539   9.107   1.879 -0.5902  0.1297  0.8646
  121MOL0     C15876  13.542   9.171   2.010  0.2296  0.0341  1.1108
  121MOL0     C15877  13.614   9.304   2.007 -1.1933  0.2100 -0.6149
  121MOL0     C15878  13.759   9.278   1.973  0.9725 -0.6783  0.5652
  121MOL0     C15879  13.863   9.388   2.019 -0.7682  0.2504 -0.2020
  121MOL0     C15880  14.014   9.346   1.993 -0.3296 -0.0720  1.6073
  121MOL0     C15881  14.070   9.251   2.096 -0.6564 -0.2982  0.0095
  121MOL0     C15882  14.136   9.331   2.212  1.5720  0.1916 -0.7589
  121MOL0     C15883  14.198   9.227   2.305 -0.2806  0.4425  0.1455
  121MOL0    Cl15884  14.319   9.308   2.425  0.1039  0.4163  0.2311
  121MOL0     C15885  13.394   9.077   1.703  0.2537 -0.2250 -0.6515
  121MOL0     C15886  13.272   9.030   1.659 -1.0544 -0.2451  0.1696
  121MOL0     O15887  13.064   8.700   1.747 -0.6688  0.7304 -0.4242
  121MOL0     C15888  12.821   8.657   1.631 -0.9397 -0.1435 -0.4844
  121MOL0     C15889  12.716   8.616   1.547 -1.3918 -0.5557 -0.5747
  121MOL0     N15890  12.131   8.926   1.284  0.2520 -0.3315 -0.7898
  121MOL0     N15891  12.008   8.952   1.294  0.4555  0.2908 -0.5264
  121MOL0     C15892  11.045   8.430   1.753 -0.3966  0.2580 -1.6677
  121MOL0     C15893  10.922   8.381   1.807 -0.0806 -0.2744 -0.1618
  121MOL0     C15894  10.491   8.209   1.806 -0.2535 -0.9778 -0.7347
  121MOL0     C15895  10.500   8.067   1.832  0.2362  0.1027  0.4479
  121MOL0     C15896  10.383   7.990   1.854 -0.4408  0.2024 -0.0074
  121MOL0     C15897  10.257   8.059   1.854  0.0798  1.0913 -0.5596
  121MOL0     O15898  10.136   8.001   1.883 -0.7462  0.2503 -0.6369
  121MOL0     C15899  10.119   7.858   1.883 -1.2411 -0.3908  0.1590
  121MOL0     C15900   9.969   7.821   1.875  0.8026  0.3219 -0.0157
  121MOL0     C15901   9.884   7.864   1.997  0.1599 -0.3863  1.1267
  121MOL0     C15902   9.761   7.772   2.026  0.3579 -1.3172  0.6674
  121MOL0     C15903   9.803   7.641   2.049 -0.4999  1.0877 -0.1420
  121MOL0     C15904   9.830   7.517   2.048  0.1480  0.5045  0.1453
  121MOL0     C15905  10.247   8.189   1.816  0.4474  0.6027 -0.5551
  121MOL0     C15906  10.361   8.268   1.806 -0.2110  0.2174 -0.3306
  121MOL0     H15907  10.829   8.165   1.569  1.6671 -1.5644  2.7481
  121MOL0     H15908  11.051   8.232   1.485  1.3268  1.4055 -0.6686
  121MOL0     H15909  11.121   8.420   1.398  1.1644  0.2444 -1.4967
  121MOL0     H15910  11.288   8.380   1.387  2.9276  1.9672  2.0323
  121MOL0     H15911  11.201   8.637   1.529  1.5204 -2.0026  2.7001
  121MOL0     H15912  11.227   8.624   1.354  0.5352 -2.2303 -1.0902
  121MOL0     H15913  11.461   8.527   1.412  0.6603 -1.5246  1.8607
  121MOL0     H15914  11.442   8.599   1.574  1.0479 -1.4623  0.2108
  121MOL0     H15915  11.443   8.756   1.314 -0.3425  0.0312  0.4247
  121MOL0     H15916  11.370   8.823   1.441  2.8953  3.9429 -3.0281
  121MOL0     H15917  11.643   8.714   1.506 -4.7338 -2.8436  0.5737
  121MOL0     H15918  11.560   8.853   1.572 -1.4440 -0.3695  0.9188
  121MOL0     H15919  11.738   8.943   1.420 -0.1663 -0.4280  1.1547
  121MOL0     H15920  11.588   8.978   1.354  0.5843  0.8733  3.9667
  121MOL0     H15921  11.743   8.713   1.270 -0.6217 -2.2006 -4.9869
  121MOL0     H15922  11.606   8.790   1.190  2.1623  0.4382 -1.0548
  121MOL0     H15923  11.765   9.003   1.186 -0.4767 -0.5141  1.5719
  121MOL0     H15924  11.772   8.880   1.056 -1.5173 -1.9734 -0.0488
  121MOL0     H15925  11.996   8.695   1.087  3.1814 -1.8519  1.1509
  121MOL0     H15926  12.351   8.851   1.168 -0.5889 -0.2395  0.9474
  121MOL0     H15927  12.287   8.759   1.040 -1.0252  1.4508  0.4857
  121MOL0     H15928  12.233   8.561   1.185 -0.9627  0.3057  0.4861
  121MOL0     H15929  12.313   8.641   1.320  3.9834  2.0788  0.3873
  121MOL0     H15930  12.463   8.477   1.190  5.3887 -0.0888 -0.1124
  121MOL0     H15931  12.445   8.589   1.053 -0.1528 -1.5041  0.7205
  121MOL0     H15932  12.561   8.767   1.200  4.5405  0.7070  0.7180
  121MOL0     H15933  12.659   8.625   1.164 -0.4472  0.4190  0.4531
  121MOL0     H15934  12.755   8.831   1.294 -3.6097  1.4322  1.4395
  121MOL0     H15935  12.922   8.930   1.474 -0.4175  1.0005  1.4147
  121MOL0     H15936  13.150   8.872   1.925  1.7711 -0.1393  2.0958
  121MOL0     H15937  13.372   8.944   2.018  0.8628 -1.5930 -0.4200
  121MOL0     H15938  13.563   9.098   2.089 -0.0729 -2.3532 -0.8909
  121MOL0     H15939  13.437   9.203   2.012 -0.3603 -0.2751 -4.9324
  121MOL0     H15940  13.606   9.364   2.099 -0.9544 -2.9297  1.6081
  121MOL0     H15941  13.569   9.360   1.924  0.9155  2.9495 -0.0778
  121MOL0     H15942  13.762   9.276   1.864  1.8427  1.8629  0.4887
  121MOL0     H15943  13.785   9.181   2.016  1.2601 -0.8811 -0.0498
  121MOL0     H15944  13.847   9.477   1.957 -3.1670  1.3520  1.8025
  121MOL0     H15945  13.859   9.420   2.124  0.5041 -1.3855  0.3926
  121MOL0     H15946  14.075   9.437   1.993  0.2983 -0.4651  0.0654
  121MOL0     H15947  14.020   9.309   1.890 -5.6500  0.0781  0.9813
  121MOL0     H15948  14.147   9.190   2.049  0.4687  1.3117 -0.3382
  121MOL0     H15949  13.989   9.194   2.142 -1.8592  2.0940  1.0689
  121MOL0     H15950  14.211   9.392   2.160 -0.0978 -0.2444 -3.8997
  121MOL0     H15951  14.063   9.385   2.273 -3.8905 -4.7990 -2.0250
  121MOL0     H15952  14.255   9.156   2.243 -2.1559 -0.0996 -1.0734
  121MOL0     H15953  14.123   9.173   2.364  0.9634 -0.0910  1.2752
  121MOL0     H15954  13.464   9.132   1.641  0.9009  1.0417  1.1200
  121MOL0     H15955  13.249   9.039   1.553 -1.7956 -3.5005 -0.0619
  121MOL0     H15956  12.833   8.594   1.719 -3.5114 -2.6642 -1.7496
  121MOL0     H15957  12.651   8.538   1.585 -1.3127 -0.2265  0.2464
  121MOL0     H15958  11.104   8.500   1.812 -2.7032  2.0935 -1.4059
  121MOL0     H15959  10.901   8.424   1.904 -0.8369 -1.7580  0.3586
  121MOL0     H15960  10.589   8.006   1.826  0.4894  0.5445 -0.4628
  121MOL0     H15961  10.399   7.885   1.879  0.4964  0.5840  1.0898
  121MOL0     H15962  10.183   7.818   1.963 -1.6415 -0.4255  0.4621
  121MOL0     H15963  10.166   7.811   1.796 -2.0797  0.3805 -0.7334
  121MOL0     H15964   9.927   7.866   1.785  0.1612 -2.2103 -1.0514
  121MOL0     H15965   9.971   7.713   1.857  3.7338  0.2824  0.0515
  121MOL0     H15966   9.857   7.968   1.979 -1.1362 -0.6790  1.2364
  121MOL0     H15967   9.948   7.865   2.086  0.8885  1.3874  0.6210
  121MOL0     H15968   9.706   7.825   2.104  3.5322  2.1258  0.8461
  121MOL0     H15969   9.696   7.770   1.938  1.1082  0.8075  0.0088
  121MOL0     H15970   9.860   7.415   2.054  1.4892  0.8051 -0.8185
  121MOL0     H15971  10.143   8.219   1.805  0.5633  1.5383  0.7898
  121MOL0     H15972  10.348   8.376   1.799  4.0364  0.9250  0.4362
  122MOL0     O15973   3.231   2.413   6.974 -0.4724 -0.7250  0.2255
  122MOL0     C15974   3.254   2.291   6.961 -0.5564 -0.8247 -0.2266
  122MOL0     O15975   3.164   2.194   6.975 -0.0337 -0.4408  0.3257
  122MOL0     C15976   3.037   2.217   7.030 -0.9697 -0.5466  0.0006
  122MOL0     C15977   3.018   2.199   7.164  0.0292  0.4135  0.4279
  122MOL0     C15978   2.882   2.199   7.215 -0.9720  0.4340 -0.0483
  122MOL0     C15979   2.767   2.236   7.147 -0.4779 -0.5845  1.3256
  122MOL0     O15980   2.638   2.254   7.180  0.2945 -0.0191  1.0098
  122MOL0     C15981   2.613   2.218   7.318 -0.2216  0.1546 -0.0633
  122MOL0     C15982   2.462   2.232   7.335  0.6100  1.2895 -0.3168
  122MOL0     C15983   2.426   2.381   7.315 -0.1442  0.4813 -0.0931
  122MOL0     C15984   2.304   2.434   7.390  0.7764  0.1618 -0.2477
  122MOL0     C15985   2.165   2.393   7.336  0.4800 -0.7983 -0.0520
  122MOL0     C15986   2.056   2.450   7.421 -0.4425 -0.0192  0.5378
  122MOL0     C15987   2.023   2.353   7.535 -0.1534 -0.3102 -0.4113
  122MOL0     C15988   1.909   2.397   7.618 -0.1173 -0.1986 -0.3335
  122MOL0     N15989   1.863   2.294   7.710 -0.0227 -0.2294  0.1726
  122MOL0     C15990   1.759   2.204   7.702  0.2597 -0.3297  1.0500
  122MOL0     C15991   1.760   2.130   7.814 -0.1453 -0.2156 -0.1366
  122MOL0     C15992   1.651   2.031   7.868 -0.6697  0.6165  0.6728
  122MOL0     C15993   1.506   2.081   7.870  0.6018 -0.7065 -0.2902
  122MOL0     C15994   1.492   2.196   7.966  0.6170 -1.2352 -0.0839
  122MOL0     C15995   1.346   2.248   7.984 -0.5716  0.0378 -0.0014
  122MOL0     O15996   1.268   2.171   8.073 -0.0238 -0.4117  0.6761
  122MOL0     C15997   1.128   2.179   8.076  0.6951  0.4787  0.2906
  122MOL0     C15998   1.058   2.081   8.148 -0.4263 -0.1349 -0.4777
  122MOL0     C15999   0.917   2.083   8.161  0.6654 -0.2488 -0.7810
  122MOL0     C16000   0.838   2.191   8.111 -0.4263 -0.0353  0.2906
  122MOL0     C16001   0.697   2.197   8.151  0.4502 -0.2123 -0.4384
  122MOL0     O16002   0.660   2.099   8.246 -0.1284 -0.2904 -0.8801
  122MOL0     C16003   0.537   2.094   8.312 -1.4171  0.1040 -0.0587
  122MOL0     C16004   0.451   2.203   8.325 -0.1085  0.5698 -0.1274
  122MOL0     C16005   0.339   2.178   8.399  0.1785 -0.3136 -0.9575
  122MOL0     C16006   0.308   2.069   8.478 -1.1686  0.2025  0.3534
  122MOL0     O16007   0.187   2.070   8.544  0.1677 -0.1535  0.2805
  122MOL0     C16008   0.187   2.019   8.679 -0.7438  0.6346  0.9326
  122MOL0     C16009   0.096   1.897   8.683 -0.7119 -0.7082  0.3593
  122MOL0     C16010   0.069   1.846   8.826 -0.8440  0.5823  0.2299
  122MOL0     C16011  -0.027   1.733   8.830  0.6033  1.2976  1.1213
  122MOL0     C16012  -0.040   1.675   8.975  0.5498  0.0374  0.1204
  122MOL0     C16013  -0.143   1.554   8.956 -0.5176 -0.0783  0.1759
  122MOL0     C16014  -0.188   1.498   9.090 -0.3548  0.3525 -0.1416
  122MOL0     C16015  -0.274   1.376   9.074  0.0210  0.7023 -0.0695
  122MOL0    Cl16016  -0.373   1.348   9.224  0.3944  0.4486 -0.0013
  122MOL0     C16017   0.401   1.964   8.461  0.7302 -0.7625  0.7396
  122MOL0     C16018   0.509   1.974   8.369 -0.0559  0.8673 -0.6928
  122MOL0     O16019   0.617   2.276   8.099  0.4351 -0.2045 -0.0032
  122MOL0     C16020   0.912   2.284   8.032  1.5070 -0.0866 -0.1112
  122MOL0     C16021   1.051   2.281   8.015 -0.2441 -0.5990  0.2235
  122MOL0     N16022   1.871   2.179   7.892  0.1782  0.7570  0.9421
  122MOL0     N16023   1.925   2.281   7.828 -0.4108  0.6376 -0.0150
  122MOL0     C16024   2.796   2.261   7.010 -0.1052 -0.1570 -0.0205
  122MOL0     C16025   2.931   2.257   6.946  0.1469  0.1566 -0.5175
  122MOL0     C16026   3.387   2.252   6.925  0.6716 -0.0889  0.0059
  122MOL0     C16027   3.496   2.341   6.937 -0.5984 -0.7543 -0.3930
  122MOL0     C16028   3.618   2.308   6.900 -0.0781  0.9097 -0.3576
  122MOL0     C16029   3.637   2.191   6.840  0.1700  0.1459 -0.3149
  122MOL0     O16030   3.753   2.156   6.784 -0.7882  0.1996  0.4007
  122MOL0     C16031   3.861   2.140   6.870  0.6380 -0.2249 -0.3524
  122MOL0     C16032   3.931   2.010   6.842 -0.3621  0.2624  0.6030
  122MOL0     C16033   4.045   1.995   6.936  1.1832 -1.0762  0.7903
  122MOL0     C16034   4.091   1.849   6.942 -0.0771  0.3569 -0.3180
  122MOL0     C16035   4.211   1.821   7.017  0.1780 -0.6922 -0.4682
  122MOL0     C16036   4.312   1.824   7.083  0.2407 -0.1575  0.2197
  122MOL0     C16037   3.538   2.095   6.807 -0.7520 -0.1251 -0.3453
  122MOL0     C16038   3.410   2.125   6.860 -0.8702  0.1600  1.0550
  122MOL0     H16039   3.104   2.178   7.226 -1.3794 -0.8322  2.0841
  122MOL0     H16040   2.866   2.160   7.316  1.1631  0.8157  0.4750
  122MOL0     H16041   2.662   2.290   7.384 -2.3110 -0.5173  2.3990
  122MOL0     H16042   2.641   2.114   7.334  3.2078  1.0363  0.4032
  122MOL0     H16043   2.431   2.192   7.431  2.5674 -1.4205 -0.6963
  122MOL0     H16044   2.415   2.171   7.257  2.0178 -1.1312  0.6504
  122MOL0     H16045   2.410   2.403   7.209 -3.6438 -1.5245 -0.1288
  122MOL0     H16046   2.509   2.447   7.342  0.5066  0.3360 -1.6572
  122MOL0     H16047   2.307   2.414   7.498 -2.4428  2.3756  0.3906
  122MOL0     H16048   2.306   2.543   7.382 -1.9667  0.2340 -1.0611
  122MOL0     H16049   2.146   2.285   7.331 -0.9206 -0.7474  2.5502
  122MOL0     H16050   2.164   2.433   7.235  3.1120 -0.6772 -0.0910
  122MOL0     H16051   1.969   2.454   7.355  1.5036  0.0780 -2.1813
  122MOL0     H16052   2.066   2.555   7.451 -0.9076  0.2769 -0.3128
  122MOL0     H16053   1.993   2.260   7.487 -0.6853 -0.1029 -0.4881
  122MOL0     H16054   2.111   2.341   7.599  0.5132 -2.4922 -1.6420
  122MOL0     H16055   1.821   2.422   7.558 -1.8369 -1.2055  1.6364
  122MOL0     H16056   1.937   2.485   7.676 -1.1355 -1.5570  2.3844
  122MOL0     H16057   1.694   2.205   7.615  0.0822  1.2696  1.1721
  122MOL0     H16058   1.684   1.984   7.962 -1.3179 -1.1604  0.0569
  122MOL0     H16059   1.658   1.951   7.794  2.7493  0.7863  0.6199
  122MOL0     H16060   1.438   1.999   7.895  0.2669  0.5781  3.8716
  122MOL0     H16061   1.488   2.124   7.771  1.8990  2.6508  0.7606
  122MOL0     H16062   1.533   2.164   8.063 -0.2259  1.5215  1.2913
  122MOL0     H16063   1.562   2.274   7.935  1.4538 -1.2542  1.5997
  122MOL0     H16064   1.297   2.237   7.887  0.1523 -0.4918 -0.3188
  122MOL0     H16065   1.325   2.348   8.025 -0.2985  1.0904 -2.2539
  122MOL0     H16066   1.104   1.994   8.194  3.1699  0.6339 -2.2431
  122MOL0     H16067   0.873   1.994   8.205  0.1168  0.8420  0.9514
  122MOL0     H16068   0.480   2.297   8.279  2.7360  0.5585  1.4275
  122MOL0     H16069   0.274   2.261   8.423 -1.4926 -2.1703  1.4608
  122MOL0     H16070   0.127   2.084   8.744 -0.9076  0.3520  1.0660
  122MOL0     H16071   0.289   1.995   8.710 -0.6400 -2.6130 -1.3563
  122MOL0     H16072   0.156   1.819   8.635  0.0464 -1.1640  2.0028
  122MOL0     H16073   0.004   1.920   8.628  0.8729 -0.2239 -2.3220
  122MOL0     H16074   0.018   1.917   8.892  1.5690  3.9184 -1.2378
  122MOL0     H16075   0.159   1.828   8.885 -2.0506  2.6665  2.9709
  122MOL0     H16076  -0.128   1.759   8.797  0.2311 -2.1530 -0.9383
  122MOL0     H16077   0.011   1.647   8.774 -0.2464  0.9657  1.0436
  122MOL0     H16078  -0.081   1.752   9.041  1.2819  0.8288 -0.3128
  122MOL0     H16079   0.056   1.642   9.017  0.1424 -0.9081  0.3181
  122MOL0     H16080  -0.097   1.469   8.905  1.2514  2.1301 -2.1798
  122MOL0     H16081  -0.230   1.588   8.900 -0.4806  1.8468  1.1732
  122MOL0     H16082  -0.115   1.468   9.166  0.5700  1.1314 -0.6908
  122MOL0     H16083  -0.259   1.566   9.137 -2.4756 -2.5263  1.0908
  122MOL0     H16084  -0.212   1.286   9.064 -1.4677 -0.2901 -0.7258
  122MOL0     H16085  -0.339   1.378   8.986 -1.2935  1.0121  0.8826
  122MOL0     H16086   0.379   1.872   8.514 -3.8626 -0.3130  0.0285
  122MOL0     H16087   0.575   1.889   8.358  0.9988  1.4938  0.5092
  122MOL0     H16088   0.850   2.368   8.001 -0.0432 -1.2112 -0.2250
  122MOL0     H16089   1.087   2.363   7.954 -0.8090  1.0735  2.0256
  122MOL0     H16090   2.708   2.281   6.950 -0.4503 -0.5091  0.3542
  122MOL0     H16091   2.948   2.279   6.841  2.5611  0.4919 -0.1158
  122MOL0     H16092   3.482   2.436   6.988  0.6722 -0.6067 -0.2863
  122MOL0     H16093   3.709   2.358   6.933 -0.8295  1.8927  0.2935
  122MOL0     H16094   3.835   2.150   6.975  0.4417  1.9652 -0.5747
  122MOL0     H16095   3.924   2.225   6.844  0.6404 -0.4053 -0.9535
  122MOL0     H16096   3.860   1.931   6.868 -1.0786 -0.3366 -2.7643
  122MOL0     H16097   3.958   2.001   6.737 -2.8896 -0.9530  0.0008
  122MOL0     H16098   4.021   2.032   7.035 -1.2338 -0.9226  0.1923
  122MOL0     H16099   4.130   2.052   6.897 -0.3088 -0.8821 -2.5574
  122MOL0     H16100   4.011   1.784   6.977  0.0977 -0.3919 -1.2520
  122MOL0     H16101   4.115   1.813   6.842  0.3954  0.9257 -0.4147
  122MOL0     H16102   4.402   1.822   7.141  2.1043  0.2936 -2.4535
  122MOL0     H16103   3.564   2.013   6.741 -0.5658  0.7107 -1.3444
  122MOL0     H16104   3.337   2.049   6.833  1.0911 -1.5726  0.3189
  123MOL0     O16105   9.192   0.469   7.818  0.1256 -0.3544  0.8301
  123MOL0     C16106   9.223   0.354   7.811 -0.7392 -0.2137 -0.7621
  123MOL0     O16107   9.157   0.251   7.875 -0.2651 -0.9969 -0.2714
  123MOL0     C16108   9.055   0.289   7.955 -0.6854  0.1298  0.1271
  123MOL0     C16109   9.083   0.349   8.078  0.3118 -0.0400 -0.3646
  123MOL0     C16110   8.980   0.392   8.167  0.3865  0.4139 -0.2105
  123MOL0     C16111   8.846   0.369   8.125 -0.0623  0.4509  0.4952
  123MOL0     O16112   8.750   0.388   8.215 -0.5157  0.4446  0.0052
  123MOL0     C16113   8.603   0.361   8.188 -0.4731  0.0204 -0.0967
  123MOL0     C16114   8.536   0.364   8.327 -0.0446  1.2123  0.5991
  123MOL0     C16115   8.386   0.351   8.325  0.9183 -0.2137  0.1632
  123MOL0     C16116   8.338   0.301   8.462  0.2391 -0.2151  0.6542
  123MOL0     C16117   8.183   0.288   8.491 -0.3005  0.5429  0.5376
  123MOL0     C16118   8.152   0.294   8.634  0.9058  0.3387 -0.5758
  123MOL0     C16119   8.008   0.331   8.662 -0.2917 -0.5268 -0.3145
  123MOL0     C16120   7.926   0.224   8.724 -0.5879  0.0944  0.5702
  123MOL0     N16121   7.895   0.133   8.616  0.4180 -0.4829 -0.6328
  123MOL0     C16122   7.762   0.098   8.594  0.0943 -0.5285 -0.7052
  123MOL0     C16123   7.762   0.003   8.499  0.2154  0.4455 -0.6205
  123MOL0     C16124   7.653  -0.068   8.425  0.2962  0.4326  0.3639
  123MOL0     C16125   7.608   0.014   8.300 -0.5851  1.0817 -1.5282
  123MOL0     C16126   7.487  -0.046   8.236 -0.5453  0.7910 -0.6030
  123MOL0     C16127   7.350  -0.032   8.296  0.2307  0.2395 -0.6466
  123MOL0     O16128   7.333   0.105   8.336  1.0901  0.0359 -0.5027
  123MOL0     C16129   7.216   0.153   8.400 -0.5574 -0.2896 -1.1718
  123MOL0     C16130   7.199   0.292   8.413  0.6348 -0.3859 -0.4753
  123MOL0     C16131   7.090   0.352   8.487 -0.5764 -0.8142  0.7422
  123MOL0     C16132   6.995   0.270   8.543 -0.0994 -0.7278 -0.0275
  123MOL0     C16133   6.887   0.318   8.624  0.3555 -0.9038  0.2228
  123MOL0     O16134   6.778   0.245   8.656  0.0781  0.2115  0.0744
  123MOL0     C16135   6.663   0.293   8.716  0.5637 -0.3094  0.1749
  123MOL0     C16136   6.618   0.429   8.741  0.3692 -0.7771  0.9166
  123MOL0     C16137   6.497   0.453   8.824  0.7551 -0.7215  0.2072
  123MOL0     C16138   6.411   0.356   8.866  0.1065  0.1535 -0.2811
  123MOL0     O16139   6.298   0.386   8.938  0.0103  0.3948 -0.0535
  123MOL0     C16140   6.226   0.281   9.002  0.0663  0.4516 -0.2806
  123MOL0     C16141   6.149   0.367   9.099 -0.4997 -0.3474 -0.6723
  123MOL0     C16142   6.021   0.409   9.031  0.1102  0.2098  0.1820
  123MOL0     C16143   5.935   0.495   9.122 -0.0295 -0.4958  0.3553
  123MOL0     C16144   5.821   0.570   9.052  0.2794  0.5773  0.1844
  123MOL0     C16145   5.723   0.638   9.142 -0.3562 -0.0844 -0.8118
  123MOL0     C16146   5.649   0.552   9.252  0.2584 -0.1467 -0.1262
  123MOL0     C16147   5.511   0.610   9.282  0.0592  0.7823 -1.0982
  123MOL0    Cl16148   5.467   0.522   9.441 -0.2449  0.4667 -0.2607
  123MOL0     C16149   6.455   0.228   8.830 -0.0152 -0.1643 -0.8116
  123MOL0     C16150   6.575   0.196   8.765  0.3047 -0.1548 -0.1271
  123MOL0     O16151   6.909   0.440   8.657 -0.2774  0.0193 -0.3407
  123MOL0     C16152   7.002   0.131   8.520  0.0912  0.2546  0.2836
  123MOL0     C16153   7.114   0.075   8.446 -0.3429  0.4825  0.5008
  123MOL0     N16154   7.898  -0.025   8.474  0.0838  0.4402 -0.2910
  123MOL0     N16155   7.973   0.055   8.543 -0.0426  0.2100  0.1847
  123MOL0     C16156   8.815   0.311   7.993  0.3756 -0.8591  0.3992
  123MOL0     C16157   8.923   0.279   7.915  0.8451  0.1753  0.0602
  123MOL0     C16158   9.351   0.321   7.757  0.6302  1.0145 -0.6435
  123MOL0     C16159   9.366   0.357   7.615 -0.2045  0.3253 -1.6155
  123MOL0     C16160   9.486   0.330   7.554  0.3801 -0.4765  0.4034
  123MOL0     C16161   9.590   0.260   7.620  0.3436  1.0893 -0.6056
  123MOL0     O16162   9.695   0.237   7.539  0.6860 -0.4592 -0.1059
  123MOL0     C16163   9.813   0.193   7.605  0.0751 -0.3654 -0.4856
  123MOL0     C16164   9.907   0.151   7.492 -1.3614 -0.1292 -0.6021
  123MOL0     C16165  10.031   0.066   7.557  0.1017 -0.9372  0.9703
  123MOL0     C16166  10.140   0.070   7.446  0.0922 -1.0603 -0.4210
  123MOL0     C16167  10.254  -0.022   7.473  0.4502 -0.0039 -0.4002
  123MOL0     C16168  10.350  -0.090   7.506 -0.2319 -0.2593 -0.5818
  123MOL0     C16169   9.578   0.226   7.760 -0.2215  0.0656  0.9403
  123MOL0     C16170   9.448   0.244   7.815 -0.2257 -0.7800  0.4049
  123MOL0     H16171   9.188   0.352   8.106 -0.1897 -1.6400  1.9506
  123MOL0     H16172   8.999   0.427   8.268  0.8735 -2.1681  0.6673
  123MOL0     H16173   8.588   0.258   8.155  0.3240 -1.0167  2.4743
  123MOL0     H16174   8.554   0.426   8.116 -1.3806  0.6744  1.0698
  123MOL0     H16175   8.559   0.460   8.376 -0.0790  0.6780  1.6932
  123MOL0     H16176   8.594   0.284   8.374 -1.0415  0.0609 -0.0644
  123MOL0     H16177   8.355   0.285   8.244 -1.8156 -0.4758  1.3113
  123MOL0     H16178   8.341   0.451   8.324 -1.8715 -1.0989  4.6660
  123MOL0     H16179   8.381   0.201   8.458  0.9567  0.0995 -3.0645
  123MOL0     H16180   8.393   0.354   8.541 -0.0301  2.8759 -1.0677
  123MOL0     H16181   8.149   0.197   8.441  0.7038  0.2267  0.4117
  123MOL0     H16182   8.134   0.377   8.448 -0.6883 -0.4820 -1.2315
  123MOL0     H16183   8.222   0.367   8.676  0.6657 -0.0882  0.6030
  123MOL0     H16184   8.176   0.202   8.688 -0.2201  0.8415  0.8574
  123MOL0     H16185   8.003   0.417   8.730 -1.3027  1.7057 -3.0446
  123MOL0     H16186   7.953   0.372   8.577 -2.1390  2.8042  2.2119
  123MOL0     H16187   7.836   0.259   8.775  0.8103  1.1560  2.4387
  123MOL0     H16188   7.993   0.169   8.791  0.7827 -1.9933 -2.2585
  123MOL0     H16189   7.676   0.161   8.609  0.8194  0.1438  0.8552
  123MOL0     H16190   7.567  -0.082   8.492  0.0678 -1.6550 -0.2866
  123MOL0     H16191   7.701  -0.164   8.405 -0.1720  0.2254  0.2159
  123MOL0     H16192   7.695   0.019   8.235 -0.6940  1.3915 -1.6556
  123MOL0     H16193   7.593   0.115   8.340 -2.0123  0.0606  0.7537
  123MOL0     H16194   7.474   0.009   8.143  1.0770  0.2958 -1.1519
  123MOL0     H16195   7.494  -0.153   8.214 -1.8478  0.8329 -1.2625
  123MOL0     H16196   7.351  -0.098   8.383 -2.1131  1.6888  0.5822
  123MOL0     H16197   7.278  -0.078   8.228 -1.3198 -1.6815  2.0825
  123MOL0     H16198   7.270   0.366   8.376 -0.0257 -0.3149 -1.6554
  123MOL0     H16199   7.096   0.458   8.507  1.2167 -0.5547 -0.8852
  123MOL0     H16200   6.673   0.516   8.707  0.3200 -0.8685  0.6010
  123MOL0     H16201   6.483   0.555   8.857 -1.7193 -1.6037  2.1809
  123MOL0     H16202   6.288   0.217   9.064 -2.4279 -1.6437  0.2320
  123MOL0     H16203   6.153   0.233   8.936  0.4523  1.2196 -1.2957
  123MOL0     H16204   6.203   0.449   9.148 -3.6947  1.6759 -0.1984
  123MOL0     H16205   6.111   0.299   9.176 -0.0086  0.5001  0.3476
  123MOL0     H16206   5.972   0.320   8.990  5.0830 -2.8454  0.1271
  123MOL0     H16207   6.058   0.463   8.943  1.6401  0.9143  1.2318
  123MOL0     H16208   5.899   0.434   9.205 -1.7593  0.6532  0.4989
  123MOL0     H16209   6.012   0.568   9.149  1.2554 -1.7990  0.3168
  123MOL0     H16210   5.767   0.491   8.999  0.6447 -0.8629  1.8622
  123MOL0     H16211   5.863   0.630   8.971  1.6630 -2.1444 -1.2733
  123MOL0     H16212   5.648   0.687   9.079 -1.6322 -2.1657 -1.0069
  123MOL0     H16213   5.783   0.723   9.176  1.5278 -1.9305  0.7709
  123MOL0     H16214   5.639   0.450   9.214  2.6596 -1.2475  1.8731
  123MOL0     H16215   5.711   0.540   9.342  1.5930 -0.8543 -1.0956
  123MOL0     H16216   5.449   0.578   9.198  0.1266 -1.9278 -0.2082
  123MOL0     H16217   5.516   0.718   9.297 -2.3181  0.6910  1.0666
  123MOL0     H16218   6.386   0.152   8.868 -3.9347  2.9300 -1.0490
  123MOL0     H16219   6.609   0.095   8.745  4.4187  0.7453  1.3287
  123MOL0     H16220   6.930   0.064   8.566  1.2946 -1.7965 -0.6613
  123MOL0     H16221   7.128  -0.031   8.424 -2.0901  0.1998  0.5654
  123MOL0     H16222   8.718   0.299   7.946  0.9671 -2.9198 -0.3990
  123MOL0     H16223   8.900   0.237   7.818  0.6517  1.6748 -0.5574
  123MOL0     H16224   9.283   0.402   7.562 -1.8006 -0.2319  0.2921
  123MOL0     H16225   9.498   0.378   7.458 -2.7362  0.8689  0.5488
  123MOL0     H16226   9.801   0.105   7.667 -1.6578  0.7017  0.7820
  123MOL0     H16227   9.861   0.279   7.654 -2.0884  0.0255  1.0831
  123MOL0     H16228   9.844   0.085   7.430 -5.0730 -1.6500  4.1286
  123MOL0     H16229   9.941   0.241   7.441  3.5066  0.1600  2.4863
  123MOL0     H16230   9.995  -0.035   7.578 -0.9153 -0.7668  0.1156
  123MOL0     H16231  10.062   0.111   7.652 -1.5516 -2.6499  2.3929
  123MOL0     H16232  10.094   0.033   7.353 -0.3756 -0.8592 -0.2724
  123MOL0     H16233  10.173   0.170   7.415  3.1824 -1.7430  0.3361
  123MOL0     H16234  10.433  -0.142   7.548  0.1637  1.4229  0.8109
  123MOL0     H16235   9.661   0.188   7.819 -0.7746 -1.7222  0.6288
  123MOL0     H16236   9.416   0.214   7.914 -2.4347  1.2949  0.4157
  124MOL0     O16237   3.510   0.048   3.340  0.6530  0.5382  0.7579
  124MOL0     C16238   3.562   0.078   3.234  0.3805 -0.5289  0.0588
  124MOL0     O16239   3.493   0.115   3.121  0.3328 -0.8094  0.6242
  124MOL0     C16240   3.362   0.079   3.105  0.6332  0.1638 -1.0443
  124MOL0     C16241   3.312  -0.055   3.143  0.3416 -0.2967 -0.1626
  124MOL0     C16242   3.181  -0.089   3.106 -0.1741 -0.4010  0.0895
  124MOL0     C16243   3.098  -0.006   3.038  1.5852 -0.2805  0.2293
  124MOL0     O16244   2.977  -0.060   2.990  0.5167  0.9182  0.1966
  124MOL0     C16245   2.854   0.017   2.955 -0.0160  0.8348  0.3267
  124MOL0     C16246   2.737  -0.072   2.920 -0.0268  0.3155 -0.4892
  124MOL0     C16247   2.602   0.004   2.932 -0.3433  0.5893  0.4575
  124MOL0     C16248   2.469  -0.074   2.891 -0.8186  0.2171  0.1296
  124MOL0     C16249   2.339   0.006   2.908 -0.8932  0.3653 -0.1653
  124MOL0     C16250   2.330   0.124   2.807  1.4926  0.6625  0.6103
  124MOL0     C16251   2.219   0.221   2.847  0.3134  0.0465  0.7852
  124MOL0     C16252   2.203   0.331   2.761  0.4835  0.4096 -0.2334
  124MOL0     N16253   2.088   0.410   2.788 -0.4316  0.5098  0.6780
  124MOL0     C16254   1.969   0.383   2.726  0.3325  0.1899  0.1431
  124MOL0     C16255   1.904   0.501   2.737 -0.5168  0.5131  0.0446
  124MOL0     C16256   1.775   0.523   2.671 -0.7952  0.1024  0.3186
  124MOL0     C16257   1.664   0.431   2.722 -1.1816  0.6147  0.8615
  124MOL0     C16258   1.532   0.487   2.685  0.5464 -0.0461  1.6043
  124MOL0     C16259   1.429   0.378   2.728  1.0627  0.3538  0.1619
  124MOL0     O16260   1.422   0.277   2.631  0.5206  0.1253  0.2820
  124MOL0     C16261   1.348   0.279   2.518 -0.7659 -0.4003 -1.0017
  124MOL0     C16262   1.352   0.167   2.430  0.1444 -0.4679 -0.7670
  124MOL0     C16263   1.272   0.171   2.315 -0.2673  0.2883 -0.7637
  124MOL0     C16264   1.190   0.280   2.284  0.2322 -0.4776 -1.1740
  124MOL0     C16265   1.098   0.277   2.167  0.1525  0.4482 -0.0283
  124MOL0     O16266   1.119   0.168   2.087 -0.7147  0.3514 -1.1199
  124MOL0     C16267   1.046   0.149   1.979  0.8010 -0.2767  0.9923
  124MOL0     C16268   0.911   0.140   1.993  0.4182 -0.3103  0.6689
  124MOL0     C16269   0.826   0.135   1.882  0.2680  0.3048 -0.8135
  124MOL0     C16270   0.883   0.140   1.750  0.4140  0.3755 -0.3956
  124MOL0     O16271   0.812   0.146   1.632  0.0073 -0.1121 -0.1586
  124MOL0     C16272   0.667   0.151   1.641  0.0291  0.3969  0.8783
  124MOL0     C16273   0.633   0.122   1.492 -0.2562  0.2159  0.1817
  124MOL0     C16274   0.488   0.145   1.462 -0.3188 -0.0907 -0.0853
  124MOL0     C16275   0.398   0.040   1.525  0.3217  0.1874 -0.9263
  124MOL0     C16276   0.255   0.030   1.461 -0.5563 -1.0468 -0.7981
  124MOL0     C16277   0.181   0.162   1.450  0.3960  0.0917 -0.6962
  124MOL0     C16278   0.077   0.150   1.341 -0.4937 -0.2770  0.2716
  124MOL0     C16279  -0.047   0.076   1.383 -0.2382  0.2645 -0.4811
  124MOL0    Cl16280  -0.014  -0.094   1.415 -0.0518  0.1119  0.3226
  124MOL0     C16281   1.020   0.144   1.740 -0.8218  0.9810 -0.7600
  124MOL0     C16282   1.100   0.143   1.849 -1.6005 -0.6725 -0.1301
  124MOL0     O16283   1.003   0.353   2.163 -0.5777 -0.2712 -0.1728
  124MOL0     C16284   1.187   0.391   2.372  0.9764  0.4359  0.3300
  124MOL0     C16285   1.271   0.395   2.486  0.4028 -0.7775 -0.4635
  124MOL0     N16286   1.987   0.589   2.808  0.0759  0.2685 -0.5163
  124MOL0     N16287   2.096   0.533   2.844  0.2036 -0.0042  0.9226
  124MOL0     C16288   3.141   0.126   3.006  0.8285  0.1757 -0.9587
  124MOL0     C16289   3.273   0.166   3.037  0.0487 -0.1944 -0.8950
  124MOL0     C16290   3.706   0.075   3.218  0.3668 -0.2322  0.5115
  124MOL0     C16291   3.787   0.028   3.320  0.0033  0.6651  0.2713
  124MOL0     C16292   3.924   0.011   3.311 -0.8773 -0.3916  0.2686
  124MOL0     C16293   3.990   0.051   3.196 -0.0151 -0.0478  0.0428
  124MOL0     O16294   4.128   0.043   3.170 -0.3157  0.3328  0.0922
  124MOL0     C16295   4.210   0.056   3.287  0.2093 -0.5205 -0.2918
  124MOL0     C16296   4.211   0.200   3.340 -0.8972  0.3640 -0.4753
  124MOL0     C16297   4.339   0.235   3.425  0.2082 -0.2005 -0.2747
  124MOL0     C16298   4.390   0.133   3.531  0.0391 -0.2743  1.0539
  124MOL0     C16299   4.280   0.083   3.611 -0.9974  0.0564  0.7169
  124MOL0     C16300   4.187   0.039   3.673  0.5063 -0.7731 -0.2395
  124MOL0     C16301   3.913   0.101   3.090  0.1249 -0.0240 -0.4261
  124MOL0     C16302   3.774   0.098   3.099  0.0272  0.1190 -0.8462
  124MOL0     H16303   3.390  -0.118   3.185  1.0362 -0.2736 -1.3788
  124MOL0     H16304   3.137  -0.185   3.132 -2.1667 -0.0861 -1.7690
  124MOL0     H16305   2.877   0.087   2.875  1.7284  0.9106  0.8506
  124MOL0     H16306   2.834   0.079   3.043 -1.2978  0.9048 -0.0047
  124MOL0     H16307   2.737  -0.153   2.994  0.4462  1.5401  0.8836
  124MOL0     H16308   2.756  -0.110   2.819  3.4675  1.4586 -0.3669
  124MOL0     H16309   2.603   0.099   2.878 -1.0481 -0.3413 -1.2688
  124MOL0     H16310   2.590   0.030   3.037 -1.4297  0.4910  0.3715
  124MOL0     H16311   2.469  -0.126   2.795  0.3220  0.2643  0.0872
  124MOL0     H16312   2.468  -0.156   2.963  3.0276 -3.2897 -3.2828
  124MOL0     H16313   2.335   0.040   3.011 -0.0596 -0.9095  0.3166
  124MOL0     H16314   2.252  -0.056   2.884 -0.5427  0.5863 -2.2134
  124MOL0     H16315   2.313   0.082   2.707  0.8099  1.2705  0.4677
  124MOL0     H16316   2.420   0.186   2.805 -0.1955  3.2872 -1.9023
  124MOL0     H16317   2.123   0.169   2.858  0.4236 -0.3831 -0.2507
  124MOL0     H16318   2.252   0.269   2.940 -1.3356 -1.7632  2.4184
  124MOL0     H16319   2.200   0.289   2.660  1.1306  0.9030 -0.4645
  124MOL0     H16320   2.297   0.388   2.765  0.0408  1.6483 -3.9128
  124MOL0     H16321   1.926   0.297   2.676 -3.4595 -0.5373  4.0176
  124MOL0     H16322   1.784   0.505   2.563  0.2423 -0.9617  0.5629
  124MOL0     H16323   1.748   0.626   2.693 -0.7289  0.5260 -1.4259
  124MOL0     H16324   1.676   0.421   2.830  0.3113 -3.3466  0.5291
  124MOL0     H16325   1.678   0.331   2.679 -1.4502  0.4909  1.0583
  124MOL0     H16326   1.505   0.574   2.745  1.8018  1.4161  0.1481
  124MOL0     H16327   1.526   0.494   2.576 -0.6789  0.1928  1.6709
  124MOL0     H16328   1.330   0.422   2.743  0.7030 -0.2980 -0.2614
  124MOL0     H16329   1.459   0.340   2.826 -0.9152  2.3681  1.6547
  124MOL0     H16330   1.410   0.077   2.448  1.5052  0.7305  1.3150
  124MOL0     H16331   1.284   0.080   2.256  0.2206 -1.0332  1.2892
  124MOL0     H16332   0.871   0.159   2.092  2.0052  2.3273  0.8995
  124MOL0     H16333   0.719   0.147   1.897  0.3821 -0.0620  0.4342
  124MOL0     H16334   0.620   0.244   1.671 -3.0146 -1.2503  1.6533
  124MOL0     H16335   0.632   0.066   1.700  0.8300  0.2515  1.1561
  124MOL0     H16336   0.658   0.018   1.467 -0.8483 -0.4512  2.2326
  124MOL0     H16337   0.687   0.185   1.421  0.9111 -1.5717 -0.5994
  124MOL0     H16338   0.471   0.137   1.354 -2.2206  0.4264  0.1422
  124MOL0     H16339   0.464   0.247   1.490 -0.3271  0.6280 -2.4857
  124MOL0     H16340   0.447  -0.057   1.515  1.0159  0.3439  0.6583
  124MOL0     H16341   0.392   0.056   1.633  0.7295  1.2273 -1.0478
  124MOL0     H16342   0.200  -0.039   1.524 -2.1478  0.9133  0.0597
  124MOL0     H16343   0.260  -0.010   1.359 -5.5953  0.3129 -1.8228
  124MOL0     H16344   0.254   0.239   1.421 -0.1882  1.6285  1.7007
  124MOL0     H16345   0.150   0.216   1.539  2.2782  5.9202 -3.0906
  124MOL0     H16346   0.035   0.244   1.305  0.3225  0.5519  1.4154
  124MOL0     H16347   0.118   0.116   1.245 -0.2700 -1.0807  0.6456
  124MOL0     H16348  -0.118   0.072   1.299 -0.7393 -0.6381 -0.0234
  124MOL0     H16349  -0.098   0.123   1.468 -0.0264 -3.8063  2.1649
  124MOL0     H16350   1.065   0.137   1.641 -0.3222  3.2481 -0.7419
  124MOL0     H16351   1.209   0.144   1.840 -1.2934 -2.7189  2.3234
  124MOL0     H16352   1.115   0.472   2.367  1.4813  0.8755  0.2014
  124MOL0     H16353   1.247   0.471   2.559 -3.0969 -1.3432 -0.8461
  124MOL0     H16354   3.066   0.199   2.975 -0.1745 -0.0015  0.8999
  124MOL0     H16355   3.303   0.268   3.016 -2.5472  1.3484  1.9407
  124MOL0     H16356   3.736  -0.009   3.408 -0.1146 -0.6274 -0.3252
  124MOL0     H16357   3.979  -0.031   3.395 -2.5039 -0.6799  1.2250
  124MOL0     H16358   4.314   0.037   3.257  0.2637  1.1233 -1.2358
  124MOL0     H16359   4.183  -0.017   3.364 -1.4048  2.3211  2.0510
  124MOL0     H16360   4.213   0.272   3.258  0.6928  2.2685  1.1374
  124MOL0     H16361   4.114   0.217   3.388 -0.2506 -1.0438  1.4419
  124MOL0     H16362   4.328   0.330   3.478 -2.0146 -1.2186  1.2119
  124MOL0     H16363   4.429   0.239   3.362  1.9213  1.8696  2.1114
  124MOL0     H16364   4.449   0.051   3.488  1.6917  0.6522  1.4661
  124MOL0     H16365   4.449   0.186   3.606 -1.7505  0.3474  2.0854
  124MOL0     H16366   4.116  -0.016   3.731 -2.3657  2.0428 -0.8243
  124MOL0     H16367   3.955   0.132   2.995  0.0052 -1.4208 -0.9496
  124MOL0     H16368   3.717   0.140   3.016 -0.8204  0.2932 -0.1904
  125MOL0     O16369   2.509   0.950   0.042 -0.0981 -0.1112 -0.3107
  125MOL0     C16370   2.431   1.027  -0.022  0.8595 -0.5213 -0.3497
  125MOL0     O16371   2.420   1.036  -0.158  0.7538  0.2925  0.7712
  125MOL0     C16372   2.478   0.942  -0.247  0.6015 -0.1912 -0.6277
  125MOL0     C16373   2.482   0.983  -0.383 -0.2957 -0.8106  0.4306
  125MOL0     C16374   2.534   0.896  -0.485 -0.0176  0.5148 -0.5724
  125MOL0     C16375   2.599   0.773  -0.447  0.2041  0.2558  0.3834
  125MOL0     O16376   2.669   0.687  -0.532 -0.1955 -0.1085  0.6952
  125MOL0     C16377   2.722   0.738  -0.654 -0.7670 -0.1033  0.0326
  125MOL0     C16378   2.852   0.673  -0.692  0.7886  0.3280 -0.4360
  125MOL0     C16379   2.971   0.729  -0.615 -0.5813 -0.7038  0.4461
  125MOL0     C16380   3.061   0.622  -0.562 -0.5238 -0.8651  0.3109
  125MOL0     C16381   3.194   0.678  -0.506 -0.2453  0.0331 -0.1696
  125MOL0     C16382   3.269   0.583  -0.409 -0.6399  0.6725  0.5565
  125MOL0     C16383   3.264   0.437  -0.461 -0.4344 -0.7770 -0.3964
  125MOL0     C16384   3.363   0.343  -0.383 -0.6232 -0.2706 -0.7630
  125MOL0     N16385   3.392   0.219  -0.461  0.2184 -0.3926  0.3093
  125MOL0     C16386   3.501   0.144  -0.459  0.3060 -0.0360 -0.0514
  125MOL0     C16387   3.477   0.037  -0.537 -1.0257  0.1896  0.2598
  125MOL0     C16388   3.575  -0.073  -0.570  0.3630  0.2750  0.5026
  125MOL0     C16389   3.645  -0.071  -0.705 -0.9984  0.2207 -0.2978
  125MOL0     C16390   3.712  -0.203  -0.729  0.0300  0.3514 -0.8152
  125MOL0     C16391   3.821  -0.225  -0.624 -0.3522 -0.4116  0.2244
  125MOL0     O16392   3.920  -0.304  -0.688 -0.1362 -0.1706  0.4193
  125MOL0     C16393   4.039  -0.329  -0.638 -0.2737  1.2300  0.5471
  125MOL0     C16394   4.081  -0.304  -0.510 -1.7606 -1.5638 -0.6842
  125MOL0     C16395   4.212  -0.338  -0.467  0.3911  0.1281 -0.5214
  125MOL0     C16396   4.297  -0.394  -0.565  0.4520 -1.4447  0.2879
  125MOL0     C16397   4.447  -0.424  -0.536  0.1535  0.7565 -0.0232
  125MOL0     O16398   4.521  -0.515  -0.625 -0.0522 -0.0759  0.3227
  125MOL0     C16399   4.648  -0.573  -0.601 -0.4726  0.5803 -0.1937
  125MOL0     C16400   4.707  -0.621  -0.717  0.0436 -0.0989  1.1624
  125MOL0     C16401   4.824  -0.708  -0.708  0.7066  0.4043  0.4878
  125MOL0     C16402   4.885  -0.727  -0.583  0.2408  0.0882  0.0382
  125MOL0     O16403   4.998  -0.813  -0.572 -0.4229 -0.0935  0.1766
  125MOL0     C16404   4.962  -0.936  -0.508 -0.2849 -0.0189 -0.3891
  125MOL0     C16405   5.087  -1.024  -0.531  0.3186 -0.4560 -0.2868
  125MOL0     C16406   5.084  -1.170  -0.487 -0.0588 -0.1277  0.2466
  125MOL0     C16407   4.992  -1.256  -0.576  0.7415 -0.3759 -0.2217
  125MOL0     C16408   4.967  -1.392  -0.542  0.3805 -0.1173 -0.5653
  125MOL0     C16409   4.919  -1.472  -0.666 -0.1485 -0.6033 -0.4917
  125MOL0     C16410   4.921  -1.624  -0.621 -0.0103  0.3551 -1.1446
  125MOL0     C16411   4.852  -1.726  -0.719 -0.6344  0.6527  0.5354
  125MOL0    Cl16412   4.680  -1.681  -0.711 -0.1136  0.0747 -0.2317
  125MOL0     C16413   4.828  -0.674  -0.472 -0.9193 -0.8981 -0.5441
  125MOL0     C16414   4.714  -0.584  -0.475  0.2009  0.1301  0.1365
  125MOL0     O16415   4.492  -0.362  -0.440 -0.1038  0.4535 -0.9102
  125MOL0     C16416   4.257  -0.419  -0.698 -0.9793  0.3231  0.4842
  125MOL0     C16417   4.127  -0.395  -0.731 -0.3157 -0.8023  0.4531
  125MOL0     N16418   3.346   0.045  -0.575 -1.2766  0.0726 -0.4778
  125MOL0     N16419   3.298   0.151  -0.529 -0.5436 -0.3100  0.3377
  125MOL0     C16420   2.590   0.737  -0.312  0.1897  0.2563 -0.4720
  125MOL0     C16421   2.530   0.811  -0.218 -0.9844  0.1648  0.6108
  125MOL0     C16422   2.349   1.116   0.065  0.1607  0.5949  0.7518
  125MOL0     C16423   2.277   1.220   0.009 -0.4350  0.0585  0.6785
  125MOL0     C16424   2.207   1.310   0.092  0.4036 -0.4654  1.2455
  125MOL0     C16425   2.202   1.303   0.226 -0.9826  0.5960  0.4956
  125MOL0     O16426   2.140   1.402   0.301  0.1684  0.3173  0.4785
  125MOL0     C16427   2.179   1.437   0.429 -0.1336 -0.2482 -0.0379
  125MOL0     C16428   2.064   1.484   0.506 -0.6795  0.1579 -0.4161
  125MOL0     C16429   2.104   1.552   0.634 -1.2752  0.0501 -0.2367
  125MOL0     C16430   2.001   1.657   0.692  0.1270 -0.8385  0.6986
  125MOL0     C16431   1.882   1.599   0.744 -0.3904 -0.6410  0.7425
  125MOL0     C16432   1.795   1.527   0.794 -0.6275  0.0184  0.2151
  125MOL0     C16433   2.257   1.191   0.277 -0.6217  0.2683  0.4562
  125MOL0     C16434   2.335   1.101   0.202 -0.2789 -0.2120 -0.3742
  125MOL0     H16435   2.448   1.082  -0.412  3.2318 -0.4199 -3.2064
  125MOL0     H16436   2.536   0.922  -0.590 -0.9532 -2.4676 -1.4208
  125MOL0     H16437   2.752   0.844  -0.655 -1.6483  0.1566 -0.1216
  125MOL0     H16438   2.646   0.712  -0.728 -2.8378  0.3560  1.9193
  125MOL0     H16439   2.869   0.684  -0.800  1.6990 -1.9503 -0.5817
  125MOL0     H16440   2.844   0.569  -0.660 -0.2047  0.6219  0.3546
  125MOL0     H16441   2.949   0.798  -0.533  3.5044  0.9184  0.4306
  125MOL0     H16442   3.036   0.786  -0.681  0.4773 -2.7635 -0.4024
  125MOL0     H16443   3.009   0.575  -0.479  3.1691 -2.6634  1.8621
  125MOL0     H16444   3.081   0.552  -0.644  0.6555  0.5992 -0.7253
  125MOL0     H16445   3.179   0.774  -0.455 -6.0908  0.5356 -2.0083
  125MOL0     H16446   3.261   0.702  -0.590  0.5972 -3.0557 -0.5053
  125MOL0     H16447   3.214   0.570  -0.315 -3.1352  1.8695 -0.6378
  125MOL0     H16448   3.367   0.627  -0.388 -0.9727  1.5711  0.2782
  125MOL0     H16449   3.159   0.405  -0.457 -0.8835  0.4846  4.6288
  125MOL0     H16450   3.298   0.434  -0.565  0.5618 -0.3570 -0.0936
  125MOL0     H16451   3.339   0.336  -0.276 -1.6056  0.2007 -0.9459
  125MOL0     H16452   3.456   0.401  -0.378  1.4280 -3.1391 -2.8144
  125MOL0     H16453   3.589   0.174  -0.403  0.6999 -0.9030 -0.1859
  125MOL0     H16454   3.510  -0.160  -0.557 -2.7891  2.1719 -1.2279
  125MOL0     H16455   3.647  -0.069  -0.487 -0.1712 -0.1347  0.9963
  125MOL0     H16456   3.712   0.015  -0.705 -0.6950  0.2079 -4.5308
  125MOL0     H16457   3.571  -0.048  -0.783 -0.3762 -0.5532 -1.1473
  125MOL0     H16458   3.638  -0.281  -0.711 -1.0073  1.0972 -1.7196
  125MOL0     H16459   3.748  -0.218  -0.831 -0.8554  0.5266 -1.1665
  125MOL0     H16460   3.786  -0.259  -0.526  2.1601 -1.2370  0.9212
  125MOL0     H16461   3.866  -0.129  -0.598  0.3406  0.0196 -2.2731
  125MOL0     H16462   4.017  -0.255  -0.438  0.7280  1.5656 -0.3724
  125MOL0     H16463   4.255  -0.321  -0.369  3.1306  0.6453 -1.7340
  125MOL0     H16464   4.662  -0.608  -0.815  1.7580  0.4910  0.4203
  125MOL0     H16465   4.866  -0.758  -0.795  0.3531  0.1070  0.4868
  125MOL0     H16466   4.875  -0.976  -0.560  0.9814 -0.4776 -2.2453
  125MOL0     H16467   4.946  -0.912  -0.402 -0.4103  1.4152 -0.7077
  125MOL0     H16468   5.172  -0.978  -0.481  2.2242 -3.5409 -0.3934
  125MOL0     H16469   5.112  -1.013  -0.636  0.6827 -2.0315 -0.3982
  125MOL0     H16470   5.066  -1.185  -0.381  4.9014  1.9841  1.6959
  125MOL0     H16471   5.186  -1.206  -0.505  0.2773  1.5426 -1.6526
  125MOL0     H16472   4.892  -1.213  -0.571 -0.8640 -3.8306 -0.2145
  125MOL0     H16473   5.032  -1.251  -0.678 -1.1239  4.5858 -1.0178
  125MOL0     H16474   4.889  -1.397  -0.466 -0.4765  1.4508 -1.3054
  125MOL0     H16475   5.060  -1.438  -0.505  1.3842 -0.3577 -3.2066
  125MOL0     H16476   4.990  -1.467  -0.749 -0.9098  0.4014 -1.1013
  125MOL0     H16477   4.818  -1.453  -0.704 -0.1271  0.6562  0.0352
  125MOL0     H16478   5.028  -1.648  -0.614 -0.2819 -0.6227 -0.0554
  125MOL0     H16479   4.878  -1.637  -0.521  0.7924  0.8100 -0.7249
  125MOL0     H16480   4.866  -1.831  -0.692 -1.5240  0.6530  1.0433
  125MOL0     H16481   4.884  -1.719  -0.823  0.4373 -1.8327  0.6374
  125MOL0     H16482   4.879  -0.696  -0.379  1.3024  0.0883 -1.4463
  125MOL0     H16483   4.677  -0.551  -0.379 -0.8016 -1.8381  0.4923
  125MOL0     H16484   4.330  -0.465  -0.764 -0.1599 -0.4597  1.8958
  125MOL0     H16485   4.090  -0.437  -0.824  1.7540  0.3833 -0.9767
  125MOL0     H16486   2.640   0.647  -0.280 -3.8502 -1.6400  1.1110
  125MOL0     H16487   2.526   0.777  -0.115 -0.4237  1.8163  1.2068
  125MOL0     H16488   2.271   1.236  -0.098 -0.4815 -0.1536  0.6490
  125MOL0     H16489   2.143   1.387   0.051 -0.8499 -2.2664 -0.3232
  125MOL0     H16490   2.254   1.516   0.416  1.6495 -2.0575 -1.3474
  125MOL0     H16491   2.224   1.349   0.476 -2.3988 -0.8501  1.1016
  125MOL0     H16492   2.014   1.553   0.437  0.8938  1.8834  0.0721
  125MOL0     H16493   2.007   1.396   0.535  2.1007 -0.4123  4.4773
  125MOL0     H16494   2.198   1.601   0.608 -1.5169  0.1649 -0.9255
  125MOL0     H16495   2.129   1.483   0.715 -2.6717  1.2243  1.2722
  125MOL0     H16496   2.040   1.717   0.774  1.5475 -0.4960 -0.1926
  125MOL0     H16497   1.975   1.716   0.604  1.4070 -2.1411 -0.6109
  125MOL0     H16498   1.747   1.451   0.853  0.3094 -1.7188 -1.1620
  125MOL0     H16499   2.240   1.162   0.381 -0.2154 -3.0041 -0.2885
  125MOL0     H16500   2.381   1.012   0.244  1.7875  1.6832  1.6878
  126MOL0     O16501   2.326   5.684   9.671  0.3410 -0.5723 -0.5038
  126MOL0     C16502   2.427   5.620   9.628  0.0471 -0.6098 -0.4417
  126MOL0     O16503   2.437   5.486   9.619  0.0150  0.0795  0.1595
  126MOL0     C16504   2.335   5.398   9.654 -0.9977  0.3270 -0.6257
  126MOL0     C16505   2.291   5.324   9.548 -0.2059  0.1363 -0.7934
  126MOL0     C16506   2.168   5.255   9.557  0.0300 -0.1193 -0.1195
  126MOL0     C16507   2.098   5.250   9.678 -0.6624  0.2673  0.5070
  126MOL0     O16508   1.982   5.175   9.681 -0.4989 -1.1185  0.4484
  126MOL0     C16509   1.919   5.169   9.805  0.0759  0.3131 -0.7081
  126MOL0     C16510   1.801   5.072   9.802  0.0726 -0.0153 -0.1733
  126MOL0     C16511   1.738   5.060   9.934 -0.3788  0.6345  0.6395
  126MOL0     C16512   1.637   4.949   9.937  0.0384 -0.3477  0.3249
  126MOL0     C16513   1.584   4.910  10.077  0.1172 -0.1634  0.1523
  126MOL0     C16514   1.692   4.839  10.160  0.5044  0.1352 -0.5546
  126MOL0     C16515   1.656   4.828  10.314 -0.3131  0.0145 -0.0240
  126MOL0     C16516   1.744   4.721  10.389 -0.7285  0.1413 -0.4149
  126MOL0     N16517   1.880   4.763  10.411  0.4935 -0.1487  0.4144
  126MOL0     C16518   1.916   4.899  10.417  0.6380 -0.2895  0.1452
  126MOL0     C16519   2.048   4.903  10.402 -0.2591 -0.4075  0.6728
  126MOL0     C16520   2.138   5.024  10.413  0.1539 -0.9110  0.1888
  126MOL0     C16521   2.102   5.139  10.316  0.6396 -0.2422 -1.2054
  126MOL0     C16522   2.173   5.266  10.370  0.3336 -0.1723 -0.2495
  126MOL0     C16523   2.318   5.260  10.384 -0.4505  0.4671 -0.4147
  126MOL0     O16524   2.378   5.357  10.298 -0.4175  0.2869  0.2020
  126MOL0     C16525   2.500   5.410  10.313  0.5206 -0.7427 -0.2890
  126MOL0     C16526   2.551   5.479  10.202  0.6048 -0.4426  0.1743
  126MOL0     C16527   2.683   5.533  10.203  0.3959  0.5588  0.5232
  126MOL0     C16528   2.765   5.521  10.319  0.7941 -0.3729 -0.0353
  126MOL0     C16529   2.899   5.569  10.332 -0.6728  0.4303 -0.4722
  126MOL0     O16530   2.976   5.544  10.442 -0.2617 -1.0234  0.7098
  126MOL0     C16531   3.099   5.606  10.444  0.4753  0.7999 -0.3558
  126MOL0     C16532   3.205   5.523  10.476  0.9154  1.1862 -0.2919
  126MOL0     C16533   3.321   5.585  10.498 -0.2190 -0.5434  0.0593
  126MOL0     C16534   3.351   5.717  10.471  1.0738 -0.0771 -0.5631
  126MOL0     O16535   3.469   5.775  10.491 -0.6346 -0.8567 -0.3133
  126MOL0     C16536   3.566   5.742  10.595  0.0815  0.0409 -0.0467
  126MOL0     C16537   3.670   5.852  10.605 -0.2778 -0.0682 -0.5785
  126MOL0     C16538   3.746   5.875  10.468  0.0844 -0.3513 -0.7586
  126MOL0     C16539   3.871   5.960  10.497  0.1952  0.0933  0.4519
  126MOL0     C16540   3.977   5.963  10.385  0.2144  0.2776 -0.1989
  126MOL0     C16541   4.115   6.012  10.437  0.1856  0.4769  0.4818
  126MOL0     C16542   4.189   5.902  10.512  0.1285 -0.1079 -0.2882
  126MOL0     C16543   4.259   5.939  10.646  0.3446 -0.6301 -0.5495
  126MOL0    Cl16544   4.355   5.801  10.720  0.3522  0.3543  0.4517
  126MOL0     C16545   3.251   5.791  10.432  0.6398 -0.4009  0.2967
  126MOL0     C16546   3.121   5.743  10.411 -1.0336 -0.1726 -0.5838
  126MOL0     O16547   2.939   5.634  10.232  0.2709  0.1764 -0.0312
  126MOL0     C16548   2.708   5.453  10.425  0.3708 -0.6990 -0.1047
  126MOL0     C16549   2.579   5.393  10.421 -0.1409  0.1434  1.0537
  126MOL0     N16550   2.082   4.771  10.370 -0.5885 -0.1901  0.9669
  126MOL0     N16551   1.989   4.688  10.381  0.5749 -0.6218 -0.0426
  126MOL0     C16552   2.147   5.331   9.786  0.6132 -0.1925  0.6161
  126MOL0     C16553   2.270   5.391   9.772 -0.4501 -0.1578  1.0561
  126MOL0     C16554   2.539   5.699   9.594 -0.3022 -0.5781 -0.1014
  126MOL0     C16555   2.536   5.845   9.608 -0.2968 -0.1121 -0.0892
  126MOL0     C16556   2.644   5.915   9.568  0.0798  0.2524  0.3264
  126MOL0     C16557   2.767   5.856   9.522 -1.2735 -0.3823  0.1257
  126MOL0     O16558   2.862   5.952   9.505 -0.2696  0.5252  0.3260
  126MOL0     C16559   2.917   5.950   9.376  0.2671 -0.8086  0.3756
  126MOL0     C16560   3.053   6.018   9.371  0.5161  0.1081  0.1928
  126MOL0     C16561   3.154   5.906   9.385  0.3028  0.1383  0.0161
  126MOL0     C16562   3.302   5.950   9.424 -0.1979  0.3353 -0.5618
  126MOL0     C16563   3.298   6.024   9.547 -0.2542 -0.3107  0.7230
  126MOL0     C16564   3.305   6.094   9.650 -0.3436 -0.0326 -0.0437
  126MOL0     C16565   2.770   5.717   9.500  0.2952 -0.0286 -0.4189
  126MOL0     C16566   2.657   5.642   9.544  0.3944 -0.9109  0.4759
  126MOL0     H16567   2.337   5.325   9.450 -3.0554  1.9395 -2.2675
  126MOL0     H16568   2.121   5.202   9.474  2.0101 -1.8021 -0.2677
  126MOL0     H16569   1.893   5.272   9.830  2.7627  0.3317  2.8732
  126MOL0     H16570   1.984   5.126   9.883 -1.1328 -2.1360 -0.9582
  126MOL0     H16571   1.835   4.971   9.776  3.5667  0.5464  1.5105
  126MOL0     H16572   1.723   5.107   9.735  0.1956 -0.7195 -0.6872
  126MOL0     H16573   1.694   5.153   9.971 -2.5349 -0.4804  1.0423
  126MOL0     H16574   1.823   5.034   9.998  0.2296 -3.7752 -1.5315
  126MOL0     H16575   1.553   4.986   9.878  1.5373  0.8065 -1.2038
  126MOL0     H16576   1.686   4.872   9.877  1.8363  2.8514 -2.6784
  126MOL0     H16577   1.502   4.839  10.070  1.3151 -1.8019  1.7250
  126MOL0     H16578   1.552   5.008  10.116  2.5339  1.6838 -2.0912
  126MOL0     H16579   1.781   4.902  10.154 -0.4726  1.8648  1.4784
  126MOL0     H16580   1.714   4.741  10.118  2.9954  1.1898 -1.9117
  126MOL0     H16581   1.649   4.926  10.361  3.5428  1.0268 -1.1768
  126MOL0     H16582   1.553   4.793  10.315 -0.3925  0.0857 -1.7375
  126MOL0     H16583   1.733   4.625  10.337 -0.9345  0.6987 -1.4396
  126MOL0     H16584   1.697   4.700  10.485 -2.2247  0.3975 -1.0606
  126MOL0     H16585   1.852   4.985  10.430 -2.8040 -2.8268  1.4485
  126MOL0     H16586   2.244   5.006  10.394 -0.2001 -0.2232 -3.1400
  126MOL0     H16587   2.113   5.056  10.514 -4.3723 -0.4062 -0.8592
  126MOL0     H16588   1.993   5.147  10.319  0.6138 -0.6084 -1.1406
  126MOL0     H16589   2.149   5.120  10.219  3.8371 -1.6319  0.4682
  126MOL0     H16590   2.156   5.346  10.298  1.3737 -0.7593 -1.1894
  126MOL0     H16591   2.132   5.306  10.463  0.2940 -0.0917 -0.3019
  126MOL0     H16592   2.358   5.163  10.353  1.7498  1.2272 -0.1372
  126MOL0     H16593   2.348   5.286  10.485  3.2441  0.0499 -1.2869
  126MOL0     H16594   2.495   5.511  10.114 -0.3156  1.7646  1.4701
  126MOL0     H16595   2.709   5.595  10.118 -1.6992 -0.9405 -1.3146
  126MOL0     H16596   3.191   5.419  10.500  0.7874  0.7607 -2.0537
  126MOL0     H16597   3.405   5.531  10.539 -0.8755 -1.6113  0.0131
  126MOL0     H16598   3.609   5.644  10.569 -1.6885 -0.5545 -0.9643
  126MOL0     H16599   3.519   5.724  10.692 -0.7440 -1.6013 -0.7026
  126MOL0     H16600   3.733   5.808  10.682 -0.2490  1.0414  0.0499
  126MOL0     H16601   3.621   5.944  10.638  1.2817  0.4169  0.4924
  126MOL0     H16602   3.672   5.920  10.401 -3.5524 -3.2522  1.0067
  126MOL0     H16603   3.772   5.776  10.430  0.0620 -0.0990 -1.4470
  126MOL0     H16604   3.849   6.059  10.537  0.8231  0.0581  0.9020
  126MOL0     H16605   3.917   5.915  10.586 -1.0655  0.3941  1.2727
  126MOL0     H16606   3.955   6.022  10.296  3.9982  3.2192  0.5969
  126MOL0     H16607   3.981   5.860  10.349 -3.5570 -0.5508  1.2474
  126MOL0     H16608   4.116   6.108  10.489  0.5909  2.4522 -2.8660
  126MOL0     H16609   4.178   6.033  10.349  1.1680  1.1131  1.3166
  126MOL0     H16610   4.133   5.810  10.533 -1.4155  0.9243  0.2850
  126MOL0     H16611   4.275   5.879  10.448  1.8638  1.9416  1.1713
  126MOL0     H16612   4.184   5.983  10.713  0.3527 -2.4981  0.7445
  126MOL0     H16613   4.331   6.020  10.632  1.9531 -1.9265 -0.0382
  126MOL0     H16614   3.264   5.897  10.411 -1.7227  0.0871  0.9590
  126MOL0     H16615   3.036   5.809  10.395 -1.5806 -0.2570  1.6350
  126MOL0     H16616   2.769   5.431  10.512 -0.6870 -1.5951  0.4390
  126MOL0     H16617   2.545   5.337  10.507 -2.9509  0.4226  0.2442
  126MOL0     H16618   2.119   5.339   9.890 -0.2136 -0.7854  0.4519
  126MOL0     H16619   2.320   5.434   9.859  0.0908 -1.1680  1.2670
  126MOL0     H16620   2.445   5.897   9.640 -1.2065 -2.0386  0.6047
  126MOL0     H16621   2.652   6.022   9.581  2.8552 -0.0522  1.8381
  126MOL0     H16622   2.850   6.009   9.313 -2.2190 -2.4597  1.3230
  126MOL0     H16623   2.919   5.851   9.331 -0.6559 -0.4491 -0.4861
  126MOL0     H16624   3.063   6.064   9.272 -0.0878  0.6575  0.3787
  126MOL0     H16625   3.050   6.093   9.451 -0.6280 -0.1388  0.3981
  126MOL0     H16626   3.148   5.839   9.299  0.7764 -0.3756  0.3761
  126MOL0     H16627   3.128   5.841   9.469 -1.8134 -0.1830 -0.8154
  126MOL0     H16628   3.362   5.860   9.436 -2.0404 -0.8692  0.0443
  126MOL0     H16629   3.354   6.011   9.349  2.4611 -1.3559 -0.2342
  126MOL0     H16630   3.306   6.164   9.731  0.1363  2.0930 -1.7693
  126MOL0     H16631   2.856   5.663   9.462 -0.1013 -0.4730 -0.7114
  126MOL0     H16632   2.668   5.535   9.531  1.6999 -0.7910  0.4406
  127MOL0     O16633   2.084   2.020   3.948 -0.6306 -0.3447 -0.4600
  127MOL0     C16634   2.111   1.937   3.861  0.2257 -0.3723  0.7062
  127MOL0     O16635   2.032   1.827   3.836  0.4953  0.0592 -0.9701
  127MOL0     C16636   1.901   1.836   3.882  0.2271 -0.2333 -0.7451
  127MOL0     C16637   1.870   1.797   4.014  0.2550 -0.0035  0.0215
  127MOL0     C16638   1.741   1.795   4.063  0.5293 -0.4867 -0.6133
  127MOL0     C16639   1.636   1.837   3.983 -0.7227  0.2008  0.2402
  127MOL0     O16640   1.511   1.831   4.039 -0.5676  0.0051 -0.8729
  127MOL0     C16641   1.398   1.874   3.967  0.2108 -0.0102  0.2416
  127MOL0     C16642   1.269   1.823   4.036 -0.4629  0.3659 -0.5437
  127MOL0     C16643   1.151   1.836   3.940  0.2519  0.2023 -0.2516
  127MOL0     C16644   1.107   1.983   3.917 -0.4867 -0.3321 -0.4426
  127MOL0     C16645   0.968   2.031   3.975 -0.9569  0.2344  0.3068
  127MOL0     C16646   0.850   1.981   3.888 -0.1109 -0.3038 -0.9775
  127MOL0     C16647   0.713   2.043   3.920 -1.2011  0.4056  1.1344
  127MOL0     C16648   0.590   1.962   3.855 -0.6050  0.2669 -0.5011
  127MOL0     N16649   0.464   2.019   3.903 -0.0594 -0.0106 -0.0171
  127MOL0     C16650   0.398   1.989   4.019 -0.1546  0.8484 -0.9984
  127MOL0     C16651   0.309   2.086   4.044  0.0120  0.5930  1.0376
  127MOL0     C16652   0.225   2.103   4.161 -0.3084 -0.3186 -0.1701
  127MOL0     C16653   0.073   2.068   4.155 -0.4131 -0.4747  0.8181
  127MOL0     C16654   0.051   1.927   4.096  0.1276  0.1574 -0.0040
  127MOL0     C16655  -0.089   1.882   4.110 -0.0273 -0.3205 -0.4743
  127MOL0     O16656  -0.118   1.754   4.060  0.2090  0.4572 -0.7951
  127MOL0     C16657  -0.234   1.696   4.119  0.2503 -0.5365 -0.3793
  127MOL0     C16658  -0.225   1.550   4.132  1.5245 -0.9992  0.5501
  127MOL0     C16659  -0.342   1.483   4.170 -0.9706  0.0553  0.4244
  127MOL0     C16660  -0.456   1.544   4.212  0.3880 -0.4504  0.0722
  127MOL0     C16661  -0.575   1.464   4.265 -0.0144  0.4287  0.0092
  127MOL0     O16662  -0.549   1.329   4.288  0.2573 -0.6576  0.3892
  127MOL0     C16663  -0.621   1.236   4.349  0.5530 -0.1900 -0.5540
  127MOL0     C16664  -0.564   1.117   4.364 -0.3310 -0.7331  0.7633
  127MOL0     C16665  -0.627   1.006   4.418 -0.1051  0.1203  0.0824
  127MOL0     C16666  -0.760   1.000   4.446 -0.4816  0.1237 -0.5332
  127MOL0     O16667  -0.814   0.895   4.516  0.6869  0.2995  0.6959
  127MOL0     C16668  -0.940   0.840   4.464  0.2671  0.1913  0.2280
  127MOL0     C16669  -0.966   0.690   4.507 -0.7980 -0.0858 -0.0769
  127MOL0     C16670  -1.073   0.628   4.411 -0.1672 -1.1479  0.4030
  127MOL0     C16671  -1.102   0.478   4.426 -0.2998 -0.6951 -0.2898
  127MOL0     C16672  -1.207   0.438   4.320  0.6076  0.3051  0.1148
  127MOL0     C16673  -1.320   0.350   4.377 -0.5926  0.3719  0.5521
  127MOL0     C16674  -1.445   0.359   4.286  0.7075 -0.2426  0.6300
  127MOL0     C16675  -1.568   0.271   4.341 -1.4277 -0.5631 -0.5631
  127MOL0    Cl16676  -1.720   0.299   4.257 -0.8024 -0.2049  0.3882
  127MOL0     C16677  -0.832   1.126   4.433  0.3428 -0.5492  0.3832
  127MOL0     C16678  -0.759   1.239   4.380  0.1734 -0.7120 -0.2038
  127MOL0     O16679  -0.675   1.520   4.292 -0.0624 -1.0832  0.7442
  127MOL0     C16680  -0.455   1.684   4.207  0.0682 -0.1012 -0.6939
  127MOL0     C16681  -0.356   1.761   4.152  0.5595  0.2986  0.9191
  127MOL0     N16682   0.316   2.171   3.933 -0.1843  0.3597 -0.1530
  127MOL0     N16683   0.406   2.132   3.854 -0.1747 -0.0500  0.2152
  127MOL0     C16684   1.666   1.885   3.856  0.4084  0.2820  0.5061
  127MOL0     C16685   1.792   1.872   3.795 -0.9013 -0.6845  0.2561
  127MOL0     C16686   2.223   1.977   3.776  1.0775  0.5694 -0.0238
  127MOL0     C16687   2.304   2.093   3.800 -0.1548 -0.0214  0.7589
  127MOL0     C16688   2.408   2.126   3.722 -0.8756  0.4402  0.0962
  127MOL0     C16689   2.449   2.037   3.615 -0.4607 -0.4774  0.3669
  127MOL0     O16690   2.531   2.083   3.514 -0.3810  0.1087 -0.7473
  127MOL0     C16691   2.659   2.129   3.555  0.6947 -0.0505 -0.4469
  127MOL0     C16692   2.751   2.020   3.602 -1.0054  0.6740 -0.0924
  127MOL0     C16693   2.804   1.951   3.476  0.0195  0.1669  0.0440
  127MOL0     C16694   2.911   1.853   3.514 -0.0893 -0.7511  0.0442
  127MOL0     C16695   2.957   1.774   3.398 -0.5085  0.2058 -0.1473
  127MOL0     C16696   2.983   1.722   3.292  0.8547 -1.0533  0.4799
  127MOL0     C16697   2.372   1.922   3.592  0.1793 -0.0742 -0.7152
  127MOL0     C16698   2.260   1.893   3.676  0.5958 -0.0225 -0.7647
  127MOL0     H16699   1.955   1.757   4.070 -0.8404 -2.8015 -0.1591
  127MOL0     H16700   1.726   1.768   4.168  0.7070  0.5389 -0.3134
  127MOL0     H16701   1.402   1.836   3.864  0.2341  1.3852 -0.2915
  127MOL0     H16702   1.391   1.983   3.965 -1.4938 -0.0508 -2.7509
  127MOL0     H16703   1.259   1.876   4.130  1.0308 -0.9201  0.3825
  127MOL0     H16704   1.284   1.716   4.055 -1.5292  0.2678 -0.1488
  127MOL0     H16705   1.067   1.767   3.951  1.0685 -1.0525 -1.5027
  127MOL0     H16706   1.193   1.811   3.842  0.3365 -1.2388  0.1195
  127MOL0     H16707   1.181   2.058   3.945 -2.1978 -0.0704  4.1948
  127MOL0     H16708   1.104   1.994   3.808 -0.1852  0.6042 -0.3694
  127MOL0     H16709   0.973   2.140   3.970  2.2338  0.1724  0.1295
  127MOL0     H16710   0.967   1.999   4.079  2.9741  0.6305  0.6284
  127MOL0     H16711   0.845   1.873   3.905  0.1459 -0.1137  0.4972
  127MOL0     H16712   0.874   1.992   3.782  0.5836  2.4240 -0.6202
  127MOL0     H16713   0.690   2.046   4.027  0.7206  0.5474  1.5758
  127MOL0     H16714   0.712   2.147   3.887 -0.4412  0.4452  1.2245
  127MOL0     H16715   0.590   1.860   3.893 -0.2592  0.5763  0.3430
  127MOL0     H16716   0.601   1.970   3.746  1.9174  1.5126 -0.2193
  127MOL0     H16717   0.417   1.913   4.094 -0.1736  2.4361  0.7097
  127MOL0     H16718   0.233   2.204   4.201 -2.5845 -0.2973  0.3852
  127MOL0     H16719   0.256   2.030   4.237  0.2992  2.2605  2.2032
  127MOL0     H16720   0.018   2.137   4.090 -0.9548 -1.4331  0.2328
  127MOL0     H16721   0.040   2.068   4.259  1.0270  0.1112  1.3064
  127MOL0     H16722   0.076   1.914   3.990  1.9006  0.8182  0.2961
  127MOL0     H16723   0.111   1.855   4.152  2.5199  1.7288 -0.3777
  127MOL0     H16724  -0.150   1.960   4.063  0.8895  1.0075  0.4568
  127MOL0     H16725  -0.113   1.881   4.217  0.9689 -1.4142 -0.2472
  127MOL0     H16726  -0.138   1.488   4.110  1.3268 -1.2544  0.4785
  127MOL0     H16727  -0.334   1.375   4.176  0.2814  0.1445  0.5683
  127MOL0     H16728  -0.456   1.119   4.350 -0.2992  1.9711  0.9230
  127MOL0     H16729  -0.568   0.918   4.444 -0.4595 -0.4680 -1.0337
  127MOL0     H16730  -0.924   0.840   4.356  4.3163  0.9457  0.6603
  127MOL0     H16731  -1.024   0.906   4.488 -1.1484 -1.9324  1.4362
  127MOL0     H16732  -0.996   0.685   4.612 -0.7293  0.3268 -0.0331
  127MOL0     H16733  -0.869   0.644   4.488  0.1199  2.2344 -1.4142
  127MOL0     H16734  -1.049   0.658   4.308 -1.1934  0.1215  0.5103
  127MOL0     H16735  -1.157   0.691   4.441 -0.0881 -1.8238  2.1408
  127MOL0     H16736  -1.004   0.430   4.412  0.1148 -0.1037  0.5303
  127MOL0     H16737  -1.140   0.458   4.526  0.1777  1.9121  0.4894
  127MOL0     H16738  -1.159   0.385   4.237 -0.2451  0.2494 -0.3579
  127MOL0     H16739  -1.249   0.533   4.285 -2.2989  0.0656  2.5384
  127MOL0     H16740  -1.358   0.402   4.465 -1.1424 -0.8160  1.0522
  127MOL0     H16741  -1.289   0.248   4.402  0.5998  1.3460  3.5022
  127MOL0     H16742  -1.473   0.464   4.276  2.3632  0.2634  0.9574
  127MOL0     H16743  -1.424   0.323   4.185  0.5080 -1.5648  1.0356
  127MOL0     H16744  -1.579   0.297   4.446 -2.6549  2.1884 -1.2634
  127MOL0     H16745  -1.539   0.166   4.329  1.5775 -0.1079  1.7541
  127MOL0     H16746  -0.939   1.133   4.447  0.1741  4.4350 -1.2131
  127MOL0     H16747  -0.809   1.336   4.374  1.0929 -0.2440 -0.5375
  127MOL0     H16748  -0.546   1.737   4.232 -0.8038 -2.5460  1.8219
  127MOL0     H16749  -0.387   1.861   4.125  3.9720  0.4456 -3.5542
  127MOL0     H16750   1.581   1.923   3.800  2.2559 -0.4471 -3.0893
  127MOL0     H16751   1.807   1.900   3.692  1.3090 -0.1757  0.6791
  127MOL0     H16752   2.277   2.166   3.876 -2.1272  0.7636 -0.5914
  127MOL0     H16753   2.456   2.222   3.739 -1.9407  0.5435  3.0752
  127MOL0     H16754   2.643   2.207   3.629  2.8604  1.8767 -1.8475
  127MOL0     H16755   2.711   2.179   3.472  0.0131  2.5347  0.5911
  127MOL0     H16756   2.841   2.054   3.654 -0.5591 -1.5366  0.7097
  127MOL0     H16757   2.703   1.944   3.665  1.9115 -0.4384  0.9675
  127MOL0     H16758   2.851   2.021   3.407  1.7954 -0.8546  0.1620
  127MOL0     H16759   2.715   1.910   3.427 -0.6747  0.6581  0.8592
  127MOL0     H16760   2.990   1.911   3.562 -0.0236 -0.6451 -0.1892
  127MOL0     H16761   2.887   1.775   3.586  5.3322  0.1688  3.3467
  127MOL0     H16762   3.009   1.685   3.195  0.8398  0.3788 -0.1008
  127MOL0     H16763   2.409   1.861   3.510  2.8749  3.1834 -2.1866
  127MOL0     H16764   2.208   1.798   3.667 -1.3957  0.2932  4.2230
  128MOL0     O16765   8.324   2.375   3.987 -0.0674 -0.7032 -0.2089
  128MOL0     C16766   8.226   2.373   4.058 -0.2005  0.3924  1.2094
  128MOL0     O16767   8.221   2.392   4.189  0.5035 -0.6623  0.1639
  128MOL0     C16768   8.329   2.466   4.249  0.0601 -0.2548  0.1628
  128MOL0     C16769   8.426   2.399   4.320 -0.0878  0.1134 -0.0659
  128MOL0     C16770   8.535   2.464   4.374 -0.2694 -0.0160  0.0002
  128MOL0     C16771   8.550   2.604   4.371  0.2777 -0.3891 -0.2197
  128MOL0     O16772   8.648   2.682   4.431 -0.1452 -0.2823  0.5334
  128MOL0     C16773   8.713   2.604   4.535 -0.5227  0.1420  0.0147
  128MOL0     C16774   8.779   2.696   4.641 -0.2430  0.5829 -0.0289
  128MOL0     C16775   8.894   2.782   4.591  0.2143 -1.0259  0.5241
  128MOL0     C16776   8.861   2.928   4.623 -0.5904 -0.0053 -0.4238
  128MOL0     C16777   8.791   2.987   4.496  0.6202  0.0554 -0.1061
  128MOL0     C16778   8.759   3.142   4.530 -0.6711  0.5991  0.1863
  128MOL0     C16779   8.888   3.230   4.546  0.0315  0.1712  0.0422
  128MOL0     C16780   8.857   3.382   4.556  1.1519 -0.6090  0.1456
  128MOL0     N16781   8.787   3.422   4.684  0.8941 -1.3875 -0.5429
  128MOL0     C16782   8.849   3.461   4.805 -0.2628  0.4348 -0.3230
  128MOL0     C16783   8.760   3.517   4.885  0.2721 -0.9951 -0.7560
  128MOL0     C16784   8.778   3.588   5.023 -0.2882  0.1426  0.4202
  128MOL0     C16785   8.896   3.682   5.022  0.1082 -1.3391 -0.8403
  128MOL0     C16786   8.853   3.822   4.971 -1.0040 -1.1099 -0.1371
  128MOL0     C16787   8.950   3.935   5.017 -0.0067 -0.2074  0.2364
  128MOL0     O16788   8.987   3.928   5.161 -0.3896  0.0406  0.3833
  128MOL0     C16789   8.890   3.979   5.238  0.8577  0.2474  0.0430
  128MOL0     C16790   8.918   3.961   5.371  0.4716  0.0996 -0.2341
  128MOL0     C16791   8.826   3.990   5.472  0.3332 -0.7091 -0.2581
  128MOL0     C16792   8.696   4.035   5.447 -0.7871 -0.2269  0.4077
  128MOL0     C16793   8.593   4.058   5.556  0.0676  0.0992  0.4540
  128MOL0     O16794   8.460   4.065   5.510 -0.0155 -0.6994  0.4037
  128MOL0     C16795   8.357   4.108   5.596  0.0734  0.3254 -0.2938
  128MOL0     C16796   8.345   4.073   5.722 -0.1048  0.3225  0.7318
  128MOL0     C16797   8.226   4.109   5.799  1.2957  0.3954  0.7199
  128MOL0     C16798   8.129   4.189   5.737  0.6192 -0.2581 -0.2816
  128MOL0     O16799   8.032   4.245   5.824 -0.3731 -0.2643  0.3597
  128MOL0     C16800   7.906   4.278   5.766 -0.0977 -0.0024 -0.1730
  128MOL0     C16801   7.813   4.311   5.884 -0.1502 -0.0909  0.7228
  128MOL0     C16802   7.676   4.244   5.869  0.1730  0.4429 -0.7092
  128MOL0     C16803   7.588   4.273   5.993 -0.4372 -0.8368  0.3809
  128MOL0     C16804   7.442   4.275   5.973  1.2154  0.2665 -0.5145
  128MOL0     C16805   7.404   4.144   5.902 -0.3054  0.6863  0.1078
  128MOL0     C16806   7.259   4.114   5.911 -0.2714  0.2873 -0.3152
  128MOL0     C16807   7.204   4.029   6.032 -0.2652  0.1638 -0.1808
  128MOL0    Cl16808   7.268   3.861   6.041 -0.0269  0.0397  0.0900
  128MOL0     C16809   8.145   4.215   5.602 -0.7748  0.5005  0.0627
  128MOL0     C16810   8.255   4.178   5.535 -0.3139 -0.1775  0.0101
  128MOL0     O16811   8.641   4.057   5.668 -0.4018  0.0369  0.3557
  128MOL0     C16812   8.657   4.047   5.303 -0.7258  0.5582 -0.4528
  128MOL0     C16813   8.755   4.022   5.203  0.2606  0.6730  0.8487
  128MOL0     N16814   8.637   3.497   4.816 -0.0813  0.2048  0.0276
  128MOL0     N16815   8.653   3.447   4.702 -0.2832  0.6871  0.3024
  128MOL0     C16816   8.440   2.672   4.305 -1.4793  1.0576 -0.4248
  128MOL0     C16817   8.340   2.603   4.240  0.1138  0.0307 -0.2592
  128MOL0     C16818   8.101   2.330   3.996 -0.1882  0.3559 -0.8600
  128MOL0     C16819   7.975   2.351   4.064 -0.6020 -0.2116  0.3089
  128MOL0     C16820   7.857   2.309   4.007  0.4645  0.0209 -0.6336
  128MOL0     C16821   7.859   2.255   3.881  0.0822 -0.1788 -0.4029
  128MOL0     O16822   7.738   2.234   3.818  0.0752  0.1280  0.0408
  128MOL0     C16823   7.721   2.110   3.742  0.3680 -0.6557 -0.1205
  128MOL0     C16824   7.710   2.141   3.594  0.2599  0.2782 -0.4976
  128MOL0     C16825   7.656   2.025   3.507 -1.6990  0.1072 -0.0791
  128MOL0     C16826   7.671   2.046   3.354 -0.1226 -0.5225 -0.5247
  128MOL0     C16827   7.726   1.917   3.290 -0.2312 -0.9667 -0.4509
  128MOL0     C16828   7.776   1.817   3.246  0.2633 -0.4822  0.0217
  128MOL0     C16829   7.976   2.254   3.803 -0.0488  0.7105  0.4533
  128MOL0     C16830   8.097   2.281   3.868 -0.1753  1.0205 -0.8118
  128MOL0     H16831   8.428   2.292   4.300  0.2091  0.4195 -1.8825
  128MOL0     H16832   8.625   2.413   4.406 -0.3145  1.3697  2.6334
  128MOL0     H16833   8.783   2.531   4.492 -0.9257  0.1065 -0.5934
  128MOL0     H16834   8.638   2.546   4.589 -2.4821 -0.4488 -3.0675
  128MOL0     H16835   8.825   2.633   4.717 -2.7549 -0.9568  0.3313
  128MOL0     H16836   8.695   2.747   4.688 -0.7201  0.8547 -1.1492
  128MOL0     H16837   8.905   2.776   4.483  0.0707  3.4059  0.0910
  128MOL0     H16838   8.989   2.751   4.636  1.0811 -0.5447 -0.9129
  128MOL0     H16839   8.791   2.935   4.706  1.2664 -2.0524  1.4543
  128MOL0     H16840   8.960   2.973   4.636  0.0665 -0.9532 -1.7794
  128MOL0     H16841   8.698   2.940   4.462  1.3030 -0.7362 -0.9490
  128MOL0     H16842   8.863   2.977   4.413  1.2133  1.9599  0.1410
  128MOL0     H16843   8.699   3.145   4.621 -0.5537 -0.1485  0.2954
  128MOL0     H16844   8.696   3.179   4.448  0.5888  1.2240 -0.5309
  128MOL0     H16845   8.944   3.198   4.634 -0.6681  2.9065  1.5861
  128MOL0     H16846   8.958   3.222   4.463  1.2146  2.4800  0.7403
  128MOL0     H16847   8.793   3.408   4.472  0.5597 -1.5358  0.2838
  128MOL0     H16848   8.946   3.445   4.553  2.0386 -1.7894  0.5187
  128MOL0     H16849   8.955   3.454   4.827 -0.6747 -0.7492  1.4820
  128MOL0     H16850   8.786   3.503   5.091 -0.8211 -0.1348  0.1374
  128MOL0     H16851   8.686   3.643   5.046 -0.8122 -0.3363 -0.4681
  128MOL0     H16852   8.984   3.648   4.967 -1.6285 -0.9515 -4.1346
  128MOL0     H16853   8.925   3.691   5.127 -1.2186 -0.5138 -0.5273
  128MOL0     H16854   8.868   3.828   4.863  1.0608  1.9263  0.2007
  128MOL0     H16855   8.753   3.851   5.005  0.0471  3.3327 -0.1462
  128MOL0     H16856   8.917   4.038   5.002 -1.5052 -0.6549  0.2284
  128MOL0     H16857   9.041   3.912   4.961  1.1107 -0.7690  2.1537
  128MOL0     H16858   9.011   3.924   5.411  0.1159  1.7157  2.3456
  128MOL0     H16859   8.862   3.987   5.574  1.9701  0.0404 -0.7829
  128MOL0     H16860   8.428   4.017   5.763  0.4897  0.4808 -0.2324
  128MOL0     H16861   8.206   4.078   5.901  2.5695 -2.7335  0.1590
  128MOL0     H16862   7.861   4.188   5.723 -1.1524  1.1799 -1.6186
  128MOL0     H16863   7.902   4.363   5.699 -2.5244  0.8637  0.9535
  128MOL0     H16864   7.789   4.418   5.886 -1.3446 -0.3507  1.4895
  128MOL0     H16865   7.862   4.295   5.981  1.7401 -1.6747 -0.4306
  128MOL0     H16866   7.681   4.135   5.862 -1.3776 -0.2897  4.7233
  128MOL0     H16867   7.621   4.285   5.784 -1.6598 -0.0779  0.1623
  128MOL0     H16868   7.603   4.196   6.069 -1.0398  0.6596  2.1059
  128MOL0     H16869   7.599   4.373   6.037 -0.9695 -0.1944 -0.8938
  128MOL0     H16870   7.404   4.360   5.914 -2.3102 -0.7731  0.0049
  128MOL0     H16871   7.385   4.291   6.065  0.8973 -2.3232 -0.1821
  128MOL0     H16872   7.462   4.062   5.943  0.2537  0.5197 -0.9616
  128MOL0     H16873   7.428   4.145   5.795  0.6435 -0.0386  0.2997
  128MOL0     H16874   7.209   4.212   5.916 -0.8448 -0.0245  0.3395
  128MOL0     H16875   7.219   4.070   5.820  1.5782 -2.0526 -0.0755
  128MOL0     H16876   7.096   4.013   6.036 -0.6538  2.5766  0.1984
  128MOL0     H16877   7.221   4.081   6.127 -1.7378  0.7866 -0.2424
  128MOL0     H16878   8.067   4.277   5.557 -0.6466  2.8150  2.7895
  128MOL0     H16879   8.268   4.208   5.432  4.8836 -0.4872  0.3109
  128MOL0     H16880   8.552   4.060   5.278 -0.4225  2.8779 -0.7599
  128MOL0     H16881   8.724   4.047   5.102 -3.7724 -1.6145  1.2978
  128MOL0     H16882   8.441   2.779   4.291 -1.7626  1.0352 -0.6214
  128MOL0     H16883   8.260   2.651   4.185 -0.9004 -0.6970  0.5444
  128MOL0     H16884   7.980   2.377   4.170  2.0363 -3.0417  1.0223
  128MOL0     H16885   7.759   2.308   4.054  0.9952 -0.5173  0.4726
  128MOL0     H16886   7.629   2.073   3.789 -2.2352  2.0553 -2.6423
  128MOL0     H16887   7.803   2.043   3.770 -0.2556  0.1845  4.6352
  128MOL0     H16888   7.658   2.238   3.595  0.1612  0.3209  3.0223
  128MOL0     H16889   7.813   2.162   3.561 -0.0093 -1.3848 -2.5720
  128MOL0     H16890   7.549   2.012   3.523 -2.3288  2.6758 -1.6713
  128MOL0     H16891   7.724   1.943   3.532 -1.4649  0.4706  0.4909
  128MOL0     H16892   7.569   2.062   3.318 -0.0339  0.4062 -0.3952
  128MOL0     H16893   7.730   2.132   3.321  3.1234 -3.4804 -3.2961
  128MOL0     H16894   7.822   1.729   3.205  4.2998  1.1243  0.6316
  128MOL0     H16895   7.983   2.220   3.701 -1.5191 -4.0234  1.6521
  128MOL0     H16896   8.197   2.275   3.825  0.4975 -0.0214  0.7978
  129MOL0     O16897   9.159   0.455   3.700  0.1528 -0.4375  0.5059
  129MOL0     C16898   9.105   0.546   3.634 -0.3794  0.6970  0.1126
  129MOL0     O16899   8.975   0.551   3.602 -0.1635 -0.0538  0.3612
  129MOL0     C16900   8.895   0.445   3.638  1.1343  0.4876  0.6680
  129MOL0     C16901   8.934   0.311   3.621  1.3861 -0.2381 -0.2142
  129MOL0     C16902   8.853   0.198   3.650 -1.6160 -1.0509 -0.4984
  129MOL0     C16903   8.724   0.219   3.690  0.3356  0.0929 -0.8298
  129MOL0     O16904   8.644   0.110   3.717 -0.0376  0.2892  1.1724
  129MOL0     C16905   8.668  -0.019   3.644  0.2898 -0.0050  1.0125
  129MOL0     C16906   8.548  -0.108   3.680  0.7087  0.5191  0.8420
  129MOL0     C16907   8.428  -0.075   3.599 -0.1961  0.0336  0.4654
  129MOL0     C16908   8.364   0.053   3.643  0.6416 -0.0995 -0.4792
  129MOL0     C16909   8.239   0.083   3.556 -0.1870 -0.6281 -0.1298
  129MOL0     C16910   8.176   0.214   3.606 -0.3230  0.0715  0.1025
  129MOL0     C16911   8.067   0.259   3.512 -0.8237 -0.2681 -0.0828
  129MOL0     C16912   8.052   0.419   3.520 -0.0251  0.7721 -0.4110
  129MOL0     N16913   7.938   0.469   3.444  0.0134  0.4126 -0.5560
  129MOL0     C16914   7.822   0.398   3.429  0.0420 -0.4975  0.6264
  129MOL0     C16915   7.736   0.470   3.359  0.1811  0.1714 -0.0260
  129MOL0     C16916   7.594   0.423   3.326  0.1475 -0.0647  0.0209
  129MOL0     C16917   7.570   0.423   3.178 -0.6404  0.4181  0.5145
  129MOL0     C16918   7.438   0.367   3.137  0.2443  0.6594  0.5369
  129MOL0     C16919   7.416   0.375   2.985 -0.6870 -0.3283 -1.2941
  129MOL0     O16920   7.322   0.288   2.925 -0.0957 -0.9051 -0.2781
  129MOL0     C16921   7.190   0.335   2.912 -0.5294  0.2865 -0.3412
  129MOL0     C16922   7.128   0.442   2.981  0.0333  0.3101  0.1175
  129MOL0     C16923   6.988   0.460   2.957  0.0999  0.5402  0.3487
  129MOL0     C16924   6.920   0.411   2.849 -0.1466 -0.2653  1.0083
  129MOL0     C16925   6.772   0.438   2.834  0.2383 -0.1626  0.4008
  129MOL0     O16926   6.689   0.341   2.795 -0.4182 -0.2482 -0.0577
  129MOL0     C16927   6.552   0.366   2.784  0.7274 -0.8113  0.2803
  129MOL0     C16928   6.501   0.465   2.694  0.4499 -0.2375  0.0078
  129MOL0     C16929   6.357   0.481   2.693  0.4067 -0.4617  0.6661
  129MOL0     C16930   6.269   0.406   2.773  0.3053 -1.1633  1.0548
  129MOL0     O16931   6.128   0.432   2.777 -0.2027  0.2830  0.4929
  129MOL0     C16932   6.061   0.521   2.698 -0.1255  1.0367  0.1245
  129MOL0     C16933   5.916   0.465   2.690 -0.6505 -0.5460  0.4660
  129MOL0     C16934   5.837   0.570   2.614  0.0849  0.0357 -0.0797
  129MOL0     C16935   5.697   0.522   2.575  0.1979  0.2438  0.2204
  129MOL0     C16936   5.624   0.595   2.466 -0.0106  0.0790 -1.0106
  129MOL0     C16937   5.496   0.530   2.433 -0.1355  0.2247  0.4106
  129MOL0     C16938   5.399   0.628   2.372 -0.6278  0.2395  1.0830
  129MOL0     C16939   5.426   0.640   2.221 -0.5514  0.0746  0.1102
  129MOL0    Cl16940   5.301   0.750   2.152 -0.4543 -0.0287 -0.1204
  129MOL0     C16941   6.323   0.298   2.848 -0.1657  0.6029 -0.1530
  129MOL0     C16942   6.466   0.286   2.856 -0.1404  0.5947 -0.2639
  129MOL0     O16943   6.739   0.553   2.860 -0.8263 -0.2280 -0.3370
  129MOL0     C16944   6.984   0.313   2.781 -0.2734 -1.0627  0.2016
  129MOL0     C16945   7.110   0.280   2.812  0.2442  0.8321  0.5258
  129MOL0     N16946   7.794   0.587   3.331 -1.5169  0.5625 -0.2325
  129MOL0     N16947   7.919   0.590   3.387  0.4170  0.4109  0.0016
  129MOL0     C16948   8.679   0.358   3.708 -0.3867  0.2105  0.4882
  129MOL0     C16949   8.762   0.465   3.675  0.4831 -0.5674 -0.1371
  129MOL0     C16950   9.191   0.667   3.604 -0.8002  0.0581  0.0034
  129MOL0     C16951   9.327   0.675   3.650  1.1203 -0.7989 -0.6692
  129MOL0     C16952   9.406   0.775   3.616 -0.4823 -0.3014 -0.1865
  129MOL0     C16953   9.362   0.881   3.533 -0.0607 -0.8467  0.3206
  129MOL0     O16954   9.439   0.990   3.490 -0.2860 -0.5996 -0.1944
  129MOL0     C16955   9.582   0.987   3.516  0.2972  0.0932 -0.8600
  129MOL0     C16956   9.631   1.120   3.470  0.3406 -0.3754 -0.0916
  129MOL0     C16957   9.769   1.168   3.523  0.8616 -0.6888 -1.5038
  129MOL0     C16958   9.788   1.316   3.508  0.3592 -0.8384 -0.5533
  129MOL0     C16959   9.735   1.369   3.384 -1.1621  0.3641 -0.1250
  129MOL0     C16960   9.709   1.412   3.279 -0.2254  1.3688 -0.1225
  129MOL0     C16961   9.229   0.873   3.482 -0.5281  0.7592  0.7245
  129MOL0     C16962   9.152   0.762   3.514  0.6664  0.3310 -0.7222
  129MOL0     H16963   9.029   0.283   3.577  1.7143 -3.7684  2.3424
  129MOL0     H16964   8.899   0.105   3.617  1.5193  0.9306 -2.2479
  129MOL0     H16965   8.764  -0.059   3.676  0.9222 -0.1158 -0.9080
  129MOL0     H16966   8.675  -0.007   3.536  0.6056  3.6719  1.2978
  129MOL0     H16967   8.514  -0.099   3.784  0.6025  0.5206  0.8069
  129MOL0     H16968   8.573  -0.210   3.650  3.5057  1.9042 -2.0618
  129MOL0     H16969   8.342  -0.143   3.605 -0.2084  0.1232  1.3276
  129MOL0     H16970   8.462  -0.066   3.495  0.1560  0.3166  0.6023
  129MOL0     H16971   8.343   0.059   3.750  1.9302  0.2783 -0.2255
  129MOL0     H16972   8.435   0.131   3.614  1.6364 -1.5489 -2.1342
  129MOL0     H16973   8.169   0.002   3.575 -0.1125 -0.4225  1.1112
  129MOL0     H16974   8.265   0.089   3.450  3.0330 -0.6587  0.5556
  129MOL0     H16975   8.265   0.278   3.615 -0.4147  0.7835 -2.9438
  129MOL0     H16976   8.131   0.204   3.705 -3.7156 -0.5440 -1.3669
  129MOL0     H16977   8.089   0.245   3.406 -2.6644 -0.3489 -0.4828
  129MOL0     H16978   7.975   0.205   3.534 -1.5899  0.7609 -0.6667
  129MOL0     H16979   8.143   0.471   3.490  0.8850  1.4954  3.1310
  129MOL0     H16980   8.028   0.438   3.625 -1.4960 -0.5648 -0.4617
  129MOL0     H16981   7.789   0.297   3.450 -0.2610 -0.3878  0.6842
  129MOL0     H16982   7.527   0.485   3.386  1.7234 -0.8363  2.7775
  129MOL0     H16983   7.586   0.327   3.379  0.6923  0.5250  1.2167
  129MOL0     H16984   7.646   0.365   3.126 -3.1104 -1.7642 -0.8926
  129MOL0     H16985   7.584   0.526   3.144  0.0546 -0.0457 -0.6619
  129MOL0     H16986   7.438   0.263   3.171  2.2851  1.3162  2.8243
  129MOL0     H16987   7.354   0.413   3.190  0.4109  0.8418  0.6436
  129MOL0     H16988   7.507   0.340   2.936  0.2617 -1.4139  1.0839
  129MOL0     H16989   7.387   0.478   2.965  0.1250  0.2342  0.2199
  129MOL0     H16990   7.176   0.503   3.057 -0.3737  2.4448 -1.2334
  129MOL0     H16991   6.935   0.533   3.017  0.1937 -0.2054  1.3496
  129MOL0     H16992   6.556   0.529   2.625  3.8242 -2.6297  0.2258
  129MOL0     H16993   6.311   0.547   2.619 -0.5979 -4.2199 -2.3720
  129MOL0     H16994   6.114   0.529   2.603  1.8560  1.5466  1.2188
  129MOL0     H16995   6.065   0.619   2.746  1.6466  0.7175  0.7003
  129MOL0     H16996   5.889   0.459   2.795 -0.7691  0.0581  0.4787
  129MOL0     H16997   5.923   0.368   2.641  0.8291 -0.4903  0.5165
  129MOL0     H16998   5.897   0.587   2.525 -1.4756  3.4836 -0.6231
  129MOL0     H16999   5.832   0.656   2.681 -1.2202 -1.0682  1.3411
  129MOL0     H17000   5.722   0.420   2.545 -1.9443 -0.0060 -0.8583
  129MOL0     H17001   5.646   0.537   2.670  1.4859  1.6985  0.7327
  129MOL0     H17002   5.686   0.595   2.376  5.2326  0.7807  2.1754
  129MOL0     H17003   5.610   0.699   2.498  0.7591 -0.8403  2.9424
  129MOL0     H17004   5.454   0.500   2.530 -2.0367  1.9477  0.2056
  129MOL0     H17005   5.512   0.440   2.374 -0.0875 -0.7089  1.7913
  129MOL0     H17006   5.298   0.586   2.374 -0.1118 -1.0553  0.7512
  129MOL0     H17007   5.403   0.729   2.416  2.0791 -0.4030  2.5495
  129MOL0     H17008   5.419   0.548   2.161 -2.7827 -0.3103  0.8436
  129MOL0     H17009   5.527   0.678   2.207 -1.5608  2.9800  0.0549
  129MOL0     H17010   6.266   0.225   2.905  0.4970 -4.2819 -4.9633
  129MOL0     H17011   6.500   0.197   2.908 -2.7670 -2.1265 -2.7268
  129MOL0     H17012   6.932   0.282   2.691 -0.2930  0.7904 -0.4770
  129MOL0     H17013   7.168   0.207   2.755 -0.1493  1.6080 -0.9163
  129MOL0     H17014   8.579   0.374   3.746 -0.5274  1.9141 -0.5063
  129MOL0     H17015   8.710   0.558   3.694 -3.7790 -3.1411  2.2310
  129MOL0     H17016   9.376   0.599   3.710  4.5775  0.5663 -1.5235
  129MOL0     H17017   9.506   0.786   3.656 -0.0450  1.4561 -1.6126
  129MOL0     H17018   9.630   0.905   3.462  1.9639  1.3628 -1.4060
  129MOL0     H17019   9.605   0.979   3.622 -0.8284  0.0011 -0.6183
  129MOL0     H17020   9.629   1.127   3.361  0.6886  2.1844  0.0168
  129MOL0     H17021   9.557   1.195   3.498  0.1615 -1.2839  2.0618
  129MOL0     H17022   9.854   1.114   3.479  0.0666 -2.4120 -1.0337
  129MOL0     H17023   9.767   1.152   3.631  0.0394 -1.9932 -1.6849
  129MOL0     H17024   9.734   1.361   3.591  1.0717 -1.5143  0.2944
  129MOL0     H17025   9.894   1.338   3.524  0.1905 -1.2598  1.4744
  129MOL0     H17026   9.671   1.467   3.195  0.7915  1.3234 -0.6238
  129MOL0     H17027   9.191   0.932   3.400 -0.0539  1.5233  1.0419
  129MOL0     H17028   9.053   0.756   3.469  1.1491  2.3356 -2.2330
  130MOL0     O17029   8.878   3.383  10.243  0.4405  0.1172  0.3738
  130MOL0     C17030   8.903   3.305  10.333 -0.0752  0.1246  0.4368
  130MOL0     O17031   8.817   3.241  10.411  0.4681 -0.4943  0.0497
  130MOL0     C17032   8.681   3.244  10.401  0.0994  0.9033  0.0421
  130MOL0     C17033   8.605   3.190  10.507  0.3136  0.2898  0.0090
  130MOL0     C17034   8.462   3.191  10.504  0.9969 -0.3107 -0.4204
  130MOL0     C17035   8.394   3.250  10.400 -0.2986  0.0658  0.1258
  130MOL0     O17036   8.257   3.260  10.400  0.5686 -0.1727  0.0520
  130MOL0     C17037   8.184   3.148  10.349  0.4189 -0.3988  0.8158
  130MOL0     C17038   8.038   3.154  10.401 -0.4459 -0.8474  0.2517
  130MOL0     C17039   7.955   3.045  10.344 -0.1674  1.3520 -0.0605
  130MOL0     C17040   7.798   3.071  10.372  0.1683 -0.4155 -0.9033
  130MOL0     C17041   7.708   2.947  10.339  0.3839 -0.4766  0.6605
  130MOL0     C17042   7.737   2.897  10.193  0.6964  0.5166  0.4382
  130MOL0     C17043   7.636   2.804  10.140  0.4511 -0.0173 -0.2196
  130MOL0     C17044   7.634   2.661  10.218 -0.2051 -1.0218  0.6392
  130MOL0     N17045   7.527   2.575  10.155 -0.2738  0.2947  0.2300
  130MOL0     C17046   7.444   2.477  10.215 -0.0058  0.3589  0.6676
  130MOL0     C17047   7.371   2.413  10.123 -0.5704 -1.3427 -0.1871
  130MOL0     C17048   7.261   2.327  10.152  0.3505  1.0832  0.0481
  130MOL0     C17049   7.124   2.396  10.175  0.4302 -0.5629 -0.6397
  130MOL0     C17050   7.020   2.297  10.231  0.1947  0.3889 -0.3981
  130MOL0     C17051   6.892   2.279  10.142  0.2225  1.0637  0.1315
  130MOL0     O17052   6.827   2.407  10.109 -0.0445  0.0211 -0.1952
  130MOL0     C17053   6.699   2.389  10.062  0.1498  0.5441  0.1907
  130MOL0     C17054   6.590   2.422  10.148 -0.1425 -0.1393 -0.3754
  130MOL0     C17055   6.453   2.389  10.117 -0.2022  0.2628  1.3994
  130MOL0     C17056   6.429   2.333   9.990  0.4920  0.3571  0.9375
  130MOL0     C17057   6.300   2.317   9.934  0.5636 -0.0346 -0.8232
  130MOL0     O17058   6.202   2.393   9.991  0.4608  0.3418 -0.6397
  130MOL0     C17059   6.068   2.382   9.972  0.4706 -0.1332 -0.6559
  130MOL0     C17060   6.005   2.489  10.039 -0.8435 -1.0749  0.0416
  130MOL0     C17061   5.868   2.505  10.030  0.5364 -0.2341 -0.0976
  130MOL0     C17062   5.789   2.410   9.957 -0.1319 -0.2446 -0.4502
  130MOL0     O17063   5.659   2.437   9.925  0.1245 -0.6146 -0.5997
  130MOL0     C17064   5.580   2.520  10.013  0.7199  0.1187  0.9945
  130MOL0     C17065   5.422   2.520   9.987 -0.6065  0.2853 -0.1350
  130MOL0     C17066   5.350   2.392   9.943  0.1018  0.0681 -1.0354
  130MOL0     C17067   5.196   2.398   9.927  0.0499 -0.6354 -0.0068
  130MOL0     C17068   5.146   2.451   9.794  0.3008  0.0559  0.5226
  130MOL0     C17069   4.991   2.461   9.792 -0.1796  0.3801 -0.8941
  130MOL0     C17070   4.948   2.502   9.652  0.6352 -0.3069  0.6533
  130MOL0     C17071   4.796   2.500   9.644  0.2847  0.5800  0.2162
  130MOL0    Cl17072   4.733   2.656   9.731  0.0012  0.0658 -0.2234
  130MOL0     C17073   5.846   2.293   9.905 -0.1809  0.3528 -0.0793
  130MOL0     C17074   5.987   2.276   9.917 -1.0241 -0.7099 -0.9821
  130MOL0     O17075   6.283   2.242   9.839 -0.8825  0.7439  0.3655
  130MOL0     C17076   6.542   2.307   9.907 -0.1675  0.7135  0.5179
  130MOL0     C17077   6.671   2.326   9.942  0.6753 -0.5124 -0.2192
  130MOL0     N17078   7.424   2.460  10.002  0.4661 -0.6153  0.1922
  130MOL0     N17079   7.504   2.559  10.020 -0.6650 -0.0039  0.6360
  130MOL0     C17080   8.471   3.296  10.287  0.4783 -0.0250  0.1685
  130MOL0     C17081   8.612   3.284  10.284 -1.1689 -0.3073 -0.7578
  130MOL0     C17082   9.050   3.275  10.366  1.1199  0.2141  1.3589
  130MOL0     C17083   9.076   3.197  10.476  0.3191 -0.1307 -0.8084
  130MOL0     C17084   9.204   3.148  10.495  1.6523  0.2372 -0.2990
  130MOL0     C17085   9.311   3.186  10.410  0.3611 -0.4595 -1.9403
  130MOL0     O17086   9.435   3.136  10.414 -0.4882  0.3995 -0.1824
  130MOL0     C17087   9.468   3.031  10.506 -0.8940 -0.4237  0.0671
  130MOL0     C17088   9.621   3.008  10.501 -0.2223  0.0792  0.2543
  130MOL0     C17089   9.708   3.129  10.545 -1.0651  0.2204 -0.1398
  130MOL0     C17090   9.846   3.064  10.603  0.0561  0.5987  0.1154
  130MOL0     C17091   9.937   2.991  10.502  0.2905  0.1158 -0.2069
  130MOL0     C17092  10.007   2.941  10.408 -0.1162  0.1512 -2.2034
  130MOL0     C17093   9.284   3.275  10.312 -0.1140  0.1448 -0.3748
  130MOL0     C17094   9.157   3.321  10.288  0.3435  0.4824  0.1231
  130MOL0     H17095   8.659   3.148  10.591  2.2561  2.5275 -0.0330
  130MOL0     H17096   8.408   3.144  10.585  0.8962  4.1177  2.4527
  130MOL0     H17097   8.230   3.053  10.379  1.9061 -0.5732 -1.8179
  130MOL0     H17098   8.177   3.141  10.240 -2.5823  0.9091  0.8145
  130MOL0     H17099   8.001   3.252  10.370 -2.4328 -2.5434 -3.3788
  130MOL0     H17100   8.043   3.146  10.510 -0.0796  0.5901  0.3618
  130MOL0     H17101   7.991   2.950  10.385 -1.2772  0.7236 -0.4874
  130MOL0     H17102   7.954   3.045  10.235 -0.5568  1.2681 -0.0589
  130MOL0     H17103   7.777   3.103  10.475 -4.4212  3.2939 -2.6592
  130MOL0     H17104   7.773   3.151  10.302 -1.6632  0.0735  0.2373
  130MOL0     H17105   7.605   2.984  10.336  0.9363  1.1013  0.3380
  130MOL0     H17106   7.717   2.861  10.406 -1.0439  0.6249  2.3481
  130MOL0     H17107   7.829   2.839  10.195 -1.1156 -2.6327 -0.5734
  130MOL0     H17108   7.746   2.986  10.129 -2.0478  1.2129  0.8501
  130MOL0     H17109   7.537   2.847  10.150 -0.0848 -0.1900 -3.6814
  130MOL0     H17110   7.647   2.789  10.032  1.3804  1.6097 -0.3795
  130MOL0     H17111   7.608   2.677  10.323 -1.4279 -3.3307  0.7589
  130MOL0     H17112   7.736   2.625  10.202  0.0804  0.3465 -0.9310
  130MOL0     H17113   7.458   2.459  10.322 -0.6068 -1.9855  0.4005
  130MOL0     H17114   7.285   2.267  10.240  0.0890  0.3017 -0.4037
  130MOL0     H17115   7.255   2.263  10.063  1.8334  1.4818 -0.3663
  130MOL0     H17116   7.095   2.441  10.080 -1.8390 -2.9105 -1.1893
  130MOL0     H17117   7.156   2.468  10.250 -0.0599 -0.8324 -0.1599
  130MOL0     H17118   7.061   2.198  10.253 -1.2667 -0.1281  0.1084
  130MOL0     H17119   6.978   2.342  10.321  2.8275 -2.1471  2.3678
  130MOL0     H17120   6.819   2.210  10.186  1.6855 -1.2445 -0.8438
  130MOL0     H17121   6.920   2.229  10.049 -0.5769  0.5080  0.1793
  130MOL0     H17122   6.610   2.467  10.244 -2.4164 -2.9927  1.6420
  130MOL0     H17123   6.365   2.409  10.176 -0.7647 -2.2137  1.5121
  130MOL0     H17124   6.069   2.570  10.073 -1.0797 -0.0795 -1.7688
  130MOL0     H17125   5.825   2.599  10.062  0.0378 -0.8840  1.1878
  130MOL0     H17126   5.625   2.619   9.998  2.7642 -1.0891 -1.7812
  130MOL0     H17127   5.599   2.486  10.115  3.8712 -1.5271 -0.0312
  130MOL0     H17128   5.403   2.583   9.900 -1.5913 -0.0736 -0.1917
  130MOL0     H17129   5.370   2.557  10.076 -2.1605  1.4135 -1.4715
  130MOL0     H17130   5.373   2.313  10.015 -1.3159 -0.5186 -1.1744
  130MOL0     H17131   5.393   2.361   9.847 -1.8463  0.3146 -2.0498
  130MOL0     H17132   5.161   2.294   9.935 -2.0119  0.1204  1.5715
  130MOL0     H17133   5.156   2.452  10.013  2.0734 -0.1686  0.6966
  130MOL0     H17134   5.183   2.382   9.718  0.0642 -0.9774  1.3315
  130MOL0     H17135   5.179   2.554   9.774 -0.7753  0.0903 -1.1960
  130MOL0     H17136   4.965   2.542   9.860 -1.6465  0.9113 -2.0199
  130MOL0     H17137   4.961   2.363   9.831 -0.9708  0.9516 -0.0324
  130MOL0     H17138   4.989   2.599   9.621 -0.0343 -0.1567  0.2267
  130MOL0     H17139   5.002   2.430   9.589 -0.1915 -0.4910  0.1417
  130MOL0     H17140   4.763   2.405   9.686 -0.5207  0.0864 -1.4579
  130MOL0     H17141   4.756   2.500   9.543 -0.9178 -0.1421  0.6735
  130MOL0     H17142   5.793   2.209   9.860 -0.7087 -0.0301  1.1973
  130MOL0     H17143   6.033   2.188   9.874 -1.0888 -1.1597 -0.1608
  130MOL0     H17144   6.538   2.267   9.806  3.7292 -3.1538  1.6035
  130MOL0     H17145   6.751   2.292   9.877 -0.0556  1.0701 -2.0356
  130MOL0     H17146   8.421   3.332  10.198 -2.2338 -2.4209  0.5574
  130MOL0     H17147   8.665   3.310  10.193 -3.1437 -1.2902 -2.2569
  130MOL0     H17148   8.998   3.164  10.543  1.8432 -1.6736  0.2947
  130MOL0     H17149   9.209   3.092  10.588 -0.2871 -0.8793 -0.7974
  130MOL0     H17150   9.409   2.939  10.494  1.6942 -1.8610 -3.1273
  130MOL0     H17151   9.449   3.072  10.606 -1.3039 -0.2083 -0.0967
  130MOL0     H17152   9.661   2.918  10.548 -2.1969  0.9263  3.9581
  130MOL0     H17153   9.629   2.989  10.394 -0.1198  0.0766  0.2623
  130MOL0     H17154   9.650   3.185  10.619  2.8792  1.7534  2.1031
  130MOL0     H17155   9.717   3.207  10.469 -1.3774 -1.8301 -2.3995
  130MOL0     H17156   9.911   3.146  10.633  0.3913  0.5953 -0.5770
  130MOL0     H17157   9.823   3.001  10.689 -1.7727 -2.5510 -2.4717
  130MOL0     H17158  10.056   2.891  10.327 -1.2711 -5.0489 -0.0744
  130MOL0     H17159   9.356   3.318  10.244 -0.4784  0.7494 -0.3901
  130MOL0     H17160   9.138   3.384  10.202  1.2315  4.0680  2.3337
  131MOL0     O17161   3.584   4.377   2.846 -0.4215  0.0035 -0.5142
  131MOL0     C17162   3.515   4.358   2.948  0.4972 -0.2843 -0.1603
  131MOL0     O17163   3.554   4.340   3.077 -0.1156  0.5924 -0.6572
  131MOL0     C17164   3.687   4.296   3.091  0.0736  0.3225  0.6606
  131MOL0     C17165   3.709   4.159   3.065 -0.1671  0.5745  0.2886
  131MOL0     C17166   3.836   4.095   3.084  0.7418 -0.1671  0.2506
  131MOL0     C17167   3.944   4.173   3.124 -0.2091 -0.0433 -0.1240
  131MOL0     O17168   4.067   4.123   3.148  0.1243  0.6286 -0.4867
  131MOL0     C17169   4.111   4.005   3.091 -0.5272 -0.2424 -0.1022
  131MOL0     C17170   4.085   3.887   3.192 -0.3269 -0.5694  0.4673
  131MOL0     C17171   4.180   3.902   3.310 -0.2405 -0.3060  0.0637
  131MOL0     C17172   4.149   3.801   3.420 -0.5183 -0.4451  0.3305
  131MOL0     C17173   4.240   3.810   3.544 -0.3439  0.1011 -0.0761
  131MOL0     C17174   4.382   3.761   3.520  0.1127 -0.1635  0.1550
  131MOL0     C17175   4.467   3.768   3.646 -0.5706  0.2827 -0.3008
  131MOL0     C17176   4.613   3.781   3.612  0.0371 -0.2543  0.9554
  131MOL0     N17177   4.662   3.649   3.559 -0.4048 -0.4893 -0.1621
  131MOL0     C17178   4.704   3.623   3.422  0.4447  0.0508  0.0824
  131MOL0     C17179   4.708   3.486   3.409  0.9257 -0.2770  0.6977
  131MOL0     C17180   4.763   3.400   3.296  0.2036 -0.3120  0.1209
  131MOL0     C17181   4.675   3.418   3.176 -0.1992 -0.5806  0.0955
  131MOL0     C17182   4.528   3.392   3.202  0.8295  0.0958  0.5209
  131MOL0     C17183   4.429   3.390   3.080 -1.3480  0.0000  0.3259
  131MOL0     O17184   4.449   3.523   3.034 -0.2843  0.1894  0.5495
  131MOL0     C17185   4.361   3.587   2.952  0.1818  0.2175  0.2058
  131MOL0     C17186   4.243   3.534   2.900 -0.7392  0.3289 -0.2293
  131MOL0     C17187   4.156   3.599   2.816  0.7239  0.3107 -0.1334
  131MOL0     C17188   4.169   3.732   2.789 -0.4085  0.7999 -0.2830
  131MOL0     C17189   4.065   3.793   2.710 -0.0500 -0.3601  0.5538
  131MOL0     O17190   4.056   3.932   2.722  0.0473 -0.2391  0.1659
  131MOL0     C17191   3.954   3.994   2.655  0.5024 -0.2409  0.6440
  131MOL0     C17192   3.936   3.983   2.513  0.4656 -0.0100  0.4242
  131MOL0     C17193   3.846   4.072   2.449 -0.8458  0.1736  0.1396
  131MOL0     C17194   3.775   4.170   2.519  1.0155 -0.6983 -0.5491
  131MOL0     O17195   3.689   4.247   2.446 -0.1499 -0.3767  0.0548
  131MOL0     C17196   3.671   4.376   2.492  0.3570  0.6835 -0.7309
  131MOL0     C17197   3.605   4.451   2.378 -0.3744  0.2192  0.6779
  131MOL0     C17198   3.695   4.494   2.269 -0.6128  0.4778  0.0331
  131MOL0     C17199   3.628   4.548   2.145  0.6863 -0.3597  0.9131
  131MOL0     C17200   3.590   4.700   2.177 -0.2225 -0.4814 -0.9989
  131MOL0     C17201   3.707   4.802   2.202 -0.2352  0.6255  0.3535
  131MOL0     C17202   3.645   4.945   2.220  0.1670  0.7602  0.5884
  131MOL0     C17203   3.742   5.060   2.220 -0.7647 -0.6329  0.4611
  131MOL0    Cl17204   3.879   5.007   2.331  0.4196  0.5553  0.0018
  131MOL0     C17205   3.768   4.154   2.653 -0.6140  1.3902  0.1826
  131MOL0     C17206   3.867   4.079   2.723 -1.0709 -0.2604  0.3842
  131MOL0     O17207   3.999   3.725   2.632 -0.4193 -0.1613 -0.2909
  131MOL0     C17208   4.281   3.797   2.847  0.4617  0.1776 -0.8850
  131MOL0     C17209   4.379   3.726   2.921 -0.0444  0.1642  0.3980
  131MOL0     N17210   4.649   3.438   3.521  0.1498  0.3520 -0.0481
  131MOL0     N17211   4.620   3.528   3.612 -0.2038 -0.9998 -0.3199
  131MOL0     C17212   3.921   4.313   3.141  0.1111  0.5131 -0.3655
  131MOL0     C17213   3.801   4.376   3.118 -0.4503 -0.9621  0.7592
  131MOL0     C17214   3.367   4.368   2.936 -0.5094 -0.4607  0.2358
  131MOL0     C17215   3.280   4.386   3.049 -0.4431 -0.9958 -0.9370
  131MOL0     C17216   3.151   4.432   3.038 -1.1723 -1.5760 -0.0687
  131MOL0     C17217   3.090   4.464   2.914 -0.1247 -0.3419 -0.3020
  131MOL0     O17218   2.970   4.519   2.887  0.5550 -0.4898  0.1863
  131MOL0     C17219   2.876   4.536   2.994 -0.1195  0.5845  0.0828
  131MOL0     C17220   2.831   4.402   3.046 -0.2696 -0.8988  0.1753
  131MOL0     C17221   2.750   4.310   2.951  0.1559  0.7883  0.5934
  131MOL0     C17222   2.614   4.355   2.908 -0.1898 -0.7726 -0.4653
  131MOL0     C17223   2.543   4.240   2.876 -0.3207  0.3628 -0.7065
  131MOL0     C17224   2.464   4.145   2.874 -0.1570  0.0745 -1.0948
  131MOL0     C17225   3.170   4.438   2.802 -0.1787 -0.0927  0.3685
  131MOL0     C17226   3.303   4.391   2.814 -0.4407 -0.4743  1.3669
  131MOL0     H17227   3.624   4.092   3.058  0.9419 -1.1454  2.1156
  131MOL0     H17228   3.838   3.988   3.070 -0.9994 -0.2998  0.7616
  131MOL0     H17229   4.217   4.025   3.069 -1.3266  0.6370 -3.6615
  131MOL0     H17230   4.078   3.986   2.989  1.9766 -0.7929 -0.9000
  131MOL0     H17231   4.087   3.792   3.138  0.9371  0.6906 -1.8408
  131MOL0     H17232   3.983   3.882   3.233 -0.6453 -2.4062 -0.4534
  131MOL0     H17233   4.178   4.003   3.352  3.6114 -0.4285  0.8890
  131MOL0     H17234   4.273   3.869   3.263 -0.7889 -3.2048  0.8606
  131MOL0     H17235   4.051   3.829   3.461 -0.1652 -2.5703  2.8614
  131MOL0     H17236   4.148   3.698   3.382  3.4145 -0.5843  0.2202
  131MOL0     H17237   4.193   3.756   3.626 -2.2419 -0.4839 -1.4803
  131MOL0     H17238   4.243   3.911   3.586  0.7385 -0.2857  0.8371
  131MOL0     H17239   4.426   3.832   3.450  1.1459  0.7540  1.6629
  131MOL0     H17240   4.385   3.660   3.479  1.3852  0.0398 -0.2986
  131MOL0     H17241   4.441   3.861   3.699 -0.5436  0.9548 -1.4307
  131MOL0     H17242   4.448   3.681   3.709 -0.3380 -0.0828 -0.7277
  131MOL0     H17243   4.669   3.811   3.702 -1.3710 -0.8394  2.0723
  131MOL0     H17244   4.618   3.863   3.540 -1.3284  1.0447  2.2598
  131MOL0     H17245   4.756   3.692   3.356 -0.8536  0.8933 -0.1057
  131MOL0     H17246   4.750   3.298   3.335 -1.2649  0.4511  1.7812
  131MOL0     H17247   4.868   3.429   3.281  0.3159 -0.7156  0.1080
  131MOL0     H17248   4.716   3.349   3.101  0.0224 -0.1528 -0.1787
  131MOL0     H17249   4.694   3.522   3.149  1.5424  0.4677  4.4071
  131MOL0     H17250   4.511   3.297   3.254 -0.0886 -2.1846 -3.4790
  131MOL0     H17251   4.485   3.473   3.261 -3.1121 -1.3379 -0.0559
  131MOL0     H17252   4.325   3.362   3.102 -1.4933  0.9235  0.8555
  131MOL0     H17253   4.457   3.311   3.011 -1.3255  0.3154 -0.0287
  131MOL0     H17254   4.223   3.427   2.908 -1.3820  0.4999  0.6578
  131MOL0     H17255   4.077   3.535   2.779 -0.8306  1.6552  0.7363
  131MOL0     H17256   3.996   3.910   2.461 -2.2349 -2.3703  0.4034
  131MOL0     H17257   3.842   4.076   2.341 -0.6215  1.1183  0.1548
  131MOL0     H17258   3.766   4.426   2.512  0.3147  2.3711 -3.9883
  131MOL0     H17259   3.609   4.395   2.580  1.3387 -0.8693  0.3330
  131MOL0     H17260   3.553   4.535   2.424 -1.0391 -0.1970  0.6926
  131MOL0     H17261   3.524   4.392   2.335 -1.3419 -0.8511  3.7520
  131MOL0     H17262   3.751   4.411   2.224 -2.2896  0.9127 -3.0861
  131MOL0     H17263   3.762   4.563   2.321 -2.7481  0.6268  2.7896
  131MOL0     H17264   3.691   4.556   2.056 -1.6196  0.1509 -0.7395
  131MOL0     H17265   3.542   4.486   2.120 -2.0437  3.4340 -0.0045
  131MOL0     H17266   3.518   4.717   2.257  1.7652 -0.7021  0.9444
  131MOL0     H17267   3.539   4.732   2.086 -2.6392  2.1366  1.1022
  131MOL0     H17268   3.766   4.788   2.111  0.3777 -1.6317  1.0398
  131MOL0     H17269   3.766   4.767   2.287  1.5687  0.0891 -1.0673
  131MOL0     H17270   3.586   4.969   2.131  0.7787 -2.0110 -0.6705
  131MOL0     H17271   3.593   4.967   2.313  1.4827  1.4664  1.1774
  131MOL0     H17272   3.704   5.155   2.259  2.3650  1.1276 -0.4178
  131MOL0     H17273   3.789   5.083   2.125  0.4391 -3.2927  0.3186
  131MOL0     H17274   3.698   4.221   2.702  0.8422  1.6771  1.9639
  131MOL0     H17275   3.876   4.086   2.831 -0.5407 -2.7418  0.5624
  131MOL0     H17276   4.300   3.903   2.833  0.2691  0.4057  0.4131
  131MOL0     H17277   4.468   3.779   2.954 -0.1890  3.7184 -3.9080
  131MOL0     H17278   4.008   4.363   3.182  0.6720 -1.9432  1.6737
  131MOL0     H17279   3.787   4.480   3.146  0.0867 -1.0384  1.3166
  131MOL0     H17280   3.319   4.376   3.150  1.6641  0.1161 -1.5749
  131MOL0     H17281   3.088   4.460   3.122 -1.8229  0.0112 -1.0423
  131MOL0     H17282   2.788   4.591   2.959 -0.7205  0.2126  0.9949
  131MOL0     H17283   2.915   4.596   3.077  1.7163  0.2567 -0.4891
  131MOL0     H17284   2.919   4.348   3.081  1.8815  1.6494 -0.9658
  131MOL0     H17285   2.760   4.416   3.129 -3.0899 -0.4041 -2.1589
  131MOL0     H17286   2.739   4.219   3.010  0.9742 -0.1169 -0.6338
  131MOL0     H17287   2.816   4.288   2.867  0.6301  3.2909  0.2285
  131MOL0     H17288   2.562   4.403   2.992  1.4981 -0.1918  0.2862
  131MOL0     H17289   2.626   4.422   2.823 -1.3285  0.6148  0.4186
  131MOL0     H17290   2.407   4.054   2.868  0.9908 -1.2917  3.9535
  131MOL0     H17291   3.134   4.453   2.701 -1.1587  1.2106  0.8809
  131MOL0     H17292   3.357   4.381   2.720  0.5675 -0.0031  1.8782
  132MOL0     O17293   9.492   2.227   2.098 -0.3917  0.0426 -0.0870
  132MOL0     C17294   9.604   2.184   2.082 -0.6161  0.4587 -0.7458
  132MOL0     O17295   9.640   2.051   2.073 -0.2800 -0.1353  0.7081
  132MOL0     C17296   9.552   1.949   2.107 -0.0965 -0.3612 -0.2518
  132MOL0     C17297   9.460   1.954   2.217  0.8612  0.4283  0.8099
  132MOL0     C17298   9.377   1.840   2.242  0.2257 -0.1451 -0.1240
  132MOL0     C17299   9.391   1.717   2.167 -0.1136 -1.0940 -1.1968
  132MOL0     O17300   9.314   1.608   2.201  0.7100 -0.2588 -0.2625
  132MOL0     C17301   9.175   1.627   2.234  0.1991  0.1653  0.2817
  132MOL0     C17302   9.150   1.595   2.380  0.0468  0.0222  0.4249
  132MOL0     C17303   9.018   1.647   2.439  0.6583  0.6965 -0.2774
  132MOL0     C17304   8.894   1.595   2.363  0.0000 -0.1629 -0.4789
  132MOL0     C17305   8.771   1.600   2.448  0.0917  0.4647  0.3021
  132MOL0     C17306   8.734   1.734   2.519  0.4850  0.0953 -0.9763
  132MOL0     C17307   8.694   1.849   2.429 -0.1078  0.0525  0.3405
  132MOL0     C17308   8.577   1.816   2.331  0.7248 -0.4201 -0.2123
  132MOL0     N17309   8.445   1.783   2.405 -0.5886 -0.0087  0.4370
  132MOL0     C17310   8.371   1.867   2.486  0.3789 -0.6155 -0.3630
  132MOL0     C17311   8.254   1.809   2.498  0.5853  1.0181  0.5944
  132MOL0     C17312   8.125   1.859   2.559  0.3079  0.0379 -1.0461
  132MOL0     C17313   8.058   1.761   2.650 -0.3366 -0.8889 -0.2165
  132MOL0     C17314   7.938   1.812   2.727 -0.4777  0.2771  0.2880
  132MOL0     C17315   7.915   1.734   2.858 -0.1515 -0.0129  0.1813
  132MOL0     O17316   7.811   1.800   2.931  0.6051  0.2696  0.9250
  132MOL0     C17317   7.677   1.793   2.895  0.1124  0.3843 -1.0590
  132MOL0     C17318   7.618   1.676   2.840  0.6170 -0.2865 -0.7465
  132MOL0     C17319   7.475   1.672   2.822  0.4765 -0.7703 -0.8314
  132MOL0     C17320   7.394   1.791   2.850  0.0341 -0.4395 -0.3640
  132MOL0     C17321   7.251   1.788   2.852  0.1707 -0.5593  0.2160
  132MOL0     O17322   7.194   1.672   2.827  0.1482 -0.6163 -0.3134
  132MOL0     C17323   7.062   1.669   2.862 -0.3651 -0.5872 -0.4601
  132MOL0     C17324   6.960   1.672   2.763  0.2144  0.1452  0.6066
  132MOL0     C17325   6.823   1.687   2.806 -0.9269 -0.8176  0.4990
  132MOL0     C17326   6.781   1.685   2.937  0.8664  0.1266  0.5701
  132MOL0     O17327   6.652   1.695   2.984 -0.2150 -0.1736  0.1714
  132MOL0     C17328   6.556   1.735   2.893  0.2722 -0.9183  0.3899
  132MOL0     C17329   6.419   1.767   2.958  1.1843  0.1575 -0.4695
  132MOL0     C17330   6.309   1.796   2.857  0.2913 -0.1446 -0.1855
  132MOL0     C17331   6.333   1.931   2.791  0.3511 -0.2183  0.1861
  132MOL0     C17332   6.340   2.062   2.879 -0.0676 -0.2776  0.4500
  132MOL0     C17333   6.311   2.200   2.809  0.4300  0.2386 -0.6087
  132MOL0     C17334   6.437   2.261   2.745 -0.0773  0.2945  0.0309
  132MOL0     C17335   6.416   2.412   2.726 -0.1013  0.5299  0.2951
  132MOL0    Cl17336   6.426   2.507   2.879  0.0569 -0.0365  0.3986
  132MOL0     C17337   6.879   1.684   3.033 -0.3370 -0.3399 -0.1990
  132MOL0     C17338   7.016   1.669   2.992 -0.2232  0.3552  0.4023
  132MOL0     O17339   7.193   1.891   2.886  0.1891 -0.9707 -0.1265
  132MOL0     C17340   7.467   1.907   2.879 -0.3835 -0.0655  0.0700
  132MOL0     C17341   7.605   1.903   2.908  0.1252  0.2715  0.3652
  132MOL0     N17342   8.269   1.686   2.426  0.4284 -0.4030 -0.0145
  132MOL0     N17343   8.380   1.677   2.371  0.3101  0.2275 -0.0411
  132MOL0     C17344   9.494   1.716   2.069  1.0376 -0.3780  0.7149
  132MOL0     C17345   9.564   1.828   2.040 -0.1496  0.2719  0.6683
  132MOL0     C17346   9.715   2.285   2.085  0.4064  0.5264 -0.2723
  132MOL0     C17347   9.837   2.258   2.022  0.4884  0.2165  0.0619
  132MOL0     C17348   9.938   2.352   2.030  1.1685 -0.4466  0.0684
  132MOL0     C17349   9.916   2.467   2.105 -0.5997  0.0074  0.8770
  132MOL0     O17350  10.015   2.567   2.120 -1.0685 -0.1249 -0.1887
  132MOL0     C17351  10.155   2.534   2.108  0.0463 -0.0545  0.2802
  132MOL0     C17352  10.231   2.640   2.167  0.2632 -0.8468 -0.5391
  132MOL0     C17353  10.209   2.652   2.317 -1.0863 -0.5518 -0.1632
  132MOL0     C17354  10.262   2.537   2.407  0.6279 -0.1331  0.2815
  132MOL0     C17355  10.394   2.499   2.365 -0.0234  0.5321 -0.3428
  132MOL0     C17356  10.495   2.466   2.313 -0.1490  0.2450 -0.1242
  132MOL0     C17357   9.791   2.505   2.148 -0.0263  0.7815 -0.8174
  132MOL0     C17358   9.687   2.405   2.146 -0.0288 -0.3651 -0.6192
  132MOL0     H17359   9.459   2.047   2.274  0.8813  1.9422 -1.5015
  132MOL0     H17360   9.306   1.850   2.324  0.2438  4.0198 -0.4076
  132MOL0     H17361   9.106   1.562   2.180 -1.9212 -0.6999  3.6891
  132MOL0     H17362   9.149   1.733   2.225 -0.5488  0.0210  0.6422
  132MOL0     H17363   9.238   1.628   2.436 -1.0109 -0.0388  2.1864
  132MOL0     H17364   9.155   1.487   2.400  0.3799 -0.2298 -0.9201
  132MOL0     H17365   9.024   1.756   2.433 -0.6724  0.7326 -1.3964
  132MOL0     H17366   9.023   1.616   2.543 -2.5008  0.7907 -0.0195
  132MOL0     H17367   8.880   1.666   2.281  0.2589  0.0987 -0.2990
  132MOL0     H17368   8.901   1.492   2.327 -0.3544 -1.0660  1.9020
  132MOL0     H17369   8.765   1.511   2.512 -3.5091  0.3881  0.0784
  132MOL0     H17370   8.689   1.571   2.382  0.2084 -0.4191  0.5312
  132MOL0     H17371   8.820   1.771   2.575  1.7575 -0.2022 -2.6522
  132MOL0     H17372   8.652   1.713   2.588 -0.3378  5.6927  0.3009
  132MOL0     H17373   8.665   1.936   2.489  1.8139  0.7147  0.3793
  132MOL0     H17374   8.773   1.880   2.360 -1.1369 -2.3928 -2.1485
  132MOL0     H17375   8.605   1.729   2.272 -0.7547 -2.5291  1.9828
  132MOL0     H17376   8.556   1.904   2.269  1.9002  2.1991  2.7917
  132MOL0     H17377   8.403   1.962   2.528 -3.4878 -0.6274  3.2847
  132MOL0     H17378   8.058   1.881   2.475 -2.4480  0.2374  1.0569
  132MOL0     H17379   8.145   1.954   2.610 -1.1838 -0.1037 -0.1424
  132MOL0     H17380   8.134   1.749   2.727  0.6351  0.1700 -0.9846
  132MOL0     H17381   8.039   1.672   2.589  2.9588 -3.0522  1.5997
  132MOL0     H17382   7.947   1.919   2.746 -3.1792  0.3888  1.3909
  132MOL0     H17383   7.853   1.792   2.661 -0.9265 -1.4165  1.3082
  132MOL0     H17384   8.001   1.744   2.925 -0.5691  2.3982  0.4309
  132MOL0     H17385   7.899   1.627   2.844 -1.3321  0.0921  0.6176
  132MOL0     H17386   7.681   1.592   2.813 -1.0872 -1.3194 -1.7540
  132MOL0     H17387   7.431   1.576   2.797  2.6163 -2.0832  0.2336
  132MOL0     H17388   6.997   1.662   2.662  4.8812 -1.1586  2.2077
  132MOL0     H17389   6.762   1.700   2.718  2.5125  2.8354 -1.6563
  132MOL0     H17390   6.544   1.660   2.815  3.0533  0.0244 -1.0876
  132MOL0     H17391   6.581   1.835   2.855  0.6373 -0.8007  0.9451
  132MOL0     H17392   6.431   1.849   3.029 -1.1135  1.6563 -1.6669
  132MOL0     H17393   6.394   1.684   3.024  1.3904 -1.1976 -2.0142
  132MOL0     H17394   6.218   1.786   2.916  0.3090 -1.0810 -0.3067
  132MOL0     H17395   6.294   1.719   2.781 -1.8905 -2.3969  2.3524
  132MOL0     H17396   6.427   1.925   2.735  0.3789  1.2720  0.0271
  132MOL0     H17397   6.263   1.945   2.708  3.1308 -2.8414 -2.8894
  132MOL0     H17398   6.439   2.063   2.924 -0.8658  1.5693  2.3283
  132MOL0     H17399   6.272   2.054   2.964 -2.5381  0.2220 -1.3652
  132MOL0     H17400   6.246   2.262   2.871 -1.1174 -1.1356 -0.7802
  132MOL0     H17401   6.242   2.176   2.727 -0.8141 -0.3440  0.5846
  132MOL0     H17402   6.509   2.261   2.827 -2.5310  1.3970  2.3259
  132MOL0     H17403   6.460   2.213   2.649  1.2990 -1.4190  1.1554
  132MOL0     H17404   6.321   2.426   2.673  0.0877 -0.3099 -0.2828
  132MOL0     H17405   6.483   2.455   2.652 -0.2294  1.2282  0.5719
  132MOL0     H17406   6.854   1.669   3.138 -0.7968  2.1705  0.0902
  132MOL0     H17407   7.085   1.653   3.075 -0.6547  0.6589  0.8279
  132MOL0     H17408   7.417   2.002   2.892  0.2845  0.3361 -0.2751
  132MOL0     H17409   7.652   1.992   2.948  0.9869  1.0982 -2.2359
  132MOL0     H17410   9.507   1.633   2.000 -0.7316 -0.6037  0.6072
  132MOL0     H17411   9.639   1.818   1.963 -2.4644 -0.5343 -1.6316
  132MOL0     H17412   9.838   2.162   1.973 -2.7918  0.4327 -0.6825
  132MOL0     H17413  10.021   2.343   1.961  0.7918 -2.0422 -0.2095
  132MOL0     H17414  10.184   2.528   2.003  0.9258 -2.6054  0.5947
  132MOL0     H17415  10.169   2.439   2.160 -2.8268  0.3438  1.9844
  132MOL0     H17416  10.336   2.627   2.139  1.5910 -0.5805  3.5809
  132MOL0     H17417  10.207   2.735   2.119  0.4963  0.8965  2.5100
  132MOL0     H17418  10.104   2.679   2.331 -0.5714  0.7443  1.6024
  132MOL0     H17419  10.259   2.743   2.351  0.4264 -1.3720 -0.1259
  132MOL0     H17420  10.256   2.575   2.509  1.3010 -1.3596  0.7966
  132MOL0     H17421  10.190   2.455   2.403  2.8702 -2.2678  1.6324
  132MOL0     H17422  10.581   2.426   2.263 -0.9864 -0.6390 -0.9121
  132MOL0     H17423   9.784   2.600   2.200  2.4132  0.1463  0.8621
  132MOL0     H17424   9.597   2.437   2.198  0.1314  2.0862 -1.6933
  133MOL0     O17425   8.898   9.030   6.336 -0.6609 -0.2762  0.1291
  133MOL0     C17426   8.849   8.915   6.333 -0.4641 -0.9254  0.2163
  133MOL0     O17427   8.919   8.789   6.360  0.0501 -0.4029  0.2015
  133MOL0     C17428   9.051   8.778   6.393 -0.8096  0.4914 -0.3895
  133MOL0     C17429   9.085   8.677   6.478  0.6633  0.5862 -0.2914
  133MOL0     C17430   9.210   8.649   6.525 -0.1672 -0.3318 -0.8319
  133MOL0     C17431   9.308   8.738   6.500  0.4001 -0.9427  0.4362
  133MOL0     O17432   9.440   8.718   6.546 -0.9590 -0.2275 -0.3542
  133MOL0     C17433   9.493   8.585   6.562  0.2886 -0.1538  0.0490
  133MOL0     C17434   9.646   8.577   6.537  0.4125 -0.8042 -0.4243
  133MOL0     C17435   9.696   8.631   6.411 -0.0482 -0.1123 -0.1643
  133MOL0     C17436   9.849   8.636   6.405  0.4426  0.6676 -0.2502
  133MOL0     C17437   9.904   8.692   6.276 -0.2866 -1.1225 -1.4305
  133MOL0     C17438   9.878   8.837   6.244 -0.0287  0.1049 -0.3343
  133MOL0     C17439   9.974   8.938   6.303  0.8042  0.7601 -0.6006
  133MOL0     C17440   9.916   9.085   6.300  0.1375  0.7172  0.0668
  133MOL0     N17441   9.840   9.133   6.412 -0.6740  0.2573 -0.2823
  133MOL0     C17442   9.751   9.048   6.477  0.1904 -0.0147  0.5316
  133MOL0     C17443   9.752   9.101   6.603 -0.3055  0.9548 -0.3213
  133MOL0     C17444   9.682   9.058   6.730  0.3255  0.7990 -0.1198
  133MOL0     C17445   9.740   8.932   6.784  0.3170  1.1072 -0.6725
  133MOL0     C17446   9.655   8.889   6.905  0.0727 -0.1136 -0.4479
  133MOL0     C17447   9.517   8.817   6.886  0.2170  0.0672  0.5252
  133MOL0     O17448   9.415   8.864   6.981 -0.1685  0.1869 -1.2994
  133MOL0     C17449   9.281   8.869   6.947 -0.6305  0.1932 -0.4982
  133MOL0     C17450   9.227   8.846   6.821 -0.4887  0.0383  0.6566
  133MOL0     C17451   9.093   8.864   6.805 -0.2170  0.5727  0.0468
  133MOL0     C17452   9.012   8.908   6.910 -0.1523  0.1225 -0.4700
  133MOL0     C17453   8.866   8.927   6.900 -0.6148  0.5843 -0.2659
  133MOL0     O17454   8.796   8.964   7.013 -0.1342  0.1754 -0.4011
  133MOL0     C17455   8.662   8.988   6.983 -0.4541 -0.5422  0.5594
  133MOL0     C17456   8.626   9.117   6.970  0.0033  0.5584  0.0513
  133MOL0     C17457   8.492   9.150   6.941 -0.2422 -1.3452 -0.5677
  133MOL0     C17458   8.390   9.053   6.934  1.6779 -1.1511 -0.1471
  133MOL0     O17459   8.257   9.083   6.891  0.3929 -0.7249  0.6163
  133MOL0     C17460   8.217   9.214   6.837  0.4217  0.1565  0.7986
  133MOL0     C17461   8.067   9.225   6.829  0.2994  0.3921  0.6868
  133MOL0     C17462   8.007   9.126   6.728 -0.0546 -0.0777  0.5685
  133MOL0     C17463   7.856   9.131   6.745 -0.1813 -0.8271 -0.7581
  133MOL0     C17464   7.807   9.039   6.635  1.0097 -0.3793 -0.0292
  133MOL0     C17465   7.654   9.022   6.647 -0.3302 -1.0436  0.6396
  133MOL0     C17466   7.586   8.973   6.520 -0.1892  0.4253  0.9499
  133MOL0     C17467   7.451   8.911   6.536  0.1288 -0.4138  0.1537
  133MOL0    Cl17468   7.454   8.751   6.616  0.1558  0.6116  0.2684
  133MOL0     C17469   8.418   8.921   6.957 -0.5516  1.0266  0.5940
  133MOL0     C17470   8.563   8.888   6.968  0.2029  0.6093 -0.8329
  133MOL0     O17471   8.811   8.906   6.790 -0.5191 -0.3340 -0.1287
  133MOL0     C17472   9.068   8.942   7.037  0.5351  0.3213  0.0680
  133MOL0     C17473   9.203   8.912   7.052 -0.5382  0.3341 -0.3488
  133MOL0     N17474   9.838   9.207   6.617 -0.9066 -0.0915 -0.1640
  133MOL0     N17475   9.896   9.225   6.503  0.0928 -0.2546  0.9516
  133MOL0     C17476   9.286   8.838   6.393  0.2964  0.9161 -0.1636
  133MOL0     C17477   9.150   8.865   6.349 -0.8042  0.0630 -0.0867
  133MOL0     C17478   8.697   8.913   6.309 -1.1392  0.0236  0.0034
  133MOL0     C17479   8.625   8.794   6.286 -0.6799 -0.2109 -0.4946
  133MOL0     C17480   8.494   8.798   6.252  0.0805  0.0227 -0.0142
  133MOL0     C17481   8.428   8.921   6.242  0.3321  0.2835 -0.3754
  133MOL0     O17482   8.295   8.906   6.212  0.4695  0.8016 -0.1186
  133MOL0     C17483   8.204   9.008   6.239  1.3257 -1.2094 -0.1893
  133MOL0     C17484   8.150   9.021   6.381  0.3974 -0.2673 -0.2051
  133MOL0     C17485   8.083   8.891   6.434 -0.3244 -0.3835 -0.3376
  133MOL0     C17486   7.989   8.823   6.329  0.5385 -0.7302  0.6807
  133MOL0     C17487   7.898   8.728   6.399 -1.3646  0.0221  0.6094
  133MOL0     C17488   7.837   8.653   6.463 -1.3506  0.1219  0.9357
  133MOL0     C17489   8.493   9.041   6.273 -0.0087  0.0847 -0.0917
  133MOL0     C17490   8.628   9.033   6.299 -1.3061 -0.9115 -0.6486
  133MOL0     H17491   8.999   8.629   6.525  0.6363  0.2546 -0.6838
  133MOL0     H17492   9.225   8.571   6.600 -0.3072  1.1949  0.8443
  133MOL0     H17493   9.446   8.514   6.493 -2.3233 -0.5591  2.0631
  133MOL0     H17494   9.461   8.541   6.657  1.7984  0.5098  0.8928
  133MOL0     H17495   9.678   8.473   6.545  0.6757 -0.6469  0.8157
  133MOL0     H17496   9.664   8.634   6.630 -2.0372  0.6286 -0.7554
  133MOL0     H17497   9.649   8.728   6.393  1.5663  1.0288  1.4004
  133MOL0     H17498   9.646   8.563   6.341  0.7052 -1.9315  0.9865
  133MOL0     H17499   9.900   8.692   6.485  1.2627 -2.0635  1.2634
  133MOL0     H17500   9.892   8.536   6.406  1.8290  1.2444 -0.6435
  133MOL0     H17501   9.865   8.640   6.188 -4.0133 -0.0771 -0.5543
  133MOL0     H17502  10.012   8.674   6.271 -0.2953 -1.5262 -0.3716
  133MOL0     H17503   9.772   8.857   6.263 -0.2099  0.7898 -1.8896
  133MOL0     H17504   9.892   8.835   6.135  3.7730 -2.6849  0.0092
  133MOL0     H17505   9.996   8.909   6.406 -3.3172 -1.6456 -0.1870
  133MOL0     H17506  10.065   8.941   6.242 -0.7994  1.9964 -3.1097
  133MOL0     H17507   9.855   9.088   6.209 -1.3128 -4.1552  0.5775
  133MOL0     H17508   9.998   9.156   6.289  2.6731 -2.0273  0.0881
  133MOL0     H17509   9.698   8.966   6.430 -0.5594 -0.0966  1.4878
  133MOL0     H17510   9.576   9.048   6.706  0.4455 -0.0748 -0.3069
  133MOL0     H17511   9.690   9.136   6.807 -2.7040 -0.8757  2.0993
  133MOL0     H17512   9.836   8.967   6.822  0.9276  0.9948 -2.0609
  133MOL0     H17513   9.747   8.849   6.713 -0.2215  0.2174  0.2769
  133MOL0     H17514   9.712   8.828   6.976  0.9917 -0.1117 -1.1745
  133MOL0     H17515   9.635   8.977   6.967  1.2765 -0.4259  0.4133
  133MOL0     H17516   9.535   8.710   6.878  0.8166  0.2570 -1.3150
  133MOL0     H17517   9.491   8.840   6.782 -0.2538  0.2385  0.6760
  133MOL0     H17518   9.288   8.807   6.740 -0.4023  3.7679 -1.2709
  133MOL0     H17519   9.043   8.849   6.711  0.7854  0.8014 -0.5429
  133MOL0     H17520   8.688   9.204   6.990 -0.1008  1.0306 -1.5108
  133MOL0     H17521   8.471   9.257   6.943  0.6818 -1.1585  1.1534
  133MOL0     H17522   8.250   9.229   6.734 -0.6701 -2.2762  0.0489
  133MOL0     H17523   8.244   9.300   6.899 -1.6837  2.8201 -1.6739
  133MOL0     H17524   8.031   9.324   6.801 -1.8601 -1.1495 -2.6395
  133MOL0     H17525   8.024   9.207   6.928  0.6308 -0.3640  0.6983
  133MOL0     H17526   8.040   9.025   6.755 -2.5445 -0.5233  2.3040
  133MOL0     H17527   8.041   9.140   6.625  3.0148 -1.9424  1.2052
  133MOL0     H17528   7.833   9.110   6.850  2.1386 -0.2632 -0.0881
  133MOL0     H17529   7.811   9.229   6.725  0.5064 -0.5357 -0.8917
  133MOL0     H17530   7.860   8.944   6.641 -2.8766 -2.7722 -0.2920
  133MOL0     H17531   7.832   9.090   6.542 -0.2902  2.4101  1.0066
  133MOL0     H17532   7.605   9.118   6.667 -1.3675 -1.1058 -1.3417
  133MOL0     H17533   7.627   8.964   6.736 -2.1409 -0.9256  0.1975
  133MOL0     H17534   7.576   9.059   6.453 -2.5041 -1.3301 -1.1817
  133MOL0     H17535   7.660   8.906   6.475 -0.5025  2.7447 -3.5818
  133MOL0     H17536   7.402   8.901   6.439 -0.8256  0.8986  0.4703
  133MOL0     H17537   7.387   8.985   6.586  1.1023  0.1237  0.6595
  133MOL0     H17538   8.345   8.842   6.967  0.3692  0.3502  2.6256
  133MOL0     H17539   8.598   8.785   6.970 -2.3889 -0.3430  1.1843
  133MOL0     H17540   9.018   8.980   7.126  1.4571  3.5076 -0.6704
  133MOL0     H17541   9.261   8.923   7.143  5.2338 -3.1269 -3.0870
  133MOL0     H17542   9.366   8.889   6.340  0.8660 -0.4837 -0.7016
  133MOL0     H17543   9.124   8.933   6.269 -0.6914  0.3324  0.1057
  133MOL0     H17544   8.676   8.700   6.306  2.6067  1.8112  1.6702
  133MOL0     H17545   8.444   8.705   6.226 -0.3651 -0.1392  1.3454
  133MOL0     H17546   8.121   9.000   6.167  1.1647 -0.1918 -0.1400
  133MOL0     H17547   8.253   9.105   6.223  2.7911 -2.1123 -1.4491
  133MOL0     H17548   8.235   9.037   6.447  0.9779  3.1083 -1.5688
  133MOL0     H17549   8.083   9.107   6.384  0.0388 -0.3142 -3.4141
  133MOL0     H17550   8.034   8.897   6.531  0.1750  2.0723 -0.1855
  133MOL0     H17551   8.159   8.815   6.458  0.1356  0.3169  0.4917
  133MOL0     H17552   7.937   8.908   6.283  0.8619  0.2043  1.9890
  133MOL0     H17553   8.049   8.769   6.256  1.8239 -0.7689  1.7260
  133MOL0     H17554   7.774   8.594   6.526 -0.2833  1.2844  3.1929
  133MOL0     H17555   8.448   9.140   6.278 -3.0076 -1.2516  1.3592
  133MOL0     H17556   8.685   9.121   6.326  0.1419 -2.4728  1.6864
  134MOL0     O17557   8.090   6.270   7.661  0.1108  0.8807  0.1181
  134MOL0     C17558   8.067   6.176   7.742  0.1679 -0.0720 -0.3567
  134MOL0     O17559   7.944   6.114   7.769 -0.2770  0.2836 -0.7473
  134MOL0     C17560   7.814   6.156   7.742 -0.8890 -0.5081 -0.2394
  134MOL0     C17561   7.702   6.069   7.754 -0.0013 -0.1623  1.5580
  134MOL0     C17562   7.571   6.106   7.733  0.5897  0.1065 -0.7565
  134MOL0     C17563   7.539   6.238   7.695  0.4716  0.4214 -0.4334
  134MOL0     O17564   7.410   6.284   7.679 -0.6759 -0.6947  0.5536
  134MOL0     C17565   7.302   6.196   7.664 -0.3681 -0.6814 -0.4549
  134MOL0     C17566   7.184   6.273   7.593  0.3373 -0.0390  0.1338
  134MOL0     C17567   7.070   6.175   7.546  0.0008  0.5700  0.3093
  134MOL0     C17568   6.969   6.239   7.444 -0.2142 -0.1328 -0.5058
  134MOL0     C17569   6.865   6.150   7.363  0.0428 -0.8709  0.7962
  134MOL0     C17570   6.758   6.239   7.299 -0.6884 -0.0633 -0.3818
  134MOL0     C17571   6.647   6.162   7.229 -0.2113 -0.0500  1.2670
  134MOL0     C17572   6.566   6.090   7.338  0.2641  0.8952  0.0840
  134MOL0     N17573   6.444   6.043   7.276 -0.2871 -0.3964  0.5703
  134MOL0     C17574   6.433   5.916   7.219  0.2145 -0.2066  0.5045
  134MOL0     C17575   6.303   5.896   7.179 -0.6892 -0.4463 -0.2560
  134MOL0     C17576   6.238   5.783   7.121 -0.6688 -0.1623 -0.6923
  134MOL0     C17577   6.094   5.761   7.175 -0.7523  0.2364 -0.1737
  134MOL0     C17578   5.984   5.744   7.071  0.4884  0.0740  0.6668
  134MOL0     C17579   5.846   5.723   7.139  0.0758  0.2085  0.7956
  134MOL0     O17580   5.746   5.700   7.039  0.2338  0.4126 -0.4265
  134MOL0     C17581   5.612   5.723   7.066  0.1779 -0.4969 -0.4003
  134MOL0     C17582   5.559   5.780   7.185 -0.1022 -0.2305  0.1839
  134MOL0     C17583   5.423   5.797   7.207  0.8391  1.2304  0.1163
  134MOL0     C17584   5.330   5.756   7.106  0.2174  0.1349 -0.7021
  134MOL0     C17585   5.196   5.796   7.118 -0.8106 -0.0941 -0.1091
  134MOL0     O17586   5.133   5.804   7.001  0.3213  0.1963  0.9536
  134MOL0     C17587   4.999   5.841   7.008  0.6556 -0.0839 -0.2504
  134MOL0     C17588   4.896   5.764   7.058 -0.3516  0.2162 -0.4914
  134MOL0     C17589   4.761   5.822   7.052 -0.7108 -1.2223 -0.6740
  134MOL0     C17590   4.731   5.953   7.013  0.3641  0.9383  0.3986
  134MOL0     O17591   4.602   5.996   6.997 -0.5339  0.2457 -0.2767
  134MOL0     C17592   4.550   5.972   6.871 -0.2541  0.2204  0.9380
  134MOL0     C17593   4.432   6.067   6.858  0.2826  0.1688 -0.1352
  134MOL0     C17594   4.310   6.037   6.944  0.2761 -0.2034  0.6324
  134MOL0     C17595   4.175   6.090   6.886  0.5441  1.1085  0.3174
  134MOL0     C17596   4.161   6.242   6.887 -0.1692 -0.1366 -0.2481
  134MOL0     C17597   4.018   6.273   6.861  0.3644 -0.2876  0.6684
  134MOL0     C17598   3.986   6.412   6.917 -0.1614 -0.7742 -0.1697
  134MOL0     C17599   4.048   6.527   6.823  0.5592 -0.2114  0.0599
  134MOL0    Cl17600   3.960   6.525   6.667  0.6855 -0.2993  0.0512
  134MOL0     C17601   4.835   6.021   6.977 -0.0392 -0.2269 -1.0196
  134MOL0     C17602   4.968   5.976   6.984 -0.5319 -0.0419  0.9794
  134MOL0     O17603   5.148   5.823   7.231 -0.7120  0.3089  1.0372
  134MOL0     C17604   5.381   5.707   6.984  0.1712 -0.2490  0.4078
  134MOL0     C17605   5.523   5.697   6.967 -0.2743  1.5110  0.5241
  134MOL0     N17606   6.242   6.021   7.212 -0.1539 -0.6392  0.0651
  134MOL0     N17607   6.321   6.105   7.274 -0.5751 -0.4686  0.6363
  134MOL0     C17608   7.647   6.321   7.683 -0.6396  0.0983  0.0683
  134MOL0     C17609   7.779   6.282   7.703  0.2052 -0.4902 -0.1403
  134MOL0     C17610   8.183   6.105   7.796  0.8172  1.2099 -0.0715
  134MOL0     C17611   8.308   6.169   7.801 -0.2550 -0.2334  0.0775
  134MOL0     C17612   8.419   6.114   7.870  0.0945 -0.2830 -0.2925
  134MOL0     C17613   8.403   5.986   7.938 -0.1043  0.2088 -0.5094
  134MOL0     O17614   8.506   5.927   8.017 -0.4384  0.2732 -0.7829
  134MOL0     C17615   8.504   5.962   8.159  0.2990  0.4709 -0.0496
  134MOL0     C17616   8.365   5.949   8.225  0.1119  0.1847 -1.1323
  134MOL0     C17617   8.378   5.964   8.380 -0.0470 -0.7380 -0.6226
  134MOL0     C17618   8.246   5.965   8.456 -0.5862 -0.3455  0.1190
  134MOL0     C17619   8.145   5.869   8.403  0.3239  0.9113 -0.7180
  134MOL0     C17620   8.080   5.777   8.351  0.2700  0.1191  0.2617
  134MOL0     C17621   8.275   5.923   7.926 -0.1092  0.5194  0.6383
  134MOL0     C17622   8.163   5.977   7.868 -0.1375 -0.1491  0.8447
  134MOL0     H17623   7.737   5.975   7.797  1.4592 -0.4707 -0.1782
  134MOL0     H17624   7.497   6.029   7.752  0.9622 -0.2834 -0.8846
  134MOL0     H17625   7.270   6.154   7.760 -1.5454 -0.2472 -0.6307
  134MOL0     H17626   7.342   6.116   7.602 -1.0810 -0.8895 -0.6519
  134MOL0     H17627   7.220   6.331   7.508  0.1447  0.6130  0.4871
  134MOL0     H17628   7.144   6.349   7.661  0.2001  1.6951 -1.7661
  134MOL0     H17629   6.998   6.145   7.623 -1.1969 -0.8962 -1.3047
  134MOL0     H17630   7.105   6.078   7.509 -1.1952  0.2301  0.0217
  134MOL0     H17631   6.895   6.302   7.494 -1.7765 -2.4859  0.3015
  134MOL0     H17632   7.044   6.288   7.381  3.3894  0.1910  3.6500
  134MOL0     H17633   6.815   6.080   7.431  1.8702 -2.0531  1.0010
  134MOL0     H17634   6.918   6.086   7.292  0.6826  0.0770  0.3993
  134MOL0     H17635   6.817   6.307   7.236 -2.2861 -1.2351 -3.3169
  134MOL0     H17636   6.714   6.302   7.378 -2.5302 -1.4240 -0.2758
  134MOL0     H17637   6.586   6.232   7.170 -1.7794 -0.4143  2.3806
  134MOL0     H17638   6.689   6.093   7.156  0.3321 -3.4437  4.4615
  134MOL0     H17639   6.548   6.155   7.425  0.0016 -0.0117  0.7216
  134MOL0     H17640   6.617   6.006   7.385 -3.4012 -0.4994  1.9854
  134MOL0     H17641   6.507   5.838   7.212 -0.8840 -1.2410  0.0929
  134MOL0     H17642   6.304   5.698   7.141  0.0154  0.6415  0.6473
  134MOL0     H17643   6.243   5.789   7.012  1.1500  0.9694 -0.5914
  134MOL0     H17644   6.066   5.839   7.246  0.6486  0.2426  0.4136
  134MOL0     H17645   6.116   5.665   7.222  1.8972 -0.3342 -2.2609
  134MOL0     H17646   5.972   5.837   7.014  2.0427  0.1714  0.4438
  134MOL0     H17647   6.005   5.667   6.996  0.6108 -0.3052  1.0832
  134MOL0     H17648   5.809   5.800   7.206 -1.6426  1.7047 -1.6889
  134MOL0     H17649   5.856   5.623   7.181 -1.6480  0.6152  2.2886
  134MOL0     H17650   5.621   5.816   7.267  0.5650  2.6622 -1.4346
  134MOL0     H17651   5.388   5.843   7.299  1.0130  0.6982  0.4513
  134MOL0     H17652   4.902   5.659   7.087 -0.5521 -0.5004 -2.7842
  134MOL0     H17653   4.686   5.758   7.098 -2.3114  0.5585 -0.7032
  134MOL0     H17654   4.527   5.866   6.860  1.0162 -0.0798  1.0884
  134MOL0     H17655   4.624   5.999   6.795 -0.0904 -1.5776  0.4321
  134MOL0     H17656   4.396   6.070   6.754 -0.3762  3.2888  0.0864
  134MOL0     H17657   4.455   6.173   6.875 -0.3291  0.3153 -0.1745
  134MOL0     H17658   4.334   6.071   7.045  2.1358 -1.3600  0.6301
  134MOL0     H17659   4.309   5.928   6.953  3.4326 -0.3753 -0.0601
  134MOL0     H17660   4.159   6.057   6.783  3.6733  1.9003 -0.5232
  134MOL0     H17661   4.101   6.047   6.954  2.0366 -2.0294  0.1457
  134MOL0     H17662   4.202   6.289   6.797 -1.3622 -0.8404 -1.2030
  134MOL0     H17663   4.199   6.281   6.982  1.0681 -0.3583 -0.6473
  134MOL0     H17664   3.945   6.203   6.902 -2.7876  1.6439 -1.1962
  134MOL0     H17665   4.009   6.274   6.752 -1.3952 -2.1556  0.7332
  134MOL0     H17666   3.878   6.424   6.904  0.0661  3.3387  0.3053
  134MOL0     H17667   4.013   6.433   7.021 -1.0590  4.0063 -0.6433
  134MOL0     H17668   4.154   6.506   6.805  0.8667 -0.2654  1.7300
  134MOL0     H17669   4.036   6.621   6.877  1.3078 -1.6264  2.8936
  134MOL0     H17670   4.813   6.117   6.930  3.5720  1.2807 -0.0179
  134MOL0     H17671   5.051   6.043   6.964 -0.4548 -0.0517  1.2537
  134MOL0     H17672   5.321   5.689   6.895 -0.5176 -0.3503  0.8880
  134MOL0     H17673   5.561   5.658   6.873  2.0764 -0.4757  2.1610
  134MOL0     H17674   7.631   6.422   7.646 -0.6368 -0.6743 -2.2059
  134MOL0     H17675   7.861   6.351   7.681  0.3759 -0.6483 -0.0029
  134MOL0     H17676   8.324   6.261   7.745  2.1874  0.2243  1.3904
  134MOL0     H17677   8.511   6.168   7.893  1.5106 -1.5967 -2.5168
  134MOL0     H17678   8.554   6.058   8.173 -0.4360  1.0210 -1.0476
  134MOL0     H17679   8.554   5.882   8.215 -2.3257 -0.5471  1.0142
  134MOL0     H17680   8.291   6.026   8.201 -0.8246 -0.1272  0.5759
  134MOL0     H17681   8.319   5.852   8.201 -4.1063  1.5814  0.4274
  134MOL0     H17682   8.431   6.058   8.401  0.2901 -1.3765  1.7509
  134MOL0     H17683   8.443   5.881   8.410 -1.9183 -2.2253 -0.5353
  134MOL0     H17684   8.264   5.956   8.563  0.7098 -0.3136 -0.0836
  134MOL0     H17685   8.210   6.066   8.436  2.0085  0.9478  1.5463
  134MOL0     H17686   8.028   5.685   8.331  3.1778 -1.7781  0.8895
  134MOL0     H17687   8.278   5.823   7.969  0.1887  0.3399  0.1985
  134MOL0     H17688   8.068   5.926   7.877 -1.1562  1.7068  1.1129
  135MOL0     O17689   3.502   4.256   8.765 -0.6189 -0.0866  0.0839
  135MOL0     C17690   3.552   4.149   8.742 -0.0512 -0.6941 -0.1752
  135MOL0     O17691   3.484   4.038   8.709 -0.2872  0.5587 -0.3456
  135MOL0     C17692   3.352   4.048   8.705 -0.0698 -0.4216  0.1808
  135MOL0     C17693   3.287   4.017   8.820  0.2124  0.9777 -0.4157
  135MOL0     C17694   3.148   4.015   8.820 -0.6648 -0.1163  0.0975
  135MOL0     C17695   3.085   4.057   8.705 -0.0626 -0.8816 -0.6163
  135MOL0     O17696   2.948   4.058   8.714 -0.5253 -0.4559  0.2347
  135MOL0     C17697   2.878   4.153   8.631 -0.4172  0.7425 -0.1163
  135MOL0     C17698   2.733   4.130   8.659  0.9997  0.3671 -0.1827
  135MOL0     C17699   2.676   3.978   8.653 -0.9854  0.7170 -0.1971
  135MOL0     C17700   2.534   3.956   8.693  0.4971 -0.1350  0.3069
  135MOL0     C17701   2.505   3.998   8.835 -0.0278  0.2754  0.0160
  135MOL0     C17702   2.366   3.944   8.885  0.2792  0.8267  0.5512
  135MOL0     C17703   2.240   3.986   8.794 -0.4379  0.4109 -0.1380
  135MOL0     C17704   2.120   3.902   8.821 -0.1315 -0.1043  0.0840
  135MOL0     N17705   1.999   3.993   8.811 -0.5524  0.1606  0.7950
  135MOL0     C17706   1.915   4.020   8.916  0.0560 -1.3310  0.0735
  135MOL0     C17707   1.802   4.069   8.863 -0.0228  0.0389 -0.3070
  135MOL0     C17708   1.690   4.143   8.943 -0.1577 -0.8854  0.3199
  135MOL0     C17709   1.699   4.303   8.928 -0.3683  0.0084 -0.2545
  135MOL0     C17710   1.633   4.386   9.031 -0.2896 -0.4637 -0.4447
  135MOL0     C17711   1.481   4.372   9.017  0.2088 -0.0384 -0.8708
  135MOL0     O17712   1.419   4.240   9.047  0.3871  0.7534 -0.2217
  135MOL0     C17713   1.283   4.229   9.069 -0.3129  0.7245 -0.8814
  135MOL0     C17714   1.234   4.108   9.096  0.7952 -0.1739 -0.1481
  135MOL0     C17715   1.097   4.081   9.119  0.1985  0.8201  0.4229
  135MOL0     C17716   1.002   4.189   9.114  0.0784 -0.6445  0.3952
  135MOL0     C17717   0.859   4.166   9.126 -0.3033  0.0860  0.8306
  135MOL0     O17718   0.772   4.271   9.110  0.6164  0.3359  0.2906
  135MOL0     C17719   0.643   4.243   9.088  0.9376  0.8968 -0.6376
  135MOL0     C17720   0.558   4.206   9.195 -0.3456  0.5181  0.2134
  135MOL0     C17721   0.421   4.202   9.181  0.2075 -0.6908  0.7341
  135MOL0     C17722   0.360   4.218   9.059 -0.2551  0.1879  0.3716
  135MOL0     O17723   0.229   4.217   9.039  0.2710  1.2016 -0.4443
  135MOL0     C17724   0.157   4.111   9.098 -0.1628 -0.0088  0.6476
  135MOL0     C17725   0.069   4.038   8.996 -1.2474  0.5941 -0.6276
  135MOL0     C17726   0.166   3.985   8.887 -0.5789  0.8644 -0.9590
  135MOL0     C17727   0.087   3.914   8.779 -0.6673  0.7138 -0.3742
  135MOL0     C17728   0.099   3.979   8.645 -0.1190  0.0826  0.0967
  135MOL0     C17729   0.049   3.871   8.538  0.3771 -0.6707 -0.4477
  135MOL0     C17730   0.071   3.919   8.387 -0.5885 -0.4279  0.5949
  135MOL0     C17731   0.011   3.823   8.281 -0.2012  0.5254 -0.0310
  135MOL0    Cl17732  -0.162   3.815   8.307  0.0223 -0.1389 -0.1247
  135MOL0     C17733   0.434   4.235   8.942 -0.6884 -0.4545 -0.1818
  135MOL0     C17734   0.574   4.246   8.956 -0.6066 -0.3733 -0.3385
  135MOL0     O17735   0.828   4.052   9.148 -0.2474  0.0714 -0.7878
  135MOL0     C17736   1.047   4.315   9.077  0.1970  0.9772  0.6763
  135MOL0     C17737   1.192   4.336   9.064  0.3481  0.5715  0.0623
  135MOL0     N17738   1.822   4.070   8.721  0.2394  0.2606 -0.1897
  135MOL0     N17739   1.935   4.032   8.689 -0.4800 -0.2546 -0.3354
  135MOL0     C17740   3.155   4.097   8.588  0.0497 -0.0010  0.2689
  135MOL0     C17741   3.290   4.090   8.590  0.6312 -0.0930 -0.1602
  135MOL0     C17742   3.701   4.150   8.754  0.7623 -0.0902 -0.0029
  135MOL0     C17743   3.772   4.269   8.759 -0.3528 -0.0667  0.7094
  135MOL0     C17744   3.918   4.259   8.752  0.8609  0.0167 -0.0464
  135MOL0     C17745   3.985   4.136   8.755 -0.5657 -0.6600 -0.1131
  135MOL0     O17746   4.123   4.151   8.757  0.0484 -0.2011  0.8611
  135MOL0     C17747   4.216   4.039   8.743  0.3859 -0.1177 -0.1636
  135MOL0     C17748   4.261   3.968   8.876 -0.4328 -0.4478  0.4269
  135MOL0     C17749   4.259   3.814   8.861 -1.3724  0.4741 -0.4830
  135MOL0     C17750   4.269   3.746   8.999  0.4580  0.8589 -0.6575
  135MOL0     C17751   4.142   3.764   9.066  0.3003 -0.1617 -0.2763
  135MOL0     C17752   4.037   3.775   9.133 -0.6847 -0.1419  0.2085
  135MOL0     C17753   3.916   4.020   8.763  0.7437  0.3718 -0.6356
  135MOL0     C17754   3.773   4.031   8.761  0.3538 -0.2151  0.8312
  135MOL0     H17755   3.342   3.980   8.906 -0.7791  1.9989  0.6774
  135MOL0     H17756   3.074   3.978   8.890 -2.6511  1.5115 -1.0327
  135MOL0     H17757   2.900   4.137   8.525 -2.1656 -0.1006 -0.3904
  135MOL0     H17758   2.919   4.249   8.664 -0.8510  0.8503  0.1163
  135MOL0     H17759   2.683   4.208   8.601  2.9166  1.2757 -0.7044
  135MOL0     H17760   2.720   4.166   8.762 -2.6640  1.0243 -0.7138
  135MOL0     H17761   2.745   3.914   8.708 -0.4670  1.3084 -0.1515
  135MOL0     H17762   2.667   3.936   8.552 -0.5065 -0.2752  0.1649
  135MOL0     H17763   2.464   4.012   8.630  0.3629  0.3571  0.8737
  135MOL0     H17764   2.505   3.852   8.681 -1.0631  0.2194  0.6493
  135MOL0     H17765   2.503   4.107   8.843  1.6578  0.5496 -2.2528
  135MOL0     H17766   2.579   3.954   8.902 -0.4361 -0.4935 -0.0159
  135MOL0     H17767   2.355   3.966   8.991  3.8748  2.1749  0.7816
  135MOL0     H17768   2.372   3.835   8.880 -0.8073  0.7681  0.3950
  135MOL0     H17769   2.214   4.090   8.815 -0.2825  0.0204  2.3397
  135MOL0     H17770   2.256   3.973   8.687  0.4717  0.9889 -0.0846
  135MOL0     H17771   2.130   3.856   8.919  0.7699  0.7432  0.4106
  135MOL0     H17772   2.103   3.831   8.740  0.6039  1.0901 -1.1598
  135MOL0     H17773   1.934   4.012   9.022  3.2761  2.4081 -0.0081
  135MOL0     H17774   1.717   4.117   9.046  1.3293  2.5556  0.9369
  135MOL0     H17775   1.594   4.102   8.911  1.4703 -2.3276 -3.2976
  135MOL0     H17776   1.654   4.317   8.830 -0.7628 -3.1070 -0.6350
  135MOL0     H17777   1.805   4.328   8.922 -0.2413  0.1900  1.7930
  135MOL0     H17778   1.678   4.356   9.125 -1.8508 -3.1939 -0.4715
  135MOL0     H17779   1.668   4.488   9.008 -1.4614  0.1931  0.5580
  135MOL0     H17780   1.460   4.395   8.912 -1.4726 -3.7230 -1.5130
  135MOL0     H17781   1.434   4.458   9.066  0.2013  0.6284 -2.0141
  135MOL0     H17782   1.300   4.022   9.098  0.5426 -0.3682  0.7777
  135MOL0     H17783   1.055   3.982   9.132 -1.1761  0.7592 -3.2250
  135MOL0     H17784   0.591   4.194   9.298 -2.1681  0.2622  0.8119
  135MOL0     H17785   0.346   4.167   9.251  1.9455 -4.0047  1.0995
  135MOL0     H17786   0.077   4.131   9.171 -1.2557 -0.5718 -0.3587
  135MOL0     H17787   0.219   4.033   9.141  1.7043 -2.2128 -5.0631
  135MOL0     H17788   0.004   4.117   8.959  0.8155  3.0756  0.6705
  135MOL0     H17789   0.012   3.958   9.044 -1.0003  0.3042 -0.8170
  135MOL0     H17790   0.240   3.913   8.923  0.1004  1.5295 -1.0109
  135MOL0     H17791   0.228   4.064   8.844 -0.2709 -0.4032 -3.0149
  135MOL0     H17792   0.132   3.815   8.783 -0.3511  0.8285  4.7836
  135MOL0     H17793  -0.021   3.916   8.795 -0.9130  1.0122 -1.8628
  135MOL0     H17794   0.204   4.000   8.624 -0.1039  1.4839  1.4051
  135MOL0     H17795   0.039   4.070   8.635 -0.5278 -0.3424 -1.7894
  135MOL0     H17796  -0.052   3.832   8.545  1.0015 -2.0988  2.3152
  135MOL0     H17797   0.118   3.786   8.544  0.5668 -0.4810  0.1650
  135MOL0     H17798   0.015   4.013   8.378 -2.4999 -1.6824 -1.5205
  135MOL0     H17799   0.176   3.937   8.363  0.1168 -0.4891  3.2383
  135MOL0     H17800   0.066   3.729   8.284 -1.6786 -0.6246 -3.7463
  135MOL0     H17801   0.004   3.861   8.179  1.2355  0.5989 -0.1163
  135MOL0     H17802   0.376   4.233   8.850  1.2704  2.1060 -1.6153
  135MOL0     H17803   0.635   4.263   8.868  2.5296 -1.4377  1.4934
  135MOL0     H17804   0.978   4.398   9.066 -1.0271  0.0669  1.2567
  135MOL0     H17805   1.228   4.436   9.041  0.4986  0.2400 -1.2199
  135MOL0     H17806   3.113   4.121   8.491  1.9437  0.4812 -0.4806
  135MOL0     H17807   3.365   4.097   8.511  0.8819  0.7567  0.1337
  135MOL0     H17808   3.713   4.360   8.756 -0.8332 -0.4014 -1.2227
  135MOL0     H17809   3.968   4.355   8.759  1.1643 -0.0790 -0.8150
  135MOL0     H17810   4.296   4.071   8.677  0.6312  1.7241  0.9853
  135MOL0     H17811   4.165   3.965   8.679 -2.7594  0.1375  1.7992
  135MOL0     H17812   4.362   4.006   8.894  0.7775 -3.6543  0.9552
  135MOL0     H17813   4.179   4.002   8.941 -0.8701  1.3526 -0.9803
  135MOL0     H17814   4.338   3.785   8.791  1.1932  2.2051  1.4755
  135MOL0     H17815   4.165   3.779   8.818 -0.5964 -1.2002 -0.8944
  135MOL0     H17816   4.287   3.639   8.988 -3.8891 -0.0250 -1.1028
  135MOL0     H17817   4.351   3.791   9.056  0.3965  0.6942 -0.4371
  135MOL0     H17818   3.945   3.786   9.187  0.3380  1.9629  1.6478
  135MOL0     H17819   3.962   3.922   8.763  1.6644  0.7864 -1.7311
  135MOL0     H17820   3.717   3.938   8.760  1.4317 -0.8784  0.2965
  136MOL0     O17821   2.718   8.116   1.920  0.1779 -0.2805  1.0822
  136MOL0     C17822   2.764   8.234   1.910  0.4997  0.5244  0.1543
  136MOL0     O17823   2.688   8.349   1.895 -0.5064  0.0379 -0.8586
  136MOL0     C17824   2.555   8.359   1.923 -0.4949 -0.0820 -0.0186
  136MOL0     C17825   2.490   8.270   2.014  0.5038  0.9095 -0.7751
  136MOL0     C17826   2.353   8.296   2.029 -0.7349 -0.6590  0.0836
  136MOL0     C17827   2.286   8.410   1.971  0.1642  0.2289  0.0570
  136MOL0     O17828   2.150   8.417   1.972  0.7409 -0.7775  0.5382
  136MOL0     C17829   2.093   8.542   2.023 -1.2784  0.4252 -0.6772
  136MOL0     C17830   1.960   8.522   2.102 -0.2029  0.0376  0.0377
  136MOL0     C17831   1.904   8.641   2.184 -0.2112  0.4300 -0.7781
  136MOL0     C17832   1.768   8.612   2.251  0.5579 -0.1333  0.0331
  136MOL0     C17833   1.655   8.609   2.144  0.3774 -0.8977  0.1207
  136MOL0     C17834   1.518   8.635   2.214  0.1685 -0.4342  0.6718
  136MOL0     C17835   1.466   8.523   2.303 -0.4225 -0.7185  0.3809
  136MOL0     C17836   1.318   8.521   2.304  0.7369  0.3109 -0.6492
  136MOL0     N17837   1.268   8.424   2.405  0.1436 -0.1895  0.6474
  136MOL0     C17838   1.208   8.293   2.378  0.3487 -0.0858 -0.9112
  136MOL0     C17839   1.224   8.225   2.494 -0.5475 -0.2348  1.5027
  136MOL0     C17840   1.194   8.082   2.525 -0.3765  0.0234 -0.1299
  136MOL0     C17841   1.053   8.041   2.501 -0.1881 -0.4885 -0.2888
  136MOL0     C17842   0.946   8.104   2.601  0.0758 -0.0683 -0.4729
  136MOL0     C17843   0.806   8.066   2.560  0.4760 -0.0228 -0.3299
  136MOL0     O17844   0.723   8.083   2.679 -0.1245 -0.3895  0.7657
  136MOL0     C17845   0.585   8.079   2.676  0.2556  0.2158  0.1519
  136MOL0     C17846   0.504   8.079   2.794 -0.7286 -0.2277 -0.2867
  136MOL0     C17847   0.362   8.072   2.784 -0.2874  0.1716 -0.1931
  136MOL0     C17848   0.301   8.062   2.663 -0.4407  1.1686 -0.3752
  136MOL0     C17849   0.150   8.044   2.656 -1.0115  0.0463 -0.4948
  136MOL0     O17850   0.097   8.064   2.532 -0.2993 -0.1584  0.3134
  136MOL0     C17851  -0.042   8.058   2.516 -0.0117  1.0723  0.6045
  136MOL0     C17852  -0.085   7.993   2.401  0.5844 -0.4757  1.6823
  136MOL0     C17853  -0.224   7.973   2.389 -0.9582  0.2710  1.0165
  136MOL0     C17854  -0.319   8.017   2.479 -0.5702 -0.2503 -0.1604
  136MOL0     O17855  -0.454   7.993   2.448  0.0787  0.3550  0.2660
  136MOL0     C17856  -0.554   8.016   2.552  0.9521  0.4006 -0.4498
  136MOL0     C17857  -0.691   7.957   2.509 -0.5259 -0.8990  0.6935
  136MOL0     C17858  -0.782   7.948   2.623  0.4988 -0.4934  0.2114
  136MOL0     C17859  -0.910   7.870   2.573 -0.8235  0.1157 -0.1282
  136MOL0     C17860  -1.046   7.942   2.601 -0.0380 -0.0136 -0.8442
  136MOL0     C17861  -1.172   7.897   2.519 -0.4613 -0.7412 -0.4714
  136MOL0     C17862  -1.283   7.986   2.541 -0.0197 -0.4792 -0.2008
  136MOL0     C17863  -1.411   7.927   2.499  0.8791  0.0758  0.1839
  136MOL0    Cl17864  -1.453   7.773   2.588  0.0103 -0.3858 -0.0678
  136MOL0     C17865  -0.266   8.093   2.583  1.4195  0.2479  0.0341
  136MOL0     C17866  -0.136   8.120   2.597 -0.1458 -0.1338 -0.6357
  136MOL0     O17867   0.093   8.005   2.757 -0.4180 -0.7655 -0.2908
  136MOL0     C17868   0.381   8.053   2.555  0.0485  0.4033  0.2678
  136MOL0     C17869   0.519   8.070   2.555  0.4269 -0.5937  0.6722
  136MOL0     N17870   1.281   8.313   2.585 -0.3690  0.0969  0.0161
  136MOL0     N17871   1.292   8.433   2.536  0.1491  0.6702  0.1529
  136MOL0     C17872   2.360   8.501   1.892 -0.4601  0.5743 -1.1148
  136MOL0     C17873   2.492   8.466   1.862  0.6531 -0.1910  1.0838
  136MOL0     C17874   2.907   8.255   1.908  0.4330 -0.2637  0.6552
  136MOL0     C17875   3.000   8.149   1.937  0.2829 -0.2420 -0.3049
  136MOL0     C17876   3.144   8.166   1.927 -0.7393 -0.5479 -0.5008
  136MOL0     C17877   3.191   8.296   1.897  0.9836 -0.2820  0.9519
  136MOL0     O17878   3.328   8.326   1.880 -0.2480 -0.5954  0.4187
  136MOL0     C17879   3.406   8.292   1.990 -0.2387  0.1891 -1.2147
  136MOL0     C17880   3.353   8.358   2.115 -0.1675  0.1981  0.4722
  136MOL0     C17881   3.327   8.507   2.117  0.3014 -0.2795 -0.1366
  136MOL0     C17882   3.454   8.576   2.171  0.2390 -0.1652  0.6445
  136MOL0     C17883   3.560   8.595   2.072 -0.5664 -0.4873  0.5374
  136MOL0     C17884   3.633   8.598   1.977 -0.1919  0.5518 -0.8010
  136MOL0     C17885   3.094   8.402   1.885 -0.1349  0.1841 -0.0688
  136MOL0     C17886   2.962   8.384   1.901 -0.2384  0.2927 -0.1506
  136MOL0     H17887   2.529   8.186   2.069 -0.9036  0.3752 -0.5616
  136MOL0     H17888   2.293   8.235   2.096 -0.2100 -2.1901 -0.7847
  136MOL0     H17889   2.069   8.617   1.947  0.4383  0.9628 -0.7292
  136MOL0     H17890   2.175   8.585   2.081  1.1609  1.0843 -4.2549
  136MOL0     H17891   1.975   8.435   2.167 -1.4163  0.6685  1.1918
  136MOL0     H17892   1.887   8.507   2.022 -1.4524  0.5091  1.0701
  136MOL0     H17893   1.892   8.723   2.113 -2.0640 -1.5275 -2.8845
  136MOL0     H17894   1.976   8.658   2.264  0.6952  3.6145 -2.1063
  136MOL0     H17895   1.768   8.517   2.304 -2.2819  1.3813  3.1216
  136MOL0     H17896   1.753   8.693   2.323  3.2424  0.3382  0.1567
  136MOL0     H17897   1.651   8.512   2.094 -1.2182 -0.1654 -1.2952
  136MOL0     H17898   1.669   8.683   2.065 -2.0705 -1.5279 -1.0010
  136MOL0     H17899   1.445   8.651   2.135  0.7027  2.4993  0.6299
  136MOL0     H17900   1.516   8.736   2.258  1.9846  0.2712 -0.7448
  136MOL0     H17901   1.510   8.425   2.284  2.2235  0.2862  1.0031
  136MOL0     H17902   1.497   8.550   2.404 -2.0737 -0.0802  0.7608
  136MOL0     H17903   1.280   8.506   2.203  1.7607 -1.1303 -0.8489
  136MOL0     H17904   1.274   8.613   2.345 -1.1876  0.1664 -2.2380
  136MOL0     H17905   1.156   8.252   2.293  0.6254 -1.5911 -0.3763
  136MOL0     H17906   1.218   8.054   2.627 -4.1563 -0.2732  0.8158
  136MOL0     H17907   1.252   8.015   2.461  0.5728  1.3905 -0.7681
  136MOL0     H17908   1.053   7.934   2.518  0.4817  0.0433  4.1107
  136MOL0     H17909   1.019   8.054   2.398  0.3750  0.1937 -0.4030
  136MOL0     H17910   0.978   8.055   2.693 -0.4394  1.5627  0.6097
  136MOL0     H17911   0.966   8.209   2.621  3.7405 -0.9418  1.1283
  136MOL0     H17912   0.813   7.961   2.532  1.7855 -0.6922  2.2230
  136MOL0     H17913   0.765   8.133   2.484 -0.2275 -0.0342  0.0235
  136MOL0     H17914   0.551   8.085   2.892 -1.4306 -3.3648  0.3460
  136MOL0     H17915   0.304   8.070   2.875 -2.2890  2.4712 -1.3098
  136MOL0     H17916  -0.007   7.947   2.342  0.8290 -0.1810  1.7743
  136MOL0     H17917  -0.254   7.914   2.303  2.5542  0.0680 -0.2614
  136MOL0     H17918  -0.566   8.121   2.580  1.9741  0.3352  0.3118
  136MOL0     H17919  -0.520   7.960   2.640 -0.2231  0.8406  0.3125
  136MOL0     H17920  -0.680   7.855   2.470 -1.0338 -0.6839 -0.0244
  136MOL0     H17921  -0.728   8.024   2.431  3.4717  2.0311  1.0051
  136MOL0     H17922  -0.817   8.048   2.649 -0.2142 -0.4495 -0.8582
  136MOL0     H17923  -0.741   7.888   2.705 -2.9834 -2.6727  0.5856
  136MOL0     H17924  -0.895   7.856   2.465  1.1625  3.8722 -0.5200
  136MOL0     H17925  -0.902   7.775   2.626  3.9732  1.5454  2.1662
  136MOL0     H17926  -1.029   8.049   2.583 -1.7179  0.6046  0.9496
  136MOL0     H17927  -1.067   7.937   2.708 -1.2557 -0.6943 -1.0986
  136MOL0     H17928  -1.187   7.795   2.555  0.0480  0.1419  2.5327
  136MOL0     H17929  -1.146   7.895   2.413  3.1043 -0.1200  0.2349
  136MOL0     H17930  -1.285   8.001   2.649 -0.0028 -1.8082  0.0023
  136MOL0     H17931  -1.260   8.076   2.482  0.2871 -0.2714  0.2254
  136MOL0     H17932  -1.406   7.888   2.397  0.3260  0.1131  0.1429
  136MOL0     H17933  -1.486   8.005   2.509  1.8570  1.2423 -1.1017
  136MOL0     H17934  -0.342   8.147   2.639  1.0983 -1.6217  1.5260
  136MOL0     H17935  -0.107   8.197   2.669 -1.1730 -0.0359 -0.3128
  136MOL0     H17936   0.340   8.048   2.454  1.2541 -1.1728 -0.2028
  136MOL0     H17937   0.562   8.074   2.456 -2.5089  0.8316 -0.6523
  136MOL0     H17938   2.303   8.588   1.860 -3.9890 -0.8608  0.7561
  136MOL0     H17939   2.553   8.533   1.801 -1.0540  0.5908  0.1770
  136MOL0     H17940   2.953   8.055   1.965  0.1686  0.5055  2.2785
  136MOL0     H17941   3.215   8.085   1.937  4.9994  3.6867 -1.3853
  136MOL0     H17942   3.512   8.316   1.978  0.2153 -1.7372 -1.4530
  136MOL0     H17943   3.410   8.184   2.006  0.2854  0.5848  1.9749
  136MOL0     H17944   3.257   8.318   2.147 -0.5879  0.2560 -0.6742
  136MOL0     H17945   3.428   8.326   2.188 -0.2327  0.6426  0.7343
  136MOL0     H17946   3.239   8.532   2.178 -1.0012  1.0468 -2.4038
  136MOL0     H17947   3.303   8.545   2.018  2.3173 -2.1513 -1.4357
  136MOL0     H17948   3.447   8.681   2.202  0.9638  0.5138 -1.3072
  136MOL0     H17949   3.499   8.514   2.249  2.6756 -0.6388 -1.0365
  136MOL0     H17950   3.693   8.599   1.888  2.4594  1.7281  0.8777
  136MOL0     H17951   3.122   8.506   1.869 -1.2213  0.8804  2.0693
  136MOL0     H17952   2.892   8.467   1.897 -1.3189 -0.6039 -0.1992
  137MOL0     O17953   9.166   5.261   4.650  0.4230 -0.1127 -0.2922
  137MOL0     C17954   9.230   5.270   4.754 -0.1577  0.2345 -0.4959
  137MOL0     O17955   9.201   5.208   4.876 -0.2003  0.0586 -0.1591
  137MOL0     C17956   9.086   5.138   4.897  1.1927 -0.5667 -1.0655
  137MOL0     C17957   9.057   5.112   5.034 -0.7103  1.6770  1.1897
  137MOL0     C17958   8.952   5.032   5.064  0.6553  0.6171  0.9232
  137MOL0     C17959   8.880   4.964   4.967 -0.3285 -0.2346 -0.2445
  137MOL0     O17960   8.781   4.877   5.010 -0.0011  0.1827 -0.9034
  137MOL0     C17961   8.653   4.886   4.944 -0.0799  0.6402 -0.6793
  137MOL0     C17962   8.542   4.822   5.027  0.1374  0.3793  0.0405
  137MOL0     C17963   8.412   4.812   4.946  0.1122  0.0735  0.0152
  137MOL0     C17964   8.300   4.761   5.037  0.5645  0.5964  0.0373
  137MOL0     C17965   8.168   4.761   4.967 -0.8249  0.1325  0.3930
  137MOL0     C17966   8.107   4.901   4.931  0.8639 -0.4358 -0.3016
  137MOL0     C17967   7.956   4.903   4.929 -0.1235  0.2144 -0.1194
  137MOL0     C17968   7.881   4.830   4.817 -0.7573 -0.0213 -0.3066
  137MOL0     N17969   7.736   4.839   4.818 -1.1183 -0.0592 -0.1302
  137MOL0     C17970   7.670   4.956   4.833 -0.1361  0.8015 -0.5365
  137MOL0     C17971   7.541   4.913   4.844 -0.1232 -0.1488 -0.0492
  137MOL0     C17972   7.426   5.002   4.896  0.6623  0.0006  1.3242
  137MOL0     C17973   7.294   4.972   4.825 -0.4071 -1.1824  0.5750
  137MOL0     C17974   7.207   4.853   4.873  0.1432  0.4212  0.3372
  137MOL0     C17975   7.105   4.894   4.983  0.3352 -0.7333 -0.8686
  137MOL0     O17976   6.989   4.956   4.919  0.3961  0.3176  0.0035
  137MOL0     C17977   6.878   4.876   4.873  0.2455  0.5421  0.1757
  137MOL0     C17978   6.883   4.735   4.845 -0.4350  0.1100 -0.3177
  137MOL0     C17979   6.774   4.656   4.817  0.2412 -0.1992  0.5200
  137MOL0     C17980   6.653   4.728   4.816 -0.2028 -0.3767 -0.9935
  137MOL0     C17981   6.524   4.651   4.794  0.4921  0.7400  0.2358
  137MOL0     O17982   6.531   4.519   4.787  0.1082  0.1425 -0.2185
  137MOL0     C17983   6.426   4.442   4.742  0.2763 -0.1375  0.1963
  137MOL0     C17984   6.365   4.451   4.612 -0.8130 -0.4864 -0.2640
  137MOL0     C17985   6.277   4.352   4.569 -0.7188 -0.0683 -0.5805
  137MOL0     C17986   6.228   4.256   4.658  0.4552 -1.1480 -0.0957
  137MOL0     O17987   6.142   4.156   4.612  0.0383  0.2115  0.1442
  137MOL0     C17988   6.007   4.191   4.587  0.6647  0.6298 -0.1673
  137MOL0     C17989   5.933   4.080   4.509 -1.0506  0.1615  0.1036
  137MOL0     C17990   5.981   4.038   4.366 -0.1595 -1.2242 -0.4760
  137MOL0     C17991   5.891   3.940   4.297 -0.2593 -0.4328  0.6132
  137MOL0     C17992   5.924   3.928   4.155  0.4017  0.2530  0.6026
  137MOL0     C17993   5.882   4.051   4.061 -0.4229  0.0348 -0.4734
  137MOL0     C17994   5.733   4.080   4.070  0.0913 -0.5987 -0.2609
  137MOL0     C17995   5.697   4.213   4.006 -0.3027  0.6754  0.2984
  137MOL0    Cl17996   5.711   4.352   4.117  0.1352  0.0572  0.2634
  137MOL0     C17997   6.290   4.248   4.787  0.0969  0.6124  0.2095
  137MOL0     C17998   6.391   4.332   4.824  1.4821  0.4216  0.2424
  137MOL0     O17999   6.426   4.715   4.760 -0.4851 -1.1095  0.4910
  137MOL0     C18000   6.646   4.867   4.819 -0.3691  0.4805 -0.3893
  137MOL0     C18001   6.763   4.939   4.846  0.5187 -0.1641 -0.2144
  137MOL0     N18002   7.531   4.778   4.839  0.2099 -0.0886 -0.2398
  137MOL0     N18003   7.648   4.737   4.821 -0.6966 -0.6634  0.4663
  137MOL0     C18004   8.914   4.982   4.835 -0.3003  0.2719  0.0582
  137MOL0     C18005   9.013   5.077   4.798  0.2555  0.0950 -0.4437
  137MOL0     C18006   9.364   5.338   4.750 -0.5081  0.0356  0.5561
  137MOL0     C18007   9.417   5.393   4.869  0.4873 -0.1949  0.7860
  137MOL0     C18008   9.548   5.440   4.871  0.6648  0.0098 -0.8000
  137MOL0     C18009   9.627   5.442   4.764 -0.8289 -0.7835 -0.5008
  137MOL0     O18010   9.759   5.484   4.780 -0.4605 -0.6024  0.5366
  137MOL0     C18011   9.856   5.470   4.681 -0.3522 -0.9313 -0.2408
  137MOL0     C18012   9.983   5.543   4.731  0.7159  1.0621  0.0940
  137MOL0     C18013   9.963   5.690   4.767  0.3627  0.1207 -0.2755
  137MOL0     C18014  10.079   5.763   4.830  0.0158  0.4164  0.0747
  137MOL0     C18015  10.178   5.832   4.741  0.8745 -0.0084 -0.0424
  137MOL0     C18016  10.252   5.882   4.661 -0.1796  0.6481 -0.9372
  137MOL0     C18017   9.575   5.405   4.644  1.1344  0.1523  0.1957
  137MOL0     C18018   9.444   5.354   4.629 -0.4616 -0.0462  0.0380
  137MOL0     H18019   9.127   5.158   5.104  3.2325 -1.6261 -0.1201
  137MOL0     H18020   8.932   5.019   5.169  0.6478 -3.4165  0.5657
  137MOL0     H18021   8.665   4.849   4.841 -0.0573  2.4840 -1.3938
  137MOL0     H18022   8.627   4.991   4.928 -2.3073 -0.1945 -3.5320
  137MOL0     H18023   8.512   4.885   5.112 -2.0855 -1.3431  0.6383
  137MOL0     H18024   8.572   4.722   5.058 -0.2218  0.6402  1.3108
  137MOL0     H18025   8.426   4.738   4.866  0.1044  1.3093 -1.1530
  137MOL0     H18026   8.391   4.916   4.920  1.6511  1.1036  2.5030
  137MOL0     H18027   8.331   4.659   5.061 -1.0112 -0.1326 -0.8950
  137MOL0     H18028   8.288   4.825   5.124  1.8626 -0.2458  0.8637
  137MOL0     H18029   8.089   4.708   5.022 -1.2343 -0.4535 -0.7371
  137MOL0     H18030   8.167   4.709   4.871  0.0590  1.7348 -0.5241
  137MOL0     H18031   8.149   4.931   4.835  0.1527  1.8363  0.0455
  137MOL0     H18032   8.147   4.976   4.999  1.2012  0.3223 -1.3168
  137MOL0     H18033   7.911   4.881   5.026 -0.4943  0.1700 -0.2972
  137MOL0     H18034   7.920   5.005   4.919 -3.6127 -0.6792  1.7238
  137MOL0     H18035   7.901   4.722   4.816 -1.7253 -0.2056 -1.5514
  137MOL0     H18036   7.903   4.866   4.716  2.9736  1.7669  0.9505
  137MOL0     H18037   7.703   5.058   4.848  2.8607 -0.1388 -0.0332
  137MOL0     H18038   7.448   5.109   4.886 -0.7841  0.7828  5.0856
  137MOL0     H18039   7.423   4.990   5.004 -1.5378 -1.2787  1.1689
  137MOL0     H18040   7.306   4.965   4.716 -3.4120  3.8130 -0.4184
  137MOL0     H18041   7.230   5.060   4.835 -1.8281 -2.3812  2.7642
  137MOL0     H18042   7.148   4.799   4.799 -1.6062  2.5580  0.0941
  137MOL0     H18043   7.282   4.787   4.918  0.3591 -1.0068 -1.9712
  137MOL0     H18044   7.150   4.961   5.056  0.0523  0.3947 -1.7001
  137MOL0     H18045   7.063   4.809   5.036 -1.5264  0.1336 -0.8898
  137MOL0     H18046   6.980   4.689   4.858 -1.0403 -0.4466  3.3451
  137MOL0     H18047   6.783   4.548   4.815  0.1753 -0.2259  1.3158
  137MOL0     H18048   6.388   4.531   4.542 -0.2922  0.5874  1.1061
  137MOL0     H18049   6.242   4.365   4.468 -1.0871  1.3231 -0.2971
  137MOL0     H18050   6.004   4.286   4.534  2.7389  1.3959  0.9815
  137MOL0     H18051   5.961   4.203   4.686  0.8215 -0.5260  0.0645
  137MOL0     H18052   5.833   4.123   4.515  0.1042  3.1972 -0.6146
  137MOL0     H18053   5.941   3.991   4.572  3.8150 -0.0924 -0.5337
  137MOL0     H18054   6.084   4.001   4.372 -0.5512 -2.6395 -1.8365
  137MOL0     H18055   5.984   4.136   4.319  1.3527 -1.1695 -0.3091
  137MOL0     H18056   5.905   3.837   4.330  0.2746 -0.3685  0.6082
  137MOL0     H18057   5.786   3.959   4.320 -0.1031 -0.6344  1.5502
  137MOL0     H18058   5.887   3.836   4.109  0.1175  1.5676 -2.0009
  137MOL0     H18059   6.032   3.910   4.142 -0.3919 -2.9469 -4.5360
  137MOL0     H18060   5.911   4.032   3.957 -0.6463  0.6124 -0.6456
  137MOL0     H18061   5.943   4.137   4.089  1.0169 -1.3629  0.9666
  137MOL0     H18062   5.668   4.002   4.029 -0.3678  0.0278 -0.7330
  137MOL0     H18063   5.698   4.080   4.173  0.6472  0.4042 -0.0627
  137MOL0     H18064   5.602   4.204   3.952  0.5818 -0.3430 -1.1578
  137MOL0     H18065   5.772   4.233   3.928 -2.0695 -1.7576 -2.2244
  137MOL0     H18066   6.271   4.160   4.848  2.5919 -1.0670 -1.2414
  137MOL0     H18067   6.426   4.322   4.926  0.3866 -2.0603  0.4528
  137MOL0     H18068   6.551   4.917   4.803 -0.8388  0.2317  1.3883
  137MOL0     H18069   6.761   5.047   4.854 -0.2030 -0.1202 -0.8709
  137MOL0     H18070   8.868   4.920   4.759 -2.1961 -1.3371  2.3683
  137MOL0     H18071   9.045   5.087   4.694 -0.5426  1.7400 -0.5741
  137MOL0     H18072   9.349   5.389   4.954 -1.0040  2.0228 -0.2221
  137MOL0     H18073   9.582   5.465   4.971 -0.5654 -1.8800  0.1581
  137MOL0     H18074   9.820   5.518   4.590 -0.7732  0.5058  0.6434
  137MOL0     H18075   9.884   5.365   4.669 -1.6941 -1.1628 -1.6566
  137MOL0     H18076  10.010   5.491   4.823  0.0764  1.0518  0.2863
  137MOL0     H18077  10.059   5.526   4.655 -1.4780 -1.3439 -1.7712
  137MOL0     H18078   9.887   5.691   4.846 -1.4794  1.4403 -1.9622
  137MOL0     H18079   9.918   5.748   4.686 -0.2175  0.6651  0.4287
  137MOL0     H18080  10.038   5.844   4.892 -2.3020  0.8209 -1.8389
  137MOL0     H18081  10.135   5.689   4.888  0.4416  0.6187 -0.0728
  137MOL0     H18082  10.331   5.915   4.597  0.1743  2.3305  0.2947
  137MOL0     H18083   9.634   5.407   4.553 -0.4764  3.2994 -0.9334
  137MOL0     H18084   9.418   5.311   4.533  1.8931 -0.6579 -0.3794
  138MOL0     O18085   2.100   8.861   0.889 -0.0871  0.7624  0.3052
  138MOL0     C18086   2.073   8.975   0.920  0.1398 -0.1837 -0.1182
  138MOL0     O18087   2.002   9.054   0.829  1.0371 -0.2687 -0.0855
  138MOL0     C18088   1.941   9.000   0.709 -0.5805 -0.1060 -0.4692
  138MOL0     C18089   1.835   8.913   0.728  0.2128 -0.1535 -0.8311
  138MOL0     C18090   1.779   8.849   0.620 -0.5027  0.4323 -0.2826
  138MOL0     C18091   1.837   8.859   0.492  0.2519  0.1096 -0.6094
  138MOL0     O18092   1.797   8.790   0.384  0.0063 -1.2012  0.1270
  138MOL0     C18093   1.708   8.686   0.399 -0.1724  0.2551  0.1998
  138MOL0     C18094   1.673   8.630   0.259  0.1521 -0.4088  0.2960
  138MOL0     C18095   1.612   8.499   0.269 -0.1968 -0.2916  0.0197
  138MOL0     C18096   1.463   8.497   0.314 -0.9380 -0.1735  0.6933
  138MOL0     C18097   1.437   8.372   0.395 -0.2235  0.2821 -0.0223
  138MOL0     C18098   1.447   8.395   0.545 -0.6891  1.0075 -0.5023
  138MOL0     C18099   1.350   8.498   0.598 -0.8214  0.2609  0.2107
  138MOL0     C18100   1.300   8.477   0.736 -0.8523  0.8801 -0.1199
  138MOL0     N18101   1.211   8.362   0.740 -0.5907 -0.3768 -0.3866
  138MOL0     C18102   1.249   8.235   0.747  0.8838  1.1430  0.0426
  138MOL0     C18103   1.134   8.170   0.720 -0.5318  0.4217 -0.1753
  138MOL0     C18104   1.102   8.021   0.721 -0.2645 -0.2952  0.1461
  138MOL0     C18105   1.108   7.973   0.870  0.1415  0.0894 -0.1815
  138MOL0     C18106   1.069   7.833   0.904 -0.3214 -0.4498 -0.3578
  138MOL0     C18107   0.915   7.833   0.923  0.3050 -0.8291  0.4631
  138MOL0     O18108   0.859   7.707   0.897 -0.3593  0.3801 -0.4937
  138MOL0     C18109   0.731   7.673   0.911  0.2517  0.5276 -0.1959
  138MOL0     C18110   0.643   7.753   0.988  0.2701  0.3556 -0.4618
  138MOL0     C18111   0.509   7.707   1.006 -0.9593 -0.8818  0.4678
  138MOL0     C18112   0.461   7.585   0.953 -0.1499 -0.5036  1.1425
  138MOL0     C18113   0.316   7.550   0.953  0.5954  0.0219 -0.6074
  138MOL0     O18114   0.229   7.630   1.032  0.0449 -0.0763 -0.3107
  138MOL0     C18115   0.093   7.591   1.037  0.0913 -0.9773 -1.4786
  138MOL0     C18116   0.015   7.591   0.921 -0.0623  0.0202  0.3101
  138MOL0     C18117  -0.118   7.559   0.922  0.6097 -1.1577  0.1136
  138MOL0     C18118  -0.171   7.503   1.042 -0.0130 -0.1125 -0.1811
  138MOL0     O18119  -0.297   7.449   1.067 -0.1512  0.1729 -0.1846
  138MOL0     C18120  -0.338   7.338   0.986 -0.4265 -0.4308 -0.7982
  138MOL0     C18121  -0.488   7.349   0.959 -1.4545  0.3457  0.2646
  138MOL0     C18122  -0.571   7.362   1.085  1.0685  0.0536  0.7563
  138MOL0     C18123  -0.720   7.364   1.045  0.0655  0.5573  0.3867
  138MOL0     C18124  -0.802   7.361   1.178  0.3032 -0.1521  0.3445
  138MOL0     C18125  -0.954   7.387   1.165  0.3681 -0.1433 -0.5139
  138MOL0     C18126  -1.022   7.398   1.304 -0.7643  0.3673 -0.6750
  138MOL0     C18127  -1.165   7.449   1.288 -0.6953 -0.4393  0.4445
  138MOL0    Cl18128  -1.260   7.345   1.172  0.5978  0.3501  0.3367
  138MOL0     C18129  -0.093   7.497   1.155  0.7602 -0.5065 -1.3995
  138MOL0     C18130   0.040   7.540   1.156 -0.3492  0.3019  0.5464
  138MOL0     O18131   0.284   7.455   0.884  0.5226  0.6280 -0.3076
  138MOL0     C18132   0.552   7.503   0.892 -0.4045 -0.1880  0.3783
  138MOL0     C18133   0.687   7.542   0.867  0.4609  0.5966  0.3529
  138MOL0     N18134   1.037   8.263   0.693 -0.0282 -0.3227 -0.2924
  138MOL0     N18135   1.088   8.372   0.702  0.8752 -0.4780 -0.0559
  138MOL0     C18136   1.947   8.938   0.479  0.7692  0.0350  0.2037
  138MOL0     C18137   1.999   9.014   0.581 -0.8043 -0.2890 -0.0286
  138MOL0     C18138   2.111   9.041   1.041  0.1713 -0.7134 -0.0604
  138MOL0     C18139   2.185   8.973   1.143  0.3403  0.6576  0.9017
  138MOL0     C18140   2.236   9.026   1.260  0.7083  0.0102  0.8226
  138MOL0     C18141   2.197   9.163   1.280  0.1581  0.4421 -0.1337
  138MOL0     O18142   2.221   9.222   1.403 -0.6851 -0.6546  0.1854
  138MOL0     C18143   2.354   9.262   1.424 -0.1488  0.7923 -0.6054
  138MOL0     C18144   2.352   9.376   1.518 -0.1875 -0.7725  0.7248
  138MOL0     C18145   2.280   9.495   1.447 -1.0310 -0.1313  0.3148
  138MOL0     C18146   2.271   9.615   1.536  0.7436 -0.1913  0.1035
  138MOL0     C18147   2.184   9.719   1.466  0.2257 -0.4943 -0.4131
  138MOL0     C18148   2.136   9.816   1.419 -0.9998  0.3405 -0.7043
  138MOL0     C18149   2.125   9.237   1.189  0.2479  1.2690  0.1787
  138MOL0     C18150   2.085   9.174   1.071 -0.0405  0.0214  0.0483
  138MOL0     H18151   1.797   8.901   0.828  2.8860 -2.4396  0.0335
  138MOL0     H18152   1.705   8.775   0.651 -0.6612  0.3147 -0.9275
  138MOL0     H18153   1.613   8.713   0.445 -0.2961  0.4015 -0.1417
  138MOL0     H18154   1.756   8.602   0.451 -2.4068  0.0133  2.0117
  138MOL0     H18155   1.764   8.613   0.201 -0.7543  0.0219 -1.3208
  138MOL0     H18156   1.611   8.711   0.220 -0.0623  0.2970  1.9946
  138MOL0     H18157   1.665   8.441   0.345 -1.2154 -0.1414  0.8734
  138MOL0     H18158   1.642   8.440   0.183  4.8201 -0.5776  1.6625
  138MOL0     H18159   1.429   8.591   0.358 -2.2589  0.0649 -0.7560
  138MOL0     H18160   1.407   8.488   0.220  0.7803  2.5578 -0.7394
  138MOL0     H18161   1.494   8.282   0.372 -0.2270 -0.5151  2.7712
  138MOL0     H18162   1.333   8.342   0.375  0.5378 -0.7814 -2.8703
  138MOL0     H18163   1.548   8.431   0.568 -0.3975  0.8942 -1.5635
  138MOL0     H18164   1.437   8.294   0.586 -0.6642  0.7834 -1.0474
  138MOL0     H18165   1.399   8.596   0.600  0.6822 -0.4223 -1.1382
  138MOL0     H18166   1.261   8.509   0.535  0.3652 -1.1613 -1.8352
  138MOL0     H18167   1.246   8.567   0.767 -1.0393  0.5304  0.5709
  138MOL0     H18168   1.386   8.457   0.799 -2.4033 -2.0622  1.2578
  138MOL0     H18169   1.350   8.204   0.773  0.2272  1.2191  2.9769
  138MOL0     H18170   1.164   7.969   0.648  1.9613  0.1827  1.6278
  138MOL0     H18171   0.996   8.017   0.691 -0.5174  1.9958  0.5505
  138MOL0     H18172   1.059   8.036   0.946 -0.6541  1.3771 -1.7114
  138MOL0     H18173   1.213   7.971   0.903 -0.0872 -0.4174  0.5305
  138MOL0     H18174   1.091   7.767   0.819 -0.1774 -0.2025 -0.5126
  138MOL0     H18175   1.116   7.776   0.985 -1.5030 -3.7537 -1.8246
  138MOL0     H18176   0.874   7.910   0.858  1.8389  0.0694  0.5100
  138MOL0     H18177   0.881   7.866   1.022  0.4428 -2.4444  1.0879
  138MOL0     H18178   0.669   7.855   1.016  0.2388  0.2026  0.1193
  138MOL0     H18179   0.439   7.781   1.045 -2.5239 -0.7708 -2.2970
  138MOL0     H18180   0.056   7.630   0.829 -0.6203  1.7578  0.7440
  138MOL0     H18181  -0.185   7.565   0.837 -0.4813  0.5029  1.0414
  138MOL0     H18182  -0.327   7.248   1.046  0.3686  0.5001  0.4908
  138MOL0     H18183  -0.282   7.322   0.893 -0.6226 -1.1716 -0.7923
  138MOL0     H18184  -0.513   7.263   0.897 -1.5114  1.1509 -0.8658
  138MOL0     H18185  -0.502   7.442   0.902  0.8927  1.0014  0.6568
  138MOL0     H18186  -0.535   7.446   1.145  3.1960  1.0507 -1.7179
  138MOL0     H18187  -0.543   7.273   1.142 -0.1423  0.8219  2.6410
  138MOL0     H18188  -0.737   7.451   0.981 -1.6003 -0.2702 -0.3720
  138MOL0     H18189  -0.746   7.270   0.994 -0.7812  1.1748 -0.3598
  138MOL0     H18190  -0.764   7.443   1.239  1.6024 -1.3338  1.1969
  138MOL0     H18191  -0.787   7.260   1.218 -0.8520 -0.0969  0.9727
  138MOL0     H18192  -1.003   7.312   1.103  0.0113 -0.9485  0.7016
  138MOL0     H18193  -0.963   7.476   1.103  1.9569  0.1138 -0.4238
  138MOL0     H18194  -1.035   7.298   1.347  0.1871  0.7558  0.5814
  138MOL0     H18195  -0.948   7.445   1.370  0.5248 -2.4033  0.0264
  138MOL0     H18196  -1.168   7.555   1.259  2.0016 -0.1186  1.1033
  138MOL0     H18197  -1.238   7.443   1.369 -2.1233 -0.8187 -0.7975
  138MOL0     H18198  -0.139   7.472   1.251 -4.2346  3.5599 -2.2716
  138MOL0     H18199   0.097   7.533   1.248  1.8198  2.0516 -0.5387
  138MOL0     H18200   0.518   7.406   0.857  0.0263  0.6410 -2.6888
  138MOL0     H18201   0.746   7.470   0.812 -3.3809 -2.5149 -0.1875
  138MOL0     H18202   1.991   8.945   0.380  2.4310 -1.3946  0.7931
  138MOL0     H18203   2.079   9.087   0.570  0.7441 -1.7029  1.3345
  138MOL0     H18204   2.207   8.869   1.118 -1.4616  0.3740  0.3710
  138MOL0     H18205   2.301   8.974   1.330  1.3466 -2.2116 -1.2902
  138MOL0     H18206   2.407   9.285   1.331  0.9113  1.0167  0.0523
  138MOL0     H18207   2.408   9.185   1.480  1.8758  3.3395  1.1441
  138MOL0     H18208   2.301   9.357   1.613  0.2608 -3.2627  0.5301
  138MOL0     H18209   2.457   9.402   1.533 -0.1096  2.9016 -3.9224
  138MOL0     H18210   2.179   9.461   1.423 -1.1608 -0.1996  0.9240
  138MOL0     H18211   2.325   9.515   1.349 -2.4327  2.7189  0.1628
  138MOL0     H18212   2.221   9.591   1.631 -0.5178  2.7202  0.2821
  138MOL0     H18213   2.374   9.646   1.556  0.9106 -1.2119  0.9051
  138MOL0     H18214   2.087   9.899   1.372 -0.5191  0.5235 -0.8853
  138MOL0     H18215   2.116   9.345   1.201 -0.1707  0.9947  3.0379
  138MOL0     H18216   2.030   9.230   0.996  0.8967 -0.8193 -1.3161
  139MOL0     O18217   8.516  10.409   8.122 -0.3206 -0.0416  0.0541
  139MOL0     C18218   8.500  10.429   8.001  0.2916 -0.2879  0.2878
  139MOL0     O18219   8.376  10.441   7.930  0.2587  0.3441 -0.5961
  139MOL0     C18220   8.253  10.457   8.001  0.1674  0.3852  0.7153
  139MOL0     C18221   8.137  10.432   7.924  0.1398  0.6243 -0.4415
  139MOL0     C18222   8.012  10.442   7.984 -0.2337  0.6978 -0.0562
  139MOL0     C18223   7.999  10.483   8.119  0.7210 -0.4276 -0.5333
  139MOL0     O18224   7.871  10.493   8.175  0.4911  0.1279 -0.3654
  139MOL0     C18225   7.784  10.375   8.157 -0.0752  0.1605 -0.2948
  139MOL0     C18226   7.646  10.429   8.199  0.4216 -0.3453  0.5546
  139MOL0     C18227   7.548  10.307   8.184  0.1503 -0.3613 -0.0645
  139MOL0     C18228   7.402  10.344   8.208 -0.3447 -0.2310 -0.5822
  139MOL0     C18229   7.319  10.234   8.245 -0.0034  0.3722  0.7135
  139MOL0     C18230   7.180  10.279   8.301 -0.0297  0.2786  0.2039
  139MOL0     C18231   7.094  10.372   8.212  0.6622 -0.5383  0.1651
  139MOL0     C18232   7.054  10.315   8.078 -0.1887 -1.5957 -0.3371
  139MOL0     N18233   6.949  10.404   8.026 -0.0522 -0.6044  0.6208
  139MOL0     C18234   6.908  10.412   7.894 -0.1323  0.4272 -0.0954
  139MOL0     C18235   6.796  10.486   7.888 -0.5860  0.4126 -0.4005
  139MOL0     C18236   6.723  10.509   7.761  0.0932  0.0744 -0.4990
  139MOL0     C18237   6.769  10.647   7.707  0.0377  0.6709 -0.4800
  139MOL0     C18238   6.704  10.671   7.576  0.4515  0.2806  0.4700
  139MOL0     C18239   6.786  10.786   7.513  0.2886 -0.4542  0.2009
  139MOL0     O18240   6.739  10.836   7.387 -0.2870 -0.4771  0.2251
  139MOL0     C18241   6.610  10.895   7.381 -1.0584  0.2448  0.6707
  139MOL0     C18242   6.593  11.015   7.447  0.9509  0.2920 -0.0840
  139MOL0     C18243   6.474  11.084   7.427  0.2859 -0.4856 -0.2861
  139MOL0     C18244   6.369  11.036   7.349 -0.2291  0.3375  0.7810
  139MOL0     C18245   6.242  11.115   7.330  0.1782  1.1808  0.0112
  139MOL0     O18246   6.249  11.234   7.394  1.0101  0.9384 -0.4667
  139MOL0     C18247   6.138  11.313   7.375  0.0442 -0.3265  0.0270
  139MOL0     C18248   6.155  11.425   7.296 -1.3010  1.1612  1.2450
  139MOL0     C18249   6.052  11.502   7.257 -0.6586 -0.7716 -0.7401
  139MOL0     C18250   5.928  11.494   7.326 -0.6555 -0.8102  0.4492
  139MOL0     O18251   5.834  11.591   7.296 -0.2024  0.6378 -0.2057
  139MOL0     C18252   5.703  11.543   7.318  0.4384 -0.7194  0.5436
  139MOL0     C18253   5.614  11.646   7.249 -0.2160  0.2347 -0.4758
  139MOL0     C18254   5.467  11.626   7.277  0.1022  0.6328  0.5670
  139MOL0     C18255   5.383  11.693   7.163  1.1854  0.0993  1.2079
  139MOL0     C18256   5.239  11.653   7.179  0.7492 -0.5412  0.2262
  139MOL0     C18257   5.153  11.723   7.072  0.2606 -0.4012 -0.1087
  139MOL0     C18258   5.002  11.705   7.105 -0.8299 -0.0688  1.0288
  139MOL0     C18259   4.930  11.750   6.984 -0.5586  0.5593  0.2686
  139MOL0    Cl18260   4.761  11.697   6.989 -0.0814 -0.6765 -0.0473
  139MOL0     C18261   5.915  11.390   7.422  0.4893 -0.2505 -0.7368
  139MOL0     C18262   6.018  11.293   7.440  0.5067  0.3577 -0.4628
  139MOL0     O18263   6.152  11.071   7.271  0.1832 -0.1825  0.5354
  139MOL0     C18264   6.380  10.900   7.303  1.0348 -0.6327  0.0941
  139MOL0     C18265   6.505  10.839   7.311 -0.0617  0.3034  0.2208
  139MOL0     N18266   6.765  10.518   8.023 -0.5641 -0.9562  0.1052
  139MOL0     N18267   6.858  10.472   8.099 -0.0417  0.3347  0.2873
  139MOL0     C18268   8.114  10.507   8.195  0.8574  0.4684 -0.5337
  139MOL0     C18269   8.239  10.496   8.138 -0.6672 -0.2618 -0.1004
  139MOL0     C18270   8.623  10.448   7.918  0.9056  1.2980  0.2695
  139MOL0     C18271   8.610  10.485   7.785 -0.1965 -0.0427  0.0969
  139MOL0     C18272   8.730  10.508   7.704  0.3884 -0.1487  0.3193
  139MOL0     C18273   8.853  10.492   7.763 -0.6628  0.4376  0.1869
  139MOL0     O18274   8.972  10.513   7.707  0.3254  0.4136 -0.2542
  139MOL0     C18275   8.982  10.633   7.631  1.3189  1.0029  0.5461
  139MOL0     C18276   9.118  10.682   7.629  0.4221 -0.2816  0.4967
  139MOL0     C18277   9.169  10.755   7.758 -0.2162  0.8131 -0.6273
  139MOL0     C18278   9.289  10.845   7.743 -0.3457 -0.6705  0.3646
  139MOL0     C18279   9.412  10.776   7.713  0.0965 -0.9553  0.0333
  139MOL0     C18280   9.521  10.735   7.672  0.6271  0.2795 -0.1086
  139MOL0     C18281   8.863  10.439   7.897 -0.4914  0.2711  0.3361
  139MOL0     C18282   8.749  10.427   7.978  0.1432  0.7129  0.6865
  139MOL0     H18283   8.143  10.393   7.823  3.5902 -2.8468  0.8178
  139MOL0     H18284   7.924  10.428   7.923 -0.2979 -0.1289  0.2157
  139MOL0     H18285   7.805  10.288   8.219 -4.4132  0.6528  2.3104
  139MOL0     H18286   7.777  10.329   8.058 -1.3684 -4.3388  1.6376
  139MOL0     H18287   7.622  10.512   8.130 -2.4196 -1.8362 -0.4011
  139MOL0     H18288   7.655  10.462   8.303  2.1413 -0.7899  0.5777
  139MOL0     H18289   7.587  10.250   8.269  3.7554 -0.4166 -1.6055
  139MOL0     H18290   7.554  10.255   8.089  0.2173 -0.1600 -0.1702
  139MOL0     H18291   7.405  10.422   8.285  3.8579 -1.3857  0.6838
  139MOL0     H18292   7.355  10.388   8.120  0.5263  1.7513 -0.1197
  139MOL0     H18293   7.360  10.169   8.322 -0.7205  2.1447  2.6768
  139MOL0     H18294   7.295  10.178   8.154 -2.4553  3.6485 -0.8985
  139MOL0     H18295   7.194  10.333   8.396  2.8943 -1.2885  0.7684
  139MOL0     H18296   7.129  10.187   8.329  1.4965 -1.0748 -1.2583
  139MOL0     H18297   7.006  10.398   8.272  1.0306 -0.0843  0.5160
  139MOL0     H18298   7.140  10.469   8.191 -0.9307  0.1186 -0.4857
  139MOL0     H18299   7.007  10.218   8.096  1.1783 -2.1456  0.4138
  139MOL0     H18300   7.140  10.314   8.010 -2.2924  1.1135 -3.3306
  139MOL0     H18301   6.964  10.381   7.806 -0.8636 -0.2916 -0.3187
  139MOL0     H18302   6.614  10.505   7.774  0.1666  2.1702  1.2266
  139MOL0     H18303   6.755  10.426   7.697 -1.4104 -0.2757 -0.8554
  139MOL0     H18304   6.877  10.637   7.690 -0.0440  0.2551 -0.7610
  139MOL0     H18305   6.761  10.731   7.777 -0.8845 -0.8252  1.2924
  139MOL0     H18306   6.722  10.591   7.504  2.0381 -0.0822  1.2268
  139MOL0     H18307   6.598  10.696   7.577  0.7417  1.6466 -0.3506
  139MOL0     H18308   6.891  10.760   7.500  0.4621  0.5432 -0.4913
  139MOL0     H18309   6.779  10.873   7.578 -3.3214  1.3620 -2.2558
  139MOL0     H18310   6.668  11.065   7.508  1.0837 -0.4509  0.3720
  139MOL0     H18311   6.465  11.178   7.481  1.6242  0.5216 -1.7341
  139MOL0     H18312   6.253  11.440   7.252 -1.6571  0.3341  0.1256
  139MOL0     H18313   6.053  11.575   7.177  0.3478  1.4463  1.1866
  139MOL0     H18314   5.681  11.525   7.423  0.6260 -4.3576  0.0737
  139MOL0     H18315   5.688  11.445   7.273  2.2127 -0.8762  0.2312
  139MOL0     H18316   5.640  11.634   7.143  2.4937  0.9831  0.0197
  139MOL0     H18317   5.653  11.743   7.279  2.6406 -0.6010 -1.1941
  139MOL0     H18318   5.444  11.667   7.376 -0.3831  0.4546  0.5308
  139MOL0     H18319   5.424  11.526   7.275 -0.8703  1.0555 -0.5563
  139MOL0     H18320   5.405  11.800   7.162 -0.2136  0.6483 -4.3823
  139MOL0     H18321   5.400  11.655   7.062 -2.2651 -0.8068  0.8488
  139MOL0     H18322   5.210  11.698   7.274  2.6229 -2.0221  1.5661
  139MOL0     H18323   5.234  11.544   7.170 -0.6055 -0.6594  2.0046
  139MOL0     H18324   5.168  11.685   6.971 -0.7165  0.2399 -0.5147
  139MOL0     H18325   5.174  11.830   7.061  3.5687 -0.8110  1.0092
  139MOL0     H18326   4.984  11.598   7.122 -2.6489 -0.1163 -0.6809
  139MOL0     H18327   4.983  11.762   7.196  0.9682  0.9669  0.7878
  139MOL0     H18328   4.973  11.702   6.896 -0.8624 -3.2707  2.0033
  139MOL0     H18329   4.935  11.858   6.969  0.0138  0.2578 -2.0729
  139MOL0     H18330   5.827  11.366   7.480  0.8959 -2.5437 -0.9803
  139MOL0     H18331   5.998  11.213   7.511  0.7567  1.2026  0.5829
  139MOL0     H18332   6.298  10.873   7.238  1.6303  0.3069 -1.0857
  139MOL0     H18333   6.531  10.759   7.242  0.6115  1.1104 -0.4988
  139MOL0     H18334   8.111  10.558   8.291 -3.0652  0.7227 -0.6289
  139MOL0     H18335   8.320  10.520   8.205 -1.6773 -1.2005  1.5098
  139MOL0     H18336   8.511  10.487   7.741 -1.7269 -3.0273  2.9170
  139MOL0     H18337   8.726  10.540   7.600 -0.6982  0.2921  0.4765
  139MOL0     H18338   8.910  10.708   7.666  1.2210  1.8552 -1.3553
  139MOL0     H18339   8.955  10.611   7.528  2.4347  0.6980  0.3069
  139MOL0     H18340   9.179  10.599   7.593 -1.4921 -1.6430  0.2598
  139MOL0     H18341   9.118  10.757   7.549  0.1447 -1.4825 -0.6571
  139MOL0     H18342   9.191  10.681   7.836  3.2943  0.8950 -1.3908
  139MOL0     H18343   9.083  10.811   7.797 -0.8578  0.0285 -0.8822
  139MOL0     H18344   9.276  10.924   7.668 -1.0967  0.5768  1.7536
  139MOL0     H18345   9.303  10.902   7.836 -0.1367  1.1521 -0.7375
  139MOL0     H18346   9.613  10.691   7.640  0.3871  1.9789 -3.5515
  139MOL0     H18347   8.966  10.420   7.927 -0.5755 -0.7524  0.0237
  139MOL0     H18348   8.769  10.393   8.079 -0.7772 -2.4637 -0.0779
  140MOL0     O18349   0.192   9.858  10.122  0.5983  0.3367  0.2093
  140MOL0     C18350   0.152   9.943  10.201  0.2994  0.9079 -0.1306
  140MOL0     O18351   0.019   9.990  10.207  0.2315 -0.0010  0.1614
  140MOL0     C18352  -0.073   9.936  10.120 -0.2386  0.6030 -0.0696
  140MOL0     C18353  -0.057   9.907   9.980 -0.9821  0.0402 -0.4212
  140MOL0     C18354  -0.166   9.844   9.908 -0.3132  0.1615  0.2202
  140MOL0     C18355  -0.284   9.804   9.964  0.3028 -0.0123  0.4621
  140MOL0     O18356  -0.382   9.730   9.905  0.5583  0.1912 -0.5166
  140MOL0     C18357  -0.338   9.614   9.830  0.4398  0.0480  0.0375
  140MOL0     C18358  -0.450   9.592   9.729  0.6913  1.3493 -0.1021
  140MOL0     C18359  -0.583   9.583   9.791 -0.6033  0.1134  0.9915
  140MOL0     C18360  -0.701   9.540   9.699  0.1127 -0.7102 -0.3128
  140MOL0     C18361  -0.816   9.532   9.802  0.6544 -0.1774  0.4176
  140MOL0     C18362  -0.939   9.481   9.724 -0.0619 -0.4505 -0.3463
  140MOL0     C18363  -1.043   9.421   9.823 -0.2088  0.9109  0.1674
  140MOL0     C18364  -1.191   9.427   9.775 -0.7421 -0.0752  0.3430
  140MOL0     N18365  -1.283   9.379   9.876  0.2331  0.9526 -0.3422
  140MOL0     C18366  -1.347   9.471   9.959 -0.9279  0.3375  1.0887
  140MOL0     C18367  -1.427   9.391  10.032  0.7931  0.6298  0.2265
  140MOL0     C18368  -1.543   9.448  10.113 -0.2007  1.0545 -0.4984
  140MOL0     C18369  -1.632   9.552  10.057  0.6274 -0.4993  0.5321
  140MOL0     C18370  -1.760   9.587  10.154  0.1625 -0.0368  0.2131
  140MOL0     C18371  -1.879   9.518  10.093 -0.3919  0.1909 -0.7345
  140MOL0     O18372  -1.881   9.383  10.140 -0.1641 -0.4582  0.2270
  140MOL0     C18373  -2.002   9.312  10.125 -0.1415  0.8139  0.6082
  140MOL0     C18374  -2.117   9.358  10.059  0.0365 -0.4671  0.5405
  140MOL0     C18375  -2.235   9.279  10.058 -0.2226 -0.0135 -0.3149
  140MOL0     C18376  -2.231   9.153  10.119 -0.0117 -0.1444 -1.1629
  140MOL0     C18377  -2.344   9.050  10.111 -0.4410 -0.9761 -0.3887
  140MOL0     O18378  -2.472   9.100  10.104  0.0000 -0.1500 -1.0383
  140MOL0     C18379  -2.589   9.025  10.087  0.1413  0.0839  0.0833
  140MOL0     C18380  -2.699   9.078  10.144 -0.1267 -0.2688  0.1174
  140MOL0     C18381  -2.815   9.001  10.139  0.2245 -0.3130  0.1206
  140MOL0     C18382  -2.824   8.875  10.080 -0.6188  0.3752  0.4204
  140MOL0     O18383  -2.954   8.817  10.067 -0.9405 -0.3056 -0.3713
  140MOL0     C18384  -3.017   8.766  10.186 -0.4430 -0.5985 -0.0761
  140MOL0     C18385  -3.154   8.714  10.140  0.7415 -0.2166  1.4477
  140MOL0     C18386  -3.241   8.701  10.263  0.4128 -0.7286 -0.5962
  140MOL0     C18387  -3.382   8.641  10.228  0.0731 -0.3845 -0.3948
  140MOL0     C18388  -3.491   8.663  10.332  0.9979  0.1505  0.0607
  140MOL0     C18389  -3.618   8.572  10.313 -1.1355  0.1089 -0.4792
  140MOL0     C18390  -3.710   8.640  10.205 -0.3892 -0.2407 -0.6936
  140MOL0     C18391  -3.857   8.603  10.239 -0.4148  0.7345  0.1796
  140MOL0    Cl18392  -3.961   8.636  10.098  0.2241 -0.1790 -0.1899
  140MOL0     C18393  -2.709   8.822  10.020 -0.0861 -0.8337 -0.8680
  140MOL0     C18394  -2.593   8.894  10.031 -1.0269 -0.2773  0.7122
  140MOL0     O18395  -2.312   8.933  10.111  0.0322  0.0988  0.5083
  140MOL0     C18396  -2.111   9.103  10.176 -0.2316  0.7844  0.0600
  140MOL0     C18397  -2.001   9.184  10.182 -0.2263 -0.3177  0.6755
  140MOL0     N18398  -1.425   9.259   9.989 -0.1419 -0.0687 -0.7338
  140MOL0     N18399  -1.337   9.254   9.891  0.1005 -0.5657 -0.0376
  140MOL0     C18400  -0.301   9.835  10.097 -0.1994 -0.5132 -0.4675
  140MOL0     C18401  -0.201   9.895  10.177  0.6683 -0.4108 -1.4107
  140MOL0     C18402   0.253   9.997  10.298  0.5375 -0.4798  0.2538
  140MOL0     C18403   0.205  10.079  10.400  0.5531  0.2594  0.3136
  140MOL0     C18404   0.291  10.147  10.480  1.1625 -0.5318  0.1234
  140MOL0     C18405   0.426  10.119  10.481 -1.1746 -0.4267 -0.6604
  140MOL0     O18406   0.499  10.192  10.577  0.2336  0.5077  0.7455
  140MOL0     C18407   0.582  10.290  10.510 -0.4570  1.2908 -0.3661
  140MOL0     C18408   0.716  10.282  10.579  0.2336 -0.1453 -0.3296
  140MOL0     C18409   0.723  10.365  10.716  0.1879  0.3360  0.1930
  140MOL0     C18410   0.860  10.355  10.790 -0.0723  0.4305 -0.5633
  140MOL0     C18411   0.980  10.324  10.712  0.1297  0.6222  0.7573
  140MOL0     C18412   1.074  10.303  10.639  0.2023  0.4716  0.5501
  140MOL0     C18413   0.478  10.034  10.385  0.2797  0.8144 -0.1303
  140MOL0     C18414   0.391   9.968  10.295  0.8783 -0.5976  0.8940
  140MOL0     H18415   0.039   9.928   9.934  0.1348  1.0196  2.1655
  140MOL0     H18416  -0.134   9.821   9.806 -0.1568 -0.8273  0.4854
  140MOL0     H18417  -0.328   9.528   9.897 -1.6111 -3.3684 -3.6224
  140MOL0     H18418  -0.245   9.642   9.781 -1.2693  2.7398 -1.9403
  140MOL0     H18419  -0.427   9.509   9.661  3.3874  2.0884 -0.2112
  140MOL0     H18420  -0.459   9.685   9.673  0.5816  0.6563 -1.2889
  140MOL0     H18421  -0.607   9.671   9.851 -2.5615 -0.0750  0.5335
  140MOL0     H18422  -0.574   9.505   9.868 -2.2438 -0.9731  0.1422
  140MOL0     H18423  -0.721   9.616   9.622  0.9962  0.9709  1.0404
  140MOL0     H18424  -0.677   9.447   9.648 -0.8144 -0.6157 -0.9662
  140MOL0     H18425  -0.839   9.630   9.843  2.5183  1.2752 -1.7707
  140MOL0     H18426  -0.787   9.467   9.886 -0.8392  2.1866  2.9344
  140MOL0     H18427  -0.916   9.410   9.645 -0.7527  1.3907 -2.2920
  140MOL0     H18428  -0.988   9.562   9.669 -3.0382 -2.5131 -1.0010
  140MOL0     H18429  -1.014   9.316   9.825  1.5742  1.3245 -1.0639
  140MOL0     H18430  -1.043   9.473   9.919  1.0684 -2.1658  1.9918
  140MOL0     H18431  -1.177   9.358   9.691  1.8835  0.4284  0.2858
  140MOL0     H18432  -1.223   9.525   9.738 -2.6784 -1.4928 -2.0957
  140MOL0     H18433  -1.339   9.579   9.949 -2.6167  0.2705 -3.1479
  140MOL0     H18434  -1.506   9.478  10.211 -0.0376  1.4473 -0.6784
  140MOL0     H18435  -1.603   9.357  10.116  1.0851  0.1486 -1.3167
  140MOL0     H18436  -1.663   9.529   9.955  2.0340 -1.0326  0.2039
  140MOL0     H18437  -1.575   9.646  10.059 -0.3759  0.1632 -0.6618
  140MOL0     H18438  -1.747   9.556  10.258 -0.8791  1.1536  0.7319
  140MOL0     H18439  -1.787   9.693  10.152 -1.2495 -0.3893 -0.5350
  140MOL0     H18440  -1.864   9.532   9.986 -0.8007  2.4082 -0.5428
  140MOL0     H18441  -1.969   9.567  10.130 -0.6883 -1.7350  1.3246
  140MOL0     H18442  -2.108   9.442   9.991  2.2937  0.1402  1.4866
  140MOL0     H18443  -2.316   9.327  10.002 -0.1215 -3.2689 -3.6310
  140MOL0     H18444  -2.692   9.178  10.184  1.7285 -0.6146  0.7496
  140MOL0     H18445  -2.908   9.049  10.170 -1.9595 -2.8799 -1.9598
  140MOL0     H18446  -3.013   8.840  10.267 -0.3761 -0.9910  0.2891
  140MOL0     H18447  -2.953   8.681  10.213 -2.1674 -2.1863 -0.8083
  140MOL0     H18448  -3.146   8.628  10.073  0.5735  0.2598  0.7952
  140MOL0     H18449  -3.197   8.794  10.078 -2.2136 -2.4154  0.4368
  140MOL0     H18450  -3.244   8.798  10.314  1.6381 -1.4368  0.9141
  140MOL0     H18451  -3.186   8.630  10.326  1.3681  0.2418 -0.3009
  140MOL0     H18452  -3.411   8.665  10.125  0.3150  0.3768 -0.2905
  140MOL0     H18453  -3.358   8.534  10.231 -2.0262 -0.8835  1.4330
  140MOL0     H18454  -3.524   8.768  10.330  0.1882 -0.0301  1.6793
  140MOL0     H18455  -3.440   8.657  10.429  1.6877  1.8333 -0.1675
  140MOL0     H18456  -3.666   8.541  10.406 -0.3593  2.0425  0.6251
  140MOL0     H18457  -3.582   8.473  10.282  1.3221  0.9937 -0.6462
  140MOL0     H18458  -3.696   8.749  10.206 -0.1779 -0.2667 -0.2117
  140MOL0     H18459  -3.676   8.615  10.104 -0.0861 -0.6833 -0.4850
  140MOL0     H18460  -3.888   8.656  10.330  1.1569 -0.0972  1.2394
  140MOL0     H18461  -3.863   8.496  10.264  2.3123  1.2211  3.6831
  140MOL0     H18462  -2.704   8.727   9.968  1.0807  0.5330 -3.4598
  140MOL0     H18463  -2.498   8.856   9.996  0.0023 -0.5005  3.5315
  140MOL0     H18464  -2.107   9.014  10.238 -0.7278  1.0610  0.5030
  140MOL0     H18465  -1.912   9.162  10.241  0.1887  1.1016  0.6289
  140MOL0     H18466  -0.398   9.817  10.142 -0.3420 -0.0638 -0.5831
  140MOL0     H18467  -0.231   9.899  10.282 -2.4649  1.8070 -2.2134
  140MOL0     H18468   0.103  10.107  10.421  0.8049  0.3615  1.4582
  140MOL0     H18469   0.261  10.228  10.546  2.3424  0.5060 -0.5641
  140MOL0     H18470   0.542  10.391  10.518 -0.6698  1.0939  1.5509
  140MOL0     H18471   0.584  10.272  10.402  0.3843 -2.5627  0.1199
  140MOL0     H18472   0.747  10.179  10.594 -0.7278 -0.9899 -3.4050
  140MOL0     H18473   0.786  10.334  10.513  1.2590  1.3604  1.8148
  140MOL0     H18474   0.635  10.345  10.777  1.4917  1.6880  2.7281
  140MOL0     H18475   0.696  10.465  10.681 -4.6301  0.0233  2.2590
  140MOL0     H18476   0.872  10.458  10.825 -0.9449  0.4111 -0.2001
  140MOL0     H18477   0.856  10.300  10.884  2.5766  0.7907 -0.1572
  140MOL0     H18478   1.164  10.285  10.584 -0.3647 -0.0109 -0.2619
  140MOL0     H18479   0.584  10.017  10.371 -0.0363 -0.5006 -1.1590
  140MOL0     H18480   0.431   9.910  10.213 -1.2645 -2.6821  1.2128
  141MOL0     O18481   0.850   4.444   3.632  0.3056 -0.1358 -0.5949
  141MOL0     C18482   0.971   4.440   3.637 -0.0164 -0.7835 -1.3561
  141MOL0     O18483   1.054   4.327   3.637  0.8857  0.5057 -0.2486
  141MOL0     C18484   0.994   4.204   3.612  0.1519  0.6916 -0.3063
  141MOL0     C18485   1.055   4.117   3.521  0.4679  0.7294 -0.2104
  141MOL0     C18486   0.996   4.002   3.472  1.5636 -0.0092 -0.6036
  141MOL0     C18487   0.881   3.949   3.539  0.0078  0.3422  0.7398
  141MOL0     O18488   0.824   3.837   3.482 -0.2992  0.4522 -0.9278
  141MOL0     C18489   0.728   3.760   3.560 -0.3344 -0.3700  0.5531
  141MOL0     C18490   0.699   3.632   3.492 -0.3340  0.1942  0.5384
  141MOL0     C18491   0.594   3.552   3.566  1.0104 -0.2043  0.7543
  141MOL0     C18492   0.450   3.599   3.528 -0.3360 -0.0796 -0.4210
  141MOL0     C18493   0.361   3.488   3.483 -0.6220 -0.2448 -0.4046
  141MOL0     C18494   0.238   3.551   3.415  0.0373  0.2883 -0.0366
  141MOL0     C18495   0.123   3.450   3.402  0.1839  0.7759  1.2750
  141MOL0     C18496   0.080   3.369   3.525  0.2719 -0.6530 -0.5734
  141MOL0     N18497  -0.048   3.311   3.515  0.1250  0.4280  0.8719
  141MOL0     C18498  -0.172   3.348   3.450  0.3580  0.5492 -0.3838
  141MOL0     C18499  -0.256   3.252   3.487  0.1237  0.6742 -0.1934
  141MOL0     C18500  -0.398   3.247   3.444  0.9578 -0.4024 -1.1807
  141MOL0     C18501  -0.462   3.106   3.417  0.2849 -0.1261 -0.4486
  141MOL0     C18502  -0.611   3.105   3.369  0.0398 -0.4460 -0.2497
  141MOL0     C18503  -0.711   3.113   3.484 -0.0624  0.8296  0.4798
  141MOL0     O18504  -0.711   3.256   3.537  0.0775  0.7212 -0.5546
  141MOL0     C18505  -0.825   3.297   3.604  0.5819 -0.3926  0.4169
  141MOL0     C18506  -0.889   3.208   3.686 -0.1327 -0.8919  1.2004
  141MOL0     C18507  -1.013   3.235   3.745  0.3308  0.0872  0.2210
  141MOL0     C18508  -1.065   3.371   3.733 -0.2282 -0.1137  0.1695
  141MOL0     C18509  -1.193   3.413   3.790  0.1042 -0.6836 -0.5661
  141MOL0     O18510  -1.274   3.315   3.840 -0.8234  0.2119 -0.2614
  141MOL0     C18511  -1.412   3.317   3.845  0.1899  0.0245 -0.6919
  141MOL0     C18512  -1.464   3.188   3.860 -0.1342  0.5457 -0.8920
  141MOL0     C18513  -1.603   3.162   3.883  0.1941  0.8775  0.1620
  141MOL0     C18514  -1.694   3.258   3.860  0.1461 -0.1202 -0.0155
  141MOL0     O18515  -1.838   3.236   3.868  0.3521  0.1680  0.1099
  141MOL0     C18516  -1.883   3.105   3.867  0.7282 -0.6351 -0.2425
  141MOL0     C18517  -2.041   3.112   3.871 -0.3774  0.3453 -0.1499
  141MOL0     C18518  -2.099   2.975   3.838 -0.5197 -0.5390  0.4842
  141MOL0     C18519  -2.255   2.986   3.847 -0.4134  0.0650 -0.2924
  141MOL0     C18520  -2.319   2.855   3.806 -0.7659  0.1679  0.4649
  141MOL0     C18521  -2.275   2.734   3.893 -0.6986 -0.3809  0.3676
  141MOL0     C18522  -2.348   2.608   3.859  0.8308 -0.0132  0.2610
  141MOL0     C18523  -2.275   2.537   3.750 -0.2214  0.7015  1.2541
  141MOL0    Cl18524  -2.297   2.610   3.595  0.7570  0.3446  0.2420
  141MOL0     C18525  -1.641   3.386   3.859  0.5108  0.6425 -1.1095
  141MOL0     C18526  -1.505   3.419   3.859  0.3216  0.4817 -0.7762
  141MOL0     O18527  -1.233   3.529   3.775  0.0439 -0.3331  0.3678
  141MOL0     C18528  -0.993   3.463   3.652 -0.6904 -0.0356  0.2429
  141MOL0     C18529  -0.872   3.424   3.585  0.3599 -0.0512 -0.5454
  141MOL0     N18530  -0.183   3.151   3.556  0.1528  0.4291  0.0220
  141MOL0     N18531  -0.064   3.187   3.556 -0.4585 -0.0853  0.3208
  141MOL0     C18532   0.821   4.032   3.639  1.6342  0.0261 -0.3402
  141MOL0     C18533   0.880   4.150   3.683  0.4196 -0.3581 -0.1049
  141MOL0     C18534   1.035   4.573   3.661  0.8353 -0.1356 -0.8518
  141MOL0     C18535   0.962   4.687   3.712 -0.4234 -0.0365  0.2226
  141MOL0     C18536   1.024   4.808   3.753  0.2253  0.0245 -0.2018
  141MOL0     C18537   1.160   4.825   3.736 -0.3244  0.7474  0.1486
  141MOL0     O18538   1.248   4.924   3.772  0.0277  0.1307 -0.9688
  141MOL0     C18539   1.200   5.026   3.867  0.0581  0.2576 -0.1067
  141MOL0     C18540   1.311   5.124   3.909  0.0654  0.4128  0.0978
  141MOL0     C18541   1.446   5.051   3.940 -0.3446  0.8357 -0.6093
  141MOL0     C18542   1.562   5.155   3.944 -0.5735  0.6606 -0.0032
  141MOL0     C18543   1.590   5.195   3.806 -0.3280  0.8315  0.2929
  141MOL0     C18544   1.612   5.224   3.695  0.3711  1.0147 -0.4772
  141MOL0     C18545   1.227   4.714   3.684 -0.0731  0.4371 -0.1985
  141MOL0     C18546   1.175   4.594   3.642  0.5823  0.5577  0.6733
  141MOL0     H18547   1.152   4.148   3.484  1.3992 -1.5441  0.1628
  141MOL0     H18548   1.032   3.951   3.383  1.0336  0.7667 -1.2894
  141MOL0     H18549   0.636   3.815   3.583 -0.6078 -0.8747  0.6858
  141MOL0     H18550   0.779   3.742   3.655 -1.3807 -0.8474  1.0417
  141MOL0     H18551   0.794   3.578   3.491 -0.6030 -0.2829  0.1361
  141MOL0     H18552   0.657   3.642   3.391 -2.8687  2.2765  1.6812
  141MOL0     H18553   0.614   3.565   3.673 -0.3575  1.9031  0.8164
  141MOL0     H18554   0.605   3.449   3.531 -3.4611 -0.2916 -0.9967
  141MOL0     H18555   0.407   3.654   3.612 -1.2590  1.4413 -1.8219
  141MOL0     H18556   0.460   3.674   3.449 -2.0721  2.2267  1.4276
  141MOL0     H18557   0.342   3.420   3.566  0.7556  0.4071  0.4832
  141MOL0     H18558   0.421   3.435   3.408  1.2353  0.1176  0.7535
  141MOL0     H18559   0.273   3.589   3.319 -1.2499  0.8376 -0.3146
  141MOL0     H18560   0.203   3.632   3.479  0.6257  0.9979 -0.6052
  141MOL0     H18561   0.034   3.499   3.360 -0.0450 -0.4575  0.2791
  141MOL0     H18562   0.155   3.373   3.332 -0.0960 -0.5473  2.5550
  141MOL0     H18563   0.084   3.443   3.604  3.5195 -2.0736  0.7944
  141MOL0     H18564   0.157   3.300   3.560  0.2157  0.8788  2.9494
  141MOL0     H18565  -0.196   3.430   3.382  0.1160 -0.7088 -1.8592
  141MOL0     H18566  -0.409   3.300   3.349 -2.9537  1.2217  0.0147
  141MOL0     H18567  -0.464   3.292   3.518 -2.1831 -1.8069 -2.9194
  141MOL0     H18568  -0.464   3.048   3.510 -0.4572  1.0957  0.3158
  141MOL0     H18569  -0.407   3.044   3.345 -1.4198 -0.2957 -1.6804
  141MOL0     H18570  -0.623   3.195   3.308  2.3995 -0.3061 -0.6102
  141MOL0     H18571  -0.629   3.009   3.319  1.7458 -1.0140  0.1572
  141MOL0     H18572  -0.680   3.042   3.561 -0.7817 -2.3031 -1.9069
  141MOL0     H18573  -0.804   3.094   3.430  0.9300  1.0534 -1.3619
  141MOL0     H18574  -0.848   3.109   3.702  0.9891 -0.1636  3.2309
  141MOL0     H18575  -1.062   3.161   3.807  2.4688 -1.8397 -0.2402
  141MOL0     H18576  -1.393   3.106   3.863 -1.1669 -0.3659 -0.1978
  141MOL0     H18577  -1.636   3.061   3.904 -1.1864  1.1503 -0.5116
  141MOL0     H18578  -1.855   3.049   3.956 -4.2202 -0.7335  1.5456
  141MOL0     H18579  -1.838   3.069   3.774  2.9547  2.5982 -0.6048
  141MOL0     H18580  -2.083   3.195   3.813  2.9990  0.3608 -2.8790
  141MOL0     H18581  -2.081   3.122   3.972 -0.1806  0.9740 -0.1353
  141MOL0     H18582  -2.053   2.905   3.908 -1.9492  1.0666  3.1995
  141MOL0     H18583  -2.071   2.942   3.738  0.6877  0.3072  0.5184
  141MOL0     H18584  -2.281   3.017   3.949 -2.1142  1.3471 -1.0676
  141MOL0     H18585  -2.292   3.074   3.794  2.1159  2.0476  0.9910
  141MOL0     H18586  -2.296   2.845   3.700  1.3600 -1.9583  1.0417
  141MOL0     H18587  -2.427   2.861   3.820 -0.9541  0.1690 -0.8611
  141MOL0     H18588  -2.312   2.752   3.995  0.3216 -0.3655  0.7475
  141MOL0     H18589  -2.166   2.721   3.895 -0.7793 -1.2994  2.6392
  141MOL0     H18590  -2.363   2.531   3.935 -2.0644 -0.3996 -0.5746
  141MOL0     H18591  -2.451   2.630   3.829  0.6905  3.3743  2.6201
  141MOL0     H18592  -2.305   2.432   3.755  1.6509  0.1108  0.5982
  141MOL0     H18593  -2.167   2.526   3.764 -0.2218 -2.1970 -0.1655
  141MOL0     H18594  -1.709   3.470   3.869 -1.0631 -0.7919  1.1082
  141MOL0     H18595  -1.476   3.524   3.861 -2.5679  1.3852  0.6893
  141MOL0     H18596  -1.031   3.564   3.644  0.6188  0.4722  0.1476
  141MOL0     H18597  -0.819   3.487   3.514  1.7748 -1.4841 -0.8099
  141MOL0     H18598   0.741   3.999   3.704  0.7534  2.5893 -0.0257
  141MOL0     H18599   0.841   4.207   3.766 -2.4929 -0.3284 -1.3802
  141MOL0     H18600   0.854   4.675   3.719 -0.3179 -0.1089  2.2485
  141MOL0     H18601   0.969   4.883   3.809 -0.5282 -0.3207 -0.4591
  141MOL0     H18602   1.152   4.985   3.956  0.7464 -3.1211 -1.1313
  141MOL0     H18603   1.124   5.085   3.817  2.0233  1.1893 -2.1626
  141MOL0     H18604   1.333   5.200   3.834  1.6869  0.6365  0.7676
  141MOL0     H18605   1.288   5.178   4.001  0.8379  0.4952  0.2522
  141MOL0     H18606   1.485   4.968   3.879  2.7630  1.4953  0.2771
  141MOL0     H18607   1.434   5.014   4.042  2.0855  1.6815  0.0610
  141MOL0     H18608   1.525   5.243   3.997 -2.4878 -0.6819  0.9923
  141MOL0     H18609   1.637   5.107   4.008 -2.3249  0.7206  2.2320
  141MOL0     H18610   1.636   5.250   3.593 -0.7645  5.8058  0.2204
  141MOL0     H18611   1.335   4.710   3.680 -0.0831 -0.3710  0.0850
  141MOL0     H18612   1.233   4.508   3.611 -2.1754 -0.1960 -3.0910
  142MOL0     O18613   6.857   1.744   5.218 -0.5527 -0.1468 -1.1110
  142MOL0     C18614   6.797   1.636   5.228 -0.3960  1.2693 -0.2276
  142MOL0     O18615   6.656   1.615   5.232  0.2746 -0.3221 -0.4807
  142MOL0     C18616   6.577   1.727   5.251  0.9370 -0.3454  0.1546
  142MOL0     C18617   6.514   1.784   5.143  0.4514  0.1660  0.0969
  142MOL0     C18618   6.437   1.900   5.177  0.1361  0.4611  0.3139
  142MOL0     C18619   6.420   1.959   5.302  0.6344 -0.8668 -0.3368
  142MOL0     O18620   6.335   2.070   5.307 -0.0827 -0.0477 -0.1719
  142MOL0     C18621   6.221   2.054   5.397  0.0364  0.7167 -0.5588
  142MOL0     C18622   6.142   2.186   5.409 -0.7079  0.5051 -0.0372
  142MOL0     C18623   6.107   2.241   5.267 -0.0156  0.1349  0.5935
  142MOL0     C18624   6.057   2.395   5.283  0.3594 -0.5304  0.1122
  142MOL0     C18625   6.009   2.447   5.152 -0.0728 -0.1119 -0.1667
  142MOL0     C18626   5.968   2.594   5.159  0.0622 -0.1340  0.9877
  142MOL0     C18627   5.822   2.619   5.222  0.7045  0.4803  0.4103
  142MOL0     C18628   5.804   2.763   5.242 -0.0852  0.2779  0.5400
  142MOL0     N18629   5.660   2.790   5.270  0.2842 -0.2022 -0.2894
  142MOL0     C18630   5.606   2.770   5.397 -0.2569 -0.6644  0.3406
  142MOL0     C18631   5.486   2.834   5.395  0.4662 -0.3262  0.4314
  142MOL0     C18632   5.402   2.853   5.520 -0.5044 -0.1186 -0.0397
  142MOL0     C18633   5.265   2.929   5.521 -0.3603 -0.0191 -0.1242
  142MOL0     C18634   5.206   2.963   5.658 -0.2677 -0.4675  0.8225
  142MOL0     C18635   5.057   3.015   5.633 -1.1263 -0.1724  0.2203
  142MOL0     O18636   4.989   3.011   5.765  0.3744  0.2397  0.8552
  142MOL0     C18637   4.852   3.027   5.767  0.0338 -0.1444  0.0223
  142MOL0     C18638   4.774   3.061   5.659  0.0928  0.0846 -0.9192
  142MOL0     C18639   4.640   3.073   5.674 -0.3734 -0.4019  0.8224
  142MOL0     C18640   4.578   3.064   5.807 -0.3092  0.3918  0.6713
  142MOL0     C18641   4.434   3.104   5.831 -0.3157  0.6941 -0.1301
  142MOL0     O18642   4.368   3.130   5.722  0.6018  0.2560  0.0422
  142MOL0     C18643   4.225   3.133   5.718 -0.3098  0.5235 -0.4779
  142MOL0     C18644   4.150   3.035   5.781  0.2055  0.6131 -0.5121
  142MOL0     C18645   4.009   3.028   5.778 -0.0843  0.2233 -0.0497
  142MOL0     C18646   3.943   3.137   5.721  0.0648 -0.2244 -0.0311
  142MOL0     O18647   3.808   3.153   5.733  0.5768  0.2338 -0.8563
  142MOL0     C18648   3.713   3.048   5.716 -0.9307  0.1535 -0.0439
  142MOL0     C18649   3.582   3.099   5.674  0.5914  0.6170  0.2574
  142MOL0     C18650   3.510   3.001   5.575 -0.1872  0.7591  1.1008
  142MOL0     C18651   3.369   3.044   5.535 -0.0220  0.6765 -0.7966
  142MOL0     C18652   3.299   2.955   5.440  0.4931 -0.1582  0.8665
  142MOL0     C18653   3.201   3.022   5.349  1.0986 -0.1803  0.1642
  142MOL0     C18654   3.140   2.933   5.238 -0.3100 -0.2972 -0.1617
  142MOL0     C18655   3.028   3.006   5.161 -0.7565  0.7537 -0.4725
  142MOL0    Cl18656   3.084   3.156   5.084 -0.2600  0.1164 -0.0729
  142MOL0     C18657   4.015   3.241   5.654  0.0649  0.9489 -0.3726
  142MOL0     C18658   4.154   3.239   5.652  1.1771 -0.6225 -0.7097
  142MOL0     O18659   4.390   3.110   5.946  0.2539  0.1163  0.1020
  142MOL0     C18660   4.655   3.027   5.916 -0.4404 -0.3330 -0.5981
  142MOL0     C18661   4.795   3.025   5.899 -0.2257 -0.2891 -1.0272
  142MOL0     N18662   5.468   2.880   5.265  0.1137 -0.3791  0.0754
  142MOL0     N18663   5.576   2.860   5.204  0.9816 -0.3834  0.7870
  142MOL0     C18664   6.477   1.891   5.409 -0.7325  1.1107 -0.1508
  142MOL0     C18665   6.553   1.778   5.380  0.7148 -1.2162  0.4277
  142MOL0     C18666   6.880   1.505   5.246 -0.2871 -0.0734  0.4205
  142MOL0     C18667   6.821   1.376   5.233  0.0361 -0.2551 -0.4388
  142MOL0     C18668   6.899   1.258   5.225 -0.0522 -0.8591  0.7428
  142MOL0     C18669   7.043   1.266   5.242  0.3876  0.4680  0.2828
  142MOL0     O18670   7.127   1.154   5.253  0.3697  0.0878  0.2056
  142MOL0     C18671   7.079   1.054   5.341 -0.1264  0.1286  1.2485
  142MOL0     C18672   7.040   0.926   5.267 -0.3344 -0.3688  0.2326
  142MOL0     C18673   7.160   0.839   5.223  0.0676 -0.0774 -0.4444
  142MOL0     C18674   7.119   0.738   5.119  0.4315  0.5835 -0.5459
  142MOL0     C18675   7.229   0.635   5.128 -0.9597  0.1698  0.5238
  142MOL0     C18676   7.310   0.549   5.129 -0.1464 -0.2507 -0.9366
  142MOL0     C18677   7.096   1.390   5.251 -0.5367 -0.8047  0.8440
  142MOL0     C18678   7.024   1.509   5.253 -0.0859  0.3878 -0.7571
  142MOL0     H18679   6.506   1.750   5.040 -0.5921 -0.1440  0.2605
  142MOL0     H18680   6.375   1.938   5.097  3.0172  1.4290 -1.6170
  142MOL0     H18681   6.261   2.015   5.491 -0.0623  1.3187 -0.2628
  142MOL0     H18682   6.155   1.979   5.351 -0.7446  2.0581 -1.6915
  142MOL0     H18683   6.205   2.250   5.471  1.8213  1.4009 -3.2763
  142MOL0     H18684   6.049   2.166   5.463 -0.5988  0.2601  0.0623
  142MOL0     H18685   6.026   2.182   5.223 -1.3824  0.5567  2.4365
  142MOL0     H18686   6.196   2.232   5.204 -2.7137 -1.7048 -3.3676
  142MOL0     H18687   5.970   2.396   5.349  0.9530 -2.1804  0.9957
  142MOL0     H18688   6.137   2.461   5.320 -0.6032  0.6931  0.0504
  142MOL0     H18689   5.912   2.403   5.125 -1.5080  3.0897 -0.7913
  142MOL0     H18690   6.090   2.432   5.081  1.4487  0.3672  1.4078
  142MOL0     H18691   5.980   2.635   5.059  0.3277 -2.5576 -0.0502
  142MOL0     H18692   6.050   2.643   5.213  0.2352  1.2836 -0.5026
  142MOL0     H18693   5.734   2.591   5.164 -0.3506  1.8996  1.2857
  142MOL0     H18694   5.808   2.584   5.325 -0.4872 -0.8805 -0.1861
  142MOL0     H18695   5.837   2.809   5.149  1.9818 -2.8322 -0.4044
  142MOL0     H18696   5.867   2.797   5.325  1.8922  0.8688 -1.1334
  142MOL0     H18697   5.651   2.738   5.490  3.0959 -0.5835 -1.0989
  142MOL0     H18698   5.464   2.909   5.590 -0.7048  0.6959 -0.5045
  142MOL0     H18699   5.384   2.756   5.568  1.5062  0.6632  2.5028
  142MOL0     H18700   5.186   2.874   5.469  0.1901 -1.6948  0.7458
  142MOL0     H18701   5.286   3.021   5.465  1.7341  1.3414  2.6121
  142MOL0     H18702   5.217   2.877   5.725  2.9469 -0.5143  0.3638
  142MOL0     H18703   5.266   3.045   5.698 -1.4380  1.6049 -1.4489
  142MOL0     H18704   5.021   2.949   5.554  0.0248 -0.0904 -0.3950
  142MOL0     H18705   5.062   3.118   5.595 -0.1193 -0.7544 -1.3315
  142MOL0     H18706   4.821   3.073   5.562  0.6604  3.8082 -0.3307
  142MOL0     H18707   4.570   3.108   5.599  0.3758  0.7580  0.6326
  142MOL0     H18708   4.204   2.958   5.835 -1.4395 -0.1320  0.1608
  142MOL0     H18709   3.949   2.954   5.829  0.0073  0.0868 -0.1396
  142MOL0     H18710   3.704   2.994   5.811 -1.3500  2.3629  1.2285
  142MOL0     H18711   3.743   2.966   5.650  0.0917 -0.4478  1.1227
  142MOL0     H18712   3.589   3.199   5.633  1.1007  0.5712  0.2189
  142MOL0     H18713   3.511   3.090   5.757 -1.4731 -1.6833 -1.5934
  142MOL0     H18714   3.492   2.905   5.623  1.8199 -0.2509 -0.0564
  142MOL0     H18715   3.572   2.980   5.487 -1.4083  2.1672 -0.1764
  142MOL0     H18716   3.314   3.044   5.630  2.7698  1.2480  0.9429
  142MOL0     H18717   3.373   3.149   5.504  0.8903  0.2987 -2.0005
  142MOL0     H18718   3.260   2.871   5.499 -0.5324 -2.5337 -2.8651
  142MOL0     H18719   3.374   2.902   5.381  1.3277  0.1035  1.6690
  142MOL0     H18720   3.248   3.104   5.294  2.9447 -0.1612  1.6650
  142MOL0     H18721   3.117   3.063   5.405  1.2251 -1.6951  1.5188
  142MOL0     H18722   3.219   2.900   5.170 -1.1000 -0.0930 -1.2136
  142MOL0     H18723   3.103   2.847   5.295  3.5355 -1.9809  0.0946
  142MOL0     H18724   2.946   3.033   5.227  1.0042  1.0246  1.7109
  142MOL0     H18725   2.997   2.932   5.087  4.7018 -0.9493 -1.5081
  142MOL0     H18726   3.963   3.334   5.636  1.1272  1.6149 -0.1016
  142MOL0     H18727   4.213   3.319   5.609 -1.4038  2.2449  0.7691
  142MOL0     H18728   4.609   3.032   6.014 -0.1814  0.5990 -0.5102
  142MOL0     H18729   4.863   3.001   5.980 -0.2090  0.8515 -0.6810
  142MOL0     H18730   6.456   1.902   5.514  0.9064 -2.2312  0.6814
  142MOL0     H18731   6.593   1.729   5.468  1.6418 -0.4562  0.4534
  142MOL0     H18732   6.713   1.368   5.229 -0.4819  2.4323  3.1585
  142MOL0     H18733   6.849   1.162   5.219 -1.4695 -0.0654 -3.2921
  142MOL0     H18734   6.993   1.095   5.396  0.3668  2.5130  0.3641
  142MOL0     H18735   7.143   1.020   5.423 -0.1860 -4.7390 -0.4161
  142MOL0     H18736   6.983   0.860   5.333  2.8126 -1.9775  1.5882
  142MOL0     H18737   6.974   0.960   5.187 -0.6534  2.0364  1.4252
  142MOL0     H18738   7.201   0.805   5.318 -1.9098 -1.3663  0.0089
  142MOL0     H18739   7.232   0.904   5.172 -0.2573  0.2321 -0.5113
  142MOL0     H18740   7.017   0.697   5.126  1.5252 -2.0535  1.3531
  142MOL0     H18741   7.139   0.773   5.017  0.6552  2.5598  0.1462
  142MOL0     H18742   7.375   0.464   5.134 -1.2253 -1.0218  1.7085
  142MOL0     H18743   7.202   1.396   5.275 -0.0118 -1.6984 -1.0710
  142MOL0     H18744   7.077   1.600   5.281 -0.4337 -0.3646  2.9260
  143MOL0     O18745   5.678   5.926   8.867  0.5366  0.2520  0.0163
  143MOL0     C18746   5.651   6.038   8.910  1.1296  0.9591 -0.7371
  143MOL0     O18747   5.526   6.076   8.950 -0.3354  0.1254  0.2276
  143MOL0     C18748   5.431   5.997   9.008 -0.8672  0.2654 -0.4470
  143MOL0     C18749   5.423   5.853   9.006  0.4966  0.1320 -0.0811
  143MOL0     C18750   5.301   5.794   9.052 -0.2533  0.2998  0.6651
  143MOL0     C18751   5.194   5.868   9.098  0.3252 -0.3596 -0.4123
  143MOL0     O18752   5.082   5.800   9.144  0.0707 -0.3491 -0.0898
  143MOL0     C18753   4.952   5.863   9.141 -0.5693 -0.0510  0.8436
  143MOL0     C18754   4.920   5.939   9.270  0.0025 -0.2974  0.3071
  143MOL0     C18755   4.791   6.028   9.255 -0.7534  0.2576 -0.2902
  143MOL0     C18756   4.737   6.034   9.398 -0.1926 -0.3043 -0.0309
  143MOL0     C18757   4.610   5.957   9.420  0.3284  0.2942  0.0365
  143MOL0     C18758   4.620   5.808   9.413 -0.1987  0.1822  0.0642
  143MOL0     C18759   4.504   5.741   9.496  0.3107  0.1634  0.2383
  143MOL0     C18760   4.356   5.771   9.475  0.8235 -0.1624 -0.3341
  143MOL0     N18761   4.287   5.645   9.428 -0.3747 -0.1802 -0.0244
  143MOL0     C18762   4.276   5.534   9.504  1.1358  0.2623 -0.9384
  143MOL0     C18763   4.224   5.427   9.425 -0.0510 -0.2578  0.4179
  143MOL0     C18764   4.171   5.293   9.476  0.1944  0.3499 -0.4643
  143MOL0     C18765   4.023   5.266   9.444 -0.2358  0.2951  0.2070
  143MOL0     C18766   3.927   5.376   9.493 -0.0789  0.1048  0.1862
  143MOL0     C18767   3.932   5.389   9.645 -0.6202  0.5727 -0.5720
  143MOL0     O18768   3.907   5.261   9.708 -0.3627 -0.7191 -0.2530
  143MOL0     C18769   3.813   5.270   9.806 -0.4060  0.3584 -0.3946
  143MOL0     C18770   3.833   5.296   9.944  0.1531  0.1001  0.2884
  143MOL0     C18771   3.735   5.282  10.037 -0.0429 -1.1790 -0.4540
  143MOL0     C18772   3.605   5.264  10.005  0.6329 -0.4327  0.5819
  143MOL0     C18773   3.492   5.262  10.100 -0.1602  0.9906 -0.3618
  143MOL0     O18774   3.364   5.274  10.053  0.2636  0.6993  0.5250
  143MOL0     C18775   3.261   5.220  10.133 -0.2088  0.2307 -0.0994
  143MOL0     C18776   3.264   5.092  10.185 -0.5564  0.1574 -0.2254
  143MOL0     C18777   3.151   5.047  10.264  0.0913 -0.0837  0.1474
  143MOL0     C18778   3.032   5.122  10.277  0.3471 -0.1980  0.4454
  143MOL0     O18779   2.930   5.069  10.351  0.4836 -0.6611 -0.1523
  143MOL0     C18780   2.801   5.111  10.298  0.2126  1.3551 -0.8050
  143MOL0     C18781   2.704   4.994  10.340 -0.1914  0.2178 -0.3227
  143MOL0     C18782   2.685   4.997  10.497 -0.7688  0.2685 -0.2420
  143MOL0     C18783   2.573   4.895  10.527  0.0129  0.4203  0.5838
  143MOL0     C18784   2.535   4.912  10.666 -0.0612 -0.1845  0.0339
  143MOL0     C18785   2.401   4.843  10.710 -0.2275  0.2495 -0.4314
  143MOL0     C18786   2.366   4.878  10.856  0.4239  0.0307  0.4828
  143MOL0     C18787   2.359   4.754  10.937  0.0961 -0.8546  0.6143
  143MOL0    Cl18788   2.230   4.632  10.892  0.0732  0.0352 -0.2085
  143MOL0     C18789   3.026   5.248  10.217  0.9861  0.6373 -0.1785
  143MOL0     C18790   3.142   5.291  10.150 -0.8008  0.7428 -0.3840
  143MOL0     O18791   3.521   5.243  10.222  0.1698 -0.1478 -0.0409
  143MOL0     C18792   3.582   5.231   9.874  0.5581  0.9415 -0.5796
  143MOL0     C18793   3.681   5.233   9.778 -0.3209  0.1897  0.6644
  143MOL0     N18794   4.209   5.486   9.299  0.2493 -0.3211 -0.4539
  143MOL0     N18795   4.233   5.618   9.305 -0.2241  0.6027 -0.5911
  143MOL0     C18796   5.212   6.008   9.113 -0.9097  0.1059 -0.0204
  143MOL0     C18797   5.326   6.072   9.075 -0.0598 -0.6557  0.0458
  143MOL0     C18798   5.758   6.137   8.899  0.0182  0.3871  0.6587
  143MOL0     C18799   5.888   6.107   8.864 -0.6670 -0.2510  0.1913
  143MOL0     C18800   5.992   6.207   8.867 -0.5927 -0.3104 -0.2354
  143MOL0     C18801   5.961   6.341   8.896  1.0586 -0.1170 -0.2387
  143MOL0     O18802   6.048   6.444   8.913  0.6566  0.3152 -1.1470
  143MOL0     C18803   6.194   6.415   8.908 -0.1277  0.4019  0.0485
  143MOL0     C18804   6.274   6.549   8.926  0.1566  0.0699 -0.0494
  143MOL0     C18805   6.234   6.659   8.827  0.0111 -0.4640  0.0799
  143MOL0     C18806   6.263   6.801   8.886 -0.3534 -0.1564 -0.6091
  143MOL0     C18807   6.284   6.895   8.775  0.5200 -0.4261 -0.7490
  143MOL0     C18808   6.283   6.961   8.666  1.1940 -0.3432 -0.3722
  143MOL0     C18809   5.829   6.370   8.921  0.1295 -0.0764 -0.5797
  143MOL0     C18810   5.732   6.274   8.926 -0.2002 -0.3964  0.2083
  143MOL0     H18811   5.487   5.783   8.953 -0.1039  0.9325 -1.9110
  143MOL0     H18812   5.279   5.688   9.048  1.2004 -0.0027 -0.1253
  143MOL0     H18813   4.873   5.789   9.124 -0.7923  0.1832  0.8622
  143MOL0     H18814   4.945   5.934   9.058  1.6723 -1.4511 -0.6770
  143MOL0     H18815   5.000   6.009   9.294 -1.0730  1.4296 -0.8725
  143MOL0     H18816   4.896   5.867   9.349  0.2016  0.2038  0.8220
  143MOL0     H18817   4.719   5.974   9.193  1.9494 -1.6879 -1.9908
  143MOL0     H18818   4.815   6.127   9.214 -2.1450  0.1026 -1.5543
  143MOL0     H18819   4.817   6.033   9.473  0.4120  4.9033 -0.2230
  143MOL0     H18820   4.709   6.140   9.403 -0.9828 -0.5518  0.9524
  143MOL0     H18821   4.537   5.990   9.345 -0.1184  2.5896  1.3866
  143MOL0     H18822   4.580   5.983   9.522  1.2352  2.2638 -0.1717
  143MOL0     H18823   4.713   5.769   9.454 -1.4582 -0.7681  2.2163
  143MOL0     H18824   4.618   5.781   9.307 -1.1238 -1.5392  0.4778
  143MOL0     H18825   4.532   5.635   9.497 -0.1014 -0.0007 -1.5191
  143MOL0     H18826   4.516   5.776   9.599 -1.2656  0.1280  0.4622
  143MOL0     H18827   4.330   5.856   9.411 -0.5246  1.4254  2.1774
  143MOL0     H18828   4.308   5.813   9.564  3.1761  5.1735 -1.1895
  143MOL0     H18829   4.303   5.521   9.608  0.2739  2.0451 -0.4610
  143MOL0     H18830   4.183   5.287   9.584  4.1321  1.7989 -0.6833
  143MOL0     H18831   4.234   5.213   9.436 -1.9144 -0.7066 -1.8816
  143MOL0     H18832   4.007   5.173   9.499 -1.1846  0.5827  0.4468
  143MOL0     H18833   3.992   5.247   9.341  0.8910 -3.6134  0.3970
  143MOL0     H18834   3.948   5.468   9.438  1.7338 -0.2769  0.1696
  143MOL0     H18835   3.821   5.350   9.479 -0.2122  0.4924  0.4460
  143MOL0     H18836   3.868   5.472   9.676  2.0795  2.0843  1.3748
  143MOL0     H18837   4.030   5.420   9.681 -0.7189  0.2537 -0.0247
  143MOL0     H18838   3.935   5.323   9.969  1.7919 -3.6231 -1.5707
  143MOL0     H18839   3.759   5.314  10.138  0.1158 -0.5844 -0.6714
  143MOL0     H18840   3.345   5.023  10.167 -0.7492 -1.1287  3.1696
  143MOL0     H18841   3.155   4.951  10.314 -0.2792 -0.0780  0.1898
  143MOL0     H18842   2.788   5.090  10.191 -4.1164 -3.9854  0.3314
  143MOL0     H18843   2.775   5.212  10.329  1.0783  1.7127 -1.1975
  143MOL0     H18844   2.754   4.906  10.302  0.2263 -0.3724  1.4819
  143MOL0     H18845   2.615   5.008  10.277 -1.5691  2.0551  1.8517
  143MOL0     H18846   2.661   5.097  10.534 -0.3674  0.1758  0.2885
  143MOL0     H18847   2.781   4.969  10.541 -0.0745  1.1825 -1.1104
  143MOL0     H18848   2.484   4.915  10.466  1.6042 -0.2141 -2.0932
  143MOL0     H18849   2.617   4.798  10.505 -0.9730  0.1085 -0.0835
  143MOL0     H18850   2.528   5.020  10.686  1.6981 -0.2255  1.0657
  143MOL0     H18851   2.619   4.874  10.725 -0.7911  0.6740  1.6859
  143MOL0     H18852   2.405   4.735  10.693  1.0784  0.4152 -1.3594
  143MOL0     H18853   2.333   4.885  10.636  0.9120  2.7523 -0.1562
  143MOL0     H18854   2.445   4.941  10.899  0.7714 -0.6395  0.8376
  143MOL0     H18855   2.264   4.917  10.858  0.2879 -0.3044  0.0919
  143MOL0     H18856   2.340   4.777  11.042 -0.9790 -1.2271  0.5095
  143MOL0     H18857   2.454   4.699  10.938  0.3764 -0.4254 -0.4732
  143MOL0     H18858   2.943   5.314  10.238 -0.4898 -1.0523 -0.4381
  143MOL0     H18859   3.148   5.393  10.114 -1.1978  1.2858  0.9810
  143MOL0     H18860   3.482   5.216   9.834  0.5650  0.6993 -0.5099
  143MOL0     H18861   3.657   5.215   9.674  2.7921 -1.6972  0.1374
  143MOL0     H18862   5.134   6.075   9.148 -0.1233  0.4148  1.2097
  143MOL0     H18863   5.336   6.179   9.068  1.7839 -0.8957 -1.8327
  143MOL0     H18864   5.909   6.007   8.827 -0.7454  0.7283 -2.7627
  143MOL0     H18865   6.094   6.177   8.842 -0.6849 -0.1067 -0.8768
  143MOL0     H18866   6.212   6.386   8.804  0.7451  1.6361 -0.1710
  143MOL0     H18867   6.224   6.337   8.979  2.5605  2.1310  0.9700
  143MOL0     H18868   6.251   6.578   9.029  0.8567  0.2595  0.0596
  143MOL0     H18869   6.381   6.527   8.934  0.4148  1.8681  2.8510
  143MOL0     H18870   6.126   6.658   8.810  0.2938  1.2790 -2.5021
  143MOL0     H18871   6.292   6.644   8.735  2.5189  0.3020  1.4313
  143MOL0     H18872   6.180   6.834   8.949  0.0065  0.2397 -0.3379
  143MOL0     H18873   6.355   6.778   8.940 -0.0193 -0.9460 -1.4802
  143MOL0     H18874   6.259   7.018   8.579 -1.6823  0.2658  0.6959
  143MOL0     H18875   5.812   6.473   8.949  1.5523 -0.8617  3.8869
  143MOL0     H18876   5.632   6.304   8.955 -0.2279 -2.1638  2.2593
  144MOL0     O18877   2.272  10.519  10.668  0.4953  0.2719  0.4980
  144MOL0     C18878   2.285  10.444  10.764  0.7301  0.1710  0.4853
  144MOL0     O18879   2.181  10.386  10.836 -0.1386  0.4431 -0.0235
  144MOL0     C18880   2.059  10.444  10.843  0.8525  0.0360  0.4112
  144MOL0     C18881   1.944  10.371  10.822  0.3070  0.5037 -0.7750
  144MOL0     C18882   1.818  10.431  10.822  0.2359  0.7394 -0.5138
  144MOL0     C18883   1.809  10.568  10.839 -0.6288 -0.0391  0.0645
  144MOL0     O18884   1.682  10.622  10.835  0.2734 -0.4041  0.7858
  144MOL0     C18885   1.666  10.729  10.738  0.0679  0.5996  0.1094
  144MOL0     C18886   1.521  10.779  10.731 -0.8536  0.1073  0.3088
  144MOL0     C18887   1.424  10.692  10.660  0.6987  0.0557  0.4978
  144MOL0     C18888   1.280  10.745  10.688 -0.5382 -0.3849 -0.2950
  144MOL0     C18889   1.172  10.681  10.605 -0.6032 -0.2997  0.7387
  144MOL0     C18890   1.032  10.707  10.657  0.2563  0.0966  0.1860
  144MOL0     C18891   0.926  10.633  10.562 -0.1259  0.0056 -0.8674
  144MOL0     C18892   0.846  10.749  10.497  0.7782 -0.7446 -0.0665
  144MOL0     N18893   0.748  10.708  10.389 -0.7280  0.2640 -0.8651
  144MOL0     C18894   0.752  10.724  10.257 -0.1708  0.0775 -0.6929
  144MOL0     C18895   0.647  10.651  10.209 -0.0143  0.4579  0.5252
  144MOL0     C18896   0.597  10.629  10.065 -0.8140  0.0634  0.3016
  144MOL0     C18897   0.436  10.639  10.047 -0.7713 -1.0062  0.8856
  144MOL0     C18898   0.396  10.606   9.899 -0.3821  0.2820  0.2199
  144MOL0     C18899   0.260  10.647   9.869 -0.5637  0.0487  0.3333
  144MOL0     O18900   0.216  10.589   9.750 -0.1532 -0.1101  0.1590
  144MOL0     C18901   0.080  10.575   9.730  0.0473 -0.2377  0.2652
  144MOL0     C18902  -0.026  10.625   9.816  0.1883 -0.3628 -0.0109
  144MOL0     C18903  -0.164  10.607   9.786  0.1982  1.0401  0.4223
  144MOL0     C18904  -0.201  10.559   9.661 -0.3530  0.4886 -0.4628
  144MOL0     C18905  -0.333  10.546   9.608  0.7638 -0.2401 -0.4638
  144MOL0     O18906  -0.437  10.564   9.696  0.3245  0.8291 -0.2382
  144MOL0     C18907  -0.567  10.534   9.648  0.5576  0.7414  0.4512
  144MOL0     C18908  -0.672  10.627   9.667  0.6994 -0.0637  0.0913
  144MOL0     C18909  -0.799  10.592   9.623  0.0228 -0.3160 -0.1755
  144MOL0     C18910  -0.825  10.460   9.575  0.6178 -0.3469 -0.4816
  144MOL0     O18911  -0.956  10.428   9.546 -0.7116 -0.8303  0.4331
  144MOL0     C18912  -1.063  10.449   9.642  1.4308  0.4477 -0.1836
  144MOL0     C18913  -1.187  10.360   9.605 -0.1062  0.1922  0.4335
  144MOL0     C18914  -1.281  10.336   9.723 -0.2598 -0.0982 -0.1711
  144MOL0     C18915  -1.411  10.261   9.686 -0.0326  0.3023 -0.1617
  144MOL0     C18916  -1.492  10.249   9.811 -0.8398 -0.1542  0.2165
  144MOL0     C18917  -1.644  10.228   9.797 -1.0926 -0.6875 -0.1864
  144MOL0     C18918  -1.692  10.128   9.692  0.7196 -0.2363  0.1165
  144MOL0     C18919  -1.642   9.988   9.720  0.0393  0.8831  0.6350
  144MOL0    Cl18920  -1.719   9.860   9.596 -0.2200 -0.1350  0.4798
  144MOL0     C18921  -0.720  10.373   9.544 -1.0736 -0.0464 -0.9540
  144MOL0     C18922  -0.591  10.408   9.591  0.0731 -0.0823 -0.3807
  144MOL0     O18923  -0.342  10.505   9.491 -0.4190 -0.4610 -0.7716
  144MOL0     C18924  -0.098  10.518   9.572 -0.9640 -0.5796  0.1386
  144MOL0     C18925   0.033  10.518   9.613 -0.3877 -0.1338 -0.3391
  144MOL0     N18926   0.598  10.573  10.316  0.0054  0.5557 -0.0004
  144MOL0     N18927   0.655  10.607  10.423 -0.1933 -1.0845 -0.2398
  144MOL0     C18928   1.918  10.645  10.850 -0.2464  0.2291 -0.3329
  144MOL0     C18929   2.046  10.582  10.854  0.6949  0.6733 -0.7216
  144MOL0     C18930   2.420  10.400  10.787  0.2434  1.5447 -0.6094
  144MOL0     C18931   2.443  10.287  10.875  0.2003  0.2581  1.4317
  144MOL0     C18932   2.563  10.221  10.879 -0.1891 -0.5088 -0.3018
  144MOL0     C18933   2.668  10.273  10.806  0.5417  0.1968 -0.0740
  144MOL0     O18934   2.785  10.212  10.837  0.4198  0.6581 -0.3508
  144MOL0     C18935   2.909  10.248  10.773 -0.1383  0.2684 -0.6968
  144MOL0     C18936   2.919  10.212  10.622 -0.2058 -0.5893 -0.1499
  144MOL0     C18937   2.873  10.070  10.594 -0.6338 -0.1799  0.6876
  144MOL0     C18938   2.908  10.036  10.449  0.1968 -0.0903  0.7222
  144MOL0     C18939   3.027   9.960  10.420 -0.1279  0.1274 -0.1457
  144MOL0     C18940   3.115   9.881  10.394 -0.4944  0.0127  0.0924
  144MOL0     C18941   2.653  10.380  10.733 -0.2932 -0.7618  0.1703
  144MOL0     C18942   2.531  10.445  10.711  0.0355 -0.1119  0.0294
  144MOL0     H18943   1.967  10.266  10.806  3.0750  0.3387  2.8876
  144MOL0     H18944   1.730  10.373  10.798  0.1833  1.1524 -1.3800
  144MOL0     H18945   1.699  10.691  10.641 -0.9704 -0.7901  0.2702
  144MOL0     H18946   1.726  10.815  10.769 -0.4554  0.8811  0.3501
  144MOL0     H18947   1.517  10.879  10.686  1.5236 -0.0763 -0.4444
  144MOL0     H18948   1.485  10.791  10.834  2.7481  3.4288  1.4272
  144MOL0     H18949   1.439  10.585  10.676  0.8435  0.1834  1.2310
  144MOL0     H18950   1.444  10.709  10.554  1.3501  0.5084  0.6849
  144MOL0     H18951   1.261  10.721  10.792  0.4961  0.1395  0.0311
  144MOL0     H18952   1.262  10.853  10.681 -2.5314 -0.6203  0.7586
  144MOL0     H18953   1.189  10.573  10.599 -1.4474 -0.5625  2.4391
  144MOL0     H18954   1.170  10.724  10.505 -1.0283  1.0726  1.3148
  144MOL0     H18955   1.005  10.813  10.662 -2.8820 -0.4862 -1.7070
  144MOL0     H18956   1.009  10.661  10.754 -1.9131 -0.3534 -0.4838
  144MOL0     H18957   0.976  10.575  10.484  2.8833  2.5250 -1.0384
  144MOL0     H18958   0.871  10.565  10.627 -0.4315 -0.5911 -1.7398
  144MOL0     H18959   0.914  10.815  10.441 -1.1766  0.7275 -0.8347
  144MOL0     H18960   0.794  10.805  10.575  2.0769 -1.8109  1.6357
  144MOL0     H18961   0.828  10.777  10.200  0.2938  0.8671  0.6076
  144MOL0     H18962   0.635  10.529  10.039  2.9002  2.1974 -3.8481
  144MOL0     H18963   0.650  10.696   9.997  0.2618 -1.0006  0.0460
  144MOL0     H18964   0.407  10.744  10.057  1.8214  0.0441 -1.3624
  144MOL0     H18965   0.371  10.582  10.115 -2.8001 -2.0672 -1.7916
  144MOL0     H18966   0.468  10.651   9.831  2.5756 -2.5172  1.2506
  144MOL0     H18967   0.413  10.499   9.889  1.2100  0.2037  2.8044
  144MOL0     H18968   0.258  10.757   9.867  0.8655  0.0957  0.4411
  144MOL0     H18969   0.198  10.607   9.950  1.4100 -2.5440  0.7085
  144MOL0     H18970   0.000  10.660   9.915 -0.5887  2.6690 -0.7701
  144MOL0     H18971  -0.239  10.632   9.861 -0.3607 -1.4198  0.7848
  144MOL0     H18972  -0.655  10.712   9.732 -1.0150  0.4318 -0.0465
  144MOL0     H18973  -0.880  10.658   9.651 -0.1154  0.9529 -3.2036
  144MOL0     H18974  -1.096  10.553   9.649  2.7320  1.0726 -2.4852
  144MOL0     H18975  -1.027  10.426   9.743  2.1502  3.1468  0.2620
  144MOL0     H18976  -1.166  10.268   9.548 -1.1062  0.4368 -0.3628
  144MOL0     H18977  -1.242  10.422   9.533  0.7438  0.0306 -0.3768
  144MOL0     H18978  -1.309  10.433   9.765 -1.6177 -0.2078 -0.7830
  144MOL0     H18979  -1.221  10.289   9.802  0.5274 -0.0912 -0.7549
  144MOL0     H18980  -1.460  10.314   9.604 -1.4202 -0.1674  0.3163
  144MOL0     H18981  -1.374  10.165   9.649 -0.5490  0.5411 -1.3579
  144MOL0     H18982  -1.478  10.343   9.865  1.4437 -1.1598  1.5466
  144MOL0     H18983  -1.456  10.168   9.876 -1.6197 -1.9445 -1.4748
  144MOL0     H18984  -1.695  10.323   9.778  0.6493  0.2742 -0.3474
  144MOL0     H18985  -1.685  10.194   9.892  1.7998 -0.9549  1.0888
  144MOL0     H18986  -1.801  10.122   9.696  0.8300 -2.4433  2.4168
  144MOL0     H18987  -1.658  10.141   9.589 -0.3158 -2.1698 -0.5168
  144MOL0     H18988  -1.686   9.945   9.810 -1.5951  1.1152 -0.0068
  144MOL0     H18989  -1.534   9.995   9.734  0.0159  3.6145  0.0609
  144MOL0     H18990  -0.746  10.283   9.489  4.6359 -3.5970  1.1294
  144MOL0     H18991  -0.515  10.331   9.583 -1.0450 -1.2567 -0.0157
  144MOL0     H18992  -0.113  10.488   9.469 -0.5937 -0.8702  0.1698
  144MOL0     H18993   0.112  10.475   9.552 -1.4585  0.4037 -2.1814
  144MOL0     H18994   1.918  10.753  10.861  2.3742  0.3659 -1.0842
  144MOL0     H18995   2.133  10.646  10.841  0.4430  0.6655 -2.8276
  144MOL0     H18996   2.356  10.241  10.920  1.1622 -1.6047  1.4514
  144MOL0     H18997   2.567  10.131  10.939  0.9025 -0.9095 -0.9514
  144MOL0     H18998   2.982  10.195  10.835 -0.5107  0.9370  0.3468
  144MOL0     H18999   2.930  10.354  10.794  0.0938 -0.6950  6.1145
  144MOL0     H19000   2.855  10.281  10.566 -2.7727 -1.1312  1.9148
  144MOL0     H19001   3.023  10.223  10.590  0.6545  0.6507  2.6841
  144MOL0     H19002   2.765  10.055  10.599 -0.8978 -0.2114 -2.8378
  144MOL0     H19003   2.921  10.001  10.663  0.2810  0.1614  0.4088
  144MOL0     H19004   2.822   9.977  10.414 -1.3227  1.7674  1.1219
  144MOL0     H19005   2.913  10.127  10.389 -0.0880 -0.1648  0.5840
  144MOL0     H19006   3.200   9.826  10.358 -0.0303 -0.3147  1.6178
  144MOL0     H19007   2.735  10.419  10.674 -1.7651  0.6688 -1.0210
  144MOL0     H19008   2.522  10.532  10.646  1.4594  1.8051  2.2379
  145MOL0     O19009   8.909   3.863   6.209  0.6578 -0.3564 -0.4826
  145MOL0     C19010   8.823   3.943   6.164 -0.9854 -0.2676 -0.3407
  145MOL0     O19011   8.767   3.946   6.033 -0.8875 -0.3896 -0.7792
  145MOL0     C19012   8.820   3.867   5.939  0.0435  0.7168  0.0235
  145MOL0     C19013   8.736   3.779   5.875 -0.2340  0.1955 -0.2329
  145MOL0     C19014   8.781   3.713   5.755  0.6869 -0.1308 -0.1942
  145MOL0     C19015   8.916   3.716   5.722  0.2041 -0.6689  0.0420
  145MOL0     O19016   8.980   3.646   5.619 -0.1930  0.2635  0.2396
  145MOL0     C19017   8.923   3.525   5.561 -0.0622  0.1521 -0.8504
  145MOL0     C19018   9.036   3.457   5.470  0.7248  0.5996 -0.6761
  145MOL0     C19019   9.092   3.564   5.367  0.4645 -0.0799  0.1194
  145MOL0     C19020   9.174   3.512   5.246  0.4677  0.1679  0.4685
  145MOL0     C19021   9.236   3.634   5.179  0.6710 -0.0042 -0.1730
  145MOL0     C19022   9.351   3.588   5.086 -0.1090  0.4981  0.2669
  145MOL0     C19023   9.300   3.502   4.971 -0.1390  0.0650  0.7028
  145MOL0     C19024   9.400   3.524   4.854 -0.0573 -0.0370 -0.2854
  145MOL0     N19025   9.352   3.440   4.735  0.3670 -0.4611  0.7936
  145MOL0     C19026   9.426   3.352   4.660  0.1940 -0.1476  1.4460
  145MOL0     C19027   9.340   3.311   4.562 -0.2143 -0.5458  0.8747
  145MOL0     C19028   9.369   3.205   4.455 -1.1163 -0.4828 -0.5388
  145MOL0     C19029   9.247   3.153   4.392 -0.1759  0.0155 -0.0663
  145MOL0     C19030   9.288   3.039   4.295  0.6182  0.1962  0.4696
  145MOL0     C19031   9.397   2.948   4.342 -0.0337 -0.4066 -0.3451
  145MOL0     O19032   9.410   2.861   4.230 -0.9781  0.7684 -0.3490
  145MOL0     C19033   9.336   2.748   4.234 -0.4276  0.1451 -0.5538
  145MOL0     C19034   9.228   2.718   4.323  0.0650  0.1525  1.3571
  145MOL0     C19035   9.146   2.601   4.303  0.0713  0.5175 -0.5147
  145MOL0     C19036   9.165   2.506   4.191 -0.1577 -0.9670  0.3484
  145MOL0     C19037   9.078   2.393   4.180  0.6316 -0.5140  0.0711
  145MOL0     O19038   8.982   2.374   4.269 -0.8795  0.2574  0.3714
  145MOL0     C19039   8.878   2.286   4.222  0.0483 -0.1073 -0.5476
  145MOL0     C19040   8.773   2.338   4.138 -0.1739 -0.3332 -1.0867
  145MOL0     C19041   8.674   2.245   4.086 -0.3311 -0.8309 -0.6428
  145MOL0     C19042   8.683   2.112   4.115  1.5100  0.2186  0.0235
  145MOL0     O19043   8.592   2.016   4.073  0.1590  0.0938 -0.6447
  145MOL0     C19044   8.493   2.049   3.975  0.3066  0.3604 -0.0323
  145MOL0     C19045   8.421   1.916   3.937 -0.0197 -0.2660  0.0190
  145MOL0     C19046   8.296   1.938   3.848  0.2745  0.5766 -0.2820
  145MOL0     C19047   8.328   1.965   3.704  1.0871 -0.9757 -0.3870
  145MOL0     C19048   8.197   1.978   3.629 -0.9438  0.0681  0.1945
  145MOL0     C19049   8.215   1.997   3.472 -0.2893  0.4109 -0.2011
  145MOL0     C19050   8.079   1.979   3.396  0.3070 -0.5879 -0.4787
  145MOL0     C19051   8.103   1.994   3.242  1.1789  0.8708  0.3824
  145MOL0    Cl19052   8.140   1.833   3.169 -0.4786 -0.6382  0.3345
  145MOL0     C19053   8.787   2.060   4.205  0.6784 -0.4030  0.1853
  145MOL0     C19054   8.881   2.153   4.263  0.9311  0.3214  0.6984
  145MOL0     O19055   9.086   2.336   4.071  0.0118  0.4765  1.0922
  145MOL0     C19056   9.265   2.538   4.101  0.7493 -0.1717 -0.6638
  145MOL0     C19057   9.339   2.661   4.126  0.2936 -0.7403 -0.0689
  145MOL0     N19058   9.224   3.376   4.573 -0.2081 -0.4574 -0.0516
  145MOL0     N19059   9.228   3.443   4.685  0.2042  0.2689  0.3931
  145MOL0     C19060   9.006   3.797   5.792  0.0562  0.1221  0.4690
  145MOL0     C19061   8.955   3.877   5.894 -1.0906  0.0179  0.8168
  145MOL0     C19062   8.764   4.037   6.255 -0.4325 -0.5217  0.4710
  145MOL0     C19063   8.680   4.141   6.207  0.1115 -0.1335 -0.2462
  145MOL0     C19064   8.638   4.244   6.290 -0.0640  0.4367  0.4878
  145MOL0     C19065   8.668   4.228   6.427 -0.0797 -0.6596  0.4557
  145MOL0     O19066   8.598   4.324   6.503  0.4621  0.8364  0.3082
  145MOL0     C19067   8.681   4.398   6.604  0.0215 -0.4432  0.5999
  145MOL0     C19068   8.780   4.504   6.529  0.3124  0.2712 -0.1221
  145MOL0     C19069   8.883   4.551   6.640 -0.0283  0.1263 -0.9653
  145MOL0     C19070   8.997   4.623   6.568  0.0112  0.3046  0.3337
  145MOL0     C19071   9.077   4.717   6.642 -0.1186  0.8793 -0.4562
  145MOL0     C19072   9.151   4.786   6.711 -0.3516  0.5142 -1.0317
  145MOL0     C19073   8.742   4.125   6.484  0.0092 -0.1293 -0.1998
  145MOL0     C19074   8.799   4.029   6.393 -0.3021  0.4419 -0.0483
  145MOL0     H19075   8.633   3.782   5.907  0.7009  0.5713  3.1045
  145MOL0     H19076   8.706   3.653   5.705 -0.6958  0.3901  1.1796
  145MOL0     H19077   8.844   3.549   5.490  0.0596 -1.6339 -1.6570
  145MOL0     H19078   8.880   3.461   5.638  0.6766  0.0856 -0.4858
  145MOL0     H19079   9.001   3.368   5.418  2.6976 -0.4752 -0.2720
  145MOL0     H19080   9.114   3.405   5.527 -1.0810 -1.0533  0.3962
  145MOL0     H19081   9.149   3.636   5.427  1.0977 -0.6778  0.2471
  145MOL0     H19082   9.007   3.625   5.334 -0.4115 -1.0201  0.5767
  145MOL0     H19083   9.251   3.456   5.301 -0.8861 -0.9974  1.2417
  145MOL0     H19084   9.118   3.445   5.181  0.3298  1.3770 -0.7113
  145MOL0     H19085   9.295   3.689   5.253  3.3667  0.1536 -2.2862
  145MOL0     H19086   9.169   3.710   5.137  0.0915  0.4294  1.4584
  145MOL0     H19087   9.417   3.527   5.147  0.8457 -0.0124 -1.2209
  145MOL0     H19088   9.413   3.671   5.049 -0.7143  2.1779  2.7955
  145MOL0     H19089   9.295   3.395   4.990 -2.7081 -0.1392 -0.6813
  145MOL0     H19090   9.198   3.534   4.948 -0.6863 -2.0189  0.0406
  145MOL0     H19091   9.506   3.502   4.867  0.6302  1.3229 -2.9258
  145MOL0     H19092   9.394   3.629   4.822 -1.4035 -0.5448 -1.8459
  145MOL0     H19093   9.531   3.323   4.660  0.3150 -0.3346 -2.5415
  145MOL0     H19094   9.428   3.134   4.513 -1.1960 -0.8465 -0.9013
  145MOL0     H19095   9.433   3.231   4.371 -0.6229 -4.9464 -1.8065
  145MOL0     H19096   9.196   3.239   4.350 -0.0625 -0.8793 -2.1485
  145MOL0     H19097   9.189   3.101   4.469  1.6210 -0.1013  1.2923
  145MOL0     H19098   9.205   2.981   4.252 -0.6174  1.8075  0.6078
  145MOL0     H19099   9.338   3.084   4.209  0.5376 -0.5319  0.0318
  145MOL0     H19100   9.384   2.901   4.440  0.9722  1.1962  0.6015
  145MOL0     H19101   9.493   2.998   4.356  0.0331 -0.1945 -1.4294
  145MOL0     H19102   9.197   2.789   4.399 -1.4418  0.0455  0.8886
  145MOL0     H19103   9.071   2.578   4.378  1.0670  0.2389  0.4247
  145MOL0     H19104   8.773   2.446   4.133 -3.1103 -0.0299  2.1071
  145MOL0     H19105   8.597   2.293   4.026  1.3870 -0.3101 -2.5525
  145MOL0     H19106   8.541   2.092   3.886 -0.0699 -0.9531 -0.9000
  145MOL0     H19107   8.427   2.114   4.033 -0.7714 -0.9895  0.2753
  145MOL0     H19108   8.378   1.855   4.017 -0.8238 -2.5628 -2.0336
  145MOL0     H19109   8.495   1.846   3.897 -0.5620 -0.5808 -0.4542
  145MOL0     H19110   8.239   2.020   3.893 -1.9795  0.1620 -2.1988
  145MOL0     H19111   8.237   1.848   3.865  2.5968 -0.8321  0.7662
  145MOL0     H19112   8.388   2.056   3.692 -1.9224  1.2642  0.2360
  145MOL0     H19113   8.395   1.883   3.678 -0.1760 -3.3426  3.1170
  145MOL0     H19114   8.151   2.068   3.671 -0.5007  0.7421 -0.7661
  145MOL0     H19115   8.131   1.901   3.672  0.6628  0.1459  3.0291
  145MOL0     H19116   8.285   1.924   3.429  0.9075  0.7648  1.1000
  145MOL0     H19117   8.264   2.094   3.463  3.5672 -1.2928  0.3022
  145MOL0     H19118   8.029   1.884   3.413 -0.6100 -0.0987 -0.4099
  145MOL0     H19119   8.014   2.059   3.432  1.2521 -0.2204  0.4687
  145MOL0     H19120   8.183   2.068   3.232  3.0053 -0.7008  2.5445
  145MOL0     H19121   8.012   2.037   3.198  1.8504  3.4383  1.3227
  145MOL0     H19122   8.787   1.955   4.232 -0.6384 -0.8933 -1.5836
  145MOL0     H19123   8.962   2.123   4.329  3.9812  2.3586 -1.8548
  145MOL0     H19124   9.278   2.464   4.022 -3.3810 -3.6973  1.5176
  145MOL0     H19125   9.416   2.684   4.052  1.1818 -1.0074  0.7443
  145MOL0     H19126   9.108   3.808   5.758 -0.3055  0.3572 -0.5704
  145MOL0     H19127   9.005   3.958   5.946  0.2542  0.0514 -0.4469
  145MOL0     H19128   8.643   4.153   6.106  0.3753  1.9866 -0.1343
  145MOL0     H19129   8.588   4.330   6.248  1.1993 -0.1388 -2.4814
  145MOL0     H19130   8.730   4.318   6.660  1.6042 -0.4163 -0.6914
  145MOL0     H19131   8.610   4.445   6.674  0.2729  0.2064  0.4291
  145MOL0     H19132   8.831   4.460   6.442 -1.1074  1.7297 -1.7638
  145MOL0     H19133   8.725   4.588   6.486  1.0423 -0.8002 -3.4243
  145MOL0     H19134   8.930   4.464   6.688  2.5455  2.0545  0.2547
  145MOL0     H19135   8.827   4.599   6.721  0.6964 -1.0183  0.2755
  145MOL0     H19136   9.066   4.546   6.532  1.2001 -0.4331  3.7627
  145MOL0     H19137   8.964   4.671   6.476  2.9517  0.8875 -0.5134
  145MOL0     H19138   9.215   4.847   6.771  1.9908 -4.4476  2.1224
  145MOL0     H19139   8.775   4.123   6.588 -0.0748 -1.1337 -0.1808
  145MOL0     H19140   8.853   3.941   6.427 -1.2161 -0.4288 -0.7928
  146MOL0     O19141   8.734   3.210   5.765 -0.6035  0.0583 -0.0021
  146MOL0     C19142   8.641   3.177   5.836 -0.0368  0.5476 -0.3635
  146MOL0     O19143   8.618   3.058   5.893 -0.3570  0.1983  0.1444
  146MOL0     C19144   8.715   2.956   5.887  0.2167 -0.4736  0.3794
  146MOL0     C19145   8.726   2.874   5.992 -0.1780 -0.2163  0.3622
  146MOL0     C19146   8.826   2.771   6.011 -0.2136  0.3949  0.8128
  146MOL0     C19147   8.916   2.760   5.897  0.7708  0.5351 -0.3405
  146MOL0     O19148   9.021   2.669   5.884  0.1305 -0.2043 -0.8419
  146MOL0     C19149   9.055   2.599   5.996 -0.5129  1.3387 -0.0110
  146MOL0     C19150   9.171   2.515   5.955 -0.1271  0.6888  0.5378
  146MOL0     C19151   9.254   2.446   6.063 -0.6126 -0.5695  0.0362
  146MOL0     C19152   9.380   2.387   5.995 -0.6454  0.2648  0.5768
  146MOL0     C19153   9.422   2.269   6.084 -0.4918  0.3519  0.0762
  146MOL0     C19154   9.569   2.225   6.050 -0.5136 -0.0193 -0.2792
  146MOL0     C19155   9.627   2.114   6.150  0.3473 -0.4043 -0.0490
  146MOL0     C19156   9.723   2.184   6.239 -0.7331  0.0133 -0.9696
  146MOL0     N19157   9.800   2.084   6.313  0.2636  0.4338 -0.4673
  146MOL0     C19158   9.912   2.018   6.275 -0.5524 -0.4611 -0.4573
  146MOL0     C19159   9.972   1.982   6.394  0.9515  0.1009  0.1509
  146MOL0     C19160  10.107   1.920   6.433  0.1343 -0.4263  0.4560
  146MOL0     C19161  10.173   2.015   6.539 -0.4921  0.6643 -0.3778
  146MOL0     C19162  10.309   1.953   6.566  0.6293 -0.2896  0.1268
  146MOL0     C19163  10.385   2.014   6.680  0.1644  0.5011  0.6913
  146MOL0     O19164  10.425   2.149   6.649 -0.0212  0.1265 -0.1117
  146MOL0     C19165  10.494   2.205   6.749  0.1867 -0.3132 -0.4681
  146MOL0     C19166  10.494   2.345   6.748  0.4364 -0.9391 -0.1999
  146MOL0     C19167  10.571   2.428   6.829 -0.1762  0.2118  0.3859
  146MOL0     C19168  10.633   2.366   6.933 -0.4886  1.3580 -0.0313
  146MOL0     C19169  10.716   2.447   7.028 -0.2109  0.1389  0.3714
  146MOL0     O19170  10.700   2.582   7.030  0.3653 -0.3819 -0.1355
  146MOL0     C19171  10.785   2.652   7.107  0.1498  0.3067  0.6767
  146MOL0     C19172  10.887   2.735   7.052 -0.1561 -0.0832 -0.0185
  146MOL0     C19173  10.963   2.807   7.143 -0.3302  1.3382 -0.7435
  146MOL0     C19174  10.954   2.797   7.280 -0.3604 -0.1014 -0.5498
  146MOL0     O19175  11.037   2.864   7.360  0.4791  0.0947 -0.3764
  146MOL0     C19176  11.034   3.004   7.355  0.5578 -1.4129 -0.5621
  146MOL0     C19177  11.119   3.064   7.461 -0.3037  0.7752 -1.2369
  146MOL0     C19178  11.059   3.042   7.599  0.3880  0.0018  0.0237
  146MOL0     C19179  11.171   2.985   7.693 -0.4293  0.4451 -0.2092
  146MOL0     C19180  11.100   2.935   7.822 -0.6388  0.1877  0.1811
  146MOL0     C19181  11.190   2.893   7.933  0.0292 -0.4901  0.4322
  146MOL0     C19182  11.122   2.797   8.043  0.8159 -0.8550  0.3995
  146MOL0     C19183  11.198   2.772   8.168 -0.7064 -0.0533  0.4852
  146MOL0    Cl19184  11.205   2.907   8.285 -0.1692  0.0416  0.0408
  146MOL0     C19185  10.853   2.712   7.330 -1.0295 -0.6426  0.0191
  146MOL0     C19186  10.776   2.634   7.242  0.0232 -0.5748  1.2744
  146MOL0     O19187  10.794   2.389   7.096 -0.7616  0.5428  0.4038
  146MOL0     C19188  10.639   2.224   6.938 -0.6377 -0.6602 -0.8040
  146MOL0     C19189  10.566   2.148   6.852 -0.0416 -0.0380 -0.1390
  146MOL0     N19190   9.883   2.017   6.495 -0.2852  0.6631  0.9180
  146MOL0     N19191   9.772   2.063   6.445 -0.0665  0.1110  0.2286
  146MOL0     C19192   8.888   2.828   5.777 -0.2467 -0.8734 -0.3826
  146MOL0     C19193   8.791   2.929   5.778 -0.8070 -0.1078  0.5839
  146MOL0     C19194   8.541   3.277   5.868  0.2466  0.8893 -0.6894
  146MOL0     C19195   8.427   3.264   5.956 -0.2907  0.3005  0.4247
  146MOL0     C19196   8.333   3.366   5.963  0.6541 -0.9406 -0.6618
  146MOL0     C19197   8.331   3.490   5.893 -1.2719  0.5265  0.1925
  146MOL0     O19198   8.223   3.581   5.918  0.5297  0.0540  0.2418
  146MOL0     C19199   8.212   3.695   5.831  0.6869 -0.3369 -0.8369
  146MOL0     C19200   8.095   3.803   5.856 -0.0232 -0.4187 -0.1836
  146MOL0     C19201   7.949   3.752   5.873  1.5055  0.1373 -0.2439
  146MOL0     C19202   7.862   3.868   5.942 -0.0700  0.1073  0.3329
  146MOL0     C19203   7.725   3.832   5.923  0.2964  0.2696  0.5015
  146MOL0     C19204   7.606   3.812   5.907 -0.6868 -1.3132  0.4601
  146MOL0     C19205   8.437   3.501   5.807  0.2595  0.0519 -0.4141
  146MOL0     C19206   8.534   3.397   5.794  0.0639 -0.3788 -0.1471
  146MOL0     H19207   8.647   2.869   6.066 -1.8141 -0.3517 -1.3343
  146MOL0     H19208   8.832   2.706   6.097 -0.8883  1.4513  1.6764
  146MOL0     H19209   8.968   2.534   6.011  1.2358 -1.9976 -2.9794
  146MOL0     H19210   9.079   2.657   6.085  1.4736  1.3687 -0.5252
  146MOL0     H19211   9.239   2.577   5.894 -1.8883  1.8100 -0.3732
  146MOL0     H19212   9.124   2.436   5.897  0.6457 -0.5962  1.6107
  146MOL0     H19213   9.199   2.363   6.108 -2.2048 -0.4278 -1.4989
  146MOL0     H19214   9.281   2.513   6.145 -0.8515 -1.1806  0.6179
  146MOL0     H19215   9.368   2.351   5.893  0.5227  2.4688 -0.3979
  146MOL0     H19216   9.450   2.470   5.982  0.9977 -0.8414  1.8782
  146MOL0     H19217   9.352   2.187   6.064 -2.6391  2.6646 -2.8101
  146MOL0     H19218   9.422   2.292   6.191  0.5872  1.8785 -0.2264
  146MOL0     H19219   9.644   2.303   6.032 -1.0175  0.2302 -1.3562
  146MOL0     H19220   9.571   2.179   5.951  0.7234 -1.1864  0.2573
  146MOL0     H19221   9.548   2.060   6.203  0.5244 -0.2499  0.3795
  146MOL0     H19222   9.670   2.033   6.091 -1.4775 -1.0654 -0.5262
  146MOL0     H19223   9.665   2.253   6.301 -1.2424  0.0523 -1.4775
  146MOL0     H19224   9.798   2.236   6.179  2.9493 -3.1764  0.4947
  146MOL0     H19225   9.953   2.020   6.174 -1.6455  2.1362 -0.9424
  146MOL0     H19226  10.170   1.928   6.344 -1.1846  3.7425 -0.3303
  146MOL0     H19227  10.098   1.816   6.466 -0.3859 -0.4481  0.2687
  146MOL0     H19228  10.117   2.025   6.633  0.1333 -0.2356  0.0997
  146MOL0     H19229  10.199   2.110   6.491 -0.0333  0.6496 -0.1637
  146MOL0     H19230  10.319   1.846   6.587  0.7410 -0.2335  0.3730
  146MOL0     H19231  10.367   1.954   6.474 -0.3316 -1.5406 -0.5148
  146MOL0     H19232  10.475   1.954   6.698 -0.2865 -0.1184  0.8781
  146MOL0     H19233  10.325   2.009   6.770  0.8838 -0.1414  1.1475
  146MOL0     H19234  10.445   2.392   6.664  0.4804 -1.7250 -0.6710
  146MOL0     H19235  10.547   2.534   6.820  0.6179  0.2308 -2.6308
  146MOL0     H19236  10.895   2.748   6.945 -2.9442 -0.3850 -0.3191
  146MOL0     H19237  11.037   2.875   7.104  1.9047 -1.0676 -0.9535
  146MOL0     H19238  10.934   3.048   7.361  2.2342  2.7137  1.1851
  146MOL0     H19239  11.071   3.055   7.266  0.3523  1.7640  1.0491
  146MOL0     H19240  11.111   3.171   7.441 -1.0639  1.1710  0.9326
  146MOL0     H19241  11.220   3.022   7.453 -0.9292 -1.2917  0.7392
  146MOL0     H19242  10.976   2.971   7.590  0.2066  0.1781  0.3100
  146MOL0     H19243  11.010   3.132   7.636  0.2776 -0.1866  0.3382
  146MOL0     H19244  11.244   2.918   7.645 -0.2610  0.6068 -0.1801
  146MOL0     H19245  11.240   3.067   7.714 -0.9679  0.6643  0.7739
  146MOL0     H19246  11.031   2.852   7.801 -0.9012  0.8736 -1.8978
  146MOL0     H19247  11.048   3.020   7.867 -0.4077  0.7301 -0.5782
  146MOL0     H19248  11.229   2.978   7.990 -1.7222  0.1720  0.6925
  146MOL0     H19249  11.273   2.839   7.886  0.9091  1.3143 -0.1721
  146MOL0     H19250  11.035   2.855   8.074  0.6919  1.4405 -3.4901
  146MOL0     H19251  11.082   2.713   7.985 -1.2925  0.5089 -0.2728
  146MOL0     H19252  11.294   2.731   8.134 -0.0134  1.2865  0.7243
  146MOL0     H19253  11.152   2.696   8.231 -1.5788  0.7981  0.9003
  146MOL0     H19254  10.852   2.708   7.439  3.8089  0.3948  0.3024
  146MOL0     H19255  10.701   2.566   7.281 -0.4016 -0.0063  1.4589
  146MOL0     H19256  10.701   2.181   7.016 -0.0142  1.3018 -0.1743
  146MOL0     H19257  10.569   2.041   6.872  0.2824 -0.2248 -1.1534
  146MOL0     H19258   8.944   2.814   5.686  0.0294  1.8185 -0.7124
  146MOL0     H19259   8.794   2.997   5.693  0.7125 -0.2779  0.4769
  146MOL0     H19260   8.418   3.173   6.016 -1.0294 -0.4672 -0.8095
  146MOL0     H19261   8.244   3.343   6.022  1.8221  1.2698  2.2070
  146MOL0     H19262   8.195   3.652   5.732 -0.3571  1.3205 -1.4245
  146MOL0     H19263   8.302   3.756   5.834 -2.3474  4.6304  0.1449
  146MOL0     H19264   8.124   3.857   5.946  2.3902  1.1377 -1.8029
  146MOL0     H19265   8.097   3.875   5.774  0.4704 -1.0701 -0.7608
  146MOL0     H19266   7.960   3.661   5.934 -1.5332 -0.8266 -0.9904
  146MOL0     H19267   7.909   3.722   5.776 -0.7882  2.3566 -0.0650
  146MOL0     H19268   7.881   3.880   6.049 -2.0345  5.2880  0.4280
  146MOL0     H19269   7.869   3.966   5.892  1.8685  0.1093  0.5134
  146MOL0     H19270   7.503   3.784   5.897 -1.3205  1.3873 -1.5379
  146MOL0     H19271   8.441   3.592   5.748  1.6054 -1.3424 -2.6599
  146MOL0     H19272   8.603   3.416   5.713  0.0980 -2.7744 -0.7440
  147MOL0     O19273   2.003   1.244   4.014  0.2326  0.2716  0.6056
  147MOL0     C19274   1.975   1.281   3.897 -0.5292  0.3913  0.4238
  147MOL0     O19275   2.046   1.256   3.786 -0.1605 -0.1772 -0.0948
  147MOL0     C19276   2.175   1.204   3.790 -0.1140 -0.6705 -0.5959
  147MOL0     C19277   2.286   1.284   3.757  0.0600  0.5669 -0.9241
  147MOL0     C19278   2.417   1.232   3.768  0.6555  0.2533  0.4178
  147MOL0     C19279   2.433   1.094   3.773 -0.2644 -0.2948 -0.0389
  147MOL0     O19280   2.564   1.048   3.754  0.5119  0.6042  0.7549
  147MOL0     C19281   2.635   1.025   3.872  0.0920  0.2861 -0.4869
  147MOL0     C19282   2.656   0.869   3.892 -0.2576  0.1054 -1.2321
  147MOL0     C19283   2.730   0.840   4.021  0.4578  0.1085 -0.1048
  147MOL0     C19284   2.716   0.693   4.064 -0.5691 -0.2342  0.2089
  147MOL0     C19285   2.834   0.645   4.149 -0.5907  0.1878 -0.4640
  147MOL0     C19286   2.817   0.497   4.175 -0.0665 -0.1009 -0.9223
  147MOL0     C19287   2.923   0.438   4.261 -0.7394  0.3880 -0.3119
  147MOL0     C19288   2.856   0.393   4.389  0.5050 -0.0930  0.1479
  147MOL0     N19289   2.946   0.337   4.486 -0.6833  0.5050  0.2257
  147MOL0     C19290   3.051   0.253   4.461  1.0377 -0.7128 -0.2338
  147MOL0     C19291   3.124   0.243   4.579 -0.2846  0.5380  0.7206
  147MOL0     C19292   3.239   0.149   4.592 -0.1393 -0.9661 -0.0443
  147MOL0     C19293   3.281   0.130   4.743  1.2004 -0.0123  0.6914
  147MOL0     C19294   3.411   0.070   4.754  0.1024  0.0744  0.2741
  147MOL0     C19295   3.533   0.155   4.697  0.5975 -0.5102 -0.3312
  147MOL0     O19296   3.640   0.070   4.688 -0.4763 -0.2626  0.0518
  147MOL0     C19297   3.759   0.103   4.741  0.7217 -0.1600 -0.4265
  147MOL0     C19298   3.834   0.005   4.799  0.0111 -0.5585 -0.5436
  147MOL0     C19299   3.962   0.032   4.850 -0.3113  0.0248  0.6283
  147MOL0     C19300   4.032   0.163   4.829  0.2504  1.1585 -0.4546
  147MOL0     C19301   4.176   0.187   4.865  0.5142 -1.3127  0.2808
  147MOL0     O19302   4.232   0.091   4.942 -0.3823  0.3621 -0.6143
  147MOL0     C19303   4.361   0.099   4.956 -1.2602 -1.0310 -0.2203
  147MOL0     C19304   4.421   0.163   5.074  0.8367 -0.2364 -0.1816
  147MOL0     C19305   4.554   0.174   5.081  0.4713  0.0230  0.5292
  147MOL0     C19306   4.638   0.125   4.980 -0.1172 -0.3084 -0.0995
  147MOL0     O19307   4.775   0.122   4.981 -0.2728 -0.2058  0.1634
  147MOL0     C19308   4.847   0.204   5.075  0.8002  1.1925  0.5417
  147MOL0     C19309   4.988   0.208   5.034 -0.3137  0.6105 -0.1668
  147MOL0     C19310   5.068   0.302   5.130 -0.4006 -0.1996 -0.3251
  147MOL0     C19311   5.219   0.297   5.110  0.6833  0.4416 -0.0437
  147MOL0     C19312   5.286   0.392   5.211  0.1934 -0.2427 -0.5025
  147MOL0     C19313   5.293   0.338   5.347 -0.7202 -1.0457 -0.9855
  147MOL0     C19314   5.354   0.205   5.378  0.7520 -0.0487 -0.4614
  147MOL0     C19315   5.252   0.098   5.417 -0.4956 -0.5448 -0.0249
  147MOL0    Cl19316   5.137   0.131   5.565 -0.0922  0.1044 -0.4789
  147MOL0     C19317   4.585   0.071   4.863  0.2398  0.3212  0.0090
  147MOL0     C19318   4.448   0.046   4.853 -0.3385  0.2111  0.0359
  147MOL0     O19319   4.227   0.289   4.816 -0.8797 -0.2842  0.0237
  147MOL0     C19320   3.946   0.264   4.772  0.3559 -0.4033 -0.4794
  147MOL0     C19321   3.812   0.229   4.735 -1.0770  0.2542 -0.1369
  147MOL0     N19322   3.058   0.316   4.674 -0.2399 -0.7879 -0.5701
  147MOL0     N19323   2.951   0.367   4.624 -0.0208 -0.2619  0.0673
  147MOL0     C19324   2.320   1.011   3.799 -1.0276  0.4406 -0.5493
  147MOL0     C19325   2.191   1.069   3.813 -0.8016  0.2907 -0.5926
  147MOL0     C19326   1.840   1.354   3.872  0.3012 -0.3790  1.4238
  147MOL0     C19327   1.799   1.379   3.735 -0.6208 -0.5016  0.5296
  147MOL0     C19328   1.678   1.440   3.705 -0.0416 -0.5076 -1.0765
  147MOL0     C19329   1.601   1.494   3.813  0.4730  1.2361  0.2969
  147MOL0     O19330   1.495   1.565   3.790  0.5695  0.1166 -0.0301
  147MOL0     C19331   1.377   1.482   3.829 -0.3544 -0.2415 -1.1274
  147MOL0     C19332   1.258   1.475   3.728 -0.1328 -0.7783  0.5058
  147MOL0     C19333   1.307   1.403   3.594  0.3678 -0.6327 -0.1460
  147MOL0     C19334   1.381   1.490   3.495 -0.4767 -0.0026  0.4941
  147MOL0     C19335   1.467   1.407   3.411 -0.5115  0.0181  0.7200
  147MOL0     C19336   1.531   1.321   3.354 -0.2996  0.8179 -0.5410
  147MOL0     C19337   1.640   1.467   3.945  0.3247  0.2108  0.6948
  147MOL0     C19338   1.746   1.385   3.980 -0.3149 -0.6956  0.2729
  147MOL0     H19339   2.258   1.389   3.756 -0.1218  0.5394  0.1147
  147MOL0     H19340   2.509   1.291   3.764 -0.8359  2.6495 -2.7927
  147MOL0     H19341   2.582   1.060   3.962  2.5059  1.6127  0.4955
  147MOL0     H19342   2.730   1.078   3.876  0.1703  0.1465 -0.4869
  147MOL0     H19343   2.713   0.836   3.804  0.5119  1.2819 -1.2001
  147MOL0     H19344   2.556   0.826   3.901 -1.3782  2.9612  3.7994
  147MOL0     H19345   2.689   0.904   4.100  1.0560  0.4369 -0.0583
  147MOL0     H19346   2.835   0.869   4.012  0.3854  0.1417 -0.9115
  147MOL0     H19347   2.628   0.678   4.128  1.8474 -1.8399  3.4474
  147MOL0     H19348   2.696   0.635   3.974 -1.6890  1.8568 -0.9585
  147MOL0     H19349   2.862   0.703   4.238  0.1180 -1.5114  0.4575
  147MOL0     H19350   2.927   0.645   4.093 -1.7082 -1.4493 -2.4312
  147MOL0     H19351   2.809   0.447   4.079 -3.3195 -2.6444  0.4843
  147MOL0     H19352   2.719   0.486   4.222  0.2244 -1.1050 -0.5290
  147MOL0     H19353   2.948   0.348   4.204 -1.7149 -0.7098  0.9472
  147MOL0     H19354   3.011   0.502   4.270 -0.4038 -0.0173 -0.6524
  147MOL0     H19355   2.791   0.314   4.349 -0.6679  2.2921 -3.0966
  147MOL0     H19356   2.804   0.479   4.431 -1.2888  0.1128 -2.2933
  147MOL0     H19357   3.083   0.209   4.367  2.6311  1.8509 -0.9911
  147MOL0     H19358   3.318   0.183   4.524  1.4830 -2.1759  1.1549
  147MOL0     H19359   3.213   0.048   4.559  3.4251 -1.1589 -2.9690
  147MOL0     H19360   3.202   0.066   4.785  0.7126 -1.0295 -1.6334
  147MOL0     H19361   3.286   0.234   4.775  2.2193 -0.0242  0.5935
  147MOL0     H19362   3.427   0.040   4.858 -0.0802 -3.0668 -0.5038
  147MOL0     H19363   3.401  -0.012   4.683 -2.1198 -2.3581  3.1256
  147MOL0     H19364   3.547   0.245   4.757  0.7589 -0.4044 -0.5253
  147MOL0     H19365   3.524   0.179   4.591  0.5788 -0.6351 -0.3590
  147MOL0     H19366   3.795  -0.096   4.798  1.6640 -1.2233 -1.8471
  147MOL0     H19367   4.006  -0.057   4.892 -2.2740 -0.7581  1.1374
  147MOL0     H19368   4.362   0.209   5.153  1.1046 -0.5440  0.1977
  147MOL0     H19369   4.586   0.198   5.182 -2.3587  0.3019  1.4302
  147MOL0     H19370   4.834   0.157   5.174  3.0523 -2.5003 -0.7058
  147MOL0     H19371   4.811   0.307   5.075  0.3709  1.0463 -0.1364
  147MOL0     H19372   5.002   0.254   4.935  1.1621  0.7736  0.0969
  147MOL0     H19373   5.041   0.113   5.030 -0.3886  0.6189 -2.8738
  147MOL0     H19374   5.040   0.260   5.227  0.8426 -1.3436 -0.4405
  147MOL0     H19375   5.023   0.400   5.110  0.9635  0.1490 -1.9402
  147MOL0     H19376   5.267   0.199   5.110 -2.0227 -0.9795 -0.1181
  147MOL0     H19377   5.238   0.328   5.007 -0.7965  2.3750  0.2096
  147MOL0     H19378   5.236   0.490   5.215  2.9437  1.2433  0.7933
  147MOL0     H19379   5.389   0.417   5.183 -0.4121  1.0022 -1.7274
  147MOL0     H19380   5.193   0.348   5.391  0.2331 -1.1945  1.3337
  147MOL0     H19381   5.353   0.404   5.410 -0.2902 -0.9864 -1.4485
  147MOL0     H19382   5.411   0.163   5.294 -0.3882  0.2849 -1.4325
  147MOL0     H19383   5.421   0.221   5.463 -2.4585  2.7799  1.7794
  147MOL0     H19384   5.308   0.004   5.427  0.9121  0.0275 -2.0220
  147MOL0     H19385   5.188   0.082   5.330  2.7374  2.7184 -3.3564
  147MOL0     H19386   4.653   0.021   4.796 -0.0884  0.2236 -0.2516
  147MOL0     H19387   4.410  -0.021   4.776  0.2349 -2.1773  1.7112
  147MOL0     H19388   3.980   0.367   4.759 -2.5631  1.0358  1.9644
  147MOL0     H19389   3.759   0.313   4.689  0.6853  0.4145 -1.9631
  147MOL0     H19390   2.338   0.905   3.805 -1.1040  0.3859 -1.2376
  147MOL0     H19391   2.103   1.012   3.840 -0.2421  0.1539  0.9816
  147MOL0     H19392   1.865   1.335   3.661 -2.5493 -4.7417  1.0239
  147MOL0     H19393   1.646   1.459   3.603  3.0613 -0.2363 -2.1242
  147MOL0     H19394   1.339   1.531   3.919 -0.7888  2.2925 -2.6141
  147MOL0     H19395   1.402   1.377   3.850 -0.2191 -0.1979 -1.0753
  147MOL0     H19396   1.176   1.420   3.775  0.4356 -1.6163  0.5293
  147MOL0     H19397   1.223   1.574   3.697 -4.2973 -3.0392 -3.2539
  147MOL0     H19398   1.214   1.373   3.544 -0.0555 -0.2267  0.3888
  147MOL0     H19399   1.366   1.313   3.614 -1.1326 -0.7857  4.8368
  147MOL0     H19400   1.315   1.551   3.433  0.4056 -1.1911 -1.7492
  147MOL0     H19401   1.440   1.563   3.552  0.7620 -0.2565 -0.4161
  147MOL0     H19402   1.580   1.246   3.296 -1.2060  1.1643 -1.7995
  147MOL0     H19403   1.587   1.521   4.024  0.2633  1.5170 -0.2172
  147MOL0     H19404   1.768   1.366   4.084  0.9523 -0.8248 -0.0032
  148MOL0     O19405   0.438   3.480   9.802  0.3489 -0.5719 -0.3524
  148MOL0     C19406   0.335   3.413   9.773 -0.5448 -0.0564  1.3665
  148MOL0     O19407   0.322   3.354   9.656  0.4900 -0.8770 -0.0245
  148MOL0     C19408   0.423   3.347   9.557 -1.1151 -0.2695  0.0901
  148MOL0     C19409   0.562   3.349   9.565 -0.1266 -0.4616  0.0954
  148MOL0     C19410   0.646   3.331   9.453 -0.3786  0.0872  0.0404
  148MOL0     C19411   0.589   3.327   9.324  0.2826 -0.3914  0.8433
  148MOL0     O19412   0.660   3.309   9.207  0.7243  0.2917  0.5974
  148MOL0     C19413   0.795   3.283   9.211 -0.6795  0.7446 -0.1296
  148MOL0     C19414   0.854   3.281   9.066 -0.3315  0.8886 -0.6123
  148MOL0     C19415   1.003   3.231   9.074  0.3944  0.5893  0.1531
  148MOL0     C19416   1.047   3.160   8.942 -0.7509  0.2584 -0.0569
  148MOL0     C19417   1.198   3.194   8.920 -0.8133  0.2125 -0.6865
  148MOL0     C19418   1.239   3.161   8.771  0.0346  0.4782  0.1186
  148MOL0     C19419   1.385   3.138   8.764  0.0423  0.0187 -0.0952
  148MOL0     C19420   1.464   3.267   8.755 -0.4635 -0.2618  0.9074
  148MOL0     N19421   1.608   3.245   8.738  0.1024  0.4417  0.0893
  148MOL0     C19422   1.689   3.183   8.828  0.2060 -0.5174  0.1631
  148MOL0     C19423   1.811   3.191   8.772  0.0278  0.5288  0.0063
  148MOL0     C19424   1.943   3.175   8.837 -0.0141  1.6355  0.1788
  148MOL0     C19425   2.002   3.293   8.899  0.0880  0.0984  0.8628
  148MOL0     C19426   2.051   3.392   8.786 -0.4276 -0.0266  0.0552
  148MOL0     C19427   2.122   3.504   8.854 -0.4680 -0.6310 -0.0396
  148MOL0     O19428   2.063   3.544   8.979 -0.4495  0.2049 -1.1512
  148MOL0     C19429   1.940   3.614   8.980 -0.5153 -0.2656  0.3839
  148MOL0     C19430   1.877   3.622   9.105 -0.1068 -0.7020  0.2173
  148MOL0     C19431   1.745   3.670   9.122  0.0109  0.3225  0.3729
  148MOL0     C19432   1.663   3.696   9.006  0.1606 -0.2157 -0.1033
  148MOL0     C19433   1.515   3.733   9.017 -0.1518 -0.3135 -1.0706
  148MOL0     O19434   1.448   3.740   8.900  0.1585 -0.6119 -0.0751
  148MOL0     C19435   1.311   3.715   8.909 -0.9010  0.1867 -0.1744
  148MOL0     C19436   1.219   3.821   8.912 -0.4388  0.6226 -0.6923
  148MOL0     C19437   1.081   3.795   8.919  0.8357  0.4943 -0.2506
  148MOL0     C19438   1.032   3.667   8.922  0.1990 -0.9041 -0.0083
  148MOL0     O19439   0.901   3.636   8.937  0.5901  0.1002 -0.3203
  148MOL0     C19440   0.821   3.739   9.000 -0.1762 -1.0018 -0.1243
  148MOL0     C19441   0.712   3.670   9.086 -0.3143  0.0990  0.7312
  148MOL0     C19442   0.596   3.768   9.119 -0.6043 -0.3666  0.9054
  148MOL0     C19443   0.499   3.717   9.227  0.5988  0.5382 -0.1475
  148MOL0     C19444   0.414   3.828   9.286  0.2367  0.0267 -1.0379
  148MOL0     C19445   0.301   3.768   9.363 -0.5768 -0.2153 -0.2242
  148MOL0     C19446   0.200   3.871   9.415  1.0053 -1.0486 -0.4641
  148MOL0     C19447   0.072   3.803   9.466  1.0194 -0.0433 -0.1718
  148MOL0    Cl19448   0.111   3.718   9.625 -0.1801 -0.2951 -0.0149
  148MOL0     C19449   1.126   3.560   8.926  0.2191  0.0507  0.1546
  148MOL0     C19450   1.263   3.590   8.911 -0.6323 -0.0231 -0.5233
  148MOL0     O19451   1.467   3.716   9.131 -0.1970 -0.1957  0.5188
  148MOL0     C19452   1.728   3.690   8.881 -1.3439 -0.3191 -0.2126
  148MOL0     C19453   1.864   3.655   8.872 -0.2659  1.0035  0.3053
  148MOL0     N19454   1.788   3.230   8.637 -0.1988  0.0166 -0.3076
  148MOL0     N19455   1.676   3.262   8.619  0.0111 -1.1248  0.3040
  148MOL0     C19456   0.452   3.341   9.313  0.3862  0.0253 -0.1553
  148MOL0     C19457   0.368   3.344   9.433 -0.1815  0.2630  1.1497
  148MOL0     C19458   0.212   3.423   9.857 -1.0653 -0.2440  0.5383
  148MOL0     C19459   0.078   3.419   9.815 -0.0597 -0.9908 -0.6278
  148MOL0     C19460  -0.026   3.446   9.900 -0.8286  0.2913  0.7195
  148MOL0     C19461  -0.012   3.482  10.032  0.6223  0.3458 -0.8004
  148MOL0     O19462  -0.123   3.520  10.115 -0.2889 -0.0801  0.3945
  148MOL0     C19463  -0.108   3.604  10.227 -1.3021  0.4993 -0.6962
  148MOL0     C19464  -0.221   3.698  10.231 -0.7311  0.2922  0.3699
  148MOL0     C19465  -0.362   3.627  10.227 -0.5991 -0.5350  0.0941
  148MOL0     C19466  -0.442   3.643  10.356 -0.0836 -0.1159 -0.8480
  148MOL0     C19467  -0.566   3.571  10.345 -0.7827 -0.4897  0.3182
  148MOL0     C19468  -0.664   3.498  10.330  0.4655  0.2407  0.3866
  148MOL0     C19469   0.122   3.485  10.086  1.0393  0.7563  0.1283
  148MOL0     C19470   0.229   3.457   9.996 -1.1692 -0.3611  1.2942
  148MOL0     H19471   0.609   3.371   9.661 -0.5138 -0.7230  0.3454
  148MOL0     H19472   0.754   3.340   9.458 -0.4967  3.0710 -0.7818
  148MOL0     H19473   0.803   3.189   9.266  0.9349  2.1848  2.2998
  148MOL0     H19474   0.856   3.354   9.268 -1.5529  1.0232  0.4879
  148MOL0     H19475   0.860   3.384   9.030 -0.8451  1.2811  0.3987
  148MOL0     H19476   0.793   3.217   9.002  0.7769  0.6772 -1.4929
  148MOL0     H19477   1.018   3.152   9.148  0.5218  0.4241 -0.0475
  148MOL0     H19478   1.070   3.309   9.110 -0.8620  0.6119  2.6724
  148MOL0     H19479   1.029   3.054   8.957  1.5183 -0.1233  0.4082
  148MOL0     H19480   1.003   3.199   8.850  1.4661  4.1505  0.3170
  148MOL0     H19481   1.248   3.124   8.987 -0.1490 -0.0161 -1.4120
  148MOL0     H19482   1.234   3.293   8.946  0.9051 -0.8580  1.3525
  148MOL0     H19483   1.214   3.240   8.700  1.5432 -0.7620 -1.9412
  148MOL0     H19484   1.180   3.079   8.730 -1.9813  1.9337 -0.0311
  148MOL0     H19485   1.407   3.092   8.861 -1.4292 -0.7811 -0.1143
  148MOL0     H19486   1.407   3.058   8.692 -0.1495 -0.3098  0.2041
  148MOL0     H19487   1.446   3.315   8.851  2.4826 -1.5727  2.2246
  148MOL0     H19488   1.432   3.324   8.667  2.0947 -0.7734 -0.4276
  148MOL0     H19489   1.652   3.137   8.919 -3.4995 -1.0782 -1.4760
  148MOL0     H19490   2.016   3.119   8.777 -0.6700  0.2571  0.6264
  148MOL0     H19491   1.926   3.100   8.915  2.4069  3.8267  2.9978
  148MOL0     H19492   2.087   3.274   8.965  2.4963 -1.0654 -2.3219
  148MOL0     H19493   1.928   3.345   8.961 -0.3066  1.4676 -0.6823
  148MOL0     H19494   2.125   3.337   8.727  1.2714  2.7837 -0.6189
  148MOL0     H19495   1.968   3.424   8.722 -0.4155  0.9228  0.5000
  148MOL0     H19496   2.124   3.590   8.786  0.8100 -0.7377 -0.1510
  148MOL0     H19497   2.220   3.466   8.881  0.1349  1.3556  0.7426
  148MOL0     H19498   1.928   3.610   9.200 -1.0725  1.3244  1.0605
  148MOL0     H19499   1.713   3.676   9.225  0.7453  1.6836  0.5411
  148MOL0     H19500   1.253   3.924   8.914  0.5644  0.2915 -0.3942
  148MOL0     H19501   1.027   3.888   8.934  1.4045  0.8344 -0.2698
  148MOL0     H19502   0.791   3.803   8.916  1.5837 -1.5099 -1.1940
  148MOL0     H19503   0.877   3.807   9.065  0.8272  2.1649 -3.8425
  148MOL0     H19504   0.750   3.633   9.182  0.6813  2.2620  1.2377
  148MOL0     H19505   0.672   3.582   9.035  1.5864  0.0599 -0.8445
  148MOL0     H19506   0.548   3.798   9.025  0.2360  0.6623  0.7747
  148MOL0     H19507   0.649   3.854   9.161 -1.2103  0.0569  0.8176
  148MOL0     H19508   0.435   3.642   9.179  1.2178  1.7637 -3.1001
  148MOL0     H19509   0.555   3.671   9.309 -2.2254 -1.5901  0.7453
  148MOL0     H19510   0.363   3.884   9.207 -2.3135  1.9667  1.7541
  148MOL0     H19511   0.473   3.908   9.333 -1.4587  1.6626 -1.5735
  148MOL0     H19512   0.351   3.726   9.451  2.0800 -0.4162 -1.7138
  148MOL0     H19513   0.250   3.687   9.311 -2.5244  0.5309  0.4310
  148MOL0     H19514   0.249   3.941   9.483 -0.5178  0.6074 -0.9805
  148MOL0     H19515   0.162   3.927   9.328  0.6603  0.3291  0.5383
  148MOL0     H19516   0.042   3.731   9.389 -0.4214  2.3132 -1.9362
  148MOL0     H19517  -0.012   3.866   9.495  2.3333  0.0349  4.0843
  148MOL0     H19518   1.081   3.462   8.915  0.7871 -1.0791  5.4417
  148MOL0     H19519   1.330   3.508   8.887  0.3483  0.1004  1.6226
  148MOL0     H19520   1.678   3.720   8.790  0.2295  1.5706 -0.5201
  148MOL0     H19521   1.898   3.660   8.769  1.5840  0.7427  0.8638
  148MOL0     H19522   0.412   3.346   9.212  1.2238 -1.5341 -0.5910
  148MOL0     H19523   0.261   3.349   9.420 -0.2611 -1.7931  0.6337
  148MOL0     H19524   0.063   3.393   9.711  1.2899 -1.6278 -0.6853
  148MOL0     H19525  -0.131   3.437   9.872 -0.5443 -0.2899 -0.2096
  148MOL0     H19526  -0.004   3.638  10.237 -0.9975 -0.5664  0.0342
  148MOL0     H19527  -0.115   3.542  10.317  0.7088  3.1541  1.4628
  148MOL0     H19528  -0.215   3.740  10.332  1.2288 -1.9225  1.2718
  148MOL0     H19529  -0.206   3.778  10.158 -1.0921 -0.0388 -0.0698
  148MOL0     H19530  -0.340   3.520  10.223 -1.1890 -0.8847  3.4495
  148MOL0     H19531  -0.412   3.667  10.138 -0.9151 -2.5357 -0.7034
  148MOL0     H19532  -0.390   3.612  10.447 -0.9984  1.9155  0.4423
  148MOL0     H19533  -0.464   3.745  10.390  3.0448  0.6206 -0.6857
  148MOL0     H19534  -0.759   3.451  10.320 -1.2042  3.4237 -0.1743
  148MOL0     H19535   0.150   3.498  10.190  4.6683  2.5680 -0.9231
  148MOL0     H19536   0.326   3.465  10.043 -0.5211 -4.0164  0.8006
  149MOL0     O19537   9.504   1.102   8.641 -0.4980  0.5483  0.1221
  149MOL0     C19538   9.509   1.084   8.523 -1.2257 -1.0978  0.2687
  149MOL0     O19539   9.409   1.052   8.448 -0.2384  0.7107  0.0887
  149MOL0     C19540   9.276   1.066   8.478  0.6854  0.1324  0.3282
  149MOL0     C19541   9.223   1.001   8.586  0.9191  0.7765  0.6974
  149MOL0     C19542   9.085   1.010   8.610  0.3368 -0.9314  0.1976
  149MOL0     C19543   9.008   1.103   8.534 -0.6625  0.3478  0.3514
  149MOL0     O19544   8.877   1.129   8.559  0.2538  0.0972 -0.0505
  149MOL0     C19545   8.789   1.037   8.628  0.2287 -0.6397 -0.0637
  149MOL0     C19546   8.647   1.082   8.594 -0.1168  0.8325 -0.3221
  149MOL0     C19547   8.550   1.034   8.705  0.1727 -0.4700  0.6964
  149MOL0     C19548   8.416   1.105   8.677 -0.1586  1.2596 -1.0722
  149MOL0     C19549   8.322   1.103   8.804 -0.4275  0.3000 -0.0767
  149MOL0     C19550   8.280   0.963   8.856  0.6307  0.7866  0.7559
  149MOL0     C19551   8.225   0.979   9.000  0.1198  0.1615 -0.3914
  149MOL0     C19552   8.167   0.841   9.048  0.2902 -0.6088  0.1326
  149MOL0     N19553   8.047   0.794   8.976 -0.6734 -0.3987  0.1579
  149MOL0     C19554   7.925   0.840   9.006  0.2180  0.0853  0.3159
  149MOL0     C19555   7.839   0.751   8.952  0.2494  0.5711  0.2773
  149MOL0     C19556   7.690   0.758   8.942  0.0932 -0.8406 -0.8830
  149MOL0     C19557   7.628   0.888   8.886 -0.2878 -0.4221 -0.9343
  149MOL0     C19558   7.702   0.938   8.769  0.1666  0.4920  0.4803
  149MOL0     C19559   7.646   1.072   8.726  0.6371  0.0328 -0.1687
  149MOL0     O19560   7.647   1.101   8.583  0.4875  0.2493  0.1495
  149MOL0     C19561   7.767   1.101   8.515 -0.7118 -0.5388  0.8601
  149MOL0     C19562   7.758   1.125   8.379 -0.6248 -0.2608 -0.5763
  149MOL0     C19563   7.872   1.130   8.298  0.1474 -0.6988 -0.5702
  149MOL0     C19564   7.998   1.135   8.356 -0.6548  0.3503  0.0869
  149MOL0     C19565   8.126   1.130   8.279  0.0280 -0.1073  0.4972
  149MOL0     O19566   8.240   1.098   8.337 -0.3254  0.2262 -1.0356
  149MOL0     C19567   8.357   1.112   8.280 -0.5562 -0.1763 -1.0988
  149MOL0     C19568   8.452   1.189   8.341 -0.4161 -0.0968 -0.7562
  149MOL0     C19569   8.576   1.219   8.286  0.2304 -0.2502  0.4551
  149MOL0     C19570   8.609   1.172   8.163  1.0459  0.4222  1.3483
  149MOL0     O19571   8.715   1.206   8.077 -0.6879 -0.0503  0.3251
  149MOL0     C19572   8.830   1.253   8.153 -0.3553  0.6616 -0.6387
  149MOL0     C19573   8.823   1.406   8.179  0.8619 -0.5321 -0.1347
  149MOL0     C19574   8.920   1.481   8.086 -0.5107  0.1881 -0.6134
  149MOL0     C19575   8.903   1.442   7.938 -0.3897 -0.1307  0.6572
  149MOL0     C19576   8.984   1.542   7.848  0.8842  0.0152  0.3003
  149MOL0     C19577   9.126   1.539   7.870 -0.3283  1.1554  0.3319
  149MOL0     C19578   9.216   1.611   7.766 -0.1536 -0.0044  0.0100
  149MOL0     C19579   9.210   1.561   7.623  0.5018 -0.6378  0.2437
  149MOL0    Cl19580   9.310   1.408   7.594 -0.0780  0.7710 -0.1237
  149MOL0     C19581   8.519   1.083   8.097  0.3981 -0.1375  0.0619
  149MOL0     C19582   8.391   1.055   8.156 -0.2390 -0.8457  0.5708
  149MOL0     O19583   8.120   1.157   8.154  0.6545  0.4798 -0.2403
  149MOL0     C19584   8.008   1.117   8.494  0.0162  0.0082 -0.2242
  149MOL0     C19585   7.893   1.103   8.569 -0.4262 -0.9494 -1.4231
  149MOL0     N19586   7.912   0.660   8.872 -0.2365 -0.1987 -0.1033
  149MOL0     N19587   8.038   0.691   8.880  0.7552  1.4027  1.2193
  149MOL0     C19588   9.070   1.180   8.429 -0.2755  0.4969 -1.2419
  149MOL0     C19589   9.207   1.161   8.404  1.2810  0.2791 -0.1321
  149MOL0     C19590   9.646   1.113   8.458  0.0025 -0.8417 -1.1746
  149MOL0     C19591   9.658   1.151   8.325 -0.3630 -0.7660  0.6690
  149MOL0     C19592   9.784   1.174   8.276 -0.5546 -0.0397  0.3743
  149MOL0     C19593   9.901   1.165   8.361 -0.9644 -0.1102  0.4180
  149MOL0     O19594  10.024   1.166   8.307 -0.3837 -0.3014 -0.7571
  149MOL0     C19595  10.056   1.262   8.212 -0.3154 -0.7822 -0.4021
  149MOL0     C19596  10.197   1.236   8.161 -0.4347  0.1228 -1.3297
  149MOL0     C19597  10.202   1.096   8.100  0.4311 -0.1810 -0.0147
  149MOL0     C19598  10.339   1.046   8.058  0.2992  0.1969 -0.3762
  149MOL0     C19599  10.399   0.948   8.152  0.8440  0.3046  0.9395
  149MOL0     C19600  10.440   0.876   8.232 -0.1556  1.0699 -0.3532
  149MOL0     C19601   9.888   1.115   8.490  0.0718 -0.5597 -0.5897
  149MOL0     C19602   9.761   1.086   8.532  0.0781 -0.0651 -0.3159
  149MOL0     H19603   9.280   0.928   8.642  0.1148 -0.2262  0.2598
  149MOL0     H19604   9.037   0.942   8.680  2.6908 -2.9466  0.0159
  149MOL0     H19605   8.808   1.043   8.735  0.8118 -2.3602 -0.0378
  149MOL0     H19606   8.810   0.932   8.608  2.2714 -0.6542  1.7823
  149MOL0     H19607   8.622   1.033   8.500  0.2884 -5.4100  2.2808
  149MOL0     H19608   8.646   1.191   8.581 -1.4189  0.9442  0.5523
  149MOL0     H19609   8.590   1.062   8.803 -1.7607 -2.3189  2.0887
  149MOL0     H19610   8.545   0.925   8.709 -0.7034 -0.4113  1.3794
  149MOL0     H19611   8.435   1.212   8.667  2.9729  0.9862  0.6628
  149MOL0     H19612   8.363   1.064   8.591  0.6445  2.1775 -2.0328
  149MOL0     H19613   8.242   1.176   8.787 -0.7324 -0.5152 -2.5289
  149MOL0     H19614   8.388   1.137   8.884  0.2896 -1.2342  0.0079
  149MOL0     H19615   8.361   0.890   8.849 -0.4985 -0.5301  1.0962
  149MOL0     H19616   8.206   0.924   8.786 -0.2654  1.2254  1.4457
  149MOL0     H19617   8.303   1.022   9.062  1.9313  0.1417 -2.5280
  149MOL0     H19618   8.147   1.055   9.010 -1.7570 -1.5717 -1.0151
  149MOL0     H19619   8.140   0.865   9.151 -0.1398  0.0912 -0.1411
  149MOL0     H19620   8.249   0.769   9.056  1.3682  0.7043  1.6459
  149MOL0     H19621   7.908   0.927   9.068  1.5922  1.3169 -0.9384
  149MOL0     H19622   7.659   0.747   9.047  2.8377 -4.2459 -0.2526
  149MOL0     H19623   7.642   0.675   8.888  1.6177 -0.3270 -3.1818
  149MOL0     H19624   7.630   0.964   8.965  0.5472 -1.2943 -0.0861
  149MOL0     H19625   7.522   0.874   8.859 -0.3877  1.9757 -2.0042
  149MOL0     H19626   7.805   0.958   8.800  0.0677  1.1746  0.3934
  149MOL0     H19627   7.699   0.866   8.687 -1.0350 -0.4906  1.3431
  149MOL0     H19628   7.702   1.146   8.783 -2.0234  2.6450 -0.7489
  149MOL0     H19629   7.542   1.083   8.757  1.9006  2.7240  3.8958
  149MOL0     H19630   7.656   1.129   8.343 -0.1707 -0.6682 -1.9964
  149MOL0     H19631   7.844   1.164   8.199  0.2864 -0.1007 -0.4083
  149MOL0     H19632   8.424   1.252   8.424 -1.4157 -0.2559 -0.9621
  149MOL0     H19633   8.641   1.292   8.333  2.0769 -2.5281  1.6799
  149MOL0     H19634   8.925   1.239   8.099  0.1846  0.6103  0.3059
  149MOL0     H19635   8.846   1.200   8.247 -2.5319 -0.4156 -0.8279
  149MOL0     H19636   8.847   1.435   8.281 -2.0357  0.2709  0.4115
  149MOL0     H19637   8.727   1.450   8.150  0.5694 -2.5004 -2.4693
  149MOL0     H19638   9.022   1.458   8.119 -1.7191 -3.6658  1.1004
  149MOL0     H19639   8.897   1.587   8.096 -3.5332 -0.3769 -0.7041
  149MOL0     H19640   8.931   1.340   7.911 -0.7901 -0.2626  0.7320
  149MOL0     H19641   8.799   1.449   7.907  0.1138  0.4667 -1.0001
  149MOL0     H19642   8.964   1.649   7.857 -0.3278 -0.2036  0.3487
  149MOL0     H19643   8.960   1.503   7.749 -0.9100 -2.3646  1.5667
  149MOL0     H19644   9.150   1.433   7.860 -1.1142  0.8512  1.5828
  149MOL0     H19645   9.157   1.570   7.970 -2.0504 -0.8510  1.5606
  149MOL0     H19646   9.179   1.712   7.786 -0.0735  0.1254 -0.4919
  149MOL0     H19647   9.321   1.606   7.795 -0.1118 -2.1261 -0.3508
  149MOL0     H19648   9.242   1.647   7.563 -0.8208  2.6761  3.8948
  149MOL0     H19649   9.107   1.544   7.591 -0.9724  2.4114  2.7856
  149MOL0     H19650   8.528   1.041   7.997  2.8774  2.1389 -0.8034
  149MOL0     H19651   8.314   1.004   8.100 -0.5181  0.8729 -0.7012
  149MOL0     H19652   8.104   1.118   8.545  0.4269 -0.1752 -0.9730
  149MOL0     H19653   7.901   1.111   8.677  1.3753 -0.6915 -1.5556
  149MOL0     H19654   9.009   1.248   8.370  1.3181  2.5334 -0.6287
  149MOL0     H19655   9.245   1.221   8.322  1.1071  1.4054  0.5948
  149MOL0     H19656   9.574   1.170   8.260  1.1797  1.6722 -0.7793
  149MOL0     H19657   9.790   1.199   8.170  1.5058 -0.9606  0.2313
  149MOL0     H19658  10.055   1.362   8.256 -0.1607 -1.2083  0.5938
  149MOL0     H19659   9.983   1.254   8.130 -1.1745  1.0409  0.1335
  149MOL0     H19660  10.228   1.320   8.098 -1.8613  1.0604 -0.8232
  149MOL0     H19661  10.265   1.237   8.247 -1.7175 -2.2298 -0.1824
  149MOL0     H19662  10.139   1.115   8.013  0.0189 -1.0282  0.0964
  149MOL0     H19663  10.153   1.022   8.164 -1.2228  0.5308 -0.4140
  149MOL0     H19664  10.333   1.008   7.956  1.9506  1.3550 -0.9479
  149MOL0     H19665  10.406   1.131   8.046 -0.1113  0.8331  1.4870
  149MOL0     H19666  10.470   0.807   8.308  0.7702  1.4600 -0.3502
  149MOL0     H19667   9.968   1.093   8.560 -2.8492  0.2776  3.4036
  149MOL0     H19668   9.752   1.045   8.632 -0.3437  1.0771  0.1373
  150MOL0     O19669   8.096   9.630  10.621  0.0397  0.2927 -0.5581
  150MOL0     C19670   8.137   9.520  10.642  0.3323  0.6027  0.5344
  150MOL0     O19671   8.053   9.413  10.658 -0.3419  0.1806 -0.9534
  150MOL0     C19672   7.922   9.434  10.624 -0.8960  0.8642 -0.3828
  150MOL0     C19673   7.844   9.478  10.727  0.3436  0.6831 -0.1199
  150MOL0     C19674   7.716   9.531  10.702  0.2597  0.4619 -0.1358
  150MOL0     C19675   7.667   9.521  10.577  0.2678 -0.0014 -0.1843
  150MOL0     O19676   7.559   9.586  10.541  1.0425 -0.3937  0.0005
  150MOL0     C19677   7.438   9.566  10.619  0.0365  0.0054 -0.1283
  150MOL0     C19678   7.330   9.638  10.538  0.1200 -0.0490 -0.4594
  150MOL0     C19679   7.195   9.572  10.578  0.5394 -0.4391 -0.8002
  150MOL0     C19680   7.085   9.653  10.510 -0.1102 -0.8321  0.0428
  150MOL0     C19681   6.963   9.561  10.501  0.3058  0.3812 -1.3514
  150MOL0     C19682   6.858   9.625  10.408 -0.7193  0.1275  0.3982
  150MOL0     C19683   6.721   9.555  10.420 -1.0509  0.1773 -0.4347
  150MOL0     C19684   6.615   9.656  10.465 -0.0975  0.5636  0.2667
  150MOL0     N19685   6.472   9.601  10.440  0.5291  0.8846 -0.4466
  150MOL0     C19686   6.404   9.608  10.317  0.3932  1.3603  0.1593
  150MOL0     C19687   6.282   9.566  10.342  0.1254  0.1463 -0.3753
  150MOL0     C19688   6.171   9.546  10.242 -0.3095 -0.2647 -0.0283
  150MOL0     C19689   6.032   9.532  10.296  0.3410 -0.0408  0.1029
  150MOL0     C19690   5.938   9.499  10.178  0.0404 -0.4039 -0.1571
  150MOL0     C19691   5.814   9.579  10.189  0.1382  0.5921 -0.3595
  150MOL0     O19692   5.744   9.564  10.314  0.4010 -0.2166  0.4859
  150MOL0     C19693   5.607   9.587  10.307 -0.4630  0.4236 -0.0639
  150MOL0     C19694   5.537   9.663  10.208 -0.5042 -0.5237 -0.0405
  150MOL0     C19695   5.402   9.682  10.214  0.6343 -0.1305  0.1657
  150MOL0     C19696   5.330   9.644  10.325  0.2565 -0.0599  0.0103
  150MOL0     C19697   5.189   9.670  10.335 -0.0835  0.7920  0.0879
  150MOL0     O19698   5.122   9.704  10.218 -0.3581 -0.4754  0.1156
  150MOL0     C19699   4.990   9.729  10.216  0.8766 -0.2573  0.2716
  150MOL0     C19700   4.899   9.624  10.252  0.3117 -0.4528 -0.8981
  150MOL0     C19701   4.761   9.649  10.247  0.6694 -1.0529 -1.0660
  150MOL0     C19702   4.714   9.783  10.207 -0.3494  0.1458 -0.1519
  150MOL0     O19703   4.586   9.825  10.205 -0.4409 -0.6798  0.0606
  150MOL0     C19704   4.506   9.789  10.315  0.0981  0.6043  0.8497
  150MOL0     C19705   4.386   9.886  10.305  0.0186 -0.2988 -0.8034
  150MOL0     C19706   4.258   9.807  10.345 -0.7547 -0.7410  0.6010
  150MOL0     C19707   4.265   9.750  10.490  0.4011  0.3374 -0.6100
  150MOL0     C19708   4.147   9.648  10.521  0.5448 -0.4396  0.5399
  150MOL0     C19709   4.126   9.618  10.672  0.5909 -0.1136  0.2761
  150MOL0     C19710   4.069   9.475  10.686 -0.1596 -0.2217 -0.6758
  150MOL0     C19711   4.004   9.463  10.829 -0.5911 -1.7704  0.3517
  150MOL0    Cl19712   4.135   9.448  10.957  0.3814  0.3694  0.0541
  150MOL0     C19713   4.804   9.882  10.161  0.1103 -0.9924 -0.8191
  150MOL0     C19714   4.941   9.855  10.164  0.5713  0.3116 -0.0049
  150MOL0     O19715   5.131   9.659  10.442  0.2054 -0.3902 -0.4736
  150MOL0     C19716   5.392   9.578  10.429  0.4490 -0.0355  0.0456
  150MOL0     C19717   5.524   9.551  10.419 -0.4583  0.2643  0.1051
  150MOL0     N19718   6.268   9.536  10.477  1.2848  1.0716 -0.2241
  150MOL0     N19719   6.383   9.560  10.533 -0.4990  0.5254 -0.2403
  150MOL0     C19720   7.740   9.459  10.472 -0.0944 -1.1955 -0.8165
  150MOL0     C19721   7.872   9.413  10.493 -0.0397  0.4351 -0.0305
  150MOL0     C19722   8.281   9.498  10.643  0.4973  0.2174  0.2813
  150MOL0     C19723   8.370   9.606  10.656  0.2714  1.0670  0.1966
  150MOL0     C19724   8.506   9.582  10.659  0.4459 -0.5377  0.0792
  150MOL0     C19725   8.561   9.458  10.636  1.0295  0.0965  0.2355
  150MOL0     O19726   8.692   9.441  10.628 -0.2524  0.4050  0.4367
  150MOL0     C19727   8.734   9.321  10.567  0.1534  0.9968 -0.6402
  150MOL0     C19728   8.891   9.318  10.531  0.0383 -0.1331  0.3806
  150MOL0     C19729   8.935   9.422  10.430 -0.7668 -0.7578 -0.2763
  150MOL0     C19730   9.090   9.454  10.438  0.2930  0.1039  0.3173
  150MOL0     C19731   9.126   9.545  10.321 -0.0582  0.3556 -0.6629
  150MOL0     C19732   9.139   9.621  10.225 -0.8768 -0.4289 -0.0370
  150MOL0     C19733   8.474   9.353  10.616 -0.2506  0.9024 -0.3018
  150MOL0     C19734   8.338   9.372  10.632 -0.4619  1.2425  0.3256
  150MOL0     H19735   7.889   9.478  10.826  0.2101  3.0225 -0.0187
  150MOL0     H19736   7.664   9.575  10.786 -3.6743  4.2977 -4.0594
  150MOL0     H19737   7.453   9.602  10.721 -2.1597  1.5241 -0.2673
  150MOL0     H19738   7.411   9.461  10.631 -0.1236 -0.0700 -1.0153
  150MOL0     H19739   7.358   9.624  10.433 -2.1552 -0.5623 -1.0577
  150MOL0     H19740   7.336   9.747  10.552 -0.0545 -0.1369  0.3514
  150MOL0     H19741   7.187   9.565  10.687  0.9597  0.7584 -0.6798
  150MOL0     H19742   7.190   9.467  10.548  0.1310 -0.6854  0.0697
  150MOL0     H19743   7.059   9.744  10.567 -0.2853 -3.5022  4.7559
  150MOL0     H19744   7.128   9.674  10.412  2.7774 -0.8221  1.2246
  150MOL0     H19745   6.915   9.559  10.600  0.3549  4.6699 -1.0421
  150MOL0     H19746   6.991   9.463  10.463  1.0415 -0.2176  0.6078
  150MOL0     H19747   6.912   9.616  10.313  0.7490  2.9293  0.8667
  150MOL0     H19748   6.846   9.727  10.444  0.2015 -0.4824  2.5865
  150MOL0     H19749   6.712   9.494  10.329  1.7715  0.1218 -0.7874
  150MOL0     H19750   6.726   9.480  10.500 -1.9583  1.7699  1.1786
  150MOL0     H19751   6.629   9.747  10.407  2.5228 -1.1292 -2.0147
  150MOL0     H19752   6.624   9.681  10.571 -0.3738  2.1452 -0.0595
  150MOL0     H19753   6.455   9.636  10.225  2.1188 -1.7281  0.0177
  150MOL0     H19754   6.192   9.460  10.178 -1.2851  0.6709 -1.6568
  150MOL0     H19755   6.186   9.630  10.175  0.0118 -0.7732 -0.5979
  150MOL0     H19756   6.008   9.616  10.361  4.0697 -0.4959  2.4026
  150MOL0     H19757   6.031   9.445  10.362 -2.7274 -1.0781 -1.1508
  150MOL0     H19758   5.991   9.525  10.086 -0.3334  0.5344 -0.1147
  150MOL0     H19759   5.906   9.394  10.170 -0.7997 -0.2073  0.4768
  150MOL0     H19760   5.747   9.534  10.115 -0.9403  1.3539  0.1193
  150MOL0     H19761   5.832   9.686  10.174  0.4927  0.4857 -0.7116
  150MOL0     H19762   5.590   9.701  10.121 -1.7351  0.4164 -0.3997
  150MOL0     H19763   5.350   9.727  10.130 -3.2260 -3.0012  0.7240
  150MOL0     H19764   4.929   9.527  10.288  2.0622 -0.0376 -1.1651
  150MOL0     H19765   4.695   9.570  10.281  0.3292 -0.2598  0.1914
  150MOL0     H19766   4.552   9.797  10.414 -0.9250 -0.8834  1.4875
  150MOL0     H19767   4.465   9.688  10.308 -1.3016  0.9110  3.3734
  150MOL0     H19768   4.382   9.924  10.203 -1.6222  0.9780 -0.3182
  150MOL0     H19769   4.401   9.971  10.372 -1.5011  1.2480 -2.3124
  150MOL0     H19770   4.242   9.716  10.286  1.3880 -0.7182 -0.1059
  150MOL0     H19771   4.170   9.872  10.343 -0.0037  0.2790 -0.8952
  150MOL0     H19772   4.365   9.708  10.508 -0.2860 -2.7108 -2.9875
  150MOL0     H19773   4.252   9.843  10.545 -2.6465 -1.3594  1.8825
  150MOL0     H19774   4.169   9.556  10.466  3.5874 -0.5173  1.6777
  150MOL0     H19775   4.058   9.686  10.470 -0.3315 -0.7279  1.8099
  150MOL0     H19776   4.066   9.694  10.723  1.5274  1.5018 -0.9385
  150MOL0     H19777   4.223   9.634  10.719  1.2454 -1.4942 -0.5282
  150MOL0     H19778   3.991   9.455  10.612 -4.2385  1.0542  2.8314
  150MOL0     H19779   4.153   9.407  10.671  1.8393  1.9372  0.1256
  150MOL0     H19780   3.941   9.373  10.826 -3.7474  0.3011  0.0732
  150MOL0     H19781   3.942   9.548  10.859  3.4198  0.3545  3.6527
  150MOL0     H19782   4.737   9.960  10.127  0.0915 -0.6315  0.0117
  150MOL0     H19783   5.014   9.926  10.128  1.8552 -1.4361 -0.9748
  150MOL0     H19784   5.341   9.554  10.522 -1.1844  2.0725 -0.2282
  150MOL0     H19785   5.580   9.516  10.505 -1.4963 -0.2816  0.5722
  150MOL0     H19786   7.697   9.459  10.372 -0.3684 -0.1464 -0.7069
  150MOL0     H19787   7.932   9.370  10.414 -0.0022  0.8437 -0.2256
  150MOL0     H19788   8.328   9.706  10.650  1.5284  1.5738 -0.6409
  150MOL0     H19789   8.581   9.658  10.678  0.0891 -0.5140  1.4968
  150MOL0     H19790   8.680   9.316  10.473 -2.4099  3.0532  0.6059
  150MOL0     H19791   8.721   9.232  10.629 -1.0074  1.0779 -0.7619
  150MOL0     H19792   8.956   9.341  10.616 -1.6353  2.3049  1.1308
  150MOL0     H19793   8.910   9.217  10.493 -2.9757 -0.2121 -1.2317
  150MOL0     H19794   8.879   9.511  10.460 -0.6803 -1.1962  1.2707
  150MOL0     H19795   8.891   9.394  10.334 -2.5065  0.1902  0.1916
  150MOL0     H19796   9.121   9.505  10.530  0.6547 -2.3644  1.6326
  150MOL0     H19797   9.136   9.355  10.437 -4.8661 -2.6054 -0.8794
  150MOL0     H19798   9.147   9.684  10.138  0.5951 -1.1830 -0.4893
  150MOL0     H19799   8.504   9.249  10.608  3.9048  1.9507 -0.6044
  150MOL0     H19800   8.262   9.295  10.625 -1.7215  2.5682 -1.2914
  151MOL0     O19801   5.910   7.953  10.854 -0.2590  0.8952  0.4796
  151MOL0     C19802   5.902   7.958  10.734  1.0391  1.3719  0.6830
  151MOL0     O19803   6.011   7.951  10.645 -0.5964 -0.2438  0.2637
  151MOL0     C19804   6.136   7.991  10.686 -0.9554 -0.1133 -0.2531
  151MOL0     C19805   6.154   8.104  10.769 -0.1559  0.1595  1.1338
  151MOL0     C19806   6.280   8.157  10.799 -0.0563 -0.8415  0.4420
  151MOL0     C19807   6.392   8.101  10.737 -0.3001  0.4177 -0.3605
  151MOL0     O19808   6.520   8.160  10.749 -0.2472 -0.0014 -0.0010
  151MOL0     C19809   6.539   8.290  10.805  0.6409  0.1840  0.4317
  151MOL0     C19810   6.697   8.326  10.803  0.1753  0.0172 -0.6389
  151MOL0     C19811   6.779   8.243  10.896 -0.3880  0.0111  0.1602
  151MOL0     C19812   6.937   8.240  10.863 -0.1447 -0.4342 -0.0945
  151MOL0     C19813   6.999   8.356  10.935  0.4420  0.1795 -0.7418
  151MOL0     C19814   7.137   8.366  10.862 -0.1197 -0.2001  0.0883
  151MOL0     C19815   7.248   8.446  10.940  0.4639 -0.3186 -0.2716
  151MOL0     C19816   7.318   8.349  11.038 -0.0140 -0.0627 -0.7419
  151MOL0     N19817   7.424   8.427  11.115  0.5294  0.0718  0.0232
  151MOL0     C19818   7.406   8.510  11.224 -0.0096 -0.0841 -0.4991
  151MOL0     C19819   7.531   8.569  11.237  0.5290 -0.6265  0.6183
  151MOL0     C19820   7.583   8.658  11.354  1.4300  0.8508 -0.3589
  151MOL0     C19821   7.614   8.801  11.328 -1.5695  0.4682 -0.3511
  151MOL0     C19822   7.648   8.842  11.184  0.4245 -0.4284 -0.2454
  151MOL0     C19823   7.516   8.871  11.110  0.7041 -0.4179  0.2781
  151MOL0     O19824   7.546   8.858  10.970 -0.1278  0.3089 -0.1508
  151MOL0     C19825   7.442   8.831  10.884 -0.1709 -0.3999  0.3057
  151MOL0     C19826   7.483   8.785  10.765 -0.4280 -0.6469  1.6516
  151MOL0     C19827   7.392   8.741  10.673  0.7046 -0.5468 -0.4731
  151MOL0     C19828   7.244   8.738  10.700  0.3867 -0.9516  0.1771
  151MOL0     C19829   7.146   8.699  10.602 -0.4231  0.4602 -0.1352
  151MOL0     O19830   7.018   8.689  10.647  0.5876  0.2965  0.7377
  151MOL0     C19831   6.903   8.684  10.576  0.3272 -0.1029 -0.7068
  151MOL0     C19832   6.889   8.758  10.458  0.8224  0.1117 -0.8935
  151MOL0     C19833   6.760   8.766  10.407 -0.2237  0.0271 -0.3466
  151MOL0     C19834   6.656   8.694  10.461  0.4118 -0.2024 -0.0710
  151MOL0     O19835   6.528   8.695  10.404  0.3802 -0.3160 -0.1764
  151MOL0     C19836   6.477   8.826  10.381  0.8340  0.1070 -0.0241
  151MOL0     C19837   6.334   8.808  10.327  0.0507  0.3034  0.1958
  151MOL0     C19838   6.258   8.946  10.315  0.4985 -0.4348  0.1437
  151MOL0     C19839   6.114   8.905  10.283 -0.0317  0.2078  0.7780
  151MOL0     C19840   6.023   9.029  10.257  0.5305  0.2619  0.6900
  151MOL0     C19841   5.870   9.002  10.234  0.9024  0.3064  0.3318
  151MOL0     C19842   5.779   9.130  10.209  0.2379  0.5120  0.0266
  151MOL0     C19843   5.626   9.095  10.199 -0.2678  0.7738 -0.1708
  151MOL0    Cl19844   5.514   9.238  10.200 -0.1475 -0.0657 -0.1332
  151MOL0     C19845   6.676   8.622  10.579  0.5650 -0.1740 -0.0558
  151MOL0     C19846   6.800   8.616  10.635 -0.0524 -0.9497 -0.2336
  151MOL0     O19847   7.182   8.680  10.491 -0.6183 -0.9050 -0.0253
  151MOL0     C19848   7.203   8.792  10.828  0.0537 -0.7684  0.4589
  151MOL0     C19849   7.305   8.835  10.916  0.3853 -0.3738 -0.5186
  151MOL0     N19850   7.611   8.532  11.130  0.1416 -0.0903  0.3245
  151MOL0     N19851   7.545   8.454  11.054  0.3919  0.2632 -0.9060
  151MOL0     C19852   6.379   7.985  10.651 -0.7615 -0.1008 -0.9259
  151MOL0     C19853   6.247   7.946  10.612  0.6088  0.0073  0.2787
  151MOL0     C19854   5.767   7.989  10.678 -0.1284  0.0642 -0.7390
  151MOL0     C19855   5.648   7.939  10.743 -0.4920  0.6182  0.1471
  151MOL0     C19856   5.523   7.972  10.685  1.0710 -0.6543  0.1859
  151MOL0     C19857   5.513   8.049  10.567  0.5872  0.9226  0.0063
  151MOL0     O19858   5.388   8.089  10.533  0.3602  0.0951  0.6400
  151MOL0     C19859   5.369   8.204  10.449  0.3622  0.8074  0.4479
  151MOL0     C19860   5.232   8.259  10.461 -0.0346 -0.0955  0.6741
  151MOL0     C19861   5.182   8.383  10.380  0.0830 -0.3815  0.1502
  151MOL0     C19862   5.191   8.387  10.228  0.7356  0.2164 -0.3926
  151MOL0     C19863   5.323   8.431  10.190 -0.1496 -0.4656  0.8758
  151MOL0     C19864   5.439   8.444  10.182  0.7579  0.0973 -0.0132
  151MOL0     C19865   5.634   8.096  10.514  0.6493  0.1773 -0.0017
  151MOL0     C19866   5.757   8.063  10.563 -0.3987  0.4065 -0.9641
  151MOL0     H19867   6.068   8.150  10.816  0.2314  2.0837  0.0607
  151MOL0     H19868   6.293   8.240  10.867  3.4621 -1.5914  0.8474
  151MOL0     H19869   6.501   8.296  10.908 -3.2905  0.3309 -0.8498
  151MOL0     H19870   6.478   8.358  10.745 -0.8631 -1.5997 -0.1719
  151MOL0     H19871   6.698   8.433  10.828 -0.9380  0.7817 -3.4521
  151MOL0     H19872   6.727   8.320  10.698  1.0560 -2.1542 -0.3180
  151MOL0     H19873   6.746   8.139  10.887 -0.5419 -0.0421  1.1711
  151MOL0     H19874   6.756   8.267  11.001 -0.6717  2.5277 -0.4172
  151MOL0     H19875   6.969   8.143  10.903 -1.6753 -0.5221  1.0173
  151MOL0     H19876   6.948   8.246  10.754 -3.0033 -1.3031 -0.5133
  151MOL0     H19877   7.009   8.330  11.041 -3.7483  2.9144  0.5846
  151MOL0     H19878   6.948   8.453  10.936  2.6255  1.4319 -1.6930
  151MOL0     H19879   7.121   8.405  10.762  0.0375 -1.6296 -0.5163
  151MOL0     H19880   7.185   8.270  10.843 -2.2353 -1.6716  1.6239
  151MOL0     H19881   7.331   8.478  10.875  1.3554  0.7244  1.3205
  151MOL0     H19882   7.206   8.539  10.979 -3.8769  0.6769 -5.9068
  151MOL0     H19883   7.368   8.269  10.983 -2.0522  0.7422 -4.0147
  151MOL0     H19884   7.248   8.301  11.108  0.4346 -1.6461 -1.3361
  151MOL0     H19885   7.313   8.525  11.278 -0.0613 -3.1705  0.4447
  151MOL0     H19886   7.671   8.615  11.403  0.1393 -0.0282  1.3155
  151MOL0     H19887   7.510   8.662  11.436  0.3413 -2.1110 -1.0612
  151MOL0     H19888   7.707   8.822  11.381  0.0268  0.8641 -3.1307
  151MOL0     H19889   7.539   8.871  11.367 -1.6571 -0.3069  0.9056
  151MOL0     H19890   7.701   8.937  11.192 -0.0956 -0.0535 -1.0882
  151MOL0     H19891   7.719   8.784  11.125  0.0984  1.8232 -3.0871
  151MOL0     H19892   7.476   8.971  11.131  1.3654  0.5327 -2.5230
  151MOL0     H19893   7.433   8.802  11.127 -1.4220  2.1784  1.2197
  151MOL0     H19894   7.587   8.768  10.735  0.0975  3.8600  0.1491
  151MOL0     H19895   7.432   8.694  10.584  0.3845 -0.9967 -0.3864
  151MOL0     H19896   6.969   8.822  10.423  1.3364 -0.4590 -0.7785
  151MOL0     H19897   6.732   8.824  10.319 -2.4543  2.1082  1.5952
  151MOL0     H19898   6.527   8.877  10.299  0.7274 -1.5793 -1.1989
  151MOL0     H19899   6.483   8.880  10.476  1.5013 -0.6342  0.3730
  151MOL0     H19900   6.283   8.748  10.403  2.6340  0.9796  2.6759
  151MOL0     H19901   6.341   8.754  10.232  0.2541 -0.6222  0.7148
  151MOL0     H19902   6.307   9.001  10.234  1.0012  0.3286  0.9426
  151MOL0     H19903   6.272   8.996  10.412 -0.3110 -2.1665  1.2088
  151MOL0     H19904   6.103   8.827  10.207 -0.7492  2.9566 -2.1747
  151MOL0     H19905   6.091   8.866  10.382  2.6173 -2.2699  0.5593
  151MOL0     H19906   6.055   9.059  10.157  1.0416 -1.3487  0.3302
  151MOL0     H19907   6.034   9.111  10.328 -0.0032  0.7384  0.2334
  151MOL0     H19908   5.832   8.945  10.319  3.0736 -1.7376  0.0280
  151MOL0     H19909   5.860   8.925  10.157  0.9404 -0.8499  1.4438
  151MOL0     H19910   5.799   9.183  10.303  3.7124  0.8293 -0.7648
  151MOL0     H19911   5.813   9.189  10.124  1.3907  0.8970  0.7320
  151MOL0     H19912   5.599   9.032  10.285  2.7994 -0.3326  0.1182
  151MOL0     H19913   5.615   9.025  10.115 -0.6363  2.4057 -1.5194
  151MOL0     H19914   6.596   8.571  10.631 -1.5595  2.5229 -0.4657
  151MOL0     H19915   6.821   8.567  10.730  0.0650 -1.0458 -0.3095
  151MOL0     H19916   7.098   8.808  10.851  0.1731  3.3585 -1.0671
  151MOL0     H19917   7.273   8.860  11.016  0.0395 -0.4252 -0.6153
  151MOL0     H19918   6.467   7.932  10.615  0.8440 -0.6448  3.1904
  151MOL0     H19919   6.223   7.882  10.528 -0.5166  0.1985  0.4369
  151MOL0     H19920   5.661   7.880  10.833 -2.2418  3.5670  2.5175
  151MOL0     H19921   5.427   7.946  10.729 -0.6859  0.5194 -2.6931
  151MOL0     H19922   5.384   8.182  10.342  2.1612  2.5355  0.2860
  151MOL0     H19923   5.441   8.284  10.466  2.3216 -0.0584 -2.8091
  151MOL0     H19924   5.158   8.180  10.445  0.0556 -0.2662  1.1103
  151MOL0     H19925   5.219   8.270  10.569 -0.0421 -1.2168  0.8008
  151MOL0     H19926   5.231   8.468  10.428 -0.4020 -0.2313  0.3853
  151MOL0     H19927   5.076   8.375  10.405 -0.2458  2.8032  0.2729
  151MOL0     H19928   5.177   8.287  10.186  1.0076  0.3747 -0.8678
  151MOL0     H19929   5.111   8.444  10.178 -0.2811 -0.7353  0.1111
  151MOL0     H19930   5.544   8.460  10.170  1.8839 -2.3414  4.3150
  151MOL0     H19931   5.621   8.163  10.429 -0.2201 -1.4882 -1.2591
  151MOL0     H19932   5.852   8.107  10.538  1.5881 -0.3238  4.1134
  152MOL0     O19933   9.804  10.408   4.456  0.2580 -0.5986  0.5000
  152MOL0     C19934   9.872  10.415   4.560  0.4887  0.8153  0.1163
  152MOL0     O19935   9.825  10.387   4.689  0.6583 -0.0579 -0.5378
  152MOL0     C19936   9.694  10.353   4.715  0.0413 -0.7009  0.2606
  152MOL0     C19937   9.603  10.287   4.626  0.0250 -0.1710 -0.3467
  152MOL0     C19938   9.476  10.260   4.676  0.3472 -0.4612  0.7839
  152MOL0     C19939   9.430  10.293   4.804 -0.1656  0.3914 -0.4233
  152MOL0     O19940   9.298  10.261   4.832 -0.6910 -0.9389  0.8046
  152MOL0     C19941   9.210  10.352   4.890  0.1588 -0.2188 -0.0088
  152MOL0     C19942   9.135  10.411   4.773  0.3621  0.2764 -0.0900
  152MOL0     C19943   9.001  10.477   4.807  0.6535 -0.3725 -1.1499
  152MOL0     C19944   8.893  10.374   4.811  0.2822  0.0883 -0.3690
  152MOL0     C19945   8.749  10.432   4.781  0.2464 -0.0965  0.0214
  152MOL0     C19946   8.711  10.569   4.840  0.5680 -0.1316 -0.3562
  152MOL0     C19947   8.564  10.592   4.846  0.5814  0.8432 -1.1080
  152MOL0     C19948   8.509  10.530   4.977 -0.3199  0.1395  1.8589
  152MOL0     N19949   8.365  10.517   4.977  1.3664  0.2373 -0.7788
  152MOL0     C19950   8.277  10.573   5.073 -1.2969 -0.5199 -0.2815
  152MOL0     C19951   8.149  10.552   5.024 -0.0957  0.8717 -0.0759
  152MOL0     C19952   8.020  10.586   5.092 -0.4355 -0.3478 -0.0950
  152MOL0     C19953   7.882  10.554   5.014  0.0616  0.3935  0.1328
  152MOL0     C19954   7.758  10.632   5.065  0.4396 -0.6355  0.0543
  152MOL0     C19955   7.632  10.631   4.980  0.1536 -1.0136  0.1894
  152MOL0     O19956   7.540  10.732   5.046 -0.1164 -1.2576  0.5779
  152MOL0     C19957   7.421  10.766   4.982  0.0294  0.0819 -0.0765
  152MOL0     C19958   7.368  10.897   5.004  0.1462  0.2217  0.7255
  152MOL0     C19959   7.248  10.937   4.947  0.3174 -1.1362  0.6924
  152MOL0     C19960   7.186  10.853   4.858 -0.1727 -0.2632 -1.5423
  152MOL0     C19961   7.068  10.899   4.784 -0.3696  0.9343 -0.7565
  152MOL0     O19962   7.051  11.028   4.795  0.2521 -0.8687  0.0232
  152MOL0     C19963   6.945  11.093   4.743 -0.3673 -0.4429  0.3042
  152MOL0     C19964   6.965  11.221   4.696  0.0496 -1.0196  0.0760
  152MOL0     C19965   6.850  11.299   4.661 -0.0066 -0.1362  1.0229
  152MOL0     C19966   6.717  11.248   4.674 -0.6899 -0.3172 -0.0693
  152MOL0     O19967   6.615  11.333   4.622  1.1333  0.3981 -0.1223
  152MOL0     C19968   6.614  11.475   4.656 -0.0774  0.1080 -0.7419
  152MOL0     C19969   6.532  11.504   4.781  0.0922 -0.0829 -0.0781
  152MOL0     C19970   6.393  11.556   4.748 -0.2201  0.4272  0.0932
  152MOL0     C19971   6.306  11.540   4.869  0.3570  1.8020  1.0232
  152MOL0     C19972   6.150  11.555   4.834  0.3471 -0.1284 -1.1968
  152MOL0     C19973   6.110  11.701   4.823 -0.8317 -0.6940 -0.4958
  152MOL0     C19974   5.961  11.706   4.780  0.1387 -0.2684  0.0092
  152MOL0     C19975   5.927  11.855   4.777  0.3110  0.4996 -0.2537
  152MOL0    Cl19976   5.898  11.913   4.944  0.2320 -0.2436 -0.4822
  152MOL0     C19977   6.693  11.120   4.714 -0.3257  0.0029 -0.8113
  152MOL0     C19978   6.805  11.050   4.754 -0.1919  0.4646  0.1609
  152MOL0     O19979   7.005  10.824   4.713 -0.0793 -0.3403 -0.8361
  152MOL0     C19980   7.243  10.727   4.820 -0.1630 -0.7076  0.2004
  152MOL0     C19981   7.358  10.686   4.883 -0.5416  0.1555 -0.0258
  152MOL0     N19982   8.161  10.469   4.915 -0.7011 -0.7870 -0.0728
  152MOL0     N19983   8.288  10.447   4.889 -0.1150  0.1577 -0.1180
  152MOL0     C19984   9.524  10.357   4.894  0.3207 -0.4032 -0.5944
  152MOL0     C19985   9.651  10.389   4.848 -0.5192  0.3517 -0.0837
  152MOL0     C19986  10.010  10.469   4.555 -1.5524  0.0927  0.4412
  152MOL0     C19987  10.071  10.505   4.431  0.8862 -0.2715 -0.1548
  152MOL0     C19988  10.203  10.540   4.414  0.4556  0.4699  0.0916
  152MOL0     C19989  10.282  10.541   4.525 -0.7384  0.2130 -0.0732
  152MOL0     O19990  10.418  10.578   4.529  0.3479 -0.1039  0.5347
  152MOL0     C19991  10.489  10.596   4.403 -1.1253 -0.3855 -0.4438
  152MOL0     C19992  10.605  10.705   4.412  0.8826  0.3454 -0.4854
  152MOL0     C19993  10.663  10.734   4.273 -0.8540  0.3537 -0.2439
  152MOL0     C19994  10.744  10.625   4.221 -0.1378  0.7963 -0.2698
  152MOL0     C19995  10.792  10.655   4.087  0.0702 -0.2758 -0.1507
  152MOL0     C19996  10.821  10.678   3.975  0.1177  0.4968 -0.3883
  152MOL0     C19997  10.230  10.515   4.656 -0.9423  0.7094 -0.6487
  152MOL0     C19998  10.096  10.470   4.670  0.1734 -0.9923  0.6042
  152MOL0     H19999   9.633  10.278   4.522 -0.0161 -0.7476 -0.3113
  152MOL0     H20000   9.401  10.211   4.615  1.3883 -0.3390 -0.6288
  152MOL0     H20001   9.260  10.436   4.939 -1.3726  0.4543  0.4916
  152MOL0     H20002   9.144  10.299   4.959  3.5143 -0.7601  3.0558
  152MOL0     H20003   9.122  10.337   4.693 -1.9822  3.5321 -3.0063
  152MOL0     H20004   9.204  10.487   4.735 -0.6096  1.5200  0.5946
  152MOL0     H20005   8.988  10.559   4.735 -3.0323 -1.0392 -1.4207
  152MOL0     H20006   9.014  10.525   4.904 -3.0408  1.5409 -1.4346
  152MOL0     H20007   8.910  10.306   4.726 -2.3257  1.2507 -1.9530
  152MOL0     H20008   8.897  10.322   4.907  0.8295  0.2248 -0.3100
  152MOL0     H20009   8.685  10.363   4.837  0.5802  0.9529  1.7822
  152MOL0     H20010   8.717  10.417   4.677 -1.2047  1.7826  0.1565
  152MOL0     H20011   8.757  10.645   4.777  2.0971 -1.0298 -0.3650
  152MOL0     H20012   8.771  10.578   4.931  1.1436 -1.1768 -0.6140
  152MOL0     H20013   8.541  10.698   4.858  3.2542  1.8276 -3.5860
  152MOL0     H20014   8.511  10.536   4.768 -0.0401  1.1690 -0.9226
  152MOL0     H20015   8.545  10.582   5.067  2.5730 -2.3378  2.2913
  152MOL0     H20016   8.547  10.429   4.994 -1.8170  0.0079  5.2973
  152MOL0     H20017   8.312  10.635   5.156 -2.4762  1.8557 -1.4512
  152MOL0     H20018   8.020  10.695   5.098 -0.8132 -0.3431 -0.1473
  152MOL0     H20019   8.026  10.538   5.190  4.0309 -3.8483 -1.7053
  152MOL0     H20020   7.864  10.446   5.015  1.6605  0.0446  3.1723
  152MOL0     H20021   7.891  10.579   4.908  1.4353 -1.9774 -0.3627
  152MOL0     H20022   7.735  10.600   5.168  0.2657 -0.1361  0.1746
  152MOL0     H20023   7.781  10.739   5.060  1.0599 -0.8283 -1.5566
  152MOL0     H20024   7.596  10.529   4.997  0.3200 -1.0886  0.0914
  152MOL0     H20025   7.656  10.638   4.874 -0.8354 -3.2113 -0.2472
  152MOL0     H20026   7.399  10.963   5.084 -0.4359  0.0513  1.0945
  152MOL0     H20027   7.197  11.026   4.981  1.4268 -0.1512 -0.1464
  152MOL0     H20028   7.063  11.262   4.673 -0.6045  2.2123  2.3278
  152MOL0     H20029   6.861  11.402   4.629 -3.7323 -0.2383 -1.2532
  152MOL0     H20030   6.562  11.507   4.565  0.5919  0.4606 -1.0018
  152MOL0     H20031   6.713  11.520   4.665  0.5298 -1.6540  3.3166
  152MOL0     H20032   6.582  11.585   4.836 -0.9025  0.8973 -0.5761
  152MOL0     H20033   6.532  11.418   4.848  1.3409 -0.6616 -0.7741
  152MOL0     H20034   6.351  11.503   4.662 -0.4784 -0.2453  0.6244
  152MOL0     H20035   6.397  11.659   4.712  0.0052  1.2738  2.3564
  152MOL0     H20036   6.322  11.441   4.913 -2.1929  0.6943 -0.3275
  152MOL0     H20037   6.326  11.617   4.945 -0.2178 -0.0286  3.1343
  152MOL0     H20038   6.093  11.516   4.919  0.4106 -0.5292 -1.3365
  152MOL0     H20039   6.121  11.499   4.744  0.3592 -0.3121 -1.0864
  152MOL0     H20040   6.174  11.743   4.744  2.6569  0.3287  2.5904
  152MOL0     H20041   6.139  11.767   4.905  1.4760  1.8087 -3.0732
  152MOL0     H20042   5.948  11.658   4.683 -0.6285 -1.5823  0.7252
  152MOL0     H20043   5.891  11.649   4.841 -1.4782 -0.1412 -1.6571
  152MOL0     H20044   5.848  11.857   4.701 -0.6311  0.7254  0.7146
  152MOL0     H20045   6.011  11.916   4.742  0.5021  0.5842  0.3449
  152MOL0     H20046   6.598  11.070   4.702 -0.2288 -0.8074  1.3739
  152MOL0     H20047   6.790  10.952   4.800  0.2563  0.9753  1.4492
  152MOL0     H20048   7.201  10.655   4.750 -1.4253  0.1906 -0.0046
  152MOL0     H20049   7.400  10.589   4.857  0.3812  0.2732  0.9351
  152MOL0     H20050   9.478  10.391   4.987 -0.6913 -1.6658 -0.6068
  152MOL0     H20051   9.705  10.462   4.908 -1.1709 -0.2933  1.3260
  152MOL0     H20052   9.998  10.508   4.350 -2.2368  1.4018  2.4813
  152MOL0     H20053  10.238  10.552   4.312 -0.2830 -3.1742 -0.7407
  152MOL0     H20054  10.432  10.624   4.314 -1.5204 -1.1135 -0.4213
  152MOL0     H20055  10.537  10.501   4.379 -1.7790 -0.5291 -1.2201
  152MOL0     H20056  10.567  10.793   4.465 -0.3281 -0.4831  0.0771
  152MOL0     H20057  10.678  10.661   4.480 -1.1093 -2.3323  0.1080
  152MOL0     H20058  10.732  10.815   4.296  1.7363 -1.4559 -1.0922
  152MOL0     H20059  10.585  10.765   4.203 -1.4768 -1.7691 -0.5770
  152MOL0     H20060  10.834  10.621   4.284  0.6858 -0.2858 -1.4546
  152MOL0     H20061  10.689  10.531   4.227  2.8021 -1.2025 -1.8200
  152MOL0     H20062  10.842  10.687   3.870  0.9527 -1.0151 -0.3753
  152MOL0     H20063  10.297  10.526   4.741  0.8232  3.9672 -2.2761
  152MOL0     H20064  10.065  10.438   4.769  0.7651 -0.4198  0.9781
  153MOL0     O20065   8.658   8.608  10.859 -0.6998 -0.2961 -0.1731
  153MOL0     C20066   8.773   8.573  10.875 -0.0935  0.3962 -0.2688
  153MOL0     O20067   8.811   8.437  10.873  0.4964 -0.2106  0.0025
  153MOL0     C20068   8.716   8.333  10.879  0.3685 -0.4840 -0.3743
  153MOL0     C20069   8.708   8.234  10.779 -0.1959  1.2817  0.7451
  153MOL0     C20070   8.605   8.138  10.785 -0.1590 -1.0557  0.4306
  153MOL0     C20071   8.518   8.142  10.893 -0.7687  0.5970 -0.3610
  153MOL0     O20072   8.417   8.051  10.897 -0.4033  0.7293 -0.1492
  153MOL0     C20073   8.284   8.097  10.913 -0.7665  0.3190  0.7686
  153MOL0     C20074   8.224   8.007  11.021 -0.0605  0.9387  0.7115
  153MOL0     C20075   8.075   8.009  11.042 -0.4357  0.1997 -0.4284
  153MOL0     C20076   8.010   8.003  10.909 -1.5365  0.6366  0.7574
  153MOL0     C20077   7.874   7.933  10.923 -0.7068  0.0706  0.6956
  153MOL0     C20078   7.772   8.011  11.001 -1.9454  0.5570 -0.7788
  153MOL0     C20079   7.636   7.959  10.974  0.6746 -0.1518 -0.8461
  153MOL0     C20080   7.538   8.040  11.066  0.3825  0.3690 -0.0996
  153MOL0     N20081   7.402   7.979  11.068  1.3595  1.1477  0.4889
  153MOL0     C20082   7.324   7.956  11.181 -0.3750 -0.3056 -0.5464
  153MOL0     C20083   7.214   7.888  11.130 -0.6834 -0.0064 -0.6180
  153MOL0     C20084   7.100   7.839  11.216 -0.5053 -1.4159  0.3020
  153MOL0     C20085   6.982   7.940  11.197 -0.1727  0.8869 -0.0180
  153MOL0     C20086   6.847   7.872  11.250 -0.3396 -0.1697  0.3661
  153MOL0     C20087   6.712   7.937  11.196  0.0790 -0.5699 -0.7290
  153MOL0     O20088   6.716   8.078  11.225 -0.3394  0.7511 -0.0428
  153MOL0     C20089   6.594   8.141  11.199 -1.1395  0.5207  0.5645
  153MOL0     C20090   6.581   8.268  11.247 -0.2351 -0.1666 -0.6301
  153MOL0     C20091   6.470   8.342  11.231  0.8986  1.0756  0.1478
  153MOL0     C20092   6.363   8.287  11.172  0.0542 -0.8701 -0.0639
  153MOL0     C20093   6.244   8.372  11.157  0.4619 -0.5619  0.5733
  153MOL0     O20094   6.229   8.487  11.228 -0.5888 -0.2234 -0.0035
  153MOL0     C20095   6.108   8.554  11.232  0.0914 -1.1127  0.2414
  153MOL0     C20096   6.091   8.677  11.168  0.4709  0.7178 -0.4044
  153MOL0     C20097   5.970   8.737  11.153  0.2315 -0.4688  0.0623
  153MOL0     C20098   5.861   8.688  11.222 -0.3917  0.7908  0.6262
  153MOL0     O20099   5.742   8.756  11.217 -0.5711 -0.0721  0.0887
  153MOL0     C20100   5.613   8.688  11.228  0.3332 -0.2833  1.0651
  153MOL0     C20101   5.512   8.798  11.204 -0.0728 -0.8129 -0.0978
  153MOL0     C20102   5.379   8.742  11.150 -0.5687  0.0093 -0.5525
  153MOL0     C20103   5.308   8.657  11.252 -0.4111  0.6268  0.9646
  153MOL0     C20104   5.163   8.639  11.216 -0.5734 -0.1439  0.4812
  153MOL0     C20105   5.081   8.577  11.332  0.0398  0.0300  0.4695
  153MOL0     C20106   4.936   8.555  11.316  0.1341 -0.3785  0.1429
  153MOL0     C20107   4.867   8.549  11.451 -0.1604 -0.7403 -0.7546
  153MOL0    Cl20108   4.866   8.720  11.523 -0.2954 -0.5440  0.3938
  153MOL0     C20109   5.877   8.573  11.291  0.4293 -0.0610 -0.2778
  153MOL0     C20110   6.001   8.509  11.297  0.2422  0.7637  0.0422
  153MOL0     O20111   6.152   8.321  11.085 -0.8148  0.2058 -0.2823
  153MOL0     C20112   6.368   8.157  11.128  0.0056 -0.8141 -0.3051
  153MOL0     C20113   6.489   8.086  11.134  0.4679  0.2100 -0.6228
  153MOL0     N20114   7.236   7.853  11.001 -0.6546 -0.2772  0.0100
  153MOL0     N20115   7.343   7.917  10.957  0.2730  0.2126 -0.0933
  153MOL0     C20116   8.536   8.230  11.003 -0.3125  0.2158  0.3632
  153MOL0     C20117   8.629   8.335  10.988  0.1604  0.8694  0.3090
  153MOL0     C20118   8.891   8.670  10.896  0.0404 -0.2534 -0.1036
  153MOL0     C20119   8.891   8.766  11.001 -0.2812  0.4211 -1.2331
  153MOL0     C20120   9.000   8.859  11.022 -0.1543  0.5382  0.3306
  153MOL0     C20121   9.112   8.849  10.937  0.6396 -0.0450 -0.1429
  153MOL0     O20122   9.223   8.934  10.946 -0.5315 -0.5498 -0.3595
  153MOL0     C20123   9.275   8.958  11.071  0.5569  0.4964 -0.7151
  153MOL0     C20124   9.350   8.834  11.118  0.6720  0.3822 -1.1268
  153MOL0     C20125   9.432   8.863  11.246 -0.5040  0.6722 -0.3804
  153MOL0     C20126   9.508   8.744  11.312  0.0612  0.0084  0.2920
  153MOL0     C20127   9.516   8.763  11.456  0.3435 -0.5702 -0.2089
  153MOL0     C20128   9.511   8.771  11.576 -0.8594 -0.0822 -0.8903
  153MOL0     C20129   9.110   8.761  10.821 -0.0496 -0.8046 -0.6955
  153MOL0     C20130   8.999   8.679  10.806 -0.4323  0.4344  0.3843
  153MOL0     H20131   8.784   8.241  10.702 -1.6226 -1.8836 -1.1364
  153MOL0     H20132   8.597   8.067  10.703  0.4453 -0.3807 -0.2194
  153MOL0     H20133   8.243   8.100  10.812 -1.3318  4.0428  0.9490
  153MOL0     H20134   8.275   8.193  10.965  2.1354  0.0205  2.0000
  153MOL0     H20135   8.275   8.034  11.114  2.0213 -0.6890  0.1195
  153MOL0     H20136   8.244   7.900  11.013 -2.7562 -0.3898  6.4016
  153MOL0     H20137   8.056   8.104  11.094 -0.5553 -0.0996  0.0782
  153MOL0     H20138   8.051   7.914  11.090 -1.0399 -1.6196 -4.0308
  153MOL0     H20139   8.014   8.104  10.867  0.4614  1.6457  3.1177
  153MOL0     H20140   8.066   7.947  10.834 -0.0077  0.7411  1.7851
  153MOL0     H20141   7.879   7.839  10.979  0.2332 -0.8804 -0.8784
  153MOL0     H20142   7.847   7.910  10.819  4.1801  1.6797 -1.2258
  153MOL0     H20143   7.766   8.115  10.967 -1.7829  0.1984 -1.9679
  153MOL0     H20144   7.790   8.007  11.109  0.8356  1.6902 -1.1302
  153MOL0     H20145   7.617   7.985  10.870  0.3270  2.9250 -0.1155
  153MOL0     H20146   7.634   7.850  10.986  0.7823 -0.0824 -0.1414
  153MOL0     H20147   7.545   8.142  11.028  0.3612  0.6272  0.5729
  153MOL0     H20148   7.573   8.047  11.170  1.7695  2.1401 -0.6231
  153MOL0     H20149   7.338   7.994  11.281  2.1097  1.1276 -1.3338
  153MOL0     H20150   7.135   7.838  11.320  2.0523 -4.0477 -0.4660
  153MOL0     H20151   7.078   7.737  11.184  3.0466 -1.6573 -1.8045
  153MOL0     H20152   6.976   7.958  11.089 -1.2978  0.3817 -0.0500
  153MOL0     H20153   7.002   8.026  11.261 -2.9172  0.9159  0.9320
  153MOL0     H20154   6.851   7.767  11.219 -0.5002 -0.4097  1.1629
  153MOL0     H20155   6.849   7.873  11.359 -0.1493 -0.4697  0.3666
  153MOL0     H20156   6.629   7.880  11.238  0.0126 -0.9084 -1.3141
  153MOL0     H20157   6.709   7.929  11.087 -0.7623  1.9307 -0.9569
  153MOL0     H20158   6.666   8.309  11.301 -1.7383  4.0985 -1.1152
  153MOL0     H20159   6.461   8.445  11.262 -1.3228  2.4661 -4.3019
  153MOL0     H20160   6.170   8.717  11.105 -0.8951  3.3530 -0.6215
  153MOL0     H20161   5.959   8.834  11.105  0.7740 -1.1251 -1.4432
  153MOL0     H20162   5.605   8.637  11.324  0.2685  0.8968  1.7119
  153MOL0     H20163   5.598   8.618  11.146 -0.4028  1.3580 -0.2749
  153MOL0     H20164   5.541   8.870  11.127  3.0098 -1.1027  0.6631
  153MOL0     H20165   5.505   8.847  11.302 -1.4888 -1.5135  0.1858
  153MOL0     H20166   5.406   8.687  11.059  1.6518  0.6717 -0.3492
  153MOL0     H20167   5.313   8.825  11.121 -0.0981  0.0198 -1.6561
  153MOL0     H20168   5.357   8.560  11.270 -1.0637  0.1638  0.2953
  153MOL0     H20169   5.308   8.712  11.346 -2.3520  0.9907  0.7786
  153MOL0     H20170   5.158   8.564  11.137  0.6823  1.0824 -0.8390
  153MOL0     H20171   5.111   8.725  11.171 -0.0756 -1.0911 -2.0965
  153MOL0     H20172   5.103   8.659  11.402  1.5892 -0.6856  0.8876
  153MOL0     H20173   5.122   8.480  11.362 -1.8512 -1.5762 -1.8251
  153MOL0     H20174   4.882   8.633  11.262  0.5166  1.1533  1.8609
  153MOL0     H20175   4.914   8.462  11.264  0.8357 -0.4338 -0.0625
  153MOL0     H20176   4.931   8.483  11.510 -1.0151 -1.1787 -0.2812
  153MOL0     H20177   4.767   8.503  11.448 -0.6652  0.1646  0.7286
  153MOL0     H20178   5.791   8.523  11.334 -1.0121  0.7308 -2.1131
  153MOL0     H20179   6.006   8.418  11.356  0.0659  1.2956  0.8939
  153MOL0     H20180   6.294   8.101  11.072 -0.2118  1.1605 -2.1304
  153MOL0     H20181   6.502   7.980  11.113  1.9731 -0.4393  2.9346
  153MOL0     H20182   8.474   8.216  11.091 -2.5291  3.0803 -0.5972
  153MOL0     H20183   8.647   8.406  11.068 -0.4162  3.0830 -1.4259
  153MOL0     H20184   8.806   8.780  11.066  1.4793  2.6011  0.7918
  153MOL0     H20185   8.975   8.927  11.103 -0.2336  0.3474  0.4667
  153MOL0     H20186   9.196   8.985  11.142  0.2608 -1.3271 -0.2963
  153MOL0     H20187   9.344   9.043  11.072  1.0845  0.0772  0.2307
  153MOL0     H20188   9.278   8.756  11.142  1.2119  0.6084  1.5002
  153MOL0     H20189   9.413   8.787  11.042  0.5375 -3.7488  1.0520
  153MOL0     H20190   9.368   8.905  11.324 -2.1134 -0.9860 -0.7497
  153MOL0     H20191   9.508   8.928  11.201  0.6949 -1.1885 -1.2280
  153MOL0     H20192   9.454   8.651  11.291 -0.9975  1.1279 -2.4176
  153MOL0     H20193   9.613   8.748  11.281  1.0851  0.5913  3.4800
  153MOL0     H20194   9.526   8.783  11.681  0.5934 -0.9423 -0.9724
  153MOL0     H20195   9.202   8.755  10.764  0.3073 -2.7689 -0.0009
  153MOL0     H20196   8.991   8.630  10.709 -0.4860 -0.3460  0.7773
  154MOL0     O20197   4.039   1.242   5.118 -0.2184 -0.4355 -0.1401
  154MOL0     C20198   3.933   1.234   5.171  0.0368 -0.1311 -0.0112
  154MOL0     O20199   3.885   1.116   5.224  0.5179 -0.6117 -1.1508
  154MOL0     C20200   3.945   0.994   5.223 -0.0839 -0.2646 -0.5174
  154MOL0     C20201   3.930   0.915   5.108  0.5478  0.3632 -0.1814
  154MOL0     C20202   3.988   0.783   5.101 -0.4550  0.5747 -0.5932
  154MOL0     C20203   4.068   0.734   5.208 -0.1186  0.9748 -0.8381
  154MOL0     O20204   4.116   0.610   5.194  0.6387 -0.2433  0.4937
  154MOL0     C20205   4.119   0.530   5.316  0.2952 -0.3483 -0.2568
  154MOL0     C20206   3.990   0.443   5.334 -0.1741 -0.2285 -0.3447
  154MOL0     C20207   3.964   0.344   5.222 -0.0663 -0.0439  0.5382
  154MOL0     C20208   3.810   0.351   5.194  0.2494 -0.7361  0.1257
  154MOL0     C20209   3.762   0.235   5.114 -0.2257  0.3144  1.0683
  154MOL0     C20210   3.614   0.195   5.121  0.3001 -0.6176 -0.4988
  154MOL0     C20211   3.534   0.314   5.061 -0.1001  0.5078  0.2566
  154MOL0     C20212   3.380   0.294   5.054 -0.0756 -0.2321  0.0175
  154MOL0     N20213   3.327   0.292   5.194  1.0002  0.6644  0.8491
  154MOL0     C20214   3.294   0.179   5.267 -0.7512  0.1009 -0.1047
  154MOL0     C20215   3.248   0.225   5.387 -0.0709 -0.2479 -0.2360
  154MOL0     C20216   3.199   0.142   5.503  0.1835 -0.4291 -1.3614
  154MOL0     C20217   3.086   0.217   5.578 -0.3629  0.3979  0.5059
  154MOL0     C20218   2.968   0.247   5.483 -0.2444  1.3174 -0.1528
  154MOL0     C20219   2.851   0.328   5.545  0.0419 -0.9517 -0.0499
  154MOL0     O20220   2.751   0.339   5.446 -0.5577 -0.2766 -0.1496
  154MOL0     C20221   2.637   0.410   5.492  0.3939 -0.2732  0.7682
  154MOL0     C20222   2.622   0.472   5.615  0.8401  0.3007 -0.1482
  154MOL0     C20223   2.520   0.557   5.636  0.1479  0.4421  0.0766
  154MOL0     C20224   2.423   0.589   5.536  0.0218 -0.1893  0.3087
  154MOL0     C20225   2.304   0.668   5.567  0.0356 -1.2943 -0.5970
  154MOL0     O20226   2.318   0.780   5.641 -0.8954  0.2882 -0.4087
  154MOL0     C20227   2.215   0.848   5.683  0.2281  0.0728  0.1429
  154MOL0     C20228   2.181   0.957   5.607 -0.1388  0.2602 -0.3667
  154MOL0     C20229   2.070   1.039   5.646  0.3155  0.2368  1.5492
  154MOL0     C20230   1.986   1.001   5.746 -0.2687  0.4662  0.1983
  154MOL0     O20231   1.885   1.091   5.770  0.0129 -0.5340 -0.7277
  154MOL0     C20232   1.765   1.029   5.815  0.0816  0.5375  1.0819
  154MOL0     C20233   1.651   1.136   5.829  0.5180  0.4695  0.0439
  154MOL0     C20234   1.645   1.232   5.703  0.1757  0.3804 -0.2601
  154MOL0     C20235   1.517   1.315   5.701 -0.0777 -0.2077 -0.6404
  154MOL0     C20236   1.451   1.322   5.556 -0.5688 -0.7611  0.1423
  154MOL0     C20237   1.319   1.412   5.569 -0.3208  0.3979  0.4463
  154MOL0     C20238   1.272   1.474   5.438 -0.0638  1.3092 -0.6472
  154MOL0     C20239   1.206   1.385   5.332  0.3617 -0.2176 -0.2270
  154MOL0    Cl20240   1.028   1.361   5.383 -0.0863  0.1636  0.0003
  154MOL0     C20241   2.016   0.891   5.822  0.8060 -0.0962 -0.1447
  154MOL0     C20242   2.119   0.812   5.790 -0.5642  0.1557 -0.5297
  154MOL0     O20243   2.197   0.633   5.522  0.2171 -0.1734  0.7892
  154MOL0     C20244   2.440   0.525   5.416  0.1506 -0.1700  0.2730
  154MOL0     C20245   2.554   0.450   5.386  0.2752  0.1895  0.0533
  154MOL0     N20246   3.249   0.367   5.377  0.2766  0.0518 -0.1756
  154MOL0     N20247   3.297   0.402   5.260  0.3976 -0.4831 -0.6538
  154MOL0     C20248   4.090   0.823   5.324  0.0701  0.2288 -0.1014
  154MOL0     C20249   4.020   0.947   5.333  0.9667 -0.0861  1.0019
  154MOL0     C20250   3.854   1.363   5.193  0.1711  0.5527  0.3303
  154MOL0     C20251   3.913   1.497   5.173  0.1053  0.6281  0.3573
  154MOL0     C20252   3.828   1.609   5.190  0.2033  0.3950 -1.1209
  154MOL0     C20253   3.693   1.597   5.231  0.0010 -0.0037 -0.1704
  154MOL0     O20254   3.613   1.706   5.259  0.0207  0.5481 -0.2924
  154MOL0     C20255   3.656   1.844   5.244  0.7326  1.0129  0.4924
  154MOL0     C20256   3.549   1.948   5.236  0.1575 -0.5416 -0.6238
  154MOL0     C20257   3.518   2.004   5.093 -0.4021  0.3142 -0.3265
  154MOL0     C20258   3.427   2.118   5.083 -0.0395 -0.6781  0.1870
  154MOL0     C20259   3.287   2.081   5.125  0.4456  0.0814 -0.6104
  154MOL0     C20260   3.167   2.064   5.140  0.7936 -0.0822 -0.0709
  154MOL0     C20261   3.642   1.467   5.245 -2.0926  0.6182 -0.2548
  154MOL0     C20262   3.722   1.353   5.222 -0.6812 -0.2847 -0.2436
  154MOL0     H20263   3.871   0.941   5.021  2.4196 -0.1085 -1.6408
  154MOL0     H20264   3.952   0.717   5.023 -1.9734  2.5433 -1.6553
  154MOL0     H20265   4.132   0.584   5.411 -1.4534 -2.0313  1.0301
  154MOL0     H20266   4.203   0.460   5.310  1.1818  0.5910  0.7683
  154MOL0     H20267   3.917   0.525   5.338  1.0516  0.8591  2.9680
  154MOL0     H20268   3.988   0.390   5.429  2.7514 -0.9137 -0.5787
  154MOL0     H20269   4.000   0.246   5.256 -0.2180  1.1306  4.5684
  154MOL0     H20270   4.024   0.378   5.137 -0.9715  0.7930  0.2250
  154MOL0     H20271   3.756   0.349   5.289 -0.8832  0.8943 -0.4384
  154MOL0     H20272   3.779   0.442   5.142  1.6769 -0.6140 -0.5359
  154MOL0     H20273   3.807   0.140   5.143 -1.9921 -0.6698  0.7216
  154MOL0     H20274   3.785   0.256   5.009  0.5467 -0.4033  1.0892
  154MOL0     H20275   3.580   0.183   5.224  0.3624 -1.5707 -0.5853
  154MOL0     H20276   3.605   0.104   5.061  0.9619 -0.7576 -0.3874
  154MOL0     H20277   3.564   0.405   5.114 -1.2988 -0.0323  1.9786
  154MOL0     H20278   3.581   0.327   4.964  2.3342  1.4532  1.4768
  154MOL0     H20279   3.351   0.204   4.998 -0.3851  0.7763 -1.4996
  154MOL0     H20280   3.338   0.379   4.999  2.2047  0.5569 -0.6100
  154MOL0     H20281   3.297   0.074   5.238 -2.6485  0.0908 -0.4250
  154MOL0     H20282   3.290   0.121   5.561  0.9758 -1.7424 -3.0008
  154MOL0     H20283   3.162   0.044   5.473 -3.2233 -0.0111  0.9353
  154MOL0     H20284   3.122   0.310   5.622  1.1565  0.5726 -0.9995
  154MOL0     H20285   3.055   0.154   5.662 -0.8931 -0.2102 -0.1239
  154MOL0     H20286   2.989   0.296   5.387 -1.8146  0.8228 -0.7886
  154MOL0     H20287   2.926   0.147   5.464  2.2189 -0.7915  4.0887
  154MOL0     H20288   2.889   0.425   5.580  0.2680 -1.5381  1.3973
  154MOL0     H20289   2.809   0.273   5.630 -1.4456 -2.1450 -1.4954
  154MOL0     H20290   2.686   0.450   5.700  0.5886 -0.0251 -0.0389
  154MOL0     H20291   2.517   0.604   5.734  0.3005  2.4825 -0.8505
  154MOL0     H20292   2.240   0.997   5.526 -0.0694  0.6671 -0.1200
  154MOL0     H20293   2.045   1.127   5.587 -0.4649 -1.1389 -0.2910
  154MOL0     H20294   1.762   0.976   5.911  0.5135 -2.6470 -0.5354
  154MOL0     H20295   1.738   0.944   5.753 -0.8668 -0.9914  3.4588
  154MOL0     H20296   1.658   1.207   5.912 -3.3670  0.4682  0.5509
  154MOL0     H20297   1.556   1.082   5.837 -0.1452  1.8691  3.7159
  154MOL0     H20298   1.652   1.174   5.610 -0.6278 -0.0294 -0.0695
  154MOL0     H20299   1.735   1.294   5.704  0.3020  0.2496 -1.4581
  154MOL0     H20300   1.447   1.264   5.768 -1.1085  1.2673 -0.5466
  154MOL0     H20301   1.538   1.419   5.725 -0.5961 -0.4425  0.9382
  154MOL0     H20302   1.430   1.220   5.523  1.2695 -1.4526  1.0014
  154MOL0     H20303   1.516   1.365   5.480  0.3877  1.9878  2.3257
  154MOL0     H20304   1.341   1.487   5.645 -0.0185  0.9115 -0.1411
  154MOL0     H20305   1.238   1.354   5.614 -1.6370 -0.2265 -2.4808
  154MOL0     H20306   1.200   1.551   5.469 -0.3770 -0.5212  4.0111
  154MOL0     H20307   1.361   1.524   5.400 -0.9544  3.8605  0.3379
  154MOL0     H20308   1.249   1.285   5.320  2.3649  0.5525  0.1185
  154MOL0     H20309   1.210   1.447   5.242  1.9128  0.4174  0.2424
  154MOL0     H20310   1.954   0.865   5.907  1.1400 -0.9431 -0.1516
  154MOL0     H20311   2.144   0.732   5.859  0.4838 -1.1147 -2.3198
  154MOL0     H20312   2.364   0.537   5.339 -1.2138  0.5913  1.6962
  154MOL0     H20313   2.575   0.441   5.280  0.6780 -1.5557  0.2430
  154MOL0     H20314   4.159   0.792   5.402 -3.3033 -2.8426  1.9650
  154MOL0     H20315   4.032   1.000   5.426  0.0063  0.6577  0.7167
  154MOL0     H20316   4.014   1.518   5.137 -0.4760  5.5214  0.9359
  154MOL0     H20317   3.867   1.709   5.172 -0.8680  0.5134 -3.0216
  154MOL0     H20318   3.722   1.852   5.157 -1.4907 -2.1736 -1.7283
  154MOL0     H20319   3.713   1.865   5.335  2.2274 -0.4468 -0.0569
  154MOL0     H20320   3.460   1.901   5.278 -0.2927  0.7131 -0.1138
  154MOL0     H20321   3.565   2.035   5.301 -4.7761  1.8639 -2.1183
  154MOL0     H20322   3.474   1.924   5.033 -1.3205 -0.3295  1.1406
  154MOL0     H20323   3.610   2.021   5.036  0.7089 -2.1846  0.5390
  154MOL0     H20324   3.470   2.197   5.145 -1.0317  1.1203 -1.3175
  154MOL0     H20325   3.428   2.146   4.977 -1.7101  1.5696  0.6932
  154MOL0     H20326   3.063   2.040   5.146  0.9923 -0.7139  1.3757
  154MOL0     H20327   3.537   1.452   5.264 -2.0841  0.5725 -0.2457
  154MOL0     H20328   3.689   1.249   5.221 -2.5317  0.2488 -2.0015
  155MOL0     O20329  10.957   5.791   8.287 -0.0240 -0.0490 -0.1906
  155MOL0     C20330  10.934   5.710   8.202 -0.2261  0.3407  0.2544
  155MOL0     O20331  10.801   5.670   8.162  0.0843 -0.4189 -0.8789
  155MOL0     C20332  10.691   5.698   8.245  0.5250  1.1071  0.1855
  155MOL0     C20333  10.694   5.657   8.385  1.2887 -0.4047  1.4079
  155MOL0     C20334  10.576   5.681   8.462 -0.1987 -0.4629 -0.1617
  155MOL0     C20335  10.473   5.769   8.418  0.4092 -0.8412 -0.6939
  155MOL0     O20336  10.366   5.798   8.494  0.7043  0.7477  0.5017
  155MOL0     C20337  10.238   5.763   8.436  0.4233 -0.6684  0.2552
  155MOL0     C20338  10.141   5.731   8.555 -0.1462  0.4661 -0.9209
  155MOL0     C20339  10.196   5.600   8.616  0.0032  0.3254  0.2015
  155MOL0     C20340  10.118   5.499   8.713  0.0639 -0.4232 -0.9299
  155MOL0     C20341   9.978   5.477   8.657 -0.4360  0.3469  0.5963
  155MOL0     C20342   9.970   5.406   8.519 -1.0777 -0.4852 -1.3266
  155MOL0     C20343   9.836   5.405   8.458 -0.6899  0.2769  0.3360
  155MOL0     C20344   9.744   5.301   8.538  0.2434  0.6631  0.1314
  155MOL0     N20345   9.607   5.351   8.569 -0.0385  0.4298  0.8936
  155MOL0     C20346   9.515   5.369   8.470 -1.2539  0.6749 -0.2657
  155MOL0     C20347   9.435   5.457   8.529  0.7319 -0.0255 -0.5357
  155MOL0     C20348   9.324   5.539   8.476 -0.7721 -0.2933 -0.3448
  155MOL0     C20349   9.200   5.457   8.474 -0.3574 -0.0081 -0.2653
  155MOL0     C20350   9.094   5.532   8.395 -1.1389  0.1358 -0.4850
  155MOL0     C20351   8.961   5.470   8.424 -0.2993  0.0006 -0.1002
  155MOL0     O20352   8.876   5.561   8.349  0.6502 -0.1549 -0.0708
  155MOL0     C20353   8.741   5.533   8.363  0.1407 -1.0330  0.0041
  155MOL0     C20354   8.648   5.639   8.353  0.2702 -1.0091 -1.2809
  155MOL0     C20355   8.510   5.609   8.344 -0.8525 -0.6724 -0.6428
  155MOL0     C20356   8.474   5.478   8.368 -0.1722 -0.5699  0.2807
  155MOL0     C20357   8.328   5.446   8.373  0.1669  0.6351  0.6000
  155MOL0     O20358   8.280   5.343   8.440  0.1040 -0.3044 -0.9776
  155MOL0     C20359   8.142   5.312   8.467  0.0287  0.7712  0.3002
  155MOL0     C20360   8.032   5.377   8.418  0.8323 -0.5941 -1.1146
  155MOL0     C20361   7.908   5.331   8.444  0.5766 -0.0357 -0.7226
  155MOL0     C20362   7.888   5.218   8.522 -0.1546  0.7812 -0.5790
  155MOL0     O20363   7.761   5.157   8.526 -0.4063 -0.1729 -0.3509
  155MOL0     C20364   7.701   5.178   8.658 -1.4049  0.3234  0.6730
  155MOL0     C20365   7.673   5.052   8.729 -1.0786  1.0708  0.6408
  155MOL0     C20366   7.585   5.070   8.848  0.5381 -0.0359 -0.8967
  155MOL0     C20367   7.621   5.174   8.955  0.4715  0.5596  0.4470
  155MOL0     C20368   7.590   5.141   9.097 -0.0818 -0.5118  0.8159
  155MOL0     C20369   7.446   5.132   9.125 -0.0885 -1.1257  0.7110
  155MOL0     C20370   7.435   5.102   9.275 -0.8831 -0.7592 -0.6629
  155MOL0     C20371   7.299   5.133   9.322 -0.2176  0.3742 -0.2649
  155MOL0    Cl20372   7.270   5.310   9.336  0.0030 -0.4975  0.1403
  155MOL0     C20373   7.998   5.160   8.584 -0.0093  0.1927 -0.7298
  155MOL0     C20374   8.126   5.209   8.559  0.2767 -0.4261 -0.5301
  155MOL0     O20375   8.261   5.528   8.304  0.8250  0.1206 -0.7165
  155MOL0     C20376   8.567   5.372   8.402 -0.1553  0.1973  0.6488
  155MOL0     C20377   8.691   5.409   8.381 -0.2870  1.2134 -0.4760
  155MOL0     N20378   9.466   5.479   8.668 -0.2825 -0.0725  0.6371
  155MOL0     N20379   9.577   5.414   8.684 -0.2838  0.0405 -0.1672
  155MOL0     C20380  10.482   5.812   8.286 -0.5689 -0.8468  0.4922
  155MOL0     C20381  10.583   5.773   8.200 -0.3041 -0.1142 -0.3074
  155MOL0     C20382  11.045   5.658   8.114  0.5063  0.9896  0.9975
  155MOL0     C20383  11.167   5.728   8.093 -0.4526 -0.2402 -0.8004
  155MOL0     C20384  11.264   5.689   7.999 -0.1653  0.8195  0.4156
  155MOL0     C20385  11.237   5.587   7.911 -1.0373 -0.8419 -0.3210
  155MOL0     O20386  11.340   5.546   7.831  0.7667  0.0138  0.7727
  155MOL0     C20387  11.333   5.419   7.763  0.1079 -0.5418  1.0901
  155MOL0     C20388  11.466   5.411   7.679  0.1037  0.4726  0.5758
  155MOL0     C20389  11.575   5.379   7.773 -0.4467 -1.1018 -1.1380
  155MOL0     C20390  11.701   5.323   7.704  0.3014  0.4275  0.3846
  155MOL0     C20391  11.805   5.261   7.792  0.4946 -0.5657 -0.8015
  155MOL0     C20392  11.892   5.219   7.862 -0.4107  1.0710 -0.5842
  155MOL0     C20393  11.118   5.519   7.933  0.1348  0.0514  0.1813
  155MOL0     C20394  11.021   5.554   8.031  0.2229  1.1671 -0.2725
  155MOL0     H20395  10.779   5.607   8.430  1.1659  0.1341  2.2565
  155MOL0     H20396  10.566   5.639   8.561  0.8034 -1.5388 -0.4937
  155MOL0     H20397  10.246   5.672   8.376 -0.7710  0.2777 -1.4034
  155MOL0     H20398  10.199   5.846   8.378 -2.3795 -2.4384 -0.5688
  155MOL0     H20399  10.039   5.719   8.519  0.3714  0.6914 -2.5327
  155MOL0     H20400  10.139   5.814   8.626  0.1501  0.5229 -0.9736
  155MOL0     H20401  10.287   5.630   8.669  1.8194 -1.1008 -1.9388
  155MOL0     H20402  10.236   5.543   8.532 -1.1321  1.1614 -0.9555
  155MOL0     H20403  10.175   5.410   8.739  2.3170  1.4825  1.1614
  155MOL0     H20404  10.108   5.556   8.806 -1.8433  1.6071 -2.2803
  155MOL0     H20405   9.933   5.577   8.655 -0.8796  0.2821  3.3399
  155MOL0     H20406   9.912   5.418   8.721  0.0355 -1.5106 -0.5649
  155MOL0     H20407   9.995   5.299   8.527 -0.5791 -0.2366  2.0833
  155MOL0     H20408  10.036   5.460   8.451 -0.1808  0.8559  0.5153
  155MOL0     H20409   9.786   5.502   8.466  0.5193  0.9002  0.4857
  155MOL0     H20410   9.844   5.381   8.352 -0.2090 -1.2700  0.7043
  155MOL0     H20411   9.779   5.270   8.637 -0.3081  0.9559  0.4204
  155MOL0     H20412   9.733   5.215   8.472 -0.6895 -0.7934  2.0763
  155MOL0     H20413   9.528   5.327   8.370  0.5498 -1.1534  0.6784
  155MOL0     H20414   9.349   5.577   8.377 -0.2163 -1.2156 -0.5703
  155MOL0     H20415   9.302   5.625   8.539  1.1565  2.0363 -2.6275
  155MOL0     H20416   9.178   5.435   8.578  0.1683 -0.9446 -0.3386
  155MOL0     H20417   9.217   5.356   8.435 -4.9532  0.3609 -4.1198
  155MOL0     H20418   9.102   5.639   8.416  1.0880 -0.4865  2.4359
  155MOL0     H20419   9.110   5.508   8.289  0.8446 -3.7786  0.4799
  155MOL0     H20420   8.936   5.458   8.530 -0.6862 -0.3131 -0.2265
  155MOL0     H20421   8.962   5.367   8.388  1.7326  0.5516 -1.7661
  155MOL0     H20422   8.690   5.739   8.348  0.5350 -0.8404  2.1855
  155MOL0     H20423   8.434   5.683   8.319 -1.3259 -0.4676  1.2379
  155MOL0     H20424   8.045   5.470   8.365  0.3753  1.4115  2.0613
  155MOL0     H20425   7.822   5.376   8.394 -0.3537 -0.3337  0.5730
  155MOL0     H20426   7.603   5.221   8.636 -0.9231  1.5270  0.8300
  155MOL0     H20427   7.770   5.240   8.716 -0.2831  0.2451 -0.5336
  155MOL0     H20428   7.774   5.014   8.747 -0.4244  0.4574 -3.3095
  155MOL0     H20429   7.624   4.975   8.669  1.4904 -1.2611  1.3201
  155MOL0     H20430   7.605   4.973   8.895  3.5555  2.0983  2.7213
  155MOL0     H20431   7.480   5.083   8.820  0.7227  0.0861 -1.5571
  155MOL0     H20432   7.730   5.182   8.944  0.3510  1.3979 -0.2830
  155MOL0     H20433   7.560   5.264   8.942 -1.6151 -0.4047  2.7385
  155MOL0     H20434   7.646   5.212   9.159 -0.3671 -0.1638  0.6772
  155MOL0     H20435   7.636   5.045   9.122  0.4088 -0.3017  0.7261
  155MOL0     H20436   7.400   5.055   9.063  0.6972 -0.4619 -0.7726
  155MOL0     H20437   7.395   5.225   9.098 -0.2365 -1.3481  0.2125
  155MOL0     H20438   7.461   4.996   9.280  0.9605 -0.3685 -1.4334
  155MOL0     H20439   7.513   5.155   9.331 -1.3697  1.0750 -1.6699
  155MOL0     H20440   7.279   5.097   9.423 -0.6017  1.4284  0.0586
  155MOL0     H20441   7.224   5.085   9.259 -1.3279  2.3664 -0.5604
  155MOL0     H20442   7.978   5.074   8.647 -1.1572  1.1122  0.2206
  155MOL0     H20443   8.206   5.162   8.615 -0.3654  1.0741  1.7870
  155MOL0     H20444   8.539   5.271   8.430 -0.0988  0.1691  0.6012
  155MOL0     H20445   8.765   5.329   8.390  2.1252  3.5206  3.4894
  155MOL0     H20446  10.407   5.873   8.235  1.5237 -1.0335 -3.1851
  155MOL0     H20447  10.594   5.794   8.095 -0.0653  2.7148  0.2157
  155MOL0     H20448  11.186   5.820   8.146 -0.0029 -0.0571 -1.2695
  155MOL0     H20449  11.360   5.732   7.977 -0.0148 -1.0347 -3.3947
  155MOL0     H20450  11.251   5.418   7.691  0.9674 -2.7432  0.0616
  155MOL0     H20451  11.316   5.334   7.829  1.0441 -1.4804  0.1687
  155MOL0     H20452  11.459   5.324   7.613 -0.7438 -0.1718  1.4856
  155MOL0     H20453  11.492   5.497   7.617 -1.8731  0.0353 -0.9692
  155MOL0     H20454  11.550   5.305   7.849  1.3113 -0.3895  0.2004
  155MOL0     H20455  11.597   5.475   7.821 -2.9952 -0.4848 -1.0632
  155MOL0     H20456  11.671   5.248   7.629  1.3023  0.3290  0.0753
  155MOL0     H20457  11.738   5.396   7.632  0.8874 -0.1498  0.0934
  155MOL0     H20458  11.959   5.174   7.933 -1.9202 -1.9739 -0.9355
  155MOL0     H20459  11.084   5.427   7.886 -0.5752  0.4890 -0.1948
  155MOL0     H20460  10.925   5.503   8.028  0.5602  0.5218 -0.1890
  156MOL0     O20461   2.111   3.983   2.642 -0.1490  0.2548  0.7301
  156MOL0     C20462   2.051   4.027   2.547  0.2205 -0.6856 -0.4947
  156MOL0     O20463   2.091   4.128   2.468 -1.6175 -0.0348  0.0354
  156MOL0     C20464   2.218   4.189   2.476 -0.3042 -0.4154 -0.3345
  156MOL0     C20465   2.334   4.120   2.508  0.5318 -0.5041 -0.4767
  156MOL0     C20466   2.458   4.182   2.506  0.4984  0.7789  0.3121
  156MOL0     C20467   2.464   4.318   2.478 -0.3188  1.3414 -0.0568
  156MOL0     O20468   2.579   4.389   2.492 -0.3355  0.3978  0.1242
  156MOL0     C20469   2.697   4.318   2.518 -0.6101  0.0711 -0.7288
  156MOL0     C20470   2.790   4.430   2.561 -0.3491  1.1014  0.7321
  156MOL0     C20471   2.781   4.556   2.470 -0.6271  0.3887  0.9156
  156MOL0     C20472   2.823   4.537   2.319 -0.1019 -0.7705 -0.8666
  156MOL0     C20473   2.953   4.464   2.297 -1.5730  0.8373 -0.6255
  156MOL0     C20474   3.069   4.521   2.375 -0.4268  0.3167  1.2580
  156MOL0     C20475   3.195   4.436   2.374 -0.1826 -0.6392  0.6137
  156MOL0     C20476   3.166   4.301   2.449 -0.7577 -0.9057  0.2066
  156MOL0     N20477   3.099   4.194   2.373 -0.6049  0.1099 -0.0759
  156MOL0     C20478   3.174   4.116   2.289 -0.0585 -0.6786  0.1626
  156MOL0     C20479   3.095   4.014   2.259  0.4329  0.9693 -0.0886
  156MOL0     C20480   3.138   3.911   2.158  0.4113 -1.0433  1.1437
  156MOL0     C20481   3.226   3.799   2.211  0.4915  0.1684  0.3052
  156MOL0     C20482   3.355   3.838   2.283  0.3100  0.1836  0.8758
  156MOL0     C20483   3.439   3.713   2.313 -0.3660 -0.3823 -0.3018
  156MOL0     O20484   3.385   3.621   2.416  0.2743 -0.3205  1.1701
  156MOL0     C20485   3.476   3.554   2.493 -0.0403 -0.2596 -0.1248
  156MOL0     C20486   3.615   3.562   2.470  0.2910  1.3052  0.1864
  156MOL0     C20487   3.697   3.480   2.555  0.1692  0.0297 -0.7797
  156MOL0     C20488   3.639   3.389   2.653  0.5229 -0.8676 -0.1474
  156MOL0     C20489   3.726   3.316   2.736 -0.9437  0.0607 -0.4399
  156MOL0     O20490   3.679   3.198   2.795  0.0393 -0.4015 -0.0497
  156MOL0     C20491   3.765   3.120   2.866  0.7991 -0.2661  0.8041
  156MOL0     C20492   3.841   3.025   2.799  0.9732 -0.1579  0.4207
  156MOL0     C20493   3.958   2.984   2.866  0.3352 -0.3894  0.8713
  156MOL0     C20494   3.974   3.015   3.005  0.0623 -0.1197  0.1633
  156MOL0     O20495   4.075   2.956   3.073  0.0085  0.4292  0.2598
  156MOL0     C20496   4.167   3.043   3.150 -0.2275  0.2221  0.3319
  156MOL0     C20497   4.237   2.964   3.259  0.0032 -0.3658 -0.2575
  156MOL0     C20498   4.317   2.846   3.206 -0.5000 -0.3102  0.0068
  156MOL0     C20499   4.389   2.770   3.316  0.4071  0.3525  0.2567
  156MOL0     C20500   4.486   2.848   3.407 -0.0597 -0.7082  0.2915
  156MOL0     C20501   4.583   2.942   3.337  0.7571  0.0953  0.0464
  156MOL0     C20502   4.703   2.868   3.274  0.6616 -0.1868  0.4431
  156MOL0     C20503   4.812   2.956   3.223  0.3565 -0.0758 -1.0489
  156MOL0    Cl20504   4.909   3.018   3.370 -0.2538  0.2936  0.2647
  156MOL0     C20505   3.879   3.104   3.070  0.1844 -0.2969 -0.5719
  156MOL0     C20506   3.777   3.152   2.999 -0.3842 -0.7928  0.1520
  156MOL0     O20507   3.848   3.356   2.747  0.7642 -0.3115  0.4078
  156MOL0     C20508   3.499   3.375   2.669  0.4735  1.0623  0.2173
  156MOL0     C20509   3.426   3.467   2.586  0.0758  0.8482  0.8985
  156MOL0     N20510   2.981   4.010   2.340  0.4345  0.2399  0.1824
  156MOL0     N20511   2.995   4.120   2.416 -0.2052 -0.9854 -0.4864
  156MOL0     C20512   2.355   4.387   2.441  0.6045 -0.5934 -0.9062
  156MOL0     C20513   2.230   4.322   2.437 -0.2324  0.7885  0.1889
  156MOL0     C20514   1.918   3.969   2.512  0.2566 -1.1056 -0.4463
  156MOL0     C20515   1.851   4.017   2.399  0.2790 -0.2145 -0.3939
  156MOL0     C20516   1.725   3.970   2.366 -1.2014 -0.3658  0.1161
  156MOL0     C20517   1.664   3.875   2.439 -0.2156  0.2475 -0.6440
  156MOL0     O20518   1.536   3.844   2.403  0.2329 -0.1365  0.7833
  156MOL0     C20519   1.470   3.741   2.476 -0.8204  0.0362 -0.4395
  156MOL0     C20520   1.345   3.692   2.409 -0.2689 -1.0967 -0.7689
  156MOL0     C20521   1.233   3.798   2.387  0.2222 -0.3464  0.4817
  156MOL0     C20522   1.099   3.746   2.348  0.7806 -0.2013  0.6646
  156MOL0     C20523   0.994   3.843   2.346 -0.1025 -0.0281 -0.0858
  156MOL0     C20524   0.923   3.937   2.333 -0.1593 -0.3208  0.0780
  156MOL0     C20525   1.729   3.823   2.553 -0.8199 -0.2678 -0.5200
  156MOL0     C20526   1.855   3.868   2.588 -0.5639 -0.1010 -0.9408
  156MOL0     H20527   2.329   4.018   2.547 -1.1792 -0.1623  0.2838
  156MOL0     H20528   2.540   4.117   2.536 -2.0506 -2.0902  1.5576
  156MOL0     H20529   2.733   4.279   2.423 -1.2065 -0.0731 -0.9004
  156MOL0     H20530   2.677   4.249   2.601 -0.8911  1.1664  0.1417
  156MOL0     H20531   2.889   4.384   2.556 -0.5545  0.7747 -0.6626
  156MOL0     H20532   2.771   4.455   2.666 -1.1478 -1.5965  1.3082
  156MOL0     H20533   2.840   4.633   2.521 -2.7183  0.5088  3.3725
  156MOL0     H20534   2.679   4.596   2.467  0.0905  2.2977  0.3571
  156MOL0     H20535   2.753   4.466   2.276 -0.0088 -1.5167  0.1797
  156MOL0     H20536   2.815   4.629   2.260  1.2142 -0.1563 -0.1470
  156MOL0     H20537   2.975   4.453   2.190 -2.7011 -0.5032 -0.7562
  156MOL0     H20538   2.928   4.361   2.324  0.8521  0.5846  0.8925
  156MOL0     H20539   3.049   4.541   2.481  1.3377  1.3490  1.4258
  156MOL0     H20540   3.099   4.612   2.322  0.4724 -1.0559 -0.7103
  156MOL0     H20541   3.233   4.418   2.273 -3.2258 -0.7481 -0.6130
  156MOL0     H20542   3.271   4.496   2.426  1.1268 -2.6806  1.1872
  156MOL0     H20543   3.104   4.327   2.535 -0.1867  0.6937  0.1661
  156MOL0     H20544   3.258   4.249   2.478  1.6557  2.7853 -0.2304
  156MOL0     H20545   3.272   4.130   2.244  0.4700  0.3191  1.5296
  156MOL0     H20546   3.191   3.967   2.080  0.8373 -2.4207  0.4024
  156MOL0     H20547   3.046   3.863   2.124 -0.0745 -0.2884  1.3613
  156MOL0     H20548   3.261   3.731   2.133 -0.7410 -0.8660  0.6229
  156MOL0     H20549   3.163   3.736   2.273 -1.1180 -1.4790 -2.7513
  156MOL0     H20550   3.412   3.911   2.224  1.5623 -1.7126 -0.3729
  156MOL0     H20551   3.327   3.885   2.378 -0.1304 -0.1643  0.9214
  156MOL0     H20552   3.539   3.754   2.329 -0.3580 -0.8354  0.9188
  156MOL0     H20553   3.451   3.651   2.224 -0.5609  0.3447 -0.8393
  156MOL0     H20554   3.658   3.614   2.385  2.1649  1.2756  1.0679
  156MOL0     H20555   3.804   3.480   2.534  0.3063  0.3726 -0.0917
  156MOL0     H20556   3.833   2.991   2.697 -0.7653 -3.8264  1.6121
  156MOL0     H20557   4.024   2.930   2.799 -1.3698 -1.0007 -0.4093
  156MOL0     H20558   4.116   3.129   3.193 -3.7993 -1.9990  0.9619
  156MOL0     H20559   4.235   3.096   3.082  0.1322  3.1449  2.7875
  156MOL0     H20560   4.155   2.920   3.317  0.1308 -1.2200 -0.7142
  156MOL0     H20561   4.305   3.022   3.323  0.1567 -1.7503  0.8878
  156MOL0     H20562   4.386   2.872   3.125 -1.5052  1.6536 -0.2981
  156MOL0     H20563   4.240   2.776   3.173  1.5772 -2.4441 -0.4725
  156MOL0     H20564   4.318   2.722   3.383  1.5798  1.6111  2.4977
  156MOL0     H20565   4.441   2.685   3.270  1.5173  1.0982  0.0804
  156MOL0     H20566   4.522   2.771   3.476 -1.3874 -1.1534  0.5149
  156MOL0     H20567   4.406   2.898   3.463 -1.2435 -1.4362 -0.6812
  156MOL0     H20568   4.620   3.010   3.414 -0.2456  1.5161 -0.6870
  156MOL0     H20569   4.525   3.002   3.266 -0.8185  2.9720  3.4759
  156MOL0     H20570   4.749   2.798   3.344  0.4462 -2.1560 -1.2760
  156MOL0     H20571   4.672   2.805   3.190  1.1159  1.1268 -0.7295
  156MOL0     H20572   4.793   3.039   3.155  0.2454 -1.2521 -2.5221
  156MOL0     H20573   4.886   2.898   3.167  2.4166 -0.7072  2.0536
  156MOL0     H20574   3.891   3.139   3.172 -0.1030 -0.7695 -0.3705
  156MOL0     H20575   3.727   3.242   3.033  3.7185  1.5843  0.5162
  156MOL0     H20576   3.456   3.308   2.743 -1.6661  1.1626 -0.8495
  156MOL0     H20577   3.318   3.462   2.595  0.0248  2.9974  1.9764
  156MOL0     H20578   2.369   4.493   2.422 -1.8607  0.2553  1.4237
  156MOL0     H20579   2.143   4.374   2.398 -0.8070  0.0803  0.5009
  156MOL0     H20580   1.892   4.106   2.352 -2.5765  0.4999 -1.7277
  156MOL0     H20581   1.680   4.015   2.278  0.9862 -1.4647 -1.7090
  156MOL0     H20582   1.453   3.775   2.579  0.3584  1.7590 -0.7627
  156MOL0     H20583   1.537   3.655   2.479 -0.0084  0.6463  2.3416
  156MOL0     H20584   1.387   3.661   2.313  1.4315  4.1989 -2.1023
  156MOL0     H20585   1.295   3.602   2.444  1.9718 -0.7119  4.2994
  156MOL0     H20586   1.252   3.865   2.303 -0.1803 -2.0844 -1.0689
  156MOL0     H20587   1.224   3.856   2.479 -3.2780 -0.5333  0.3602
  156MOL0     H20588   1.101   3.698   2.250  1.1807 -2.8433  1.8852
  156MOL0     H20589   1.075   3.675   2.428  1.6052 -0.5632  0.5957
  156MOL0     H20590   0.855   4.018   2.318 -1.7483 -1.8815 -1.7120
  156MOL0     H20591   1.693   3.733   2.601  1.3449 -0.6448  0.4929
  156MOL0     H20592   1.916   3.828   2.668 -0.6101 -0.4144 -1.0620
  157MOL0     O20593   9.048   0.601   0.888 -0.2029 -0.4973  0.4000
  157MOL0     C20594   8.971   0.562   0.971  0.0555 -0.8627  1.0490
  157MOL0     O20595   9.000   0.495   1.084 -0.6541 -0.1359  0.7456
  157MOL0     C20596   9.123   0.459   1.134 -0.4782  0.0998  0.3609
  157MOL0     C20597   9.249   0.532   1.110  0.3701  0.1155 -0.1541
  157MOL0     C20598   9.363   0.495   1.175 -0.5218  0.7660  0.1698
  157MOL0     C20599   9.367   0.385   1.269 -0.7866  0.1583 -0.6248
  157MOL0     O20600   9.482   0.344   1.338  0.1210 -0.0961  0.9369
  157MOL0     C20601   9.609   0.336   1.267 -0.0197  0.3630 -0.0752
  157MOL0     C20602   9.587   0.244   1.150  0.3515 -0.1136  0.0384
  157MOL0     C20603   9.547   0.103   1.188 -0.0937  0.3245 -0.0762
  157MOL0     C20604   9.667   0.014   1.237 -0.1041  0.2064 -0.9925
  157MOL0     C20605   9.644  -0.136   1.247  0.0601  0.2425 -0.4269
  157MOL0     C20606   9.751  -0.202   1.319  0.1110  0.0710  0.3287
  157MOL0     C20607   9.761  -0.354   1.306 -0.5812 -0.2813 -0.2038
  157MOL0     C20608   9.665  -0.440   1.403  0.2165  0.0110  0.2735
  157MOL0     N20609   9.542  -0.363   1.433  0.0584 -0.1635  0.3552
  157MOL0     C20610   9.508  -0.333   1.563  0.2408 -0.8049 -0.7126
  157MOL0     C20611   9.374  -0.340   1.565 -0.2367 -0.9959  0.7828
  157MOL0     C20612   9.278  -0.303   1.675  0.3137 -0.3518  0.8121
  157MOL0     C20613   9.284  -0.402   1.791  0.6617 -0.1924 -1.0901
  157MOL0     C20614   9.357  -0.330   1.911 -0.0902  0.3614  0.5271
  157MOL0     C20615   9.389  -0.441   2.020  1.7156 -0.7669  0.1836
  157MOL0     O20616   9.404  -0.387   2.145  0.5090  0.4398 -0.1514
  157MOL0     C20617   9.294  -0.328   2.205  0.3608  0.4006 -0.9972
  157MOL0     C20618   9.318  -0.256   2.321  0.0163 -0.8311  0.6635
  157MOL0     C20619   9.211  -0.198   2.388  0.7359  0.2976  0.3646
  157MOL0     C20620   9.084  -0.214   2.348  0.7206  0.7256 -0.4898
  157MOL0     C20621   8.978  -0.164   2.426  0.3766 -0.1925 -0.1537
  157MOL0     O20622   9.011  -0.088   2.533 -0.0437 -0.1451 -0.0406
  157MOL0     C20623   8.915  -0.058   2.624  1.1327  0.0837 -0.0436
  157MOL0     C20624   8.817  -0.148   2.674 -0.2397  0.1445  0.1026
  157MOL0     C20625   8.726  -0.099   2.772 -0.7129 -0.1364  0.4473
  157MOL0     C20626   8.727   0.037   2.810  0.1529  0.1318 -0.2139
  157MOL0     O20627   8.628   0.093   2.886 -0.3008 -0.0229  0.1493
  157MOL0     C20628   8.492   0.072   2.849  0.8686 -0.1010  1.0192
  157MOL0     C20629   8.391   0.155   2.928  0.6295 -0.5466 -0.4510
  157MOL0     C20630   8.250   0.133   2.885  0.3923  0.5641  0.4751
  157MOL0     C20631   8.153   0.100   3.003  0.4316 -0.2584 -0.3172
  157MOL0     C20632   8.026   0.031   2.965 -0.6947  0.5382  0.1881
  157MOL0     C20633   7.935  -0.016   3.076  0.3572 -0.9650 -0.6915
  157MOL0     C20634   7.822  -0.103   3.018  0.0461 -0.4058 -0.5349
  157MOL0     C20635   7.685  -0.078   3.085 -0.1370 -0.5400 -0.5426
  157MOL0    Cl20636   7.636   0.084   3.111 -0.1113 -0.4745 -0.1348
  157MOL0     C20637   8.825   0.121   2.753  0.4632 -0.0214 -0.2580
  157MOL0     C20638   8.914   0.078   2.663 -0.7551  0.6842  0.1591
  157MOL0     O20639   8.861  -0.192   2.386  0.0643 -0.5305 -0.1523
  157MOL0     C20640   9.052  -0.277   2.227  0.6299  0.0159  0.4192
  157MOL0     C20641   9.159  -0.346   2.168 -0.3615 -0.2580  0.3493
  157MOL0     N20642   9.328  -0.365   1.434 -0.4701 -0.2345 -0.7892
  157MOL0     N20643   9.430  -0.383   1.356 -0.1211 -0.0529 -0.1020
  157MOL0     C20644   9.247   0.317   1.301 -0.7623  0.0046  1.6283
  157MOL0     C20645   9.129   0.351   1.232  0.6219  0.0522  1.3934
  157MOL0     C20646   8.824   0.587   0.953 -0.6532  0.2443  0.0773
  157MOL0     C20647   8.775   0.604   0.821  0.2589  0.6568  0.0098
  157MOL0     C20648   8.646   0.651   0.805 -0.3073  0.0465  0.1644
  157MOL0     C20649   8.554   0.668   0.907  0.3832 -0.0791  0.3136
  157MOL0     O20650   8.426   0.702   0.887 -0.2883  0.2011 -0.7177
  157MOL0     C20651   8.336   0.597   0.852  0.3574  1.0306 -0.7517
  157MOL0     C20652   8.256   0.635   0.736 -0.2015  0.0564  0.1827
  157MOL0     C20653   8.136   0.544   0.725 -0.0232 -0.2553  0.0300
  157MOL0     C20654   8.062   0.574   0.591 -0.4537  1.0618  0.0710
  157MOL0     C20655   7.968   0.688   0.596 -0.0950 -0.4320  0.2097
  157MOL0     C20656   7.916   0.795   0.618 -0.3999 -0.3724  0.4122
  157MOL0     C20657   8.597   0.624   1.035 -0.3874  0.6898  0.1104
  157MOL0     C20658   8.730   0.591   1.062 -0.4684  0.0512  0.0344
  157MOL0     H20659   9.247   0.625   1.053 -0.6568  0.3548  0.2583
  157MOL0     H20660   9.453   0.550   1.153 -0.2495 -0.0794 -0.8740
  157MOL0     H20661   9.678   0.281   1.332 -0.6752 -2.4253 -1.5632
  157MOL0     H20662   9.653   0.430   1.235 -0.4133  1.0382  1.2826
  157MOL0     H20663   9.689   0.238   1.113  1.1923  0.6716  2.0454
  157MOL0     H20664   9.514   0.289   1.083 -0.2118  0.5028  1.0273
  157MOL0     H20665   9.525   0.045   1.097 -1.7570 -1.1102  1.1655
  157MOL0     H20666   9.454   0.108   1.246  1.4745  4.0009  2.4166
  157MOL0     H20667   9.758   0.016   1.177  0.4920 -3.1788 -0.4139
  157MOL0     H20668   9.687   0.054   1.336  0.9395  1.4541 -1.6767
  157MOL0     H20669   9.616  -0.185   1.153  3.9887  1.5098 -2.4426
  157MOL0     H20670   9.557  -0.156   1.311  0.0109 -0.0444 -0.5819
  157MOL0     H20671   9.741  -0.170   1.423 -1.8377 -0.1244  0.2437
  157MOL0     H20672   9.843  -0.152   1.286  0.1520  1.2253  2.0758
  157MOL0     H20673   9.736  -0.384   1.203 -3.4956 -3.5264  1.2295
  157MOL0     H20674   9.863  -0.390   1.328 -0.8199 -1.6478 -1.1796
  157MOL0     H20675   9.721  -0.462   1.495 -3.6955  1.3023  3.2640
  157MOL0     H20676   9.644  -0.539   1.361 -0.3006 -0.6678  1.9955
  157MOL0     H20677   9.560  -0.296   1.651  1.0646  1.4695 -2.0659
  157MOL0     H20678   9.176  -0.297   1.635  0.8773  0.0315 -0.6318
  157MOL0     H20679   9.314  -0.203   1.703 -0.3284  0.4113 -0.9008
  157MOL0     H20680   9.335  -0.495   1.764 -0.2430 -0.8920 -0.4382
  157MOL0     H20681   9.181  -0.424   1.822  0.0259  1.0423 -2.2425
  157MOL0     H20682   9.459  -0.302   1.882  0.6252 -4.8457 -3.3273
  157MOL0     H20683   9.287  -0.249   1.934  1.0117  1.3907  0.3389
  157MOL0     H20684   9.475  -0.501   1.988  2.0671 -0.4832  0.5903
  157MOL0     H20685   9.313  -0.519   2.029  1.5165 -0.4959  0.8665
  157MOL0     H20686   9.421  -0.246   2.356  0.2110  0.1120 -0.1250
  157MOL0     H20687   9.241  -0.142   2.476  1.7954 -0.3345  0.4175
  157MOL0     H20688   8.812  -0.251   2.642 -1.9169 -0.3970  1.9187
  157MOL0     H20689   8.644  -0.160   2.807 -0.6883 -0.6057 -0.3043
  157MOL0     H20690   8.473  -0.033   2.874  0.3526 -0.4193 -0.5852
  157MOL0     H20691   8.475   0.083   2.742 -0.2775 -0.9269  1.0958
  157MOL0     H20692   8.412   0.262   2.924 -2.7864  0.2167 -2.6997
  157MOL0     H20693   8.403   0.137   3.035  1.5778  0.4518 -0.3713
  157MOL0     H20694   8.250   0.050   2.814 -0.6450  1.1314 -0.2126
  157MOL0     H20695   8.210   0.215   2.825  1.7255 -0.3313 -1.7736
  157MOL0     H20696   8.198   0.034   3.079 -2.3457  0.1057  1.8039
  157MOL0     H20697   8.129   0.193   3.054  0.1570 -1.5024  1.9529
  157MOL0     H20698   8.033  -0.049   2.891  1.3701  0.3412  0.5562
  157MOL0     H20699   7.967   0.115   2.926 -0.4027  0.7520  0.2107
  157MOL0     H20700   7.887   0.071   3.123 -2.7434 -2.6802 -0.4044
  157MOL0     H20701   7.986  -0.066   3.159  1.3137  3.4614  1.7342
  157MOL0     H20702   7.800  -0.082   2.913 -0.8377  0.7654 -0.1366
  157MOL0     H20703   7.848  -0.209   3.025  2.0262  0.0714  0.1910
  157MOL0     H20704   7.685  -0.137   3.176 -0.2763 -1.8646 -1.3781
  157MOL0     H20705   7.606  -0.121   3.023  2.0107 -0.1644 -3.7625
  157MOL0     H20706   8.826   0.227   2.778  0.5080 -0.5555  2.3166
  157MOL0     H20707   8.994   0.136   2.618  0.2710 -0.0612  0.9739
  157MOL0     H20708   8.948  -0.302   2.207  1.0345 -2.3674  0.9799
  157MOL0     H20709   9.128  -0.409   2.086  2.0988 -0.2280 -0.6890
  157MOL0     H20710   9.245   0.241   1.379  1.4287 -1.4865  0.3528
  157MOL0     H20711   9.034   0.303   1.250 -1.1035  1.7940 -2.1142
  157MOL0     H20712   8.826   0.574   0.730 -2.1870  0.2786 -1.3077
  157MOL0     H20713   8.628   0.686   0.704  2.4715  0.5402 -0.2608
  157MOL0     H20714   8.286   0.581   0.948  1.9077  3.9463  0.6805
  157MOL0     H20715   8.384   0.499   0.840  1.9570  1.3558  2.1610
  157MOL0     H20716   8.224   0.737   0.761  2.5951  0.7988  1.0561
  157MOL0     H20717   8.316   0.638   0.645 -0.4493  0.7467  0.0322
  157MOL0     H20718   8.069   0.536   0.811  1.2728 -0.9836  1.0127
  157MOL0     H20719   8.167   0.440   0.711  0.1101 -0.0658 -1.1618
  157MOL0     H20720   8.137   0.596   0.514  0.5643  0.9209  0.9955
  157MOL0     H20721   7.998   0.490   0.564  0.4404  1.1839 -2.7498
  157MOL0     H20722   7.883   0.896   0.634  0.4093  0.1936 -1.2336
  157MOL0     H20723   8.524   0.622   1.116 -0.6602  2.5054 -0.0430
  157MOL0     H20724   8.772   0.570   1.160  1.2385  2.4854 -0.0753
  158MOL0     O20725   6.857   5.730   8.448 -0.2617 -0.1918 -0.0724
  158MOL0     C20726   6.818   5.829   8.383  0.3634 -0.2502 -0.3718
  158MOL0     O20727   6.886   5.905   8.299 -0.3577 -0.3015  0.4169
  158MOL0     C20728   7.018   5.884   8.273 -0.8547  0.2182 -0.1119
  158MOL0     C20729   7.062   5.751   8.223  0.1854  0.7653 -1.1918
  158MOL0     C20730   7.202   5.731   8.196  0.9363 -0.4948  0.7446
  158MOL0     C20731   7.301   5.831   8.209 -0.2464 -0.3959  0.0655
  158MOL0     O20732   7.431   5.805   8.180 -0.5188 -0.4248  0.0053
  158MOL0     C20733   7.519   5.915   8.148  0.2912  0.4585 -0.0495
  158MOL0     C20734   7.663   5.882   8.100  0.3840 -0.8386  0.0361
  158MOL0     C20735   7.708   5.740   8.148 -0.0514 -0.1724  0.4763
  158MOL0     C20736   7.838   5.695   8.069  0.8607 -0.0162  0.1416
  158MOL0     C20737   7.880   5.556   8.099  0.1069  0.7850 -0.1030
  158MOL0     C20738   8.010   5.516   8.026  0.6603 -0.1408  0.7492
  158MOL0     C20739   8.074   5.378   8.063  1.3118 -0.3658  0.7704
  158MOL0     C20740   8.164   5.337   7.955  0.1491 -0.3503  0.4704
  158MOL0     N20741   8.265   5.439   7.934  0.3874 -0.1080 -0.0776
  158MOL0     C20742   8.385   5.449   8.004  0.7991 -0.2965 -0.5423
  158MOL0     C20743   8.438   5.554   7.942  0.6767  0.5147  0.0558
  158MOL0     C20744   8.556   5.632   7.988  0.3354  0.1726 -0.0992
  158MOL0     C20745   8.681   5.544   8.010  0.9294 -0.1726 -0.2804
  158MOL0     C20746   8.811   5.619   8.018  0.1603  0.4132 -0.5005
  158MOL0     C20747   8.940   5.540   7.989  0.0983  0.2240  0.5509
  158MOL0     O20748   8.941   5.497   7.850 -0.0870  0.7046  0.5033
  158MOL0     C20749   9.051   5.418   7.819  0.4083 -0.2805  0.7772
  158MOL0     C20750   9.168   5.411   7.886 -0.3985  0.1558 -0.5626
  158MOL0     C20751   9.267   5.330   7.827 -0.5686 -0.0871  1.0121
  158MOL0     C20752   9.238   5.252   7.712  0.0927  0.1454 -0.0804
  158MOL0     C20753   9.332   5.154   7.665  0.1990  0.2403  0.6513
  158MOL0     O20754   9.438   5.120   7.752 -0.0649  0.4150  0.8129
  158MOL0     C20755   9.549   5.038   7.698 -0.2145 -0.6478 -0.0896
  158MOL0     C20756   9.582   4.999   7.564 -0.4617 -0.0462 -0.0184
  158MOL0     C20757   9.693   4.924   7.531 -0.2643  0.0805  0.4006
  158MOL0     C20758   9.799   4.915   7.624 -1.3735 -0.1464 -0.8415
  158MOL0     O20759   9.924   4.857   7.609  0.7357 -0.2030  0.4672
  158MOL0     C20760   9.938   4.779   7.493  0.5473  0.3439  1.1114
  158MOL0     C20761  10.087   4.760   7.452 -0.6931 -0.6462 -1.0714
  158MOL0     C20762  10.183   4.684   7.553  0.5336  0.7717  0.2932
  158MOL0     C20763  10.315   4.639   7.485  0.5895 -0.3969  0.6142
  158MOL0     C20764  10.392   4.530   7.547  0.2089 -0.3468  0.1724
  158MOL0     C20765  10.501   4.455   7.466 -0.1280 -0.1454  0.9690
  158MOL0     C20766  10.636   4.522   7.476 -0.2443  0.3702 -0.2081
  158MOL0     C20767  10.726   4.479   7.593 -0.9147 -1.3847  0.3873
  158MOL0    Cl20768  10.780   4.307   7.580  0.3784 -0.3950  0.0055
  158MOL0     C20769   9.766   4.948   7.754  0.2578 -0.1477  0.0021
  158MOL0     C20770   9.648   5.013   7.796 -0.0277  0.2803  0.7556
  158MOL0     O20771   9.308   5.105   7.553 -0.1424  0.7984  0.1630
  158MOL0     C20772   9.115   5.259   7.655 -0.2169 -0.2848 -0.9991
  158MOL0     C20773   9.018   5.337   7.715  0.3594  0.5645  0.3187
  158MOL0     N20774   8.375   5.582   7.829 -0.7708 -0.1957  0.3561
  158MOL0     N20775   8.272   5.520   7.821  0.5318  0.4636 -0.6912
  158MOL0     C20776   7.252   5.954   8.255 -0.0603  0.6526 -1.0667
  158MOL0     C20777   7.116   5.981   8.289  1.0316 -0.4572 -0.5763
  158MOL0     C20778   6.676   5.851   8.387  0.3305 -0.6212 -0.1424
  158MOL0     C20779   6.595   5.762   8.462 -0.1279  0.3377  0.1649
  158MOL0     C20780   6.447   5.778   8.469  0.2268  0.7049  0.4563
  158MOL0     C20781   6.390   5.885   8.393 -0.3782  0.3206  0.0948
  158MOL0     O20782   6.258   5.908   8.398  0.4160  0.2119 -0.5542
  158MOL0     C20783   6.157   5.814   8.435  0.3196 -0.6893 -0.4583
  158MOL0     C20784   6.150   5.699   8.329  0.0290  0.2905 -0.4071
  158MOL0     C20785   6.035   5.610   8.376  0.4224 -0.7744  0.9218
  158MOL0     C20786   6.018   5.489   8.292 -0.0397 -0.5236 -0.0458
  158MOL0     C20787   6.124   5.389   8.332 -0.4995 -0.4189 -0.2685
  158MOL0     C20788   6.215   5.315   8.333 -0.7183 -0.5810  0.0956
  158MOL0     C20789   6.471   5.983   8.331  0.3822 -0.8047 -0.7654
  158MOL0     C20790   6.612   5.963   8.331 -0.7869 -0.3334 -0.0487
  158MOL0     H20791   6.992   5.669   8.214  0.3483  0.2314  1.6576
  158MOL0     H20792   7.240   5.637   8.156 -0.2863  0.1878 -2.2524
  158MOL0     H20793   7.522   5.973   8.240  1.0826 -1.1166  0.9718
  158MOL0     H20794   7.467   5.979   8.076  0.8679  0.8819 -0.0951
  158MOL0     H20795   7.733   5.963   8.124 -2.7315  1.3043  2.8546
  158MOL0     H20796   7.668   5.868   7.991 -0.5399 -3.9366  0.2934
  158MOL0     H20797   7.630   5.666   8.127 -0.3675  0.2351  0.1984
  158MOL0     H20798   7.736   5.735   8.254  3.7444 -0.8957 -0.4407
  158MOL0     H20799   7.826   5.697   7.961  1.1407 -0.5839  0.0957
  158MOL0     H20800   7.915   5.772   8.077  0.2668  0.6259 -0.2324
  158MOL0     H20801   7.798   5.488   8.075  1.3124 -1.1341  0.9946
  158MOL0     H20802   7.886   5.549   8.208 -2.2648  0.8929  0.0901
  158MOL0     H20803   8.086   5.592   8.043 -0.0635  0.9965 -0.8058
  158MOL0     H20804   7.994   5.511   7.918  1.6029 -1.2865  0.6422
  158MOL0     H20805   8.114   5.369   8.164  1.3056 -2.1117  0.6581
  158MOL0     H20806   7.982   5.319   8.053 -0.1384  1.9776 -0.7799
  158MOL0     H20807   8.111   5.312   7.863 -1.8136  2.5629  0.6606
  158MOL0     H20808   8.213   5.242   7.977 -1.7690 -1.8644 -1.4192
  158MOL0     H20809   8.415   5.394   8.092  2.5266 -0.9638 -1.4953
  158MOL0     H20810   8.538   5.684   8.083 -0.6098  2.4751 -1.4526
  158MOL0     H20811   8.577   5.698   7.903  1.0763 -0.3208 -0.3101
  158MOL0     H20812   8.693   5.474   7.926  3.0748  0.0570 -0.2008
  158MOL0     H20813   8.654   5.486   8.099 -2.7762  0.9224 -0.5057
  158MOL0     H20814   8.810   5.714   7.964  2.8776  1.6853  1.4806
  158MOL0     H20815   8.825   5.632   8.125  0.2687 -0.8060 -0.3490
  158MOL0     H20816   8.971   5.462   8.059  1.7341  1.0983  0.8522
  158MOL0     H20817   9.021   5.612   8.007 -1.7818  2.2901  1.1526
  158MOL0     H20818   9.188   5.473   7.973 -1.0100 -0.3023 -0.0855
  158MOL0     H20819   9.358   5.317   7.884 -0.6938 -0.6683  1.0947
  158MOL0     H20820   9.520   5.022   7.479  2.8273 -1.5712 -3.1130
  158MOL0     H20821   9.698   4.910   7.424  0.2095  2.2798  0.0743
  158MOL0     H20822   9.886   4.820   7.406 -2.7806 -1.2487  2.1802
  158MOL0     H20823   9.883   4.686   7.513 -2.5435  1.9867  0.8658
  158MOL0     H20824  10.133   4.858   7.438 -1.1427 -0.4689 -1.3097
  158MOL0     H20825  10.091   4.715   7.352  2.4219  0.6473 -1.6483
  158MOL0     H20826  10.139   4.598   7.604 -0.5843  0.7148 -0.7063
  158MOL0     H20827  10.201   4.756   7.633 -2.5370  4.2906 -1.8289
  158MOL0     H20828  10.289   4.598   7.387  0.7112  1.2194 -0.1330
  158MOL0     H20829  10.385   4.722   7.469 -1.3707  0.9599 -1.6522
  158MOL0     H20830  10.327   4.449   7.579  0.5599 -0.0642  1.6793
  158MOL0     H20831  10.432   4.556   7.645  1.0399 -3.7159  0.8579
  158MOL0     H20832  10.470   4.453   7.361 -0.4791 -4.9635  0.9375
  158MOL0     H20833  10.509   4.348   7.489 -3.0340 -0.1544  2.4367
  158MOL0     H20834  10.702   4.510   7.390  0.9250 -2.9904  0.9734
  158MOL0     H20835  10.633   4.629   7.499  4.0067  0.4169  0.8989
  158MOL0     H20836  10.677   4.495   7.689  1.1350  2.9997  0.9736
  158MOL0     H20837  10.815   4.543   7.601 -0.7060 -1.7015  0.6278
  158MOL0     H20838   9.835   4.930   7.835 -1.9675 -0.2194  1.9961
  158MOL0     H20839   9.635   5.038   7.901 -1.5798  1.1224  0.3901
  158MOL0     H20840   9.099   5.202   7.565  0.7386  0.5039 -1.6914
  158MOL0     H20841   8.917   5.338   7.677  0.2449 -2.5001  0.3380
  158MOL0     H20842   7.320   6.038   8.257 -1.2530  1.6495 -0.8396
  158MOL0     H20843   7.087   6.078   8.328 -0.1094 -0.0837 -2.2659
  158MOL0     H20844   6.628   5.671   8.510 -1.7819 -0.8777 -0.8745
  158MOL0     H20845   6.393   5.707   8.530  1.5697 -0.1189  0.7280
  158MOL0     H20846   6.059   5.861   8.435  0.4402 -0.4042  0.5248
  158MOL0     H20847   6.173   5.773   8.535  0.6228 -1.9065 -0.9861
  158MOL0     H20848   6.120   5.750   8.237  1.5484 -2.5890 -2.6948
  158MOL0     H20849   6.247   5.648   8.333 -0.0323  0.2134  0.2168
  158MOL0     H20850   5.941   5.665   8.381  0.0213 -1.0445 -1.9934
  158MOL0     H20851   6.058   5.572   8.476 -1.1733 -1.1811  1.1706
  158MOL0     H20852   5.918   5.446   8.301  0.5961 -1.8128  1.2701
  158MOL0     H20853   6.023   5.513   8.186 -0.6725 -0.2382 -0.0172
  158MOL0     H20854   6.300   5.250   8.331 -0.2494 -0.1900  2.8311
  158MOL0     H20855   6.436   6.079   8.294 -1.1134 -1.0515 -0.0619
  158MOL0     H20856   6.677   6.035   8.284 -0.2125 -2.8707 -3.5634
  159MOL0     O20857   6.710   5.670   1.764 -0.5456 -0.4059 -0.4864
  159MOL0     C20858   6.697   5.592   1.669  0.5702 -0.2142  0.4677
  159MOL0     O20859   6.592   5.516   1.647 -0.3075  0.0167  0.1181
  159MOL0     C20860   6.502   5.498   1.748  0.4537 -0.3411  0.1278
  159MOL0     C20861   6.492   5.378   1.826 -0.2571  0.1051  0.9106
  159MOL0     C20862   6.406   5.365   1.934  1.1031  0.8632  0.2814
  159MOL0     C20863   6.326   5.478   1.977 -0.3877 -0.2630 -1.0768
  159MOL0     O20864   6.243   5.457   2.087 -1.1204  0.7169  0.4574
  159MOL0     C20865   6.155   5.558   2.137  0.2318 -0.0906 -0.2259
  159MOL0     C20866   6.113   5.530   2.292 -0.8296 -0.8195 -1.0226
  159MOL0     C20867   5.968   5.550   2.329  0.2121 -0.3305 -0.7441
  159MOL0     C20868   5.878   5.434   2.303  0.0966  0.7564 -0.4854
  159MOL0     C20869   5.733   5.464   2.314  0.8498 -0.1903 -0.4754
  159MOL0     C20870   5.665   5.564   2.219 -0.2852  0.4882  0.4626
  159MOL0     C20871   5.516   5.552   2.217  1.2153  0.2935 -0.3465
  159MOL0     C20872   5.452   5.573   2.351 -0.3374 -0.4114  0.4573
  159MOL0     N20873   5.306   5.609   2.345 -0.3414 -0.5287  0.1032
  159MOL0     C20874   5.227   5.520   2.278 -0.9790 -0.0344 -0.3587
  159MOL0     C20875   5.106   5.576   2.290  0.0875  0.3567 -0.8654
  159MOL0     C20876   4.966   5.529   2.258  0.8829 -0.5713  0.1505
  159MOL0     C20877   4.953   5.506   2.105  0.3118 -0.3805  0.9619
  159MOL0     C20878   4.812   5.490   2.059 -0.2318 -0.2723 -0.1240
  159MOL0     C20879   4.792   5.471   1.904  1.5024  0.2693  0.1651
  159MOL0     O20880   4.652   5.439   1.882 -0.1701  0.0066 -0.3848
  159MOL0     C20881   4.600   5.327   1.939 -0.4306  1.1434 -0.7530
  159MOL0     C20882   4.471   5.317   1.983 -1.3330  0.5771  0.5748
  159MOL0     C20883   4.414   5.201   2.032  0.4075 -0.6208 -0.6356
  159MOL0     C20884   4.484   5.077   2.020 -0.2989 -0.3053  0.0426
  159MOL0     C20885   4.423   4.941   2.032 -0.1746  0.6105  0.6388
  159MOL0     O20886   4.305   4.928   1.954 -0.1672 -0.5149  0.3871
  159MOL0     C20887   4.246   4.815   1.978 -0.3319  0.6592  0.9689
  159MOL0     C20888   4.179   4.778   2.093  0.6451  0.8508 -0.0054
  159MOL0     C20889   4.116   4.653   2.106 -0.7264 -0.0049 -0.7004
  159MOL0     C20890   4.132   4.551   2.016  0.1055  0.6021  0.4621
  159MOL0     O20891   4.067   4.436   2.034  0.2967  0.5861 -0.2621
  159MOL0     C20892   4.071   4.393   2.173  0.4896  0.8997  1.0156
  159MOL0     C20893   4.024   4.243   2.172 -0.4438 -0.1711  0.5488
  159MOL0     C20894   4.132   4.165   2.092  0.3115 -0.2515 -0.3945
  159MOL0     C20895   4.077   4.032   2.072  0.1995  0.4647 -0.1714
  159MOL0     C20896   4.182   3.929   2.050 -0.0411  0.5354 -0.0364
  159MOL0     C20897   4.283   3.955   1.935  1.1795  0.0033  0.3009
  159MOL0     C20898   4.361   3.837   1.903 -0.1738  0.3436 -0.0119
  159MOL0     C20899   4.456   3.860   1.790  0.1821 -0.0322 -0.3190
  159MOL0    Cl20900   4.375   3.885   1.637  0.3997  0.0232  0.5960
  159MOL0     C20901   4.201   4.589   1.898  0.1278 -0.2234 -0.6452
  159MOL0     C20902   4.264   4.717   1.881  0.3648  0.0975 -1.0999
  159MOL0     O20903   4.482   4.852   2.100  0.0006 -0.2331  0.7002
  159MOL0     C20904   4.621   5.085   1.989 -0.1618  0.4632 -0.3574
  159MOL0     C20905   4.674   5.202   1.942 -0.5242 -0.1022 -0.6031
  159MOL0     N20906   5.121   5.693   2.355  0.4682 -0.2451  0.2493
  159MOL0     N20907   5.237   5.717   2.393 -0.1790 -0.4101  0.5947
  159MOL0     C20908   6.339   5.598   1.907 -0.2944 -0.0973  0.6080
  159MOL0     C20909   6.426   5.612   1.788  0.2698 -0.0520  0.1504
  159MOL0     C20910   6.808   5.591   1.572 -0.2214  0.6635  0.4938
  159MOL0     C20911   6.801   5.537   1.443 -0.0282  0.3460  0.4372
  159MOL0     C20912   6.916   5.528   1.359  0.6200 -1.0201 -0.0798
  159MOL0     C20913   7.028   5.601   1.403 -0.9379 -0.1353  0.8682
  159MOL0     O20914   7.145   5.624   1.334 -0.4573 -0.0055  0.4546
  159MOL0     C20915   7.153   5.561   1.204 -0.3446  0.0710  0.9135
  159MOL0     C20916   7.067   5.632   1.093  0.0995 -0.7770  0.8934
  159MOL0     C20917   7.089   5.780   1.075 -0.0512  0.3075  0.4123
  159MOL0     C20918   7.240   5.811   1.041  0.5032 -0.4389 -0.4288
  159MOL0     C20919   7.248   5.963   1.049  0.5920  0.3404 -0.0222
  159MOL0     C20920   7.237   6.081   1.052 -0.3769  0.2591  0.5671
  159MOL0     C20921   7.038   5.660   1.533  0.5628 -0.3574  0.2219
  159MOL0     C20922   6.926   5.643   1.615  0.9785 -0.0907 -0.5045
  159MOL0     H20923   6.554   5.294   1.798 -0.7265 -0.3786  1.2844
  159MOL0     H20924   6.407   5.275   1.995  0.5812  0.2859 -0.5523
  159MOL0     H20925   6.061   5.552   2.083  1.2349 -1.3592 -1.9050
  159MOL0     H20926   6.203   5.656   2.138  1.7133 -0.7676  1.6387
  159MOL0     H20927   6.169   5.603   2.351  1.1085 -4.7360  2.5430
  159MOL0     H20928   6.157   5.435   2.326  0.2402  0.8002  2.7400
  159MOL0     H20929   5.943   5.637   2.267 -0.4324 -1.9051 -2.7890
  159MOL0     H20930   5.968   5.575   2.436 -0.7325  0.3498 -0.8923
  159MOL0     H20931   5.907   5.398   2.204  0.5283  2.0855 -0.8642
  159MOL0     H20932   5.889   5.346   2.367 -2.3922 -1.3392 -2.6419
  159MOL0     H20933   5.711   5.496   2.417  1.0848 -1.8792  0.1394
  159MOL0     H20934   5.689   5.365   2.301  0.7530 -0.3127  0.6546
  159MOL0     H20935   5.692   5.537   2.117  1.0935  0.4000  0.8392
  159MOL0     H20936   5.707   5.664   2.233  3.3291 -1.0415  1.6837
  159MOL0     H20937   5.477   5.621   2.141  0.9645  1.0172  0.4273
  159MOL0     H20938   5.487   5.449   2.192  2.4734  0.5330 -3.1343
  159MOL0     H20939   5.508   5.654   2.400 -0.7512  1.6744 -2.2636
  159MOL0     H20940   5.459   5.477   2.402  0.5950 -0.9833 -0.6970
  159MOL0     H20941   5.263   5.427   2.235  3.0929  1.3399 -0.3291
  159MOL0     H20942   4.896   5.605   2.296  1.9603  0.1479  0.7569
  159MOL0     H20943   4.949   5.439   2.318 -1.4891 -0.4628 -0.2527
  159MOL0     H20944   5.004   5.415   2.073 -0.7508 -1.4093  2.0612
  159MOL0     H20945   4.991   5.591   2.049  0.9364 -2.2686 -1.7127
  159MOL0     H20946   4.762   5.407   2.110 -3.2064  2.2507  1.3780
  159MOL0     H20947   4.748   5.575   2.080  0.9024  0.3510  0.9142
  159MOL0     H20948   4.853   5.388   1.867 -1.2782 -1.4813 -0.7927
  159MOL0     H20949   4.811   5.557   1.839  0.6780 -1.2559 -2.1945
  159MOL0     H20950   4.412   5.408   1.993 -0.2514  1.3857 -0.2017
  159MOL0     H20951   4.311   5.194   2.068 -0.0458 -1.3400 -2.0045
  159MOL0     H20952   4.166   4.854   2.169 -1.4920 -1.1056  1.7557
  159MOL0     H20953   4.063   4.648   2.200  0.3996  0.5955 -0.0002
  159MOL0     H20954   3.998   4.449   2.233 -0.2874  0.1117  0.8172
  159MOL0     H20955   4.175   4.398   2.208  0.9440 -1.5812  0.1797
  159MOL0     H20956   3.927   4.244   2.122 -0.7457 -2.7896  0.9522
  159MOL0     H20957   4.010   4.214   2.277 -0.5260  3.4123  1.6951
  159MOL0     H20958   4.214   4.153   2.163 -1.1899  1.3525  1.7339
  159MOL0     H20959   4.153   4.218   1.999 -4.4456  2.4818 -0.2208
  159MOL0     H20960   4.026   4.008   2.166  1.6115  1.0131  0.7624
  159MOL0     H20961   4.012   4.032   1.983 -1.2138 -1.9028  0.7657
  159MOL0     H20962   4.139   3.833   2.022  1.9052  0.3522 -2.8701
  159MOL0     H20963   4.233   3.917   2.146 -1.2908 -0.1040  0.5753
  159MOL0     H20964   4.352   4.036   1.960  2.4620 -0.9743  0.0260
  159MOL0     H20965   4.211   3.972   1.854 -0.1903 -0.6440  1.3475
  159MOL0     H20966   4.418   3.812   1.993  0.4697  0.5943 -0.3466
  159MOL0     H20967   4.289   3.758   1.878 -0.5654  1.0045 -1.0227
  159MOL0     H20968   4.519   3.772   1.781 -1.6707 -1.7206  1.8787
  159MOL0     H20969   4.521   3.945   1.815  1.7508 -1.2388 -0.1608
  159MOL0     H20970   4.204   4.523   1.813 -2.6358 -0.3890 -0.7061
  159MOL0     H20971   4.323   4.751   1.796 -0.4049 -1.0081 -2.1136
  159MOL0     H20972   4.678   4.993   1.987  3.3735  2.4987 -0.0269
  159MOL0     H20973   4.777   5.195   1.906 -0.3454  1.7756 -0.5770
  159MOL0     H20974   6.278   5.682   1.938  1.3862  2.1808 -1.8786
  159MOL0     H20975   6.423   5.711   1.744 -0.4945 -0.6933 -1.3264
  159MOL0     H20976   6.709   5.492   1.409  0.5444 -0.6857  0.1942
  159MOL0     H20977   6.910   5.471   1.267 -2.8283 -1.8088  0.5046
  159MOL0     H20978   7.126   5.457   1.223 -0.0879 -0.0999  0.3553
  159MOL0     H20979   7.254   5.551   1.164 -1.4855 -2.0583 -1.7397
  159MOL0     H20980   7.096   5.591   0.996 -0.1475 -1.8769  1.2611
  159MOL0     H20981   6.963   5.604   1.110 -1.1901  3.1116  0.3806
  159MOL0     H20982   7.065   5.828   1.170 -1.2732 -0.4388  0.4966
  159MOL0     H20983   7.023   5.834   1.007 -2.8544 -2.4226  0.7479
  159MOL0     H20984   7.309   5.767   1.114 -0.3670  0.3130  0.8842
  159MOL0     H20985   7.251   5.781   0.936  0.4726  2.2478 -1.2628
  159MOL0     H20986   7.234   6.186   1.028  1.1802 -0.0828 -1.4239
  159MOL0     H20987   7.132   5.699   1.570  0.3558  1.3985 -0.9948
  159MOL0     H20988   6.937   5.681   1.716  0.5048  0.3479 -0.6130
  160MOL0     O20989   7.877   1.237   1.324 -0.3141  0.3511  0.4507
  160MOL0     C20990   7.946   1.166   1.403  0.2384 -0.5421 -0.3083
  160MOL0     O20991   7.899   1.055   1.477 -0.4214 -0.6563 -0.3309
  160MOL0     C20992   7.771   1.009   1.450 -1.0041 -0.0324 -0.7654
  160MOL0     C20993   7.753   0.926   1.341  0.3912 -0.7559  0.3736
  160MOL0     C20994   7.630   0.867   1.320  0.0740 -0.3523  1.0548
  160MOL0     C20995   7.521   0.902   1.405 -0.0237  0.9526  0.4000
  160MOL0     O20996   7.405   0.833   1.396  0.9285  0.0456  0.1325
  160MOL0     C20997   7.353   0.825   1.253  0.0531 -0.5944 -1.3345
  160MOL0     C20998   7.225   0.746   1.253  0.1082  0.1453 -0.7909
  160MOL0     C20999   7.116   0.790   1.345  0.0290  0.3114 -0.7931
  160MOL0     C21000   6.982   0.745   1.286 -0.0857  0.0939  0.9396
  160MOL0     C21001   6.853   0.795   1.356  0.8914 -0.3320  0.0083
  160MOL0     C21002   6.735   0.735   1.289  0.7225 -0.7836  1.1282
  160MOL0     C21003   6.604   0.795   1.341 -0.5961 -0.5843  0.1760
  160MOL0     C21004   6.484   0.739   1.277  0.7014  0.3243 -0.3629
  160MOL0     N21005   6.371   0.800   1.340  0.6183 -0.2399  0.0161
  160MOL0     C21006   6.308   0.753   1.450 -0.1116 -0.0956  0.6092
  160MOL0     C21007   6.219   0.845   1.477 -0.1088  0.1172 -0.7521
  160MOL0     C21008   6.131   0.846   1.596  0.2383  0.4454  0.6682
  160MOL0     C21009   6.054   0.982   1.616 -0.7877  0.6242  0.4773
  160MOL0     C21010   5.976   0.965   1.744  0.8596  1.6277  0.1972
  160MOL0     C21011   5.923   1.092   1.800  0.3093 -0.5659 -1.0127
  160MOL0     O21012   5.894   1.186   1.696 -0.3729 -0.6953  0.3797
  160MOL0     C21013   5.786   1.266   1.722  0.4692  0.0488 -0.0421
  160MOL0     C21014   5.662   1.219   1.700  0.4848  0.7319  0.2860
  160MOL0     C21015   5.559   1.309   1.714  0.5505 -0.1113  0.8852
  160MOL0     C21016   5.579   1.448   1.746  0.0089 -0.5134  0.3375
  160MOL0     C21017   5.471   1.545   1.751  0.3304  0.7622 -0.2943
  160MOL0     O21018   5.481   1.665   1.827  0.8820  0.4937  0.0546
  160MOL0     C21019   5.375   1.744   1.868  0.5435  0.3582  0.4033
  160MOL0     C21020   5.241   1.719   1.873 -0.1062  0.9441 -0.2536
  160MOL0     C21021   5.156   1.821   1.914  0.1453  0.0248 -0.5098
  160MOL0     C21022   5.202   1.945   1.958 -0.0308  0.2308  0.1371
  160MOL0     O21023   5.111   2.041   2.012 -0.6586  0.4799  0.8772
  160MOL0     C21024   5.165   2.179   2.043 -1.2056 -0.4064 -0.0258
  160MOL0     C21025   5.045   2.273   2.083 -0.2851  0.4249 -1.1189
  160MOL0     C21026   5.068   2.420   2.088 -0.9927 -0.3355  0.7218
  160MOL0     C21027   4.935   2.487   2.115  0.1493  0.4047 -0.4422
  160MOL0     C21028   4.867   2.536   1.982 -0.3871 -0.7650  0.5462
  160MOL0     C21029   4.742   2.619   2.003 -0.1485  1.0886 -0.0157
  160MOL0     C21030   4.679   2.671   1.878 -0.4530 -0.2197 -0.1041
  160MOL0     C21031   4.546   2.734   1.927  0.2795  0.2544  0.2557
  160MOL0    Cl21032   4.404   2.699   1.826  0.5798  0.5925  0.5406
  160MOL0     C21033   5.340   1.970   1.948  0.1741 -0.2112 -0.0954
  160MOL0     C21034   5.420   1.870   1.909  0.4751 -0.8343 -0.7943
  160MOL0     O21035   5.368   1.516   1.701  0.2769 -0.3059 -0.1358
  160MOL0     C21036   5.709   1.492   1.754  0.3862  0.6304 -0.0716
  160MOL0     C21037   5.814   1.396   1.751  0.0082 -0.0247  0.3552
  160MOL0     N21038   6.221   0.948   1.385  0.2869  0.5868  0.5948
  160MOL0     N21039   6.309   0.916   1.300 -0.6829 -0.2487 -0.4381
  160MOL0     C21040   7.538   0.995   1.505  0.9195 -0.8045  0.6161
  160MOL0     C21041   7.660   1.064   1.527  0.0872 -0.6036 -0.0234
  160MOL0     C21042   8.087   1.198   1.431 -0.2233 -0.7370  0.3409
  160MOL0     C21043   8.164   1.275   1.339  0.2256  0.2264  0.3134
  160MOL0     C21044   8.292   1.308   1.363 -0.4634  0.4591 -0.2860
  160MOL0     C21045   8.355   1.281   1.484 -0.0889  0.3654  0.1801
  160MOL0     O21046   8.480   1.324   1.518  0.6071 -0.4324 -0.6413
  160MOL0     C21047   8.568   1.376   1.422  0.1370 -0.1941 -1.0973
  160MOL0     C21048   8.701   1.396   1.492  0.0752 -0.0154  0.6805
  160MOL0     C21049   8.798   1.497   1.432 -0.3516 -1.3475  0.0536
  160MOL0     C21050   8.898   1.427   1.340 -0.0329 -0.2261  0.9471
  160MOL0     C21051   9.008   1.364   1.420 -0.0191  0.7466 -1.0208
  160MOL0     C21052   9.114   1.319   1.473 -0.0459  0.0022 -0.6448
  160MOL0     C21053   8.284   1.206   1.572  0.0781 -0.1525 -0.1317
  160MOL0     C21054   8.148   1.163   1.551 -0.1907  1.1641  0.6378
  160MOL0     H21055   7.844   0.893   1.292  0.5667  1.2119 -0.7408
  160MOL0     H21056   7.618   0.786   1.249  2.1986  0.1066  0.0920
  160MOL0     H21057   7.422   0.773   1.186  1.6238 -1.5985  0.9462
  160MOL0     H21058   7.324   0.928   1.229  0.1617  0.1471  1.3391
  160MOL0     H21059   7.246   0.643   1.283  1.4931  0.8967  1.0347
  160MOL0     H21060   7.194   0.735   1.149 -0.7427 -1.7625 -0.3855
  160MOL0     H21061   7.115   0.900   1.340 -0.6770  0.3414 -0.2775
  160MOL0     H21062   7.132   0.756   1.447 -3.7674  0.5363  0.0469
  160MOL0     H21063   6.980   0.757   1.178  0.1280 -0.0696  0.9163
  160MOL0     H21064   6.959   0.638   1.294 -1.0084  0.3812  2.9029
  160MOL0     H21065   6.848   0.904   1.341  5.0809  0.0663  0.3880
  160MOL0     H21066   6.846   0.767   1.461 -1.2659 -0.6404 -0.1842
  160MOL0     H21067   6.748   0.629   1.311  2.5152 -0.7746  0.3379
  160MOL0     H21068   6.749   0.754   1.182  3.4114  0.5669  1.6122
  160MOL0     H21069   6.596   0.790   1.450  1.4003 -2.5505  0.2962
  160MOL0     H21070   6.603   0.903   1.322 -1.7598 -0.2500  1.9060
  160MOL0     H21071   6.480   0.630   1.286 -1.9653  0.3103 -0.7716
  160MOL0     H21072   6.481   0.767   1.171 -1.4721 -1.6023 -0.9002
  160MOL0     H21073   6.323   0.654   1.493 -1.3354 -1.3557 -1.6473
  160MOL0     H21074   6.202   0.835   1.679  1.5594 -1.0071 -0.5935
  160MOL0     H21075   6.070   0.756   1.604  2.6345 -1.2909  0.5889
  160MOL0     H21076   5.997   1.011   1.528  0.1562 -2.9437 -1.4780
  160MOL0     H21077   6.133   1.056   1.634  0.3587  0.1077 -2.0749
  160MOL0     H21078   5.892   0.902   1.714  0.4385  3.0309 -1.7659
  160MOL0     H21079   6.033   0.916   1.824 -1.8790  1.6343  2.2714
  160MOL0     H21080   5.980   1.141   1.879 -1.9412  1.9601 -0.7799
  160MOL0     H21081   5.832   1.066   1.854 -1.4523  3.8232 -1.4229
  160MOL0     H21082   5.655   1.114   1.676  0.7186  0.5798  0.8774
  160MOL0     H21083   5.456   1.275   1.713 -0.3003  2.2107 -0.9123
  160MOL0     H21084   5.197   1.627   1.834  1.2217 -0.2667  1.0279
  160MOL0     H21085   5.050   1.797   1.912  0.1291  0.1354 -2.1209
  160MOL0     H21086   5.209   2.208   1.948 -0.5775 -4.2211 -1.0593
  160MOL0     H21087   5.233   2.181   2.129 -0.8958 -0.1032 -0.2775
  160MOL0     H21088   4.991   2.235   2.171 -0.1120  0.3850 -1.0272
  160MOL0     H21089   4.978   2.258   1.998  0.3106  2.2272 -1.9542
  160MOL0     H21090   5.114   2.454   1.995  2.0474  1.0026  2.5619
  160MOL0     H21091   5.145   2.438   2.163  0.2425  2.0957 -1.0121
  160MOL0     H21092   4.863   2.420   2.163  0.7128 -0.5158 -0.8546
  160MOL0     H21093   4.951   2.576   2.177  3.7204 -0.3896  0.0279
  160MOL0     H21094   4.836   2.446   1.929 -2.6076  0.3369 -0.1516
  160MOL0     H21095   4.945   2.594   1.931  0.6252  0.1738  2.9721
  160MOL0     H21096   4.767   2.702   2.070 -3.7307  1.2448  1.3466
  160MOL0     H21097   4.669   2.557   2.056 -1.2360  0.0496 -2.5255
  160MOL0     H21098   4.752   2.736   1.829 -2.1569  3.1643  1.5402
  160MOL0     H21099   4.653   2.588   1.811  2.7894  0.5713 -2.6106
  160MOL0     H21100   4.551   2.844   1.925 -3.2783  0.5202 -0.5261
  160MOL0     H21101   4.530   2.701   2.030  1.7283  0.6282  0.6147
  160MOL0     H21102   5.384   2.067   1.964 -1.0193  0.6192 -1.5919
  160MOL0     H21103   5.525   1.897   1.901  0.4716 -0.8080 -0.7521
  160MOL0     H21104   5.741   1.593   1.778  1.6144  0.1579  0.2927
  160MOL0     H21105   5.916   1.428   1.770  0.2642 -2.0054  2.7125
  160MOL0     H21106   7.452   1.012   1.569 -2.8011 -2.6654 -3.3836
  160MOL0     H21107   7.661   1.134   1.609  0.6904 -0.5396 -0.0844
  160MOL0     H21108   8.117   1.308   1.247 -2.1683 -2.2389  0.5312
  160MOL0     H21109   8.350   1.367   1.293  1.8359 -0.4394  0.7625
  160MOL0     H21110   8.534   1.470   1.378 -1.8396 -1.4348 -2.3664
  160MOL0     H21111   8.587   1.300   1.346  0.7175 -0.3160 -0.8372
  160MOL0     H21112   8.692   1.424   1.597  0.8591  0.6055  0.5944
  160MOL0     H21113   8.750   1.299   1.494  0.4573  0.1037 -1.1639
  160MOL0     H21114   8.850   1.539   1.518  2.2817  1.2416 -2.5774
  160MOL0     H21115   8.755   1.580   1.375  2.4731  0.7710  0.8181
  160MOL0     H21116   8.836   1.361   1.278 -0.5346 -0.2890  1.5006
  160MOL0     H21117   8.935   1.502   1.270  2.5908 -2.4517 -0.2183
  160MOL0     H21118   9.199   1.267   1.510 -1.5237 -3.6534 -1.9379
  160MOL0     H21119   8.341   1.181   1.662 -2.0675 -1.9635  0.8123
  160MOL0     H21120   8.087   1.112   1.625 -1.5647 -0.2376 -1.3384
  161MOL0     O21121   4.188   2.066  10.762  0.5551 -0.4118  0.3537
  161MOL0     C21122   4.171   1.956  10.828  0.4066 -0.3124 -0.1940
  161MOL0     O21123   4.049   1.893  10.838  0.3522  0.0690 -0.7189
  161MOL0     C21124   3.931   1.962  10.807  0.7501 -0.0255 -0.5401
  161MOL0     C21125   3.910   2.098  10.836 -0.3818 -0.9464  0.9444
  161MOL0     C21126   3.783   2.159  10.822 -0.1805  0.1968 -0.6010
  161MOL0     C21127   3.675   2.083  10.783 -0.0055 -0.9512  0.6635
  161MOL0     O21128   3.546   2.121  10.780 -1.0966  0.9200 -0.0707
  161MOL0     C21129   3.515   2.254  10.741  0.2078  0.5819  0.5846
  161MOL0     C21130   3.365   2.278  10.775  0.0286 -0.6091 -0.4716
  161MOL0     C21131   3.261   2.218  10.691  0.4830  0.2849 -0.5042
  161MOL0     C21132   3.121   2.220  10.762  0.1472  0.3943  0.0535
  161MOL0     C21133   3.020   2.144  10.671 -0.1994 -0.0070  0.1999
  161MOL0     C21134   2.944   2.243  10.586  0.1435  0.1285  0.8655
  161MOL0     C21135   2.849   2.177  10.488 -0.1585  0.6410 -0.0817
  161MOL0     C21136   2.833   2.266  10.355  0.1810 -0.4814  0.2270
  161MOL0     N21137   2.737   2.198  10.262  0.0114 -0.6531  0.8173
  161MOL0     C21138   2.752   2.079  10.200 -0.8574 -1.0337  0.3026
  161MOL0     C21139   2.666   2.076  10.097  0.5399 -0.4061 -0.4667
  161MOL0     C21140   2.646   1.967   9.995 -0.7026  0.5830  0.0509
  161MOL0     C21141   2.506   1.910   9.977 -0.3843  0.4757 -0.5511
  161MOL0     C21142   2.497   1.823   9.849 -0.0375  0.1411 -0.5554
  161MOL0     C21143   2.373   1.735   9.826 -0.7559 -0.5838  1.0600
  161MOL0     O21144   2.257   1.824   9.821  0.0688 -0.5319  0.4276
  161MOL0     C21145   2.130   1.772   9.806 -0.5054 -0.4750 -0.2188
  161MOL0     C21146   2.025   1.867   9.804 -0.2541 -1.1392  0.2599
  161MOL0     C21147   1.897   1.833   9.765  0.9300  0.3531  0.1951
  161MOL0     C21148   1.866   1.694   9.758 -0.4011 -0.3007 -0.2710
  161MOL0     C21149   1.728   1.646   9.718 -0.2254 -0.0320  0.0205
  161MOL0     O21150   1.650   1.741   9.649 -0.4358  0.0594  0.0932
  161MOL0     C21151   1.516   1.713   9.641 -1.1304  0.0943 -0.4170
  161MOL0     C21152   1.468   1.649   9.530 -0.7555 -1.2816  0.1399
  161MOL0     C21153   1.328   1.618   9.530  0.2826  0.0573  0.6061
  161MOL0     C21154   1.246   1.668   9.628  0.6253  1.2418 -0.3369
  161MOL0     O21155   1.112   1.642   9.610 -0.5207  0.3602  0.1354
  161MOL0     C21156   1.020   1.706   9.697  0.5823  0.4556 -0.5734
  161MOL0     C21157   0.877   1.668   9.651 -0.3440  0.1904 -0.1777
  161MOL0     C21158   0.770   1.704   9.748 -0.4585  0.3197  0.2160
  161MOL0     C21159   0.649   1.612   9.729  0.3827  0.2494  0.7069
  161MOL0     C21160   0.604   1.612   9.585 -0.2880  0.0753  0.2285
  161MOL0     C21161   0.477   1.526   9.561 -0.5707 -0.2116  0.3402
  161MOL0     C21162   0.350   1.578   9.632 -1.0694 -0.1117 -0.0789
  161MOL0     C21163   0.230   1.498   9.589  1.5292 -0.1753  0.3127
  161MOL0    Cl21164   0.165   1.574   9.434  0.1156  0.0020 -0.2039
  161MOL0     C21165   1.298   1.724   9.740 -0.8552 -0.4561 -0.2308
  161MOL0     C21166   1.436   1.747   9.752 -0.0700 -0.3997 -0.4414
  161MOL0     O21167   1.690   1.534   9.742 -0.1713 -0.0799 -0.6562
  161MOL0     C21168   1.967   1.594   9.786  1.0931 -0.1149  0.0305
  161MOL0     C21169   2.103   1.636   9.795  0.0180  0.4530  0.3570
  161MOL0     N21170   2.578   2.188  10.110  0.2304 -0.4046 -0.3263
  161MOL0     N21171   2.636   2.263  10.203  0.2964 -0.1035  0.5704
  161MOL0     C21172   3.694   1.950  10.751  0.5740  0.2622 -0.6519
  161MOL0     C21173   3.823   1.893  10.757 -0.4241 -0.6138  0.5180
  161MOL0     C21174   4.295   1.881  10.851  0.3204  0.7459  0.4152
  161MOL0     C21175   4.291   1.759  10.916 -0.4819  0.7460  1.3137
  161MOL0     C21176   4.415   1.694  10.936  0.5611  0.0177 -0.3225
  161MOL0     C21177   4.535   1.740  10.901 -0.5148  0.4348 -0.4116
  161MOL0     O21178   4.654   1.687  10.938 -0.6148 -0.4071 -0.0912
  161MOL0     C21179   4.764   1.768  10.972 -0.1203  1.0609  0.4018
  161MOL0     C21180   4.871   1.668  11.012  0.4531  0.0133 -0.2886
  161MOL0     C21181   4.895   1.561  10.898 -0.3078  0.2309  0.0068
  161MOL0     C21182   4.941   1.630  10.759  1.3408  0.5715 -0.2075
  161MOL0     C21183   4.968   1.523  10.656  0.9233 -0.4796  0.2726
  161MOL0     C21184   4.995   1.438  10.573 -0.0934  0.5806 -0.0937
  161MOL0     C21185   4.531   1.869  10.836  0.1321 -0.6746 -0.2039
  161MOL0     C21186   4.416   1.940  10.815 -0.5174 -1.1497  0.2190
  161MOL0     H21187   3.990   2.158  10.877 -1.4649  1.4458 -0.2749
  161MOL0     H21188   3.768   2.266  10.834 -0.3760  0.1247 -0.1517
  161MOL0     H21189   3.531   2.268  10.634 -0.8530 -0.1526  0.3145
  161MOL0     H21190   3.570   2.326  10.802 -4.2038  0.8413  4.8715
  161MOL0     H21191   3.353   2.385  10.796 -0.8500 -0.9889  1.1662
  161MOL0     H21192   3.363   2.230  10.873  0.2194  0.2758 -0.0166
  161MOL0     H21193   3.292   2.113  10.682  1.4792  0.6125 -1.1420
  161MOL0     H21194   3.259   2.263  10.591  1.7092 -1.1899 -1.2424
  161MOL0     H21195   3.128   2.165  10.856  0.7827 -0.1031 -0.2804
  161MOL0     H21196   3.098   2.320  10.799 -0.5848 -0.1365  1.0847
  161MOL0     H21197   2.944   2.087  10.724  0.8412 -1.2369  0.4224
  161MOL0     H21198   3.076   2.071  10.612  1.3677 -3.5753  5.3883
  161MOL0     H21199   3.011   2.297  10.518 -1.5679  1.6855  0.3341
  161MOL0     H21200   2.905   2.330  10.641 -2.5191  0.4553 -1.3326
  161MOL0     H21201   2.892   2.084  10.449 -1.7595 -0.2222  0.1127
  161MOL0     H21202   2.744   2.165  10.517 -0.0532  3.4234  1.8355
  161MOL0     H21203   2.935   2.281  10.319  0.7957 -1.1419  1.6390
  161MOL0     H21204   2.790   2.362  10.383  2.4427  0.9882 -1.0508
  161MOL0     H21205   2.830   2.006  10.217 -0.6735 -0.4528  2.1844
  161MOL0     H21206   2.725   1.893  10.011 -3.4765 -2.1173  2.5379
  161MOL0     H21207   2.674   2.010   9.898  0.8146  3.1516  1.5161
  161MOL0     H21208   2.427   1.985   9.974 -1.0673 -0.2475 -3.1473
  161MOL0     H21209   2.494   1.840  10.060  0.8929 -1.3948 -1.8351
  161MOL0     H21210   2.495   1.888   9.760  0.2810 -1.6679 -1.9452
  161MOL0     H21211   2.590   1.766   9.836 -0.0481  0.3339 -1.6126
  161MOL0     H21212   2.360   1.663   9.908  0.1567 -1.2246  0.6664
  161MOL0     H21213   2.380   1.681   9.732 -0.6950  4.6469 -2.3253
  161MOL0     H21214   2.059   1.968   9.828 -0.3447 -1.1143  0.2864
  161MOL0     H21215   1.818   1.905   9.743  0.0704 -0.3141  0.9936
  161MOL0     H21216   1.527   1.640   9.440 -2.2901  0.2989 -1.0911
  161MOL0     H21217   1.274   1.572   9.448  0.9198  0.5382 -0.1040
  161MOL0     H21218   1.040   1.813   9.698  2.0066  0.2674 -2.7668
  161MOL0     H21219   1.024   1.661   9.797 -3.3486 -1.3036 -0.9900
  161MOL0     H21220   0.874   1.561   9.627  2.4626  0.0204 -0.1087
  161MOL0     H21221   0.856   1.716   9.555  2.6722 -0.3039 -1.2013
  161MOL0     H21222   0.742   1.809   9.755 -0.9904  0.1809  0.1951
  161MOL0     H21223   0.812   1.679   9.845  1.7474  2.2042 -0.1645
  161MOL0     H21224   0.677   1.513   9.766 -0.3689 -0.1802  0.1543
  161MOL0     H21225   0.570   1.638   9.799 -1.9484 -2.5651 -0.6460
  161MOL0     H21226   0.683   1.577   9.518 -1.6768  0.0792 -1.4866
  161MOL0     H21227   0.569   1.711   9.555 -2.6336  0.1289  2.7401
  161MOL0     H21228   0.509   1.423   9.580 -0.5010  0.0275  1.5793
  161MOL0     H21229   0.452   1.550   9.457 -1.5907  1.5455  0.9467
  161MOL0     H21230   0.368   1.575   9.740  1.5497  2.8079 -0.2899
  161MOL0     H21231   0.336   1.684   9.608 -1.7099 -0.6640 -2.4287
  161MOL0     H21232   0.144   1.498   9.656  0.4814 -1.1699 -0.9707
  161MOL0     H21233   0.256   1.395   9.563 -0.3309 -0.3299 -1.1404
  161MOL0     H21234   1.233   1.778   9.808  1.0701  0.2569  1.1310
  161MOL0     H21235   1.478   1.809   9.830  0.5661  0.8094 -1.7232
  161MOL0     H21236   1.946   1.488   9.778  2.8483 -0.3910 -1.5193
  161MOL0     H21237   2.176   1.558   9.810 -0.4095 -0.9930 -3.7725
  161MOL0     H21238   3.604   1.895  10.726  1.1584  0.3000 -3.1662
  161MOL0     H21239   3.825   1.789  10.724 -0.1630  0.2950 -2.6224
  161MOL0     H21240   4.197   1.718  10.952 -2.0922  0.9680 -2.1490
  161MOL0     H21241   4.417   1.616  11.011  1.8575  0.7660  0.4551
  161MOL0     H21242   4.731   1.844  11.043 -0.5013  1.5885 -0.3304
  161MOL0     H21243   4.788   1.826  10.882 -2.2221 -1.6293 -2.0988
  161MOL0     H21244   4.966   1.719  11.026  1.0930 -0.9466 -0.9731
  161MOL0     H21245   4.841   1.618  11.105 -2.6256  2.0749 -0.0393
  161MOL0     H21246   4.809   1.495  10.887 -4.4004  5.0524 -1.0223
  161MOL0     H21247   4.977   1.495  10.926  0.0422 -0.1538 -1.7932
  161MOL0     H21248   4.849   1.679  10.724  0.8214  1.2750  1.9555
  161MOL0     H21249   5.021   1.701  10.781  3.2631 -2.0540  1.9735
  161MOL0     H21250   5.030   1.367  10.502 -0.3392 -0.4244  0.7691
  161MOL0     H21251   4.617   1.929  10.808 -0.7275  0.8002  0.2007
  161MOL0     H21252   4.414   2.040  10.774 -1.5926 -0.8562  0.9309
  162MOL0     O21253   7.857   7.311   8.377  0.0918  0.7962  0.6622
  162MOL0     C21254   7.927   7.313   8.270 -0.7135  0.9258 -0.4376
  162MOL0     O21255   7.878   7.334   8.148 -0.0755 -0.2950 -0.9305
  162MOL0     C21256   7.740   7.377   8.125 -0.0568  0.6784 -0.0359
  162MOL0     C21257   7.720   7.412   7.987  0.1901  0.9976  0.4495
  162MOL0     C21258   7.589   7.454   7.953  0.2942 -0.0426  0.7145
  162MOL0     C21259   7.481   7.472   8.047 -0.7156  0.4942 -0.5765
  162MOL0     O21260   7.351   7.504   8.027 -0.3308 -0.7095  0.8517
  162MOL0     C21261   7.296   7.512   7.898 -0.1693  0.5680  0.2023
  162MOL0     C21262   7.156   7.569   7.915 -0.2419 -1.0026  0.0009
  162MOL0     C21263   7.068   7.503   8.017 -1.2828  0.5311 -0.0902
  162MOL0     C21264   6.947   7.580   8.057  0.3190 -0.0069  0.0675
  162MOL0     C21265   6.856   7.526   8.172 -0.5684 -0.0028 -0.1340
  162MOL0     C21266   6.934   7.480   8.292 -0.7781 -1.0487  1.1424
  162MOL0     C21267   6.845   7.463   8.419  0.2346 -0.4451 -0.1797
  162MOL0     C21268   6.707   7.394   8.406  1.6604 -0.0409  0.3660
  162MOL0     N21269   6.656   7.336   8.538 -0.1873  0.3214 -0.5882
  162MOL0     C21270   6.670   7.380   8.669  0.4882 -0.2832 -0.2821
  162MOL0     C21271   6.625   7.278   8.747 -1.1289  0.5705  0.0310
  162MOL0     C21272   6.622   7.275   8.896  0.4219 -0.6627 -0.5970
  162MOL0     C21273   6.480   7.319   8.938  0.0256 -0.5304 -0.1315
  162MOL0     C21274   6.446   7.297   9.085 -1.0073  0.4893  0.3580
  162MOL0     C21275   6.298   7.285   9.113 -0.4040  0.0375  0.6338
  162MOL0     O21276   6.270   7.231   9.238 -0.2959 -1.1924 -0.9246
  162MOL0     C21277   6.132   7.231   9.290 -0.5733  0.4446  0.4775
  162MOL0     C21278   6.039   7.182   9.200 -0.0918 -0.3751 -0.0567
  162MOL0     C21279   5.904   7.207   9.228 -0.3062 -0.0470 -0.4398
  162MOL0     C21280   5.875   7.250   9.357  0.5773  0.4941  0.3242
  162MOL0     C21281   5.735   7.258   9.393 -0.1222  0.2823 -0.5967
  162MOL0     O21282   5.715   7.266   9.524  0.9778 -0.4561  0.0499
  162MOL0     C21283   5.588   7.244   9.579  0.3881  0.0873  0.2038
  162MOL0     C21284   5.464   7.288   9.520  0.6681 -0.4961  0.5736
  162MOL0     C21285   5.344   7.250   9.585  0.0358  0.1203 -0.0135
  162MOL0     C21286   5.342   7.174   9.704  0.1959  0.3932  0.6093
  162MOL0     O21287   5.227   7.131   9.761  0.2826  0.5126 -0.0743
  162MOL0     C21288   5.106   7.104   9.686 -0.7225  0.2641  0.4421
  162MOL0     C21289   5.009   7.212   9.723  0.3176  0.2078 -0.0045
  162MOL0     C21290   4.870   7.193   9.667 -0.0681 -0.4854 -0.2136
  162MOL0     C21291   4.776   7.309   9.703  0.3663  0.1381  0.1753
  162MOL0     C21292   4.630   7.258   9.679  0.4070  0.7309  0.0252
  162MOL0     C21293   4.569   7.164   9.797 -0.5181 -0.9598 -0.1517
  162MOL0     C21294   4.432   7.116   9.750  0.5038  0.0388 -0.3199
  162MOL0     C21295   4.312   7.215   9.791 -0.6225 -0.4503 -0.0280
  162MOL0    Cl21296   4.297   7.206   9.975  0.7771 -0.1314 -0.2838
  162MOL0     C21297   5.459   7.140   9.766  0.3448 -0.1508  0.1101
  162MOL0     C21298   5.580   7.183   9.704 -0.1348  0.5450 -0.2001
  162MOL0     O21299   5.649   7.247   9.308  0.9396  0.2043 -0.2465
  162MOL0     C21300   5.971   7.287   9.450  0.2497  0.5184 -0.6812
  162MOL0     C21301   6.106   7.281   9.410 -0.4542 -0.7357 -0.8258
  162MOL0     N21302   6.583   7.171   8.671 -0.5992  0.4249  0.1699
  162MOL0     N21303   6.599   7.213   8.550 -0.2537 -1.0448 -0.1182
  162MOL0     C21304   7.511   7.441   8.183 -0.8927 -0.0908 -0.4196
  162MOL0     C21305   7.637   7.399   8.221 -0.9290  0.1421  0.7984
  162MOL0     C21306   8.077   7.289   8.286  0.5169  0.0571 -0.6651
  162MOL0     C21307   8.124   7.239   8.407  0.0501  0.0208  0.9118
  162MOL0     C21308   8.263   7.242   8.432 -0.6906 -0.1243 -0.0888
  162MOL0     C21309   8.356   7.286   8.334  0.1207 -1.4466 -0.0785
  162MOL0     O21310   8.489   7.264   8.345 -0.5261 -0.2027  0.0326
  162MOL0     C21311   8.545   7.214   8.465  0.0627  0.0473 -0.3756
  162MOL0     C21312   8.695   7.210   8.465 -0.6508 -0.0815  0.4981
  162MOL0     C21313   8.759   7.168   8.603 -0.0856  0.2443  0.4248
  162MOL0     C21314   8.910   7.140   8.578 -0.7009  0.5560 -0.3875
  162MOL0     C21315   8.977   7.259   8.533 -0.3631  0.6386 -0.1199
  162MOL0     C21316   9.050   7.344   8.488 -0.4223 -0.1245  1.0804
  162MOL0     C21317   8.304   7.342   8.214  0.8334 -0.4439  0.6503
  162MOL0     C21318   8.162   7.344   8.189  0.7956  0.3296 -0.3985
  162MOL0     H21319   7.788   7.411   7.903 -0.8768  2.1368 -0.4754
  162MOL0     H21320   7.564   7.467   7.848 -0.0963 -0.7040  0.7213
  162MOL0     H21321   7.298   7.417   7.844  0.7378  1.1716 -0.8754
  162MOL0     H21322   7.359   7.580   7.839  1.5406 -0.3667  0.8582
  162MOL0     H21323   7.101   7.562   7.820 -0.7753  1.4192  0.0709
  162MOL0     H21324   7.177   7.673   7.940  0.7416 -1.3236  0.5514
  162MOL0     H21325   7.128   7.490   8.108 -0.6095  2.7077 -0.1723
  162MOL0     H21326   7.033   7.405   7.984 -1.4190 -0.6935  3.2198
  162MOL0     H21327   6.982   7.679   8.091 -1.4129 -0.5024  3.8106
  162MOL0     H21328   6.877   7.604   7.977  0.3451  2.7480  0.7514
  162MOL0     H21329   6.798   7.438   8.144  0.8678 -2.0338  2.6778
  162MOL0     H21330   6.775   7.596   8.193 -2.8992 -2.5960  0.1454
  162MOL0     H21331   7.008   7.555   8.320 -4.0526  1.9228  2.5966
  162MOL0     H21332   6.984   7.384   8.272 -1.3246 -0.8669 -1.5693
  162MOL0     H21333   6.899   7.411   8.499  1.3843 -2.9108 -2.4132
  162MOL0     H21334   6.828   7.566   8.451  3.7380  0.0566  0.4241
  162MOL0     H21335   6.710   7.322   8.324 -0.1544  2.4479 -2.0893
  162MOL0     H21336   6.646   7.476   8.366  0.0754 -1.8555 -1.1109
  162MOL0     H21337   6.714   7.474   8.698  3.5968 -0.7158 -2.9538
  162MOL0     H21338   6.710   7.320   8.943 -0.8346 -0.9261  2.2027
  162MOL0     H21339   6.627   7.167   8.913  2.9173 -0.7371 -1.3998
  162MOL0     H21340   6.409   7.255   8.885 -0.9611 -0.2905  0.8433
  162MOL0     H21341   6.464   7.423   8.906 -2.0211 -1.2159 -1.4971
  162MOL0     H21342   6.507   7.211   9.113 -1.6439 -1.4551 -3.5500
  162MOL0     H21343   6.484   7.392   9.125  3.0519 -0.5052 -0.7023
  162MOL0     H21344   6.255   7.223   9.034 -1.5815  3.3595 -1.5583
  162MOL0     H21345   6.247   7.380   9.097 -3.3138 -1.6479 -1.0153
  162MOL0     H21346   6.076   7.130   9.112  2.6372  3.4293 -1.4088
  162MOL0     H21347   5.829   7.185   9.153 -0.0921 -0.7332 -0.4638
  162MOL0     H21348   5.460   7.345   9.428  4.7852 -0.8826 -0.0340
  162MOL0     H21349   5.247   7.266   9.540  0.2142 -0.2770 -0.5592
  162MOL0     H21350   5.074   7.003   9.713 -1.3697  0.7576  1.6265
  162MOL0     H21351   5.115   7.098   9.578  1.4084 -4.2211  0.6497
  162MOL0     H21352   5.043   7.307   9.681  2.1129 -0.5097 -0.2771
  162MOL0     H21353   5.029   7.222   9.830  1.7256 -2.4161  0.0682
  162MOL0     H21354   4.824   7.097   9.692 -2.2019  0.7746  0.9778
  162MOL0     H21355   4.867   7.182   9.559 -4.7223 -1.7520 -0.1831
  162MOL0     H21356   4.792   7.341   9.807  1.4048  2.1285 -0.5291
  162MOL0     H21357   4.800   7.396   9.641 -1.5760  1.1761  0.7916
  162MOL0     H21358   4.617   7.204   9.585  0.0434 -1.3290  1.2036
  162MOL0     H21359   4.570   7.350   9.682  0.7439  1.1915 -3.2991
  162MOL0     H21360   4.563   7.210   9.896  2.1691 -0.7951  0.0292
  162MOL0     H21361   4.641   7.082   9.805 -0.3174 -1.2763 -3.6522
  162MOL0     H21362   4.419   7.099   9.643  0.8802  0.5100 -0.4443
  162MOL0     H21363   4.417   7.018   9.796 -0.3061  1.8262  3.5912
  162MOL0     H21364   4.226   7.172   9.739 -1.2168  2.4184 -1.6569
  162MOL0     H21365   4.329   7.315   9.751  0.5733 -0.0929  1.2849
  162MOL0     H21366   5.460   7.072   9.851  2.2116  1.7740  1.7304
  162MOL0     H21367   5.664   7.136   9.754 -1.5793 -1.6582  0.2889
  162MOL0     H21368   5.935   7.332   9.542  0.2886  2.9831 -1.7984
  162MOL0     H21369   6.197   7.302   9.466 -1.0694 -1.3618  0.4372
  162MOL0     H21370   7.430   7.452   8.254 -0.9038  2.9525 -0.7509
  162MOL0     H21371   7.652   7.386   8.328 -0.9928 -2.3870  0.5723
  162MOL0     H21372   8.059   7.217   8.491  2.1597 -0.2197  2.5699
  162MOL0     H21373   8.302   7.206   8.526  0.1480  1.6975  0.3177
  162MOL0     H21374   8.522   7.109   8.485 -1.8127  0.4780 -0.0934
  162MOL0     H21375   8.510   7.274   8.549  2.5128  1.3998 -0.2194
  162MOL0     H21376   8.725   7.133   8.393 -0.3073  0.2461  0.2855
  162MOL0     H21377   8.737   7.307   8.434 -0.2087 -0.0230  1.2600
  162MOL0     H21378   8.712   7.080   8.648  4.4852 -1.5558  2.2816
  162MOL0     H21379   8.754   7.247   8.678  0.7851 -2.5359  3.6712
  162MOL0     H21380   8.960   7.108   8.670 -0.2555  1.4027 -0.3292
  162MOL0     H21381   8.921   7.061   8.503 -1.4033  1.0181 -0.9858
  162MOL0     H21382   9.112   7.417   8.440 -2.3669  0.5324 -0.5354
  162MOL0     H21383   8.370   7.378   8.136  0.8500  2.5454  1.9264
  162MOL0     H21384   8.125   7.378   8.093  0.7394  1.1321 -0.0967
  163MOL0     O21385   4.615  10.283   8.844  0.2375  0.3870 -0.5997
  163MOL0     C21386   4.699  10.262   8.930  0.0160 -0.0054 -0.6904
  163MOL0     O21387   4.675  10.267   9.063 -0.0786 -0.7669  0.1269
  163MOL0     C21388   4.550  10.285   9.111  0.5639  0.5081  0.4426
  163MOL0     C21389   4.451  10.189   9.074 -0.0056 -0.5920  0.0758
  163MOL0     C21390   4.323  10.203   9.102  0.3978 -0.9597 -0.5282
  163MOL0     C21391   4.274  10.312   9.179 -0.1330  0.5372 -0.1215
  163MOL0     O21392   4.143  10.335   9.204  0.2545 -0.7002 -0.2170
  163MOL0     C21393   4.097  10.277   9.329 -0.4976 -0.4046  0.4434
  163MOL0     C21394   3.946  10.295   9.342 -0.2309 -0.3074 -0.7095
  163MOL0     C21395   3.887  10.431   9.396 -0.0074  0.5671  0.2596
  163MOL0     C21396   3.736  10.447   9.381  0.2828  0.6874  0.1140
  163MOL0     C21397   3.674  10.581   9.436 -0.8785  0.3178 -0.2206
  163MOL0     C21398   3.723  10.628   9.579  0.9885  0.0720 -0.7181
  163MOL0     C21399   3.655  10.549   9.693 -0.6001 -0.0148  0.1906
  163MOL0     C21400   3.742  10.574   9.823  0.3870  0.0037  0.3612
  163MOL0     N21401   3.701  10.483   9.931  0.2045  0.4642  0.5931
  163MOL0     C21402   3.596  10.517  10.015 -0.2693 -0.4994  0.7515
  163MOL0     C21403   3.597  10.424  10.103  0.6858  0.7625 -0.2698
  163MOL0     C21404   3.514  10.412  10.226  0.1876 -0.4324  0.7118
  163MOL0     C21405   3.366  10.417  10.195  0.9703  0.5166 -0.7817
  163MOL0     C21406   3.274  10.345  10.296 -0.4044 -0.1341  0.4138
  163MOL0     C21407   3.131  10.351  10.250  0.0330  0.0539  0.0459
  163MOL0     O21408   3.077  10.481  10.268 -0.1213 -1.0766 -0.0392
  163MOL0     C21409   2.949  10.503  10.241 -0.1508  0.0429 -0.2155
  163MOL0     C21410   2.904  10.633  10.250 -0.0681 -0.9063 -0.5499
  163MOL0     C21411   2.769  10.661  10.239  0.0553 -0.2569 -0.3148
  163MOL0     C21412   2.676  10.564  10.224 -0.5629  0.0981  0.1697
  163MOL0     C21413   2.536  10.610  10.224  0.0066 -0.4926 -0.6420
  163MOL0     O21414   2.483  10.684  10.318 -0.0796 -0.0709 -0.5042
  163MOL0     C21415   2.380  10.769  10.297  0.6485  0.3465 -0.6959
  163MOL0     C21416   2.276  10.784  10.393 -0.4841  0.7996  0.9358
  163MOL0     C21417   2.191  10.891  10.376  1.1162 -0.7812  0.2514
  163MOL0     C21418   2.201  10.986  10.276  0.7228 -0.1792  0.1099
  163MOL0     O21419   2.099  11.082  10.275  0.5982  0.5182  0.3419
  163MOL0     C21420   2.100  11.208  10.205  0.0654  0.3811 -0.3188
  163MOL0     C21421   2.040  11.304  10.304  0.0104 -1.0514 -0.0906
  163MOL0     C21422   2.123  11.310  10.437  0.1107 -0.2046 -0.5710
  163MOL0     C21423   2.058  11.415  10.523  0.0384  0.8440  0.2379
  163MOL0     C21424   2.105  11.411  10.668  0.7475  0.9664  0.7023
  163MOL0     C21425   2.013  11.497  10.765 -0.5112  0.0091  0.4695
  163MOL0     C21426   2.063  11.488  10.909 -0.3549 -0.2068  0.0615
  163MOL0     C21427   2.022  11.607  10.993 -0.1089 -0.9233  0.0200
  163MOL0    Cl21428   1.965  11.544  11.152  0.1275 -0.1161  0.6256
  163MOL0     C21429   2.297  10.971  10.186 -0.9858 -0.3113 -0.2941
  163MOL0     C21430   2.386  10.860  10.193 -0.2934 -0.4680 -0.2532
  163MOL0     O21431   2.469  10.583  10.121 -0.6378  0.1761 -0.2025
  163MOL0     C21432   2.713  10.430  10.191 -0.2674  0.3064  0.0072
  163MOL0     C21433   2.853  10.397  10.212  0.0992 -0.6965 -0.4882
  163MOL0     N21434   3.695  10.324  10.082  0.6959 -0.5617 -0.5081
  163MOL0     N21435   3.758  10.365   9.978  0.1787 -0.2867  0.3633
  163MOL0     C21436   4.371  10.394   9.230  0.1665 -0.7663 -0.2044
  163MOL0     C21437   4.514  10.386   9.201  1.6171 -0.6383 -0.0120
  163MOL0     C21438   4.836  10.236   8.882 -0.3108  0.5010  0.5415
  163MOL0     C21439   4.851  10.196   8.747  0.0628 -0.1060  0.6910
  163MOL0     C21440   4.985  10.176   8.696  0.0615  0.7057 -0.1004
  163MOL0     C21441   5.089  10.192   8.783 -1.0088 -0.4829 -1.0709
  163MOL0     O21442   5.219  10.166   8.743  0.6307  0.5927  0.1392
  163MOL0     C21443   5.247  10.106   8.615  0.3256 -0.5696  0.3000
  163MOL0     C21444   5.393  10.085   8.604  0.2617 -0.4212  0.2011
  163MOL0     C21445   5.447  10.078   8.456 -0.1594  0.1723  0.3981
  163MOL0     C21446   5.432  10.197   8.364 -0.0009 -0.5784  0.0925
  163MOL0     C21447   5.502  10.306   8.427  0.0265 -0.2894  0.0625
  163MOL0     C21448   5.552  10.397   8.484  0.2293 -0.5811 -0.2296
  163MOL0     C21449   5.076  10.234   8.912 -0.2909 -0.2762 -0.1335
  163MOL0     C21450   4.950  10.259   8.965 -0.1689 -0.4066  0.1547
  163MOL0     H21451   4.482  10.105   9.012 -1.0332  0.1141 -1.4411
  163MOL0     H21452   4.244  10.136   9.069 -1.5739  1.6878 -1.5957
  163MOL0     H21453   4.148  10.320   9.416  2.4073 -0.3887 -1.1664
  163MOL0     H21454   4.127  10.172   9.332  2.9304  0.4903  0.8072
  163MOL0     H21455   3.908  10.225   9.417  0.5703  0.2703  0.2670
  163MOL0     H21456   3.889  10.282   9.250 -3.1385  3.1093  0.4041
  163MOL0     H21457   3.936  10.508   9.336  0.6889 -0.4153 -0.4596
  163MOL0     H21458   3.916  10.451   9.499  0.6447 -1.6175  0.5394
  163MOL0     H21459   3.708  10.448   9.275 -0.1810 -1.1214  0.1938
  163MOL0     H21460   3.684  10.365   9.430  0.9068 -0.9807 -1.8782
  163MOL0     H21461   3.564  10.578   9.440 -0.8500 -1.1266 -0.1542
  163MOL0     H21462   3.717  10.657   9.370 -0.7929  1.1348  0.7573
  163MOL0     H21463   3.685  10.730   9.565  1.2243 -0.0411 -2.4867
  163MOL0     H21464   3.832  10.637   9.589  0.8201  0.0260  1.7183
  163MOL0     H21465   3.558  10.597   9.713  0.0720  0.3769  2.8746
  163MOL0     H21466   3.650  10.444   9.664 -2.1872 -0.1458  0.8155
  163MOL0     H21467   3.743  10.678   9.855 -1.9969 -0.1441  1.0552
  163MOL0     H21468   3.849  10.554   9.814  0.6673  0.7934  1.6245
  163MOL0     H21469   3.518  10.592  10.016 -0.6266 -0.7968 -1.4307
  163MOL0     H21470   3.526  10.502  10.286 -0.6972 -1.2527  2.1783
  163MOL0     H21471   3.543  10.322  10.280  0.0757 -1.3930 -0.7640
  163MOL0     H21472   3.349  10.374  10.096  2.3474  0.1446 -0.8892
  163MOL0     H21473   3.325  10.518  10.197  2.2458  1.0438 -0.2267
  163MOL0     H21474   3.301  10.239  10.299 -1.1941 -0.3301  3.0920
  163MOL0     H21475   3.285  10.384  10.398  0.6995  0.2387  0.1663
  163MOL0     H21476   3.084  10.279  10.318  3.7569 -1.1626  1.5778
  163MOL0     H21477   3.115  10.310  10.150  0.5939  0.4575 -0.2085
  163MOL0     H21478   2.980  10.711  10.257 -1.2495  0.2583 -0.3495
  163MOL0     H21479   2.750  10.767  10.237 -1.9717 -0.5039  1.6177
  163MOL0     H21480   2.282  10.717  10.479 -0.0021 -0.2881  0.0749
  163MOL0     H21481   2.109  10.917  10.443  0.5017  0.8067 -1.0394
  163MOL0     H21482   2.036  11.201  10.117  1.8473  2.3826 -1.8944
  163MOL0     H21483   2.193  11.247  10.164 -1.1235  3.5752 -0.3062
  163MOL0     H21484   1.935  11.288  10.330  0.3555 -0.2236  2.0326
  163MOL0     H21485   2.031  11.402  10.257 -0.4127 -0.5359  1.0206
  163MOL0     H21486   2.231  11.323  10.425  0.9217 -3.7363  1.3786
  163MOL0     H21487   2.103  11.214  10.485 -0.8005 -1.2547 -2.9374
  163MOL0     H21488   2.076  11.513  10.479 -1.6329  0.7075 -0.8026
  163MOL0     H21489   1.951  11.393  10.533  0.0910  0.4431 -0.0360
  163MOL0     H21490   2.209  11.446  10.663  0.8805  0.6342  1.0473
  163MOL0     H21491   2.105  11.305  10.695  2.2993  0.6872 -0.2273
  163MOL0     H21492   1.909  11.466  10.749 -0.3114 -0.8600  0.7777
  163MOL0     H21493   2.015  11.599  10.726 -0.6260 -0.5641 -1.1506
  163MOL0     H21494   2.032  11.394  10.957  2.9094 -0.5840  1.7271
  163MOL0     H21495   2.172  11.491  10.921  0.2245 -0.6317 -3.7678
  163MOL0     H21496   1.945  11.673  10.953 -0.5076  1.3528  4.0542
  163MOL0     H21497   2.111  11.670  11.005 -0.5947 -0.0974 -0.5962
  163MOL0     H21498   2.302  11.040  10.102  0.0832 -0.8228 -0.6765
  163MOL0     H21499   2.474  10.855  10.130  0.4996  2.3357  0.4982
  163MOL0     H21500   2.639  10.361  10.152 -0.3615  1.4523 -1.9963
  163MOL0     H21501   2.881  10.293  10.208  1.3878 -0.3365 -1.9913
  163MOL0     H21502   4.337  10.473   9.296 -1.3512 -1.3214 -0.2817
  163MOL0     H21503   4.583  10.454   9.250  1.7314  0.1410 -1.2181
  163MOL0     H21504   4.764  10.209   8.684  0.1083 -1.8844  0.2152
  163MOL0     H21505   5.001  10.154   8.590 -1.4674  0.7698 -0.3681
  163MOL0     H21506   5.210  10.173   8.537 -2.8349  0.0484  2.1669
  163MOL0     H21507   5.195  10.010   8.611 -0.4123 -0.3154  2.6219
  163MOL0     H21508   5.440  10.168   8.658 -1.0222 -0.6779  1.7819
  163MOL0     H21509   5.422   9.994   8.658  3.1084 -0.3206 -0.9556
  163MOL0     H21510   5.402   9.989   8.411  2.0032 -0.4533 -0.6686
  163MOL0     H21511   5.552  10.048   8.456 -0.1200  0.1832 -1.5896
  163MOL0     H21512   5.489  10.181   8.272  0.6305 -0.6183  0.4861
  163MOL0     H21513   5.331  10.234   8.342 -0.9073 -3.3078 -0.7147
  163MOL0     H21514   5.592  10.476   8.544  2.0518 -1.4194 -0.2592
  163MOL0     H21515   5.168  10.249   8.968  0.4233  0.4068 -1.4491
  163MOL0     H21516   4.927  10.285   9.068  0.1645 -0.7698  0.3253
  164MOL0     O21517   5.579   7.914   1.915 -0.7940  0.1154 -0.5938
  164MOL0     C21518   5.503   7.823   1.876 -0.6999 -0.8367 -0.5514
  164MOL0     O21519   5.366   7.840   1.873 -0.5342 -0.3580  0.0942
  164MOL0     C21520   5.308   7.963   1.890 -0.0559 -0.2414  0.7624
  164MOL0     C21521   5.197   7.968   1.964  0.5152  0.4913 -0.6835
  164MOL0     C21522   5.127   8.084   1.985 -0.8549 -0.7768  0.0659
  164MOL0     C21523   5.168   8.204   1.925  0.0566  0.0508  0.1701
  164MOL0     O21524   5.091   8.316   1.954  0.9281  0.3951 -0.2753
  164MOL0     C21525   5.148   8.439   1.929  0.5971 -1.0436  0.1630
  164MOL0     C21526   5.049   8.547   1.982 -0.8777  0.1984  0.3000
  164MOL0     C21527   4.940   8.590   1.877 -0.5703  0.5992  0.7605
  164MOL0     C21528   4.826   8.669   1.931  0.5886  0.8278 -0.3837
  164MOL0     C21529   4.705   8.690   1.838  0.3659  0.0071 -0.7099
  164MOL0     C21530   4.582   8.753   1.917  0.3867  0.2127  0.6029
  164MOL0     C21531   4.486   8.645   1.974  0.5801 -0.4342 -1.0265
  164MOL0     C21532   4.377   8.719   2.068  0.0807  0.1956 -0.6257
  164MOL0     N21533   4.280   8.780   1.990  0.0531  0.5065  0.1385
  164MOL0     C21534   4.168   8.857   2.026 -0.2159  0.7760  0.1591
  164MOL0     C21535   4.102   8.879   1.909  0.3272  0.4558  1.0067
  164MOL0     C21536   3.963   8.945   1.909 -0.0069 -0.0152 -1.3929
  164MOL0     C21537   3.978   9.103   1.919 -0.4400 -0.5468 -0.1173
  164MOL0     C21538   3.911   9.178   1.798 -1.2552 -0.4369  0.6012
  164MOL0     C21539   3.761   9.171   1.791 -0.0192  0.1393 -0.1966
  164MOL0     O21540   3.696   9.116   1.912  0.0522  0.8180  0.9466
  164MOL0     C21541   3.572   9.063   1.901 -0.9858  0.1025  0.7871
  164MOL0     C21542   3.491   9.086   1.793 -0.5747 -1.2092 -0.1345
  164MOL0     C21543   3.366   9.030   1.786 -0.4488  0.2144  0.0805
  164MOL0     C21544   3.318   8.941   1.890  0.0722  0.0594 -0.2667
  164MOL0     C21545   3.179   8.889   1.898  0.5482 -0.0710  1.0151
  164MOL0     O21546   3.079   8.962   1.832  0.1324 -0.2759 -0.0287
  164MOL0     C21547   2.954   8.915   1.821 -0.5439  0.0687  0.7197
  164MOL0     C21548   2.858   9.005   1.842  1.1179 -0.4798  0.9527
  164MOL0     C21549   2.723   8.974   1.828  0.0276 -0.4575 -0.5260
  164MOL0     C21550   2.684   8.836   1.827 -0.7246 -0.2604 -0.4968
  164MOL0     O21551   2.554   8.800   1.850 -0.1607  0.6500  0.1314
  164MOL0     C21552   2.468   8.893   1.924 -0.0528  0.2724  0.0037
  164MOL0     C21553   2.492   8.870   2.069  0.3725  0.3420  0.3906
  164MOL0     C21554   2.365   8.806   2.123  0.6553 -0.9329 -0.6651
  164MOL0     C21555   2.373   8.790   2.268  0.2244 -0.4747  0.5663
  164MOL0     C21556   2.242   8.737   2.327 -0.4997  0.7682 -0.5956
  164MOL0     C21557   2.268   8.668   2.463  0.4160  0.5178 -0.0873
  164MOL0     C21558   2.134   8.608   2.530  0.2741  0.4914  0.5657
  164MOL0     C21559   2.174   8.494   2.630  0.3442  0.1627 -0.0981
  164MOL0    Cl21560   2.325   8.546   2.718  0.0173  0.4117  0.1755
  164MOL0     C21561   2.782   8.739   1.811  0.2850 -0.2938  0.5550
  164MOL0     C21562   2.921   8.780   1.800 -0.1851  0.0341 -0.5768
  164MOL0     O21563   3.162   8.788   1.964  0.4588 -0.2022  0.4184
  164MOL0     C21564   3.415   8.903   1.990 -0.0571 -0.3215 -0.3659
  164MOL0     C21565   3.545   8.964   1.990 -0.0971  0.1667  0.6101
  164MOL0     N21566   4.182   8.836   1.818 -0.4662  0.2576  0.1733
  164MOL0     N21567   4.281   8.788   1.859  0.5916  0.9196 -0.0527
  164MOL0     C21568   5.276   8.192   1.837 -0.3956 -0.2869 -0.3537
  164MOL0     C21569   5.347   8.076   1.815  1.7186  0.7546  0.7461
  164MOL0     C21570   5.554   7.691   1.833 -0.3896 -0.4362  0.3211
  164MOL0     C21571   5.693   7.662   1.819 -0.2024 -0.6158 -0.6209
  164MOL0     C21572   5.740   7.545   1.773  0.0503 -0.5716  0.9532
  164MOL0     C21573   5.650   7.442   1.742  0.0373 -0.3347  0.5744
  164MOL0     O21574   5.690   7.314   1.695 -0.1793  0.0187  0.4621
  164MOL0     C21575   5.828   7.290   1.654 -0.0054 -0.2116 -0.4438
  164MOL0     C21576   5.849   7.168   1.564  0.6207  0.3374 -0.7629
  164MOL0     C21577   6.006   7.143   1.539 -0.0648 -0.1748 -0.2935
  164MOL0     C21578   6.035   7.020   1.453  0.3701 -0.2681 -1.2561
  164MOL0     C21579   6.170   7.025   1.401 -0.1826  0.6757 -0.0876
  164MOL0     C21580   6.275   7.000   1.344 -0.1537  0.1146  0.0211
  164MOL0     C21581   5.513   7.459   1.757  0.6546 -0.7715  0.6184
  164MOL0     C21582   5.463   7.586   1.792 -0.1211  0.7539 -0.2521
  164MOL0     H21583   5.162   7.884   2.024  1.0696  1.1763  0.6346
  164MOL0     H21584   5.053   8.083   2.065  0.6937 -1.2895  1.5514
  164MOL0     H21585   5.163   8.466   1.824 -1.2862 -2.2905 -0.4670
  164MOL0     H21586   5.235   8.466   1.990 -1.1933  1.4644  1.8296
  164MOL0     H21587   5.100   8.635   2.023  1.3286 -1.0873  0.4977
  164MOL0     H21588   5.000   8.507   2.071 -0.5812  0.4528  0.5828
  164MOL0     H21589   4.908   8.497   1.829  1.5730 -1.5235  3.1149
  164MOL0     H21590   4.994   8.643   1.797  0.8276 -1.6224  0.1278
  164MOL0     H21591   4.800   8.610   2.019 -1.5645  0.2171 -1.3589
  164MOL0     H21592   4.877   8.761   1.961 -0.7063  1.4509  0.0079
  164MOL0     H21593   4.670   8.603   1.782 -0.8842 -1.1859  1.7399
  164MOL0     H21594   4.733   8.757   1.756  0.6013  1.3380  0.4145
  164MOL0     H21595   4.529   8.805   1.836  0.9457  0.6432  0.5058
  164MOL0     H21596   4.617   8.820   1.997 -2.6290  0.8635  1.5378
  164MOL0     H21597   4.440   8.581   1.898 -0.3825 -3.7439  2.1192
  164MOL0     H21598   4.539   8.570   2.033 -0.2567 -1.2135 -1.2457
  164MOL0     H21599   4.433   8.797   2.120 -1.3934  0.7580  0.1532
  164MOL0     H21600   4.332   8.645   2.135 -2.6490  2.1545 -0.1420
  164MOL0     H21601   4.136   8.868   2.129  0.4819 -0.7572  0.5630
  164MOL0     H21602   3.912   8.907   1.998  1.9224 -0.4248 -0.4019
  164MOL0     H21603   3.913   8.906   1.819  0.1230 -3.7606 -0.0093
  164MOL0     H21604   4.083   9.125   1.939 -0.8354  1.4782 -0.0422
  164MOL0     H21605   3.928   9.131   2.013  0.4814  1.3714 -0.1539
  164MOL0     H21606   3.944   9.282   1.805 -2.0192 -0.2539  1.8325
  164MOL0     H21607   3.952   9.146   1.703 -0.5530 -2.0104  1.3983
  164MOL0     H21608   3.747   9.118   1.697 -3.9902 -0.3171  0.4641
  164MOL0     H21609   3.725   9.274   1.781  0.8222  0.6241  1.3230
  164MOL0     H21610   3.526   9.148   1.711  4.0492 -2.1313  0.8719
  164MOL0     H21611   3.307   9.051   1.697 -0.8615  0.6749  0.4548
  164MOL0     H21612   2.879   9.107   1.872 -1.4001 -0.3748  2.6903
  164MOL0     H21613   2.648   9.052   1.836 -0.0416 -0.6463  0.9924
  164MOL0     H21614   2.366   8.867   1.892  0.9533  1.0632 -4.4620
  164MOL0     H21615   2.479   9.000   1.909 -2.3267  0.9095  2.1743
  164MOL0     H21616   2.500   8.965   2.123  1.7865 -0.5653  1.8690
  164MOL0     H21617   2.573   8.800   2.091 -0.3339 -0.8344 -0.6719
  164MOL0     H21618   2.350   8.705   2.086  1.2336 -0.8296 -1.2002
  164MOL0     H21619   2.282   8.871   2.091  2.5403  0.8008 -2.3367
  164MOL0     H21620   2.452   8.720   2.296  1.1728  1.0921  1.9906
  164MOL0     H21621   2.409   8.878   2.323 -2.2386 -0.1865  1.8964
  164MOL0     H21622   2.195   8.665   2.259  0.5992  1.2971 -1.9517
  164MOL0     H21623   2.164   8.812   2.340 -0.6940  0.3398  0.9750
  164MOL0     H21624   2.313   8.737   2.536  2.6200 -2.6308  1.8066
  164MOL0     H21625   2.343   8.591   2.444 -0.4007 -0.2136 -0.3979
  164MOL0     H21626   2.091   8.696   2.579  3.5938  1.5864  1.8099
  164MOL0     H21627   2.077   8.569   2.446  2.1995 -2.8561  0.6399
  164MOL0     H21628   2.189   8.402   2.572 -2.6489  0.4406 -1.5248
  164MOL0     H21629   2.101   8.481   2.711 -0.1060  1.2947 -0.3029
  164MOL0     H21630   2.763   8.633   1.814  1.0482 -0.5399 -1.5357
  164MOL0     H21631   3.004   8.709   1.800  2.1643  2.5742  0.0192
  164MOL0     H21632   3.389   8.829   2.066  0.3926 -1.6790 -1.4946
  164MOL0     H21633   3.623   8.953   2.064  0.7773  1.3726 -0.1052
  164MOL0     H21634   5.302   8.282   1.782 -3.1901  0.7609 -0.1125
  164MOL0     H21635   5.434   8.067   1.752  0.6457 -0.8476 -0.6079
  164MOL0     H21636   5.773   7.733   1.841 -1.1855  0.0163  1.1243
  164MOL0     H21637   5.847   7.528   1.765 -0.1481 -1.1152 -1.7499
  164MOL0     H21638   5.891   7.282   1.744 -0.9860  3.7688  0.8227
  164MOL0     H21639   5.868   7.380   1.607  2.3346 -0.7781  0.3270
  164MOL0     H21640   5.810   7.077   1.609  1.8797  0.7309  1.2474
  164MOL0     H21641   5.805   7.192   1.467 -0.3193  4.2715  0.4594
  164MOL0     H21642   6.058   7.141   1.635  0.1847  0.5238 -0.4077
  164MOL0     H21643   6.047   7.229   1.485 -0.3098 -0.7840 -1.4941
  164MOL0     H21644   6.036   6.934   1.521  2.8387  2.3751  2.4273
  164MOL0     H21645   5.969   7.005   1.367  0.5515 -1.6772 -1.1737
  164MOL0     H21646   6.367   6.983   1.293 -0.2378 -0.0762 -0.0663
  164MOL0     H21647   5.432   7.390   1.734 -1.2856  1.8373 -0.9751
  164MOL0     H21648   5.357   7.605   1.805 -0.5016  0.4508 -2.4716
  165MOL0     O21649  11.123   7.681   6.505  0.2974 -0.3473 -0.2201
  165MOL0     C21650  11.190   7.632   6.589  0.4874  0.8457 -0.5473
  165MOL0     O21651  11.143   7.589   6.711  0.6730 -0.4742 -0.9317
  165MOL0     C21652  11.008   7.578   6.725 -1.1733 -0.0232  0.1963
  165MOL0     C21653  10.938   7.456   6.711 -0.4780  0.2530  0.6384
  165MOL0     C21654  10.800   7.455   6.731 -0.3519  0.1230  0.2063
  165MOL0     C21655  10.734   7.569   6.765  0.8620  0.1076 -0.1147
  165MOL0     O21656  10.595   7.582   6.781 -1.2165  0.3231  0.5775
  165MOL0     C21657  10.520   7.461   6.788 -0.4119  0.5182 -0.2841
  165MOL0     C21658  10.380   7.481   6.850  0.4036 -0.0987 -0.1637
  165MOL0     C21659  10.298   7.583   6.785 -0.4459 -0.3794  0.0152
  165MOL0     C21660  10.154   7.565   6.808  1.1642  0.1682 -0.0239
  165MOL0     C21661  10.074   7.646   6.707 -0.6441  0.1071  1.1525
  165MOL0     C21662   9.928   7.667   6.747  0.0152  0.8175 -0.9284
  165MOL0     C21663   9.865   7.539   6.787  0.0136  0.7247  0.9966
  165MOL0     C21664   9.718   7.545   6.773 -0.1964 -0.7588  0.6797
  165MOL0     N21665   9.657   7.424   6.809 -0.0062  0.1390  0.3653
  165MOL0     C21666   9.552   7.409   6.892 -0.6374  0.0275 -0.9085
  165MOL0     C21667   9.533   7.279   6.898 -0.3979  0.8618  0.6308
  165MOL0     C21668   9.441   7.203   6.999  0.1737 -0.4481  0.4731
  165MOL0     C21669   9.297   7.217   6.982 -0.3726 -0.1424  0.6888
  165MOL0     C21670   9.220   7.214   7.102  0.2884 -0.2682 -0.7730
  165MOL0     C21671   9.071   7.254   7.065 -0.1377 -1.3040 -0.7101
  165MOL0     O21672   9.001   7.141   7.005 -0.1612  0.2561  0.1564
  165MOL0     C21673   8.866   7.148   6.974  0.4382  0.0857  0.3776
  165MOL0     C21674   8.801   7.025   6.946 -0.1326 -0.3817  0.1256
  165MOL0     C21675   8.666   7.010   6.929 -0.8863 -0.8200 -0.7220
  165MOL0     C21676   8.583   7.121   6.956  0.3284 -0.2247 -1.8490
  165MOL0     C21677   8.437   7.118   6.944  0.0263 -0.2030 -0.1625
  165MOL0     O21678   8.379   7.247   6.950 -0.7778  0.7520  0.1834
  165MOL0     C21679   8.246   7.274   6.968 -0.3942  0.3331 -0.7660
  165MOL0     C21680   8.134   7.209   6.918 -0.2321 -0.0214 -0.2120
  165MOL0     C21681   8.008   7.263   6.929 -0.7983  0.0417  0.2261
  165MOL0     C21682   7.988   7.387   6.993  0.4738  0.0752 -0.7988
  165MOL0     O21683   7.857   7.430   7.006  0.4128  0.4854 -0.3350
  165MOL0     C21684   7.819   7.495   7.128 -0.2851 -0.5226  0.2513
  165MOL0     C21685   7.667   7.484   7.155 -0.8410 -0.5164 -0.5954
  165MOL0     C21686   7.583   7.567   7.048 -0.5180  0.4229 -0.8984
  165MOL0     C21687   7.432   7.537   7.076  0.8451 -0.1365  0.0932
  165MOL0     C21688   7.338   7.613   6.974  0.3440  0.9998 -0.3541
  165MOL0     C21689   7.188   7.613   6.999 -0.1806 -0.3241 -0.2185
  165MOL0     C21690   7.113   7.694   6.890 -0.1584 -0.6408 -0.3555
  165MOL0     C21691   6.959   7.664   6.908 -0.0484 -0.5495  0.6115
  165MOL0    Cl21692   6.937   7.488   6.851  0.5857  0.1369  0.0073
  165MOL0     C21693   8.107   7.457   7.028  0.8304 -0.4978 -0.1248
  165MOL0     C21694   8.231   7.404   7.017 -0.5212  0.8948 -0.1639
  165MOL0     O21695   8.371   7.009   6.929  0.7768 -0.3374 -0.3579
  165MOL0     C21696   8.648   7.250   6.987 -0.3562  0.1779  0.5463
  165MOL0     C21697   8.786   7.262   6.991 -0.6532 -0.3900 -0.4073
  165MOL0     N21698   9.611   7.212   6.805 -0.1795 -0.4089  0.6121
  165MOL0     N21699   9.683   7.305   6.746 -0.4085 -0.3315  0.0554
  165MOL0     C21700  10.805   7.687   6.779  0.3898  0.1436  0.1978
  165MOL0     C21701  10.942   7.691   6.752  0.6199 -0.3036 -0.2595
  165MOL0     C21702  11.338   7.620   6.583  0.4941  0.0419  0.3314
  165MOL0     C21703  11.403   7.640   6.461 -0.7240  0.7584  0.3618
  165MOL0     C21704  11.545   7.622   6.446  0.4052  0.5198 -0.9511
  165MOL0     C21705  11.622   7.583   6.551  0.0556  0.6707 -0.0303
  165MOL0     O21706  11.758   7.564   6.525 -0.5261  0.1339  0.7856
  165MOL0     C21707  11.843   7.545   6.629 -0.3538 -0.7816 -0.3450
  165MOL0     C21708  11.982   7.524   6.581  1.1661 -1.1902 -1.0035
  165MOL0     C21709  12.046   7.661   6.544 -0.5122  0.1140  0.4746
  165MOL0     C21710  12.185   7.659   6.479  0.1751  0.5844  1.4977
  165MOL0     C21711  12.214   7.558   6.373 -0.1630 -0.1351 -0.2790
  165MOL0     C21712  12.241   7.491   6.275  0.2523 -0.1610 -0.6792
  165MOL0     C21713  11.564   7.566   6.677  0.0082  1.2216  0.1526
  165MOL0     C21714  11.424   7.595   6.696 -0.0255 -0.2124  0.3510
  165MOL0     H21715  10.986   7.369   6.667 -1.1266  0.8108 -1.2636
  165MOL0     H21716  10.745   7.365   6.708 -0.9584  0.5663 -0.1113
  165MOL0     H21717  10.559   7.378   6.847  0.0702 -0.1021 -1.4430
  165MOL0     H21718  10.512   7.429   6.683  1.6498 -0.6645 -0.1196
  165MOL0     H21719  10.379   7.496   6.958 -1.1640 -0.9816 -0.0232
  165MOL0     H21720  10.326   7.386   6.853  0.2637  0.0098  1.3907
  165MOL0     H21721  10.316   7.591   6.678 -0.6217  4.7577  0.1453
  165MOL0     H21722  10.329   7.680   6.825 -0.3632 -1.0569  1.7015
  165MOL0     H21723  10.132   7.458   6.801 -1.6403  0.7236 -1.5980
  165MOL0     H21724  10.124   7.584   6.912  0.2450 -1.0506 -0.0447
  165MOL0     H21725  10.075   7.594   6.611  4.5031 -2.2825  2.1129
  165MOL0     H21726  10.123   7.740   6.678  0.0679 -1.0916 -1.9811
  165MOL0     H21727   9.867   7.712   6.668 -0.8066 -0.7548 -1.2416
  165MOL0     H21728   9.921   7.738   6.830  1.1472  0.8578 -0.8541
  165MOL0     H21729   9.899   7.462   6.717 -0.4835  2.3880 -1.2135
  165MOL0     H21730   9.889   7.499   6.886  0.5804 -2.3534 -0.2722
  165MOL0     H21731   9.688   7.553   6.669  5.6392 -3.4270 -1.6437
  165MOL0     H21732   9.689   7.634   6.830  3.6894  2.3011 -1.5258
  165MOL0     H21733   9.505   7.487   6.952 -2.5702 -1.2237 -0.7127
  165MOL0     H21734   9.463   7.220   7.105  2.3766 -2.6070  0.4445
  165MOL0     H21735   9.470   7.099   6.984  1.5372 -0.0221  0.0242
  165MOL0     H21736   9.263   7.143   6.910 -0.5263 -1.6010  2.1929
  165MOL0     H21737   9.288   7.314   6.933 -0.8203 -1.0485 -1.0985
  165MOL0     H21738   9.220   7.114   7.144 -0.1163  0.5737  1.3675
  165MOL0     H21739   9.260   7.290   7.170  3.2286 -0.6729 -1.9279
  165MOL0     H21740   9.071   7.347   7.007  2.6677 -0.4989  0.3974
  165MOL0     H21741   9.018   7.292   7.152 -2.0416 -0.8930 -1.9851
  165MOL0     H21742   8.871   6.941   6.948  1.8575  1.1983  0.9511
  165MOL0     H21743   8.626   6.911   6.907  0.5346 -1.4694 -0.5372
  165MOL0     H21744   8.152   7.114   6.868  1.0602 -1.2465  2.3397
  165MOL0     H21745   7.919   7.211   6.897 -0.6037  0.7386 -1.5490
  165MOL0     H21746   7.852   7.599   7.120 -2.7118  0.3980  1.0113
  165MOL0     H21747   7.872   7.445   7.209 -0.0269 -1.6411 -0.5861
  165MOL0     H21748   7.642   7.533   7.250 -2.8188 -0.7229 -0.9681
  165MOL0     H21749   7.644   7.377   7.158  0.7543 -0.9032  3.0236
  165MOL0     H21750   7.619   7.526   6.953 -2.5463  0.1925 -1.6324
  165MOL0     H21751   7.600   7.675   7.047  1.1523  0.2183 -3.5479
  165MOL0     H21752   7.417   7.429   7.072 -0.9836  0.0295  1.1248
  165MOL0     H21753   7.404   7.579   7.173  1.1445 -1.4903  0.7933
  165MOL0     H21754   7.352   7.575   6.872  0.0451  1.2770 -0.5019
  165MOL0     H21755   7.371   7.717   6.980 -2.8885  2.1516 -0.8107
  165MOL0     H21756   7.168   7.642   7.102 -0.5126 -1.2505 -0.0112
  165MOL0     H21757   7.150   7.510   7.006  1.4736 -1.0083 -0.7528
  165MOL0     H21758   7.128   7.801   6.910 -3.7253 -0.5083  2.7719
  165MOL0     H21759   7.149   7.686   6.787  0.3144 -0.8743 -0.1782
  165MOL0     H21760   6.893   7.736   6.858 -0.1946  0.6690  2.4643
  165MOL0     H21761   6.921   7.680   7.009 -0.1019  1.6091  0.3062
  165MOL0     H21762   8.079   7.553   7.071 -2.2056 -1.4913  0.3813
  165MOL0     H21763   8.317   7.466   7.042 -2.9752  4.1298  0.9866
  165MOL0     H21764   8.588   7.340   6.985  1.9202  1.7826 -1.0896
  165MOL0     H21765   8.830   7.362   6.993 -1.0159 -0.2427  1.1952
  165MOL0     H21766  10.739   7.773   6.787 -0.2708  0.4076 -4.6422
  165MOL0     H21767  11.003   7.780   6.757  1.3093 -0.8150  0.9922
  165MOL0     H21768  11.347   7.677   6.375 -0.5666 -1.5022 -0.7970
  165MOL0     H21769  11.608   7.638   6.359  2.4422  1.7264  0.6810
  165MOL0     H21770  11.818   7.454   6.685  1.1949 -1.0560 -0.0500
  165MOL0     H21771  11.839   7.635   6.691 -1.5360  0.5714 -2.2777
  165MOL0     H21772  12.040   7.485   6.665  1.9604  1.6382 -0.1023
  165MOL0     H21773  11.998   7.450   6.502 -2.2511  0.4526 -3.4997
  165MOL0     H21774  12.058   7.722   6.634 -0.1998 -1.7558  1.7575
  165MOL0     H21775  11.985   7.714   6.470 -0.9547 -0.2505  0.5805
  165MOL0     H21776  12.199   7.750   6.421 -0.8075  0.4874  1.0941
  165MOL0     H21777  12.265   7.654   6.555  2.4276  2.5195 -0.5699
  165MOL0     H21778  12.264   7.437   6.186 -1.7765  1.1315 -2.0634
  165MOL0     H21779  11.617   7.518   6.759  0.9187  0.5692 -0.7856
  165MOL0     H21780  11.367   7.592   6.788 -0.0213  2.7759  0.5438
  166MOL0     O21781   5.367   4.663   2.279 -0.3724 -1.0944 -0.1126
  166MOL0     C21782   5.337   4.557   2.226 -0.2515  0.1157  0.6602
  166MOL0     O21783   5.366   4.437   2.276 -0.1269 -0.0813  0.0111
  166MOL0     C21784   5.481   4.446   2.349 -1.2510 -0.6975 -0.5523
  166MOL0     C21785   5.614   4.434   2.291  0.4774  0.4851 -0.4207
  166MOL0     C21786   5.730   4.450   2.368 -0.3437  1.1904  0.5665
  166MOL0     C21787   5.720   4.491   2.500  0.0012  0.4957  0.7276
  166MOL0     O21788   5.840   4.510   2.569 -0.2995  0.6950 -0.2124
  166MOL0     C21789   5.918   4.394   2.604 -0.6872 -0.6161  0.0890
  166MOL0     C21790   6.069   4.433   2.596 -0.3003  0.4235  0.2953
  166MOL0     C21791   6.107   4.464   2.742 -0.3054 -0.3649 -0.1590
  166MOL0     C21792   6.257   4.443   2.751  0.4358 -0.1902 -0.5245
  166MOL0     C21793   6.298   4.456   2.903 -0.2024 -0.5828  0.9141
  166MOL0     C21794   6.447   4.439   2.932  0.4405 -0.2868  0.1558
  166MOL0     C21795   6.475   4.291   2.938 -0.4967 -0.8502 -0.6012
  166MOL0     C21796   6.619   4.263   2.986 -0.2786 -0.0871  0.1990
  166MOL0     N21797   6.722   4.272   2.886  0.0305 -0.3459  0.6478
  166MOL0     C21798   6.807   4.375   2.849  0.7249 -1.0810  0.2635
  166MOL0     C21799   6.852   4.332   2.728 -0.6698 -0.1892  0.8561
  166MOL0     C21800   6.956   4.395   2.634  0.5074  0.6232  0.1270
  166MOL0     C21801   6.903   4.441   2.499 -0.1248  0.2563  0.2297
  166MOL0     C21802   6.826   4.572   2.501  0.6464  1.2930  0.3658
  166MOL0     C21803   6.688   4.577   2.560  0.2557  0.1215  0.3474
  166MOL0     O21804   6.599   4.487   2.490  0.2245  0.1460  0.3227
  166MOL0     C21805   6.499   4.535   2.416  0.0498  0.5019  0.1490
  166MOL0     C21806   6.381   4.464   2.421  0.4470  0.0940 -0.3334
  166MOL0     C21807   6.282   4.475   2.328  1.2230 -0.3862 -0.7067
  166MOL0     C21808   6.294   4.576   2.231  0.4154 -0.0942 -0.3707
  166MOL0     C21809   6.186   4.596   2.128  0.1464  0.1013  0.0447
  166MOL0     O21810   6.081   4.512   2.122 -0.4280 -0.3094 -0.1292
  166MOL0     C21811   5.965   4.553   2.052 -0.7909  0.0931 -0.1963
  166MOL0     C21812   5.866   4.626   2.118 -0.2870 -0.0752  0.0057
  166MOL0     C21813   5.746   4.660   2.057 -0.6381  0.1367 -0.5072
  166MOL0     C21814   5.722   4.618   1.930  0.3232 -0.1679  0.5924
  166MOL0     O21815   5.613   4.646   1.858 -0.0462 -0.0292  0.6056
  166MOL0     C21816   5.536   4.761   1.904 -0.3858  0.4363  0.0855
  166MOL0     C21817   5.424   4.793   1.809 -0.3216 -0.1015  0.2725
  166MOL0     C21818   5.473   4.828   1.670 -0.5573 -1.0898 -0.2526
  166MOL0     C21819   5.366   4.883   1.581  0.0055 -1.3592 -0.1496
  166MOL0     C21820   5.249   4.782   1.569 -0.6263  0.0849 -0.3873
  166MOL0     C21821   5.140   4.844   1.479 -0.0171 -0.3909  0.2135
  166MOL0     C21822   5.012   4.756   1.454  0.6254 -0.2383  0.3851
  166MOL0     C21823   4.896   4.840   1.395  0.5819  0.2932 -0.4466
  166MOL0    Cl21824   4.781   4.732   1.311 -0.3019 -0.1616  0.2308
  166MOL0     C21825   5.820   4.542   1.864  0.8126 -0.2406  0.4012
  166MOL0     C21826   5.944   4.516   1.923  0.4458  0.5169  0.0274
  166MOL0     O21827   6.193   4.696   2.053 -0.3078 -0.1498  0.2044
  166MOL0     C21828   6.408   4.655   2.223  0.3618 -0.5405 -0.0539
  166MOL0     C21829   6.507   4.634   2.318 -0.2624  0.6576 -0.4465
  166MOL0     N21830   6.823   4.190   2.710  0.2339 -1.1733 -0.2297
  166MOL0     N21831   6.739   4.167   2.797  0.1502  0.1568 -0.1843
  166MOL0     C21832   5.593   4.519   2.552 -0.4652  0.1085  0.9239
  166MOL0     C21833   5.476   4.486   2.483 -0.1942  0.6706 -0.9462
  166MOL0     C21834   5.230   4.565   2.120 -0.7629  0.3121 -0.7722
  166MOL0     C21835   5.204   4.682   2.052 -0.1032  1.4026 -0.6650
  166MOL0     C21836   5.112   4.670   1.951 -0.0859 -0.5249  1.4745
  166MOL0     C21837   5.076   4.555   1.884  0.4677  0.9296  0.0641
  166MOL0     O21838   4.994   4.580   1.771 -0.6904 -0.2773  0.6273
  166MOL0     C21839   4.925   4.482   1.697 -0.8412 -0.1089 -0.8800
  166MOL0     C21840   4.780   4.472   1.738 -0.3077  0.0695 -0.5754
  166MOL0     C21841   4.720   4.606   1.675  0.0208  0.7787  0.5066
  166MOL0     C21842   4.575   4.633   1.728 -0.0889  0.1638 -0.5432
  166MOL0     C21843   4.530   4.755   1.658 -0.0403 -0.9064 -0.2649
  166MOL0     C21844   4.500   4.851   1.585 -0.1867  0.2731 -0.5944
  166MOL0     C21845   5.111   4.434   1.944 -0.1571 -0.4340  0.1645
  166MOL0     C21846   5.183   4.443   2.067  0.6340 -0.7433  0.6467
  166MOL0     H21847   5.603   4.405   2.187 -0.7667 -0.3689 -0.0775
  166MOL0     H21848   5.819   4.416   2.316 -2.9108 -1.8291 -2.3845
  166MOL0     H21849   5.905   4.304   2.544 -2.0661 -1.7615  1.9878
  166MOL0     H21850   5.888   4.360   2.703  1.4342 -0.9659  0.6531
  166MOL0     H21851   6.091   4.513   2.525  1.7919  0.5967  1.0462
  166MOL0     H21852   6.118   4.340   2.565 -1.4099  0.2698 -1.0965
  166MOL0     H21853   6.058   4.407   2.822  2.0135  0.0601  1.6648
  166MOL0     H21854   6.080   4.568   2.762 -0.8260 -0.7794  1.4974
  166MOL0     H21855   6.290   4.344   2.717  3.4436  0.9879 -1.4207
  166MOL0     H21856   6.314   4.507   2.682  2.3224 -0.2334  0.8889
  166MOL0     H21857   6.233   4.392   2.963 -0.4687  1.4716  2.9329
  166MOL0     H21858   6.289   4.563   2.927  1.5172 -0.6222  1.8639
  166MOL0     H21859   6.476   4.488   3.026 -0.6843 -1.2624  1.0537
  166MOL0     H21860   6.499   4.478   2.844 -0.4850  0.0365 -0.2589
  166MOL0     H21861   6.418   4.247   3.021 -0.1217  0.9204  0.6704
  166MOL0     H21862   6.461   4.240   2.843  1.3175  0.5671 -1.6809
  166MOL0     H21863   6.627   4.163   3.028 -0.1958 -0.0184  0.3491
  166MOL0     H21864   6.648   4.332   3.066  1.0483 -1.3895  0.8666
  166MOL0     H21865   6.822   4.476   2.886 -0.2329  0.0428 -2.1757
  166MOL0     H21866   7.042   4.331   2.611  2.4334  3.1223 -0.1955
  166MOL0     H21867   7.014   4.472   2.686  0.0010  1.4890 -0.5550
  166MOL0     H21868   6.831   4.364   2.468  1.3357 -1.1945  0.3012
  166MOL0     H21869   6.991   4.434   2.433 -0.2742 -0.3521  0.0861
  166MOL0     H21870   6.887   4.649   2.549  1.5044  0.7926  0.0968
  166MOL0     H21871   6.810   4.607   2.398  0.3205  1.5102  0.4880
  166MOL0     H21872   6.664   4.684   2.551 -0.6702 -0.0576  0.5915
  166MOL0     H21873   6.688   4.549   2.666 -1.3492  2.9265  1.1962
  166MOL0     H21874   6.370   4.390   2.500  4.1775  0.3734  0.6537
  166MOL0     H21875   6.195   4.410   2.333  1.2391 -0.4075 -0.7018
  166MOL0     H21876   5.880   4.658   2.220 -1.9743 -2.4249  1.0712
  166MOL0     H21877   5.677   4.711   2.123 -2.0917 -1.9274 -0.3456
  166MOL0     H21878   5.602   4.847   1.912  3.1236 -2.0836  0.5195
  166MOL0     H21879   5.501   4.753   2.008  1.4523  1.5235  0.8284
  166MOL0     H21880   5.361   4.870   1.854 -1.1501 -0.0046 -1.0146
  166MOL0     H21881   5.359   4.707   1.792 -1.3830  0.9704 -1.3799
  166MOL0     H21882   5.517   4.741   1.620 -1.5384 -0.2353 -2.7782
  166MOL0     H21883   5.549   4.905   1.686 -1.5587  0.2803 -1.7857
  166MOL0     H21884   5.331   4.980   1.617 -1.0950 -1.0203 -2.0442
  166MOL0     H21885   5.387   4.912   1.478 -1.6939  0.0111 -0.1546
  166MOL0     H21886   5.209   4.767   1.670  3.6666 -0.5309  1.4527
  166MOL0     H21887   5.283   4.686   1.531 -0.6006 -0.6145  1.2900
  166MOL0     H21888   5.189   4.879   1.388  0.3432  1.9596  1.2081
  166MOL0     H21889   5.107   4.934   1.533  0.0801 -1.1094  1.5154
  166MOL0     H21890   5.031   4.683   1.375 -1.3510  1.2615 -1.6249
  166MOL0     H21891   4.981   4.711   1.549  0.4442 -2.2114 -0.5535
  166MOL0     H21892   4.944   4.908   1.325  3.3017 -0.5283  0.5212
  166MOL0     H21893   4.852   4.882   1.485  0.0173 -1.9608  0.4103
  166MOL0     H21894   5.809   4.515   1.759 -1.4707  2.8632 -0.3190
  166MOL0     H21895   6.030   4.464   1.882  0.7396  1.8373 -1.1132
  166MOL0     H21896   6.419   4.739   2.155  1.7793 -0.6688 -0.0264
  166MOL0     H21897   6.594   4.697   2.308 -1.6175  2.4676 -1.6458
  166MOL0     H21898   5.602   4.566   2.649  0.2201  2.2034 -0.0912
  166MOL0     H21899   5.373   4.501   2.511 -0.1591 -0.0426 -0.3804
  166MOL0     H21900   5.247   4.776   2.085  0.0916  1.3871 -0.8749
  166MOL0     H21901   5.084   4.762   1.902 -0.1205 -1.5079 -0.4276
  166MOL0     H21902   4.978   4.388   1.712 -1.5475 -0.2648  0.9471
  166MOL0     H21903   4.933   4.507   1.591  0.3506  3.0158 -0.2023
  166MOL0     H21904   4.735   4.381   1.697 -0.0798 -1.5480  2.4891
  166MOL0     H21905   4.780   4.458   1.847 -0.4512 -2.0796 -0.8054
  166MOL0     H21906   4.718   4.606   1.566 -2.0211  1.4334  0.4958
  166MOL0     H21907   4.776   4.696   1.698 -0.3919  0.8344  1.3515
  166MOL0     H21908   4.517   4.543   1.707 -0.8541  0.0372  1.8068
  166MOL0     H21909   4.575   4.654   1.835  3.1195  1.5468 -0.6937
  166MOL0     H21910   4.463   4.924   1.516 -0.5236 -0.6807 -1.4552
  166MOL0     H21911   5.082   4.347   1.886  0.1776 -0.8859  0.6667
  166MOL0     H21912   5.217   4.345   2.098 -0.0532 -2.3343 -3.0651
  167MOL0     O21913   9.855   0.401   7.905  0.6623  0.0935 -0.1289
  167MOL0     C21914   9.930   0.464   7.834  0.2301  0.2876  1.0496
  167MOL0     O21915   9.907   0.587   7.788 -0.3692 -0.2639 -0.4817
  167MOL0     C21916   9.785   0.645   7.818 -0.9300  0.6197  0.4015
  167MOL0     C21917   9.793   0.769   7.870  0.2867  0.3046 -0.3028
  167MOL0     C21918   9.676   0.837   7.894 -0.0304  0.5097 -0.5366
  167MOL0     C21919   9.555   0.770   7.900 -0.3458 -0.1639 -0.5706
  167MOL0     O21920   9.440   0.843   7.952 -0.5273  0.2286 -0.8677
  167MOL0     C21921   9.361   0.775   8.047  0.6659 -0.0883 -0.7342
  167MOL0     C21922   9.250   0.866   8.112 -0.2873  0.1888  0.0945
  167MOL0     C21923   9.135   0.912   8.013  0.7456 -0.0786  0.1922
  167MOL0     C21924   9.041   0.792   7.982  0.0853 -0.5868  1.5639
  167MOL0     C21925   8.910   0.840   7.914  0.5137 -0.3070 -0.3592
  167MOL0     C21926   8.910   0.949   7.815  0.2035 -0.0536  1.2085
  167MOL0     C21927   9.004   0.928   7.696 -0.7797 -0.3623 -0.1480
  167MOL0     C21928   8.986   0.804   7.604 -0.1962 -0.0462 -0.9204
  167MOL0     N21929   8.843   0.800   7.561 -0.5200  0.7622 -0.7635
  167MOL0     C21930   8.779   0.896   7.487  0.0635  0.8620 -0.0534
  167MOL0     C21931   8.648   0.863   7.480  0.3699 -0.6930  0.9063
  167MOL0     C21932   8.535   0.938   7.433 -0.2514 -0.5945 -0.3399
  167MOL0     C21933   8.442   0.981   7.539 -0.6845 -0.0418 -1.8433
  167MOL0     C21934   8.500   1.090   7.629 -0.0808 -0.2209 -0.2494
  167MOL0     C21935   8.392   1.146   7.708  0.9656  0.2975 -0.5899
  167MOL0     O21936   8.304   1.211   7.623  0.1015 -0.2717  0.6728
  167MOL0     C21937   8.180   1.203   7.666 -0.1844 -0.1670 -0.1104
  167MOL0     C21938   8.147   1.261   7.789  0.5293 -0.8434 -0.0123
  167MOL0     C21939   8.017   1.257   7.835 -0.9926  0.6617 -0.1976
  167MOL0     C21940   7.912   1.184   7.760  0.5418  0.4499 -0.5630
  167MOL0     C21941   7.772   1.153   7.807  0.2927 -1.0618  0.0398
  167MOL0     O21942   7.738   1.223   7.916 -0.0763  0.1482  0.4780
  167MOL0     C21943   7.602   1.234   7.942 -0.3141 -0.6858  0.0622
  167MOL0     C21944   7.496   1.232   7.851  0.3399  0.7780  0.0302
  167MOL0     C21945   7.365   1.258   7.890 -0.0498 -0.5582  0.6109
  167MOL0     C21946   7.338   1.287   8.021  0.4599  0.1765  0.3225
  167MOL0     O21947   7.206   1.303   8.048 -0.8611  0.1070  1.1929
  167MOL0     C21948   7.163   1.391   8.152 -0.1863 -0.5917 -0.4782
  167MOL0     C21949   7.018   1.381   8.155  0.9127 -0.2891  0.0072
  167MOL0     C21950   6.944   1.472   8.046 -0.1480 -0.0429  0.3648
  167MOL0     C21951   6.814   1.402   8.012  0.8719 -0.1470  0.0051
  167MOL0     C21952   6.720   1.478   7.921  0.0497  0.1691 -0.0419
  167MOL0     C21953   6.574   1.442   7.925  0.3828 -0.5442 -0.0427
  167MOL0     C21954   6.485   1.537   7.842 -0.4801 -0.4209  0.2134
  167MOL0     C21955   6.341   1.495   7.822 -0.6651 -0.3006 -0.2892
  167MOL0    Cl21956   6.245   1.605   7.722  0.2136 -0.0810 -0.2408
  167MOL0     C21957   7.444   1.307   8.106 -0.5453 -1.3146 -1.0091
  167MOL0     C21958   7.575   1.280   8.070 -0.0109 -0.4578  0.9041
  167MOL0     O21959   7.705   1.070   7.748  0.2219  0.6040 -0.2804
  167MOL0     C21960   7.953   1.131   7.640 -0.1016  0.4075  0.9112
  167MOL0     C21961   8.082   1.146   7.588  0.0456 -0.1382 -0.6340
  167MOL0     N21962   8.631   0.744   7.543 -0.1232  0.0913 -0.7590
  167MOL0     N21963   8.750   0.705   7.593 -0.2084  0.3838  0.5485
  167MOL0     C21964   9.548   0.645   7.851 -0.1290 -0.9100  0.3031
  167MOL0     C21965   9.666   0.589   7.792 -0.6116  0.1621 -0.1787
  167MOL0     C21966  10.054   0.398   7.795  0.1701  0.6378 -0.9643
  167MOL0     C21967  10.116   0.299   7.887  1.1747 -0.1171 -0.2566
  167MOL0     C21968  10.231   0.238   7.851 -0.2809 -0.0936  0.4115
  167MOL0     C21969  10.299   0.271   7.733 -0.2769 -0.2478 -1.3103
  167MOL0     O21970  10.417   0.204   7.715 -0.0800 -0.4529  0.1018
  167MOL0     C21971  10.503   0.237   7.606 -0.8941 -0.1275  0.4767
  167MOL0     C21972  10.586   0.360   7.627  0.7111 -0.0034 -0.0691
  167MOL0     C21973  10.664   0.382   7.496 -0.3241 -0.2518  0.1544
  167MOL0     C21974  10.717   0.525   7.474 -0.9436 -0.7077 -0.4891
  167MOL0     C21975  10.839   0.540   7.392 -0.7413 -0.5569 -0.4154
  167MOL0     C21976  10.949   0.547   7.342  0.0188  0.7317 -0.0723
  167MOL0     C21977  10.233   0.356   7.639 -0.2365  0.7586  0.4000
  167MOL0     C21978  10.120   0.426   7.675 -0.2627  0.3418  0.5215
  167MOL0     H21979   9.886   0.819   7.891  1.4397 -2.2982  1.2213
  167MOL0     H21980   9.693   0.936   7.936  2.6717 -0.3907  0.7571
  167MOL0     H21981   9.428   0.738   8.125 -0.4685 -0.3346  0.1501
  167MOL0     H21982   9.304   0.688   8.013 -2.0485  0.1101  2.7014
  167MOL0     H21983   9.291   0.952   8.167 -4.1183  0.2988  3.1846
  167MOL0     H21984   9.207   0.813   8.197  1.3270 -1.3616 -0.0078
  167MOL0     H21985   9.173   0.962   7.924  2.8348  1.2571  1.7475
  167MOL0     H21986   9.081   0.986   8.072  1.5348 -0.3384  1.2672
  167MOL0     H21987   9.099   0.735   7.909  0.0224  1.1823  0.0540
  167MOL0     H21988   9.019   0.729   8.069  0.2860 -1.5089  0.9576
  167MOL0     H21989   8.851   0.882   7.997  1.3280  1.3594 -0.5881
  167MOL0     H21990   8.859   0.752   7.874 -1.5766  1.6581 -2.2784
  167MOL0     H21991   8.946   1.042   7.859  1.4774  0.1629 -0.1854
  167MOL0     H21992   8.805   0.953   7.784  0.0861  0.5525  1.6698
  167MOL0     H21993   9.000   1.020   7.637  1.0327 -0.3809 -0.3732
  167MOL0     H21994   9.105   0.906   7.732 -1.1454 -1.3424  0.3166
  167MOL0     H21995   9.001   0.709   7.656 -2.8955  0.6768  1.4414
  167MOL0     H21996   9.045   0.803   7.512 -1.3575 -1.4990 -1.6993
  167MOL0     H21997   8.819   0.983   7.436 -1.1534 -0.2550 -3.1767
  167MOL0     H21998   8.479   0.881   7.359  0.9892  1.1201 -2.7338
  167MOL0     H21999   8.570   1.027   7.380  1.8691 -1.3890 -0.3756
  167MOL0     H22000   8.399   0.893   7.588 -2.7003  1.7455 -0.1855
  167MOL0     H22001   8.352   1.024   7.495 -1.7730  1.9061  1.7959
  167MOL0     H22002   8.579   1.047   7.691 -0.4906  2.3713  2.2684
  167MOL0     H22003   8.541   1.176   7.576 -0.6415  2.0022  2.6736
  167MOL0     H22004   8.427   1.222   7.779  0.0279 -0.4143  0.6772
  167MOL0     H22005   8.342   1.070   7.768 -1.5652  2.7585  0.6779
  167MOL0     H22006   8.223   1.309   7.850  0.2785  0.9224 -1.0381
  167MOL0     H22007   7.993   1.292   7.935 -2.7677 -1.3742  0.1865
  167MOL0     H22008   7.519   1.212   7.747  1.3731  2.4515 -0.1011
  167MOL0     H22009   7.283   1.249   7.820 -1.3147 -0.4184  2.0012
  167MOL0     H22010   7.202   1.493   8.141  2.0603 -1.3746 -0.3600
  167MOL0     H22011   7.192   1.357   8.252 -2.7306 -1.5715 -0.0007
  167MOL0     H22012   6.974   1.413   8.250 -0.9573  0.4431 -1.0492
  167MOL0     H22013   6.989   1.276   8.142  2.3190 -0.7772  0.6043
  167MOL0     H22014   7.010   1.473   7.959  0.0811 -0.1080  0.5376
  167MOL0     H22015   6.923   1.574   8.078  0.3768  0.3254 -0.4386
  167MOL0     H22016   6.820   1.298   7.979 -1.8627 -0.4235  0.1656
  167MOL0     H22017   6.762   1.401   8.108  1.3009  1.9935  0.2998
  167MOL0     H22018   6.760   1.478   7.819  0.2761  1.0923  0.0388
  167MOL0     H22019   6.733   1.582   7.954  1.8422 -0.4644  1.4780
  167MOL0     H22020   6.539   1.442   8.029 -2.1919  2.4273 -0.7591
  167MOL0     H22021   6.562   1.343   7.880  2.3394 -0.9139  0.1509
  167MOL0     H22022   6.489   1.623   7.909 -2.5494 -0.2426  0.1847
  167MOL0     H22023   6.526   1.562   7.744 -2.4509 -0.4069 -0.6615
  167MOL0     H22024   6.296   1.482   7.920  0.3388  1.1584  0.4096
  167MOL0     H22025   6.348   1.402   7.764 -0.3659 -0.9512  0.7541
  167MOL0     H22026   7.418   1.345   8.204 -0.4386  0.0961 -1.5140
  167MOL0     H22027   7.649   1.293   8.147  1.3433  0.6954 -0.5304
  167MOL0     H22028   7.888   1.073   7.575  0.3537  1.5158 -0.5586
  167MOL0     H22029   8.089   1.107   7.487 -1.1436  2.3638 -1.7521
  167MOL0     H22030   9.458   0.589   7.829 -0.2306 -0.9590  0.8223
  167MOL0     H22031   9.667   0.493   7.742 -2.1894  0.3762 -0.6635
  167MOL0     H22032  10.068   0.276   7.982  1.7027 -1.4938 -0.2988
  167MOL0     H22033  10.277   0.177   7.927 -0.9349 -0.3702  0.5970
  167MOL0     H22034  10.428   0.241   7.526  0.3709  0.4961 -0.7201
  167MOL0     H22035  10.571   0.153   7.594 -1.7591 -0.7696 -0.0945
  167MOL0     H22036  10.530   0.453   7.644  0.4831  0.3118 -2.2408
  167MOL0     H22037  10.666   0.336   7.698  1.7976  3.2443 -0.0313
  167MOL0     H22038  10.605   0.351   7.409  0.0114 -2.7789  0.7418
  167MOL0     H22039  10.751   0.316   7.510 -0.2485  0.2874  2.6344
  167MOL0     H22040  10.640   0.584   7.424 -0.1233  0.7719 -0.0602
  167MOL0     H22041  10.755   0.571   7.565  1.4948 -0.8509 -1.3600
  167MOL0     H22042  11.043   0.563   7.292  0.4936 -1.4948 -0.0440
  167MOL0     H22043  10.285   0.377   7.546  1.8963 -0.7955  1.1817
  167MOL0     H22044  10.074   0.503   7.614  0.6950  2.9525  2.8630
  168MOL0     O22045   7.927   0.857   2.417  0.0171 -0.7188  0.3158
  168MOL0     C22046   7.983   0.925   2.503 -0.2944 -0.3707  1.3053
  168MOL0     O22047   8.116   0.945   2.510 -0.4323  0.3444 -0.4989
  168MOL0     C22048   8.190   0.841   2.465 -0.2953  0.0041  0.2996
  168MOL0     C22049   8.192   0.719   2.530 -0.3820 -0.1642 -0.0039
  168MOL0     C22050   8.263   0.607   2.479 -0.0248 -1.3195  0.2902
  168MOL0     C22051   8.337   0.617   2.362 -0.3536 -0.6669 -0.3217
  168MOL0     O22052   8.390   0.512   2.292 -0.1318 -0.0405  0.2857
  168MOL0     C22053   8.439   0.405   2.372 -0.2219  0.5578  0.1992
  168MOL0     C22054   8.491   0.285   2.292  1.1950 -0.3505 -0.1589
  168MOL0     C22055   8.573   0.203   2.384  0.6679 -0.5510  0.7343
  168MOL0     C22056   8.647   0.097   2.312  0.1831  0.2208 -0.3003
  168MOL0     C22057   8.763   0.167   2.235  0.2246  0.6771  0.3740
  168MOL0     C22058   8.850   0.082   2.142  0.9498 -0.1146 -0.4712
  168MOL0     C22059   8.984   0.152   2.107 -0.2072 -0.5052  0.1391
  168MOL0     C22060   9.063   0.055   2.021  1.0021  0.2483 -0.9697
  168MOL0     N22061   9.204   0.096   1.995  0.7558 -0.5492  0.6974
  168MOL0     C22062   9.288   0.021   1.915 -0.1946 -0.4243 -0.2365
  168MOL0     C22063   9.415   0.078   1.939  0.3025  0.2060  1.0567
  168MOL0     C22064   9.553   0.059   1.880 -0.7806 -1.2564 -0.0837
  168MOL0     C22065   9.546   0.050   1.726  0.0689  0.2536 -0.0892
  168MOL0     C22066   9.455   0.156   1.660 -0.3653 -0.1617  0.6079
  168MOL0     C22067   9.507   0.297   1.676  0.1791  1.1678  0.2953
  168MOL0     O22068   9.417   0.394   1.612  0.9072 -0.5269  0.2586
  168MOL0     C22069   9.324   0.462   1.682  0.2110 -0.1693  0.9734
  168MOL0     C22070   9.269   0.440   1.804 -0.2963  0.5688 -0.4466
  168MOL0     C22071   9.171   0.537   1.850  0.2116  0.4839  0.3015
  168MOL0     C22072   9.103   0.617   1.761  0.7088  0.3424 -0.3198
  168MOL0     C22073   8.978   0.693   1.798  0.5610 -2.1264  0.5847
  168MOL0     O22074   8.921   0.670   1.927  0.3061  0.2997  0.3005
  168MOL0     C22075   8.801   0.737   1.954 -0.2606  0.4508  0.7432
  168MOL0     C22076   8.791   0.877   1.958  0.2130 -0.1149 -0.9000
  168MOL0     C22077   8.669   0.937   1.980  0.4289 -0.1775  0.0939
  168MOL0     C22078   8.553   0.861   2.000 -0.2082  0.3621  0.0765
  168MOL0     O22079   8.427   0.921   2.023  0.2652  0.6244  0.7997
  168MOL0     C22080   8.395   1.048   1.972 -0.6947  0.6013  0.4215
  168MOL0     C22081   8.252   1.059   1.986  0.7387  0.1034 -0.0215
  168MOL0     C22082   8.171   0.951   1.912  0.6811  1.1535  0.1407
  168MOL0     C22083   8.031   0.999   1.917  0.6745 -0.5160 -0.5813
  168MOL0     C22084   7.933   0.903   1.851 -0.4331 -0.2774  0.4418
  168MOL0     C22085   7.794   0.969   1.846  0.8751  0.3232 -0.0064
  168MOL0     C22086   7.738   0.987   1.988 -0.0929 -0.4832 -0.7131
  168MOL0     C22087   7.598   1.036   1.973 -0.1056  0.4509 -0.0524
  168MOL0    Cl22088   7.575   1.184   1.887 -0.1261 -0.0978 -0.2128
  168MOL0     C22089   8.557   0.720   2.000 -0.5613 -0.5580  0.2125
  168MOL0     C22090   8.688   0.665   1.987  0.2509  0.7141 -0.4685
  168MOL0     O22091   8.928   0.765   1.711 -0.3331 -0.5729 -0.2562
  168MOL0     C22092   9.168   0.639   1.644 -0.1983  0.4765 -0.0107
  168MOL0     C22093   9.266   0.561   1.598 -0.1556 -0.2888  0.0116
  168MOL0     N22094   9.408   0.175   2.033 -0.4019 -0.5373 -0.0899
  168MOL0     N22095   9.278   0.181   2.066  0.3437 -0.5772 -0.6791
  168MOL0     C22096   8.337   0.742   2.299  0.3958 -0.1578  0.5479
  168MOL0     C22097   8.268   0.853   2.349  0.0902  0.8570 -0.0151
  168MOL0     C22098   7.895   1.020   2.576 -0.1712  0.1298 -0.2655
  168MOL0     C22099   7.952   1.093   2.682 -1.6020  0.3118  1.5001
  168MOL0     C22100   7.883   1.186   2.760  1.0072 -0.2885 -0.6152
  168MOL0     C22101   7.746   1.192   2.737 -1.0555 -0.0981 -0.2628
  168MOL0     O22102   7.669   1.274   2.821  0.1801  0.4103 -0.0112
  168MOL0     C22103   7.660   1.212   2.955 -0.0733 -0.6583  0.9277
  168MOL0     C22104   7.523   1.245   3.016  0.2995 -0.2804  0.4838
  168MOL0     C22105   7.404   1.152   2.975  0.1525  1.6238  0.9522
  168MOL0     C22106   7.308   1.146   3.099  0.5463  0.5501 -0.1128
  168MOL0     C22107   7.187   1.063   3.062  1.0664  0.2717 -0.9195
  168MOL0     C22108   7.103   0.977   3.040  0.4098  0.4038  0.0905
  168MOL0     C22109   7.677   1.122   2.635 -0.8439  0.6124 -0.5431
  168MOL0     C22110   7.758   1.039   2.554  0.5107  0.2647  1.1918
  168MOL0     H22111   8.134   0.702   2.620 -2.1098 -0.7790 -1.1699
  168MOL0     H22112   8.258   0.519   2.542  0.3998 -0.8923  0.9349
  168MOL0     H22113   8.359   0.370   2.437 -0.7510  1.1968 -0.0971
  168MOL0     H22114   8.526   0.443   2.426  1.9087  0.0816 -2.6627
  168MOL0     H22115   8.548   0.327   2.209  0.5231  0.5951 -0.1593
  168MOL0     H22116   8.414   0.234   2.233  1.0881 -2.4879  1.6754
  168MOL0     H22117   8.503   0.156   2.453  0.2680 -1.3655 -0.1973
  168MOL0     H22118   8.645   0.264   2.440  0.0624  2.1609 -1.2326
  168MOL0     H22119   8.678   0.022   2.385 -0.1500  1.3766  1.0850
  168MOL0     H22120   8.575   0.043   2.250  0.3350 -0.8486  0.4227
  168MOL0     H22121   8.819   0.225   2.309  0.8897 -0.0587  0.4611
  168MOL0     H22122   8.717   0.242   2.171  1.2805  1.4983  0.5454
  168MOL0     H22123   8.795   0.052   2.053  0.1692  3.1570 -1.2462
  168MOL0     H22124   8.884  -0.010   2.190  1.9098  0.3173 -0.2791
  168MOL0     H22125   8.962   0.246   2.055 -1.9852  0.4442  2.4334
  168MOL0     H22126   9.043   0.182   2.195 -0.2906 -0.2712  0.1153
  168MOL0     H22127   9.010   0.042   1.926 -2.9672  0.7908  0.9889
  168MOL0     H22128   9.077  -0.039   2.074  0.4939  0.9867  0.5270
  168MOL0     H22129   9.256  -0.055   1.844 -0.2676  0.0945 -0.7668
  168MOL0     H22130   9.598  -0.030   1.925 -1.3192  0.6616  4.8640
  168MOL0     H22131   9.619   0.139   1.914  1.7474 -3.6565  1.0647
  168MOL0     H22132   9.494  -0.044   1.704 -1.2485  1.0485 -0.4862
  168MOL0     H22133   9.646   0.047   1.680 -1.1114 -4.0421 -2.9890
  168MOL0     H22134   9.445   0.143   1.552  1.3109 -0.8876  0.5015
  168MOL0     H22135   9.358   0.142   1.708  1.1492 -0.2970  3.9372
  168MOL0     H22136   9.611   0.309   1.642 -0.1433  3.8148  0.0555
  168MOL0     H22137   9.516   0.309   1.784 -1.8678  0.5314  0.5737
  168MOL0     H22138   9.305   0.367   1.877 -3.2678  0.4795  1.0812
  168MOL0     H22139   9.150   0.533   1.957 -2.5613 -0.7548 -0.2212
  168MOL0     H22140   8.878   0.939   1.939  0.6355 -0.4561 -0.1217
  168MOL0     H22141   8.671   1.044   1.963 -0.5104  0.2182  2.1632
  168MOL0     H22142   8.438   1.073   1.875 -0.2533  1.5135  0.8384
  168MOL0     H22143   8.451   1.118   2.036  2.5213  1.0664 -2.6244
  168MOL0     H22144   8.235   1.162   1.951  1.8708  0.4882  0.5401
  168MOL0     H22145   8.213   1.060   2.088 -2.0537 -1.9464 -0.9293
  168MOL0     H22146   8.187   0.855   1.960 -1.1307 -0.1280 -1.6714
  168MOL0     H22147   8.200   0.938   1.807  1.9092 -2.5404  0.7846
  168MOL0     H22148   8.004   1.026   2.020  1.3032  0.1473 -0.5762
  168MOL0     H22149   8.019   1.093   1.862  0.2075 -1.1070 -1.5053
  168MOL0     H22150   7.948   0.815   1.915 -0.8511  0.5492  1.6917
  168MOL0     H22151   7.968   0.872   1.751 -2.2852  0.1076 -0.3630
  168MOL0     H22152   7.729   0.908   1.784  0.5640 -0.8422  1.4238
  168MOL0     H22153   7.799   1.066   1.794  3.5417 -0.4338 -1.3730
  168MOL0     H22154   7.744   0.887   2.032  0.8079 -0.3182 -0.4356
  168MOL0     H22155   7.798   1.058   2.045 -1.5487  1.3223 -1.3242
  168MOL0     H22156   7.553   1.054   2.071 -0.1049 -0.5181  0.1358
  168MOL0     H22157   7.547   0.966   1.906  0.7132  0.2598 -0.4872
  168MOL0     H22158   8.470   0.661   2.028 -0.5748 -0.6388  0.0048
  168MOL0     H22159   8.693   0.557   1.997  1.1950  0.7807 -0.1464
  168MOL0     H22160   9.120   0.709   1.577  1.7683  1.7541 -0.1952
  168MOL0     H22161   9.307   0.578   1.499  0.1636  0.4122  0.2507
  168MOL0     H22162   8.415   0.766   2.228 -0.9909 -1.8709 -1.7213
  168MOL0     H22163   8.285   0.942   2.289 -1.2291  2.8640  2.3708
  168MOL0     H22164   8.054   1.073   2.715 -2.1507 -2.5814  1.7528
  168MOL0     H22165   7.931   1.236   2.844 -2.2547 -0.5008  1.5731
  168MOL0     H22166   7.735   1.259   3.019  3.1891 -1.6203 -1.9383
  168MOL0     H22167   7.684   1.106   2.949 -1.9966 -1.0320 -2.2559
  168MOL0     H22168   7.542   1.238   3.124  0.6816 -0.7740  0.3830
  168MOL0     H22169   7.491   1.349   3.005  1.6913  0.1311  0.0741
  168MOL0     H22170   7.436   1.053   2.940 -4.5352  0.6811 -1.4689
  168MOL0     H22171   7.353   1.192   2.888  0.4665 -1.9023 -1.0445
  168MOL0     H22172   7.365   1.084   3.169  0.9423 -1.0776 -1.7873
  168MOL0     H22173   7.276   1.241   3.143 -1.4310  0.1361 -0.5606
  168MOL0     H22174   7.027   0.904   3.022  2.3044 -1.3881 -1.1548
  168MOL0     H22175   7.570   1.139   2.631 -0.4516  4.0812  0.8004
  168MOL0     H22176   7.711   0.965   2.491  4.4315 -1.3848 -0.0734
  169MOL0     O22177   9.455   5.944   0.632  0.0283 -0.5699  0.1327
  169MOL0     C22178   9.540   5.865   0.596  0.0534 -0.2486 -0.2157
  169MOL0     O22179   9.527   5.729   0.594  0.3248  0.3796 -0.4075
  169MOL0     C22180   9.397   5.680   0.598  1.3508  0.4063  0.2318
  169MOL0     C22181   9.362   5.561   0.658 -0.5906  0.5065  0.8747
  169MOL0     C22182   9.233   5.512   0.672  0.4011 -0.0995 -0.3547
  169MOL0     C22183   9.132   5.582   0.615 -0.5201 -0.1731  0.3572
  169MOL0     O22184   9.007   5.524   0.630  0.0384  0.4026  0.8820
  169MOL0     C22185   8.887   5.606   0.602 -0.5864 -0.1086 -0.3333
  169MOL0     C22186   8.765   5.513   0.647  1.1310  0.4221  0.5977
  169MOL0     C22187   8.772   5.471   0.789  0.1390  0.2119  0.8840
  169MOL0     C22188   8.645   5.420   0.836 -0.1998  0.6262  0.2248
  169MOL0     C22189   8.681   5.311   0.935 -1.0335 -0.7321  0.7278
  169MOL0     C22190   8.554   5.264   1.012  0.5381  0.1373  0.4473
  169MOL0     C22191   8.591   5.181   1.129 -0.1932  0.0299 -0.4471
  169MOL0     C22192   8.470   5.103   1.186  0.3867  0.2702  0.3568
  169MOL0     N22193   8.405   5.005   1.094 -0.1025 -0.2558  0.4881
  169MOL0     C22194   8.282   5.025   1.034 -0.2682 -0.6562 -0.5482
  169MOL0     C22195   8.269   4.918   0.949  0.2815  0.4859 -0.0517
  169MOL0     C22196   8.139   4.895   0.875  0.0946  0.2135 -0.0895
  169MOL0     C22197   8.134   4.941   0.728  0.3016  1.0957 -0.8174
  169MOL0     C22198   8.152   5.097   0.709  0.0131  0.1035 -0.4351
  169MOL0     C22199   8.161   5.143   0.565 -0.4123 -0.1946  0.2323
  169MOL0     O22200   8.208   5.275   0.558 -0.0302 -0.0223 -0.1258
  169MOL0     C22201   8.323   5.311   0.491  0.3944 -0.3032  0.3586
  169MOL0     C22202   8.432   5.235   0.473  0.0896  0.3205  0.8877
  169MOL0     C22203   8.546   5.295   0.415 -0.2377  0.3862  0.5636
  169MOL0     C22204   8.544   5.415   0.355  1.2967  0.1666  0.9303
  169MOL0     C22205   8.657   5.481   0.284  0.7424  0.3768 -0.0438
  169MOL0     O22206   8.757   5.402   0.240  0.0497 -0.0795  0.0191
  169MOL0     C22207   8.872   5.455   0.188 -0.3126 -0.1634  0.1212
  169MOL0     C22208   8.917   5.587   0.218 -0.5696  0.2147  0.2207
  169MOL0     C22209   9.026   5.642   0.152  0.1070 -0.0370  0.1415
  169MOL0     C22210   9.107   5.558   0.069 -0.8432 -0.1801  0.3630
  169MOL0     O22211   9.221   5.616   0.015 -0.3662  0.2561  0.0574
  169MOL0     C22212   9.317   5.667   0.106  0.4321  0.2676  0.3031
  169MOL0     C22213   9.385   5.551   0.177  0.8830 -0.9987  0.3050
  169MOL0     C22214   9.476   5.481   0.074 -0.5298 -0.5805 -0.2966
  169MOL0     C22215   9.576   5.385   0.129 -1.0234  1.0389  0.2617
  169MOL0     C22216   9.698   5.352   0.049  0.0076 -0.5431  0.8424
  169MOL0     C22217   9.657   5.243  -0.058  0.5632  1.3376  0.7968
  169MOL0     C22218   9.744   5.231  -0.187  0.0849 -0.6310  0.2202
  169MOL0     C22219   9.813   5.104  -0.213 -0.6167  0.1196  0.4687
  169MOL0    Cl22220   9.973   5.138  -0.271  0.2396 -0.0332  0.0935
  169MOL0     C22221   9.058   5.432   0.039 -0.5660 -0.2975 -0.1037
  169MOL0     C22222   8.939   5.382   0.095  1.2298 -0.6198  0.2537
  169MOL0     O22223   8.650   5.601   0.259  0.4082 -0.4106  0.3276
  169MOL0     C22224   8.427   5.491   0.376  0.2694 -0.2304  0.1612
  169MOL0     C22225   8.322   5.448   0.449 -0.0820 -0.1295 -0.5082
  169MOL0     N22226   8.380   4.841   0.947 -0.9580 -0.5590 -1.0101
  169MOL0     N22227   8.461   4.904   1.028 -0.6613  0.2869 -0.5518
  169MOL0     C22228   9.163   5.691   0.531  0.3555 -0.6640  0.8496
  169MOL0     C22229   9.298   5.739   0.515 -0.5402  0.3229 -0.8820
  169MOL0     C22230   9.675   5.918   0.562  0.2483 -0.6165 -0.1920
  169MOL0     C22231   9.779   5.825   0.519 -0.5074 -0.2904 -0.2604
  169MOL0     C22232   9.909   5.881   0.505  0.0012  0.1983 -0.2845
  169MOL0     C22233   9.934   6.016   0.526  0.6532 -0.9229  0.2042
  169MOL0     O22234  10.065   6.071   0.499  1.6742 -0.0655  0.8327
  169MOL0     C22235  10.178   6.013   0.538 -0.0579  0.7888 -0.4160
  169MOL0     C22236  10.196   5.998   0.692  0.0977  0.0985 -0.4967
  169MOL0     C22237  10.144   5.872   0.757  1.2667  0.3703 -0.1452
  169MOL0     C22238  10.220   5.758   0.689  0.0742 -0.1886 -0.5869
  169MOL0     C22239  10.231   5.649   0.790 -0.4421  0.0178 -1.3972
  169MOL0     C22240  10.242   5.553   0.864  0.3556  1.1576 -0.2786
  169MOL0     C22241   9.832   6.107   0.556  0.2418 -0.2695 -0.5020
  169MOL0     C22242   9.706   6.058   0.576  0.4130 -0.5230  0.0986
  169MOL0     H22243   9.450   5.518   0.705  0.1299  1.3850  0.3521
  169MOL0     H22244   9.204   5.413   0.706 -3.4548  0.6593 -1.0702
  169MOL0     H22245   8.894   5.626   0.495  0.1056 -1.8211 -0.6456
  169MOL0     H22246   8.870   5.699   0.657 -1.3436 -2.0514  2.9991
  169MOL0     H22247   8.761   5.441   0.565 -1.9534  1.9065 -0.7146
  169MOL0     H22248   8.675   5.572   0.628  1.0624  0.2946  0.5275
  169MOL0     H22249   8.810   5.557   0.844  1.6716 -0.7032  1.3066
  169MOL0     H22250   8.843   5.388   0.783  0.4960  0.6024 -1.3434
  169MOL0     H22251   8.580   5.493   0.885 -2.6388 -0.8173 -0.6771
  169MOL0     H22252   8.583   5.371   0.760 -0.5029  3.5484 -1.5689
  169MOL0     H22253   8.766   5.332   1.002 -0.1228 -4.0463  0.7628
  169MOL0     H22254   8.717   5.227   0.876  0.4607 -2.1065  3.3835
  169MOL0     H22255   8.492   5.203   0.946 -0.5226 -1.6989  2.9765
  169MOL0     H22256   8.495   5.344   1.060  2.1072  2.3073 -1.0272
  169MOL0     H22257   8.674   5.119   1.095 -1.1088 -0.6124 -1.5813
  169MOL0     H22258   8.621   5.239   1.217 -0.5827 -1.2301  0.5407
  169MOL0     H22259   8.401   5.185   1.212 -1.6257 -1.9286  2.3992
  169MOL0     H22260   8.484   5.060   1.285 -2.0373  2.3313  1.7467
  169MOL0     H22261   8.214   5.101   1.069 -0.4626  0.0591 -2.3718
  169MOL0     H22262   8.054   4.933   0.933 -1.9863 -2.3280 -1.2790
  169MOL0     H22263   8.112   4.789   0.871 -0.0230  0.2258  0.3215
  169MOL0     H22264   8.042   4.911   0.678  0.1344 -0.8447  0.5789
  169MOL0     H22265   8.218   4.890   0.680  0.1472  0.3273 -0.2778
  169MOL0     H22266   8.067   5.152   0.750  0.5693  1.6937 -1.3127
  169MOL0     H22267   8.243   5.125   0.763  0.9839  0.9273 -2.3920
  169MOL0     H22268   8.058   5.152   0.528 -0.6803  0.1074  1.0382
  169MOL0     H22269   8.229   5.085   0.502  1.4048  1.0579  0.9694
  169MOL0     H22270   8.450   5.142   0.527 -1.4140  0.5914  1.9071
  169MOL0     H22271   8.635   5.234   0.407  0.2606  1.1721 -0.1694
  169MOL0     H22272   8.878   5.649   0.298  0.5554  1.2481  0.0056
  169MOL0     H22273   9.061   5.742   0.177  1.8325 -1.4124  3.8932
  169MOL0     H22274   9.268   5.725   0.186 -1.4029 -2.6829  1.4871
  169MOL0     H22275   9.381   5.732   0.045 -0.1355  0.9695  0.4383
  169MOL0     H22276   9.303   5.483   0.202 -1.7595  0.0416 -4.3049
  169MOL0     H22277   9.426   5.596   0.268  1.5966 -0.5183 -0.2361
  169MOL0     H22278   9.519   5.555   0.005  0.1084 -0.1161  0.5785
  169MOL0     H22279   9.400   5.427   0.017  1.8762 -2.6205 -1.7578
  169MOL0     H22280   9.612   5.424   0.224  3.6795 -2.6219  0.3893
  169MOL0     H22281   9.532   5.288   0.156  1.0291 -0.6608 -1.9439
  169MOL0     H22282   9.777   5.313   0.113 -0.4895 -0.0197  1.8077
  169MOL0     H22283   9.730   5.440  -0.008 -2.9536 -0.2220 -0.5387
  169MOL0     H22284   9.560   5.250  -0.109  1.4157 -0.1803 -1.1838
  169MOL0     H22285   9.651   5.143  -0.015  0.6596  0.6126 -0.7979
  169MOL0     H22286   9.700   5.275  -0.277  1.3985  0.1213 -0.0745
  169MOL0     H22287   9.822   5.305  -0.167  2.4489 -3.1402  0.9248
  169MOL0     H22288   9.761   5.030  -0.274  3.1103 -2.8272  0.4356
  169MOL0     H22289   9.819   5.048  -0.119  2.3992  0.0891  0.3791
  169MOL0     H22290   9.134   5.380  -0.017  2.4429  3.2366  0.3219
  169MOL0     H22291   8.892   5.288   0.068  3.1933 -1.0719 -1.8825
  169MOL0     H22292   8.427   5.593   0.340 -0.6301  1.0012  3.3138
  169MOL0     H22293   8.243   5.514   0.483  0.2135 -1.7572  4.1354
  169MOL0     H22294   9.084   5.752   0.488  0.4683 -0.4966  0.8812
  169MOL0     H22295   9.318   5.828   0.457 -3.5146  1.5144 -0.2821
  169MOL0     H22296   9.756   5.719   0.518 -1.4832 -0.0927 -1.0949
  169MOL0     H22297   9.988   5.812   0.478  2.0657  2.0491  0.6435
  169MOL0     H22298  10.260   6.075   0.501  1.1671  0.3009  1.3349
  169MOL0     H22299  10.188   5.918   0.487  1.1528 -0.2333  1.5845
  169MOL0     H22300  10.305   6.006   0.701  0.4628 -3.1935 -0.8599
  169MOL0     H22301  10.149   6.082   0.743 -0.4666 -0.2539 -0.4263
  169MOL0     H22302  10.035   5.862   0.748  1.0135  0.0404  2.5610
  169MOL0     H22303  10.181   5.887   0.859 -1.8989  0.6826  1.0813
  169MOL0     H22304  10.155   5.720   0.609 -0.6916  3.0623 -1.6596
  169MOL0     H22305  10.325   5.775   0.663  0.3124 -1.2806 -0.3918
  169MOL0     H22306  10.232   5.465   0.925 -0.4574  2.0898  0.9928
  169MOL0     H22307   9.844   6.214   0.571 -1.0835 -0.0191 -1.0577
  169MOL0     H22308   9.622   6.126   0.589 -2.2461 -3.7460  1.2391
  170MOL0     O22309   3.625   0.803  10.110 -0.1708  0.4570 -0.3148
  170MOL0     C22310   3.600   0.708  10.033  0.1648 -0.7720 -0.0491
  170MOL0     O22311   3.539   0.722   9.911  0.6348 -0.0728  0.0194
  170MOL0     C22312   3.479   0.845   9.873  1.0767  0.7781  0.4139
  170MOL0     C22313   3.420   0.933   9.959  0.0598 -0.2386 -0.5750
  170MOL0     C22314   3.358   1.049   9.902 -1.3309 -0.0723  0.2458
  170MOL0     C22315   3.375   1.080   9.769  0.1954 -0.5156  0.1347
  170MOL0     O22316   3.352   1.207   9.722  0.0108 -0.3737  1.0487
  170MOL0     C22317   3.438   1.308   9.774  1.1521 -0.1829  0.2510
  170MOL0     C22318   3.349   1.430   9.832  0.3267 -0.2418  0.6964
  170MOL0     C22319   3.245   1.473   9.722  0.7775  0.2721  0.2560
  170MOL0     C22320   3.325   1.528   9.594 -0.2335  0.2807  0.9642
  170MOL0     C22321   3.226   1.611   9.502 -0.5851  0.2141  0.2818
  170MOL0     C22322   3.270   1.624   9.348  0.6068  1.6512  0.2773
  170MOL0     C22323   3.177   1.722   9.275  0.7864 -0.1420  0.2094
  170MOL0     C22324   3.214   1.734   9.129 -0.3884 -0.6448  0.6690
  170MOL0     N22325   3.188   1.871   9.077 -0.0776  0.3391 -0.9255
  170MOL0     C22326   3.070   1.917   9.039 -0.9956  0.4473 -0.5520
  170MOL0     C22327   3.084   2.049   9.029 -0.7618  0.9761 -0.3879
  170MOL0     C22328   2.983   2.152   8.995  0.3921  0.3337  0.4154
  170MOL0     C22329   2.930   2.234   9.112 -0.1917  0.7446 -1.0837
  170MOL0     C22330   2.814   2.321   9.065  0.5058 -0.3007 -0.9303
  170MOL0     C22331   2.718   2.359   9.175 -0.1129 -0.2489 -1.1804
  170MOL0     O22332   2.601   2.269   9.196 -0.2441 -0.4132  0.3514
  170MOL0     C22333   2.482   2.328   9.167 -0.2680  0.3820  0.3419
  170MOL0     C22334   2.366   2.281   9.237 -0.9240  0.8647 -0.3583
  170MOL0     C22335   2.238   2.343   9.201 -0.3390  0.5573 -0.2107
  170MOL0     C22336   2.227   2.447   9.111 -0.2497  0.0696 -0.2648
  170MOL0     C22337   2.095   2.507   9.067 -0.6073  0.2542 -0.1942
  170MOL0     O22338   2.086   2.576   8.944 -1.3240 -0.5920  0.1139
  170MOL0     C22339   1.964   2.618   8.911  0.5919  0.7805 -0.8952
  170MOL0     C22340   1.922   2.746   8.930 -0.3381 -0.1253  0.8246
  170MOL0     C22341   1.800   2.796   8.884  0.5315  0.8246  0.0046
  170MOL0     C22342   1.702   2.708   8.846 -0.2343  0.9114 -1.0802
  170MOL0     O22343   1.580   2.764   8.815 -0.6398  0.6525 -0.2965
  170MOL0     C22344   1.517   2.719   8.693 -0.0348  0.4439 -0.2063
  170MOL0     C22345   1.360   2.743   8.719 -1.1276 -0.0932 -0.5645
  170MOL0     C22346   1.295   2.648   8.818 -0.8623  0.1990 -1.0390
  170MOL0     C22347   1.151   2.680   8.833 -1.1098  0.4545  0.5696
  170MOL0     C22348   1.073   2.564   8.898 -0.2505  0.0613 -0.0047
  170MOL0     C22349   1.066   2.437   8.810  0.6464 -0.3820 -1.0125
  170MOL0     C22350   0.972   2.343   8.887 -0.0708 -0.8559 -0.7877
  170MOL0     C22351   1.003   2.198   8.860 -0.1881  0.2306 -0.9110
  170MOL0    Cl22352   1.165   2.151   8.909  0.5490 -0.5248 -0.1260
  170MOL0     C22353   1.746   2.575   8.826  0.8493  0.2510 -0.2194
  170MOL0     C22354   1.869   2.528   8.864 -0.3288  0.0384  0.1342
  170MOL0     O22355   2.003   2.485   9.145 -0.7447  0.1827 -0.0721
  170MOL0     C22356   2.345   2.489   9.038  0.2288  0.0745 -0.2910
  170MOL0     C22357   2.467   2.427   9.072  0.5042 -0.2033 -0.0696
  170MOL0     N22358   3.220   2.079   9.047 -0.0032 -0.1733 -0.5895
  170MOL0     N22359   3.283   1.974   9.074  0.2422  0.7817  0.3168
  170MOL0     C22360   3.420   0.985   9.677  1.0135  0.9358 -0.0846
  170MOL0     C22361   3.476   0.874   9.734  0.5542  0.6222  0.1149
  170MOL0     C22362   3.641   0.562  10.072  0.8703 -0.0667 -0.3999
  170MOL0     C22363   3.653   0.444   9.993  0.2411  0.5546  0.5247
  170MOL0     C22364   3.704   0.320  10.044  0.6895  0.1109  0.7548
  170MOL0     C22365   3.750   0.306  10.164 -0.2330 -0.5440 -0.3309
  170MOL0     O22366   3.787   0.182  10.207  0.0563 -0.9558 -0.8504
  170MOL0     C22367   3.825   0.177  10.347 -0.4795  0.3829  0.2073
  170MOL0     C22368   3.878   0.043  10.377  0.0999  0.4912  0.0094
  170MOL0     C22369   4.025   0.032  10.371  0.1904  1.0830 -0.1559
  170MOL0     C22370   4.085  -0.104  10.405  0.0322 -0.5891 -0.3118
  170MOL0     C22371   4.232  -0.100  10.430 -1.1045 -0.1675 -0.1513
  170MOL0     C22372   4.356  -0.087  10.447  0.8517  0.5908  0.0933
  170MOL0     C22373   3.726   0.417  10.244  0.1774  0.0986 -0.1919
  170MOL0     C22374   3.675   0.538  10.202 -0.0665 -0.4166  0.0827
  170MOL0     H22375   3.429   0.903  10.063  3.3427  1.0389 -0.3618
  170MOL0     H22376   3.331   1.130   9.969  1.0189  0.2415  0.9062
  170MOL0     H22377   3.508   1.344   9.697  1.9193 -2.4651 -0.2006
  170MOL0     H22378   3.497   1.277   9.861  1.1327  1.3684  0.8432
  170MOL0     H22379   3.418   1.510   9.862 -0.6961  1.2292 -0.6978
  170MOL0     H22380   3.290   1.401   9.919 -1.4162 -1.5883 -0.8644
  170MOL0     H22381   3.180   1.552   9.762 -0.8992 -1.4329  1.0425
  170MOL0     H22382   3.177   1.393   9.693 -2.1842  1.8133  2.3885
  170MOL0     H22383   3.400   1.598   9.632  1.1561 -0.9590  0.6347
  170MOL0     H22384   3.388   1.455   9.543  4.8474  4.3218  0.6472
  170MOL0     H22385   3.216   1.710   9.547  1.6155  1.1741 -1.2225
  170MOL0     H22386   3.125   1.568   9.503 -1.3941  2.0355  1.6661
  170MOL0     H22387   3.267   1.528   9.294  0.8400  3.0823 -2.4295
  170MOL0     H22388   3.371   1.665   9.355  1.2564 -0.1492  3.7858
  170MOL0     H22389   3.073   1.688   9.277  0.4741  0.7675 -0.1046
  170MOL0     H22390   3.187   1.813   9.335  4.3548 -0.6731  0.6303
  170MOL0     H22391   3.154   1.671   9.063  0.0100 -0.5935  0.2536
  170MOL0     H22392   3.319   1.719   9.103 -0.1306 -0.0396  1.3542
  170MOL0     H22393   2.983   1.855   9.018 -1.7717  1.3931 -0.2229
  170MOL0     H22394   2.905   2.108   8.931  0.7603  1.9478 -1.2362
  170MOL0     H22395   3.035   2.229   8.937 -0.3137  1.9307  1.8150
  170MOL0     H22396   3.001   2.296   9.167  0.5353 -1.7040  0.9780
  170MOL0     H22397   2.900   2.155   9.182  0.6134 -0.0898 -1.6503
  170MOL0     H22398   2.846   2.413   9.015  2.5352 -1.2502 -1.4839
  170MOL0     H22399   2.771   2.254   8.989  0.9124 -0.4514 -1.0318
  170MOL0     H22400   2.688   2.464   9.173  1.7808  0.3713  0.0863
  170MOL0     H22401   2.773   2.345   9.269 -3.3275  1.1253  1.0901
  170MOL0     H22402   2.371   2.198   9.305 -1.7830  0.0560 -1.2450
  170MOL0     H22403   2.149   2.304   9.249  1.5686 -0.4584  2.7658
  170MOL0     H22404   1.991   2.826   8.957 -1.4565  1.7166 -1.3659
  170MOL0     H22405   1.775   2.902   8.886 -0.1128  0.6759  0.0695
  170MOL0     H22406   1.527   2.611   8.679  1.1104  0.3478  1.1109
  170MOL0     H22407   1.543   2.768   8.598 -3.1879 -0.0902 -1.4735
  170MOL0     H22408   1.318   2.724   8.619 -0.0416 -0.1001 -1.0374
  170MOL0     H22409   1.348   2.849   8.741 -0.1629 -0.5180  2.3971
  170MOL0     H22410   1.341   2.670   8.915 -3.4752 -0.0984  0.3563
  170MOL0     H22411   1.317   2.544   8.795 -2.7021 -1.5943  3.9746
  170MOL0     H22412   1.154   2.775   8.887 -0.5096  0.8825 -0.1788
  170MOL0     H22413   1.108   2.689   8.733 -2.1474 -1.8428  0.7566
  170MOL0     H22414   0.970   2.587   8.927  0.7914  2.0879  2.6037
  170MOL0     H22415   1.110   2.538   8.998 -0.2399 -0.6520 -0.1910
  170MOL0     H22416   1.170   2.409   8.790  0.9848  0.0174  0.1180
  170MOL0     H22417   1.027   2.457   8.710  0.9438 -0.1932 -1.0905
  170MOL0     H22418   0.977   2.372   8.992 -1.0787  0.8875 -1.1826
  170MOL0     H22419   0.873   2.359   8.842 -0.9061  0.1414  1.2699
  170MOL0     H22420   1.002   2.182   8.752  0.1037 -2.2280 -0.6153
  170MOL0     H22421   0.920   2.145   8.907  0.1449  0.3651 -0.1513
  170MOL0     H22422   1.691   2.495   8.776  0.2461  0.8783 -0.5834
  170MOL0     H22423   1.905   2.426   8.850  0.7242  0.5631 -1.2708
  170MOL0     H22424   2.342   2.583   8.984 -1.2701  2.1481  3.0803
  170MOL0     H22425   2.548   2.473   9.015 -1.0884 -0.1610 -2.4424
  170MOL0     H22426   3.428   1.012   9.572 -1.5727  0.1989 -0.5456
  170MOL0     H22427   3.530   0.812   9.663  0.7775  1.2517 -0.2674
  170MOL0     H22428   3.620   0.446   9.889  0.9655 -1.3282  0.2181
  170MOL0     H22429   3.706   0.227   9.987 -1.4315  1.2797 -1.3812
  170MOL0     H22430   3.729   0.187  10.397 -2.1165 -2.1716 -2.1188
  170MOL0     H22431   3.896   0.257  10.366 -0.0272  0.5296 -1.8384
  170MOL0     H22432   3.859   0.019  10.482 -0.6951  0.1859 -0.1921
  170MOL0     H22433   3.832  -0.032  10.312  2.4551 -0.0529 -1.1458
  170MOL0     H22434   4.068   0.106  10.439  1.9125  0.0608 -0.0748
  170MOL0     H22435   4.058   0.040  10.267  0.6854 -3.5246 -0.5995
  170MOL0     H22436   4.035  -0.139  10.496  0.6101  0.4694  0.4326
  170MOL0     H22437   4.057  -0.159  10.314 -0.7995  1.7364 -1.5592
  170MOL0     H22438   4.463  -0.084  10.454  0.9762  0.9805 -1.7213
  170MOL0     H22439   3.756   0.418  10.348 -2.0276 -2.9824  0.5981
  170MOL0     H22440   3.662   0.618  10.275 -1.6656  2.2012 -2.8041
  171MOL0     O22441   1.350   3.528   7.671 -1.2878 -0.2057  0.6080
  171MOL0     C22442   1.289   3.611   7.739 -0.5233 -0.1939  1.0261
  171MOL0     O22443   1.357   3.713   7.808  0.0798  0.0228  0.3962
  171MOL0     C22444   1.492   3.724   7.770  0.6874 -1.3753 -0.0911
  171MOL0     C22445   1.513   3.819   7.667  0.2379  0.4871  0.4234
  171MOL0     C22446   1.639   3.831   7.607  0.2164  0.8096  0.5986
  171MOL0     C22447   1.747   3.747   7.646 -0.5321  0.1503 -0.5477
  171MOL0     O22448   1.874   3.742   7.581  0.0861  0.5186 -0.6427
  171MOL0     C22449   1.904   3.849   7.501 -0.6275 -0.1701 -0.7698
  171MOL0     C22450   2.052   3.858   7.468 -0.2922  1.2772  0.8526
  171MOL0     C22451   2.137   3.806   7.588 -0.3661 -0.5768  0.2419
  171MOL0     C22452   2.281   3.838   7.558 -0.8875  0.1947 -0.3618
  171MOL0     C22453   2.361   3.769   7.678 -0.0400 -0.0287  0.6538
  171MOL0     C22454   2.510   3.789   7.643 -0.5726  0.4305 -0.7941
  171MOL0     C22455   2.604   3.725   7.754 -0.1826  0.7077 -0.0397
  171MOL0     C22456   2.729   3.687   7.695  0.6892 -0.0120 -0.6805
  171MOL0     N22457   2.827   3.793   7.688 -0.2457  0.0082  0.6384
  171MOL0     C22458   2.856   3.862   7.574  0.4113 -1.0043  0.3321
  171MOL0     C22459   2.950   3.952   7.616 -0.0470  0.5338 -0.2175
  171MOL0     C22460   3.027   4.034   7.515  0.1283 -0.6391  0.7985
  171MOL0     C22461   3.180   4.008   7.520 -1.1235 -0.5224 -0.1730
  171MOL0     C22462   3.237   4.072   7.395  0.4166  0.3532  0.0568
  171MOL0     C22463   3.389   4.063   7.397 -0.2537 -0.6669 -0.1936
  171MOL0     O22464   3.457   4.128   7.290 -0.2879  0.2534 -0.1860
  171MOL0     C22465   3.598   4.134   7.294 -0.3668  1.3279  0.2552
  171MOL0     C22466   3.655   4.165   7.176 -0.8215 -0.3538  0.1174
  171MOL0     C22467   3.791   4.169   7.162 -0.0011 -0.5865 -0.0857
  171MOL0     C22468   3.882   4.140   7.265 -1.1475 -0.2477 -0.0111
  171MOL0     C22469   4.032   4.157   7.244  0.4831  0.6273 -0.8553
  171MOL0     O22470   4.123   4.136   7.350 -0.2046 -0.6739  0.6160
  171MOL0     C22471   4.256   4.150   7.337  0.0264  0.9964  0.3504
  171MOL0     C22472   4.324   4.259   7.388 -0.1785  0.0648 -0.0066
  171MOL0     C22473   4.467   4.266   7.396  0.8351 -0.6292  0.2740
  171MOL0     C22474   4.546   4.172   7.325  0.2941 -0.3974 -0.6843
  171MOL0     O22475   4.687   4.182   7.335 -0.7009 -0.1107  0.4562
  171MOL0     C22476   4.751   4.310   7.317 -0.3151  0.4451  0.1854
  171MOL0     C22477   4.841   4.299   7.197 -0.5959  0.6001 -0.4385
  171MOL0     C22478   4.900   4.437   7.169 -0.5674 -0.4827 -0.1703
  171MOL0     C22479   5.007   4.421   7.055  0.3323 -0.2553  0.9044
  171MOL0     C22480   5.072   4.554   7.011  0.1518 -0.8303  0.2566
  171MOL0     C22481   5.143   4.543   6.874 -0.3378  0.4782 -0.6434
  171MOL0     C22482   5.194   4.671   6.817  0.4191 -0.4044  0.3363
  171MOL0     C22483   5.321   4.657   6.724  0.1810  0.8222  0.9432
  171MOL0    Cl22484   5.279   4.543   6.585 -0.8310 -0.0586  0.3358
  171MOL0     C22485   4.477   4.073   7.257 -0.1718  0.7257 -0.1239
  171MOL0     C22486   4.337   4.061   7.262 -0.6445  0.2625  0.0770
  171MOL0     O22487   4.065   4.195   7.132  0.0116 -0.0336 -0.3355
  171MOL0     C22488   3.825   4.089   7.387  0.4428  0.9208  1.1043
  171MOL0     C22489   3.681   4.085   7.398 -0.1345 -0.2434 -0.1453
  171MOL0     N22490   2.977   3.933   7.756  0.0989 -1.2530 -0.4164
  171MOL0     N22491   2.901   3.840   7.797  0.6165 -0.1136  0.0967
  171MOL0     C22492   1.722   3.660   7.746 -0.0207  0.4070  0.0504
  171MOL0     C22493   1.599   3.642   7.814 -0.2691  0.2715 -1.3793
  171MOL0     C22494   1.149   3.587   7.749  0.0098 -0.3980  1.3168
  171MOL0     C22495   1.084   3.496   7.658  0.1019  0.8865 -0.3143
  171MOL0     C22496   0.945   3.479   7.664  0.3701 -0.1436  0.1186
  171MOL0     C22497   0.863   3.547   7.745  0.2504 -0.6466 -0.1270
  171MOL0     O22498   0.730   3.524   7.753  0.2578 -0.6588  0.2179
  171MOL0     C22499   0.641   3.518   7.641 -0.1008  0.6469 -0.6261
  171MOL0     C22500   0.579   3.653   7.634 -0.8073 -0.1478  0.1843
  171MOL0     C22501   0.447   3.659   7.714 -0.5685 -0.2265  0.6256
  171MOL0     C22502   0.390   3.801   7.698 -1.1426 -0.3797  0.4118
  171MOL0     C22503   0.302   3.834   7.819 -0.4993  0.0338  0.8766
  171MOL0     C22504   0.247   3.878   7.919  0.0176  0.1158  0.1835
  171MOL0     C22505   0.925   3.638   7.831  0.9782  1.1846 -0.3369
  171MOL0     C22506   1.061   3.666   7.833 -0.1273 -0.7899  0.5032
  171MOL0     H22507   1.431   3.887   7.648  0.6874  1.1424  0.7675
  171MOL0     H22508   1.644   3.899   7.523 -0.9970  3.6648  2.6572
  171MOL0     H22509   1.887   3.943   7.554 -0.7316 -0.3634 -0.4617
  171MOL0     H22510   1.840   3.842   7.412  0.8463  0.0339 -1.8945
  171MOL0     H22511   2.077   3.963   7.453  2.1912  0.7020  0.5044
  171MOL0     H22512   2.067   3.793   7.381 -0.2375 -0.8005  2.3483
  171MOL0     H22513   2.123   3.700   7.612  2.4908 -1.0945 -0.1003
  171MOL0     H22514   2.101   3.859   7.676 -3.4549 -1.0455 -0.5788
  171MOL0     H22515   2.307   3.788   7.464 -1.6345  0.1581 -0.5549
  171MOL0     H22516   2.303   3.944   7.546  3.2984 -0.2636  1.5119
  171MOL0     H22517   2.342   3.661   7.685  2.2950 -0.4560  1.2534
  171MOL0     H22518   2.333   3.811   7.775  1.8175 -1.1212  1.7149
  171MOL0     H22519   2.539   3.894   7.644  0.5412  0.1793  2.0033
  171MOL0     H22520   2.539   3.745   7.547  0.4403 -0.6805 -0.0095
  171MOL0     H22521   2.621   3.795   7.836  2.6123  0.6329 -0.4672
  171MOL0     H22522   2.556   3.635   7.794 -0.4113  0.5954 -0.5583
  171MOL0     H22523   2.717   3.658   7.591  1.7890  1.0404 -1.1278
  171MOL0     H22524   2.784   3.609   7.750  3.6027  1.9537 -0.5880
  171MOL0     H22525   2.826   3.849   7.471  2.0780  2.3038 -0.7306
  171MOL0     H22526   3.003   4.138   7.539  1.1103 -0.7124  2.1830
  171MOL0     H22527   2.997   4.015   7.411  3.0889 -0.1778 -0.2583
  171MOL0     H22528   3.215   3.905   7.535  2.5188  0.3913 -1.4457
  171MOL0     H22529   3.213   4.066   7.607 -0.6984  0.0387 -0.7060
  171MOL0     H22530   3.207   4.028   7.299 -0.0797  0.9322 -0.0578
  171MOL0     H22531   3.215   4.179   7.395 -1.3867  0.0024 -0.2382
  171MOL0     H22532   3.423   3.959   7.394  1.4934 -0.1105 -0.7709
  171MOL0     H22533   3.432   4.118   7.481 -1.4298  0.5938 -0.3733
  171MOL0     H22534   3.591   4.179   7.089 -0.4247 -3.9251 -0.8963
  171MOL0     H22535   3.821   4.197   7.062 -0.8216 -3.4832 -1.2415
  171MOL0     H22536   4.262   4.333   7.438 -0.3764  0.4418 -0.7911
  171MOL0     H22537   4.506   4.355   7.443  1.8516 -1.1216  0.3802
  171MOL0     H22538   4.812   4.345   7.401  0.1394 -2.3621  1.1150
  171MOL0     H22539   4.674   4.384   7.292  0.3581  0.5962 -1.4889
  171MOL0     H22540   4.792   4.262   7.107 -3.6188 -1.0925  1.7170
  171MOL0     H22541   4.918   4.228   7.228  0.3586  1.1559 -1.4565
  171MOL0     H22542   4.953   4.481   7.255  1.7921  0.9716 -2.2345
  171MOL0     H22543   4.820   4.506   7.143 -0.5839 -1.0412 -1.6759
  171MOL0     H22544   5.082   4.347   7.085  0.6027  0.3414  1.7273
  171MOL0     H22545   4.960   4.375   6.967  1.6527  0.9210 -0.4564
  171MOL0     H22546   5.136   4.595   7.090  1.1681  0.4919 -1.1946
  171MOL0     H22547   4.995   4.632   7.000 -1.4684 -2.5511 -1.3840
  171MOL0     H22548   5.080   4.476   6.814  1.9952 -0.9157 -1.6834
  171MOL0     H22549   5.225   4.472   6.889 -0.3180  0.6673  0.1480
  171MOL0     H22550   5.109   4.713   6.761  2.1810  1.8567 -0.8143
  171MOL0     H22551   5.218   4.742   6.897 -0.2968 -1.0131  1.1102
  171MOL0     H22552   5.405   4.612   6.777  1.1666  1.0920 -0.3187
  171MOL0     H22553   5.363   4.748   6.678  4.0786 -1.2550 -0.0324
  171MOL0     H22554   4.523   3.990   7.203 -3.4261 -0.9485 -0.5613
  171MOL0     H22555   4.307   3.976   7.202  0.3465  0.6120 -0.9490
  171MOL0     H22556   3.876   4.056   7.477  0.4932 -0.1239  0.7060
  171MOL0     H22557   3.642   4.051   7.494 -1.1266  2.2680  0.4278
  171MOL0     H22558   1.809   3.601   7.770  0.2047  0.3079 -0.9588
  171MOL0     H22559   1.581   3.581   7.902 -2.6741 -0.6852 -2.4629
  171MOL0     H22560   1.147   3.434   7.595 -0.0352 -0.5069  0.8906
  171MOL0     H22561   0.906   3.397   7.605 -0.0350 -1.1847  1.7705
  171MOL0     H22562   0.567   3.443   7.672  1.6423  0.4859  4.0963
  171MOL0     H22563   0.691   3.494   7.548  1.3004 -1.7563  0.6405
  171MOL0     H22564   0.640   3.725   7.690 -1.5022  0.3552  0.3127
  171MOL0     H22565   0.565   3.680   7.529 -3.6357 -0.8211  0.3184
  171MOL0     H22566   0.486   3.644   7.815  0.5995 -1.2242  0.0610
  171MOL0     H22567   0.373   3.583   7.686  0.1204 -0.6310 -0.1574
  171MOL0     H22568   0.472   3.873   7.689  0.5623 -2.5060 -3.0468
  171MOL0     H22569   0.317   3.814   7.617  0.1149  3.7003 -0.3342
  171MOL0     H22570   0.197   3.904   8.010 -2.4457  1.9429 -1.5556
  171MOL0     H22571   0.858   3.704   7.885 -0.3934  0.0190 -0.5251
  171MOL0     H22572   1.102   3.741   7.900 -3.5508  1.5164  0.3086
  172MOL0     O22573   0.324   2.891   3.634 -0.2341 -0.1632 -0.0742
  172MOL0     C22574   0.334   2.909   3.513  0.7898  0.0182  0.6166
  172MOL0     O22575   0.445   2.947   3.446 -0.0403 -0.3392  0.2421
  172MOL0     C22576   0.565   2.963   3.517 -0.3264 -1.0557  0.5427
  172MOL0     C22577   0.624   2.862   3.592 -0.4584  0.7814  1.2801
  172MOL0     C22578   0.753   2.879   3.640 -0.1871  0.1583 -0.6537
  172MOL0     C22579   0.817   3.001   3.625 -0.1800  0.3198  0.4484
  172MOL0     O22580   0.940   3.034   3.676 -0.3396  0.1577 -0.1195
  172MOL0     C22581   1.020   2.940   3.739  0.3995  0.4313 -0.4383
  172MOL0     C22582   1.148   2.999   3.805  1.0183  0.4921  1.0842
  172MOL0     C22583   1.231   3.072   3.695 -1.1732  0.3565 -0.1010
  172MOL0     C22584   1.353   3.128   3.764 -1.0499 -0.0459 -0.7352
  172MOL0     C22585   1.438   3.217   3.660  0.6138  0.6243  0.0878
  172MOL0     C22586   1.568   3.272   3.735 -0.1267 -0.6460  0.2957
  172MOL0     C22587   1.671   3.162   3.764 -0.0996  0.4085  0.4721
  172MOL0     C22588   1.787   3.226   3.834  0.9669  0.2577  0.6043
  172MOL0     N22589   1.856   3.317   3.747  0.8352 -0.4057  0.1590
  172MOL0     C22590   1.920   3.293   3.628  0.2700 -0.0481 -0.6607
  172MOL0     C22591   1.986   3.408   3.595 -1.3012 -0.0985 -0.8638
  172MOL0     C22592   2.082   3.429   3.472 -0.2960 -0.0986 -1.2487
  172MOL0     C22593   2.224   3.385   3.514  0.3025  0.1954 -0.1656
  172MOL0     C22594   2.340   3.429   3.421  0.9461  1.2525  0.0546
  172MOL0     C22595   2.485   3.430   3.482 -0.3419 -0.7251 -0.4767
  172MOL0     O22596   2.506   3.311   3.560  0.3240  0.1130 -0.2659
  172MOL0     C22597   2.600   3.335   3.662 -0.2066 -0.0696  0.3437
  172MOL0     C22598   2.734   3.330   3.625  1.2454  0.3447 -0.7823
  172MOL0     C22599   2.830   3.345   3.723  1.1975 -0.0357 -0.7307
  172MOL0     C22600   2.791   3.397   3.850 -0.4346  0.4242 -0.2326
  172MOL0     C22601   2.895   3.449   3.944 -0.8716  0.4215  0.2045
  172MOL0     O22602   3.027   3.423   3.913  0.0135 -0.0818 -0.3333
  172MOL0     C22603   3.131   3.432   4.000  0.8669  0.0301  0.2037
  172MOL0     C22604   3.263   3.422   3.944  0.8981  0.1127  0.1995
  172MOL0     C22605   3.371   3.414   4.024 -0.7521 -0.0640  0.3651
  172MOL0     C22606   3.371   3.416   4.160 -0.5096  0.3356 -0.1105
  172MOL0     O22607   3.488   3.400   4.228 -0.1865  0.3358  0.0892
  172MOL0     C22608   3.479   3.362   4.368  0.1782 -0.6275 -0.2634
  172MOL0     C22609   3.617   3.312   4.408  0.7446  0.9400  0.3615
  172MOL0     C22610   3.675   3.204   4.318  0.4810 -0.0391  0.6702
  172MOL0     C22611   3.807   3.160   4.367  0.3756  0.3029  0.0641
  172MOL0     C22612   3.939   3.237   4.339  0.0409  0.2387 -0.3676
  172MOL0     C22613   4.056   3.155   4.396 -0.0232  0.3892 -0.0266
  172MOL0     C22614   4.187   3.236   4.399  0.1437  0.4034 -0.3085
  172MOL0     C22615   4.296   3.164   4.484  0.0952 -0.4573 -0.0455
  172MOL0    Cl22616   4.397   3.042   4.390  0.0991 -0.0890 -0.4052
  172MOL0     C22617   3.243   3.437   4.217  0.1400  0.4729  0.2629
  172MOL0     C22618   3.127   3.453   4.134  0.0777  0.2396 -0.3661
  172MOL0     O22619   2.853   3.521   4.032  0.5333 -0.1850 -0.2922
  172MOL0     C22620   2.658   3.388   3.896 -0.6107  0.3313 -0.1982
  172MOL0     C22621   2.562   3.362   3.802 -0.0437  0.7081 -0.2538
  172MOL0     N22622   1.953   3.502   3.677 -0.6004  0.4339  0.1443
  172MOL0     N22623   1.876   3.446   3.758 -0.0162 -0.0966  0.5166
  172MOL0     C22624   0.761   3.100   3.551  0.7977  0.7296  1.0104
  172MOL0     C22625   0.635   3.083   3.493 -0.8576 -0.4433  0.1209
  172MOL0     C22626   0.203   2.907   3.431 -0.3035 -0.6163  0.1536
  172MOL0     C22627   0.078   2.895   3.492  0.2395 -0.3345  1.1840
  172MOL0     C22628  -0.034   2.893   3.412 -0.2051 -0.5101  0.6723
  172MOL0     C22629  -0.036   2.888   3.274 -0.4829  0.8985 -0.3861
  172MOL0     O22630  -0.162   2.870   3.229  0.3307  0.0583 -0.0239
  172MOL0     C22631  -0.181   2.849   3.088 -0.5872 -1.4330 -0.5873
  172MOL0     C22632  -0.334   2.846   3.056 -0.6218  0.5005 -0.5331
  172MOL0     C22633  -0.359   2.753   2.931  0.0519 -0.5351 -0.9509
  172MOL0     C22634  -0.505   2.723   2.919 -0.3132 -0.4027  0.2468
  172MOL0     C22635  -0.534   2.633   3.023 -0.6647 -0.4262  1.5608
  172MOL0     C22636  -0.558   2.553   3.108 -0.1127  0.3734 -0.0511
  172MOL0     C22637   0.086   2.903   3.212  0.2096  0.2551 -0.4621
  172MOL0     C22638   0.203   2.919   3.290  0.9353  0.6981  0.3089
  172MOL0     H22639   0.571   2.770   3.613  2.7795 -1.4691  0.3398
  172MOL0     H22640   0.810   2.804   3.695 -0.6049  1.0781  1.1090
  172MOL0     H22641   1.066   2.870   3.669  1.8895  1.5073 -0.6040
  172MOL0     H22642   0.955   2.899   3.817 -1.4131  0.5496 -1.8171
  172MOL0     H22643   1.203   2.916   3.851 -0.0938 -0.9819 -0.1172
  172MOL0     H22644   1.117   3.066   3.886  2.1281 -0.4962  2.3745
  172MOL0     H22645   1.182   3.155   3.643 -0.7144  0.3382 -0.5779
  172MOL0     H22646   1.256   2.993   3.623  0.9391  2.5073 -1.8921
  172MOL0     H22647   1.342   3.194   3.850  1.2149  1.3553 -1.4202
  172MOL0     H22648   1.407   3.039   3.798 -1.9938 -0.9092 -1.4300
  172MOL0     H22649   1.370   3.301   3.641 -2.5209 -0.7232  3.8273
  172MOL0     H22650   1.474   3.165   3.571 -0.8569  0.4954 -0.4697
  172MOL0     H22651   1.534   3.329   3.822  0.6020  2.0382 -1.0622
  172MOL0     H22652   1.599   3.344   3.659 -1.2686  0.4799  0.8670
  172MOL0     H22653   1.619   3.091   3.829 -3.2246  1.0556 -1.1649
  172MOL0     H22654   1.702   3.114   3.671 -0.8830  0.9606 -0.0760
  172MOL0     H22655   1.867   3.160   3.868 -0.8998 -2.2337  0.4241
  172MOL0     H22656   1.745   3.278   3.921 -1.2269  0.8964 -0.7589
  172MOL0     H22657   1.920   3.196   3.578  3.0022  0.8938 -2.7584
  172MOL0     H22658   2.077   3.535   3.448  2.7769  0.9900  1.9224
  172MOL0     H22659   2.038   3.386   3.382 -1.5690 -0.9719 -0.2607
  172MOL0     H22660   2.226   3.276   3.522  0.5242 -0.0181 -2.4189
  172MOL0     H22661   2.236   3.434   3.611  1.2032 -1.0810  0.3995
  172MOL0     H22662   2.332   3.366   3.332 -1.3552  0.8696  0.4677
  172MOL0     H22663   2.323   3.532   3.387 -0.4357  0.5505 -1.5498
  172MOL0     H22664   2.492   3.519   3.546 -1.2929 -1.3233  0.4835
  172MOL0     H22665   2.566   3.442   3.409  1.2612 -0.0310  1.3357
  172MOL0     H22666   2.740   3.307   3.519 -1.9135  0.0682 -0.9926
  172MOL0     H22667   2.935   3.337   3.695  0.8861 -1.5081 -1.6440
  172MOL0     H22668   3.263   3.409   3.837 -0.6598  0.5817  0.1125
  172MOL0     H22669   3.469   3.415   3.978 -0.4559  0.9687  0.9825
  172MOL0     H22670   3.402   3.289   4.395  0.5098 -1.6529 -1.9721
  172MOL0     H22671   3.460   3.454   4.424 -0.8021 -1.4638  0.8352
  172MOL0     H22672   3.620   3.277   4.512  3.9390 -0.9646 -0.2263
  172MOL0     H22673   3.679   3.401   4.396 -1.2392  2.3126 -0.2261
  172MOL0     H22674   3.686   3.230   4.213 -1.5517  1.4497  0.7694
  172MOL0     H22675   3.598   3.125   4.324  0.7507 -0.8061 -3.1567
  172MOL0     H22676   3.802   3.132   4.473  4.4631 -1.7098 -0.0709
  172MOL0     H22677   3.823   3.060   4.325  2.8262  0.4013  0.6228
  172MOL0     H22678   3.941   3.333   4.392  1.1574  0.1475 -0.2000
  172MOL0     H22679   3.952   3.261   4.233  2.1100 -0.6730 -0.3711
  172MOL0     H22680   4.068   3.059   4.344  2.9942  0.3782  0.5341
  172MOL0     H22681   4.024   3.125   4.496 -3.2935  0.7859 -0.8302
  172MOL0     H22682   4.236   3.259   4.303 -2.9580  1.8158 -1.6737
  172MOL0     H22683   4.168   3.328   4.455 -1.4136  0.2500 -0.5527
  172MOL0     H22684   4.249   3.116   4.570  0.5028 -0.9821 -0.1082
  172MOL0     H22685   4.381   3.230   4.507 -0.3044 -0.4643  1.5563
  172MOL0     H22686   3.215   3.437   4.322 -0.5612 -1.6531  0.1106
  172MOL0     H22687   3.032   3.468   4.184 -0.5203 -1.5233 -0.9026
  172MOL0     H22688   2.627   3.407   3.998 -2.3534 -1.8479 -0.2528
  172MOL0     H22689   2.460   3.360   3.839  0.1016 -0.9177  0.1387
  172MOL0     H22690   0.815   3.192   3.527 -0.8466  1.3047 -0.7986
  172MOL0     H22691   0.594   3.164   3.434 -1.1218 -0.0739  0.8106
  172MOL0     H22692   0.053   2.891   3.598 -1.3737  0.5884  0.8655
  172MOL0     H22693  -0.127   2.879   3.466 -3.1798  1.1339 -3.4813
  172MOL0     H22694  -0.138   2.756   3.049  0.4513 -0.6748 -1.3220
  172MOL0     H22695  -0.128   2.928   3.034 -3.0844  2.8319  2.5850
  172MOL0     H22696  -0.387   2.805   3.143  0.5190 -1.4973 -0.7150
  172MOL0     H22697  -0.372   2.948   3.043 -0.8821  0.7834  1.9458
  172MOL0     H22698  -0.308   2.657   2.942  2.2067  0.7509  1.1702
  172MOL0     H22699  -0.324   2.801   2.839 -0.2101 -0.1763 -0.8658
  172MOL0     H22700  -0.557   2.818   2.931  0.0400  0.1756 -2.2691
  172MOL0     H22701  -0.512   2.681   2.818 -0.9625 -0.2346  0.2154
  172MOL0     H22702  -0.588   2.481   3.181  1.7382 -0.3735  0.0100
  172MOL0     H22703   0.101   2.906   3.104 -1.9735 -0.5660 -0.8539
  172MOL0     H22704   0.296   2.942   3.239 -1.1315  0.9143 -3.8009
  173MOL0     O22705   7.988   0.974  10.330 -0.3878  0.7222 -0.8007
  173MOL0     C22706   7.949   0.863  10.294 -0.3778 -0.4915 -1.5192
  173MOL0     O22707   7.830   0.835  10.227 -0.2440  1.3107  0.1107
  173MOL0     C22708   7.736   0.919  10.187 -0.9138  0.2318  0.7272
  173MOL0     C22709   7.687   0.903  10.059 -0.2484 -0.2627  0.7768
  173MOL0     C22710   7.577   0.986  10.021 -0.1530  0.2428  0.7515
  173MOL0     C22711   7.522   1.082  10.102 -0.4715 -0.6234  0.8031
  173MOL0     O22712   7.421   1.159  10.040 -0.3175  0.3979 -0.1613
  173MOL0     C22713   7.354   1.247  10.137  0.5737  0.3249 -0.1786
  173MOL0     C22714   7.231   1.298  10.075 -0.4578  0.3511  0.2430
  173MOL0     C22715   7.117   1.203  10.072 -0.0187 -0.6988 -0.1811
  173MOL0     C22716   7.032   1.212   9.946  0.6650 -0.1012 -0.2603
  173MOL0     C22717   6.936   1.333   9.942  0.1621  0.4935  0.1887
  173MOL0     C22718   6.864   1.318   9.807 -0.1675 -0.1695 -0.6330
  173MOL0     C22719   6.761   1.433   9.805  1.0478  0.7665 -0.6894
  173MOL0     C22720   6.825   1.563   9.791  0.6132 -0.5844  0.1517
  173MOL0     N22721   6.815   1.655   9.902  0.1216 -0.4549 -0.6545
  173MOL0     C22722   6.702   1.734   9.918  0.3241  1.2894 -0.2455
  173MOL0     C22723   6.726   1.828  10.005 -0.7803  0.2024 -0.9056
  173MOL0     C22724   6.635   1.934  10.055 -1.3290  0.2559  1.1777
  173MOL0     C22725   6.498   1.882  10.089  0.1142  0.3937  0.2202
  173MOL0     C22726   6.416   2.011  10.118 -0.0578 -0.9951 -0.5598
  173MOL0     C22727   6.274   1.969  10.152  0.3712 -0.6236 -0.5621
  173MOL0     O22728   6.275   1.875  10.254 -0.0462 -0.3179 -0.6850
  173MOL0     C22729   6.152   1.837  10.290  0.3587  0.4745 -1.0163
  173MOL0     C22730   6.095   1.737  10.219 -0.2553 -0.8485  0.0900
  173MOL0     C22731   5.962   1.700  10.248  0.4933 -0.9084  0.5300
  173MOL0     C22732   5.893   1.756  10.351  0.4988 -0.8110  0.1036
  173MOL0     C22733   5.763   1.697  10.404  0.1795  0.2346  0.1151
  173MOL0     O22734   5.736   1.571  10.372 -0.8258 -0.5820  0.5274
  173MOL0     C22735   5.636   1.506  10.435  0.4701  0.1170  0.3785
  173MOL0     C22736   5.656   1.413  10.538  0.8392  0.9391  0.3624
  173MOL0     C22737   5.552   1.342  10.591  0.0880  0.3008  0.2712
  173MOL0     C22738   5.427   1.357  10.541 -0.0018  0.5768  0.0518
  173MOL0     O22739   5.331   1.262  10.585  0.2634 -0.5284  0.5538
  173MOL0     C22740   5.284   1.183  10.480  0.0510 -0.1493 -0.6586
  173MOL0     C22741   5.217   1.058  10.549  0.3962 -0.6108 -0.2343
  173MOL0     C22742   5.178   0.962  10.440 -0.7230 -0.4702 -1.0741
  173MOL0     C22743   5.077   0.871  10.501  0.1337 -0.1119  0.0944
  173MOL0     C22744   5.058   0.734  10.436  0.5176 -0.0389  0.1300
  173MOL0     C22745   5.013   0.751  10.289 -0.6560 -0.3856  0.0361
  173MOL0     C22746   5.084   0.644  10.198 -0.0354  0.0178  0.7814
  173MOL0     C22747   5.027   0.630  10.058  0.1631 -0.4833  0.3750
  173MOL0    Cl22748   4.854   0.586  10.076 -0.4005  0.0426 -0.0882
  173MOL0     C22749   5.398   1.450  10.449 -0.5613  0.8954 -0.2609
  173MOL0     C22750   5.503   1.526  10.395  1.1042 -0.2342 -0.3824
  173MOL0     O22751   5.689   1.772  10.473  0.3897  0.9321 -0.1787
  173MOL0     C22752   5.958   1.850  10.434  0.0891 -0.3485 -0.3460
  173MOL0     C22753   6.085   1.897  10.403 -0.7228  0.4565  0.6508
  173MOL0     N22754   6.867   1.825  10.027 -0.6407 -0.1014  0.8787
  173MOL0     N22755   6.916   1.727   9.953 -0.1888 -0.2307 -0.0774
  173MOL0     C22756   7.570   1.096  10.235  0.1196  0.1499 -0.3361
  173MOL0     C22757   7.667   1.008  10.282  0.0285 -0.0834  0.4579
  173MOL0     C22758   8.037   0.751  10.325 -0.1909 -0.2727 -0.2099
  173MOL0     C22759   8.047   0.642  10.246  0.0424  0.0855  0.1474
  173MOL0     C22760   8.144   0.541  10.275 -0.1554  0.1716  0.9085
  173MOL0     C22761   8.229   0.549  10.386  0.8141 -0.6255  0.7253
  173MOL0     O22762   8.320   0.453  10.408  0.4046  0.0578 -0.1048
  173MOL0     C22763   8.452   0.497  10.431 -0.3351 -0.3380  0.8149
  173MOL0     C22764   8.502   0.499  10.569 -0.1262 -0.0077 -0.9754
  173MOL0     C22765   8.652   0.540  10.578  0.1012 -0.2673 -0.2092
  173MOL0     C22766   8.746   0.421  10.538 -0.0191 -0.3447  0.2093
  173MOL0     C22767   8.742   0.316  10.631  0.2425  0.7339 -0.2777
  173MOL0     C22768   8.731   0.211  10.694  0.9579  1.1159 -0.5515
  173MOL0     C22769   8.216   0.658  10.471 -0.1096  0.0578 -0.2040
  173MOL0     C22770   8.122   0.755  10.441 -0.5770  0.0327 -0.5911
  173MOL0     H22771   7.737   0.838   9.988  0.2035 -0.9684  1.7194
  173MOL0     H22772   7.556   0.988   9.914  1.8278 -1.8657  0.2521
  173MOL0     H22773   7.425   1.326  10.162  1.0864  0.1896 -1.1471
  173MOL0     H22774   7.328   1.195  10.230  1.8728 -0.6015 -0.2944
  173MOL0     H22775   7.261   1.319   9.972  0.2339  1.3870  0.6368
  173MOL0     H22776   7.213   1.395  10.122  0.2145  0.7010 -0.2097
  173MOL0     H22777   7.052   1.222  10.157 -1.6731  1.1580 -1.7530
  173MOL0     H22778   7.159   1.102  10.073  1.9104  0.0478 -0.6863
  173MOL0     H22779   7.098   1.209   9.858  3.2915  0.4078  1.5670
  173MOL0     H22780   6.974   1.120   9.943 -0.3637  0.4873  1.0115
  173MOL0     H22781   6.992   1.427   9.956  0.2717 -0.0171  5.3640
  173MOL0     H22782   6.868   1.322  10.027  1.2664  3.5129  1.6496
  173MOL0     H22783   6.809   1.228   9.779 -0.4839  0.5193 -2.3941
  173MOL0     H22784   6.936   1.337   9.726  0.9278  2.8816  0.8791
  173MOL0     H22785   6.697   1.415   9.718  0.9518 -0.7274 -0.3393
  173MOL0     H22786   6.699   1.437   9.896  2.3899  0.6707  0.2641
  173MOL0     H22787   6.778   1.609   9.703 -0.3199 -2.6213 -0.4582
  173MOL0     H22788   6.932   1.550   9.774  0.4226 -1.7099 -0.2256
  173MOL0     H22789   6.608   1.706   9.871  1.7892 -2.2469 -1.4253
  173MOL0     H22790   6.629   2.004   9.971 -3.7508 -0.8377  0.3610
  173MOL0     H22791   6.682   1.979  10.143  2.8674 -2.5633  0.6914
  173MOL0     H22792   6.499   1.806  10.167 -0.4640 -1.1351 -1.2042
  173MOL0     H22793   6.452   1.836  10.001  1.1779 -0.8041  0.2576
  173MOL0     H22794   6.451   2.058  10.210 -0.0866 -2.9337  0.4838
  173MOL0     H22795   6.412   2.095  10.048 -1.0417  2.5979  3.4092
  173MOL0     H22796   6.230   1.922  10.064 -1.8054 -3.7163  1.9771
  173MOL0     H22797   6.219   2.057  10.187 -2.4703 -2.8286  0.8309
  173MOL0     H22798   6.154   1.708  10.133 -1.4235 -0.5599 -0.8254
  173MOL0     H22799   5.910   1.625  10.189 -0.4317  0.5304 -0.5632
  173MOL0     H22800   5.760   1.389  10.559  1.3166  0.9011 -1.7819
  173MOL0     H22801   5.574   1.269  10.668 -1.2780  0.2146  0.6058
  173MOL0     H22802   5.372   1.160  10.420  1.6917 -0.1605  1.6383
  173MOL0     H22803   5.214   1.235  10.413  0.8685  2.1632  0.1774
  173MOL0     H22804   5.147   1.090  10.627  2.9555  2.7608  0.9016
  173MOL0     H22805   5.288   1.005  10.613 -2.2783 -4.2957  0.0635
  173MOL0     H22806   5.269   0.919  10.397 -0.0735 -0.3569  0.1259
  173MOL0     H22807   5.125   1.010  10.358 -1.4103  2.0765  0.7378
  173MOL0     H22808   5.106   0.845  10.604  0.4591  1.0204  0.3045
  173MOL0     H22809   4.982   0.922  10.516 -0.3639 -1.2611  1.0003
  173MOL0     H22810   4.975   0.687  10.491 -1.7077  1.2541 -1.9340
  173MOL0     H22811   5.152   0.680  10.447  1.2619  0.7145 -2.0451
  173MOL0     H22812   5.031   0.846  10.239 -1.4366 -0.4377 -0.3551
  173MOL0     H22813   4.907   0.728  10.282 -1.1108  0.3195  3.2137
  173MOL0     H22814   5.187   0.678  10.187 -0.2614  0.5053  0.0744
  173MOL0     H22815   5.086   0.543  10.239 -0.9806 -0.3356  0.0226
  173MOL0     H22816   5.084   0.560   9.997  0.6196 -0.0189  0.2602
  173MOL0     H22817   5.031   0.722   9.998 -2.1969 -1.7647 -1.9940
  173MOL0     H22818   5.297   1.467  10.414  0.2705  3.6286 -1.5382
  173MOL0     H22819   5.474   1.604  10.326 -0.7732 -0.2489  0.3433
  173MOL0     H22820   5.911   1.906  10.515 -0.0495  0.3612 -0.9050
  173MOL0     H22821   6.136   1.970  10.466  0.0461  1.3726 -0.9864
  173MOL0     H22822   7.541   1.169  10.309 -1.4661 -0.8899  0.1215
  173MOL0     H22823   7.693   1.010  10.388 -0.9334 -2.6546  0.8114
  173MOL0     H22824   7.987   0.631  10.156  1.0399  0.7479 -0.6224
  173MOL0     H22825   8.162   0.465  10.200 -3.6003  0.5154 -0.4365
  173MOL0     H22826   8.473   0.594  10.386  1.1243 -1.5891 -1.3726
  173MOL0     H22827   8.518   0.432  10.374 -0.6381 -1.4154  1.6443
  173MOL0     H22828   8.440   0.574  10.619 -1.1040 -0.4460 -1.5196
  173MOL0     H22829   8.476   0.403  10.616  2.0697  1.1760  3.2674
  173MOL0     H22830   8.664   0.566  10.683 -4.1826 -1.1808  0.6898
  173MOL0     H22831   8.685   0.625  10.517  0.6435 -0.5262 -0.2866
  173MOL0     H22832   8.717   0.395  10.435 -1.6697 -0.6639  0.7258
  173MOL0     H22833   8.850   0.457  10.537  1.3804 -3.9146 -1.4771
  173MOL0     H22834   8.720   0.121  10.751  1.1668  1.4498  0.0194
  173MOL0     H22835   8.274   0.679  10.561 -3.0606  2.4071  1.3390
  173MOL0     H22836   8.115   0.838  10.510  2.3092 -0.0397 -0.1097
  174MOL0     O22837   5.558   5.176   5.699 -0.3888  0.2199 -1.1501
  174MOL0     C22838   5.518   5.290   5.693 -0.2232  0.0574 -0.8556
  174MOL0     O22839   5.586   5.394   5.636  0.1490 -0.8371 -0.2623
  174MOL0     C22840   5.704   5.376   5.577  0.5163 -0.3417  0.0269
  174MOL0     C22841   5.721   5.413   5.445  0.9421 -0.9405 -0.3078
  174MOL0     C22842   5.842   5.396   5.383 -0.0291  0.7689  0.1285
  174MOL0     C22843   5.958   5.359   5.454 -0.1690  0.4390 -0.2358
  174MOL0     O22844   6.078   5.364   5.389  0.0149 -0.1064 -0.3023
  174MOL0     C22845   6.165   5.252   5.413  0.1572  0.5346  0.2422
  174MOL0     C22846   6.275   5.251   5.306  0.3414 -0.0338 -0.3264
  174MOL0     C22847   6.396   5.186   5.357  0.0220  0.5663 -0.9475
  174MOL0     C22848   6.509   5.202   5.261  0.1097 -0.2626 -0.0921
  174MOL0     C22849   6.627   5.111   5.302  0.6559  0.1437  0.9256
  174MOL0     C22850   6.727   5.116   5.194  0.5390  1.5559  0.2987
  174MOL0     C22851   6.838   5.015   5.252 -1.4393 -0.2957 -0.1331
  174MOL0     C22852   6.973   5.088   5.237 -0.3074 -0.1024 -1.1088
  174MOL0     N22853   7.085   5.014   5.296 -1.5474  0.4628 -0.1319
  174MOL0     C22854   7.200   5.087   5.328 -0.1131  0.7938  1.0220
  174MOL0     C22855   7.264   4.999   5.411  0.3894  0.5061 -0.1929
  174MOL0     C22856   7.407   5.018   5.461  0.4023 -0.9961 -1.1876
  174MOL0     C22857   7.494   4.903   5.431 -0.2852 -0.5981 -0.1175
  174MOL0     C22858   7.510   4.848   5.283  0.1792 -0.3121 -0.2209
  174MOL0     C22859   7.593   4.721   5.274 -0.3572  0.0097 -0.2973
  174MOL0     O22860   7.727   4.749   5.322 -0.3139  0.2338 -0.0715
  174MOL0     C22861   7.841   4.674   5.299 -0.0724 -0.7087  0.0938
  174MOL0     C22862   7.963   4.719   5.368 -0.3908 -0.1009 -0.2478
  174MOL0     C22863   8.086   4.645   5.345  0.7866 -0.5709  0.2150
  174MOL0     C22864   8.082   4.524   5.267  0.0182 -0.5924 -0.2251
  174MOL0     C22865   8.206   4.442   5.251  0.6700 -0.4148 -0.5885
  174MOL0     O22866   8.306   4.462   5.351 -0.2553  0.2869 -0.1235
  174MOL0     C22867   8.439   4.428   5.338  0.3775  0.4457 -0.8955
  174MOL0     C22868   8.517   4.422   5.217 -0.4489 -1.0186  0.2914
  174MOL0     C22869   8.661   4.402   5.217  0.1583  0.3695 -0.3163
  174MOL0     C22870   8.735   4.373   5.337 -0.1694 -0.6247  0.6099
  174MOL0     O22871   8.858   4.335   5.352  0.1944  0.0318 -0.2824
  174MOL0     C22872   8.936   4.287   5.244 -0.1085 -1.1329  1.0727
  174MOL0     C22873   9.030   4.398   5.187  0.6636  0.1716  0.4903
  174MOL0     C22874   9.138   4.435   5.301  0.5232  0.2736 -0.0447
  174MOL0     C22875   9.245   4.539   5.251  1.0652  0.3428 -0.0959
  174MOL0     C22876   9.327   4.597   5.367  0.0798 -0.4997 -0.3406
  174MOL0     C22877   9.459   4.635   5.307  1.1728  0.7419  0.1059
  174MOL0     C22878   9.546   4.717   5.406  0.1292  0.3010  0.5624
  174MOL0     C22879   9.635   4.638   5.504  0.4452 -1.0236 -0.1827
  174MOL0    Cl22880   9.770   4.549   5.423  0.0022 -0.5355 -0.1523
  174MOL0     C22881   8.649   4.372   5.449 -0.0468  0.1971 -0.0195
  174MOL0     C22882   8.512   4.401   5.457  0.4837 -0.1203 -0.0566
  174MOL0     O22883   8.211   4.374   5.149 -0.2799  0.3713  0.3459
  174MOL0     C22884   7.958   4.482   5.207  0.8315 -0.0870  1.1649
  174MOL0     C22885   7.843   4.562   5.217  0.5277 -0.2996  0.4225
  174MOL0     N22886   7.187   4.883   5.435  0.2058  0.2044 -0.1014
  174MOL0     N22887   7.077   4.896   5.365 -0.8817  0.8192  0.9134
  174MOL0     C22888   5.943   5.331   5.590  0.2532 -0.2386  0.9025
  174MOL0     C22889   5.816   5.339   5.646 -0.6499  0.1071 -0.4938
  174MOL0     C22890   5.385   5.321   5.735  0.3277  0.0968  0.0830
  174MOL0     C22891   5.294   5.226   5.779 -0.3150  0.6528 -0.0223
  174MOL0     C22892   5.161   5.265   5.792 -0.2589 -1.5174 -0.5620
  174MOL0     C22893   5.116   5.398   5.788 -0.4012 -0.1131  0.1983
  174MOL0     O22894   4.990   5.439   5.822  0.2011  0.4394 -0.0252
  174MOL0     C22895   4.884   5.345   5.840 -0.1631 -0.3137  0.4355
  174MOL0     C22896   4.743   5.401   5.881 -0.3648  0.0716  0.0572
  174MOL0     C22897   4.751   5.478   6.008  0.4742  0.0281  0.6409
  174MOL0     C22898   4.612   5.539   6.050  0.1139  0.2956  0.1569
  174MOL0     C22899   4.523   5.427   6.082  0.6008  0.4371  0.3930
  174MOL0     C22900   4.432   5.343   6.098 -0.0686 -0.2823  0.0697
  174MOL0     C22901   5.195   5.494   5.748  0.0561 -0.3829 -0.2793
  174MOL0     C22902   5.330   5.459   5.722  0.3343  0.2874  0.2296
  174MOL0     H22903   5.630   5.451   5.400  0.4321  1.0889  2.1869
  174MOL0     H22904   5.845   5.427   5.279 -2.2202  0.5583 -0.0489
  174MOL0     H22905   6.109   5.158   5.404  1.1635 -0.5105  3.5408
  174MOL0     H22906   6.213   5.249   5.511 -0.4464  0.8555  0.5543
  174MOL0     H22907   6.288   5.353   5.269  0.2568  0.4260  0.8534
  174MOL0     H22908   6.236   5.186   5.227 -0.0930 -0.1720 -0.0080
  174MOL0     H22909   6.367   5.085   5.387 -0.5273  1.8827  3.8617
  174MOL0     H22910   6.430   5.237   5.448 -1.1584  1.6479 -1.0822
  174MOL0     H22911   6.469   5.191   5.159 -3.5252 -0.7556  1.2625
  174MOL0     H22912   6.543   5.305   5.274  2.0689 -0.9843  0.9413
  174MOL0     H22913   6.586   5.010   5.313  2.6189 -0.5654  2.3176
  174MOL0     H22914   6.674   5.147   5.394  1.3145 -1.1645  1.1194
  174MOL0     H22915   6.768   5.215   5.172 -3.0636  2.8430 -1.2490
  174MOL0     H22916   6.684   5.070   5.105 -0.2352  0.4787  1.1980
  174MOL0     H22917   6.823   4.982   5.356 -1.7983  0.4431  0.0540
  174MOL0     H22918   6.827   4.928   5.186  0.7823  0.3302 -1.4317
  174MOL0     H22919   6.971   5.181   5.294 -0.9864 -1.9985  2.2953
  174MOL0     H22920   6.993   5.122   5.136 -0.9405  3.4457 -0.1521
  174MOL0     H22921   7.247   5.183   5.306 -1.3836  1.5713  1.5610
  174MOL0     H22922   7.405   5.038   5.569  2.4030 -0.5494 -1.1832
  174MOL0     H22923   7.457   5.105   5.417 -3.1616  0.8781 -1.9041
  174MOL0     H22924   7.462   4.821   5.497  2.1534 -0.7435  0.9960
  174MOL0     H22925   7.594   4.934   5.462 -1.0120 -1.1566  3.1193
  174MOL0     H22926   7.411   4.818   5.246 -0.4337 -2.7315  2.8832
  174MOL0     H22927   7.561   4.919   5.218 -1.6833  1.2464 -0.0753
  174MOL0     H22928   7.588   4.679   5.173  0.7837 -0.8067 -0.0334
  174MOL0     H22929   7.540   4.642   5.328 -1.8197 -0.8593 -2.7826
  174MOL0     H22930   7.947   4.806   5.430  0.9197  0.7796 -1.0920
  174MOL0     H22931   8.178   4.673   5.394  1.4027  0.3512 -1.3850
  174MOL0     H22932   8.477   4.453   5.121  2.0042 -0.8508 -0.7647
  174MOL0     H22933   8.716   4.417   5.124  2.1784  0.1255  0.7814
  174MOL0     H22934   8.874   4.248   5.164  1.1408 -4.7960  1.7073
  174MOL0     H22935   9.010   4.217   5.286  0.4130 -0.1975  1.7645
  174MOL0     H22936   8.972   4.484   5.153 -0.1552 -1.0110 -1.2628
  174MOL0     H22937   9.080   4.364   5.095  0.1586 -0.7970  0.5618
  174MOL0     H22938   9.188   4.349   5.346  1.0054 -0.7807 -2.4319
  174MOL0     H22939   9.079   4.475   5.384  2.1998  1.7200  0.5047
  174MOL0     H22940   9.323   4.510   5.179  2.3218  1.1470  0.8936
  174MOL0     H22941   9.190   4.622   5.207 -3.2604 -0.0666  3.8042
  174MOL0     H22942   9.339   4.531   5.454 -1.0362  0.2503  0.3966
  174MOL0     H22943   9.285   4.691   5.403  1.8011  0.1209  0.1425
  174MOL0     H22944   9.451   4.708   5.227  0.8338 -1.0151 -1.5189
  174MOL0     H22945   9.525   4.556   5.269  1.2553  0.2373  1.2395
  174MOL0     H22946   9.619   4.778   5.352 -0.1686  1.3474  1.3100
  174MOL0     H22947   9.478   4.776   5.469 -2.2506 -1.0014 -0.6386
  174MOL0     H22948   9.577   4.568   5.565 -1.6723 -0.5733 -1.5898
  174MOL0     H22949   9.689   4.712   5.564 -0.4396 -0.7498  0.2898
  174MOL0     H22950   8.709   4.351   5.537  0.8133 -0.7655 -0.8012
  174MOL0     H22951   8.461   4.390   5.552 -1.1192 -1.4165 -1.0145
  174MOL0     H22952   7.953   4.392   5.146 -1.2816  2.2299 -2.4790
  174MOL0     H22953   7.750   4.536   5.167 -1.1165  3.0191  1.4481
  174MOL0     H22954   6.030   5.319   5.654  1.9365 -0.8246 -1.3551
  174MOL0     H22955   5.795   5.331   5.752 -0.4599  0.8488 -0.3982
  174MOL0     H22956   5.313   5.119   5.787  0.1564  0.8265  1.8492
  174MOL0     H22957   5.093   5.187   5.826 -0.7185  0.1655  2.7608
  174MOL0     H22958   4.895   5.287   5.933 -0.8645  1.5546  1.7573
  174MOL0     H22959   4.885   5.271   5.759  1.7423  1.0344 -0.8304
  174MOL0     H22960   4.728   5.468   5.795  0.0838  2.9922  2.1064
  174MOL0     H22961   4.672   5.318   5.888 -2.5718  1.9889  1.6034
  174MOL0     H22962   4.820   5.560   5.989  0.0775  0.2410  0.0845
  174MOL0     H22963   4.784   5.414   6.090  2.4986  0.7670  0.4574
  174MOL0     H22964   4.634   5.602   6.137  0.8509  1.1592 -0.6295
  174MOL0     H22965   4.566   5.593   5.967 -1.4322  2.7089  2.4145
  174MOL0     H22966   4.358   5.269   6.117 -2.2041  1.7477  0.0527
  174MOL0     H22967   5.158   5.595   5.729 -0.6602 -0.9315 -1.9916
  174MOL0     H22968   5.382   5.544   5.680 -6.0098  3.6705 -1.9402
  175MOL0     O22969   7.659   2.379   6.733 -0.3521  0.4292  0.0908
  175MOL0     C22970   7.739   2.306   6.784 -0.0614 -0.2022 -0.1354
  175MOL0     O22971   7.744   2.171   6.773 -0.0590 -0.1742  0.4475
  175MOL0     C22972   7.640   2.102   6.715 -0.5112 -0.5043 -0.1278
  175MOL0     C22973   7.589   1.993   6.777  0.0634 -0.0276  0.1302
  175MOL0     C22974   7.502   1.914   6.718  1.3704 -0.8785 -0.0284
  175MOL0     C22975   7.440   1.946   6.598 -0.1221 -0.9904 -0.0805
  175MOL0     O22976   7.339   1.863   6.549 -0.3383  0.6458 -0.0790
  175MOL0     C22977   7.227   1.930   6.483  0.1884  0.3065  0.6473
  175MOL0     C22978   7.137   1.835   6.402 -0.3037  0.1292 -0.2180
  175MOL0     C22979   6.985   1.857   6.414 -0.4003 -0.2792  0.8308
  175MOL0     C22980   6.910   1.788   6.302 -0.0568 -0.6390  0.0083
  175MOL0     C22981   6.764   1.765   6.348 -0.2231  0.9151 -0.6777
  175MOL0     C22982   6.695   1.667   6.253  0.0238  0.3450 -0.4500
  175MOL0     C22983   6.563   1.618   6.309  0.6116 -0.5197  0.3822
  175MOL0     C22984   6.435   1.695   6.271 -0.1582 -0.5924 -0.4562
  175MOL0     N22985   6.316   1.635   6.329  1.5854  0.5147 -0.3786
  175MOL0     C22986   6.302   1.567   6.449  0.0245 -0.6666  0.1804
  175MOL0     C22987   6.168   1.544   6.469 -0.2589 -0.6841  0.8095
  175MOL0     C22988   6.125   1.480   6.601  0.4253 -0.9102  1.0436
  175MOL0     C22989   5.997   1.398   6.562 -0.4248  0.9899  0.1611
  175MOL0     C22990   5.957   1.316   6.678  0.3910 -0.4973  0.5010
  175MOL0     C22991   5.823   1.249   6.652 -0.6513  1.0896 -0.1939
  175MOL0     O22992   5.720   1.343   6.686  1.4111  0.2885 -0.1157
  175MOL0     C22993   5.588   1.302   6.689  0.4729 -0.7739 -0.9462
  175MOL0     C22994   5.535   1.196   6.617 -0.4504 -0.0830 -0.1167
  175MOL0     C22995   5.405   1.154   6.627 -0.0677  0.3818  0.6023
  175MOL0     C22996   5.310   1.230   6.694 -0.0852 -0.0774  0.3694
  175MOL0     C22997   5.170   1.193   6.686  0.6539  0.0266  0.7509
  175MOL0     O22998   5.133   1.108   6.590  0.6931 -0.7529  0.1486
  175MOL0     C22999   4.999   1.073   6.563 -0.8936  0.0024  0.1264
  175MOL0     C23000   4.890   1.092   6.652 -0.0644  0.6332  0.5674
  175MOL0     C23001   4.760   1.053   6.602 -1.1179  0.5658 -0.0209
  175MOL0     C23002   4.740   0.977   6.486  0.2088  0.9157  0.5003
  175MOL0     O23003   4.620   0.942   6.436  0.3763  0.1073 -0.8093
  175MOL0     C23004   4.526   1.046   6.430  0.7146 -0.1889  0.8187
  175MOL0     C23005   4.513   1.103   6.292 -0.1099  0.2254  0.2509
  175MOL0     C23006   4.409   1.219   6.295  0.3770  0.3346 -1.1621
  175MOL0     C23007   4.379   1.265   6.155  1.0682 -0.2088 -0.4191
  175MOL0     C23008   4.392   1.425   6.141 -0.7985  0.1429  0.4859
  175MOL0     C23009   4.385   1.458   5.991 -0.5971  0.2887 -0.2651
  175MOL0     C23010   4.382   1.606   5.968  0.3394 -0.1963  0.7609
  175MOL0     C23011   4.362   1.648   5.829 -1.6675 -0.7854 -0.3282
  175MOL0    Cl23012   4.488   1.578   5.733  0.0837  0.4877 -0.3519
  175MOL0     C23013   4.858   0.939   6.416  0.5411 -0.2264 -0.4443
  175MOL0     C23014   4.985   0.984   6.459  0.5122  0.2171  0.3469
  175MOL0     O23015   5.094   1.258   6.758  0.0341  0.4052 -0.5356
  175MOL0     C23016   5.359   1.354   6.755 -1.0434  0.2092  0.4018
  175MOL0     C23017   5.495   1.387   6.752  0.5342 -0.4109  1.2587
  175MOL0     N23018   6.104   1.568   6.348  0.5946 -0.0109 -0.1576
  175MOL0     N23019   6.191   1.624   6.266  0.1068 -1.1346 -0.0581
  175MOL0     C23020   7.491   2.059   6.527  0.6082 -0.1115  0.6420
  175MOL0     C23021   7.593   2.139   6.586 -0.0990  0.2888  0.3367
  175MOL0     C23022   7.855   2.371   6.862  0.0452 -0.3855 -0.2128
  175MOL0     C23023   7.929   2.283   6.944  1.0472 -0.2234 -0.2109
  175MOL0     C23024   8.051   2.333   7.000  0.0045 -0.0928 -0.0405
  175MOL0     C23025   8.080   2.474   6.998 -0.5624  0.4846 -0.0358
  175MOL0     O23026   8.194   2.532   7.052  0.4159  0.4282 -0.1110
  175MOL0     C23027   8.260   2.481   7.169  0.3537 -0.2489 -0.8743
  175MOL0     C23028   8.393   2.556   7.181 -0.4546 -0.6127  0.2104
  175MOL0     C23029   8.407   2.706   7.155  0.2750 -0.3771  0.3478
  175MOL0     C23030   8.364   2.805   7.271  0.6627 -0.2530 -0.2983
  175MOL0     C23031   8.214   2.791   7.288  0.3398  0.4718 -0.2218
  175MOL0     C23032   8.091   2.811   7.317 -0.0712 -0.2453 -0.1674
  175MOL0     C23033   8.000   2.559   6.916  0.3845  0.9898  0.4427
  175MOL0     C23034   7.891   2.505   6.844  0.7304 -0.6460  0.0816
  175MOL0     H23035   7.640   1.966   6.869  1.5865 -0.6749 -0.8647
  175MOL0     H23036   7.478   1.821   6.767  4.3337 -3.1110 -2.3980
  175MOL0     H23037   7.270   1.999   6.410 -0.9032 -0.1992 -0.5171
  175MOL0     H23038   7.169   1.982   6.559  2.1024  3.4538  0.1360
  175MOL0     H23039   7.148   1.743   6.459 -1.4019  0.4570  0.5567
  175MOL0     H23040   7.163   1.823   6.296 -4.3244 -2.7966 -1.0986
  175MOL0     H23041   6.964   1.963   6.426 -1.6588 -0.3376 -0.5263
  175MOL0     H23042   6.966   1.807   6.509  1.3465 -2.8246 -0.0287
  175MOL0     H23043   6.913   1.843   6.208 -1.6544 -0.7312 -0.1151
  175MOL0     H23044   6.957   1.690   6.288 -1.2720 -1.1186 -0.8508
  175MOL0     H23045   6.704   1.857   6.342 -0.7886  0.5361 -0.9297
  175MOL0     H23046   6.764   1.728   6.451  0.7190  2.1374 -0.2111
  175MOL0     H23047   6.750   1.574   6.236 -2.6612 -1.6643  0.9674
  175MOL0     H23048   6.672   1.708   6.154 -1.6783  0.0505 -0.2176
  175MOL0     H23049   6.558   1.515   6.272 -2.4815 -0.5203  0.4824
  175MOL0     H23050   6.579   1.612   6.417  2.1995  1.1161  0.2788
  175MOL0     H23051   6.438   1.691   6.162  1.6166 -0.0489 -0.4495
  175MOL0     H23052   6.452   1.800   6.297 -2.0631 -0.4693  0.5286
  175MOL0     H23053   6.385   1.558   6.518 -1.4573 -3.0977  1.7887
  175MOL0     H23054   6.096   1.552   6.678 -1.1242 -0.7075  0.3077
  175MOL0     H23055   6.211   1.420   6.633 -0.0174  0.1471  4.5987
  175MOL0     H23056   6.032   1.340   6.477  0.1447  0.7243  0.5744
  175MOL0     H23057   5.910   1.459   6.537 -0.7586  0.8057  0.8385
  175MOL0     H23058   6.028   1.235   6.698  1.0251 -0.3386 -0.9400
  175MOL0     H23059   5.938   1.380   6.764  0.3226 -1.8123  1.4964
  175MOL0     H23060   5.804   1.163   6.717  1.7743  2.1458  2.0844
  175MOL0     H23061   5.819   1.222   6.546 -0.3068  1.2887 -0.2593
  175MOL0     H23062   5.601   1.141   6.551  3.4122  2.5405  1.1995
  175MOL0     H23063   5.377   1.070   6.564  1.3670 -1.8223  2.7438
  175MOL0     H23064   4.895   1.141   6.748 -1.6255 -1.1427  1.6451
  175MOL0     H23065   4.670   1.090   6.652  0.0743  2.2441  0.9964
  175MOL0     H23066   4.558   1.135   6.485 -3.2015  2.5457 -0.8111
  175MOL0     H23067   4.429   1.014   6.469  0.4250 -0.3065  0.0394
  175MOL0     H23068   4.470   1.032   6.220 -1.0847  1.8417 -0.8437
  175MOL0     H23069   4.609   1.144   6.260 -0.5482  0.7186 -0.4606
  175MOL0     H23070   4.443   1.299   6.361  2.0214 -1.8055  0.7540
  175MOL0     H23071   4.317   1.182   6.341  0.4902 -1.3894 -2.2062
  175MOL0     H23072   4.439   1.207   6.084 -1.0882 -4.1450  0.7019
  175MOL0     H23073   4.274   1.242   6.134  1.4395 -2.8543  0.2423
  175MOL0     H23074   4.486   1.467   6.178 -0.7023  1.7149 -1.3697
  175MOL0     H23075   4.311   1.473   6.198 -2.0311 -1.6062  0.2900
  175MOL0     H23076   4.286   1.424   5.959 -0.8063  1.0332 -0.4227
  175MOL0     H23077   4.475   1.412   5.948  0.7223  0.5980  2.0298
  175MOL0     H23078   4.297   1.632   6.033 -0.8438 -2.3004  0.1541
  175MOL0     H23079   4.471   1.656   6.008  1.6550 -1.3944 -0.5656
  175MOL0     H23080   4.363   1.757   5.821 -0.4874 -0.7197  0.5411
  175MOL0     H23081   4.263   1.622   5.789 -2.3845  1.3004 -0.0088
  175MOL0     H23082   4.851   0.878   6.327 -2.1191 -1.3280  0.4100
  175MOL0     H23083   5.075   0.951   6.408  0.7869  2.3033 -0.6289
  175MOL0     H23084   5.286   1.412   6.810 -0.9937 -0.8897  1.6780
  175MOL0     H23085   5.516   1.484   6.797 -4.2716  0.2118  2.7454
  175MOL0     H23086   7.462   2.079   6.424  0.4186  1.9447  1.0492
  175MOL0     H23087   7.632   2.220   6.525 -2.6454  1.1025 -0.3462
  175MOL0     H23088   7.893   2.180   6.944 -3.8254  1.2289  1.0484
  175MOL0     H23089   8.124   2.266   7.044  0.1070 -0.0601 -0.1606
  175MOL0     H23090   8.273   2.372   7.170  0.3312 -0.2867 -2.5746
  175MOL0     H23091   8.200   2.519   7.253 -1.1496 -1.9013 -1.1333
  175MOL0     H23092   8.449   2.525   7.270 -2.3919 -1.9988  1.0081
  175MOL0     H23093   8.451   2.516   7.097  4.5434 -0.7102  3.2863
  175MOL0     H23094   8.347   2.738   7.070  0.0351  0.2300  0.7387
  175MOL0     H23095   8.511   2.733   7.134  0.4018 -0.2946  1.0361
  175MOL0     H23096   8.413   2.780   7.366 -2.3412  0.5628  1.6310
  175MOL0     H23097   8.389   2.908   7.247 -0.0509 -0.2155 -0.9207
  175MOL0     H23098   7.987   2.801   7.342 -0.5469 -0.8549 -2.1657
  175MOL0     H23099   8.028   2.663   6.907  0.2342  1.0359  0.5179
  175MOL0     H23100   7.830   2.558   6.771 -1.0236 -3.9065 -1.0247
  176MOL0     O23101   5.413   3.882   0.482  0.4833  0.0980 -0.0356
  176MOL0     C23102   5.394   3.861   0.606  0.6038  0.6490  0.5505
  176MOL0     O23103   5.274   3.805   0.651 -0.6247  0.5500 -0.4808
  176MOL0     C23104   5.191   3.734   0.565  0.6809 -0.5248  0.7836
  176MOL0     C23105   5.240   3.629   0.487 -0.4905 -0.0025  0.5584
  176MOL0     C23106   5.155   3.564   0.399  0.7779  0.2230 -0.0523
  176MOL0     C23107   5.018   3.595   0.394 -0.6517 -0.3592  1.4215
  176MOL0     O23108   4.940   3.528   0.307  0.5926  1.2252 -0.1264
  176MOL0     C23109   4.833   3.455   0.355 -0.2116  1.0343 -1.0389
  176MOL0     C23110   4.887   3.323   0.423 -0.1151 -0.3618 -0.9793
  176MOL0     C23111   4.776   3.224   0.474 -0.8766 -0.0885  0.4669
  176MOL0     C23112   4.842   3.102   0.526 -0.6689  0.2636  0.2485
  176MOL0     C23113   4.742   2.985   0.521  0.2229  0.2294  0.2863
  176MOL0     C23114   4.803   2.867   0.594  0.3468  1.1183 -0.1428
  176MOL0     C23115   4.729   2.723   0.564  0.9866  0.3397  0.1996
  176MOL0     C23116   4.577   2.730   0.556  0.2729  0.5677 -0.6656
  176MOL0     N23117   4.524   2.771   0.423  0.4120 -0.9952 -0.8139
  176MOL0     C23118   4.506   2.681   0.319 -0.4473  0.3629  0.0686
  176MOL0     C23119   4.433   2.748   0.229 -0.1602  0.6935  0.3144
  176MOL0     C23120   4.369   2.674   0.108  1.1269 -0.1972  1.0532
  176MOL0     C23121   4.231   2.729   0.063 -0.1117  0.2959 -0.3268
  176MOL0     C23122   4.117   2.696   0.157  0.6264 -0.4656 -0.1169
  176MOL0     C23123   3.982   2.719   0.102 -0.6135 -0.2638  0.7280
  176MOL0     O23124   3.895   2.723   0.209 -0.0040  0.4838 -0.0656
  176MOL0     C23125   3.771   2.782   0.185 -0.6828  0.4717  0.3081
  176MOL0     C23126   3.726   2.873   0.284 -0.1103 -0.5123  0.0871
  176MOL0     C23127   3.615   2.954   0.257 -0.7851 -0.8269 -0.0292
  176MOL0     C23128   3.555   2.960   0.128  0.0172 -0.0275 -0.5909
  176MOL0     C23129   3.429   3.039   0.102 -0.8447  0.0594 -0.1511
  176MOL0     O23130   3.327   2.979   0.029  0.6389 -0.1755 -1.1228
  176MOL0     C23131   3.202   3.050   0.023 -0.8772  0.1830 -0.6351
  176MOL0     C23132   3.186   3.160  -0.068  0.1586 -0.1804  0.5080
  176MOL0     C23133   3.063   3.231  -0.072 -0.1039  0.0923 -0.2248
  176MOL0     C23134   2.952   3.178  -0.006  0.2214 -0.1497  1.1932
  176MOL0     O23135   2.830   3.238  -0.006 -0.2274 -0.0468  0.1030
  176MOL0     C23136   2.813   3.378   0.020 -1.3231 -0.6224 -0.8012
  176MOL0     C23137   2.670   3.423   0.038 -0.4891  0.7306 -0.0885
  176MOL0     C23138   2.588   3.329   0.140 -0.0338  0.4767 -0.2202
  176MOL0     C23139   2.434   3.331   0.114  0.2814 -0.5046 -0.5518
  176MOL0     C23140   2.366   3.254   0.232 -0.9522 -0.1998  0.5929
  176MOL0     C23141   2.225   3.209   0.202 -0.4122  0.9606  0.3775
  176MOL0     C23142   2.165   3.137   0.323  0.2705 -0.4586 -0.2290
  176MOL0     C23143   2.106   3.236   0.420  0.5879  0.0532  1.7184
  176MOL0    Cl23144   2.030   3.163   0.559  0.0981  0.1673 -0.2452
  176MOL0     C23145   2.957   3.054   0.054  0.3549  0.6556  0.2005
  176MOL0     C23146   3.083   2.990   0.065 -0.3367 -0.0286  0.3814
  176MOL0     O23147   3.432   3.156   0.135  0.1107 -0.1009 -0.6574
  176MOL0     C23148   3.602   2.862   0.031 -0.0894 -0.3615 -0.4671
  176MOL0     C23149   3.709   2.781   0.061  0.6671  0.8137  0.3030
  176MOL0     N23150   4.408   2.875   0.275  0.5203 -0.3826  0.9424
  176MOL0     N23151   4.471   2.894   0.392  0.3573  0.0840  0.2471
  176MOL0     C23152   4.968   3.689   0.475  0.0321  0.2444  0.1195
  176MOL0     C23153   5.056   3.760   0.551  0.2963  0.3581 -0.2009
  176MOL0     C23154   5.503   3.878   0.708 -0.5206 -0.9785 -0.3576
  176MOL0     C23155   5.634   3.866   0.678 -0.3573  0.3014 -0.2437
  176MOL0     C23156   5.741   3.918   0.761  0.4203 -0.0704 -0.2139
  176MOL0     C23157   5.706   3.974   0.884  0.1246  0.7110 -0.4231
  176MOL0     O23158   5.800   4.034   0.950  0.4279 -0.8034 -0.3813
  176MOL0     C23159   5.901   3.939   0.997  0.1853 -0.0158  0.4074
  176MOL0     C23160   5.906   3.971   1.146 -0.6279 -0.0999  0.7792
  176MOL0     C23161   5.979   3.851   1.212 -0.2089  0.6380  0.0734
  176MOL0     C23162   5.967   3.866   1.365  0.3058  0.8953  0.4197
  176MOL0     C23163   6.084   3.798   1.434 -0.2125 -0.1258  0.8478
  176MOL0     C23164   6.178   3.755   1.501 -0.8973  0.7633  0.3254
  176MOL0     C23165   5.577   3.989   0.917  1.1790  0.9126  0.1750
  176MOL0     C23166   5.476   3.945   0.828  0.1501 -0.0814 -0.6183
  176MOL0     H23167   5.346   3.622   0.469 -0.3145 -1.0780  1.8509
  176MOL0     H23168   5.200   3.490   0.334  2.4869  1.6070 -0.5085
  176MOL0     H23169   4.773   3.430   0.267 -3.0286 -0.5015  1.1531
  176MOL0     H23170   4.772   3.515   0.423  1.7555  1.5544  0.3636
  176MOL0     H23171   4.950   3.339   0.511  0.9420 -4.3851 -0.8007
  176MOL0     H23172   4.947   3.269   0.350 -0.3086 -2.1068  0.0718
  176MOL0     H23173   4.708   3.205   0.391 -1.2524  1.3739  0.4058
  176MOL0     H23174   4.719   3.270   0.555 -1.9862  3.3322 -2.0401
  176MOL0     H23175   4.919   3.067   0.457 -0.5426 -2.0054  1.4662
  176MOL0     H23176   4.891   3.104   0.623 -2.0346 -3.4144  1.1872
  176MOL0     H23177   4.726   2.963   0.415  1.4775  0.7616 -0.0387
  176MOL0     H23178   4.639   3.000   0.556  0.6567 -2.6850  3.2320
  176MOL0     H23179   4.798   2.878   0.703  1.3904 -1.7430  0.2617
  176MOL0     H23180   4.910   2.868   0.572  0.0969 -0.5190 -1.6662
  176MOL0     H23181   4.759   2.672   0.472  2.0959 -0.2538  0.8811
  176MOL0     H23182   4.758   2.654   0.644  0.3955 -1.0046 -0.7210
  176MOL0     H23183   4.542   2.803   0.630  1.4946 -0.2751  0.7739
  176MOL0     H23184   4.532   2.638   0.594  0.4574  0.2605 -1.1892
  176MOL0     H23185   4.546   2.580   0.323  0.8333  0.8411  3.5487
  176MOL0     H23186   4.363   2.568   0.135  0.6275 -0.2423  0.7712
  176MOL0     H23187   4.429   2.688   0.018 -2.6238 -1.9969 -1.9663
  176MOL0     H23188   4.217   2.684  -0.035 -1.5184 -1.5133  0.6344
  176MOL0     H23189   4.235   2.838   0.065  3.6798  0.2714  0.4866
  176MOL0     H23190   4.126   2.592   0.190 -0.0338 -0.3932  0.3041
  176MOL0     H23191   4.124   2.757   0.248 -0.6523 -0.5297  0.0442
  176MOL0     H23192   3.952   2.651   0.022  0.4997  1.5446 -1.3425
  176MOL0     H23193   3.994   2.818   0.056 -0.7953 -0.0981  1.0387
  176MOL0     H23194   3.781   2.876   0.377  2.3148 -2.2440 -1.1673
  176MOL0     H23195   3.578   3.019   0.336 -0.4666 -0.7597  0.0647
  176MOL0     H23196   3.270   3.209  -0.116 -1.0422  2.3186  0.7783
  176MOL0     H23197   3.037   3.316  -0.135  0.0936  0.8959  0.7562
  176MOL0     H23198   2.861   3.434  -0.061  2.0457 -0.1675  1.2923
  176MOL0     H23199   2.872   3.396   0.111  0.9580 -2.6106 -1.7594
  176MOL0     H23200   2.622   3.420  -0.061  1.3990 -2.2953 -1.0731
  176MOL0     H23201   2.682   3.525   0.075  1.8165  0.5806 -0.2881
  176MOL0     H23202   2.612   3.370   0.239  4.2229 -1.7080 -0.1305
  176MOL0     H23203   2.621   3.225   0.141 -1.6661 -0.0587  0.5192
  176MOL0     H23204   2.395   3.434   0.114  0.6268 -0.3469  1.2890
  176MOL0     H23205   2.413   3.285   0.017  0.4020 -0.8877 -0.3967
  176MOL0     H23206   2.363   3.323   0.317 -1.5997 -0.2534  0.6172
  176MOL0     H23207   2.428   3.168   0.260 -0.7156  0.0548  0.8568
  176MOL0     H23208   2.227   3.139   0.117 -0.1385  0.4236  0.8229
  176MOL0     H23209   2.160   3.291   0.168 -0.8856  0.1395 -0.7788
  176MOL0     H23210   2.080   3.076   0.290  1.4346 -1.0539 -2.2757
  176MOL0     H23211   2.229   3.071   0.381 -0.8746  1.1949  3.1909
  176MOL0     H23212   2.037   3.292   0.356 -0.9425 -2.5521  0.9656
  176MOL0     H23213   2.161   3.316   0.471 -1.2285  0.7314  2.7090
  176MOL0     H23214   2.867   3.006   0.091 -2.0088  2.8897 -2.2781
  176MOL0     H23215   3.084   2.893   0.114 -0.6060 -0.1610  0.1296
  176MOL0     H23216   3.565   2.864  -0.071  1.2247 -1.2601 -0.9918
  176MOL0     H23217   3.730   2.699  -0.007 -1.5906 -1.8704  2.5937
  176MOL0     H23218   4.864   3.718   0.486 -0.2472 -0.7899  0.2293
  176MOL0     H23219   5.007   3.834   0.614  3.7430  0.4086  2.8023
  176MOL0     H23220   5.643   3.838   0.574 -0.6558 -0.1107 -0.1615
  176MOL0     H23221   5.842   3.893   0.731  0.4794 -3.2446  2.2007
  176MOL0     H23222   5.996   3.966   0.950  1.4095  4.2889  4.5720
  176MOL0     H23223   5.863   3.838   0.979 -0.6329  0.5419 -1.1996
  176MOL0     H23224   5.971   4.057   1.165  0.1849 -0.8376  1.4032
  176MOL0     H23225   5.809   3.974   1.196  0.1973  2.2304  2.4330
  176MOL0     H23226   6.083   3.852   1.179 -0.9940  4.4802 -3.0613
  176MOL0     H23227   5.934   3.756   1.182  0.3754  0.9548 -1.9529
  176MOL0     H23228   5.963   3.972   1.391 -0.4648  0.7884  0.7497
  176MOL0     H23229   5.875   3.824   1.404 -0.1740  3.1829  1.9189
  176MOL0     H23230   6.261   3.722   1.560  0.6531 -0.1297 -2.2095
  176MOL0     H23231   5.557   4.047   1.006 -2.8768  0.9884 -0.5973
  176MOL0     H23232   5.371   3.962   0.849  0.3453  1.0983 -0.5694
  177MOL0     O23233   5.705   6.073  10.681  0.1209  0.1278 -0.4093
  177MOL0     C23234   5.797   6.123  10.624 -0.4676 -0.2052 -0.1666
  177MOL0     O23235   5.791   6.233  10.543 -0.3631 -0.0213  0.7927
  177MOL0     C23236   5.669   6.299  10.540 -0.5021 -0.9036  0.1879
  177MOL0     C23237   5.679   6.442  10.577 -0.1879 -0.0614 -0.0015
  177MOL0     C23238   5.561   6.521  10.583 -0.2125  0.3089 -0.4132
  177MOL0     C23239   5.443   6.474  10.541  0.3596  0.2401  0.0538
  177MOL0     O23240   5.334   6.552  10.560  0.7077 -0.5634 -0.0266
  177MOL0     C23241   5.250   6.565  10.451 -0.2640  0.5190  0.7863
  177MOL0     C23242   5.191   6.702  10.445  0.4471  0.1801 -0.1925
  177MOL0     C23243   5.079   6.704  10.340 -0.2725  0.4182 -0.7885
  177MOL0     C23244   5.057   6.855  10.296  0.2771  0.1438 -0.0149
  177MOL0     C23245   4.947   6.873  10.192  0.0685  0.1909  0.2276
  177MOL0     C23246   4.933   7.008  10.130  0.0725 -0.0849 -0.7459
  177MOL0     C23247   4.873   7.107  10.231  0.0443 -0.5698 -0.8550
  177MOL0     C23248   4.723   7.101  10.231  0.3014  0.1647 -0.5794
  177MOL0     N23249   4.658   7.206  10.313 -0.3075 -0.1302  0.1662
  177MOL0     C23250   4.546   7.279  10.287 -0.1592  0.2854  0.8104
  177MOL0     C23251   4.526   7.346  10.393 -0.1511 -1.0884  0.0932
  177MOL0     C23252   4.406   7.443  10.414 -0.1227  0.0180 -0.3765
  177MOL0     C23253   4.476   7.582  10.422 -1.1153 -0.1462  1.3547
  177MOL0     C23254   4.382   7.692  10.453 -0.6616 -0.1692  0.6093
  177MOL0     C23255   4.457   7.826  10.466 -0.3241 -0.4961 -0.8950
  177MOL0     O23256   4.509   7.866  10.342  0.4231 -0.4102 -0.1335
  177MOL0     C23257   4.438   7.940  10.252  0.4420  0.7983  0.6723
  177MOL0     C23258   4.303   7.982  10.270 -0.2371 -0.1737  0.0676
  177MOL0     C23259   4.236   8.044  10.170  0.4316 -0.1074 -0.1867
  177MOL0     C23260   4.300   8.078  10.045 -0.6699  0.1866  0.3167
  177MOL0     C23261   4.229   8.136   9.937  0.1715  0.8266  0.1625
  177MOL0     O23262   4.145   8.233   9.982 -0.0712  0.2417  0.1365
  177MOL0     C23263   4.069   8.291   9.883 -0.1511 -0.2029  0.7755
  177MOL0     C23264   3.944   8.242   9.860 -0.1075  0.1945 -0.9929
  177MOL0     C23265   3.852   8.305   9.785  0.2040 -0.1281 -0.6036
  177MOL0     C23266   3.884   8.426   9.727 -0.7541  0.0528 -0.0708
  177MOL0     O23267   3.793   8.495   9.644 -0.0105  0.2713  0.6033
  177MOL0     C23268   3.685   8.425   9.590 -0.0902 -0.0190 -0.0341
  177MOL0     C23269   3.583   8.512   9.520 -0.3765 -0.1153 -0.5231
  177MOL0     C23270   3.493   8.583   9.607 -0.5696 -0.1371 -0.2478
  177MOL0     C23271   3.412   8.500   9.710 -0.1729 -0.6258  0.5019
  177MOL0     C23272   3.453   8.519   9.863  0.1864 -0.1090  0.1713
  177MOL0     C23273   3.399   8.413   9.966  0.2650 -0.3141  0.8569
  177MOL0     C23274   3.503   8.300   9.980 -0.7487  0.3409  0.9424
  177MOL0     C23275   3.625   8.310  10.071 -0.7506 -0.2475  0.4727
  177MOL0    Cl23276   3.611   8.188  10.208 -0.0577 -0.0311  0.3163
  177MOL0     C23277   4.012   8.475   9.744  0.2432 -0.3310 -0.0820
  177MOL0     C23278   4.109   8.414   9.824  0.8778  0.0311 -0.3914
  177MOL0     O23279   4.246   8.097   9.818 -0.3157 -0.0009  0.6892
  177MOL0     C23280   4.432   8.033  10.022 -0.1892 -0.1332  0.6129
  177MOL0     C23281   4.493   7.962  10.129 -0.3604  0.3529 -0.8276
  177MOL0     N23282   4.615   7.313  10.490  0.4247  0.1127 -0.4653
  177MOL0     N23283   4.701   7.234  10.436 -0.3479 -0.4758  0.5905
  177MOL0     C23284   5.435   6.343  10.493  0.0422 -0.1626  0.5966
  177MOL0     C23285   5.548   6.256  10.485  0.7212  0.2837  0.3785
  177MOL0     C23286   5.945   6.075  10.639 -0.1658 -0.1707 -0.1176
  177MOL0     C23287   5.966   5.942  10.680 -0.7300  0.3224 -0.3794
  177MOL0     C23288   6.090   5.880  10.667 -0.3729  0.0894 -0.3609
  177MOL0     C23289   6.206   5.955  10.627 -0.3359 -0.6278 -0.0010
  177MOL0     O23290   6.327   5.898  10.626 -0.3247 -0.2953  0.9485
  177MOL0     C23291   6.444   5.973  10.655 -0.9549  0.0328  0.0332
  177MOL0     C23292   6.536   5.981  10.526 -0.5845  1.1110 -0.2054
  177MOL0     C23293   6.674   5.938  10.564  0.4239  0.7954  0.3215
  177MOL0     C23294   6.761   5.931  10.439  0.2544 -0.5249 -0.8308
  177MOL0     C23295   6.905   5.933  10.479 -0.3446 -1.0426  0.0867
  177MOL0     C23296   7.022   5.946  10.507 -0.2507  0.3028  0.1676
  177MOL0     C23297   6.188   6.099  10.605 -0.3467  0.7214  0.9571
  177MOL0     C23298   6.056   6.157  10.599 -0.1965  0.0857  0.6872
  177MOL0     H23299   5.777   6.484  10.595 -0.8112  1.4421  0.0086
  177MOL0     H23300   5.573   6.623  10.619  4.2700  0.9549 -2.9351
  177MOL0     H23301   5.176   6.492  10.484 -0.9899  0.5387 -0.6912
  177MOL0     H23302   5.294   6.531  10.356  2.2787  0.5147  1.8652
  177MOL0     H23303   5.271   6.772  10.416  1.4590 -0.6509  0.5152
  177MOL0     H23304   5.167   6.731  10.547 -0.7568  1.3003 -0.7767
  177MOL0     H23305   4.994   6.656  10.388  0.7403  0.2998  0.9633
  177MOL0     H23306   5.107   6.646  10.252 -1.0539 -2.6404  0.8373
  177MOL0     H23307   5.033   6.909  10.387 -2.9118  2.1845 -1.8746
  177MOL0     H23308   5.148   6.904  10.258 -0.4478 -0.0578 -2.1261
  177MOL0     H23309   4.845   6.851  10.227  0.3055 -1.9867 -0.2957
  177MOL0     H23310   4.967   6.799  10.114 -1.4886  0.6704 -0.6592
  177MOL0     H23311   4.870   7.001  10.041 -0.6451 -0.3614 -0.2190
  177MOL0     H23312   5.033   7.041  10.100  1.8408 -2.3453  2.0909
  177MOL0     H23313   4.908   7.087  10.333 -2.3235  0.3385  0.1959
  177MOL0     H23314   4.907   7.206  10.198  0.9451 -0.5381  0.1099
  177MOL0     H23315   4.704   7.000  10.268  3.2482  0.6396  2.7266
  177MOL0     H23316   4.691   7.112  10.127 -2.4240  0.9129  0.2643
  177MOL0     H23317   4.487   7.259  10.198  2.8282 -0.3404 -1.2151
  177MOL0     H23318   4.357   7.415  10.507 -3.0254  4.1119 -0.3976
  177MOL0     H23319   4.336   7.438  10.330 -0.1187  0.4435 -0.4042
  177MOL0     H23320   4.527   7.608  10.329 -0.2380 -1.9044  1.3106
  177MOL0     H23321   4.557   7.580  10.495 -0.7079 -3.9103  1.0116
  177MOL0     H23322   4.306   7.706  10.375  0.7801  3.3331 -0.3842
  177MOL0     H23323   4.324   7.678  10.545 -1.2653  1.9910  0.6135
  177MOL0     H23324   4.542   7.814  10.534 -1.3912 -1.7787  0.2774
  177MOL0     H23325   4.389   7.894  10.518 -4.6799 -5.4217  0.6936
  177MOL0     H23326   4.260   7.955  10.366  0.4482  3.9717  1.7466
  177MOL0     H23327   4.130   8.062  10.182  0.6183  2.2208 -1.4593
  177MOL0     H23328   3.920   8.148   9.908  1.5874 -0.0079 -0.4944
  177MOL0     H23329   3.755   8.255   9.782 -0.8764  1.8930 -0.6683
  177MOL0     H23330   3.636   8.358   9.661 -0.2454  0.0281 -0.0954
  177MOL0     H23331   3.733   8.369   9.508 -1.5336  0.7706 -1.4824
  177MOL0     H23332   3.526   8.460   9.442  2.2575  0.3366 -2.9099
  177MOL0     H23333   3.645   8.587   9.469  0.2806 -0.4127 -0.1785
  177MOL0     H23334   3.427   8.621   9.529  0.9455 -0.1894 -1.6118
  177MOL0     H23335   3.551   8.663   9.655  1.7548 -2.5965  1.3483
  177MOL0     H23336   3.305   8.521   9.700 -0.2534 -0.8867  0.8143
  177MOL0     H23337   3.432   8.395   9.684  2.5435 -0.1590  0.4657
  177MOL0     H23338   3.423   8.619   9.897 -1.3132 -1.1991  2.3315
  177MOL0     H23339   3.562   8.509   9.868  0.2027 -0.9193 -1.3715
  177MOL0     H23340   3.306   8.379   9.919  2.3241 -1.4939 -2.7660
  177MOL0     H23341   3.385   8.456  10.066 -2.1455  0.4354  0.2483
  177MOL0     H23342   3.451   8.214  10.023  0.1196 -0.8148 -0.2344
  177MOL0     H23343   3.538   8.254   9.888 -2.6636  1.8818 -0.6447
  177MOL0     H23344   3.634   8.415  10.101  0.8009  0.7752 -3.0954
  177MOL0     H23345   3.718   8.291  10.016  1.3419  1.0680  3.3163
  177MOL0     H23346   4.061   8.564   9.706  3.0234 -1.5156  0.4499
  177MOL0     H23347   4.193   8.469   9.864 -0.5550  2.2510 -0.2756
  177MOL0     H23348   4.479   8.046   9.926  0.7171 -1.7348  0.8108
  177MOL0     H23349   4.597   7.931  10.123 -0.5770 -0.4391 -0.7303
  177MOL0     H23350   5.339   6.300  10.469  1.0576 -2.0969 -0.2244
  177MOL0     H23351   5.540   6.154  10.450 -0.7611  0.6413 -0.3802
  177MOL0     H23352   5.869   5.901  10.709 -0.8219 -0.3323 -1.5524
  177MOL0     H23353   6.093   5.775  10.695  0.4195 -0.4885 -2.4613
  177MOL0     H23354   6.491   5.928  10.743 -1.1369 -1.0714 -0.4095
  177MOL0     H23355   6.420   6.075  10.687  1.8663  0.4871  1.0261
  177MOL0     H23356   6.503   5.921  10.440  1.4950  1.9069 -1.6331
  177MOL0     H23357   6.541   6.083  10.488  2.0663  0.6928 -1.2352
  177MOL0     H23358   6.676   5.842  10.617 -2.7443  1.8161  2.5906
  177MOL0     H23359   6.727   6.000  10.637  0.5031  0.4469  0.5596
  177MOL0     H23360   6.735   5.838  10.387 -1.8230 -0.6817  0.3736
  177MOL0     H23361   6.753   6.015  10.369  0.5775  0.2725  0.0714
  177MOL0     H23362   7.127   5.964  10.520 -0.4235  0.5218  1.3504
  177MOL0     H23363   6.268   6.158  10.563 -0.3622 -0.7046 -1.2372
  177MOL0     H23364   6.040   6.256  10.557  1.0665 -1.1088 -3.0630
  178MOL0     O23365   2.438   3.446   9.200  0.2491  0.3725  0.0865
  178MOL0     C23366   2.487   3.553   9.186 -0.1013  0.6656 -0.1590
  178MOL0     O23367   2.462   3.654   9.274 -0.4974 -0.4672  0.4501
  178MOL0     C23368   2.350   3.639   9.361 -0.7363 -0.2186  0.6757
  178MOL0     C23369   2.354   3.570   9.481 -0.4661  0.1812 -0.1028
  178MOL0     C23370   2.243   3.560   9.556  0.9356 -0.0041 -0.2814
  178MOL0     C23371   2.128   3.632   9.528 -1.0993  1.2113 -0.2296
  178MOL0     O23372   2.018   3.601   9.612  0.3514  0.8987  0.0360
  178MOL0     C23373   1.892   3.679   9.592 -1.0884  0.0858  0.1882
  178MOL0     C23374   1.807   3.629   9.703  0.0768 -0.3249 -0.9960
  178MOL0     C23375   1.672   3.702   9.716  0.7241 -0.9470  0.5024
  178MOL0     C23376   1.621   3.665   9.859 -0.4089  0.5498  0.2987
  178MOL0     C23377   1.497   3.737   9.920 -0.3286  0.2895 -0.3755
  178MOL0     C23378   1.386   3.754   9.813  0.3237 -0.5000 -0.2121
  178MOL0     C23379   1.253   3.804   9.877 -0.2276 -0.4395 -0.7484
  178MOL0     C23380   1.116   3.741   9.828  0.2612  0.4838  0.7520
  178MOL0     N23381   1.004   3.800   9.908 -0.4214 -0.5361  0.2793
  178MOL0     C23382   0.929   3.912   9.876 -0.3740  0.5241 -0.4054
  178MOL0     C23383   0.851   3.924   9.987  0.1670  0.5412  1.5621
  178MOL0     C23384   0.744   4.037   9.993  0.0545 -0.5312  0.0825
  178MOL0     C23385   0.757   4.137  10.103  0.0923  0.7124  0.1707
  178MOL0     C23386   0.751   4.080  10.243  0.9518  0.5605 -0.5134
  178MOL0     C23387   0.617   3.991  10.259  0.2001 -0.5896  0.3636
  178MOL0     O23388   0.634   3.927  10.388  0.2777 -0.0029 -0.3709
  178MOL0     C23389   0.523   3.861  10.429  0.2799 -0.2375  0.1748
  178MOL0     C23390   0.405   3.857  10.355 -0.2827 -0.1681 -0.3227
  178MOL0     C23391   0.286   3.805  10.410 -0.2560  0.2356 -0.6839
  178MOL0     C23392   0.283   3.737  10.538 -0.9917  0.0981 -0.3583
  178MOL0     C23393   0.161   3.672  10.589 -0.0499 -0.4932 -0.2464
  178MOL0     O23394   0.164   3.614  10.715 -0.4136 -0.0965 -0.6511
  178MOL0     C23395   0.052   3.566  10.770 -0.1377 -0.3580  0.4830
  178MOL0     C23396   0.068   3.459  10.854 -0.6138 -0.3644 -1.1210
  178MOL0     C23397  -0.044   3.410  10.926 -0.7376 -0.0619  0.0931
  178MOL0     C23398  -0.172   3.459  10.899  0.3626 -0.1882  0.3862
  178MOL0     O23399  -0.282   3.393  10.940  0.2509  0.0969 -0.3814
  178MOL0     C23400  -0.309   3.399  11.081 -0.2288 -0.8158  0.4337
  178MOL0     C23401  -0.456   3.426  11.102 -0.1620  0.0003  0.0569
  178MOL0     C23402  -0.503   3.345  11.221 -0.8406  0.1078  0.1825
  178MOL0     C23403  -0.654   3.357  11.238 -0.4809  0.3472 -0.4878
  178MOL0     C23404  -0.709   3.281  11.349 -0.4748 -0.1986  0.0058
  178MOL0     C23405  -0.850   3.301  11.393  0.5900 -0.1358 -0.6534
  178MOL0     C23406  -0.878   3.439  11.456 -0.2402 -0.0268 -0.5766
  178MOL0     C23407  -1.021   3.485  11.466  1.2092  0.0070  0.5176
  178MOL0    Cl23408  -1.134   3.444  11.325  0.1409  0.1886  0.1255
  178MOL0     C23409  -0.182   3.571  10.818  0.5008  0.1201  0.3010
  178MOL0     C23410  -0.070   3.627  10.755  0.4826 -0.4461  0.1158
  178MOL0     O23411   0.072   3.658  10.508  0.9928  0.3485 -0.0628
  178MOL0     C23412   0.401   3.735  10.602 -0.5643  0.0474 -0.3466
  178MOL0     C23413   0.522   3.798  10.556  0.5880 -0.1753  0.0338
  178MOL0     N23414   0.895   3.840  10.086 -0.4019  0.4391 -0.5697
  178MOL0     N23415   0.971   3.754  10.027 -0.0440  0.2325  0.1723
  178MOL0     C23416   2.120   3.708   9.408 -0.3064 -0.4303 -0.7984
  178MOL0     C23417   2.228   3.705   9.325  0.0420  0.9375  0.2272
  178MOL0     C23418   2.578   3.572   9.069 -0.4334 -0.1232 -0.4849
  178MOL0     C23419   2.563   3.499   8.946  0.5969  0.4358 -0.8637
  178MOL0     C23420   2.644   3.521   8.838 -0.0203 -0.1839 -0.5931
  178MOL0     C23421   2.741   3.624   8.837 -0.5056  0.5758 -0.1126
  178MOL0     O23422   2.800   3.644   8.713  1.0202 -0.3685 -0.2989
  178MOL0     C23423   2.929   3.714   8.707  0.5416  0.4917  0.1893
  178MOL0     C23424   3.049   3.618   8.671 -0.1994  0.0406 -0.9766
  178MOL0     C23425   3.181   3.688   8.670  0.1608  0.0035  1.1344
  178MOL0     C23426   3.298   3.613   8.662  0.0884  1.0396  0.6206
  178MOL0     C23427   3.322   3.549   8.528  0.1776  0.2652  0.6150
  178MOL0     C23428   3.346   3.491   8.422 -0.3290  0.0709 -0.0080
  178MOL0     C23429   2.760   3.696   8.955  0.2624 -0.8370  0.3702
  178MOL0     C23430   2.672   3.670   9.067 -1.1451 -1.0368 -0.0969
  178MOL0     H23431   2.444   3.519   9.512 -0.5910  1.1789  2.0746
  178MOL0     H23432   2.255   3.521   9.657  0.7127 -3.2344 -1.3988
  178MOL0     H23433   1.836   3.642   9.506 -1.0010 -0.7281  0.4759
  178MOL0     H23434   1.924   3.781   9.572  4.4945 -1.8886 -3.1570
  178MOL0     H23435   1.870   3.651   9.790  1.0899 -2.9514 -0.9690
  178MOL0     H23436   1.795   3.521   9.690 -0.9835 -0.1254 -1.8053
  178MOL0     H23437   1.603   3.695   9.632  0.7945 -2.3385  0.5509
  178MOL0     H23438   1.697   3.808   9.725  0.0928 -0.6956 -0.6071
  178MOL0     H23439   1.593   3.560   9.840  0.7966  0.0839  0.9847
  178MOL0     H23440   1.699   3.674   9.935  0.9277  1.6653 -1.1647
  178MOL0     H23441   1.525   3.838   9.953 -2.8235  1.2380 -0.9120
  178MOL0     H23442   1.462   3.678  10.005  1.2771  1.5633  1.2553
  178MOL0     H23443   1.365   3.661   9.759  1.0053 -0.2536 -0.9216
  178MOL0     H23444   1.419   3.832   9.744  2.6903 -1.0637  0.1861
  178MOL0     H23445   1.258   3.784   9.984 -1.8927 -0.5585 -0.6783
  178MOL0     H23446   1.247   3.910   9.847  0.5357 -0.7426 -2.0482
  178MOL0     H23447   1.120   3.633   9.844  3.7116  0.2477 -0.7118
  178MOL0     H23448   1.117   3.755   9.719  5.7988 -1.7663  0.1606
  178MOL0     H23449   0.926   3.992   9.802  1.3815  1.8638  0.8665
  178MOL0     H23450   0.643   3.996   9.981 -1.0523  2.3258 -1.2266
  178MOL0     H23451   0.755   4.100   9.905 -1.7654 -0.3645 -0.0603
  178MOL0     H23452   0.682   4.215  10.091 -1.2062 -0.3853  0.9029
  178MOL0     H23453   0.857   4.181  10.091  0.4999 -0.4525 -1.0448
  178MOL0     H23454   0.839   4.026  10.279 -0.7295 -1.9599  0.0607
  178MOL0     H23455   0.739   4.163  10.314  2.2954 -0.0164  0.4349
  178MOL0     H23456   0.605   3.917  10.178  0.3554  0.3557 -0.5406
  178MOL0     H23457   0.539   4.067  10.250  2.2334  1.4039 -2.0163
  178MOL0     H23458   0.404   3.895  10.254 -4.1772  1.5087  0.1875
  178MOL0     H23459   0.200   3.810  10.345 -0.1894  1.8570 -0.6903
  178MOL0     H23460   0.166   3.418  10.880  1.3625  3.5609 -1.7022
  178MOL0     H23461  -0.035   3.333  11.001 -0.3708  1.1312  1.2980
  178MOL0     H23462  -0.243   3.469  11.132  1.1470  0.0477 -2.3211
  178MOL0     H23463  -0.291   3.294  11.107  0.4485 -1.1887 -1.3882
  178MOL0     H23464  -0.508   3.387  11.013  2.8265  0.0610 -1.8476
  178MOL0     H23465  -0.468   3.535  11.110  1.1983  0.3163 -1.5573
  178MOL0     H23466  -0.466   3.389  11.314  0.8458 -0.6608 -0.0821
  178MOL0     H23467  -0.489   3.236  11.221 -1.8224 -0.0283  0.6746
  178MOL0     H23468  -0.676   3.462  11.257 -0.8543  0.3082 -0.7152
  178MOL0     H23469  -0.715   3.329  11.152  0.0812 -2.8578  0.0388
  178MOL0     H23470  -0.634   3.291  11.427  0.7253  4.0418 -1.4229
  178MOL0     H23471  -0.712   3.177  11.313 -3.9339 -0.6536  1.1975
  178MOL0     H23472  -0.879   3.223  11.465 -1.6330  1.0752 -0.1325
  178MOL0     H23473  -0.914   3.287  11.305  1.7106  4.0579 -2.3977
  178MOL0     H23474  -0.838   3.443  11.558 -1.2119  1.3426 -0.2093
  178MOL0     H23475  -0.833   3.523  11.402 -0.6423  2.0790  2.1048
  178MOL0     H23476  -1.029   3.594  11.477  1.0841 -0.0279  0.7684
  178MOL0     H23477  -1.063   3.441  11.556  0.6108 -0.7135 -0.0978
  178MOL0     H23478  -0.285   3.599  10.799  0.6037  1.4800  1.5116
  178MOL0     H23479  -0.084   3.708  10.684  2.3717  0.6818  0.9642
  178MOL0     H23480   0.407   3.679  10.695 -0.5351  2.3516  1.1243
  178MOL0     H23481   0.618   3.787  10.606  0.4015 -0.7869  0.2628
  178MOL0     H23482   2.028   3.760   9.383 -1.2733 -1.7352 -0.0876
  178MOL0     H23483   2.236   3.763   9.233 -0.6071  0.9169  0.1538
  178MOL0     H23484   2.490   3.419   8.942  2.4574 -1.4400  0.4141
  178MOL0     H23485   2.624   3.469   8.746 -0.1100 -0.5959 -0.3440
  178MOL0     H23486   2.951   3.786   8.786  1.5353  0.3916  0.0253
  178MOL0     H23487   2.922   3.780   8.620  1.4583  0.0706 -0.2225
  178MOL0     H23488   3.064   3.547   8.754  0.9862  1.2015 -0.1610
  178MOL0     H23489   3.032   3.570   8.574  2.4776 -0.9995 -1.0112
  178MOL0     H23490   3.187   3.749   8.761 -1.8009  2.5439 -0.2872
  178MOL0     H23491   3.167   3.758   8.586  0.2547 -2.3564 -0.9621
  178MOL0     H23492   3.381   3.680   8.685  0.8778  1.6934 -3.4427
  178MOL0     H23493   3.281   3.537   8.739 -3.3634  1.7426  0.7226
  178MOL0     H23494   3.376   3.453   8.327  1.6731  1.2302  0.0953
  178MOL0     H23495   2.843   3.765   8.958 -0.6220  0.2277  1.3005
  178MOL0     H23496   2.677   3.733   9.155 -3.4759 -0.7438 -0.1224
  179MOL0     O23497   7.062  10.219   3.284 -0.1351  0.2953 -0.5436
  179MOL0     C23498   7.057  10.186   3.406 -0.6126 -0.1053  0.3031
  179MOL0     O23499   6.980  10.230   3.498  0.3964 -0.2215  0.3673
  179MOL0     C23500   6.871  10.300   3.448  0.0186  0.2260  0.7937
  179MOL0     C23501   6.775  10.231   3.374 -0.6163 -0.2104  0.5875
  179MOL0     C23502   6.652  10.288   3.345  0.0413 -0.1619 -0.4807
  179MOL0     C23503   6.618  10.424   3.389  0.0969  0.7008 -0.4800
  179MOL0     O23504   6.490  10.473   3.373 -0.2638 -0.1026  0.2344
  179MOL0     C23505   6.484  10.610   3.341 -0.3306 -0.1599 -0.5409
  179MOL0     C23506   6.411  10.679   3.454 -1.1218  0.9967  0.6145
  179MOL0     C23507   6.337  10.804   3.409  0.9232 -0.9112  0.7003
  179MOL0     C23508   6.237  10.844   3.515  0.3434 -0.0626  1.4654
  179MOL0     C23509   6.161  10.973   3.472  0.1385  0.1814  0.7948
  179MOL0     C23510   6.072  11.037   3.579 -0.2070  0.0876  0.0801
  179MOL0     C23511   6.033  11.182   3.530 -0.3192 -0.1410  0.2570
  179MOL0     C23512   5.923  11.243   3.634 -0.1795  0.1327 -0.8753
  179MOL0     N23513   5.796  11.184   3.600  0.2356 -0.0332 -0.4151
  179MOL0     C23514   5.710  11.127   3.690  0.7552  0.4673  0.3677
  179MOL0     C23515   5.584  11.130   3.630 -0.7468 -0.6989  0.3109
  179MOL0     C23516   5.457  11.075   3.696 -0.6072 -0.3873 -0.1895
  179MOL0     C23517   5.438  11.153   3.823  0.0618  0.1208  0.5880
  179MOL0     C23518   5.348  11.095   3.925 -0.0234  1.0687 -0.6432
  179MOL0     C23519   5.205  11.116   3.870 -0.5231 -0.0938 -0.1511
  179MOL0     O23520   5.107  11.061   3.958 -0.1559 -0.6613 -0.3448
  179MOL0     C23521   4.980  11.048   3.908  0.1573 -0.0223  0.2155
  179MOL0     C23522   4.883  11.008   3.998 -0.5317 -0.9576 -0.5913
  179MOL0     C23523   4.750  11.000   3.967 -0.0804  0.1158  0.5775
  179MOL0     C23524   4.705  11.034   3.842  0.6055 -1.0749  0.7089
  179MOL0     C23525   4.569  11.027   3.792 -0.0168  0.3436 -0.4056
  179MOL0     O23526   4.544  11.046   3.664 -0.0502  0.9657 -1.0668
  179MOL0     C23527   4.420  11.045   3.608 -0.2161 -0.2182  0.1039
  179MOL0     C23528   4.299  10.984   3.657 -0.6781 -0.8590  0.4220
  179MOL0     C23529   4.186  10.981   3.577  0.2027  0.5720 -1.4489
  179MOL0     C23530   4.188  11.034   3.452  0.1224  0.0015 -0.2664
  179MOL0     O23531   4.076  11.045   3.380  0.0475  0.0372  0.2588
  179MOL0     C23532   3.953  10.993   3.435 -0.6440  0.0240  0.0437
  179MOL0     C23533   3.832  11.004   3.337 -0.4955 -0.8425 -0.4642
  179MOL0     C23534   3.882  11.009   3.194 -0.2612 -0.0497 -0.4322
  179MOL0     C23535   3.927  10.869   3.157  0.2688 -1.4629 -0.0271
  179MOL0     C23536   3.823  10.753   3.152 -0.6950 -0.5345  0.4246
  179MOL0     C23537   3.862  10.667   3.031 -0.2929 -0.4188  0.2420
  179MOL0     C23538   3.993  10.586   3.054 -0.6774  0.0151 -0.4573
  179MOL0     C23539   4.024  10.514   2.932 -0.3822  0.1719 -0.1071
  179MOL0    Cl23540   4.200  10.462   2.940  0.1043 -0.2703  0.4142
  179MOL0     C23541   4.301  11.101   3.407 -0.0016  0.2908 -0.0488
  179MOL0     C23542   4.423  11.102   3.477 -0.7519 -0.2392  0.6662
  179MOL0     O23543   4.485  11.000   3.879  0.1008 -0.9036 -0.2706
  179MOL0     C23544   4.803  11.084   3.754  0.3743  0.4197  1.0237
  179MOL0     C23545   4.938  11.085   3.783  0.7370  0.4209  0.3190
  179MOL0     N23546   5.600  11.177   3.505 -0.3796 -0.6913  0.8127
  179MOL0     N23547   5.724  11.211   3.481  0.1829 -0.1013 -0.6133
  179MOL0     C23548   6.704  10.480   3.474 -0.7052  0.2058 -0.1435
  179MOL0     C23549   6.828  10.423   3.502  0.4626  0.4325 -0.1014
  179MOL0     C23550   7.170  10.092   3.450 -0.5147  0.3238 -0.4777
  179MOL0     C23551   7.292  10.076   3.380 -0.6121 -0.7893 -0.3895
  179MOL0     C23552   7.385   9.976   3.417  0.1224  0.5229 -1.0751
  179MOL0     C23553   7.376   9.903   3.532 -0.1894  0.1827 -0.3728
  179MOL0     O23554   7.471   9.806   3.557 -0.2837  0.0575  0.0670
  179MOL0     C23555   7.495   9.772   3.688 -0.8362  0.0654  0.1155
  179MOL0     C23556   7.562   9.896   3.767  0.4982  0.6364  0.8492
  179MOL0     C23557   7.638   9.852   3.891 -0.0588  0.3348 -1.1863
  179MOL0     C23558   7.790   9.842   3.882 -0.4504  0.4896 -1.1340
  179MOL0     C23559   7.871   9.960   3.897  0.8130  0.6364 -0.4417
  179MOL0     C23560   7.962  10.047   3.922 -0.3235  0.6978  0.7735
  179MOL0     C23561   7.274   9.942   3.616  0.5684 -0.1422  0.7627
  179MOL0     C23562   7.170  10.025   3.575  0.0812 -0.8436  1.1670
  179MOL0     H23563   6.793  10.128   3.346 -5.1090 -2.0679  3.4922
  179MOL0     H23564   6.584  10.224   3.289  0.0782 -3.2905  2.7044
  179MOL0     H23565   6.417  10.627   3.256  0.4417 -1.9524 -1.5875
  179MOL0     H23566   6.581  10.660   3.332 -1.0008  0.9386 -2.1739
  179MOL0     H23567   6.474  10.681   3.544  0.2099 -1.5062 -0.1555
  179MOL0     H23568   6.329  10.612   3.482 -2.7292  3.0660  1.1042
  179MOL0     H23569   6.281  10.792   3.316 -0.7874 -3.3837  1.9041
  179MOL0     H23570   6.413  10.880   3.391  3.4568 -3.3659  0.3057
  179MOL0     H23571   6.171  10.758   3.524 -1.1610  1.0992  1.8686
  179MOL0     H23572   6.294  10.855   3.607  1.9004 -2.5036  0.8863
  179MOL0     H23573   6.098  10.958   3.384  0.4257  0.4087  0.5477
  179MOL0     H23574   6.238  11.049   3.455 -2.5032  2.5268 -1.9756
  179MOL0     H23575   6.136  11.041   3.667  0.5930 -1.7254 -0.3788
  179MOL0     H23576   5.979  10.981   3.593 -0.9505  1.0053 -0.9316
  179MOL0     H23577   6.119  11.249   3.526 -0.8451  0.7906  2.7838
  179MOL0     H23578   6.002  11.168   3.426  2.0505 -0.9576 -0.3868
  179MOL0     H23579   5.901  11.350   3.623  1.5503  0.3998 -2.1726
  179MOL0     H23580   5.952  11.224   3.738  1.5542  2.1971 -0.9112
  179MOL0     H23581   5.733  11.081   3.786  0.1372 -0.8259 -0.0744
  179MOL0     H23582   5.475  10.971   3.725  0.2286 -0.4036 -0.7204
  179MOL0     H23583   5.372  11.075   3.628 -0.5960  1.0481 -0.2389
  179MOL0     H23584   5.401  11.253   3.797  1.6606  0.8093  0.8358
  179MOL0     H23585   5.538  11.164   3.867 -0.2697  0.3316  1.2909
  179MOL0     H23586   5.370  10.990   3.946 -2.0129  1.1277  2.3096
  179MOL0     H23587   5.358  11.139   4.024  1.5872  1.0925 -0.7901
  179MOL0     H23588   5.213  11.066   3.773  6.3956  0.8325 -0.5381
  179MOL0     H23589   5.192  11.224   3.858  1.2967  0.0277 -1.3733
  179MOL0     H23590   4.913  10.995   4.101 -1.3599  1.8408  0.0856
  179MOL0     H23591   4.691  10.996   4.059  0.1912  0.6360  0.7831
  179MOL0     H23592   4.301  10.948   3.759  0.2283  1.2139  1.1870
  179MOL0     H23593   4.104  10.924   3.621  1.5721 -1.0097 -0.8157
  179MOL0     H23594   3.921  11.044   3.526  2.2840  1.6571  0.2615
  179MOL0     H23595   3.959  10.889   3.470  0.2411 -0.3465 -1.1387
  179MOL0     H23596   3.770  11.090   3.362  1.9555  1.0918 -0.5997
  179MOL0     H23597   3.767  10.916   3.345  0.4981 -1.7507 -1.7881
  179MOL0     H23598   3.961  11.083   3.180 -1.3226  1.2370  0.2168
  179MOL0     H23599   3.795  11.032   3.133  0.4778 -0.3880 -1.6553
  179MOL0     H23600   3.978  10.876   3.060 -0.6542  1.1009 -0.4044
  179MOL0     H23601   3.993  10.838   3.238 -0.0474 -0.8136  0.4837
  179MOL0     H23602   3.721  10.790   3.144 -0.9107 -1.3406 -0.7856
  179MOL0     H23603   3.840  10.696   3.244 -1.8519 -3.5988 -1.1347
  179MOL0     H23604   3.867  10.737   2.947 -0.5709  1.2489  1.5575
  179MOL0     H23605   3.781  10.597   3.007 -1.7243  0.3158  2.6106
  179MOL0     H23606   4.079  10.650   3.077  0.5957 -1.3649 -1.2488
  179MOL0     H23607   3.987  10.515   3.136  0.3874 -1.7614 -1.8461
  179MOL0     H23608   4.017  10.581   2.846 -2.2975 -1.4530 -1.3179
  179MOL0     H23609   3.963  10.425   2.914  1.0099 -1.3418  2.1326
  179MOL0     H23610   4.292  11.160   3.316  0.9267  1.5896  0.6606
  179MOL0     H23611   4.509  11.155   3.438 -0.0763 -1.5004  0.3612
  179MOL0     H23612   4.781  11.120   3.654  1.9995  3.3314  1.6083
  179MOL0     H23613   4.994  11.110   3.694 -1.9191  2.3540 -0.9342
  179MOL0     H23614   6.675  10.576   3.516  0.5969 -0.4932  2.6025
  179MOL0     H23615   6.890  10.475   3.574  0.5158  3.1198 -1.9325
  179MOL0     H23616   7.311  10.126   3.285  0.1606  1.9158  1.0861
  179MOL0     H23617   7.471   9.953   3.355  1.2326 -1.3955  1.0422
  179MOL0     H23618   7.554   9.680   3.689  0.3524  0.7953  0.7770
  179MOL0     H23619   7.406   9.754   3.748 -1.0940  1.4409  0.1773
  179MOL0     H23620   7.631   9.937   3.693  0.4735  0.0776  0.5046
  179MOL0     H23621   7.488   9.972   3.795  0.3091  1.1960 -1.0329
  179MOL0     H23622   7.600   9.753   3.917 -3.2209  1.5538 -0.7142
  179MOL0     H23623   7.624   9.921   3.975 -2.1640  0.9703 -2.0026
  179MOL0     H23624   7.821   9.780   3.966 -0.5480 -0.1072 -1.5323
  179MOL0     H23625   7.830   9.775   3.805 -1.7081 -2.6354  0.7616
  179MOL0     H23626   8.039  10.119   3.940  0.8583 -0.3487  0.0582
  179MOL0     H23627   7.253   9.886   3.706 -1.4548  0.4271  0.6989
  179MOL0     H23628   7.090  10.041   3.647 -2.3642  1.5014 -1.8099
  180MOL0     O23629   9.681   1.654   9.538  0.4321 -0.0636  0.0505
  180MOL0     C23630   9.706   1.672   9.426 -0.1554  0.1119 -1.3389
  180MOL0     O23631   9.622   1.732   9.334  0.1865 -0.6208  0.4176
  180MOL0     C23632   9.501   1.788   9.375  0.2863 -0.9837  1.0301
  180MOL0     C23633   9.395   1.777   9.274  0.3687  1.0561  0.8464
  180MOL0     C23634   9.258   1.801   9.311 -0.3686 -0.1815  0.5166
  180MOL0     C23635   9.229   1.852   9.433  0.5264  0.1734  0.5244
  180MOL0     O23636   9.106   1.868   9.495 -0.4190  0.4638  0.8437
  180MOL0     C23637   8.978   1.876   9.427  0.8448 -0.4999  0.3373
  180MOL0     C23638   8.874   1.881   9.536  0.2483 -0.5602 -0.5443
  180MOL0     C23639   8.732   1.874   9.481  1.0519  0.0073 -0.4108
  180MOL0     C23640   8.701   1.743   9.385 -1.2962  0.0626  0.0288
  180MOL0     C23641   8.548   1.746   9.346 -0.6486  0.1034  0.7060
  180MOL0     C23642   8.503   1.611   9.297 -0.8486 -0.3254  0.0360
  180MOL0     C23643   8.510   1.578   9.145  0.3574  0.5802  0.4688
  180MOL0     C23644   8.619   1.479   9.091  0.2016 -0.2598  0.8902
  180MOL0     N23645   8.608   1.343   9.150 -0.0949 -0.1037 -0.0118
  180MOL0     C23646   8.683   1.285   9.256 -0.0519  0.4318  0.3179
  180MOL0     C23647   8.660   1.148   9.236 -0.0323 -1.5517 -0.2445
  180MOL0     C23648   8.739   1.048   9.311  1.3026 -0.0035  0.7752
  180MOL0     C23649   8.890   1.054   9.295 -0.1489  0.3106 -0.8005
  180MOL0     C23650   8.968   0.926   9.338  0.4328  0.4583 -0.8923
  180MOL0     C23651   9.124   0.943   9.348 -1.0477 -0.1534 -0.0606
  180MOL0     O23652   9.180   0.945   9.210  0.0820 -0.1645  0.6516
  180MOL0     C23653   9.317   0.943   9.195 -0.3843 -0.8187  0.6873
  180MOL0     C23654   9.405   0.894   9.296  0.6660  0.2843  0.2080
  180MOL0     C23655   9.545   0.882   9.267  0.2112 -0.1317 -1.1000
  180MOL0     C23656   9.600   0.930   9.154  0.3409 -0.2950 -0.7248
  180MOL0     C23657   9.750   0.924   9.127 -0.1448 -0.1724  0.5732
  180MOL0     O23658   9.842   0.904   9.230  0.7822 -0.5119  0.1946
  180MOL0     C23659   9.977   0.920   9.204  0.0808  1.3216  0.0565
  180MOL0     C23660  10.041   1.042   9.199  0.1640 -0.0396  0.0617
  180MOL0     C23661  10.178   1.060   9.182  1.0973  0.4579  0.1517
  180MOL0     C23662  10.259   0.947   9.174 -0.2522  0.0024  0.3292
  180MOL0     O23663  10.400   0.964   9.160 -0.1292 -0.6640  0.0604
  180MOL0     C23664  10.459   0.910   9.038 -1.6426 -0.0019  0.1063
  180MOL0     C23665  10.614   0.899   9.057 -0.3672  0.2883 -0.3631
  180MOL0     C23666  10.680   0.851   8.927  0.0932 -0.0538 -0.0955
  180MOL0     C23667  10.832   0.827   8.938 -1.3742  0.1922 -0.2057
  180MOL0     C23668  10.912   0.869   8.810 -0.9403 -0.1951  0.2524
  180MOL0     C23669  11.068   0.840   8.820 -0.0396 -0.3979 -0.1653
  180MOL0     C23670  11.126   0.917   8.940  1.3942 -1.0087 -0.0610
  180MOL0     C23671  11.274   0.973   8.940 -0.6148  0.5010 -0.3768
  180MOL0    Cl23672  11.379   0.829   8.883  0.5423  0.0555  0.0671
  180MOL0     C23673  10.203   0.818   9.183 -0.6448 -0.1519  0.0400
  180MOL0     C23674  10.059   0.807   9.195  0.0463 -0.5161 -0.4938
  180MOL0     O23675   9.784   0.934   9.011 -0.3924  0.6306 -0.8273
  180MOL0     C23676   9.517   0.984   9.065 -0.4242 -1.3132  0.3246
  180MOL0     C23677   9.378   0.984   9.076 -0.1032 -0.9384 -0.5738
  180MOL0     N23678   8.568   1.135   9.133 -0.6269  0.2413 -0.0212
  180MOL0     N23679   8.545   1.249   9.082 -0.6286 -0.8891 -0.1217
  180MOL0     C23680   9.332   1.878   9.522  0.2469  0.8455  0.4277
  180MOL0     C23681   9.462   1.843   9.494  0.6642 -0.2775  0.1160
  180MOL0     C23682   9.821   1.601   9.368 -0.4888 -0.6382 -0.3208
  180MOL0     C23683   9.905   1.515   9.443 -0.6969  0.5262  0.9882
  180MOL0     C23684  10.024   1.459   9.386  0.0296 -0.5344 -0.6612
  180MOL0     C23685  10.067   1.506   9.267  0.2469 -0.1139  0.3888
  180MOL0     O23686  10.185   1.464   9.213 -0.5651  0.2019 -0.1876
  180MOL0     C23687  10.255   1.563   9.135 -1.4395  0.2983 -0.1019
  180MOL0     C23688  10.407   1.538   9.151 -0.1133 -0.1104 -0.5139
  180MOL0     C23689  10.464   1.418   9.081  0.0519 -0.7373 -0.6141
  180MOL0     C23690  10.617   1.393   9.110 -0.2490  0.1627  0.8684
  180MOL0     C23691  10.698   1.508   9.065 -0.2550 -0.2144 -0.8848
  180MOL0     C23692  10.763   1.594   9.013  0.4909  0.1040 -0.5245
  180MOL0     C23693   9.982   1.584   9.186 -0.3085  0.4723  0.2763
  180MOL0     C23694   9.855   1.632   9.234 -0.3363  0.0182 -0.5779
  180MOL0     H23695   9.403   1.743   9.172 -1.6664 -2.3305  1.6740
  180MOL0     H23696   9.182   1.794   9.234 -0.1156 -0.2055  0.2644
  180MOL0     H23697   8.956   1.783   9.374  0.7611 -1.6885  2.3571
  180MOL0     H23698   8.967   1.957   9.354 -1.4620  0.2858  1.4701
  180MOL0     H23699   8.878   1.978   9.586 -3.1369  0.1307 -1.3739
  180MOL0     H23700   8.903   1.804   9.608  0.3425 -0.7388 -0.7706
  180MOL0     H23701   8.725   1.958   9.411 -0.0258  0.1895 -0.0982
  180MOL0     H23702   8.651   1.879   9.555  0.2839  1.5750 -1.3160
  180MOL0     H23703   8.758   1.752   9.292 -1.9003  3.4210 -0.1457
  180MOL0     H23704   8.719   1.652   9.443 -3.3061 -1.1635 -1.1297
  180MOL0     H23705   8.511   1.822   9.276  0.9039  0.1389 -0.1180
  180MOL0     H23706   8.484   1.775   9.429 -0.7298  3.1417 -0.2693
  180MOL0     H23707   8.401   1.620   9.337  0.1261 -0.1836  2.7375
  180MOL0     H23708   8.556   1.534   9.355 -1.0644 -0.4892  0.0191
  180MOL0     H23709   8.414   1.528   9.128  1.9718 -2.8873  0.6228
  180MOL0     H23710   8.522   1.672   9.090  1.9990 -1.0522 -2.2167
  180MOL0     H23711   8.714   1.534   9.099 -0.0549  1.1943 -3.5913
  180MOL0     H23712   8.606   1.476   8.983  0.0510 -2.4137  0.9298
  180MOL0     H23713   8.744   1.339   9.327  0.9481  2.0841 -1.6729
  180MOL0     H23714   8.697   0.954   9.274 -1.2789  1.2645  0.2742
  180MOL0     H23715   8.710   1.053   9.417  2.0617  1.0090  0.9503
  180MOL0     H23716   8.931   1.120   9.372 -0.1018 -2.9252  2.2147
  180MOL0     H23717   8.909   1.080   9.191 -1.0884  2.5952 -0.4664
  180MOL0     H23718   8.933   0.892   9.437 -0.1594  0.2528 -1.1645
  180MOL0     H23719   8.938   0.844   9.272 -0.9493  1.8867 -2.1232
  180MOL0     H23720   9.163   0.867   9.416 -0.4183  0.4666  0.2887
  180MOL0     H23721   9.146   1.035   9.404  0.2403 -0.3099 -0.2612
  180MOL0     H23722   9.368   0.853   9.389 -0.2386 -1.5317 -0.8959
  180MOL0     H23723   9.602   0.848   9.353 -1.9796 -0.5430  0.2855
  180MOL0     H23724   9.996   1.140   9.213  2.1725  0.8879  0.3427
  180MOL0     H23725  10.231   1.153   9.199  2.1388  0.3315 -2.0310
  180MOL0     H23726  10.432   0.971   8.951 -0.7288  1.0649  0.5367
  180MOL0     H23727  10.419   0.810   9.021 -1.5052  0.2197 -1.8281
  180MOL0     H23728  10.641   0.830   9.138 -2.9441 -0.5145 -0.0909
  180MOL0     H23729  10.655   0.995   9.090 -1.2675  0.9899 -1.2240
  180MOL0     H23730  10.653   0.926   8.852 -2.0892 -0.3513  0.3263
  180MOL0     H23731  10.630   0.757   8.901  2.6385 -1.6654  0.4304
  180MOL0     H23732  10.869   0.890   9.019 -2.8765  1.5180 -0.4896
  180MOL0     H23733  10.861   0.723   8.955  4.5564  1.5074 -0.2011
  180MOL0     H23734  10.905   0.975   8.786 -0.5468 -0.6869 -2.2389
  180MOL0     H23735  10.880   0.813   8.722 -0.0558  0.0594 -0.2398
  180MOL0     H23736  11.124   0.876   8.733 -0.1343 -2.1336 -0.9874
  180MOL0     H23737  11.081   0.732   8.823  1.2606 -0.2423  0.9183
  180MOL0     H23738  11.070   1.011   8.943  2.0375 -0.6370  0.5766
  180MOL0     H23739  11.116   0.850   9.025  3.0145 -1.6066 -0.3058
  180MOL0     H23740  11.296   1.005   9.042  1.8530 -0.7710 -0.4259
  180MOL0     H23741  11.289   1.057   8.872 -0.7598  0.5934 -0.2939
  180MOL0     H23742  10.250   0.721   9.174 -0.6911  0.0153 -3.3951
  180MOL0     H23743  10.024   0.704   9.192 -0.5589 -0.3034 -0.9633
  180MOL0     H23744   9.558   1.018   8.970  1.2542  0.7966  1.7193
  180MOL0     H23745   9.312   0.994   8.990 -1.9385 -1.6034  0.6947
  180MOL0     H23746   9.290   1.907   9.618 -2.2733 -1.2873  0.0909
  180MOL0     H23747   9.520   1.863   9.584 -0.0434 -2.6244  1.1661
  180MOL0     H23748   9.867   1.489   9.541 -0.3199 -0.5532  0.8666
  180MOL0     H23749  10.086   1.397   9.451  1.9892  4.2905  2.6771
  180MOL0     H23750  10.239   1.665   9.171  2.1133  1.0386 -0.2182
  180MOL0     H23751  10.233   1.569   9.028  2.1282 -1.6648 -1.1117
  180MOL0     H23752  10.447   1.631   9.109 -2.8537  1.1679 -0.5841
  180MOL0     H23753  10.425   1.546   9.259  0.7057  1.0298 -0.7213
  180MOL0     H23754  10.445   1.435   8.975 -2.1737  1.8437  0.0817
  180MOL0     H23755  10.413   1.332   9.126 -1.8304  1.3473  1.5148
  180MOL0     H23756  10.639   1.378   9.216  0.6124 -1.7404  0.4763
  180MOL0     H23757  10.659   1.306   9.058  1.1551  2.0644 -1.4284
  180MOL0     H23758  10.812   1.667   8.952 -1.6588  0.1003 -2.3737
  180MOL0     H23759   9.999   1.619   9.084 -0.4782  2.2395  0.8129
  180MOL0     H23760   9.793   1.700   9.176  0.5555  0.2711 -1.2565
  181MOL0     O23761   0.975  10.425   0.751 -1.4974 -0.0437  0.8925
  181MOL0     C23762   0.976  10.535   0.799  0.2880 -0.5351 -0.2480
  181MOL0     O23763   0.866  10.595   0.863  0.3277 -0.3162  0.0298
  181MOL0     C23764   0.751  10.526   0.904 -0.0894  0.0340  0.3299
  181MOL0     C23765   0.649  10.616   0.928  0.7786 -0.1460  0.4980
  181MOL0     C23766   0.527  10.570   0.978 -0.2008 -0.9058 -0.6782
  181MOL0     C23767   0.497  10.433   0.973  0.4772  0.8826 -0.2630
  181MOL0     O23768   0.382  10.386   1.021 -0.2397  0.1657  0.4535
  181MOL0     C23769   0.299  10.350   0.909  0.4448  0.4652  0.1484
  181MOL0     C23770   0.160  10.292   0.958  0.4817 -0.9914  0.1021
  181MOL0     C23771   0.178  10.149   1.012  0.9925 -0.3442  0.3408
  181MOL0     C23772   0.050  10.099   1.085  0.4504  0.0927 -0.0576
  181MOL0     C23773   0.075   9.961   1.145  0.4247 -0.0378  0.0718
  181MOL0     C23774  -0.053   9.882   1.152 -0.0158 -0.4974 -0.5351
  181MOL0     C23775  -0.009   9.756   1.219  0.0968 -0.4328 -0.6068
  181MOL0     C23776  -0.127   9.662   1.245  0.1856 -0.3572 -0.0815
  181MOL0     N23777  -0.198   9.604   1.120  0.9470 -0.6917  0.0143
  181MOL0     C23778  -0.146   9.538   1.016 -0.0778 -0.1759 -0.0258
  181MOL0     C23779  -0.249   9.518   0.933  0.7510 -0.0311  0.1825
  181MOL0     C23780  -0.244   9.445   0.801  0.0086 -0.1820  0.2555
  181MOL0     C23781  -0.199   9.541   0.694 -0.5424 -0.7226  0.1804
  181MOL0     C23782  -0.154   9.459   0.568 -0.2028  0.2271 -0.0087
  181MOL0     C23783  -0.118   9.555   0.453  0.4400  0.4373  0.1201
  181MOL0     O23784  -0.014   9.649   0.501 -0.6475 -0.1570 -0.0006
  181MOL0     C23785   0.003   9.752   0.415  0.4004 -0.6467 -0.8361
  181MOL0     C23786  -0.101   9.846   0.370  0.2643  0.2582 -0.6522
  181MOL0     C23787  -0.072   9.945   0.273  0.1543  0.3990 -0.4599
  181MOL0     C23788   0.069   9.973   0.234  1.8995 -0.1496  0.8608
  181MOL0     C23789   0.110  10.076   0.142  0.3420 -0.4786  0.1495
  181MOL0     O23790   0.249  10.087   0.136 -0.0730 -0.2027  0.0203
  181MOL0     C23791   0.305  10.180   0.056 -0.2523 -0.0504 -0.3786
  181MOL0     C23792   0.259  10.307   0.054 -0.5120 -0.6156 -0.3978
  181MOL0     C23793   0.328  10.399  -0.034 -0.0319 -0.1247  0.3013
  181MOL0     C23794   0.435  10.358  -0.107 -1.1427 -0.1029 -0.8460
  181MOL0     O23795   0.500  10.447  -0.186  0.1354  0.5891  0.2980
  181MOL0     C23796   0.554  10.569  -0.122  0.6761  0.8381  0.1052
  181MOL0     C23797   0.705  10.585  -0.154  0.4584 -0.4115  0.0567
  181MOL0     C23798   0.789  10.459  -0.141 -0.3912 -0.7506  0.5635
  181MOL0     C23799   0.926  10.505  -0.185 -0.2129  0.1723 -0.1983
  181MOL0     C23800   1.034  10.405  -0.147  0.8253  0.2085  0.0643
  181MOL0     C23801   1.174  10.422  -0.216  1.0469  0.1733  0.4252
  181MOL0     C23802   1.165  10.407  -0.361  0.0126  0.5673  0.4371
  181MOL0     C23803   1.303  10.371  -0.421  0.0272 -0.2007  0.1908
  181MOL0    Cl23804   1.411  10.511  -0.414  0.5025 -0.4053  0.1976
  181MOL0     C23805   0.471  10.222  -0.101 -0.8162 -0.0408  1.2009
  181MOL0     C23806   0.406  10.132  -0.021 -0.2107  0.3735 -0.0389
  181MOL0     O23807   0.029  10.129   0.073  0.5129 -0.4092 -0.4100
  181MOL0     C23808   0.163   9.882   0.291  0.2881  1.0636 -0.3648
  181MOL0     C23809   0.128   9.775   0.376  0.3176  0.1067  0.4348
  181MOL0     N23810  -0.359   9.587   0.974 -0.8286  0.4421  0.5750
  181MOL0     N23811  -0.330   9.626   1.093  0.0214 -0.4127  0.2134
  181MOL0     C23812   0.597  10.337   0.940  0.4793 -0.2551 -0.2782
  181MOL0     C23813   0.723  10.384   0.920 -0.3743  0.3897 -0.2194
  181MOL0     C23814   1.103  10.604   0.823 -0.0561 -0.0749 -0.3612
  181MOL0     C23815   1.115  10.720   0.898 -0.5926 -0.5518 -0.3469
  181MOL0     C23816   1.239  10.765   0.941 -0.8062 -0.7744  0.9168
  181MOL0     C23817   1.361  10.704   0.903  0.4235  0.0655 -0.3436
  181MOL0     O23818   1.472  10.757   0.958 -0.3452 -0.3413  0.2770
  181MOL0     C23819   1.578  10.670   0.983  0.4189  0.4934  0.4043
  181MOL0     C23820   1.688  10.667   0.879  0.2870  0.3062  0.5301
  181MOL0     C23821   1.764  10.536   0.877 -0.1267  0.1903 -0.2486
  181MOL0     C23822   1.820  10.490   1.007  0.1138 -0.1289  0.3895
  181MOL0     C23823   1.953  10.545   1.039 -0.3540  0.8740 -0.3605
  181MOL0     C23824   2.069  10.578   1.068  0.2219  0.2426 -0.4968
  181MOL0     C23825   1.350  10.598   0.819  0.1496  0.4949  0.2795
  181MOL0     C23826   1.226  10.544   0.785 -0.4032 -0.4922 -0.1644
  181MOL0     H23827   0.661  10.724   0.926 -1.9922  0.2970  1.9646
  181MOL0     H23828   0.464  10.646   1.024  0.8168 -0.2491 -0.3381
  181MOL0     H23829   0.341  10.270   0.848  0.8759 -1.4733  2.7988
  181MOL0     H23830   0.281  10.440   0.849 -0.4517  0.1094 -0.1295
  181MOL0     H23831   0.088  10.284   0.876  2.3514  0.3207 -1.7787
  181MOL0     H23832   0.126  10.370   1.026  3.5160  0.0184  0.6029
  181MOL0     H23833   0.268  10.153   1.073  2.0492  1.7124 -1.2162
  181MOL0     H23834   0.211  10.083   0.931 -0.3639 -0.5598 -0.0649
  181MOL0     H23835   0.027  10.173   1.162 -0.1549 -1.7028  1.5567
  181MOL0     H23836  -0.034  10.103   1.015  0.3652 -0.8602 -0.0219
  181MOL0     H23837   0.119   9.974   1.244 -0.3360 -0.4311  0.4722
  181MOL0     H23838   0.154   9.906   1.093 -1.1481 -0.2060 -2.3262
  181MOL0     H23839  -0.096   9.862   1.054  1.1573  0.1856 -1.2087
  181MOL0     H23840  -0.118   9.939   1.219  1.8161 -0.5261  1.3740
  181MOL0     H23841   0.058   9.704   1.151  0.3073 -0.5171 -0.3369
  181MOL0     H23842   0.041   9.784   1.312  3.8891 -1.7834 -2.0388
  181MOL0     H23843  -0.194   9.710   1.317  2.2963 -0.0404  1.7855
  181MOL0     H23844  -0.086   9.574   1.295 -1.1423 -2.3512 -2.2896
  181MOL0     H23845  -0.039   9.535   0.998  0.1240  1.0525  0.8803
  181MOL0     H23846  -0.350   9.422   0.795  0.0675 -1.1163  1.9990
  181MOL0     H23847  -0.183   9.354   0.803 -1.4481 -1.2079 -0.7155
  181MOL0     H23848  -0.108   9.583   0.739 -1.5734  1.1198  0.6743
  181MOL0     H23849  -0.269   9.622   0.673  0.7218  0.4518  0.3214
  181MOL0     H23850  -0.062   9.400   0.580  0.1655  1.2571  3.0787
  181MOL0     H23851  -0.231   9.386   0.544  1.3743 -3.3341  4.2038
  181MOL0     H23852  -0.210   9.609   0.429  0.4195 -0.9253 -3.6458
  181MOL0     H23853  -0.085   9.498   0.366  1.8343  0.7789  0.4139
  181MOL0     H23854  -0.206   9.844   0.399 -0.3110 -2.2216 -2.5577
  181MOL0     H23855  -0.157  10.008   0.250 -1.4562 -1.7258 -0.6935
  181MOL0     H23856   0.184  10.356   0.115 -0.1302  2.6982 -2.3040
  181MOL0     H23857   0.313  10.506  -0.044 -0.2390 -0.3577 -2.9054
  181MOL0     H23858   0.544  10.558  -0.014  1.9246 -0.4687  0.1277
  181MOL0     H23859   0.516  10.664  -0.161  1.4278  0.7618 -0.8567
  181MOL0     H23860   0.745  10.658  -0.083  0.4276 -0.4606  0.1235
  181MOL0     H23861   0.727  10.612  -0.258  3.3417 -2.2204  0.0823
  181MOL0     H23862   0.759  10.370  -0.197 -0.5326 -0.5450  0.3101
  181MOL0     H23863   0.800  10.430  -0.036 -1.4527  0.6108  1.0775
  181MOL0     H23864   0.938  10.539  -0.288  3.3412 -0.5610 -0.1534
  181MOL0     H23865   0.953  10.602  -0.141 -0.4090  0.6365 -1.0923
  181MOL0     H23866   0.999  10.304  -0.171  0.5865  0.7366 -2.0280
  181MOL0     H23867   1.056  10.409  -0.040 -0.4043 -4.0485  0.6656
  181MOL0     H23868   1.223  10.337  -0.168 -1.5831 -1.1076  1.0446
  181MOL0     H23869   1.220  10.518  -0.189  2.6087 -0.3242 -0.3428
  181MOL0     H23870   1.091  10.330  -0.389  0.5548  0.2139 -0.0408
  181MOL0     H23871   1.141  10.503  -0.405 -0.8889  0.1420 -0.0313
  181MOL0     H23872   1.279  10.346  -0.525 -0.6627 -0.4169  0.3951
  181MOL0     H23873   1.355  10.287  -0.376 -0.9910 -1.5713 -1.0701
  181MOL0     H23874   0.556  10.195  -0.162 -3.2606 -2.7246 -1.3563
  181MOL0     H23875   0.407  10.025  -0.043 -1.2101  0.9711 -3.5890
  181MOL0     H23876   0.271   9.877   0.277  0.1299 -1.4258 -1.2535
  181MOL0     H23877   0.206   9.728   0.436 -1.3641 -1.7485  1.2781
  181MOL0     H23878   0.580  10.231   0.957 -1.7520  0.5497  3.6602
  181MOL0     H23879   0.801  10.309   0.911 -1.3942 -0.7789  0.4174
  181MOL0     H23880   1.024  10.767   0.935 -0.0107 -0.3637  0.8784
  181MOL0     H23881   1.233  10.853   1.005 -0.1289  0.9659 -1.2917
  181MOL0     H23882   1.542  10.570   1.008 -2.5759  1.6752  1.3793
  181MOL0     H23883   1.638  10.698   1.071  3.2611  0.2140 -1.3194
  181MOL0     H23884   1.648  10.673   0.777  1.2807 -3.2420 -0.1785
  181MOL0     H23885   1.753  10.755   0.880  1.9028 -0.7916  3.4504
  181MOL0     H23886   1.835  10.527   0.794 -0.0544 -2.7124  0.0240
  181MOL0     H23887   1.682  10.471   0.845  0.6973  1.2150 -5.2860
  181MOL0     H23888   1.765  10.521   1.096 -0.8790 -2.2387  0.5574
  181MOL0     H23889   1.825  10.381   1.000 -2.3672 -0.2363 -1.7038
  181MOL0     H23890   2.174  10.589   1.086  0.5290 -0.5406 -1.7278
  181MOL0     H23891   1.441  10.550   0.785  0.4607 -1.2603  3.2049
  181MOL0     H23892   1.230  10.457   0.719 -1.6082  0.6531 -1.7974
  182MOL0     O23893  10.973   7.757   6.162 -0.2610 -0.9981  0.0243
  182MOL0     C23894  11.019   7.653   6.195 -0.9853 -0.1454 -0.0917
  182MOL0     O23895  10.948   7.552   6.256  0.2995  0.2139  0.3128
  182MOL0     C23896  10.812   7.555   6.266 -0.3173  0.2411 -0.1281
  182MOL0     C23897  10.764   7.479   6.374 -0.4100  0.2708 -0.1618
  182MOL0     C23898  10.630   7.467   6.398  0.2357  0.1927 -0.3023
  182MOL0     C23899  10.543   7.520   6.302  0.2110 -0.3502 -0.3086
  182MOL0     O23900  10.407   7.510   6.309 -0.4133 -0.3828  0.5976
  182MOL0     C23901  10.338   7.408   6.386 -0.7292 -0.3961 -0.5196
  182MOL0     C23902  10.207   7.372   6.315 -0.6092 -0.5664  0.1750
  182MOL0     C23903  10.110   7.309   6.410 -0.2890 -0.5065 -0.5546
  182MOL0     C23904   9.974   7.318   6.345  0.1584  0.3076 -0.3250
  182MOL0     C23905   9.885   7.222   6.439 -0.7532 -0.5667  0.6492
  182MOL0     C23906   9.741   7.200   6.396  0.2845 -0.2456 -0.3437
  182MOL0     C23907   9.652   7.332   6.402 -0.5755  0.5002 -0.1353
  182MOL0     C23908   9.506   7.298   6.355  0.8639  0.1679  0.1722
  182MOL0     N23909   9.398   7.372   6.424 -0.0131 -0.0100 -0.1003
  182MOL0     C23910   9.330   7.332   6.544 -0.6973  0.2974 -0.0289
  182MOL0     C23911   9.254   7.442   6.584 -0.3183 -0.1277  0.2806
  182MOL0     C23912   9.166   7.437   6.713 -0.1457 -0.3133 -0.0940
  182MOL0     C23913   9.039   7.527   6.699  0.5996  1.1071  0.5314
  182MOL0     C23914   8.920   7.443   6.643 -0.2463 -0.0256  0.1203
  182MOL0     C23915   8.784   7.502   6.663  0.0236 -0.9858 -0.3633
  182MOL0     O23916   8.710   7.554   6.545 -0.6972  0.3399 -0.4845
  182MOL0     C23917   8.586   7.600   6.570 -0.0217  0.9245 -0.2232
  182MOL0     C23918   8.522   7.650   6.457  0.1210 -0.2321 -0.5061
  182MOL0     C23919   8.386   7.685   6.468  0.0317 -0.6158 -0.3875
  182MOL0     C23920   8.310   7.670   6.585 -0.4457  0.4904 -0.4415
  182MOL0     C23921   8.169   7.709   6.595  0.4284  0.0742 -0.3781
  182MOL0     O23922   8.123   7.747   6.714  0.3703 -0.8128 -0.3866
  182MOL0     C23923   7.990   7.771   6.718  1.3208 -0.2521  0.2762
  182MOL0     C23924   7.888   7.665   6.714 -0.5909  0.2008 -0.6439
  182MOL0     C23925   7.758   7.690   6.723  0.3689 -0.3267  0.6498
  182MOL0     C23926   7.707   7.819   6.716  0.0336  0.2837  0.2702
  182MOL0     O23927   7.576   7.843   6.724  0.3160  0.5227  0.0225
  182MOL0     C23928   7.523   7.959   6.674  0.2670  0.4115 -0.1883
  182MOL0     C23929   7.368   7.952   6.692  0.1389 -0.6280 -0.2388
  182MOL0     C23930   7.313   7.833   6.613  0.1453 -0.3263 -1.1231
  182MOL0     C23931   7.160   7.855   6.572 -0.5071 -0.3019 -0.1802
  182MOL0     C23932   7.109   7.743   6.482  0.5875  0.2870  0.5338
  182MOL0     C23933   6.971   7.700   6.528 -0.2134  0.3344  0.4097
  182MOL0     C23934   6.915   7.604   6.427  0.6707  0.4979 -0.2649
  182MOL0     C23935   6.790   7.534   6.477 -0.8531 -0.7593  0.0313
  182MOL0    Cl23936   6.719   7.466   6.332 -0.5359 -0.0130 -0.2025
  182MOL0     C23937   7.793   7.932   6.716 -0.0830 -0.1058 -0.7437
  182MOL0     C23938   7.935   7.905   6.718  0.1776  0.0261 -0.0952
  182MOL0     O23939   8.102   7.728   6.492  0.2558  0.4162 -0.6360
  182MOL0     C23940   8.387   7.635   6.701  0.5361  0.1906 -0.3501
  182MOL0     C23941   8.522   7.591   6.693  0.5616  0.6918 -0.3817
  182MOL0     N23942   9.277   7.540   6.489  0.0580  0.2390  0.5219
  182MOL0     N23943   9.368   7.506   6.402  0.0879 -0.1025  0.6046
  182MOL0     C23944  10.587   7.586   6.187 -0.5066 -0.1349 -0.1622
  182MOL0     C23945  10.721   7.610   6.167 -0.5915 -0.0848 -0.6125
  182MOL0     C23946  11.160   7.637   6.161 -0.3026  0.0457  0.2194
  182MOL0     C23947  11.227   7.526   6.193 -0.0281  1.0058  1.0878
  182MOL0     C23948  11.357   7.505   6.153 -0.1729 -0.1197 -0.1648
  182MOL0     C23949  11.423   7.598   6.078 -0.0908 -0.0328 -0.5492
  182MOL0     O23950  11.555   7.596   6.040 -0.2059  0.9065  0.0227
  182MOL0     C23951  11.627   7.479   6.023  0.5402 -0.6648 -0.2175
  182MOL0     C23952  11.709   7.450   6.153 -0.4575  0.8675  0.4654
  182MOL0     C23953  11.831   7.549   6.168 -0.8059 -0.0998  0.4853
  182MOL0     C23954  11.947   7.534   6.064  0.2619 -0.7918 -0.2061
  182MOL0     C23955  12.025   7.650   6.056 -0.5597 -0.7828 -1.3093
  182MOL0     C23956  12.102   7.750   6.045  0.3623  0.8370 -0.4685
  182MOL0     C23957  11.360   7.712   6.044  0.8918 -0.3588  1.4287
  182MOL0     C23958  11.228   7.731   6.083  0.0866 -0.5284  0.2180
  182MOL0     H23959  10.831   7.428   6.443 -0.9116  0.1458  0.2389
  182MOL0     H23960  10.583   7.409   6.477 -0.4818  1.7372  0.4372
  182MOL0     H23961  10.309   7.457   6.479  0.1730  1.7666 -1.3039
  182MOL0     H23962  10.405   7.322   6.394  2.0664  1.7963  1.8971
  182MOL0     H23963  10.232   7.314   6.225  2.7856 -0.5003  0.9260
  182MOL0     H23964  10.159   7.461   6.275 -2.6130 -2.5256 -2.1345
  182MOL0     H23965  10.095   7.369   6.500 -0.6089  2.1314 -2.2434
  182MOL0     H23966  10.133   7.205   6.432 -3.1333 -0.6112  2.9152
  182MOL0     H23967   9.950   7.424   6.349  1.9594  0.7145  1.7529
  182MOL0     H23968   9.964   7.280   6.243 -3.2086 -1.2881  0.4533
  182MOL0     H23969   9.870   7.259   6.541  0.1081 -2.9301  1.7035
  182MOL0     H23970   9.938   7.127   6.441  1.4591  0.5713 -0.1724
  182MOL0     H23971   9.712   7.130   6.475  2.8765  1.5483  2.4601
  182MOL0     H23972   9.724   7.150   6.301 -3.2855  0.2817 -0.1207
  182MOL0     H23973   9.642   7.373   6.503  0.7611 -1.2771  0.7910
  182MOL0     H23974   9.699   7.411   6.343 -1.7840  2.7979  1.8099
  182MOL0     H23975   9.496   7.189   6.367 -0.1743  0.3928  1.5902
  182MOL0     H23976   9.491   7.311   6.247 -2.7505 -0.0430  0.5365
  182MOL0     H23977   9.347   7.236   6.592  3.1172  0.1368 -1.3548
  182MOL0     H23978   9.236   7.489   6.780 -0.1680  1.2340 -1.2230
  182MOL0     H23979   9.141   7.333   6.736  0.6989 -0.1755  1.5715
  182MOL0     H23980   9.059   7.618   6.642 -0.3104  3.3844  3.5601
  182MOL0     H23981   9.008   7.555   6.800  0.4955 -1.5410  1.3007
  182MOL0     H23982   8.925   7.424   6.536 -1.4072  1.7688 -0.2975
  182MOL0     H23983   8.930   7.344   6.688  3.9289 -0.8025 -2.0258
  182MOL0     H23984   8.792   7.577   6.742  0.0985  2.3496 -3.2911
  182MOL0     H23985   8.736   7.414   6.706  1.0461 -1.6154 -0.4803
  182MOL0     H23986   8.583   7.646   6.368  1.1003  4.7533 -0.3291
  182MOL0     H23987   8.326   7.707   6.380 -3.5351 -3.2379  1.1469
  182MOL0     H23988   7.920   7.561   6.710  0.7081  0.5976 -1.0897
  182MOL0     H23989   7.684   7.612   6.728  0.6378 -0.4963  2.2609
  182MOL0     H23990   7.549   7.958   6.567  6.1461 -1.1449  0.8998
  182MOL0     H23991   7.560   8.049   6.723  0.1524  0.5708 -0.3886
  182MOL0     H23992   7.327   8.039   6.641 -2.9235 -1.2199  1.0013
  182MOL0     H23993   7.346   7.953   6.799  0.2519 -2.2778 -0.1835
  182MOL0     H23994   7.314   7.742   6.675 -0.7922  0.3153 -0.1298
  182MOL0     H23995   7.377   7.824   6.525  0.4098 -0.5520 -0.9111
  182MOL0     H23996   7.106   7.861   6.668  1.6014  0.1506  1.0418
  182MOL0     H23997   7.154   7.950   6.519 -1.0860  0.6679  1.5340
  182MOL0     H23998   7.176   7.660   6.509 -1.1527 -0.8125  1.6866
  182MOL0     H23999   7.126   7.746   6.374  1.1804  1.0536  0.6408
  182MOL0     H24000   6.905   7.787   6.537 -1.0643 -0.2965  0.3227
  182MOL0     H24001   6.974   7.652   6.626 -1.2300 -0.2784  0.1529
  182MOL0     H24002   6.886   7.670   6.345 -4.9199  2.6256  2.8492
  182MOL0     H24003   6.981   7.522   6.400 -1.2617 -1.1845 -0.1842
  182MOL0     H24004   6.722   7.606   6.523  0.2481  2.6204 -3.1811
  182MOL0     H24005   6.810   7.465   6.560  0.7290 -0.2455  0.1176
  182MOL0     H24006   7.755   8.032   6.697  2.4686  0.7561 -1.7768
  182MOL0     H24007   8.006   7.987   6.726 -1.7442  1.5297  3.2697
  182MOL0     H24008   8.344   7.632   6.800 -0.4382 -1.9063 -0.7744
  182MOL0     H24009   8.557   7.543   6.784 -0.9074  0.0400 -0.1342
  182MOL0     H24010  10.511   7.612   6.114 -1.3415  1.1627  1.1133
  182MOL0     H24011  10.772   7.645   6.078 -1.3166  0.7229 -0.7237
  182MOL0     H24012  11.173   7.451   6.250 -0.5065  1.2931  1.0221
  182MOL0     H24013  11.402   7.411   6.182 -0.7114 -0.3599 -0.0916
  182MOL0     H24014  11.692   7.484   5.936  1.8281  1.5308  0.7903
  182MOL0     H24015  11.556   7.397   6.005 -0.7854 -0.2134  2.3518
  182MOL0     H24016  11.647   7.451   6.243  1.0865  0.6708  1.5711
  182MOL0     H24017  11.749   7.350   6.136 -2.1076 -0.0778  1.8107
  182MOL0     H24018  11.866   7.530   6.270 -0.4300  1.1659  0.6221
  182MOL0     H24019  11.801   7.655   6.169 -2.4544 -0.1719 -5.4966
  182MOL0     H24020  12.011   7.450   6.092  0.4534 -0.7058 -0.3879
  182MOL0     H24021  11.906   7.509   5.965 -0.0153 -0.6121 -0.1389
  182MOL0     H24022  12.172   7.830   6.048  0.7265  0.6088 -1.8661
  182MOL0     H24023  11.399   7.805   6.005  1.0696 -0.5671  1.1021
  182MOL0     H24024  11.180   7.823   6.051 -1.5497 -1.6010 -0.5937
  183MOL0     O24025   1.821   5.319   3.185  0.0056 -0.2901 -0.6028
  183MOL0     C24026   1.788   5.224   3.257  0.4763 -0.2329  0.9705
  183MOL0     O24027   1.876   5.133   3.300  1.1272  0.6175 -0.1990
  183MOL0     C24028   2.004   5.150   3.262 -0.9092  0.0505 -0.8901
  183MOL0     C24029   2.112   5.164   3.353 -0.0121  0.0718 -0.8384
  183MOL0     C24030   2.245   5.178   3.318 -0.7388 -0.1547 -0.2427
  183MOL0     C24031   2.278   5.200   3.180  0.6292  0.2499 -0.3110
  183MOL0     O24032   2.399   5.245   3.135  0.1725  0.4734  0.1891
  183MOL0     C24033   2.516   5.227   3.225 -0.0072 -0.2902  0.9876
  183MOL0     C24034   2.653   5.259   3.166  0.0079 -0.0741 -0.3554
  183MOL0     C24035   2.764   5.224   3.272 -0.0034 -0.3946 -0.4977
  183MOL0     C24036   2.903   5.260   3.218 -0.1536  0.5125 -0.2800
  183MOL0     C24037   3.001   5.207   3.316  0.3883  0.2972  0.0058
  183MOL0     C24038   3.143   5.249   3.274  0.2092  0.2465  0.0847
  183MOL0     C24039   3.244   5.168   3.373 -0.6697  0.1095 -0.8686
  183MOL0     C24040   3.389   5.176   3.312  0.1631  1.3909 -0.5374
  183MOL0     N24041   3.472   5.099   3.400  0.6304  0.1579 -0.4681
  183MOL0     C24042   3.591   5.139   3.453  1.1229 -0.1619  0.2988
  183MOL0     C24043   3.657   5.040   3.502  0.6647 -0.3127 -0.1526
  183MOL0     C24044   3.793   5.054   3.574 -0.1423  0.1926  0.2805
  183MOL0     C24045   3.882   4.934   3.535 -1.0881 -0.6343  0.2166
  183MOL0     C24046   4.006   4.903   3.635  0.1596 -0.9497  0.8329
  183MOL0     C24047   4.121   5.011   3.627 -0.0547 -0.6186  0.1073
  183MOL0     O24048   4.211   4.995   3.735 -1.0345 -0.4994 -0.2041
  183MOL0     C24049   4.294   4.886   3.736  0.0239  0.3477  0.6710
  183MOL0     C24050   4.329   4.814   3.622  0.7120 -0.3593 -0.0326
  183MOL0     C24051   4.411   4.696   3.628  0.1475  0.3174  0.0719
  183MOL0     C24052   4.462   4.658   3.750  0.3476 -0.4380 -0.7011
  183MOL0     C24053   4.542   4.533   3.768  0.0075 -0.9210 -0.0397
  183MOL0     O24054   4.563   4.472   3.889  0.5379  0.5760  0.4124
  183MOL0     C24055   4.657   4.368   3.888  0.8268 -0.5528  0.1890
  183MOL0     C24056   4.601   4.240   3.851 -0.0397 -0.1338 -0.7551
  183MOL0     C24057   4.680   4.137   3.825  0.3210 -0.2776  0.8098
  183MOL0     C24058   4.822   4.149   3.828  0.4375 -0.7389  0.4221
  183MOL0     O24059   4.883   4.031   3.796 -0.1323  0.0195  0.7606
  183MOL0     C24060   5.020   4.020   3.800  0.1997  0.5823 -0.0791
  183MOL0     C24061   5.048   3.901   3.702  0.5989 -0.6760 -0.0136
  183MOL0     C24062   5.010   3.768   3.762 -0.4708 -0.5243  0.9918
  183MOL0     C24063   5.043   3.667   3.658  0.0053  0.2699  0.1141
  183MOL0     C24064   5.057   3.523   3.720  0.4925 -0.0093 -0.2063
  183MOL0     C24065   5.112   3.409   3.636  0.1674  0.5887 -1.0091
  183MOL0     C24066   5.259   3.420   3.609 -0.5483 -0.3095  0.5802
  183MOL0     C24067   5.307   3.290   3.533  0.1146  0.3834 -0.0802
  183MOL0    Cl24068   5.294   3.148   3.632 -0.2572  0.2444  0.4600
  183MOL0     C24069   4.880   4.275   3.861  0.1587  0.6906 -0.1138
  183MOL0     C24070   4.794   4.383   3.902  0.6173 -0.2284  0.1149
  183MOL0     O24071   4.599   4.503   3.661  0.5791  0.2047  0.3037
  183MOL0     C24072   4.431   4.734   3.867  0.1310 -0.5038 -0.3050
  183MOL0     C24073   4.349   4.846   3.857  0.1168  0.4547  0.1838
  183MOL0     N24074   3.580   4.932   3.479  0.0735 -0.2380 -0.0708
  183MOL0     N24075   3.465   4.969   3.419 -0.2595 -0.0203 -0.1395
  183MOL0     C24076   2.172   5.176   3.086  0.2119  0.5927 -0.0053
  183MOL0     C24077   2.044   5.161   3.129 -0.7909  0.6287  0.3636
  183MOL0     C24078   1.647   5.193   3.287  0.7884  0.3040  0.0697
  183MOL0     C24079   1.613   5.084   3.373 -0.3580 -0.4585 -0.0024
  183MOL0     C24080   1.485   5.072   3.431 -0.5180 -1.2353  1.1639
  183MOL0     C24081   1.375   5.154   3.381 -0.3361 -0.5350  0.2263
  183MOL0     O24082   1.245   5.119   3.423 -0.7018 -0.2937 -0.3984
  183MOL0     C24083   1.136   5.182   3.354 -0.0973 -0.0153 -0.2276
  183MOL0     C24084   1.005   5.153   3.431 -0.1607 -0.0926 -0.5558
  183MOL0     C24085   1.000   5.239   3.556 -0.5525 -0.5100  0.3448
  183MOL0     C24086   0.859   5.277   3.586 -0.2817 -0.8167 -0.2318
  183MOL0     C24087   0.789   5.157   3.647 -0.0614  0.2380  0.4589
  183MOL0     C24088   0.731   5.053   3.677 -0.4572  0.5536  0.3705
  183MOL0     C24089   1.410   5.263   3.291  0.4457  0.7167 -0.2177
  183MOL0     C24090   1.543   5.285   3.255 -0.1786 -0.2272  0.7577
  183MOL0     H24091   2.080   5.154   3.456  0.2211 -2.1519 -0.9207
  183MOL0     H24092   2.311   5.195   3.402 -2.1065  0.1850  0.7877
  183MOL0     H24093   2.524   5.122   3.257  1.4664 -0.1014  1.3247
  183MOL0     H24094   2.510   5.284   3.318  0.4550 -0.0251  0.8551
  183MOL0     H24095   2.649   5.364   3.134 -2.0102  0.9015  2.6574
  183MOL0     H24096   2.666   5.199   3.076  1.3653  1.3707 -1.1799
  183MOL0     H24097   2.775   5.118   3.296 -0.9947 -0.2166  0.9014
  183MOL0     H24098   2.738   5.283   3.361  0.0767 -1.1666  0.0505
  183MOL0     H24099   2.911   5.210   3.121  1.3899 -0.8326  0.4951
  183MOL0     H24100   2.929   5.365   3.204  0.8398  0.1949 -0.9510
  183MOL0     H24101   2.996   5.097   3.310 -1.6693  0.3801 -0.4959
  183MOL0     H24102   2.984   5.238   3.419  3.7434  0.9078  0.4901
  183MOL0     H24103   3.163   5.356   3.281  1.3181  0.3152 -2.6674
  183MOL0     H24104   3.157   5.225   3.168 -3.6792  1.6540 -0.9535
  183MOL0     H24105   3.250   5.223   3.468  0.2937 -1.4835  0.0238
  183MOL0     H24106   3.213   5.066   3.396  3.3233 -1.2567 -0.9123
  183MOL0     H24107   3.433   5.271   3.278  3.5667 -0.3921 -1.5272
  183MOL0     H24108   3.382   5.113   3.223 -0.3030  2.0120 -0.9577
  183MOL0     H24109   3.617   5.244   3.461 -1.4549  0.7070 -1.5091
  183MOL0     H24110   3.772   5.044   3.681  1.0746  0.1935  0.5388
  183MOL0     H24111   3.843   5.148   3.547  0.3415 -1.0986 -3.8847
  183MOL0     H24112   3.918   4.975   3.440 -2.5780  4.7482  1.5955
  183MOL0     H24113   3.824   4.845   3.510 -0.4288 -0.9068 -0.3979
  183MOL0     H24114   3.981   4.884   3.739  2.3060 -0.0030  1.5778
  183MOL0     H24115   4.046   4.812   3.591 -2.8274 -2.0565  0.1593
  183MOL0     H24116   4.080   5.113   3.632 -0.3708 -0.7646  0.4441
  183MOL0     H24117   4.174   5.015   3.531  0.5844 -1.8835  0.3852
  183MOL0     H24118   4.291   4.835   3.523  0.3069 -0.6725  0.0555
  183MOL0     H24119   4.424   4.630   3.543  2.4880  0.2974  0.3776
  183MOL0     H24120   4.493   4.239   3.844  0.0056  1.0428 -2.1076
  183MOL0     H24121   4.638   4.041   3.797  1.5474 -0.4846 -0.4565
  183MOL0     H24122   5.040   3.988   3.903 -0.3443  0.0785 -0.1224
  183MOL0     H24123   5.077   4.109   3.773  0.7604  0.8587  1.8306
  183MOL0     H24124   5.153   3.908   3.671  0.6627 -0.9216  0.1379
  183MOL0     H24125   4.983   3.919   3.617  0.6104  0.6426  0.2468
  183MOL0     H24126   4.902   3.761   3.775 -1.2211 -0.7838 -3.6998
  183MOL0     H24127   5.056   3.743   3.858 -3.4356 -3.4573  1.8230
  183MOL0     H24128   4.960   3.659   3.586  0.6341 -3.7008 -0.4131
  183MOL0     H24129   5.137   3.688   3.607  1.2476 -2.0529  1.2793
  183MOL0     H24130   4.957   3.498   3.759  0.1513  1.6947  0.0876
  183MOL0     H24131   5.124   3.527   3.806  1.7072  2.2462 -1.1701
  183MOL0     H24132   5.055   3.389   3.545 -0.3312 -3.6945  0.0522
  183MOL0     H24133   5.102   3.317   3.695  1.0299  0.2569 -1.3672
  183MOL0     H24134   5.289   3.508   3.552 -1.9122  1.9048  3.0706
  183MOL0     H24135   5.322   3.431   3.697  2.3409 -0.5862 -1.3331
  183MOL0     H24136   5.409   3.317   3.502 -0.4583  0.8708 -1.6547
  183MOL0     H24137   5.252   3.267   3.441  1.5584 -0.5584 -0.7444
  183MOL0     H24138   4.987   4.290   3.872  0.0818  0.7920  0.5106
  183MOL0     H24139   4.840   4.475   3.935  1.7747 -1.0441  0.8509
  183MOL0     H24140   4.465   4.711   3.967  0.5649 -1.6030 -0.6828
  183MOL0     H24141   4.334   4.904   3.947  0.8923 -1.8594  1.9074
  183MOL0     H24142   2.199   5.191   2.982  2.4130  1.2083  0.6010
  183MOL0     H24143   1.972   5.171   3.048 -1.7170  1.4610  1.2617
  183MOL0     H24144   1.680   5.005   3.406  2.4162  0.6500 -2.5146
  183MOL0     H24145   1.455   4.996   3.503  0.8178 -1.9800  0.9751
  183MOL0     H24146   1.120   5.157   3.249  0.9122 -0.5290 -0.2752
  183MOL0     H24147   1.147   5.290   3.368 -0.8250  0.0311  0.0128
  183MOL0     H24148   0.911   5.173   3.378  1.2296  0.1064 -3.1118
  183MOL0     H24149   0.991   5.048   3.458  2.9474 -0.2566  0.7777
  183MOL0     H24150   1.056   5.333   3.547  0.9032 -1.4237 -0.4917
  183MOL0     H24151   1.053   5.182   3.633  0.2705  1.7311  1.5528
  183MOL0     H24152   0.853   5.350   3.667 -2.2262  0.0967 -1.1449
  183MOL0     H24153   0.806   5.320   3.501  1.1079  1.2199 -0.1197
  183MOL0     H24154   0.687   4.958   3.700  3.6166 -1.6885 -0.1566
  183MOL0     H24155   1.346   5.346   3.260  3.5478  3.6984  0.6693
  183MOL0     H24156   1.584   5.369   3.201  0.4541  0.8422  2.8324
  184MOL0     O24157   3.821   0.884  10.688  0.3258 -1.0794 -0.4159
  184MOL0     C24158   3.756   0.885  10.793  0.9225  0.6918  0.6431
  184MOL0     O24159   3.797   0.837  10.907 -0.7433  1.2785  0.1547
  184MOL0     C24160   3.916   0.774  10.907 -0.1101 -0.3393 -0.5933
  184MOL0     C24161   4.036   0.850  10.901  0.0015  0.4056  0.2558
  184MOL0     C24162   4.156   0.776  10.901  0.5598 -1.3291 -0.2506
  184MOL0     C24163   4.170   0.636  10.920 -0.0453  0.0508 -1.0573
  184MOL0     O24164   4.283   0.565  10.934 -0.2462  0.2303  0.6456
  184MOL0     C24165   4.409   0.626  10.881 -0.1200  0.0930  0.1861
  184MOL0     C24166   4.495   0.509  10.842  0.3184  0.3702  0.7950
  184MOL0     C24167   4.596   0.542  10.748 -0.9029 -0.1738  1.2648
  184MOL0     C24168   4.695   0.423  10.718 -0.6534 -1.0054  1.0530
  184MOL0     C24169   4.816   0.461  10.630  0.1207  0.2786  0.6899
  184MOL0     C24170   4.919   0.352  10.606  0.5073 -0.2123  0.3465
  184MOL0     C24171   5.039   0.394  10.513  0.0971 -0.6304 -0.3439
  184MOL0     C24172   5.145   0.287  10.478  0.4111  1.0654  0.0391
  184MOL0     N24173   5.095   0.195  10.365  0.7411 -0.1871  0.5524
  184MOL0     C24174   5.079   0.224  10.230 -0.3121  0.4690  1.2874
  184MOL0     C24175   5.063   0.109  10.165  0.1999 -0.4670  0.6004
  184MOL0     C24176   5.053   0.088  10.016 -0.0066  0.6480 -0.1843
  184MOL0     C24177   4.988  -0.052   9.986 -0.4388  0.1872 -0.1156
  184MOL0     C24178   4.938  -0.067   9.839  0.6010 -0.7515 -0.5990
  184MOL0     C24179   4.837   0.034   9.784 -0.3285  0.8697 -0.1131
  184MOL0     O24180   4.917   0.139   9.723  0.0315  0.4633 -0.5608
  184MOL0     C24181   4.849   0.254   9.681  0.2710  0.5927  0.0980
  184MOL0     C24182   4.890   0.317   9.558 -0.7304 -0.5059 -0.0682
  184MOL0     C24183   4.830   0.435   9.507  0.0990  0.6295  0.2321
  184MOL0     C24184   4.726   0.488   9.590  0.2796  0.8661 -0.0700
  184MOL0     C24185   4.654   0.606   9.545  0.5347  0.7680  0.4268
  184MOL0     O24186   4.573   0.673   9.628  0.1408 -0.0199 -0.3219
  184MOL0     C24187   4.484   0.762   9.585  0.3196 -0.1667  0.1487
  184MOL0     C24188   4.356   0.758   9.637  1.2608  1.1585  0.0411
  184MOL0     C24189   4.255   0.829   9.589  0.6350 -1.0186  0.0494
  184MOL0     C24190   4.280   0.933   9.501  0.2294  0.2102 -0.5957
  184MOL0     O24191   4.178   1.018   9.461 -0.3765 -0.1498  0.3929
  184MOL0     C24192   4.160   1.022   9.318  0.5896  0.1294  0.1715
  184MOL0     C24193   4.037   1.116   9.292  0.2537  0.0474  0.6178
  184MOL0     C24194   3.997   1.110   9.141 -0.1497 -0.2184  0.6360
  184MOL0     C24195   3.886   1.208   9.112 -0.8378 -0.9687  0.1044
  184MOL0     C24196   3.846   1.225   8.964 -0.1073  0.8440 -0.8810
  184MOL0     C24197   3.719   1.314   8.936  0.2613  0.6496  0.8378
  184MOL0     C24198   3.725   1.346   8.792 -0.5835  0.0145 -0.8125
  184MOL0     C24199   3.662   1.484   8.756  0.7011 -0.1793  0.1951
  184MOL0    Cl24200   3.482   1.479   8.800 -0.2616  0.4533 -0.4940
  184MOL0     C24201   4.413   0.945   9.442  0.5645 -0.3948 -0.6231
  184MOL0     C24202   4.515   0.869   9.496 -0.1607 -0.0001  0.7727
  184MOL0     O24203   4.671   0.635   9.426 -0.5875  0.9482 -0.3409
  184MOL0     C24204   4.691   0.438   9.711  0.3203  0.1883  0.0713
  184MOL0     C24205   4.745   0.322   9.760 -0.9319 -0.0254  0.1866
  184MOL0     N24206   5.041   0.010  10.261 -0.3545 -0.0135  0.3219
  184MOL0     N24207   5.052   0.062  10.374  0.2365 -0.2005  0.8507
  184MOL0     C24208   4.047   0.565  10.916 -0.2532 -1.0007 -0.5936
  184MOL0     C24209   3.919   0.625  10.915  0.3825  0.4652  0.4028
  184MOL0     C24210   3.617   0.933  10.791  0.2804  0.2247 -1.0555
  184MOL0     C24211   3.550   0.977  10.682 -0.0808  0.4076  0.1806
  184MOL0     C24212   3.419   1.021  10.689  0.4054 -0.3662 -0.3472
  184MOL0     C24213   3.349   1.009  10.808 -0.6036 -0.0539 -0.7077
  184MOL0     O24214   3.223   1.028  10.834 -0.5707 -0.0593  0.6784
  184MOL0     C24215   3.141   1.103  10.748  0.3199  0.6959 -0.2502
  184MOL0     C24216   3.165   1.255  10.755 -0.1131  0.9434 -0.2748
  184MOL0     C24217   3.091   1.316  10.871  1.5803 -0.4453  0.9723
  184MOL0     C24218   2.936   1.352  10.844 -0.8384  0.3884  0.7977
  184MOL0     C24219   2.926   1.468  10.757 -0.3413  0.4372 -0.5861
  184MOL0     C24220   2.914   1.564  10.682  0.1146 -0.1357 -0.5786
  184MOL0     C24221   3.421   0.973  10.928 -0.3780  0.2603  0.1663
  184MOL0     C24222   3.557   0.944  10.921 -0.5094 -0.0894  0.9838
  184MOL0     H24223   4.035   0.958  10.894 -1.2322  0.2985 -2.2077
  184MOL0     H24224   4.246   0.836  10.895 -0.9253  0.8486 -3.8045
  184MOL0     H24225   4.445   0.683  10.966  0.5719  3.3943 -2.1144
  184MOL0     H24226   4.399   0.698  10.799 -0.9844 -1.7661 -1.4348
  184MOL0     H24227   4.430   0.428  10.807 -0.1162  2.1085 -2.9104
  184MOL0     H24228   4.543   0.489  10.938 -0.9894 -2.3120  0.9971
  184MOL0     H24229   4.651   0.632  10.778 -0.1557  0.1095 -0.7877
  184MOL0     H24230   4.546   0.565  10.653  1.4059  0.8438  0.2070
  184MOL0     H24231   4.728   0.374  10.811 -0.9076  0.1487  1.7776
  184MOL0     H24232   4.636   0.350  10.663  1.6063 -0.0369 -3.0683
  184MOL0     H24233   4.870   0.540  10.683  0.8379 -0.4425  1.0510
  184MOL0     H24234   4.771   0.505  10.540  0.6245 -2.0380 -0.7870
  184MOL0     H24235   4.859   0.273  10.559 -0.9284 -0.2711  2.1738
  184MOL0     H24236   4.948   0.303  10.699  0.0702 -1.2332 -0.0281
  184MOL0     H24237   4.998   0.444  10.425  0.8138  3.0528  1.2338
  184MOL0     H24238   5.088   0.467  10.578 -2.1354 -2.0100  3.2067
  184MOL0     H24239   5.171   0.219  10.560  2.0068  2.6746  0.9401
  184MOL0     H24240   5.245   0.324  10.456 -0.0972  1.7267 -1.2549
  184MOL0     H24241   5.097   0.319  10.181  3.0652 -0.7235 -0.1420
  184MOL0     H24242   5.153   0.087   9.971  1.0075  0.0403  1.9211
  184MOL0     H24243   4.986   0.162   9.972  3.3396  1.2287 -5.0229
  184MOL0     H24244   4.900  -0.069  10.049  1.1860  2.0325  2.8778
  184MOL0     H24245   5.065  -0.128   9.999  0.0792  0.9351  1.6599
  184MOL0     H24246   5.023  -0.067   9.771  1.2815 -0.2194  0.2416
  184MOL0     H24247   4.885  -0.163   9.829 -0.1118 -0.2874 -1.4327
  184MOL0     H24248   4.774   0.065   9.868 -0.6582  1.2513 -0.4925
  184MOL0     H24249   4.781  -0.015   9.703  0.6269 -0.8450  0.2197
  184MOL0     H24250   4.963   0.263   9.497 -2.3653 -1.0679 -1.6226
  184MOL0     H24251   4.847   0.486   9.413 -0.8001  0.4155 -0.0490
  184MOL0     H24252   4.327   0.678   9.705 -1.6299 -0.3993 -2.7838
  184MOL0     H24253   4.156   0.821   9.634 -0.6185  0.9572 -2.1284
  184MOL0     H24254   4.148   0.920   9.280  0.0136  0.5599 -0.8559
  184MOL0     H24255   4.250   1.049   9.262  2.2914  0.7228  3.0218
  184MOL0     H24256   4.069   1.215   9.326  2.1834 -0.5917  0.7791
  184MOL0     H24257   3.963   1.076   9.361  0.6862  2.0456  2.3254
  184MOL0     H24258   3.952   1.014   9.117 -0.8680  0.5078 -1.0733
  184MOL0     H24259   4.087   1.129   9.081 -0.1115 -1.7066  0.1893
  184MOL0     H24260   3.793   1.186   9.165 -0.3759 -1.7849  0.6092
  184MOL0     H24261   3.921   1.307   9.141 -2.4617 -0.9464  2.2952
  184MOL0     H24262   3.837   1.127   8.917  2.2295  0.7916 -1.3479
  184MOL0     H24263   3.933   1.268   8.912  0.1348 -2.2677 -3.3888
  184MOL0     H24264   3.724   1.400   9.004  0.5220 -1.7657  4.1289
  184MOL0     H24265   3.629   1.257   8.961  0.1364  0.3280 -0.2879
  184MOL0     H24266   3.830   1.343   8.763  0.8869 -3.5549  3.6548
  184MOL0     H24267   3.680   1.271   8.726  0.7456  0.6933 -2.5527
  184MOL0     H24268   3.673   1.499   8.648 -3.5670 -1.7775 -0.6563
  184MOL0     H24269   3.711   1.557   8.821  2.7486 -2.5696  1.5445
  184MOL0     H24270   4.431   1.019   9.364 -3.3549  0.6380 -0.7641
  184MOL0     H24271   4.616   0.879   9.457 -0.1181  1.0749  1.1103
  184MOL0     H24272   4.609   0.483   9.766 -0.2523 -1.1240  0.3370
  184MOL0     H24273   4.716   0.278   9.855 -0.5978 -2.1792 -0.6413
  184MOL0     H24274   4.045   0.457  10.910 -1.4220 -1.1141  1.0843
  184MOL0     H24275   3.833   0.559  10.919  1.6827 -1.2861  3.3460
  184MOL0     H24276   3.614   0.980  10.594 -2.0725 -2.6386 -1.5256
  184MOL0     H24277   3.364   1.066  10.607  1.1253 -0.9961 -1.1933
  184MOL0     H24278   3.038   1.077  10.774  0.0529 -0.1864 -2.0202
  184MOL0     H24279   3.152   1.067  10.645  0.6213  1.2261 -0.4041
  184MOL0     H24280   3.272   1.275  10.770 -0.1854  2.8168 -1.9296
  184MOL0     H24281   3.132   1.295  10.659  0.2845  0.7812 -0.4819
  184MOL0     H24282   3.144   1.409  10.895 -1.9835  0.7856  5.3342
  184MOL0     H24283   3.105   1.258  10.962 -0.3023 -1.4624  0.6502
  184MOL0     H24284   2.899   1.262  10.794  0.2700 -0.2115  1.0238
  184MOL0     H24285   2.878   1.363  10.937 -2.1200 -1.8898  0.3470
  184MOL0     H24286   2.904   1.650  10.618  1.5860 -1.4116 -2.6451
  184MOL0     H24287   3.363   0.968  11.020  2.5052 -2.2383  2.0231
  184MOL0     H24288   3.612   0.906  11.007 -0.4660 -0.0298  0.9821
  185MOL0     O24289   1.834   0.109   2.491  0.8065  0.1324  0.4826
  185MOL0     C24290   1.901   0.012   2.519  0.4477  0.4338 -0.3470
  185MOL0     O24291   1.861  -0.101   2.599  0.2382  0.2474 -1.1489
  185MOL0     C24292   1.731  -0.100   2.637 -0.6851  0.5323 -0.3901
  185MOL0     C24293   1.639  -0.195   2.577 -1.1240 -0.0390 -0.5680
  185MOL0     C24294   1.502  -0.195   2.610 -0.5129  0.2343  0.6062
  185MOL0     C24295   1.450  -0.102   2.694  0.2038  0.3715  0.1510
  185MOL0     O24296   1.311  -0.106   2.710 -0.2617 -0.3391 -0.0549
  185MOL0     C24297   1.256  -0.022   2.815 -0.9332  0.3056 -0.2183
  185MOL0     C24298   1.116  -0.059   2.866 -0.5602 -0.0597  0.4392
  185MOL0     C24299   0.997  -0.043   2.764 -0.1653  0.2051 -0.9625
  185MOL0     C24300   1.011   0.079   2.687  0.5903 -0.8462 -0.4918
  185MOL0     C24301   0.885   0.110   2.599  0.8377  0.1915 -0.0906
  185MOL0     C24302   0.778   0.190   2.679  0.1369  0.3216 -0.2755
  185MOL0     C24303   0.835   0.321   2.742 -0.8638  0.1520  1.0615
  185MOL0     C24304   0.926   0.422   2.662  0.5176 -0.6682  0.1289
  185MOL0     N24305   0.982   0.529   2.743 -0.3673 -0.1560 -0.8633
  185MOL0     C24306   0.925   0.632   2.820  0.0621  0.4576 -0.5950
  185MOL0     C24307   1.027   0.694   2.881 -0.6322 -0.0337  0.1655
  185MOL0     C24308   1.028   0.803   2.987 -0.3616  0.2055 -1.0932
  185MOL0     C24309   1.087   0.923   2.914  0.0752  0.1936 -0.6820
  185MOL0     C24310   1.187   1.001   3.000  0.1738 -0.1494 -0.7752
  185MOL0     C24311   1.315   1.025   2.925  0.3397 -1.0298 -1.0038
  185MOL0     O24312   1.274   1.102   2.808  0.1544  0.3727 -0.0851
  185MOL0     C24313   1.379   1.137   2.730  0.2842  0.0274 -0.3669
  185MOL0     C24314   1.345   1.147   2.593 -0.4161 -0.7353  0.1714
  185MOL0     C24315   1.443   1.197   2.511 -0.1106 -0.1107  0.0011
  185MOL0     C24316   1.579   1.223   2.545 -0.4629 -0.3467 -0.9476
  185MOL0     C24317   1.682   1.249   2.444  0.1792  0.5319 -0.5334
  185MOL0     O24318   1.807   1.307   2.482  0.6462  0.9788  0.0473
  185MOL0     C24319   1.894   1.337   2.385  0.9833  0.7010 -0.1834
  185MOL0     C24320   1.872   1.373   2.250  0.1327 -0.0154 -0.4377
  185MOL0     C24321   1.974   1.407   2.161  0.3401 -0.5376  0.4692
  185MOL0     C24322   2.101   1.398   2.192 -0.8680 -0.1160 -0.6768
  185MOL0     O24323   2.204   1.404   2.106 -0.2720 -0.1537  0.6164
  185MOL0     C24324   2.264   1.539   2.101  0.6856  0.2807  0.7710
  185MOL0     C24325   2.410   1.515   2.064 -0.3678 -0.1848  0.4325
  185MOL0     C24326   2.420   1.411   1.956 -0.1396  0.3422  0.3073
  185MOL0     C24327   2.566   1.397   1.903  0.3676  0.0256 -0.5259
  185MOL0     C24328   2.647   1.312   2.005  0.2130  1.0973  0.5174
  185MOL0     C24329   2.791   1.262   1.948  0.2501 -0.6161  0.7502
  185MOL0     C24330   2.895   1.236   2.064  0.1071 -0.0874 -0.5548
  185MOL0     C24331   3.049   1.210   2.045  0.3021  0.4993  0.5733
  185MOL0    Cl24332   3.097   1.080   2.159  0.0895  0.4310  0.0736
  185MOL0     C24333   2.124   1.369   2.328 -0.1114 -0.2552  0.2205
  185MOL0     C24334   2.021   1.345   2.421  0.7082  0.0903 -0.5661
  185MOL0     O24335   1.651   1.213   2.327 -0.7277 -0.5869  0.0212
  185MOL0     C24336   1.609   1.215   2.683  0.5825 -0.4136 -0.1426
  185MOL0     C24337   1.506   1.177   2.772 -0.2170  0.2354 -0.0059
  185MOL0     N24338   1.145   0.631   2.851  0.2420  1.0086 -0.0245
  185MOL0     N24339   1.116   0.531   2.769 -0.0382 -0.4701  0.4864
  185MOL0     C24340   1.538  -0.010   2.753  0.4723  0.3121 -0.1934
  185MOL0     C24341   1.677  -0.004   2.723 -0.0585 -0.6092  0.1377
  185MOL0     C24342   2.037   0.007   2.473 -0.5086  0.0844 -0.5366
  185MOL0     C24343   2.100   0.109   2.391 -0.6222  0.2864 -0.1817
  185MOL0     C24344   2.230   0.105   2.352 -0.1524  0.3524  0.4539
  185MOL0     C24345   2.317   0.003   2.390  0.2756  0.2249  0.2748
  185MOL0     O24346   2.447   0.009   2.350  0.2354  0.4541 -0.7189
  185MOL0     C24347   2.543  -0.020   2.454 -1.8989  0.6562 -0.4914
  185MOL0     C24348   2.685   0.035   2.420 -0.3866  0.0191  0.3848
  185MOL0     C24349   2.792  -0.030   2.503  0.6171 -0.0876  0.3159
  185MOL0     C24350   2.899   0.060   2.565 -0.2886 -0.8815  0.5020
  185MOL0     C24351   2.989  -0.030   2.642 -0.5358 -0.5574 -0.8276
  185MOL0     C24352   3.044  -0.117   2.708  0.1199 -0.8217  0.7819
  185MOL0     C24353   2.261  -0.081   2.482  0.0413  0.2335 -0.5517
  185MOL0     C24354   2.130  -0.090   2.519  0.2568 -0.1900 -0.1243
  185MOL0     H24355   1.678  -0.281   2.525 -1.7873 -1.3032  0.9431
  185MOL0     H24356   1.433  -0.259   2.557  1.0422 -1.5584  0.6397
  185MOL0     H24357   1.262   0.084   2.791 -1.4161  0.9109  2.0582
  185MOL0     H24358   1.326  -0.021   2.899  2.1929  2.6496 -2.5894
  185MOL0     H24359   1.113   0.011   2.950  0.6830  0.4017  0.1198
  185MOL0     H24360   1.092  -0.159   2.904 -2.1933 -0.6105 -1.8746
  185MOL0     H24361   0.897  -0.049   2.810  0.2331 -1.5962 -0.2500
  185MOL0     H24362   1.009  -0.122   2.690  1.4629 -0.0384 -0.4658
  185MOL0     H24363   1.037   0.164   2.751  1.0881 -3.2890  2.7763
  185MOL0     H24364   1.094   0.060   2.618  0.8916  0.2725 -0.4672
  185MOL0     H24365   0.848   0.013   2.564  0.2174 -0.2420  1.6609
  185MOL0     H24366   0.917   0.167   2.511  1.6971  0.6031  0.4773
  185MOL0     H24367   0.735   0.117   2.748  0.2120  0.2760 -0.2776
  185MOL0     H24368   0.697   0.230   2.616 -2.5937 -1.0195  2.1583
  185MOL0     H24369   0.747   0.373   2.782 -0.7358  0.8382  0.4637
  185MOL0     H24370   0.886   0.275   2.827 -2.2944  0.3335  2.0401
  185MOL0     H24371   0.865   0.471   2.586 -1.3743  0.7222  2.4292
  185MOL0     H24372   1.008   0.363   2.620  0.9265  0.2833 -0.4345
  185MOL0     H24373   0.819   0.655   2.827 -0.5567 -1.2232 -3.3106
  185MOL0     H24374   1.101   0.758   3.054 -0.8040 -2.2570 -2.1763
  185MOL0     H24375   0.935   0.831   3.037  0.5664  3.7209 -1.0036
  185MOL0     H24376   0.998   0.981   2.890  0.5240  1.9155  1.5323
  185MOL0     H24377   1.140   0.879   2.829 -0.9816 -1.5681 -0.4805
  185MOL0     H24378   1.127   1.085   3.038 -1.1931  0.2547 -3.5920
  185MOL0     H24379   1.215   0.942   3.088  1.3111 -0.0721 -1.0730
  185MOL0     H24380   1.359   0.928   2.902  1.5824 -0.4854 -0.9547
  185MOL0     H24381   1.386   1.078   2.989 -1.5909  0.0849  0.3240
  185MOL0     H24382   1.245   1.123   2.558  0.2192 -0.7928 -1.6729
  185MOL0     H24383   1.429   1.200   2.403 -0.4689  0.1985  0.0536
  185MOL0     H24384   1.774   1.375   2.203 -0.5858 -0.6868  1.0039
  185MOL0     H24385   1.953   1.428   2.057 -0.1012  1.4168  0.9117
  185MOL0     H24386   2.269   1.595   2.194 -1.1696 -0.5207  1.4059
  185MOL0     H24387   2.217   1.595   2.020  2.1117 -0.4030 -0.6065
  185MOL0     H24388   2.455   1.480   2.157 -3.8017 -3.7317  1.0501
  185MOL0     H24389   2.453   1.608   2.026  3.2059 -2.0013 -0.3755
  185MOL0     H24390   2.357   1.430   1.869  1.1574  0.6882 -0.5902
  185MOL0     H24391   2.394   1.310   1.988 -1.9257  1.1895  1.6601
  185MOL0     H24392   2.574   1.350   1.805  1.3537  0.4156 -0.6560
  185MOL0     H24393   2.610   1.498   1.901  3.2460 -1.0534  1.5196
  185MOL0     H24394   2.587   1.225   2.034  1.3231 -0.4293 -1.4962
  185MOL0     H24395   2.658   1.373   2.095 -2.4740  0.9275  1.0442
  185MOL0     H24396   2.847   1.335   1.890  1.3593 -3.0705 -1.4705
  185MOL0     H24397   2.767   1.173   1.888 -0.1444  1.9773 -3.2932
  185MOL0     H24398   2.891   1.316   2.138  0.2631 -1.2523  0.7481
  185MOL0     H24399   2.851   1.154   2.122 -0.6134  2.3636  2.6713
  185MOL0     H24400   3.114   1.296   2.065  1.6037 -0.1359 -0.7258
  185MOL0     H24401   3.070   1.171   1.945 -0.7418 -0.8287  0.8412
  185MOL0     H24402   2.227   1.362   2.362  0.6874 -2.0135 -2.2653
  185MOL0     H24403   2.044   1.321   2.525  2.1864 -0.4467 -0.9871
  185MOL0     H24404   1.711   1.226   2.719  1.2487 -2.3287 -1.2632
  185MOL0     H24405   1.532   1.185   2.877  0.2506  1.7442 -0.2087
  185MOL0     H24406   1.486   0.058   2.820  0.7295 -0.7861  1.1873
  185MOL0     H24407   1.745   0.074   2.757 -0.4058 -0.7279  1.1296
  185MOL0     H24408   2.040   0.190   2.350  2.9345  1.9075 -2.6644
  185MOL0     H24409   2.264   0.174   2.275 -0.7610 -1.1550 -1.2450
  185MOL0     H24410   2.558  -0.127   2.463  1.3241  1.0908  0.5920
  185MOL0     H24411   2.510   0.007   2.555 -0.4671 -3.9384  1.4303
  185MOL0     H24412   2.708  -0.002   2.319  1.3971 -3.2306  1.8420
  185MOL0     H24413   2.692   0.144   2.414 -0.6329  0.1270  1.8725
  185MOL0     H24414   2.847  -0.100   2.439  0.2473 -2.0972  2.1113
  185MOL0     H24415   2.743  -0.082   2.585 -1.8716  0.6523 -0.6039
  185MOL0     H24416   2.955   0.100   2.481 -1.3541 -0.9020 -0.2332
  185MOL0     H24417   2.856   0.140   2.626  1.7383  1.0353 -0.4592
  185MOL0     H24418   3.095  -0.182   2.777  0.4826  0.1880  1.4927
  185MOL0     H24419   2.320  -0.161   2.526 -0.3818  0.0209 -0.3697
  185MOL0     H24420   2.114  -0.174   2.585 -2.8183 -0.3067 -0.8429
  186MOL0     O24421   8.447   4.954   0.359  0.2399  0.7180  0.0898
  186MOL0     C24422   8.465   4.956   0.240 -1.1878 -0.3960  0.2592
  186MOL0     O24423   8.369   4.980   0.142 -0.2265  0.5392  0.0441
  186MOL0     C24424   8.248   5.009   0.186 -0.9125 -0.3052  0.4644
  186MOL0     C24425   8.218   5.145   0.176 -0.4026 -0.5212  0.2985
  186MOL0     C24426   8.089   5.179   0.217 -0.3928 -0.2519  0.0968
  186MOL0     C24427   7.999   5.089   0.273 -0.1058 -0.4981  0.9043
  186MOL0     O24428   7.881   5.143   0.315  0.0680 -0.7631 -1.0167
  186MOL0     C24429   7.787   5.050   0.369 -0.4584  0.1625  0.4739
  186MOL0     C24430   7.719   4.983   0.254  0.2598  0.3606  0.1740
  186MOL0     C24431   7.600   4.894   0.282  0.5528  0.7480  0.3463
  186MOL0     C24432   7.544   4.826   0.152 -0.6698  1.0507  1.0016
  186MOL0     C24433   7.405   4.774   0.164 -0.3496  0.3163 -0.6457
  186MOL0     C24434   7.355   4.713   0.298 -0.1062 -0.2609 -0.3553
  186MOL0     C24435   7.212   4.655   0.269 -0.2016 -0.6627 -0.4680
  186MOL0     C24436   7.169   4.586   0.400  0.2547  0.2004  0.3523
  186MOL0     N24437   7.038   4.522   0.386 -0.1569  0.2162 -0.2222
  186MOL0     C24438   7.000   4.452   0.266  0.2467  0.0711 -1.1720
  186MOL0     C24439   6.865   4.429   0.288  0.0666  0.6241 -0.1302
  186MOL0     C24440   6.782   4.374   0.185 -0.5847  0.4340  0.4843
  186MOL0     C24441   6.636   4.334   0.223  0.0658 -0.0741 -0.0732
  186MOL0     C24442   6.629   4.190   0.276  0.8400  0.4701  0.3787
  186MOL0     C24443   6.479   4.157   0.302 -0.1266  0.5909 -0.0967
  186MOL0     O24444   6.462   4.012   0.291 -0.0634 -0.2260  0.2326
  186MOL0     C24445   6.345   3.943   0.332  1.0320 -0.8412 -0.1289
  186MOL0     C24446   6.306   3.826   0.275 -0.0491  0.1274 -0.7573
  186MOL0     C24447   6.190   3.757   0.306  0.5816  0.2006 -0.9704
  186MOL0     C24448   6.093   3.814   0.397 -0.9352 -0.0774 -0.9480
  186MOL0     C24449   5.955   3.750   0.412  0.9336 -0.6219  1.1047
  186MOL0     O24450   5.918   3.677   0.304  0.5870 -0.1736 -0.0207
  186MOL0     C24451   5.780   3.649   0.287 -0.0215 -0.5786  0.0906
  186MOL0     C24452   5.761   3.519   0.229  0.5008 -0.2934 -0.3155
  186MOL0     C24453   5.633   3.491   0.180 -0.0910 -1.0131  1.0100
  186MOL0     C24454   5.526   3.584   0.188 -0.0624 -0.2486  0.0478
  186MOL0     O24455   5.405   3.548   0.152  0.1174  0.1169 -0.3404
  186MOL0     C24456   5.309   3.644   0.107  0.6687  0.7321 -0.5798
  186MOL0     C24457   5.209   3.559   0.024  0.4793 -0.4667  0.1390
  186MOL0     C24458   5.122   3.640  -0.069 -0.3714  0.5273 -0.9354
  186MOL0     C24459   5.011   3.725  -0.005 -0.6715  0.4280  0.4092
  186MOL0     C24460   4.906   3.758  -0.100  0.6914 -0.2202  0.7174
  186MOL0     C24461   4.786   3.823  -0.036  0.1306  0.9980  1.1055
  186MOL0     C24462   4.672   3.848  -0.135  0.2032 -0.8654  1.5341
  186MOL0     C24463   4.563   3.920  -0.073 -0.7845 -0.0159  0.7932
  186MOL0    Cl24464   4.604   4.085  -0.029 -0.3403  0.1362 -0.1288
  186MOL0     C24465   5.540   3.708   0.249 -0.0689 -0.6607  1.2067
  186MOL0     C24466   5.673   3.737   0.293 -0.3684  0.1604  0.6765
  186MOL0     O24467   5.890   3.771   0.514  0.1778 -0.2157 -0.4466
  186MOL0     C24468   6.130   3.930   0.464 -1.4451 -0.0981  0.6766
  186MOL0     C24469   6.256   3.998   0.429 -0.1865  0.6524  0.5040
  186MOL0     N24470   6.834   4.489   0.409  1.0090  0.1861 -1.0457
  186MOL0     N24471   6.929   4.552   0.458 -0.6946  0.2284 -0.3923
  186MOL0     C24472   8.040   4.958   0.278  0.6485  0.0017 -0.1859
  186MOL0     C24473   8.160   4.914   0.225  0.0725  0.2020  1.0550
  186MOL0     C24474   8.606   4.955   0.187  0.5300 -0.1282  0.3116
  186MOL0     C24475   8.700   4.881   0.253  0.5907 -0.0765 -0.6542
  186MOL0     C24476   8.824   4.863   0.192 -0.2914  0.0961  0.3249
  186MOL0     C24477   8.860   4.916   0.070 -0.4242  0.4309  0.3833
  186MOL0     O24478   8.968   4.879   0.002 -0.2174  0.0547  0.0868
  186MOL0     C24479   9.093   4.843   0.060 -0.0371 -0.1722  0.1482
  186MOL0     C24480   9.152   4.943   0.165  0.0044  0.4007 -0.0639
  186MOL0     C24481   9.196   5.075   0.096  0.3003 -0.7389  0.2402
  186MOL0     C24482   9.272   5.175   0.178  0.0243 -0.5700 -0.0004
  186MOL0     C24483   9.201   5.220   0.295 -0.0781  0.5889 -1.2067
  186MOL0     C24484   9.148   5.266   0.393  0.1943  0.2176  0.6378
  186MOL0     C24485   8.775   5.006   0.008 -0.6601  0.3915  0.0463
  186MOL0     C24486   8.643   5.019   0.066 -0.1262 -0.3128 -0.7607
  186MOL0     H24487   8.291   5.219   0.142 -2.4500  0.8267 -1.4634
  186MOL0     H24488   8.059   5.283   0.220  0.0218 -0.1459  0.9776
  186MOL0     H24489   7.708   5.099   0.426  1.6868  1.2003  2.7659
  186MOL0     H24490   7.829   4.981   0.442  0.4384  2.7757  2.6181
  186MOL0     H24491   7.795   4.921   0.206 -0.5240 -2.0828  1.8983
  186MOL0     H24492   7.687   5.055   0.178 -0.3755 -0.7970 -0.6810
  186MOL0     H24493   7.527   4.960   0.331  1.8320 -0.1133  3.6171
  186MOL0     H24494   7.618   4.820   0.360 -3.7805 -1.8782 -0.7811
  186MOL0     H24495   7.539   4.900   0.072  3.3369  0.5826  0.1399
  186MOL0     H24496   7.611   4.746   0.122 -1.3829 -0.0689  2.2765
  186MOL0     H24497   7.389   4.704   0.081 -0.2282  2.0479 -2.1861
  186MOL0     H24498   7.340   4.859   0.144  0.4114  1.2130  0.5737
  186MOL0     H24499   7.356   4.777   0.386 -3.1781  0.3417 -0.6735
  186MOL0     H24500   7.433   4.638   0.318  1.4858  1.5924  0.7552
  186MOL0     H24501   7.144   4.741   0.266  1.4895  0.9984  2.9793
  186MOL0     H24502   7.210   4.586   0.184 -2.0821  0.4964 -1.4350
  186MOL0     H24503   7.180   4.652   0.486 -0.3678 -2.4366  2.6033
  186MOL0     H24504   7.234   4.501   0.421 -3.2536 -1.8822  4.3405
  186MOL0     H24505   7.062   4.421   0.182  0.3984 -0.7029 -0.7886
  186MOL0     H24506   6.840   4.290   0.145  0.9441  0.8453  1.7358
  186MOL0     H24507   6.779   4.444   0.101  0.9891 -1.2978 -1.1168
  186MOL0     H24508   6.562   4.339   0.143  1.3528  1.8554 -1.2173
  186MOL0     H24509   6.591   4.396   0.301  0.6871 -0.1561  0.3620
  186MOL0     H24510   6.670   4.120   0.203 -0.6386  1.9078 -1.9917
  186MOL0     H24511   6.682   4.193   0.372 -0.4907 -2.5428  1.3345
  186MOL0     H24512   6.417   4.200   0.223 -0.2900  2.3459  0.9112
  186MOL0     H24513   6.450   4.194   0.401  0.8504 -1.2681  0.9383
  186MOL0     H24514   6.366   3.789   0.193 -0.4699 -0.9691 -0.5864
  186MOL0     H24515   6.163   3.667   0.252  0.3890 -0.4187  0.1298
  186MOL0     H24516   5.850   3.459   0.218  2.0890  1.9211 -0.2958
  186MOL0     H24517   5.618   3.394   0.134 -1.1865 -0.4614  0.1684
  186MOL0     H24518   5.355   3.721   0.044  3.3333 -1.2930 -1.3353
  186MOL0     H24519   5.252   3.686   0.190 -2.3836 -2.3435 -0.8923
  186MOL0     H24520   5.147   3.487   0.076 -0.4247  0.5115  0.4460
  186MOL0     H24521   5.272   3.508  -0.050  0.0363  3.1734 -3.1115
  186MOL0     H24522   5.081   3.575  -0.147 -3.0967  1.2653 -0.2192
  186MOL0     H24523   5.191   3.711  -0.116  0.6145 -0.4321 -0.9652
  186MOL0     H24524   4.965   3.660   0.070  0.8234  0.5632  1.4904
  186MOL0     H24525   5.068   3.812   0.026 -0.6175  1.6114 -2.6526
  186MOL0     H24526   4.873   3.676  -0.164 -0.8339  3.2178 -3.4678
  186MOL0     H24527   4.953   3.830  -0.168  2.0886  0.6730  2.5463
  186MOL0     H24528   4.815   3.922  -0.000  2.4795  0.7345  0.1115
  186MOL0     H24529   4.753   3.767   0.052 -1.7728 -0.1852 -0.2679
  186MOL0     H24530   4.711   3.909  -0.218  0.5728 -1.8674  0.9476
  186MOL0     H24531   4.645   3.749  -0.172  2.3152 -0.7657 -0.5707
  186MOL0     H24532   4.546   3.862   0.018 -0.7572 -1.2491  0.0375
  186MOL0     H24533   4.484   3.921  -0.149 -0.5109  2.8561  0.4314
  186MOL0     H24534   5.467   3.788   0.241 -1.5227 -2.0788 -0.3186
  186MOL0     H24535   5.690   3.840   0.320 -2.0706  0.2703  1.4446
  186MOL0     H24536   6.072   3.976   0.543 -0.4725 -0.8948  1.8866
  186MOL0     H24537   6.274   4.089   0.486  0.8364  0.0004  1.2546
  186MOL0     H24538   7.977   4.875   0.309 -1.1759  1.0986 -0.8195
  186MOL0     H24539   8.190   4.810   0.224  1.3919  0.5384 -1.5322
  186MOL0     H24540   8.692   4.825   0.346  1.9316  1.9933  0.8013
  186MOL0     H24541   8.908   4.812   0.238  0.0360  0.8039  0.5350
  186MOL0     H24542   9.155   4.842  -0.031 -1.8185  3.6795 -1.3307
  186MOL0     H24543   9.086   4.739   0.095 -0.5287 -0.5163 -0.9184
  186MOL0     H24544   9.066   4.965   0.229 -0.8919  3.3538 -2.0754
  186MOL0     H24545   9.242   4.899   0.210  1.3670 -0.5767 -3.4727
  186MOL0     H24546   9.097   5.114   0.070  0.7844  0.5867  0.2759
  186MOL0     H24547   9.258   5.065   0.007 -0.6759  0.3709 -0.5953
  186MOL0     H24548   9.373   5.148   0.209  0.8346  2.3417  0.1339
  186MOL0     H24549   9.285   5.262   0.114 -2.4143 -1.2520 -1.5747
  186MOL0     H24550   9.105   5.294   0.487 -2.1226 -0.6946 -0.0909
  186MOL0     H24551   8.808   5.036  -0.091  2.1265 -0.5632  0.6089
  186MOL0     H24552   8.572   5.080   0.011 -0.3122 -2.5569 -3.1697
  187MOL0     O24553   2.223   6.152   8.495  0.6930  0.0726  0.4091
  187MOL0     C24554   2.115   6.193   8.452  0.6717 -0.2194  0.0812
  187MOL0     O24555   2.088   6.251   8.336  0.0724  0.2959  0.0060
  187MOL0     C24556   2.167   6.207   8.228 -0.2601 -1.6205  0.2634
  187MOL0     C24557   2.217   6.298   8.137  0.5031 -0.1849 -0.4281
  187MOL0     C24558   2.292   6.255   8.025 -0.2304 -0.5694 -0.5212
  187MOL0     C24559   2.324   6.124   8.007  0.5042  1.5904 -0.0076
  187MOL0     O24560   2.362   6.093   7.883 -0.1204  0.7926  0.1571
  187MOL0     C24561   2.497   6.039   7.862 -0.4370 -0.4281 -0.8441
  187MOL0     C24562   2.609   6.147   7.884 -0.1880 -0.2059  0.1874
  187MOL0     C24563   2.588   6.258   7.780  0.8877 -0.4156  0.3620
  187MOL0     C24564   2.679   6.373   7.819 -0.6075  0.1356 -0.1247
  187MOL0     C24565   2.640   6.446   7.948 -0.2994 -0.0340 -0.1283
  187MOL0     C24566   2.757   6.529   8.003  0.5191 -0.2756 -1.2871
  187MOL0     C24567   2.827   6.435   8.102  0.2473  0.0737  0.1835
  187MOL0     C24568   2.940   6.500   8.197 -1.0647  0.8514  0.7037
  187MOL0     N24569   2.889   6.609   8.282 -0.1941 -0.0394  0.2954
  187MOL0     C24570   2.898   6.742   8.252  1.1499 -0.5607 -0.2528
  187MOL0     C24571   2.839   6.801   8.367 -0.0174  0.3604 -0.2589
  187MOL0     C24572   2.815   6.934   8.423  0.1323 -0.3999  0.2165
  187MOL0     C24573   2.916   6.988   8.526 -0.6097  1.0945  0.1292
  187MOL0     C24574   2.958   6.883   8.631  0.0396 -0.3809 -0.2308
  187MOL0     C24575   3.036   6.935   8.751 -0.2479  0.0257 -0.3431
  187MOL0     O24576   3.151   6.996   8.704 -0.5331  0.4648 -0.1873
  187MOL0     C24577   3.207   7.082   8.792  0.1493  0.5777  0.5378
  187MOL0     C24578   3.261   7.201   8.739 -0.3682  0.7024 -0.3790
  187MOL0     C24579   3.311   7.298   8.814  0.8144  0.1705 -0.2757
  187MOL0     C24580   3.304   7.286   8.957  0.8964  0.6298  0.2838
  187MOL0     C24581   3.377   7.384   9.031  0.9139  0.0056 -0.2458
  187MOL0     O24582   3.458   7.480   8.967 -0.1538  0.6170  0.3522
  187MOL0     C24583   3.508   7.587   9.038  1.4213 -0.3391  0.5146
  187MOL0     C24584   3.515   7.606   9.181 -0.3721  0.8227  0.2628
  187MOL0     C24585   3.549   7.727   9.235  0.3337 -0.7535  0.4135
  187MOL0     C24586   3.596   7.828   9.155  0.1743 -0.8762 -0.8470
  187MOL0     O24587   3.608   7.961   9.212  0.7376 -0.0921 -0.2868
  187MOL0     C24588   3.704   8.058   9.168  0.5103  1.0612  0.3444
  187MOL0     C24589   3.676   8.193   9.241  0.4928  0.6751  0.3143
  187MOL0     C24590   3.736   8.314   9.163 -0.3471 -1.2754 -0.3988
  187MOL0     C24591   3.714   8.451   9.223 -0.3783  0.7872  0.1365
  187MOL0     C24592   3.747   8.552   9.110 -0.2787 -0.0713 -0.0925
  187MOL0     C24593   3.896   8.587   9.123 -0.3655 -1.8736  0.1374
  187MOL0     C24594   3.930   8.682   9.009 -0.0440  0.2925 -0.3570
  187MOL0     C24595   4.078   8.724   9.009 -0.2077 -0.2063  0.1817
  187MOL0    Cl24596   4.188   8.589   9.018  0.1571  0.6041  0.0659
  187MOL0     C24597   3.602   7.803   9.018  0.7846  0.7353  0.1879
  187MOL0     C24598   3.551   7.689   8.959  0.2783 -0.0302  0.8947
  187MOL0     O24599   3.351   7.384   9.149 -0.7812  0.2892 -0.2560
  187MOL0     C24600   3.254   7.173   9.017 -0.6174  1.0832 -0.5161
  187MOL0     C24601   3.211   7.067   8.932  0.1717 -0.3922  0.4391
  187MOL0     N24602   2.782   6.696   8.443  0.0929 -0.1886  0.2038
  187MOL0     N24603   2.825   6.581   8.396  0.5325  0.9577 -0.1980
  187MOL0     C24604   2.254   6.031   8.084 -0.5428 -0.3094  0.4384
  187MOL0     C24605   2.182   6.065   8.199  0.1397  0.4052 -0.3466
  187MOL0     C24606   2.008   6.198   8.555  0.2863 -0.1926  0.4040
  187MOL0     C24607   2.030   6.152   8.681  0.1345  0.1718 -0.4973
  187MOL0     C24608   1.928   6.148   8.781  0.0819  1.2249  0.1703
  187MOL0     C24609   1.804   6.216   8.755 -0.3190  0.4302 -0.8424
  187MOL0     O24610   1.704   6.234   8.848 -0.1590  0.5629 -0.7051
  187MOL0     C24611   1.726   6.208   8.994 -0.0551  0.0739 -0.2974
  187MOL0     C24612   1.620   6.285   9.076 -0.0063  0.2129  0.2471
  187MOL0     C24613   1.493   6.204   9.059  0.6024 -0.7040  0.5712
  187MOL0     C24614   1.379   6.236   9.159  0.4053 -0.6961  0.2126
  187MOL0     C24615   1.337   6.375   9.139 -0.7393  0.1213 -1.4174
  187MOL0     C24616   1.311   6.495   9.152  0.1208 -0.9355  0.0448
  187MOL0     C24617   1.793   6.277   8.633  0.0289  0.5591  0.5446
  187MOL0     C24618   1.896   6.271   8.534 -0.1736  0.8424 -0.4570
  187MOL0     H24619   2.206   6.405   8.150  0.5515 -0.4393  2.4291
  187MOL0     H24620   2.338   6.326   7.957  0.8752 -0.3800  0.4083
  187MOL0     H24621   2.513   6.003   7.760  1.8126  1.0682 -1.0898
  187MOL0     H24622   2.518   5.955   7.929 -1.3532 -0.8490 -1.0766
  187MOL0     H24623   2.709   6.105   7.875 -0.2571  0.0890 -3.3117
  187MOL0     H24624   2.595   6.185   7.986  0.1880  0.2110  0.0898
  187MOL0     H24625   2.483   6.288   7.780 -0.3558 -4.1765 -1.6686
  187MOL0     H24626   2.607   6.217   7.680 -1.4615 -2.6843  0.7529
  187MOL0     H24627   2.782   6.336   7.829 -0.6864 -1.0994 -2.9002
  187MOL0     H24628   2.676   6.441   7.734  0.1446 -1.3787 -1.4282
  187MOL0     H24629   2.611   6.376   8.027  1.1001  0.7952  1.1803
  187MOL0     H24630   2.551   6.504   7.921  0.5191  0.6882 -1.3467
  187MOL0     H24631   2.713   6.606   8.066  0.2749 -0.3753 -1.3336
  187MOL0     H24632   2.816   6.577   7.924 -0.4143  1.7556 -0.8223
  187MOL0     H24633   2.758   6.394   8.177  1.2835 -0.8488  0.6654
  187MOL0     H24634   2.870   6.353   8.044  1.4617  1.2137 -0.5747
  187MOL0     H24635   3.021   6.540   8.134  2.0767 -0.1018  3.7923
  187MOL0     H24636   2.976   6.417   8.258 -1.6030  0.6398  0.7316
  187MOL0     H24637   2.941   6.791   8.166  2.0604 -1.1225 -0.1361
  187MOL0     H24638   2.712   6.948   8.458  0.3161 -3.5089  2.4817
  187MOL0     H24639   2.826   6.993   8.332 -1.9823 -1.4658 -0.8029
  187MOL0     H24640   2.882   7.081   8.572 -0.8748  0.7210  0.6972
  187MOL0     H24641   3.005   7.016   8.470  0.4809 -1.2413  0.5663
  187MOL0     H24642   2.861   6.844   8.663 -0.4247  1.1043  0.2421
  187MOL0     H24643   3.016   6.806   8.581 -2.6587 -2.5102 -0.2960
  187MOL0     H24644   3.067   6.851   8.814 -0.6168 -0.1098 -0.3386
  187MOL0     H24645   2.971   7.007   8.802  1.4936  1.5946 -0.2479
  187MOL0     H24646   3.251   7.215   8.631  0.9387  0.6880 -0.5274
  187MOL0     H24647   3.354   7.385   8.765 -2.0815  1.4796 -0.7081
  187MOL0     H24648   3.503   7.527   9.254  0.3581  1.0518  0.6333
  187MOL0     H24649   3.532   7.742   9.341 -1.9170 -0.7031  0.0809
  187MOL0     H24650   3.694   8.065   9.060 -0.3824  0.7215  0.3959
  187MOL0     H24651   3.793   8.012   9.212 -0.5524 -0.0429  1.4614
  187MOL0     H24652   3.720   8.184   9.341 -3.0143  5.3074  2.6550
  187MOL0     H24653   3.570   8.210   9.259  0.4891  0.1227  0.8537
  187MOL0     H24654   3.681   8.312   9.068 -0.0469  2.4939 -0.8067
  187MOL0     H24655   3.842   8.290   9.150  1.1081  1.6922  3.7800
  187MOL0     H24656   3.609   8.465   9.253 -0.8898  3.8035 -2.5168
  187MOL0     H24657   3.777   8.462   9.312 -1.0363  3.0221  0.3920
  187MOL0     H24658   3.699   8.649   9.116  0.1921  0.1598  0.0088
  187MOL0     H24659   3.726   8.516   9.009 -0.7916  0.0082 -0.0162
  187MOL0     H24660   3.959   8.498   9.138 -1.5475 -2.5002  1.7658
  187MOL0     H24661   3.908   8.639   9.219  2.2697  0.2758 -1.2384
  187MOL0     H24662   3.900   8.620   8.923 -0.8678 -0.2887  0.3248
  187MOL0     H24663   3.869   8.773   9.009  0.0371  0.3796 -1.9281
  187MOL0     H24664   4.092   8.788   9.097  1.9493 -1.5176  0.8669
  187MOL0     H24665   4.103   8.788   8.924  0.0733 -0.7487 -0.1491
  187MOL0     H24666   3.644   7.866   8.940 -0.1093 -0.7868 -1.6065
  187MOL0     H24667   3.558   7.670   8.853 -1.7663 -0.8008  0.8506
  187MOL0     H24668   3.270   7.151   9.122  1.2517 -1.0730 -1.1599
  187MOL0     H24669   3.170   6.975   8.973 -1.2196  0.8548  1.9798
  187MOL0     H24670   2.269   5.925   8.065  1.3264 -0.4693  2.4313
  187MOL0     H24671   2.138   5.981   8.251 -1.0737  1.0109 -0.3492
  187MOL0     H24672   2.125   6.101   8.696  1.4843  2.9363  1.1716
  187MOL0     H24673   1.954   6.096   8.873 -2.7532  1.9577  1.4793
  187MOL0     H24674   1.824   6.244   9.026 -0.8852  1.5736  0.6355
  187MOL0     H24675   1.729   6.100   9.016  1.2548  0.3063  0.8252
  187MOL0     H24676   1.642   6.285   9.184  1.0705 -0.4219  0.0455
  187MOL0     H24677   1.623   6.388   9.040  2.1863 -0.8103 -2.9240
  187MOL0     H24678   1.503   6.095   9.067 -1.5871 -0.9730  0.1669
  187MOL0     H24679   1.462   6.211   8.954 -1.3833 -0.9927  1.1059
  187MOL0     H24680   1.287   6.178   9.151 -0.0596 -0.0561  0.7798
  187MOL0     H24681   1.414   6.223   9.261  0.2246 -1.2211  0.2099
  187MOL0     H24682   1.295   6.601   9.161  0.2032 -0.7981 -1.2215
  187MOL0     H24683   1.723   6.354   8.603  0.8905 -0.0796 -3.9838
  187MOL0     H24684   1.871   6.315   8.438 -0.4139  0.0170 -0.7763
  188MOL0     O24685   0.960   2.607   3.862  0.3855 -0.6577  0.0933
  188MOL0     C24686   0.936   2.496   3.812  0.4122 -0.2509  0.1639
  188MOL0     O24687   1.027   2.400   3.785 -0.0525 -0.6566  0.2557
  188MOL0     C24688   1.154   2.443   3.745 -0.2129  0.2221  0.8753
  188MOL0     C24689   1.272   2.378   3.795  1.2957  0.6485  0.8536
  188MOL0     C24690   1.401   2.420   3.753  0.2554  0.0585 -0.7522
  188MOL0     C24691   1.408   2.534   3.678 -0.6040  0.5458  0.2957
  188MOL0     O24692   1.535   2.576   3.653 -0.3468 -0.0805  0.0322
  188MOL0     C24693   1.592   2.666   3.750 -0.4661 -0.4543 -0.4857
  188MOL0     C24694   1.724   2.736   3.705  0.8362  1.3300  0.6295
  188MOL0     C24695   1.775   2.813   3.829  0.0400  0.4718 -0.7124
  188MOL0     C24696   1.894   2.907   3.785  0.4246  0.2555  0.1209
  188MOL0     C24697   2.004   2.834   3.725  0.0557 -0.3239  0.8541
  188MOL0     C24698   2.048   2.706   3.799 -0.1473  0.6127 -0.5919
  188MOL0     C24699   2.169   2.655   3.711  0.5962 -0.1132  0.5556
  188MOL0     C24700   2.251   2.537   3.774 -0.1201 -0.0528 -0.6490
  188MOL0     N24701   2.375   2.515   3.698  0.1993  0.9160  0.3357
  188MOL0     C24702   2.485   2.590   3.712 -1.1524  0.2074  0.3034
  188MOL0     C24703   2.559   2.557   3.611 -0.1832  0.4014  0.8266
  188MOL0     C24704   2.708   2.590   3.591 -0.0926 -0.1100 -0.4403
  188MOL0     C24705   2.785   2.463   3.555  0.3351 -0.1144  0.8081
  188MOL0     C24706   2.930   2.502   3.520 -0.3604  0.2749 -0.0695
  188MOL0     C24707   3.020   2.381   3.498 -0.0190 -0.7198 -0.3975
  188MOL0     O24708   3.070   2.347   3.629  0.0705  0.1272  0.7502
  188MOL0     C24709   3.166   2.248   3.625  0.0250  0.4001  0.0045
  188MOL0     C24710   3.261   2.249   3.729  0.1150 -0.3472  1.0849
  188MOL0     C24711   3.346   2.148   3.746  0.3115  0.1154 -1.1100
  188MOL0     C24712   3.356   2.043   3.644  0.2640  0.3035 -0.2227
  188MOL0     C24713   3.459   1.934   3.662  0.0097  0.2476 -0.1456
  188MOL0     O24714   3.504   1.886   3.544  0.0200 -0.6352  0.1985
  188MOL0     C24715   3.597   1.779   3.539 -0.3789  0.3907  0.0002
  188MOL0     C24716   3.600   1.673   3.632  0.0399 -1.0911 -0.2709
  188MOL0     C24717   3.689   1.569   3.624  0.5156 -1.1391 -0.3723
  188MOL0     C24718   3.790   1.572   3.522  1.2212  0.0503  0.1714
  188MOL0     O24719   3.888   1.471   3.521 -0.9464  0.3348  0.2241
  188MOL0     C24720   4.004   1.459   3.442  0.3426  0.0273  1.2221
  188MOL0     C24721   4.106   1.568   3.444  0.9105  0.1887 -0.1310
  188MOL0     C24722   4.213   1.563   3.545  0.7841  0.2128  0.3061
  188MOL0     C24723   4.316   1.462   3.525 -0.6875  0.1253  0.4250
  188MOL0     C24724   4.404   1.481   3.401 -0.5326  0.4109  0.0524
  188MOL0     C24725   4.513   1.374   3.420 -0.3882 -0.3716 -0.4061
  188MOL0     C24726   4.615   1.383   3.291 -0.2150  0.3118 -0.7861
  188MOL0     C24727   4.737   1.304   3.319  0.2028  0.9551 -0.1586
  188MOL0    Cl24728   4.773   1.200   3.186 -0.2451 -0.1985 -0.1421
  188MOL0     C24729   3.780   1.669   3.421 -0.5601  0.1717 -0.0600
  188MOL0     C24730   3.690   1.775   3.440 -0.0997 -0.2791  0.0850
  188MOL0     O24731   3.512   1.907   3.775 -0.5595  0.1981  0.3196
  188MOL0     C24732   3.267   2.040   3.537  0.7036 -0.2524  0.5748
  188MOL0     C24733   3.176   2.146   3.527 -0.3910 -0.3191 -0.3076
  188MOL0     N24734   2.481   2.468   3.522 -0.1141  0.3931  0.5738
  188MOL0     N24735   2.372   2.452   3.575  0.6297 -0.1617  0.1813
  188MOL0     C24736   1.296   2.591   3.622 -0.4079 -0.5615 -0.5695
  188MOL0     C24737   1.174   2.555   3.661  0.0970  0.5807  0.7167
  188MOL0     C24738   0.794   2.468   3.776 -0.3759  0.5716  0.0802
  188MOL0     C24739   0.761   2.351   3.701  0.1298  0.3055  0.0726
  188MOL0     C24740   0.626   2.326   3.674 -1.0787 -0.8060  0.9766
  188MOL0     C24741   0.529   2.419   3.695  0.2486  0.1065  0.0683
  188MOL0     O24742   0.409   2.406   3.629 -0.5247  0.6369 -0.8773
  188MOL0     C24743   0.329   2.518   3.636  0.1438  0.3098  0.6119
  188MOL0     C24744   0.224   2.508   3.745  0.1314 -1.0378 -0.2873
  188MOL0     C24745   0.127   2.398   3.706  0.3739 -0.0594  0.0571
  188MOL0     C24746   0.037   2.352   3.824 -0.1954  0.0651 -0.1591
  188MOL0     C24747  -0.049   2.233   3.808 -0.4351  0.0036  0.8700
  188MOL0     C24748  -0.095   2.122   3.800 -0.4778 -0.3986 -0.2346
  188MOL0     C24749   0.557   2.522   3.783 -0.3707 -0.0837  0.4083
  188MOL0     C24750   0.691   2.560   3.819 -0.7168  0.2572  0.7344
  188MOL0     H24751   1.264   2.293   3.862 -1.7614 -1.2366 -1.5921
  188MOL0     H24752   1.488   2.358   3.775 -0.9062 -0.6828  2.1769
  188MOL0     H24753   1.622   2.609   3.839  0.1004  2.9782  1.7000
  188MOL0     H24754   1.527   2.747   3.783  0.2950  0.1403 -0.4130
  188MOL0     H24755   1.693   2.795   3.618  0.2867 -3.0623 -2.4996
  188MOL0     H24756   1.789   2.662   3.657 -1.0342  0.8449 -1.3169
  188MOL0     H24757   1.798   2.744   3.910 -0.7567 -1.1044 -1.7646
  188MOL0     H24758   1.704   2.884   3.874  2.8596  1.3198  2.7942
  188MOL0     H24759   1.876   2.981   3.707  3.5219  1.1785  0.1841
  188MOL0     H24760   1.930   2.964   3.871  0.1836  0.9601 -0.2367
  188MOL0     H24761   2.091   2.901   3.729  0.6579 -1.0280 -0.0018
  188MOL0     H24762   1.978   2.804   3.624  1.0609  0.3127  0.3943
  188MOL0     H24763   1.973   2.626   3.793 -0.3260  0.6197  0.9931
  188MOL0     H24764   2.066   2.721   3.906  2.9736 -0.6116 -0.8534
  188MOL0     H24765   2.137   2.643   3.607  2.0780  0.5301 -0.0066
  188MOL0     H24766   2.239   2.739   3.715 -0.5289  0.8039  3.2089
  188MOL0     H24767   2.201   2.440   3.766  0.5215 -0.7807  2.7318
  188MOL0     H24768   2.283   2.565   3.875 -2.0647  2.1527 -0.5593
  188MOL0     H24769   2.512   2.647   3.800  0.7833  0.6137 -0.5047
  188MOL0     H24770   2.746   2.634   3.683 -0.0122 -0.2260 -0.4188
  188MOL0     H24771   2.713   2.659   3.506 -1.8844  0.3048 -0.2483
  188MOL0     H24772   2.745   2.425   3.460 -0.4263  2.4589  0.0367
  188MOL0     H24773   2.774   2.392   3.638 -0.1087 -0.2204  0.6588
  188MOL0     H24774   2.935   2.564   3.430  1.4436 -0.6791 -0.6744
  188MOL0     H24775   2.980   2.555   3.602  1.9086 -2.3425  0.3805
  188MOL0     H24776   3.094   2.413   3.424 -0.9485 -0.3152 -1.1707
  188MOL0     H24777   2.962   2.304   3.446 -0.7249 -0.1891 -0.4153
  188MOL0     H24778   3.247   2.319   3.811  1.5662 -0.5183  1.5078
  188MOL0     H24779   3.414   2.138   3.830  0.0113 -0.9887 -0.9851
  188MOL0     H24780   3.538   1.685   3.720  1.3596  2.3332  0.3567
  188MOL0     H24781   3.681   1.508   3.713 -3.8820 -1.8955 -1.0349
  188MOL0     H24782   3.977   1.432   3.339  1.0296 -0.2720  1.1136
  188MOL0     H24783   4.051   1.365   3.472 -0.3542 -1.6225 -2.2924
  188MOL0     H24784   4.051   1.662   3.451 -1.9376 -1.3081 -0.9291
  188MOL0     H24785   4.151   1.584   3.345 -1.8773  0.4578 -1.4498
  188MOL0     H24786   4.168   1.542   3.642  0.6365 -0.0732  0.1764
  188MOL0     H24787   4.252   1.666   3.544 -3.8580  2.2219 -0.7691
  188MOL0     H24788   4.391   1.470   3.604  1.3821 -0.6299 -1.3780
  188MOL0     H24789   4.280   1.359   3.538 -2.0705  0.4833 -0.4223
  188MOL0     H24790   4.447   1.580   3.381 -0.8889  0.5951  0.1958
  188MOL0     H24791   4.345   1.455   3.313  1.7808 -0.6856 -1.2937
  188MOL0     H24792   4.490   1.268   3.432  2.6406 -0.8791  2.1538
  188MOL0     H24793   4.573   1.396   3.509  0.1609 -1.3853 -0.5137
  188MOL0     H24794   4.569   1.345   3.199 -1.6264  2.1097 -0.8723
  188MOL0     H24795   4.638   1.488   3.271  0.5031  0.7001  1.7656
  188MOL0     H24796   4.723   1.242   3.408 -0.8339  0.4297 -0.6728
  188MOL0     H24797   4.823   1.368   3.342  2.2523 -1.3118 -1.0396
  188MOL0     H24798   3.836   1.645   3.331 -1.5585  0.0902 -0.6785
  188MOL0     H24799   3.691   1.855   3.366  2.7832 -0.1596  0.1313
  188MOL0     H24800   3.274   1.958   3.467  2.3100  0.3334  0.0147
  188MOL0     H24801   3.109   2.139   3.442  0.6097 -0.4924 -1.1109
  188MOL0     H24802   1.306   2.673   3.551  1.9487  0.1114  0.4195
  188MOL0     H24803   1.096   2.599   3.600  0.4676  1.2724  0.7365
  188MOL0     H24804   0.822   2.277   3.649  2.5856  1.6338  0.9215
  188MOL0     H24805   0.597   2.237   3.619 -0.2877 -0.2976 -0.3126
  188MOL0     H24806   0.276   2.531   3.541  0.1052  0.2880  0.6302
  188MOL0     H24807   0.381   2.614   3.641 -1.1592  1.4847 -3.5607
  188MOL0     H24808   0.272   2.466   3.834  2.6235 -2.1710 -2.0175
  188MOL0     H24809   0.172   2.603   3.754  2.3703  0.4069 -1.5881
  188MOL0     H24810   0.171   2.307   3.664  0.2351  0.7213 -1.8680
  188MOL0     H24811   0.068   2.437   3.623  1.5730  0.8738 -0.4009
  188MOL0     H24812   0.096   2.339   3.915 -1.0888  1.1353  0.6134
  188MOL0     H24813  -0.034   2.429   3.854 -0.9158  0.2242 -2.1009
  188MOL0     H24814  -0.122   2.019   3.798  0.0065 -0.6779  2.8468
  188MOL0     H24815   0.474   2.568   3.835 -1.3121 -0.7142 -0.4969
  188MOL0     H24816   0.713   2.644   3.883  3.5377 -0.9729  1.2239
  189MOL0     O24817   2.588  10.495   8.323 -0.0166 -0.0186  0.0105
  189MOL0     C24818   2.596  10.583   8.239 -0.7258 -0.1507  0.0987
  189MOL0     O24819   2.487  10.670   8.201  0.1907 -0.1773  0.0471
  189MOL0     C24820   2.357  10.637   8.237 -0.2114 -0.6704  0.0573
  189MOL0     C24821   2.276  10.744   8.275  1.4178 -0.1764 -0.2739
  189MOL0     C24822   2.136  10.732   8.299 -0.1988 -0.3557  0.3744
  189MOL0     C24823   2.078  10.608   8.294  0.2363  0.3462  0.5823
  189MOL0     O24824   1.944  10.594   8.313 -0.2716  0.7346 -0.3816
  189MOL0     C24825   1.881  10.474   8.375 -0.4793 -0.1594 -1.2938
  189MOL0     C24826   1.815  10.382   8.279 -1.2599 -0.2715 -1.3467
  189MOL0     C24827   1.663  10.395   8.268  0.0914 -0.0705  0.6562
  189MOL0     C24828   1.630  10.543   8.233  0.3993  0.4541  0.5276
  189MOL0     C24829   1.490  10.562   8.170  0.0288 -0.1039  0.0415
  189MOL0     C24830   1.481  10.500   8.033 -0.2716 -0.4519 -0.4837
  189MOL0     C24831   1.353  10.404   8.032 -0.2717  0.4269 -0.2224
  189MOL0     C24832   1.285  10.409   7.894 -0.5685 -0.7727  0.1476
  189MOL0     N24833   1.224  10.534   7.849 -0.2611 -0.0701 -0.2597
  189MOL0     C24834   1.108  10.591   7.894  0.3943 -0.3279 -0.3474
  189MOL0     C24835   1.097  10.710   7.835  0.9281 -0.7934  0.1350
  189MOL0     C24836   0.975  10.807   7.840 -0.5471 -0.0977 -0.0989
  189MOL0     C24837   0.898  10.787   7.723 -0.2095 -0.4482 -0.3700
  189MOL0     C24838   0.756  10.842   7.746  0.4149  0.5616 -0.3683
  189MOL0     C24839   0.667  10.848   7.619  1.3249 -0.4632 -0.6701
  189MOL0     O24840   0.542  10.912   7.658 -0.3504  0.1005  0.2082
  189MOL0     C24841   0.421  10.875   7.598 -0.7059 -0.9115  0.4063
  189MOL0     C24842   0.419  10.827   7.465 -0.0471  0.3956 -0.0182
  189MOL0     C24843   0.298  10.792   7.405  0.1809  0.7679  0.7865
  189MOL0     C24844   0.174  10.804   7.472 -0.9266 -0.2915 -0.4805
  189MOL0     C24845   0.044  10.761   7.414 -0.4151 -1.4875 -0.1878
  189MOL0     O24846  -0.048  10.733   7.504 -0.1815  0.1733  0.1200
  189MOL0     C24847  -0.135  10.638   7.457 -0.0009  0.3136 -0.2394
  189MOL0     C24848  -0.101  10.508   7.405 -0.1346 -0.4432 -0.1071
  189MOL0     C24849  -0.200  10.426   7.361 -0.7778  0.1048  0.1514
  189MOL0     C24850  -0.332  10.461   7.353  0.1714 -1.2140  0.3911
  189MOL0     O24851  -0.412  10.377   7.284 -0.2049  0.1773  0.6324
  189MOL0     C24852  -0.541  10.421   7.256 -0.4115 -0.5645 -1.0866
  189MOL0     C24853  -0.626  10.326   7.169 -0.0232 -0.8031  0.5368
  189MOL0     C24854  -0.773  10.358   7.163 -0.6005 -0.6135 -0.7605
  189MOL0     C24855  -0.806  10.499   7.105 -0.9076 -0.3717  0.0739
  189MOL0     C24856  -0.928  10.497   7.021  0.2096 -0.1116 -0.3073
  189MOL0     C24857  -0.980  10.625   6.946 -0.4495 -0.4422 -0.7696
  189MOL0     C24858  -1.115  10.602   6.887 -0.2962  0.8131  0.1572
  189MOL0     C24859  -1.154  10.721   6.810  0.3167 -0.6536  0.2909
  189MOL0    Cl24860  -1.213  10.826   6.939  0.1126  0.2806 -0.1283
  189MOL0     C24861  -0.366  10.579   7.410  0.0169 -0.1020 -1.0892
  189MOL0     C24862  -0.271  10.657   7.474 -0.9177 -0.0492 -0.2905
  189MOL0     O24863   0.044  10.733   7.293 -0.6387 -0.2209  0.1688
  189MOL0     C24864   0.178  10.852   7.606 -0.4869 -0.2800 -0.6835
  189MOL0     C24865   0.301  10.887   7.668 -0.3249 -0.5393 -1.1435
  189MOL0     N24866   1.202  10.725   7.753  0.5099  0.0672  0.3762
  189MOL0     N24867   1.289  10.630   7.768  0.3698  1.1850  0.3406
  189MOL0     C24868   2.160  10.501   8.245 -0.5067  0.0498 -0.3201
  189MOL0     C24869   2.299  10.511   8.225 -0.3077 -0.1033  1.2142
  189MOL0     C24870   2.719  10.585   8.165  0.1877 -0.1155 -0.4622
  189MOL0     C24871   2.818  10.475   8.169  0.1248  0.3232  0.0195
  189MOL0     C24872   2.938  10.483   8.095  0.0045 -0.0661 -0.0709
  189MOL0     C24873   2.959  10.580   8.005  0.5212  0.5319  0.8943
  189MOL0     O24874   3.075  10.597   7.931  0.8594 -0.2576  0.3344
  189MOL0     C24875   3.193  10.530   7.969  0.2667 -0.9789  0.1203
  189MOL0     C24876   3.307  10.623   7.928 -0.5996 -0.2116 -0.6677
  189MOL0     C24877   3.344  10.741   8.021 -0.7789 -0.9526 -0.1239
  189MOL0     C24878   3.442  10.699   8.132  0.3382  0.8398 -0.9824
  189MOL0     C24879   3.576  10.675   8.086  0.2897  0.5927 -0.3140
  189MOL0     C24880   3.690  10.656   8.049  0.1360 -0.0764  0.5688
  189MOL0     C24881   2.870  10.695   8.006 -0.2492 -0.2735 -0.0822
  189MOL0     C24882   2.754  10.692   8.081  0.4224 -1.2473 -0.2551
  189MOL0     H24883   2.329  10.838   8.283 -0.0237  0.9312 -2.7556
  189MOL0     H24884   2.085  10.822   8.332  1.4803  0.0443  2.0245
  189MOL0     H24885   1.808  10.508   8.449 -1.1184  1.9639 -2.8022
  189MOL0     H24886   1.954  10.418   8.435 -1.2113  0.2435  0.0048
  189MOL0     H24887   1.834  10.277   8.302  2.2689  0.8412  1.8056
  189MOL0     H24888   1.865  10.410   8.186  1.0125  0.1036 -0.0864
  189MOL0     H24889   1.623  10.365   8.365 -1.6920  0.5208  0.1456
  189MOL0     H24890   1.653  10.333   8.178  0.2089  4.1544 -2.6026
  189MOL0     H24891   1.629  10.609   8.320  1.0323  0.8489  0.2384
  189MOL0     H24892   1.703  10.592   8.168 -0.5949  1.3995  0.0870
  189MOL0     H24893   1.463  10.667   8.154 -0.9019 -0.6273 -2.3095
  189MOL0     H24894   1.421  10.505   8.233  0.2565  1.9594  2.3377
  189MOL0     H24895   1.571  10.443   8.009  1.0299  0.9518  0.8012
  189MOL0     H24896   1.461  10.578   7.958  0.4923  0.7013  0.4584
  189MOL0     H24897   1.381  10.301   8.056 -0.0011  0.5959  0.2269
  189MOL0     H24898   1.274  10.425   8.105  1.4836 -2.1747  2.6854
  189MOL0     H24899   1.199  10.345   7.914 -0.2699 -1.0700  0.4964
  189MOL0     H24900   1.343  10.357   7.816 -1.4385 -2.2371  0.4492
  189MOL0     H24901   1.034  10.551   7.962  1.1347 -0.1617  0.5701
  189MOL0     H24902   1.008  10.911   7.851  0.3109 -0.3521 -0.2238
  189MOL0     H24903   0.909  10.784   7.924 -2.2015  0.3073 -1.2289
  189MOL0     H24904   0.882  10.682   7.695  0.6728 -0.6087 -0.2808
  189MOL0     H24905   0.942  10.856   7.651 -1.2400  1.9954  1.2434
  189MOL0     H24906   0.707  10.787   7.827  0.0877  2.1710  0.5840
  189MOL0     H24907   0.763  10.947   7.778 -1.4251  0.2818  1.0806
  189MOL0     H24908   0.654  10.751   7.571 -0.9323 -0.0861 -0.9442
  189MOL0     H24909   0.711  10.918   7.547 -1.5672  1.5636 -0.6382
  189MOL0     H24910   0.499  10.829   7.391 -1.8502 -1.2446 -2.1677
  189MOL0     H24911   0.306  10.759   7.302  1.4179  0.5882  0.9235
  189MOL0     H24912  -0.000  10.468   7.411  0.1740 -0.1754 -2.6221
  189MOL0     H24913  -0.164  10.335   7.315 -1.6763 -0.1627 -0.0520
  189MOL0     H24914  -0.537  10.520   7.210 -1.2938 -0.1619 -0.3300
  189MOL0     H24915  -0.586  10.432   7.355 -0.3688  0.8102 -1.2034
  189MOL0     H24916  -0.609  10.227   7.215  3.6883 -0.7793 -0.4500
  189MOL0     H24917  -0.577  10.320   7.072 -0.6125  1.9370  0.0127
  189MOL0     H24918  -0.808  10.363   7.266  3.3767 -3.8036  1.0382
  189MOL0     H24919  -0.817  10.274   7.109  0.3381 -0.5202 -1.7221
  189MOL0     H24920  -0.820  10.568   7.189 -3.5729  1.3108 -1.6010
  189MOL0     H24921  -0.714  10.532   7.056  0.9674 -0.6577  3.1031
  189MOL0     H24922  -1.005  10.457   7.087  2.1129 -0.1920  2.0245
  189MOL0     H24923  -0.909  10.427   6.939  2.4158  0.9501 -0.7873
  189MOL0     H24924  -0.911  10.646   6.863  1.5650  0.6085  1.0602
  189MOL0     H24925  -0.974  10.712   7.012 -0.0809 -0.2456 -1.0587
  189MOL0     H24926  -1.099  10.515   6.823 -1.2679  0.4494  0.3907
  189MOL0     H24927  -1.194  10.570   6.956 -2.8814  0.2447 -2.8214
  189MOL0     H24928  -1.235  10.709   6.737 -1.8640  2.7151  1.8999
  189MOL0     H24929  -1.069  10.764   6.757  2.1857 -1.7816  2.2514
  189MOL0     H24930  -0.470  10.600   7.433  0.3777  0.1791  0.4093
  189MOL0     H24931  -0.299  10.751   7.519 -0.6481  0.6769 -1.5814
  189MOL0     H24932   0.082  10.855   7.657 -1.6577  0.4931 -2.8194
  189MOL0     H24933   0.299  10.925   7.769  3.3746  0.0821 -1.1793
  189MOL0     H24934   2.106  10.411   8.217 -1.4320  0.5840 -0.3062
  189MOL0     H24935   2.365  10.436   8.184  1.9546  0.4310  3.5802
  189MOL0     H24936   2.812  10.393   8.240  1.2466  0.5587  0.3941
  189MOL0     H24937   3.006  10.399   8.104 -0.6896 -0.6904 -0.5708
  189MOL0     H24938   3.209  10.433   7.923  0.8470 -2.2694  2.8310
  189MOL0     H24939   3.197  10.519   8.078  0.5216 -3.7874 -0.0984
  189MOL0     H24940   3.390  10.552   7.921  0.0585  0.6307 -1.7532
  189MOL0     H24941   3.291  10.660   7.826 -1.1985 -1.8467 -1.2095
  189MOL0     H24942   3.257  10.787   8.068 -0.2059  0.5979 -0.5197
  189MOL0     H24943   3.393  10.817   7.960 -1.2089 -1.3784 -1.0174
  189MOL0     H24944   3.459  10.787   8.195  1.8295  2.3024 -3.2581
  189MOL0     H24945   3.411  10.610   8.187  0.3278  1.1420 -0.4896
  189MOL0     H24946   3.793  10.639   8.025  0.4795  0.4908  1.5734
  189MOL0     H24947   2.893  10.770   7.931  1.8890  1.1271  1.8389
  189MOL0     H24948   2.682  10.774   8.075 -0.7039 -2.2413 -0.7394
  190MOL0     O24949   5.128   8.687   8.687 -0.0270  0.4525  0.0986
  190MOL0     C24950   5.101   8.581   8.736 -0.4674 -0.5270  0.9047
  190MOL0     O24951   4.992   8.553   8.809 -0.4213  0.0560 -0.1839
  190MOL0     C24952   4.893   8.639   8.836  0.3851  0.5826 -0.2431
  190MOL0     C24953   4.784   8.590   8.909 -0.2355  0.2263  0.4520
  190MOL0     C24954   4.674   8.682   8.957 -0.0015  0.2467  0.2563
  190MOL0     C24955   4.681   8.817   8.917  0.0314 -0.6240  0.4952
  190MOL0     O24956   4.560   8.884   8.948 -0.0954 -0.3725 -0.0420
  190MOL0     C24957   4.571   9.026   8.962  0.3219 -0.3639 -0.1717
  190MOL0     C24958   4.432   9.088   8.925  0.5006  0.3999 -0.8283
  190MOL0     C24959   4.337   9.058   9.037  0.0443 -0.5774 -0.3882
  190MOL0     C24960   4.220   9.156   9.050  0.6480  0.1421  0.1290
  190MOL0     C24961   4.141   9.108   9.174  1.0613  0.3268 -0.1921
  190MOL0     C24962   4.001   9.197   9.189 -0.3262  0.1055  0.0442
  190MOL0     C24963   3.927   9.144   9.309  0.3612 -0.8565 -0.7829
  190MOL0     C24964   3.783   9.206   9.316 -0.1190  0.3573 -0.7646
  190MOL0     N24965   3.769   9.344   9.365  0.0612 -0.3914  0.7272
  190MOL0     C24966   3.860   9.398   9.450 -0.4647 -0.0391 -0.8369
  190MOL0     C24967   3.857   9.530   9.423  0.0641  0.0807  0.1036
  190MOL0     C24968   3.937   9.647   9.482  1.1165  0.3841 -0.0010
  190MOL0     C24969   3.837   9.755   9.510  0.1561 -0.4800  0.6616
  190MOL0     C24970   3.875   9.842   9.632 -0.9802  0.1335  0.6497
  190MOL0     C24971   3.765   9.932   9.690 -0.4341 -0.0190  0.1438
  190MOL0     O24972   3.695  10.001   9.590  0.4386 -1.0246 -0.1036
  190MOL0     C24973   3.585  10.071   9.632 -0.8431 -0.3826 -0.0118
  190MOL0     C24974   3.479  10.076   9.546 -0.6851 -0.5922  0.8989
  190MOL0     C24975   3.365  10.151   9.581  0.1577 -0.2751  1.0736
  190MOL0     C24976   3.355  10.219   9.701  0.2130  0.9700  0.2672
  190MOL0     C24977   3.240  10.316   9.728 -0.2521 -0.3331  0.6857
  190MOL0     O24978   3.157  10.353   9.625 -0.2639 -0.3300  0.2188
  190MOL0     C24979   3.040  10.424   9.650 -0.3035 -0.7180 -0.5409
  190MOL0     C24980   2.995  10.504   9.548 -0.3483 -0.3118  0.0661
  190MOL0     C24981   2.875  10.576   9.558  0.4921  0.6018 -0.0056
  190MOL0     C24982   2.792  10.555   9.668 -0.3679  0.3588  0.2918
  190MOL0     O24983   2.661  10.607   9.674 -0.1611 -0.0332 -0.1274
  190MOL0     C24984   2.573  10.597   9.560  0.4100 -0.0325  0.5252
  190MOL0     C24985   2.426  10.649   9.594  0.1819  0.8205 -0.7738
  190MOL0     C24986   2.327  10.583   9.490 -0.5609 -0.1153 -0.0104
  190MOL0     C24987   2.179  10.605   9.527  0.2916  0.1443  0.1820
  190MOL0     C24988   2.089  10.502   9.446 -0.1106  0.0800  0.0123
  190MOL0     C24989   1.941  10.539   9.435 -0.6219  1.3594  0.2356
  190MOL0     C24990   1.870  10.558   9.570  0.2067  0.7912  0.8530
  190MOL0     C24991   1.719  10.566   9.541  1.1515 -0.3345  0.8026
  190MOL0    Cl24992   1.613  10.614   9.675 -0.3820  0.0346 -0.2007
  190MOL0     C24993   2.832  10.472   9.779 -0.2608  0.3433 -0.0454
  190MOL0     C24994   2.955  10.404   9.765 -0.2527  1.4137  0.1066
  190MOL0     O24995   3.237  10.366   9.842 -0.2750 -0.0443 -0.2127
  190MOL0     C24996   3.460  10.203   9.793 -0.8116  0.0673 -0.0107
  190MOL0     C24997   3.574  10.130   9.759  0.6655  0.4008  0.4249
  190MOL0     N24998   3.764   9.556   9.323  0.4513  0.5676 -0.6076
  190MOL0     N24999   3.720   9.443   9.284  0.5446  0.4291  0.0930
  190MOL0     C25000   4.796   8.871   8.848 -0.3220 -0.6177 -0.8995
  190MOL0     C25001   4.890   8.782   8.798 -0.0844  0.2801 -0.7649
  190MOL0     C25002   5.193   8.470   8.721 -0.5055  0.2078  0.5640
  190MOL0     C25003   5.278   8.470   8.611  0.9617 -0.1056  0.3338
  190MOL0     C25004   5.361   8.363   8.591  0.1806  0.0620  0.2322
  190MOL0     C25005   5.349   8.242   8.668  0.5560 -1.3966  0.8089
  190MOL0     O25006   5.415   8.120   8.647 -0.1629  0.8144 -0.9023
  190MOL0     C25007   5.500   8.128   8.534 -0.1783 -0.2014 -0.4517
  190MOL0     C25008   5.576   7.998   8.520  0.6960 -0.1668 -0.8402
  190MOL0     C25009   5.672   8.006   8.396 -0.2292 -1.1115  0.2032
  190MOL0     C25010   5.706   7.867   8.348 -0.1153 -0.1177 -0.1679
  190MOL0     C25011   5.806   7.871   8.233  0.1066 -0.6259 -0.4145
  190MOL0     C25012   5.873   7.842   8.138  0.0720  0.2117  0.0976
  190MOL0     C25013   5.284   8.253   8.792 -0.5986 -0.2558  0.5199
  190MOL0     C25014   5.200   8.369   8.818 -0.5875 -0.1961 -0.3554
  190MOL0     H25015   4.800   8.485   8.933  4.2026  0.5014 -0.3351
  190MOL0     H25016   4.591   8.648   9.019  1.9975 -0.0052  2.9612
  190MOL0     H25017   4.654   9.073   8.909  0.6597 -0.8838 -0.1134
  190MOL0     H25018   4.598   9.030   9.068  3.5729 -2.1105 -0.7693
  190MOL0     H25019   4.384   9.046   8.836 -2.3597  3.5308 -0.9633
  190MOL0     H25020   4.422   9.197   8.917 -0.5239  0.2405 -1.9602
  190MOL0     H25021   4.387   9.070   9.134  0.7670  3.4078 -1.0710
  190MOL0     H25022   4.295   8.958   9.022  0.2887 -1.0650  1.8273
  190MOL0     H25023   4.264   9.256   9.059 -0.9024  0.8547  0.2069
  190MOL0     H25024   4.159   9.139   8.960  0.9820 -0.3131 -0.0157
  190MOL0     H25025   4.214   9.128   9.252  2.9946 -0.6581 -1.6734
  190MOL0     H25026   4.116   9.002   9.167  0.5364  0.4845 -0.9110
  190MOL0     H25027   3.944   9.197   9.096  0.1992  1.0223 -0.2858
  190MOL0     H25028   4.015   9.302   9.213  2.0468  0.3016 -1.7836
  190MOL0     H25029   3.932   9.036   9.296 -1.2529 -0.7872 -2.3102
  190MOL0     H25030   3.974   9.166   9.405 -0.5968  1.2896 -0.7424
  190MOL0     H25031   3.722   9.138   9.376 -1.0872 -1.7914 -3.9198
  190MOL0     H25032   3.735   9.204   9.218  1.0660 -1.2435 -1.3542
  190MOL0     H25033   3.925   9.346   9.519 -2.4279 -1.6648 -0.1511
  190MOL0     H25034   4.005   9.680   9.403  0.3395  3.3531  0.4350
  190MOL0     H25035   3.991   9.611   9.571  0.8379 -0.3490 -0.1232
  190MOL0     H25036   3.734   9.721   9.523 -0.3010 -0.2644 -1.9069
  190MOL0     H25037   3.835   9.820   9.422 -2.9775 -1.6073 -0.2169
  190MOL0     H25038   3.908   9.766   9.704 -0.7616  2.0286  2.6851
  190MOL0     H25039   3.969   9.894   9.611 -1.8919  1.0391 -1.4171
  190MOL0     H25040   3.808  10.005   9.759 -1.4768  0.3184  0.4532
  190MOL0     H25041   3.696   9.872   9.750  0.7735  0.3834  2.0118
  190MOL0     H25042   3.481  10.034   9.446 -2.3744  0.6616  0.2959
  190MOL0     H25043   3.282  10.158   9.511  1.4731 -0.7471 -0.5945
  190MOL0     H25044   3.056  10.521   9.459 -0.4492 -1.5956 -0.2666
  190MOL0     H25045   2.850  10.638   9.472  0.4534 -2.6100 -2.5155
  190MOL0     H25046   2.566  10.492   9.529 -0.3966 -0.6770  2.6405
  190MOL0     H25047   2.609  10.659   9.478 -0.4734  0.5946  0.5853
  190MOL0     H25048   2.417  10.757   9.578  5.5170  1.2394 -2.7060
  190MOL0     H25049   2.391  10.626   9.695 -3.9845 -1.3176 -2.4558
  190MOL0     H25050   2.354  10.481   9.461 -1.6151 -0.9635  1.8128
  190MOL0     H25051   2.344  10.642   9.399 -0.0191 -0.8701 -0.4059
  190MOL0     H25052   2.167  10.561   9.626  0.2296 -2.5897 -0.9654
  190MOL0     H25053   2.149  10.710   9.516 -0.6393 -0.0242  0.9634
  190MOL0     H25054   2.094  10.405   9.496 -3.7538  0.5716  1.6622
  190MOL0     H25055   2.142  10.492   9.351 -1.4700  1.1005 -0.9003
  190MOL0     H25056   1.885  10.459   9.387 -0.6338  0.7459  1.2421
  190MOL0     H25057   1.944  10.633   9.379  2.7056 -0.6149 -3.3246
  190MOL0     H25058   1.883  10.478   9.643  2.0630 -0.0628 -0.3507
  190MOL0     H25059   1.912  10.648   9.617  2.8079 -0.2296  0.6423
  190MOL0     H25060   1.676  10.472   9.506  0.2041 -1.3874  4.4638
  190MOL0     H25061   1.704  10.643   9.464  0.7528 -0.4687  0.7484
  190MOL0     H25062   2.772  10.459   9.868 -1.5866 -2.6916 -1.2704
  190MOL0     H25063   2.987  10.340   9.847 -0.2393 -1.1259 -1.7329
  190MOL0     H25064   3.442  10.245   9.891  2.3674  2.4256 -0.2674
  190MOL0     H25065   3.651  10.111   9.834  0.5027 -0.6967  0.3236
  190MOL0     H25066   4.819   8.974   8.820  2.2306 -0.8677 -0.0199
  190MOL0     H25067   4.976   8.828   8.751  0.2455 -0.2091 -0.6453
  190MOL0     H25068   5.278   8.541   8.529 -3.4803  1.7785  1.6841
  190MOL0     H25069   5.403   8.355   8.491 -3.1460 -0.3681 -1.2653
  190MOL0     H25070   5.575   8.207   8.543 -0.4744 -0.0331  0.7073
  190MOL0     H25071   5.436   8.149   8.448 -1.3232  1.2408  0.7054
  190MOL0     H25072   5.624   7.992   8.618  0.7201 -0.9462 -0.8892
  190MOL0     H25073   5.511   7.910   8.522 -1.0993  1.1211 -0.1198
  190MOL0     H25074   5.763   8.056   8.430 -0.9267 -0.2032  0.8006
  190MOL0     H25075   5.618   8.055   8.314 -1.9933 -2.0949  0.7046
  190MOL0     H25076   5.751   7.812   8.431  1.5951 -0.0148 -0.9794
  190MOL0     H25077   5.620   7.811   8.309 -0.0334 -0.1192 -0.3437
  190MOL0     H25078   5.942   7.821   8.059  2.6011 -0.9652  2.4612
  190MOL0     H25079   5.285   8.166   8.856 -0.4316 -0.9965 -0.4701
  190MOL0     H25080   5.149   8.383   8.912 -0.0030  3.5831 -0.4503
  191MOL0     O25081   7.869  10.706   1.105 -0.2166  0.7321  0.1558
  191MOL0     C25082   7.898  10.772   1.008 -0.1319  0.5138 -0.7559
  191MOL0     O25083   8.029  10.820   0.974  0.1153  0.0779 -0.7855
  191MOL0     C25084   8.142  10.771   1.041 -0.2959  0.0520  0.3977
  191MOL0     C25085   8.249  10.847   1.046 -0.5149 -1.1790 -0.5582
  191MOL0     C25086   8.369  10.797   1.115 -0.0882  0.9970 -0.2102
  191MOL0     C25087   8.382  10.665   1.152 -0.1258 -0.4377 -0.2460
  191MOL0     O25088   8.499  10.624   1.221 -0.1982 -0.6710  0.2292
  191MOL0     C25089   8.541  10.498   1.219  0.2510 -0.2633  0.0195
  191MOL0     C25090   8.680  10.465   1.255  0.3711  0.6712 -1.4813
  191MOL0     C25091   8.779  10.541   1.162 -0.2142 -0.2404 -0.4440
  191MOL0     C25092   8.926  10.488   1.186 -0.7747  0.0592  0.4673
  191MOL0     C25093   8.966  10.367   1.107 -0.2449 -1.7746 -0.2502
  191MOL0     C25094   8.973  10.400   0.955  0.4442  0.4068 -0.6741
  191MOL0     C25095   9.015  10.279   0.887  0.6030  0.1857  0.2417
  191MOL0     C25096   9.002  10.289   0.742 -0.7290 -0.0041  1.1697
  191MOL0     N25097   9.077  10.407   0.696 -0.3715  0.3324  0.6950
  191MOL0     C25098   9.214  10.405   0.697  0.1226 -1.4523 -0.2382
  191MOL0     C25099   9.251  10.530   0.665 -0.4078 -0.3509 -0.1073
  191MOL0     C25100   9.391  10.595   0.648 -0.1211  0.5937  0.3360
  191MOL0     C25101   9.469  10.531   0.534  0.9594  0.5503  0.3591
  191MOL0     C25102   9.608  10.580   0.527  1.1227  0.4576  0.3496
  191MOL0     C25103   9.628  10.701   0.428 -0.4543  0.2125  1.1173
  191MOL0     O25104   9.597  10.816   0.498 -0.3628 -0.0968  0.6947
  191MOL0     C25105   9.630  10.933   0.442 -0.9892 -0.1299  0.2757
  191MOL0     C25106   9.675  11.036   0.523 -0.1343 -0.1673  0.3903
  191MOL0     C25107   9.705  11.160   0.478 -0.3998 -1.2857 -0.7080
  191MOL0     C25108   9.690  11.194   0.343  0.0395 -0.0026  0.3935
  191MOL0     C25109   9.733  11.320   0.286 -0.6129  0.2785 -0.4998
  191MOL0     O25110   9.671  11.436   0.337  0.2280  0.1501  0.1423
  191MOL0     C25111   9.709  11.546   0.262 -0.2657  0.5334 -0.5050
  191MOL0     C25112   9.843  11.586   0.256 -0.0258  0.2629  1.1490
  191MOL0     C25113   9.884  11.701   0.180  0.6916 -0.5887  0.4162
  191MOL0     C25114   9.786  11.779   0.112 -0.0595 -0.0527  0.6157
  191MOL0     O25115   9.838  11.885   0.050  1.2007 -0.1863  0.2290
  191MOL0     C25116   9.751  11.998   0.053  0.4649  0.4181  0.8139
  191MOL0     C25117   9.822  12.118  -0.003  0.7626 -0.6912 -0.2468
  191MOL0     C25118   9.954  12.146   0.067 -0.1441  0.5384 -0.3225
  191MOL0     C25119   9.981  12.294   0.056 -0.0774 -0.1815  0.1345
  191MOL0     C25120  10.113  12.327   0.127  0.2140  0.9557 -0.1690
  191MOL0     C25121  10.098  12.467   0.194  0.2974  0.4847  0.4026
  191MOL0     C25122  10.056  12.583   0.102  0.0237 -0.4490 -0.2165
  191MOL0     C25123   9.967  12.684   0.175  0.3067 -0.3145 -0.1994
  191MOL0    Cl25124  10.064  12.735   0.314 -0.0671  0.0320 -0.2281
  191MOL0     C25125   9.651  11.735   0.123 -0.0826 -0.4760  0.5371
  191MOL0     C25126   9.616  11.620   0.196  0.6440 -0.3563 -0.0111
  191MOL0     O25127   9.819  11.318   0.197 -0.4234  0.3122 -0.3075
  191MOL0     C25128   9.651  11.093   0.253 -0.0677 -1.0527 -0.1576
  191MOL0     C25129   9.615  10.962   0.301 -1.1390 -0.3973 -0.2336
  191MOL0     N25130   9.136  10.610   0.660 -0.1467 -1.3280  0.7830
  191MOL0     N25131   9.036  10.537   0.677  0.4058  0.4534  0.7611
  191MOL0     C25132   8.275  10.577   1.128 -0.1515 -0.1456  0.5766
  191MOL0     C25133   8.157  10.629   1.075  0.5785  0.9966 -0.7383
  191MOL0     C25134   7.785  10.822   0.938  0.4098 -0.0106 -0.2375
  191MOL0     C25135   7.802  10.920   0.831  0.0349  0.5986  0.9580
  191MOL0     C25136   7.696  10.981   0.771  0.5851  0.3667 -0.4247
  191MOL0     C25137   7.565  10.944   0.808 -0.3192 -0.5637  0.5803
  191MOL0     O25138   7.474  11.011   0.731 -0.5836  0.0536 -0.8749
  191MOL0     C25139   7.344  10.955   0.723  0.8425  0.1285 -0.8604
  191MOL0     C25140   7.260  11.036   0.818  0.8971 -0.6792 -0.7919
  191MOL0     C25141   7.122  10.973   0.852  0.5163 -0.1002  0.3587
  191MOL0     C25142   7.030  10.979   0.732  0.5721 -0.0942 -0.2685
  191MOL0     C25143   6.925  10.877   0.748  0.0023 -0.0036  0.5304
  191MOL0     C25144   6.841  10.791   0.756  0.5548 -0.5689 -0.0505
  191MOL0     C25145   7.548  10.838   0.899  0.0687 -0.9369  0.4646
  191MOL0     C25146   7.653  10.786   0.978 -0.1831 -0.1519 -0.7617
  191MOL0     H25147   8.233  10.952   1.026 -2.6388 -0.5073  3.5314
  191MOL0     H25148   8.457  10.852   1.147  0.9038 -0.7786  0.2527
  191MOL0     H25149   8.523  10.447   1.124  0.1827 -0.8808  0.3548
  191MOL0     H25150   8.473  10.438   1.281 -3.0440  0.9565 -2.1453
  191MOL0     H25151   8.693  10.356   1.255  0.2877  0.6379  0.2894
  191MOL0     H25152   8.685  10.496   1.359 -2.0980 -1.0952 -0.7311
  191MOL0     H25153   8.763  10.649   1.170 -2.6532 -0.5000 -0.7824
  191MOL0     H25154   8.739  10.515   1.063 -0.7818  5.9017 -2.2894
  191MOL0     H25155   8.995  10.571   1.171  1.6041 -0.5750  5.7446
  191MOL0     H25156   8.935  10.462   1.292 -0.3158 -2.1059 -0.0469
  191MOL0     H25157   8.902  10.285   1.139 -0.6737 -0.9720  1.0602
  191MOL0     H25158   9.069  10.340   1.132  0.2854 -0.9998 -1.5169
  191MOL0     H25159   9.042  10.485   0.952  0.5506  0.3694  0.4295
  191MOL0     H25160   8.870  10.428   0.935 -0.3298  2.0650  4.3487
  191MOL0     H25161   9.122  10.267   0.907  1.6241  3.6992 -2.1840
  191MOL0     H25162   8.967  10.187   0.921  1.2179 -0.1409  0.2406
  191MOL0     H25163   8.899  10.268   0.711 -0.0435 -0.6208 -0.8572
  191MOL0     H25164   9.050  10.204   0.693 -2.8361 -1.8348  2.1059
  191MOL0     H25165   9.279  10.326   0.733 -1.4760 -1.9768  1.7241
  191MOL0     H25166   9.444  10.587   0.744  0.3369 -0.2423  0.0242
  191MOL0     H25167   9.377  10.701   0.626 -0.4945  0.5981  0.5863
  191MOL0     H25168   9.427  10.560   0.438  1.8528  0.9488  0.0815
  191MOL0     H25169   9.463  10.424   0.555  0.1580  0.2753 -1.1330
  191MOL0     H25170   9.643  10.624   0.621  0.6663 -2.7150  2.1471
  191MOL0     H25171   9.666  10.488   0.520 -0.8067 -0.9475  1.7488
  191MOL0     H25172   9.574  10.695   0.333  0.6353  0.1610  0.4875
  191MOL0     H25173   9.733  10.693   0.399 -0.5930 -0.4670  0.7963
  191MOL0     H25174   9.697  11.009   0.626  0.4596 -4.7109 -0.7240
  191MOL0     H25175   9.759  11.228   0.543 -0.5678 -1.5449 -0.2966
  191MOL0     H25176   9.922  11.539   0.314  0.3196 -0.4157  0.1650
  191MOL0     H25177   9.988  11.732   0.172  1.1010 -1.0824  2.8689
  191MOL0     H25178   9.701  12.000   0.151 -1.6377 -2.3838 -0.0568
  191MOL0     H25179   9.677  11.978  -0.026  0.6589 -1.8614  1.1470
  191MOL0     H25180   9.760  12.207   0.009  0.3894 -0.6763 -2.0025
  191MOL0     H25181   9.834  12.103  -0.111 -1.4610  0.2858 -0.6766
  191MOL0     H25182  10.031  12.076   0.034  0.1801  0.5259  0.4435
  191MOL0     H25183   9.927  12.128   0.171 -0.7682 -0.4671 -0.6344
  191MOL0     H25184   9.991  12.321  -0.050 -1.5055 -5.6480 -1.7830
  191MOL0     H25185   9.893  12.344   0.096 -0.5227 -1.1531  0.4068
  191MOL0     H25186  10.204  12.325   0.067  0.2341 -0.3577 -0.1352
  191MOL0     H25187  10.128  12.249   0.203 -0.1049  0.7441 -0.3198
  191MOL0     H25188  10.180  12.501   0.257  0.1041  1.3665  0.1978
  191MOL0     H25189  10.017  12.451   0.267  1.6997 -0.9803  1.7185
  191MOL0     H25190  10.143  12.625   0.050 -0.4446  1.3701  0.4101
  191MOL0     H25191  10.006  12.544   0.013  0.6640  2.2708 -1.9113
  191MOL0     H25192   9.878  12.632   0.210  0.7534 -0.7626  0.2895
  191MOL0     H25193   9.938  12.769   0.112  0.3773  0.0218  0.2127
  191MOL0     H25194   9.578  11.795   0.070 -0.1395 -0.9253  0.0917
  191MOL0     H25195   9.513  11.585   0.203  0.3278  0.4693 -0.4411
  191MOL0     H25196   9.666  11.099   0.146  0.0102 -0.6495 -0.1230
  191MOL0     H25197   9.586  10.885   0.230 -0.4815  0.4041 -1.3914
  191MOL0     H25198   8.263  10.472   1.151 -1.8227 -1.7950 -5.6871
  191MOL0     H25199   8.072  10.563   1.057  1.7812 -1.3359  1.5251
  191MOL0     H25200   7.903  10.955   0.816 -0.9029  3.6855  1.0996
  191MOL0     H25201   7.711  11.054   0.692  0.6200  1.6269  0.7041
  191MOL0     H25202   7.326  10.848   0.737  1.3992  0.1809  0.3782
  191MOL0     H25203   7.307  10.981   0.623 -0.7732 -0.3482 -0.4152
  191MOL0     H25204   7.298  11.058   0.918 -3.4106 -0.7745  1.0539
  191MOL0     H25205   7.255  11.135   0.772  0.1171 -0.6185 -0.5859
  191MOL0     H25206   7.069  11.025   0.933  2.1581  1.9903  0.1964
  191MOL0     H25207   7.147  10.874   0.890  1.7483 -0.4048 -1.1699
  191MOL0     H25208   6.992  11.081   0.736  4.9645  1.7135  3.3495
  191MOL0     H25209   7.072  10.946   0.636 -2.5612 -3.0809 -0.8087
  191MOL0     H25210   6.766  10.715   0.754  2.0994 -2.1650 -1.4625
  191MOL0     H25211   7.449  10.796   0.916 -0.2999  0.3209  1.5566
  191MOL0     H25212   7.638  10.721   1.063  4.0450 -2.7969 -1.7338
  192MOL0     O25213   0.852  11.136   3.703  0.5193  0.0213  0.7548
  192MOL0     C25214   0.871  11.061   3.614 -0.3562 -0.4894  0.0722
  192MOL0     O25215   0.985  11.014   3.565 -0.4786  0.2310  0.0564
  192MOL0     C25216   1.103  11.079   3.610 -0.1184  1.7668  0.2883
  192MOL0     C25217   1.155  11.062   3.744  0.6731 -0.6002 -0.1300
  192MOL0     C25218   1.241  11.156   3.802 -0.2705  0.8890 -0.4086
  192MOL0     C25219   1.308  11.247   3.717 -0.5765 -0.3019 -0.6396
  192MOL0     O25220   1.402  11.325   3.782 -0.2179 -1.1725 -0.3063
  192MOL0     C25221   1.444  11.448   3.723  0.3909 -0.2807 -0.5536
  192MOL0     C25222   1.529  11.519   3.822 -0.0698 -0.0802 -0.8615
  192MOL0     C25223   1.563  11.653   3.758 -0.4582 -0.3332 -1.0796
  192MOL0     C25224   1.681  11.717   3.828 -0.3066 -0.6190  0.2220
  192MOL0     C25225   1.727  11.841   3.753  0.0729  0.1328 -0.1568
  192MOL0     C25226   1.870  11.873   3.807  0.3072  0.3988 -0.3080
  192MOL0     C25227   1.928  11.993   3.727 -0.5711 -0.2793 -0.3518
  192MOL0     C25228   2.069  12.025   3.782  0.7677  0.3482 -0.0537
  192MOL0     N25229   2.054  12.051   3.921  0.5736 -0.2648  0.4722
  192MOL0     C25230   1.986  12.172   3.968 -0.9831  0.4162 -0.7987
  192MOL0     C25231   2.027  12.181   4.095 -0.2031 -0.1750 -0.2260
  192MOL0     C25232   1.978  12.284   4.193  0.0286 -0.4924  0.4752
  192MOL0     C25233   2.016  12.250   4.329  0.3457 -0.5624 -0.2605
  192MOL0     C25234   1.997  12.364   4.436 -0.7022 -0.6250 -0.3054
  192MOL0     C25235   2.003  12.314   4.584  1.0489 -0.6373  0.3867
  192MOL0     O25236   1.908  12.201   4.597  0.3349  0.4910  0.0332
  192MOL0     C25237   1.777  12.209   4.562  0.7684 -0.0643  0.5708
  192MOL0     C25238   1.711  12.111   4.505  0.4099 -0.5205  0.9656
  192MOL0     C25239   1.572  12.120   4.473 -0.1010 -0.1126  0.1042
  192MOL0     C25240   1.504  12.248   4.489 -0.4530  0.2050 -0.4716
  192MOL0     C25241   1.364  12.255   4.437 -0.7626 -0.4489  0.0056
  192MOL0     O25242   1.302  12.377   4.447 -0.2841 -0.1868 -0.1020
  192MOL0     C25243   1.171  12.408   4.444  0.0003 -0.2028  0.9218
  192MOL0     C25244   1.136  12.532   4.500  0.0832 -0.0066 -0.5360
  192MOL0     C25245   1.004  12.574   4.494  0.2401 -0.6863  0.3790
  192MOL0     C25246   0.901  12.494   4.440  0.5854 -0.3624 -0.0644
  192MOL0     O25247   0.770  12.534   4.455  0.1134 -0.4446  0.5480
  192MOL0     C25248   0.677  12.439   4.488 -0.1657 -0.2545 -0.0629
  192MOL0     C25249   0.540  12.500   4.501  0.7556  0.5707  0.0306
  192MOL0     C25250   0.444  12.392   4.560  0.0868  0.4585  0.0757
  192MOL0     C25251   0.300  12.445   4.552 -0.5279 -0.0518  0.1029
  192MOL0     C25252   0.223  12.405   4.679 -0.0628  0.5725 -0.4207
  192MOL0     C25253   0.192  12.248   4.705 -0.6884  0.0697  0.8687
  192MOL0     C25254   0.118  12.229   4.837 -0.2690 -0.2654  0.4055
  192MOL0     C25255   0.109  12.088   4.881 -0.0989  0.5423  0.4003
  192MOL0    Cl25256   0.265  12.005   4.855 -0.0944 -0.1134 -0.0879
  192MOL0     C25257   0.937  12.381   4.364  0.6016 -0.1574  0.2097
  192MOL0     C25258   1.068  12.337   4.376 -0.6197 -0.2586  0.7430
  192MOL0     O25259   1.302  12.150   4.402 -0.4894  0.4898 -0.0576
  192MOL0     C25260   1.581  12.351   4.543  0.5400 -0.4626 -0.6020
  192MOL0     C25261   1.712  12.332   4.584 -0.5165  0.5791  0.7115
  192MOL0     N25262   2.110  12.069   4.116  0.4975 -0.1386 -0.1820
  192MOL0     N25263   2.118  11.986   4.020 -0.5387 -1.1088  0.7075
  192MOL0     C25264   1.269  11.254   3.580  0.3198  0.0598 -0.0564
  192MOL0     C25265   1.168  11.170   3.529  0.0915 -0.7470  0.4768
  192MOL0     C25266   0.744  11.004   3.550  0.3580 -0.1502 -0.2503
  192MOL0     C25267   0.761  10.897   3.462 -0.0716  1.2224 -0.6223
  192MOL0     C25268   0.649  10.846   3.390 -0.2176  0.4941  0.0772
  192MOL0     C25269   0.517  10.890   3.409 -0.0793  0.6501 -0.3763
  192MOL0     O25270   0.410  10.840   3.330  0.2054  0.2719  0.0975
  192MOL0     C25271   0.287  10.820   3.389 -0.5357  0.1347 -0.2149
  192MOL0     C25272   0.201  10.708   3.342  0.4768  0.0667 -0.8953
  192MOL0     C25273   0.169  10.720   3.192  0.3044  0.4774  0.2773
  192MOL0     C25274   0.095  10.588   3.146 -0.8825  0.3731 -0.2783
  192MOL0     C25275   0.067  10.579   3.005 -0.0348 -0.4385  0.5691
  192MOL0     C25276   0.034  10.568   2.890  0.4219 -1.2983  0.0648
  192MOL0     C25277   0.499  10.994   3.506 -0.1606 -0.7889  0.1355
  192MOL0     C25278   0.610  11.051   3.572  0.2615 -0.2356 -0.7278
  192MOL0     H25279   1.107  10.982   3.800 -0.3219 -0.0046 -0.1108
  192MOL0     H25280   1.277  11.156   3.904 -2.3262  0.7483  0.3689
  192MOL0     H25281   1.355  11.508   3.700 -1.4138 -2.4223  0.3934
  192MOL0     H25282   1.503  11.442   3.632  2.8123  0.5169  0.8740
  192MOL0     H25283   1.617  11.459   3.850 -0.5847 -0.9418 -1.0577
  192MOL0     H25284   1.473  11.533   3.915 -0.4367  0.5637 -1.1739
  192MOL0     H25285   1.477  11.720   3.768  0.5926  0.7483  1.7630
  192MOL0     H25286   1.590  11.639   3.653  2.9603 -1.0533 -0.2331
  192MOL0     H25287   1.660  11.725   3.935 -0.4214  1.3431  0.0949
  192MOL0     H25288   1.765  11.647   3.824 -0.6494 -0.9944 -2.7766
  192MOL0     H25289   1.660  11.925   3.773  0.1315 -0.1017  1.0689
  192MOL0     H25290   1.741  11.812   3.648 -1.8918 -0.0866 -0.3994
  192MOL0     H25291   1.935  11.787   3.787 -1.6624 -0.9715 -1.1721
  192MOL0     H25292   1.868  11.878   3.916 -1.6098 -2.1385 -0.1304
  192MOL0     H25293   1.957  11.953   3.630 -2.0376 -0.9784 -0.5326
  192MOL0     H25294   1.868  12.084   3.726  2.1469  1.7033 -3.5246
  192MOL0     H25295   2.104  12.117   3.735 -4.2319  4.4581  3.0925
  192MOL0     H25296   2.152  11.955   3.778  0.1177 -1.0747  4.8351
  192MOL0     H25297   1.919  12.235   3.911 -0.3482  0.4360 -1.5353
  192MOL0     H25298   1.874  12.311   4.177  0.2980  0.8153  0.8011
  192MOL0     H25299   2.036  12.376   4.177 -2.7723  1.1788 -0.7945
  192MOL0     H25300   2.122  12.225   4.328  1.4189  2.8882  3.1136
  192MOL0     H25301   1.953  12.164   4.357 -1.7180  1.3117  1.2592
  192MOL0     H25302   2.085  12.430   4.431 -2.3635  1.6320 -3.2655
  192MOL0     H25303   1.908  12.426   4.425 -0.5904 -0.2448  0.8798
  192MOL0     H25304   1.994  12.392   4.660  2.2722 -1.2689  1.2036
  192MOL0     H25305   2.101  12.271   4.603  1.2281 -0.2865  0.2548
  192MOL0     H25306   1.764  12.017   4.497  2.0547  0.5013 -0.8410
  192MOL0     H25307   1.516  12.038   4.430 -1.1289  1.4218 -1.6109
  192MOL0     H25308   1.212  12.584   4.558 -0.3365  1.8794 -1.6010
  192MOL0     H25309   0.969  12.659   4.551 -3.2031 -1.6162 -0.1530
  192MOL0     H25310   0.710  12.384   4.576 -0.7039  1.2755  1.1495
  192MOL0     H25311   0.673  12.370   4.403 -0.2795  0.9969 -1.1019
  192MOL0     H25312   0.502  12.537   4.405 -1.2534  3.4394  1.7636
  192MOL0     H25313   0.544  12.589   4.564  1.1625  2.1979 -2.1514
  192MOL0     H25314   0.459  12.360   4.663 -2.3239 -2.3391 -0.3216
  192MOL0     H25315   0.432  12.302   4.499 -4.1856 -1.3429  3.0727
  192MOL0     H25316   0.296  12.554   4.547  0.4073 -0.0504 -0.9011
  192MOL0     H25317   0.250  12.405   4.463 -0.7801  1.4695 -0.4639
  192MOL0     H25318   0.127  12.456   4.688  0.2898  0.9491  1.5876
  192MOL0     H25319   0.280  12.442   4.765  2.5428 -2.8393 -0.5006
  192MOL0     H25320   0.290  12.199   4.700 -0.0726  1.3339 -0.1381
  192MOL0     H25321   0.137  12.204   4.621 -1.4115  1.2153  0.7178
  192MOL0     H25322   0.179  12.273   4.916 -0.6994  1.3668 -0.1262
  192MOL0     H25323   0.017  12.270   4.828  0.4824  1.1335 -4.0649
  192MOL0     H25324   0.033  12.038   4.821 -1.5434  2.1833  0.7770
  192MOL0     H25325   0.073  12.079   4.984  1.7580 -1.0296  0.9611
  192MOL0     H25326   0.865  12.321   4.309  0.7334 -0.5215  0.4262
  192MOL0     H25327   1.094  12.245   4.325 -1.4177 -1.5792  2.5642
  192MOL0     H25328   1.540  12.451   4.541 -0.2691 -0.7884 -0.9061
  192MOL0     H25329   1.768  12.409   4.634 -1.2652  0.5013  1.6944
  192MOL0     H25330   1.311  11.334   3.520  0.3170 -0.2290 -0.4455
  192MOL0     H25331   1.125  11.176   3.430  1.2856 -1.6911 -0.1151
  192MOL0     H25332   0.855  10.850   3.434  0.2400  1.7152 -0.4337
  192MOL0     H25333   0.678  10.761   3.330 -0.9808 -1.0313  1.7643
  192MOL0     H25334   0.230  10.907   3.355 -1.7178 -1.4412 -2.4958
  192MOL0     H25335   0.303  10.826   3.497 -1.9135  3.7195 -0.0406
  192MOL0     H25336   0.261  10.621   3.369 -0.8478  0.2555  3.4035
  192MOL0     H25337   0.104  10.703   3.392  0.4239  0.8205 -0.9127
  192MOL0     H25338   0.258  10.739   3.130  2.5639  0.3728  3.2891
  192MOL0     H25339   0.100  10.805   3.191  2.0767  1.9963  0.1504
  192MOL0     H25340   0.142  10.494   3.176 -0.8800 -0.1373 -1.7946
  192MOL0     H25341   0.003  10.587   3.206 -0.4810 -0.5580  0.3378
  192MOL0     H25342   0.013  10.546   2.787  1.2034  0.6083 -0.5478
  192MOL0     H25343   0.397  11.028   3.525 -0.0857 -0.8930  0.7587
  192MOL0     H25344   0.602  11.139   3.635 -0.1424 -3.1836  3.8365
  193MOL0     O25345   5.941   2.866   7.579  0.1512 -0.3580 -0.1189
  193MOL0     C25346   5.943   2.918   7.692  1.0445  0.1130 -0.2169
  193MOL0     O25347   5.841   2.997   7.746 -0.8812  0.0059 -0.1652
  193MOL0     C25348   5.716   3.003   7.689  0.0985  0.2458 -0.4026
  193MOL0     C25349   5.644   2.890   7.641 -1.2190 -0.8578 -0.9170
  193MOL0     C25350   5.515   2.907   7.592  0.4171  1.0472 -0.0643
  193MOL0     C25351   5.458   3.036   7.592 -0.2357  0.9528  0.0101
  193MOL0     O25352   5.333   3.053   7.543 -0.1447 -0.2355  0.0320
  193MOL0     C25353   5.242   2.940   7.524  0.0524  0.0011 -1.3009
  193MOL0     C25354   5.118   2.985   7.458  0.6433  0.0707 -0.0335
  193MOL0     C25355   5.149   3.038   7.312 -0.2551  0.2890 -0.1518
  193MOL0     C25356   5.033   3.024   7.215  0.6432 -0.2061 -0.5562
  193MOL0     C25357   4.907   3.098   7.251  0.3639 -1.4140  0.3435
  193MOL0     C25358   4.931   3.249   7.212  0.5456 -0.5885 -0.7106
  193MOL0     C25359   4.834   3.344   7.279 -0.0666  0.1534  1.0533
  193MOL0     C25360   4.694   3.323   7.226  0.2748 -1.1058 -0.8002
  193MOL0     N25361   4.608   3.448   7.250  0.8188  0.0569 -0.6026
  193MOL0     C25362   4.585   3.483   7.385  0.4171 -0.8413  0.8093
  193MOL0     C25363   4.520   3.601   7.373  0.0462 -0.1721  0.3472
  193MOL0     C25364   4.458   3.676   7.483 -0.1066 -0.1632  0.8209
  193MOL0     C25365   4.308   3.642   7.486 -0.5139 -0.2609  0.0938
  193MOL0     C25366   4.270   3.507   7.513 -0.5035 -0.5815  0.9151
  193MOL0     C25367   4.122   3.485   7.542 -0.0683  0.5876  1.0224
  193MOL0     O25368   4.063   3.545   7.425 -0.4996 -0.0037 -0.2693
  193MOL0     C25369   3.931   3.578   7.441 -0.4028  0.2346 -0.1891
  193MOL0     C25370   3.842   3.495   7.521  0.5247  0.1276 -0.0482
  193MOL0     C25371   3.707   3.524   7.512 -0.4162  0.4579 -0.7455
  193MOL0     C25372   3.649   3.621   7.436  0.0559 -0.8262  1.7462
  193MOL0     C25373   3.506   3.638   7.432 -0.1488  0.0009 -0.0346
  193MOL0     O25374   3.429   3.546   7.484  0.8304  0.7741  0.1206
  193MOL0     C25375   3.294   3.539   7.453  0.5511 -0.3291  0.7302
  193MOL0     C25376   3.194   3.551   7.555 -0.2341 -0.3913 -1.4005
  193MOL0     C25377   3.062   3.557   7.528  0.4288  0.5426 -0.0220
  193MOL0     C25378   3.018   3.545   7.395 -0.2960 -0.2315 -0.2672
  193MOL0     O25379   2.880   3.561   7.381  1.0583 -0.3001  0.2361
  193MOL0     C25380   2.820   3.507   7.257  0.1945 -0.3798  0.2923
  193MOL0     C25381   2.670   3.513   7.248  0.1501  0.2615 -0.0591
  193MOL0     C25382   2.620   3.407   7.338  0.1394  0.2181 -1.1055
  193MOL0     C25383   2.466   3.418   7.347 -0.4414  1.2200 -1.1243
  193MOL0     C25384   2.415   3.346   7.467 -0.5520  0.4535 -0.0244
  193MOL0     C25385   2.272   3.392   7.513  0.0881  0.7533 -0.2363
  193MOL0     C25386   2.174   3.350   7.405  0.0276  0.4797  1.0603
  193MOL0     C25387   2.032   3.392   7.449  0.3290 -0.6077  0.1574
  193MOL0    Cl25388   1.989   3.334   7.617  0.0545  0.1994 -0.4547
  193MOL0     C25389   3.111   3.536   7.291  0.0058  0.9216  0.5329
  193MOL0     C25390   3.248   3.527   7.322  0.5303 -0.0290  0.2087
  193MOL0     O25391   3.470   3.734   7.365  0.2135 -0.4036 -0.4228
  193MOL0     C25392   3.734   3.701   7.358 -0.8948  0.1832  0.8644
  193MOL0     C25393   3.873   3.682   7.363 -1.1676  0.3293 -0.3347
  193MOL0     N25394   4.509   3.638   7.241  0.0746  0.4182  1.3734
  193MOL0     N25395   4.575   3.556   7.169  0.0317  0.0759  0.1046
  193MOL0     C25396   5.528   3.144   7.638  0.0240  0.0338  0.2413
  193MOL0     C25397   5.660   3.130   7.684  0.8365 -0.4278 -0.1160
  193MOL0     C25398   6.072   2.923   7.767  0.8531 -0.4213 -0.5186
  193MOL0     C25399   6.097   3.020   7.869 -0.2632 -0.1914  0.8242
  193MOL0     C25400   6.230   3.033   7.916 -0.0613 -0.3453 -1.1949
  193MOL0     C25401   6.331   2.937   7.886 -0.0405  0.0237  0.1563
  193MOL0     O25402   6.458   2.946   7.949  0.6187 -0.6266  0.1163
  193MOL0     C25403   6.545   3.045   7.901 -0.3170 -0.0357 -0.2394
  193MOL0     C25404   6.682   2.968   7.891 -0.5105  0.4684  0.2737
  193MOL0     C25405   6.742   2.934   8.023  0.0574  0.1390  0.3097
  193MOL0     C25406   6.866   2.843   8.014  0.2084  1.0223 -0.3181
  193MOL0     C25407   6.921   2.814   8.149  0.7327 -0.9257 -0.5104
  193MOL0     C25408   6.965   2.797   8.259 -0.0565 -0.5720 -0.8167
  193MOL0     C25409   6.302   2.835   7.793 -0.3313  0.1880  0.7822
  193MOL0     C25410   6.176   2.834   7.729 -0.7276  0.1991 -1.4277
  193MOL0     H25411   5.691   2.792   7.634 -2.0555 -1.3750  0.2813
  193MOL0     H25412   5.464   2.815   7.565 -0.0254  0.9700  0.9864
  193MOL0     H25413   5.217   2.900   7.623 -0.4423  0.3187 -1.2953
  193MOL0     H25414   5.293   2.863   7.466  4.0348 -1.2636  3.2458
  193MOL0     H25415   5.077   3.062   7.524  1.7231 -0.5903  1.4546
  193MOL0     H25416   5.055   2.897   7.446  0.9785 -0.1369 -0.2771
  193MOL0     H25417   5.222   2.963   7.279  0.6005  1.1602 -0.2799
  193MOL0     H25418   5.188   3.139   7.296  1.1316 -0.5642 -2.8852
  193MOL0     H25419   5.070   3.048   7.115  1.7327  0.1803 -0.0726
  193MOL0     H25420   5.013   2.917   7.208  2.3513 -0.5392 -0.6923
  193MOL0     H25421   4.888   3.084   7.358  0.0377 -0.5240  0.4044
  193MOL0     H25422   4.818   3.069   7.195 -0.7691 -1.5147  2.1103
  193MOL0     H25423   4.931   3.266   7.104 -3.5069 -1.8574 -1.0781
  193MOL0     H25424   5.027   3.288   7.248  0.3424  0.2413 -1.0403
  193MOL0     H25425   4.838   3.316   7.385 -1.1630 -0.1066  1.0307
  193MOL0     H25426   4.883   3.441   7.262  1.4824 -0.3426  2.4290
  193MOL0     H25427   4.644   3.237   7.271 -2.2210  0.6435 -0.0552
  193MOL0     H25428   4.695   3.301   7.119 -1.6954  0.9530 -1.3009
  193MOL0     H25429   4.600   3.420   7.472 -0.5906 -1.0112  0.8648
  193MOL0     H25430   4.473   3.781   7.459  0.9744 -0.8453 -1.7947
  193MOL0     H25431   4.507   3.656   7.579  1.4437  1.2664  0.3705
  193MOL0     H25432   4.261   3.670   7.392  0.8759 -2.9836 -1.5288
  193MOL0     H25433   4.258   3.699   7.566  0.6874  0.4961  0.3278
  193MOL0     H25434   4.306   3.453   7.424  1.2813  3.6493 -1.2086
  193MOL0     H25435   4.322   3.458   7.596 -0.2624  1.3598  1.9642
  193MOL0     H25436   4.080   3.518   7.638 -2.0738  2.1560 -0.3376
  193MOL0     H25437   4.103   3.377   7.536 -0.1250  0.6885 -0.9641
  193MOL0     H25438   3.877   3.416   7.586  0.3923 -1.5321 -1.9121
  193MOL0     H25439   3.643   3.484   7.590 -1.3427  0.2541 -1.6033
  193MOL0     H25440   3.234   3.571   7.654 -1.7126 -0.1420 -0.8282
  193MOL0     H25441   2.992   3.585   7.607  0.4571 -0.2720  0.2966
  193MOL0     H25442   2.841   3.401   7.269 -2.0844 -0.7495  1.5816
  193MOL0     H25443   2.872   3.555   7.174  0.1925  0.9396  1.0221
  193MOL0     H25444   2.653   3.502   7.141  1.9256  0.4232 -0.3838
  193MOL0     H25445   2.624   3.604   7.288 -0.3760 -0.8085  1.9266
  193MOL0     H25446   2.666   3.413   7.437  2.3790 -0.2922 -2.0446
  193MOL0     H25447   2.654   3.311   7.298  0.9707  0.8098 -1.8539
  193MOL0     H25448   2.422   3.519   7.346  0.7164  1.7804 -3.9152
  193MOL0     H25449   2.425   3.373   7.256 -0.1582  1.4985 -1.3895
  193MOL0     H25450   2.484   3.364   7.550 -0.2374 -3.1595  0.6304
  193MOL0     H25451   2.411   3.240   7.442  2.0675 -0.1910  1.9284
  193MOL0     H25452   2.276   3.496   7.547  1.2225  0.9397 -0.9121
  193MOL0     H25453   2.248   3.339   7.606  0.0149 -0.1498 -0.7579
  193MOL0     H25454   2.200   3.396   7.309  2.2283  0.8410  1.7564
  193MOL0     H25455   2.164   3.242   7.392 -1.6170  0.9467 -2.9346
  193MOL0     H25456   1.954   3.350   7.385  1.9989 -1.1371 -1.6161
  193MOL0     H25457   2.022   3.500   7.439 -0.6773 -0.7685 -0.7663
  193MOL0     H25458   3.091   3.526   7.185  0.9830  2.1394  0.1998
  193MOL0     H25459   3.318   3.525   7.239 -0.3399  6.0908 -1.1606
  193MOL0     H25460   3.701   3.772   7.282  0.2172 -0.8150 -0.6198
  193MOL0     H25461   3.930   3.746   7.296 -4.9476  1.2941 -2.9297
  193MOL0     H25462   5.476   3.239   7.646 -0.8768 -0.3903 -0.4011
  193MOL0     H25463   5.721   3.215   7.711  0.7829 -0.4939  0.2197
  193MOL0     H25464   6.023   3.097   7.891 -0.8131 -0.3920 -0.2787
  193MOL0     H25465   6.253   3.110   7.989 -1.5227  1.0624 -2.1516
  193MOL0     H25466   6.553   3.122   7.978 -3.0170 -0.1666  0.2547
  193MOL0     H25467   6.522   3.085   7.802  0.9873 -0.2548 -0.6538
  193MOL0     H25468   6.664   2.873   7.839 -0.6275  0.0513  1.0737
  193MOL0     H25469   6.752   3.040   7.848 -0.6605  1.6950  2.0059
  193MOL0     H25470   6.671   2.878   8.084 -0.2431 -1.5431 -1.4763
  193MOL0     H25471   6.772   3.025   8.076  0.8042 -0.9777  1.9206
  193MOL0     H25472   6.830   2.759   7.955 -2.1930  1.6165  0.1903
  193MOL0     H25473   6.955   2.885   7.965  1.5905  0.0332  1.2251
  193MOL0     H25474   7.024   2.789   8.347  1.5989  0.4283 -1.7727
  193MOL0     H25475   6.374   2.754   7.784 -0.5348  0.2115 -2.1852
  193MOL0     H25476   6.159   2.751   7.661  0.9519 -3.5113  2.2584
  194MOL0     O25477   6.558   6.344   1.241 -0.2423 -0.2130 -0.6612
  194MOL0     C25478   6.559   6.257   1.330  0.5840  0.2269  0.8845
  194MOL0     O25479   6.450   6.176   1.359  0.3699  0.1748 -0.9865
  194MOL0     C25480   6.338   6.192   1.287  0.2975  0.7727 -0.0476
  194MOL0     C25481   6.291   6.087   1.194  0.1535 -0.5088  0.3366
  194MOL0     C25482   6.161   6.092   1.145 -0.1155  0.6305  0.4137
  194MOL0     C25483   6.083   6.207   1.168 -0.7249 -0.2249 -0.1813
  194MOL0     O25484   5.951   6.205   1.129 -0.0719 -0.0175  0.2302
  194MOL0     C25485   5.844   6.152   1.216 -0.7186  0.4962  0.0031
  194MOL0     C25486   5.783   6.265   1.290 -0.2418 -0.8125 -0.7242
  194MOL0     C25487   5.644   6.224   1.334  0.1147 -0.9607  0.0259
  194MOL0     C25488   5.563   6.341   1.403  0.0526  0.4600  0.4359
  194MOL0     C25489   5.416   6.309   1.407 -0.3886 -0.7850 -0.6154
  194MOL0     C25490   5.334   6.401   1.504 -0.3591 -0.3689 -0.1175
  194MOL0     C25491   5.183   6.365   1.504  0.5673 -0.5114  0.0885
  194MOL0     C25492   5.103   6.434   1.615  0.2938  0.6039 -0.3497
  194MOL0     N25493   5.032   6.552   1.562  0.8170  0.2187  0.9432
  194MOL0     C25494   4.936   6.610   1.632  0.8623 -0.2382 -0.5608
  194MOL0     C25495   4.925   6.737   1.588  0.0941  0.0786  0.0610
  194MOL0     C25496   4.825   6.838   1.629  0.5901 -0.1320  0.1395
  194MOL0     C25497   4.698   6.839   1.536 -0.4395  0.1067  0.5233
  194MOL0     C25498   4.668   6.982   1.481  0.4207  0.5372  0.1463
  194MOL0     C25499   4.534   7.034   1.545  0.1003  0.5926 -0.0118
  194MOL0     O25500   4.526   7.172   1.503 -0.1356  0.4278  0.4902
  194MOL0     C25501   4.428   7.258   1.546 -0.6575 -0.4103 -0.0196
  194MOL0     C25502   4.412   7.379   1.485 -0.3897  0.2663  0.3761
  194MOL0     C25503   4.299   7.468   1.512  0.2503  0.5140 -0.7993
  194MOL0     C25504   4.216   7.434   1.623  0.0602 -0.3775  0.9867
  194MOL0     C25505   4.106   7.524   1.666  0.3681  0.1112 -0.2676
  194MOL0     O25506   4.064   7.613   1.574 -1.1127 -0.9570  0.0165
  194MOL0     C25507   4.014   7.733   1.615  0.9200 -0.3682  0.8514
  194MOL0     C25508   3.881   7.759   1.578  0.1205 -0.3567 -0.4771
  194MOL0     C25509   3.827   7.889   1.596  0.4207  0.7101  0.0510
  194MOL0     C25510   3.903   7.998   1.647 -0.3586  0.2948 -0.8783
  194MOL0     O25511   3.835   8.119   1.669 -0.1032 -0.0018 -0.4878
  194MOL0     C25512   3.695   8.136   1.682 -0.5031 -0.0425  1.0325
  194MOL0     C25513   3.616   8.053   1.787 -0.0683  0.3134  0.1116
  194MOL0     C25514   3.675   8.054   1.932  0.6759 -0.1757 -0.5420
  194MOL0     C25515   3.635   7.930   2.012 -0.4746  0.2338  0.0489
  194MOL0     C25516   3.702   7.788   1.974 -0.2138  0.1281 -0.0594
  194MOL0     C25517   3.746   7.697   2.082 -0.6199 -1.0520  0.0843
  194MOL0     C25518   3.787   7.565   2.017  0.9767  0.1205 -0.2236
  194MOL0     C25519   3.789   7.458   2.130  0.3707  0.4063  0.8152
  194MOL0    Cl25520   3.628   7.395   2.205 -0.4225 -0.3982 -0.0354
  194MOL0     C25521   4.027   7.964   1.694 -1.0514  1.6228  0.1237
  194MOL0     C25522   4.084   7.840   1.668 -0.3615 -0.2366 -0.5379
  194MOL0     O25523   4.065   7.518   1.780 -0.1439  0.6201 -0.3853
  194MOL0     C25524   4.239   7.316   1.687  0.0427 -0.0422  0.1607
  194MOL0     C25525   4.339   7.230   1.649  0.3578  0.5808  0.5225
  194MOL0     N25526   5.032   6.747   1.494 -0.0520 -0.7502 -0.1036
  194MOL0     N25527   5.097   6.639   1.478  0.7072  0.0032 -0.7188
  194MOL0     C25528   6.135   6.309   1.248 -0.1548  0.6739 -0.5937
  194MOL0     C25529   6.259   6.300   1.313  0.3972 -0.6660  1.0776
  194MOL0     C25530   6.694   6.217   1.382 -0.0945  1.3301  1.2048
  194MOL0     C25531   6.816   6.255   1.325 -0.7032  0.6760  0.3153
  194MOL0     C25532   6.942   6.218   1.378  0.5782  0.9905  0.0128
  194MOL0     C25533   6.944   6.107   1.469 -0.0930 -0.1188 -0.2662
  194MOL0     O25534   7.070   6.064   1.510  0.1976  1.1380  0.4105
  194MOL0     C25535   7.145   5.997   1.405 -0.1666  0.7237  0.0752
  194MOL0     C25536   7.281   5.961   1.455 -1.0018 -0.5108 -0.4302
  194MOL0     C25537   7.384   6.076   1.447  0.8906  0.9164 -0.6563
  194MOL0     C25538   7.511   6.032   1.516 -0.1899  0.3660 -0.0590
  194MOL0     C25539   7.604   6.151   1.521 -0.4906 -0.0078 -0.2165
  194MOL0     C25540   7.660   6.255   1.544 -1.0831  0.5827  1.0849
  194MOL0     C25541   6.827   6.067   1.537 -0.5364  0.0900 -0.0894
  194MOL0     C25542   6.710   6.130   1.500  0.3078 -1.0163  0.3888
  194MOL0     H25543   6.356   6.004   1.169  1.3553  0.8002 -1.0709
  194MOL0     H25544   6.110   6.008   1.099  2.9246 -0.9581 -0.3233
  194MOL0     H25545   5.882   6.074   1.283  0.7943  1.8796  0.8418
  194MOL0     H25546   5.766   6.103   1.157  0.2194 -3.0145  1.4057
  194MOL0     H25547   5.776   6.356   1.229 -2.3099 -0.8771 -0.6386
  194MOL0     H25548   5.846   6.280   1.377 -2.1832 -0.3473  0.6619
  194MOL0     H25549   5.655   6.139   1.402 -0.0413 -1.1088 -0.1308
  194MOL0     H25550   5.575   6.200   1.253 -0.6184  3.8027 -1.0757
  194MOL0     H25551   5.606   6.355   1.503  0.7776 -1.8061  0.4975
  194MOL0     H25552   5.574   6.429   1.339 -0.9528  0.3291  0.0564
  194MOL0     H25553   5.401   6.204   1.432 -1.8397 -0.3109  0.7168
  194MOL0     H25554   5.379   6.305   1.304  0.6260 -1.5775 -0.9629
  194MOL0     H25555   5.340   6.505   1.472 -2.9470  0.0385  0.4639
  194MOL0     H25556   5.368   6.397   1.608 -3.8328  0.6266  1.2282
  194MOL0     H25557   5.150   6.397   1.404  0.7069 -0.5982  0.0146
  194MOL0     H25558   5.166   6.259   1.524  0.1986 -0.1494  1.8134
  194MOL0     H25559   5.162   6.458   1.704  0.8385 -2.8700  0.3841
  194MOL0     H25560   5.031   6.362   1.656  0.7935  0.2037 -0.1622
  194MOL0     H25561   4.873   6.570   1.710 -0.6062  0.9657 -1.0793
  194MOL0     H25562   4.873   6.935   1.638 -2.1911  1.4720 -1.0558
  194MOL0     H25563   4.790   6.813   1.729 -2.3570 -0.7551 -0.9508
  194MOL0     H25564   4.612   6.805   1.594  0.8490  0.4528  2.7220
  194MOL0     H25565   4.722   6.763   1.462  1.1411 -1.8668  2.9254
  194MOL0     H25566   4.741   7.060   1.505 -0.4399  1.9065 -1.4724
  194MOL0     H25567   4.658   6.972   1.373 -1.6100 -1.4728  0.4340
  194MOL0     H25568   4.536   7.029   1.654  0.1879  1.5868  0.0446
  194MOL0     H25569   4.454   6.969   1.509 -0.7069  0.5111  1.8101
  194MOL0     H25570   4.489   7.404   1.412  2.7708 -1.0355  3.0319
  194MOL0     H25571   4.306   7.564   1.461  3.7289  0.0538 -1.4658
  194MOL0     H25572   3.815   7.685   1.532 -0.0574 -2.0119  2.2267
  194MOL0     H25573   3.728   7.902   1.553  1.4355 -1.5651 -3.4085
  194MOL0     H25574   3.656   8.114   1.582  2.4238 -3.4291  0.4247
  194MOL0     H25575   3.679   8.241   1.706 -0.1459 -0.4386  3.1837
  194MOL0     H25576   3.633   7.950   1.756  0.9824  0.0464  1.4857
  194MOL0     H25577   3.511   8.083   1.784  1.0198  5.1470  1.1809
  194MOL0     H25578   3.632   8.144   1.978 -0.1163 -0.0473 -1.5065
  194MOL0     H25579   3.783   8.074   1.933  0.4521  1.1718  0.1056
  194MOL0     H25580   3.666   7.945   2.116  1.4028 -1.1592 -0.2373
  194MOL0     H25581   3.528   7.909   2.012 -0.3368 -0.7543  2.3398
  194MOL0     H25582   3.783   7.803   1.902 -1.1299 -2.6295 -1.8443
  194MOL0     H25583   3.620   7.745   1.916 -0.9306 -2.3815  2.5718
  194MOL0     H25584   3.661   7.680   2.149 -3.0486  0.0511 -2.4989
  194MOL0     H25585   3.832   7.750   2.124 -0.0105  1.1257 -3.4581
  194MOL0     H25586   3.716   7.526   1.944 -2.3379  2.1535  1.6504
  194MOL0     H25587   3.891   7.582   1.987  2.1876  0.1639  3.4909
  194MOL0     H25588   3.835   7.510   2.214  0.2892  1.4734  0.2320
  194MOL0     H25589   3.850   7.375   2.094 -0.9959 -1.4280  2.5617
  194MOL0     H25590   4.083   8.037   1.752  0.7503  0.1275  0.3284
  194MOL0     H25591   4.189   7.818   1.688  0.3479  0.0262 -3.4612
  194MOL0     H25592   4.194   7.296   1.784  2.9992  1.4924  2.0070
  194MOL0     H25593   4.354   7.142   1.710 -0.2853  1.9710  2.8316
  194MOL0     H25594   6.085   6.404   1.259 -2.8507 -0.8746  1.8162
  194MOL0     H25595   6.287   6.386   1.373 -2.0789  0.0020  1.3998
  194MOL0     H25596   6.807   6.334   1.251 -0.7656  1.0902  0.7580
  194MOL0     H25597   7.030   6.276   1.352  0.1070  0.4180 -3.2777
  194MOL0     H25598   7.165   6.066   1.322  0.9636  1.1085  0.6503
  194MOL0     H25599   7.090   5.906   1.380  0.6511 -0.0126  0.9109
  194MOL0     H25600   7.273   5.924   1.557  1.4579  0.4279  0.1808
  194MOL0     H25601   7.312   5.877   1.391 -3.7490 -1.8058 -0.2041
  194MOL0     H25602   7.331   6.162   1.489 -0.0993 -0.1913  0.4342
  194MOL0     H25603   7.414   6.109   1.347  4.0225  0.1713 -0.0596
  194MOL0     H25604   7.491   5.999   1.618 -2.7395  0.6573 -0.3945
  194MOL0     H25605   7.563   5.953   1.461 -0.0879 -0.0528  0.6374
  194MOL0     H25606   7.715   6.346   1.558 -1.4407  1.1920 -1.0750
  194MOL0     H25607   6.838   6.011   1.629  3.3012 -0.0981 -0.5169
  194MOL0     H25608   6.626   6.110   1.566 -0.6943 -0.7675 -0.7723
  195MOL0     O25609   7.649   6.680   7.593 -0.2583 -0.4138 -0.6787
  195MOL0     C25610   7.685   6.685   7.478  0.1203  0.6824 -0.5658
  195MOL0     O25611   7.602   6.703   7.377 -0.1269 -0.4933 -0.9529
  195MOL0     C25612   7.473   6.704   7.385  0.3340  0.8214  0.2547
  195MOL0     C25613   7.405   6.820   7.339 -0.9369  0.4476  0.6104
  195MOL0     C25614   7.265   6.837   7.360  0.0854 -0.0531 -0.3689
  195MOL0     C25615   7.196   6.730   7.435 -0.0396 -0.1141  0.4722
  195MOL0     O25616   7.070   6.759   7.459  0.2275 -0.2230 -0.4420
  195MOL0     C25617   6.975   6.653   7.457 -0.1151 -0.3961 -0.2278
  195MOL0     C25618   6.840   6.700   7.503 -0.3576  1.0865 -0.8355
  195MOL0     C25619   6.710   6.624   7.455  0.1860 -0.0369  0.7159
  195MOL0     C25620   6.585   6.683   7.518  0.6966 -0.7247 -0.0027
  195MOL0     C25621   6.453   6.637   7.447  0.4644 -0.0563 -0.9152
  195MOL0     C25622   6.418   6.494   7.510  0.4895 -0.0625 -0.3057
  195MOL0     C25623   6.266   6.470   7.498  0.0351 -0.2560  1.0851
  195MOL0     C25624   6.210   6.486   7.350 -0.3276 -0.3496  0.3293
  195MOL0     N25625   6.073   6.413   7.344 -0.6726  0.0750  0.0581
  195MOL0     C25626   6.048   6.304   7.258 -0.4362 -0.1665  0.2525
  195MOL0     C25627   5.917   6.271   7.281 -0.5307  0.3071 -0.6942
  195MOL0     C25628   5.845   6.153   7.214  0.0760  0.4694  0.3632
  195MOL0     C25629   5.789   6.202   7.076 -0.4951 -0.1888  0.2529
  195MOL0     C25630   5.711   6.090   6.995  0.0112  0.4741 -0.1821
  195MOL0     C25631   5.652   6.129   6.853 -0.1821 -0.5520  0.1736
  195MOL0     O25632   5.553   6.029   6.812 -0.3364 -0.2806  0.0266
  195MOL0     C25633   5.425   6.071   6.778  0.1659 -0.3422 -1.1756
  195MOL0     C25634   5.342   5.970   6.754  0.2502  1.0266  0.3899
  195MOL0     C25635   5.211   5.986   6.709  0.1481 -0.1376  0.2867
  195MOL0     C25636   5.156   6.114   6.691 -0.6258  0.5362  0.2280
  195MOL0     C25637   5.023   6.131   6.640 -0.9017 -0.5129 -0.6041
  195MOL0     O25638   4.989   6.263   6.592 -0.5150 -0.3786  0.1417
  195MOL0     C25639   4.857   6.281   6.546  0.6009  0.2207 -1.1690
  195MOL0     C25640   4.776   6.193   6.470  0.1660  0.4770 -0.2242
  195MOL0     C25641   4.642   6.225   6.433 -0.3673 -0.4876  0.4451
  195MOL0     C25642   4.596   6.358   6.466 -0.7326  1.4232  0.1003
  195MOL0     O25643   4.478   6.420   6.429 -0.1982 -0.1506  0.2516
  195MOL0     C25644   4.368   6.337   6.402  0.4053  0.2799 -0.9079
  195MOL0     C25645   4.247   6.418   6.369 -0.3217  0.6456  0.3206
  195MOL0     C25646   4.116   6.338   6.369  0.5484 -1.3152  0.1906
  195MOL0     C25647   4.094   6.213   6.272  0.3476 -1.0967 -0.4258
  195MOL0     C25648   3.945   6.163   6.288 -1.1004 -0.5285  0.0033
  195MOL0     C25649   3.914   6.051   6.187  0.8239 -0.5488 -0.1456
  195MOL0     C25650   3.770   6.006   6.210 -0.2969  1.3337 -1.0327
  195MOL0     C25651   3.733   5.862   6.146  0.0987 -0.3506 -0.6532
  195MOL0    Cl25652   3.780   5.842   5.984  0.0593  0.6418  0.0895
  195MOL0     C25653   4.684   6.439   6.540  0.5778 -0.0063  0.5110
  195MOL0     C25654   4.808   6.405   6.581  0.1668  0.3708 -0.0731
  195MOL0     O25655   4.946   6.036   6.640 -0.0346 -0.4964 -0.1667
  195MOL0     C25656   5.246   6.221   6.716  0.1916 -0.2077 -1.0484
  195MOL0     C25657   5.382   6.202   6.756  1.0252 -0.5566  0.6463
  195MOL0     N25658   5.877   6.358   7.380  0.3075 -0.1816  0.6631
  195MOL0     N25659   5.965   6.450   7.411  0.3535  0.6612 -0.2940
  195MOL0     C25660   7.262   6.611   7.470 -0.1280 -0.8261 -0.1166
  195MOL0     C25661   7.396   6.601   7.447  0.1440 -0.7610 -0.2679
  195MOL0     C25662   7.829   6.671   7.464 -0.1443 -0.5284 -0.1120
  195MOL0     C25663   7.890   6.734   7.355  0.0407  0.5256  0.6997
  195MOL0     C25664   8.028   6.727   7.340  0.5228  0.4593 -1.7548
  195MOL0     C25665   8.102   6.648   7.433  0.2476  0.0210 -0.4651
  195MOL0     O25666   8.235   6.648   7.417  0.0788 -0.1520 -0.2604
  195MOL0     C25667   8.321   6.686   7.532  0.0695  0.1324  0.1144
  195MOL0     C25668   8.426   6.587   7.590  0.4109  0.3977  0.2679
  195MOL0     C25669   8.517   6.662   7.695  0.5894 -0.5976 -0.4815
  195MOL0     C25670   8.620   6.561   7.751 -0.0201  0.2183 -0.7674
  195MOL0     C25671   8.693   6.615   7.868 -0.0673 -0.3643 -0.7089
  195MOL0     C25672   8.764   6.641   7.968  0.4354 -0.2335 -0.1604
  195MOL0     C25673   8.042   6.579   7.543 -0.3340 -0.4227  0.6670
  195MOL0     C25674   7.908   6.600   7.556  0.6779 -0.0320  0.2548
  195MOL0     H25675   7.463   6.895   7.286  0.2603  2.2502  4.1805
  195MOL0     H25676   7.198   6.914   7.323  0.4508  1.5312  1.9870
  195MOL0     H25677   7.008   6.571   7.522  1.8040  0.9989  0.6322
  195MOL0     H25678   6.971   6.612   7.355  0.1122 -2.4153  0.5297
  195MOL0     H25679   6.852   6.807   7.485  1.6688  1.0976  0.2524
  195MOL0     H25680   6.826   6.694   7.612 -0.1456 -0.9194 -0.8853
  195MOL0     H25681   6.720   6.517   7.470 -0.9647 -0.1588  0.7046
  195MOL0     H25682   6.713   6.636   7.346 -0.6605  0.0918  0.7064
  195MOL0     H25683   6.574   6.662   7.624 -3.7543  3.0169  0.5767
  195MOL0     H25684   6.580   6.792   7.504 -1.3240 -0.8314 -0.3422
  195MOL0     H25685   6.472   6.612   7.342  2.1165 -2.9742 -0.0443
  195MOL0     H25686   6.377   6.715   7.458 -2.1095 -2.3270 -1.4614
  195MOL0     H25687   6.432   6.508   7.618 -1.2082  1.7764 -0.2612
  195MOL0     H25688   6.477   6.410   7.472  0.8734 -1.3307  2.8219
  195MOL0     H25689   6.250   6.367   7.530  0.8492 -1.0097 -0.7674
  195MOL0     H25690   6.205   6.526   7.569  2.8483  0.7365  2.8715
  195MOL0     H25691   6.274   6.445   7.271 -1.7050 -1.7699 -0.0998
  195MOL0     H25692   6.193   6.593   7.343 -0.5624  0.0719  4.6173
  195MOL0     H25693   6.115   6.249   7.193  0.4023  0.3658  0.6464
  195MOL0     H25694   5.764   6.116   7.277  0.3031 -0.3704  0.1710
  195MOL0     H25695   5.920   6.074   7.197 -1.4091 -1.0639  0.6838
  195MOL0     H25696   5.883   6.238   7.033 -0.0057 -0.1665  1.3133
  195MOL0     H25697   5.720   6.284   7.102 -0.7869 -0.0356 -0.9293
  195MOL0     H25698   5.768   5.996   6.996 -1.3001 -0.3864 -1.3828
  195MOL0     H25699   5.618   6.076   7.052  0.3961 -0.4728  0.2357
  195MOL0     H25700   5.727   6.143   6.775  2.4020 -3.6528  1.8722
  195MOL0     H25701   5.604   6.226   6.868  3.2072  1.8783 -2.9052
  195MOL0     H25702   5.380   5.870   6.774 -0.2282  1.1368  2.0143
  195MOL0     H25703   5.154   5.894   6.704 -2.6383  1.1020  4.3287
  195MOL0     H25704   4.824   6.100   6.442 -1.4838 -0.4864 -0.0233
  195MOL0     H25705   4.582   6.155   6.374  0.5264 -2.5731  1.8921
  195MOL0     H25706   4.345   6.272   6.487 -3.5193 -0.2694 -2.1844
  195MOL0     H25707   4.387   6.267   6.320  0.5779 -0.4329 -0.2784
  195MOL0     H25708   4.273   6.465   6.273  1.2027 -2.0274 -0.6950
  195MOL0     H25709   4.241   6.501   6.440 -0.2057  0.8958  0.0426
  195MOL0     H25710   4.030   6.405   6.364  0.2109 -1.7489  0.1644
  195MOL0     H25711   4.113   6.300   6.471  1.7769  1.0309  1.1821
  195MOL0     H25712   4.112   6.239   6.167  0.4814 -2.1288 -0.6711
  195MOL0     H25713   4.162   6.134   6.304  2.1622  0.8418  0.7540
  195MOL0     H25714   3.864   6.236   6.295 -0.2797  0.6851 -2.0285
  195MOL0     H25715   3.943   6.114   6.385 -1.5865 -1.5425 -0.4981
  195MOL0     H25716   3.987   5.972   6.210  0.1493 -0.7569  1.4326
  195MOL0     H25717   3.920   6.096   6.087  2.8616  1.8252  0.9289
  195MOL0     H25718   3.748   5.992   6.316 -1.2922  0.6163 -1.3146
  195MOL0     H25719   3.695   6.079   6.178  0.3919  2.5987  0.1485
  195MOL0     H25720   3.626   5.842   6.162  0.2574 -1.9829 -1.4568
  195MOL0     H25721   3.787   5.795   6.213 -0.4550  1.2689  1.5137
  195MOL0     H25722   4.654   6.542   6.559  1.8293  1.0198 -2.4033
  195MOL0     H25723   4.867   6.477   6.636 -1.2895 -0.6583  3.0234
  195MOL0     H25724   5.215   6.325   6.708 -2.8514 -1.1104 -2.0453
  195MOL0     H25725   5.440   6.293   6.765  0.9334 -0.5196  0.8639
  195MOL0     H25726   7.207   6.535   7.524 -2.6168  0.1129 -1.1925
  195MOL0     H25727   7.448   6.515   7.487 -1.2682 -1.5720 -0.1153
  195MOL0     H25728   7.834   6.794   7.285 -2.0137 -2.3717 -0.2875
  195MOL0     H25729   8.084   6.764   7.255  1.9111 -0.1319 -1.1199
  195MOL0     H25730   8.272   6.728   7.620  0.0773 -1.0538  0.7156
  195MOL0     H25731   8.383   6.760   7.481  0.9340  0.5487  1.7167
  195MOL0     H25732   8.371   6.515   7.651  0.0830  2.0914  2.0741
  195MOL0     H25733   8.489   6.536   7.517  0.4058 -0.3907  0.8033
  195MOL0     H25734   8.464   6.693   7.785  3.9561 -2.8145  2.5663
  195MOL0     H25735   8.569   6.747   7.648 -0.0280  0.3894  0.5580
  195MOL0     H25736   8.568   6.480   7.803  0.1107 -1.2623 -2.8391
  195MOL0     H25737   8.687   6.522   7.675 -0.3154 -0.4982 -0.6614
  195MOL0     H25738   8.831   6.665   8.048 -1.1444  2.9236  0.3791
  195MOL0     H25739   8.095   6.511   7.610  0.6423 -0.1643  0.1743
  195MOL0     H25740   7.857   6.561   7.644  1.6856 -2.7793 -0.2527
  196MOL0     O25741   7.975   1.340   5.059  0.8966  0.3836  0.2025
  196MOL0     C25742   8.094   1.364   5.051 -0.4862 -0.4821 -0.0900
  196MOL0     O25743   8.151   1.487   5.054  0.9505 -0.0350 -0.1290
  196MOL0     C25744   8.077   1.596   5.076 -0.2347  0.3680 -0.5095
  196MOL0     C25745   8.068   1.693   4.980  0.1086 -0.6396  0.0441
  196MOL0     C25746   7.999   1.813   5.021 -0.1790  0.2184 -0.1688
  196MOL0     C25747   7.939   1.837   5.143 -0.7505 -0.2298  0.2120
  196MOL0     O25748   7.882   1.968   5.164  0.6333 -0.4035 -0.1680
  196MOL0     C25749   7.887   2.011   5.304 -0.3419  0.7274  0.5680
  196MOL0     C25750   7.812   2.141   5.311 -0.5551 -0.6449  0.6807
  196MOL0     C25751   7.663   2.121   5.289  0.0179  0.0278  0.1836
  196MOL0     C25752   7.592   2.059   5.407 -0.5307  0.5661  0.5111
  196MOL0     C25753   7.441   2.091   5.417 -1.0390 -0.7022 -0.0901
  196MOL0     C25754   7.380   2.034   5.545 -0.4386 -0.2890  0.6024
  196MOL0     C25755   7.229   2.058   5.555 -0.2678  0.0581 -0.1310
  196MOL0     C25756   7.139   1.965   5.473 -0.0192  0.4563  0.6820
  196MOL0     N25757   7.118   1.831   5.532  0.5356 -0.5084 -0.2187
  196MOL0     C25758   6.996   1.788   5.573  0.4598  0.4016 -0.0420
  196MOL0     C25759   7.000   1.649   5.581  0.7687 -0.6799 -0.4125
  196MOL0     C25760   6.889   1.546   5.607 -0.7113 -0.2652 -0.2313
  196MOL0     C25761   6.860   1.525   5.759 -0.7214  0.4749 -0.6911
  196MOL0     C25762   6.761   1.629   5.806  0.4462 -1.1217  0.9040
  196MOL0     C25763   6.612   1.593   5.789 -0.8856  0.3347  0.1648
  196MOL0     O25764   6.541   1.692   5.860  0.3759 -0.5879  0.1621
  196MOL0     C25765   6.407   1.710   5.818  0.1840 -0.4584 -0.5859
  196MOL0     C25766   6.339   1.800   5.893 -0.1424 -0.7386 -0.3284
  196MOL0     C25767   6.208   1.829   5.854  0.8985  0.2504 -0.0305
  196MOL0     C25768   6.149   1.765   5.741 -0.4425 -0.2860 -0.1881
  196MOL0     C25769   6.013   1.805   5.696  0.6214  0.5166  0.6612
  196MOL0     O25770   5.943   1.713   5.625 -0.1159 -0.3944 -0.4588
  196MOL0     C25771   5.807   1.739   5.605 -0.1901  0.2106  0.2122
  196MOL0     C25772   5.761   1.691   5.481  0.4375  0.0584  0.5551
  196MOL0     C25773   5.626   1.692   5.444  0.0087 -0.3052  0.2278
  196MOL0     C25774   5.530   1.748   5.532 -0.6147 -0.2293 -0.3290
  196MOL0     O25775   5.401   1.756   5.488  0.4539  0.1518  0.0039
  196MOL0     C25776   5.367   1.775   5.350  0.7031 -0.1448 -0.7505
  196MOL0     C25777   5.279   1.901   5.355  0.3983  0.2858 -0.7265
  196MOL0     C25778   5.208   1.920   5.226 -0.0793 -0.1256  0.1604
  196MOL0     C25779   5.126   2.043   5.224  0.1026 -0.0821  0.2105
  196MOL0     C25780   5.031   2.038   5.097 -0.3379 -0.8371 -0.3582
  196MOL0     C25781   4.974   2.181   5.090  0.2913  0.4586  0.1479
  196MOL0     C25782   4.874   2.219   5.192 -0.7405  0.0389 -0.6887
  196MOL0     C25783   4.843   2.366   5.179  0.0557 -0.7062 -0.4158
  196MOL0    Cl25784   4.756   2.411   5.035 -0.1865 -0.0577 -0.1719
  196MOL0     C25785   5.574   1.798   5.652 -0.2014  0.2962  0.3041
  196MOL0     C25786   5.714   1.798   5.687 -0.6334 -0.0673 -0.2397
  196MOL0     O25787   5.965   1.912   5.731  0.2962 -0.1794 -0.2745
  196MOL0     C25788   6.220   1.678   5.663 -0.3219  0.0254  0.9130
  196MOL0     C25789   6.349   1.656   5.704 -0.1123  0.8375 -0.7036
  196MOL0     N25790   7.138   1.621   5.557  0.4684 -0.0804  0.2320
  196MOL0     N25791   7.208   1.734   5.538  0.4946  0.0203 -0.4121
  196MOL0     C25792   7.947   1.737   5.235 -0.3178  0.6186  0.4649
  196MOL0     C25793   8.012   1.615   5.206  0.4930  0.6803 -0.1340
  196MOL0     C25794   8.183   1.249   5.047  0.1503 -0.2967 -1.1639
  196MOL0     C25795   8.141   1.131   5.092  0.2468  0.5729 -1.2103
  196MOL0     C25796   8.213   1.009   5.072  0.2736  0.4787 -0.2629
  196MOL0     C25797   8.336   1.019   5.014 -0.0434 -0.7847  0.3636
  196MOL0     O25798   8.409   0.906   5.000 -0.4589  0.2411  0.2296
  196MOL0     C25799   8.552   0.896   5.024 -0.7266  0.5915  0.1473
  196MOL0     C25800   8.602   0.775   4.947 -0.3116 -0.5056  0.3869
  196MOL0     C25801   8.630   0.804   4.797 -0.7476 -0.4920 -0.1221
  196MOL0     C25802   8.771   0.880   4.789  0.2917  0.3997 -0.3321
  196MOL0     C25803   8.803   0.916   4.647 -0.6588  0.3372 -0.5409
  196MOL0     C25804   8.829   0.917   4.528 -0.1763 -0.5713 -0.6806
  196MOL0     C25805   8.396   1.149   4.990 -0.9704 -0.4851  0.1511
  196MOL0     C25806   8.321   1.268   5.000  0.6221  0.2080  0.4178
  196MOL0     H25807   8.122   1.679   4.886 -0.5028 -1.2202 -0.2235
  196MOL0     H25808   8.002   1.886   4.941  2.3938 -2.2393 -2.5117
  196MOL0     H25809   7.990   2.027   5.338 -1.2002  2.0718  2.6921
  196MOL0     H25810   7.831   1.945   5.371 -0.5390  0.9056  0.5770
  196MOL0     H25811   7.848   2.202   5.228 -0.3226 -0.4048  0.9577
  196MOL0     H25812   7.832   2.205   5.397 -0.8409 -0.0178  0.2850
  196MOL0     H25813   7.645   2.070   5.193 -0.8598  4.8636 -2.5550
  196MOL0     H25814   7.623   2.222   5.272  2.0862  1.0286  0.9748
  196MOL0     H25815   7.593   1.950   5.392 -0.6567  0.8231 -1.6369
  196MOL0     H25816   7.624   2.095   5.506  0.5525  0.0377  0.3683
  196MOL0     H25817   7.384   2.056   5.330 -2.7399 -0.3863  0.8446
  196MOL0     H25818   7.425   2.199   5.412 -0.4978 -0.6384 -0.5297
  196MOL0     H25819   7.432   2.065   5.637  2.4615 -1.3046 -0.5716
  196MOL0     H25820   7.405   1.928   5.541 -2.5828 -0.8811  1.2758
  196MOL0     H25821   7.204   2.047   5.661  0.0096 -0.5615 -0.1276
  196MOL0     H25822   7.206   2.163   5.534 -0.9827 -0.2608 -1.0053
  196MOL0     H25823   7.189   1.958   5.376 -0.8133  2.5020  0.0794
  196MOL0     H25824   7.042   2.006   5.444 -0.1449 -0.3160 -0.0476
  196MOL0     H25825   6.906   1.847   5.587  0.6105  0.9027 -1.1151
  196MOL0     H25826   6.918   1.454   5.557 -1.9550 -2.1179  2.2102
  196MOL0     H25827   6.802   1.589   5.556 -0.9055  0.6117  0.7957
  196MOL0     H25828   6.956   1.519   5.811 -1.2298 -2.2183  0.0765
  196MOL0     H25829   6.806   1.435   5.788  0.7764  1.2695  6.5474
  196MOL0     H25830   6.784   1.640   5.912 -1.2994  1.4995  1.1147
  196MOL0     H25831   6.783   1.724   5.755 -0.0665 -0.1742  2.3969
  196MOL0     H25832   6.595   1.495   5.834  0.6150 -1.1025 -2.1507
  196MOL0     H25833   6.605   1.591   5.679  1.0890 -0.5093  0.0067
  196MOL0     H25834   6.378   1.861   5.974 -0.5422  0.1926 -0.8212
  196MOL0     H25835   6.154   1.899   5.918  6.5674  3.7796  1.5712
  196MOL0     H25836   5.831   1.656   5.406 -0.4405 -0.7235  0.0819
  196MOL0     H25837   5.603   1.667   5.341  0.4029  0.5026 -0.0661
  196MOL0     H25838   5.303   1.690   5.322 -1.2012  1.4812 -1.6160
  196MOL0     H25839   5.450   1.784   5.279 -0.0967 -0.6729 -1.7959
  196MOL0     H25840   5.336   1.990   5.383 -0.3744  0.2653  1.0468
  196MOL0     H25841   5.211   1.886   5.439  0.9843 -0.7435 -0.4214
  196MOL0     H25842   5.141   1.835   5.211  0.9136 -0.7737 -0.8192
  196MOL0     H25843   5.280   1.920   5.143  0.1655  2.2108  0.2984
  196MOL0     H25844   5.070   2.031   5.317  3.8036 -1.6189  2.4911
  196MOL0     H25845   5.193   2.128   5.243 -0.8529 -0.0069  4.1306
  196MOL0     H25846   4.950   1.965   5.103  0.6447 -1.8730  1.7666
  196MOL0     H25847   5.094   2.018   5.010  3.2216  2.2513  1.2091
  196MOL0     H25848   4.936   2.186   4.988  1.5751  1.5961 -0.2995
  196MOL0     H25849   5.056   2.254   5.097  1.5098 -0.8925  0.4474
  196MOL0     H25850   4.783   2.160   5.183 -0.8676  0.0459  0.4161
  196MOL0     H25851   4.917   2.206   5.292  1.0878 -0.4024 -1.4858
  196MOL0     H25852   4.934   2.427   5.177  2.0329 -3.4969 -2.1129
  196MOL0     H25853   4.779   2.402   5.260  0.9991  1.5470 -0.5863
  196MOL0     H25854   5.498   1.833   5.721 -0.6287 -2.3375  1.2844
  196MOL0     H25855   5.744   1.832   5.786 -1.2494 -0.4427  0.0819
  196MOL0     H25856   6.182   1.645   5.567  1.4139  0.0954  0.1631
  196MOL0     H25857   6.413   1.589   5.647 -0.3004 -1.3722  1.5343
  196MOL0     H25858   7.898   1.743   5.331 -1.9585  1.3534 -0.3812
  196MOL0     H25859   8.022   1.535   5.278  5.1307  2.2887  1.3721
  196MOL0     H25860   8.046   1.122   5.143  1.1015  1.7842  0.6778
  196MOL0     H25861   8.181   0.906   5.088  0.2268  0.4809 -0.3402
  196MOL0     H25862   8.566   0.883   5.131 -2.4234 -3.7961  0.0260
  196MOL0     H25863   8.608   0.988   5.004  0.1621 -0.4030 -2.3447
  196MOL0     H25864   8.693   0.743   4.998  2.2799  5.3038  0.1676
  196MOL0     H25865   8.531   0.692   4.946 -0.6368 -0.2254  0.0965
  196MOL0     H25866   8.559   0.866   4.742  1.2932  1.5627 -0.6317
  196MOL0     H25867   8.641   0.704   4.756  1.2248 -1.0307  1.5355
  196MOL0     H25868   8.769   0.972   4.848  1.2986 -0.6118  1.3668
  196MOL0     H25869   8.849   0.826   4.843 -0.5843 -0.6409 -0.0516
  196MOL0     H25870   8.857   0.933   4.426 -1.9757  0.7646 -1.0072
  196MOL0     H25871   8.497   1.153   4.951 -1.9341  0.8501 -2.4252
  196MOL0     H25872   8.359   1.365   4.971 -0.5560  0.4930 -0.2378
  197MOL0     O25873   2.332   8.542   4.919 -0.5490  0.1202  0.1880
  197MOL0     C25874   2.364   8.661   4.940 -0.3755  0.4838  0.0990
  197MOL0     O25875   2.273   8.768   4.960  0.1821  0.0092 -0.4767
  197MOL0     C25876   2.142   8.752   4.995 -0.9053 -0.3930  0.2116
  197MOL0     C25877   2.091   8.878   5.032 -0.9903  0.4691  0.0498
  197MOL0     C25878   1.963   8.887   5.082 -0.3457 -0.1518 -0.3927
  197MOL0     C25879   1.885   8.776   5.101  0.4949  0.2975  0.5012
  197MOL0     O25880   1.766   8.804   5.162 -0.9579  0.2613 -0.2878
  197MOL0     C25881   1.653   8.711   5.138 -0.6105 -0.8381  0.6564
  197MOL0     C25882   1.552   8.794   5.061  0.7975 -0.2856  0.1244
  197MOL0     C25883   1.443   8.715   4.994 -0.0149 -0.3307  0.7757
  197MOL0     C25884   1.332   8.663   5.090 -0.1271 -0.2649  0.3417
  197MOL0     C25885   1.277   8.760   5.195 -1.2200  0.2186  0.2181
  197MOL0     C25886   1.138   8.719   5.250  0.6880  0.7454  0.0904
  197MOL0     C25887   1.029   8.711   5.149 -0.4914 -1.0131 -0.1259
  197MOL0     C25888   0.892   8.676   5.217  0.3538 -0.3588  0.0470
  197MOL0     N25889   0.883   8.548   5.285  0.5262 -0.9353 -0.1326
  197MOL0     C25890   0.836   8.426   5.232  0.2860  0.3801 -0.1238
  197MOL0     C25891   0.843   8.332   5.331 -0.6838  0.6123  0.0318
  197MOL0     C25892   0.770   8.198   5.329 -0.2975  0.3639 -0.7325
  197MOL0     C25893   0.864   8.073   5.328  0.0102  0.9699  0.1454
  197MOL0     C25894   0.902   8.018   5.192 -0.7526 -0.1778 -0.4964
  197MOL0     C25895   1.045   8.055   5.149 -0.2469  0.2305  0.1158
  197MOL0     O25896   1.040   8.198   5.117  0.5016  0.3292 -0.6662
  197MOL0     C25897   1.153   8.241   5.049 -0.3610  0.6164 -1.3210
  197MOL0     C25898   1.146   8.294   4.920 -1.1243  0.7008  1.2398
  197MOL0     C25899   1.271   8.339   4.857 -0.2078  0.2023  0.0344
  197MOL0     C25900   1.396   8.330   4.920  0.8134  0.1192  0.4062
  197MOL0     C25901   1.520   8.371   4.854  0.7074 -0.0356  0.0914
  197MOL0     O25902   1.629   8.391   4.930  0.2256  0.2785 -0.2134
  197MOL0     C25903   1.743   8.390   4.850 -0.2370  0.6359 -0.6461
  197MOL0     C25904   1.807   8.267   4.814 -0.4895 -0.4947 -0.5543
  197MOL0     C25905   1.931   8.279   4.735  0.4510  0.5346 -0.5146
  197MOL0     C25906   1.983   8.400   4.699  0.5050  0.5240 -1.0604
  197MOL0     O25907   2.103   8.390   4.632 -0.3849  0.5646  0.7602
  197MOL0     C25908   2.173   8.514   4.609  0.1389  1.1618  0.4130
  197MOL0     C25909   2.293   8.470   4.522 -0.0955 -0.5940 -0.1628
  197MOL0     C25910   2.384   8.590   4.486  0.6368 -0.1161 -0.3043
  197MOL0     C25911   2.509   8.534   4.403  0.1229 -1.4913  0.1827
  197MOL0     C25912   2.612   8.641   4.382  0.3603  0.3845 -0.2420
  197MOL0     C25913   2.721   8.579   4.303 -0.2315  0.1519 -0.1100
  197MOL0     C25914   2.824   8.493   4.382 -0.4521 -0.2891  0.3094
  197MOL0     C25915   2.936   8.417   4.296  0.7675 -0.6041  0.2664
  197MOL0    Cl25916   3.036   8.551   4.228  0.3578  0.1050 -0.1158
  197MOL0     C25917   1.917   8.514   4.739  0.4690 -0.0583  0.3856
  197MOL0     C25918   1.804   8.509   4.817  0.3777 -0.1703 -0.3599
  197MOL0     O25919   1.519   8.372   4.731 -1.0298 -0.2925 -0.4452
  197MOL0     C25920   1.400   8.279   5.046 -0.0620  0.4652  0.9720
  197MOL0     C25921   1.285   8.231   5.110  0.3223  0.1053 -0.1977
  197MOL0     N25922   0.898   8.396   5.447  0.8271 -0.1656  0.1264
  197MOL0     N25923   0.920   8.522   5.416  0.0869 -0.0760 -0.2452
  197MOL0     C25924   1.938   8.649   5.080 -0.4642 -0.5455  0.2949
  197MOL0     C25925   2.065   8.640   5.012 -0.1895 -0.2815 -0.0016
  197MOL0     C25926   2.506   8.690   4.927 -1.3605 -0.4869 -0.4863
  197MOL0     C25927   2.550   8.828   4.937  0.2522 -0.5458 -1.1309
  197MOL0     C25928   2.693   8.851   4.934  0.3053  0.6192 -0.0608
  197MOL0     C25929   2.791   8.753   4.916  0.5087  0.2758 -0.3941
  197MOL0     O25930   2.918   8.798   4.912  0.1787 -0.0611 -0.3174
  197MOL0     C25931   3.033   8.706   4.924 -0.2345  0.3581  0.2480
  197MOL0     C25932   3.078   8.649   4.789  1.0073 -0.9674  0.1565
  197MOL0     C25933   3.230   8.612   4.799  0.7939  0.1247  0.0061
  197MOL0     C25934   3.295   8.589   4.654  0.6740  0.6786 -0.1274
  197MOL0     C25935   3.267   8.462   4.593  0.1098 -0.0296  0.2654
  197MOL0     C25936   3.242   8.347   4.552  0.0310 -0.7822 -0.2691
  197MOL0     C25937   2.738   8.624   4.897 -0.0207  0.7046 -0.1499
  197MOL0     C25938   2.605   8.591   4.909  0.2871 -0.4547 -0.6670
  197MOL0     H25939   2.152   8.967   5.020  0.5652 -0.7351 -1.6651
  197MOL0     H25940   1.914   8.983   5.098  0.4193 -0.0410  1.5830
  197MOL0     H25941   1.622   8.667   5.233  2.6265 -3.1678  0.7809
  197MOL0     H25942   1.670   8.629   5.068 -1.6239 -1.3123  0.9416
  197MOL0     H25943   1.609   8.839   4.980 -3.8591  2.3467 -2.1006
  197MOL0     H25944   1.520   8.873   5.130 -3.0216 -1.4191 -0.0923
  197MOL0     H25945   1.475   8.629   4.935 -0.2273 -0.5719  1.0079
  197MOL0     H25946   1.397   8.783   4.922 -0.7091 -1.1600  0.4179
  197MOL0     H25947   1.250   8.641   5.022  0.1690 -0.3224  0.0054
  197MOL0     H25948   1.358   8.567   5.135 -0.6061 -0.3088  0.5383
  197MOL0     H25949   1.274   8.860   5.151  2.6895  0.1924 -0.5082
  197MOL0     H25950   1.351   8.756   5.276  2.4015  0.3454 -2.8049
  197MOL0     H25951   1.112   8.794   5.326 -0.2819 -1.7121  2.3145
  197MOL0     H25952   1.150   8.627   5.307  0.1836 -0.1001 -1.1388
  197MOL0     H25953   1.019   8.801   5.089  0.4847 -0.1784  0.9340
  197MOL0     H25954   1.053   8.626   5.085 -0.6604 -0.7334 -0.5636
  197MOL0     H25955   0.812   8.690   5.144  0.5204  1.1405  0.1171
  197MOL0     H25956   0.864   8.759   5.283  0.4995  0.1601 -0.5291
  197MOL0     H25957   0.797   8.408   5.132  1.5797  1.2204 -0.8111
  197MOL0     H25958   0.704   8.188   5.242 -0.9210 -0.7444 -0.1560
  197MOL0     H25959   0.707   8.196   5.418 -0.7185 -0.7130 -1.0368
  197MOL0     H25960   0.825   7.994   5.394  1.6139 -0.4884 -0.5747
  197MOL0     H25961   0.957   8.111   5.372  1.2800  1.7746 -2.9896
  197MOL0     H25962   0.887   7.910   5.195 -1.2252 -0.1114 -0.3699
  197MOL0     H25963   0.828   8.065   5.126  0.3181  3.6338  0.7348
  197MOL0     H25964   1.077   7.992   5.066  4.2539 -0.0262  1.7438
  197MOL0     H25965   1.127   8.040   5.220  0.6296 -0.8735 -1.0832
  197MOL0     H25966   1.052   8.308   4.868 -0.6295 -0.0157  0.1249
  197MOL0     H25967   1.266   8.388   4.761  1.1773 -2.1702 -1.3410
  197MOL0     H25968   1.756   8.173   4.831 -0.5748  0.0013  2.3020
  197MOL0     H25969   1.971   8.190   4.688  0.9202  1.0827 -1.1724
  197MOL0     H25970   2.212   8.556   4.702  3.1174 -2.7439  1.1818
  197MOL0     H25971   2.106   8.586   4.560  2.3700  4.4870  1.9201
  197MOL0     H25972   2.252   8.426   4.430 -2.2218 -0.8078  0.8158
  197MOL0     H25973   2.358   8.405   4.581  3.2165  1.9929 -0.6305
  197MOL0     H25974   2.426   8.625   4.580 -3.1911  0.6887  1.2483
  197MOL0     H25975   2.324   8.668   4.439  0.8622  1.0670  1.3095
  197MOL0     H25976   2.563   8.457   4.459  0.7906  0.8885  3.0814
  197MOL0     H25977   2.483   8.498   4.304  3.1234 -1.4329 -0.7400
  197MOL0     H25978   2.643   8.690   4.474 -2.1642  3.2865 -0.7722
  197MOL0     H25979   2.574   8.717   4.312  1.6052  2.9677  1.7257
  197MOL0     H25980   2.774   8.665   4.261 -1.5397  1.1354  0.2335
  197MOL0     H25981   2.691   8.517   4.217 -2.0232  0.1160  0.5163
  197MOL0     H25982   2.882   8.555   4.451 -1.7271 -1.6270  2.6918
  197MOL0     H25983   2.762   8.422   4.437 -1.0216 -0.3450 -0.3961
  197MOL0     H25984   2.888   8.355   4.220 -2.4290  1.0397  0.7903
  197MOL0     H25985   2.991   8.345   4.358 -0.6418 -1.0442  1.0281
  197MOL0     H25986   1.949   8.616   4.720  0.0431  0.1356  0.6888
  197MOL0     H25987   1.765   8.606   4.843 -1.2690 -0.2236 -2.4139
  197MOL0     H25988   1.493   8.273   5.102  0.3149 -0.1599  0.3035
  197MOL0     H25989   1.280   8.194   5.212 -2.9889 -1.5064 -0.7916
  197MOL0     H25990   1.874   8.563   5.093 -1.6653 -0.4401 -3.6071
  197MOL0     H25991   2.111   8.544   4.991  1.8150  0.6793 -0.2895
  197MOL0     H25992   2.475   8.900   4.966  0.9404 -1.0937  2.4769
  197MOL0     H25993   2.723   8.954   4.948  1.0686  0.0088  5.1523
  197MOL0     H25994   3.008   8.612   4.974  1.0299  0.9549  2.1359
  197MOL0     H25995   3.116   8.751   4.981 -0.7242  0.2435  1.0627
  197MOL0     H25996   3.010   8.563   4.777 -1.6344  0.9894  0.1642
  197MOL0     H25997   3.059   8.723   4.711 -0.5955  1.0362  2.3256
  197MOL0     H25998   3.233   8.531   4.872 -0.4744  0.4126  0.4098
  197MOL0     H25999   3.288   8.700   4.831 -0.2126  0.4379  1.0300
  197MOL0     H26000   3.280   8.672   4.584 -0.9432 -1.6058 -2.6732
  197MOL0     H26001   3.404   8.589   4.663  0.8301 -4.2159  0.8284
  197MOL0     H26002   3.252   8.243   4.527  0.3263 -1.1481  1.2984
  197MOL0     H26003   2.802   8.541   4.871 -1.1235 -0.1952 -0.0757
  197MOL0     H26004   2.575   8.489   4.887 -2.5546  0.5457 -1.9964
  198MOL0     O26005   9.033   1.859   0.584  0.3730  0.0839  0.1479
  198MOL0     C26006   9.128   1.787   0.568  0.0539 -0.1796  0.4324
  198MOL0     O26007   9.121   1.649   0.550 -0.0139  0.4962  0.6053
  198MOL0     C26008   8.996   1.585   0.532  0.2796  0.5080 -0.4707
  198MOL0     C26009   8.906   1.633   0.435 -0.6493 -1.5282 -0.4293
  198MOL0     C26010   8.799   1.560   0.396  0.0363  0.8422  0.5941
  198MOL0     C26011   8.756   1.450   0.473  0.6529 -1.3334  0.3903
  198MOL0     O26012   8.634   1.388   0.453  0.2272 -0.4753  0.1085
  198MOL0     C26013   8.542   1.425   0.354  0.6160 -0.7444  0.3031
  198MOL0     C26014   8.472   1.558   0.393 -0.4670  0.2478 -0.3212
  198MOL0     C26015   8.424   1.552   0.541 -0.2027  0.1040 -0.1520
  198MOL0     C26016   8.364   1.686   0.569 -0.4275  0.7731  1.6107
  198MOL0     C26017   8.306   1.685   0.705  0.0526  0.9876  1.1214
  198MOL0     C26018   8.232   1.820   0.731  0.2482  0.8021  1.0500
  198MOL0     C26019   8.157   1.798   0.866 -0.5637 -0.2640 -0.7209
  198MOL0     C26020   8.129   1.929   0.939  0.1588  0.9621  0.1211
  198MOL0     N26021   8.019   2.020   0.899  0.8417  0.2700 -0.2299
  198MOL0     C26022   8.003   2.066   0.778  0.5595 -0.1745 -0.3832
  198MOL0     C26023   7.887   2.136   0.789 -0.3260 -0.1995 -0.3677
  198MOL0     C26024   7.809   2.207   0.685  0.2121  0.0848  0.1834
  198MOL0     C26025   7.792   2.359   0.717 -0.0485  1.0051 -0.2751
  198MOL0     C26026   7.710   2.440   0.615  0.7540  0.1351 -0.4900
  198MOL0     C26027   7.564   2.414   0.636  0.1971 -0.5319  0.6688
  198MOL0     O26028   7.496   2.511   0.559 -0.2503  0.0111  0.5478
  198MOL0     C26029   7.359   2.512   0.554 -0.3364 -1.2359 -0.4079
  198MOL0     C26030   7.304   2.596   0.453 -0.4264 -0.1958  0.3320
  198MOL0     C26031   7.166   2.598   0.445 -0.8071 -0.1502 -0.6291
  198MOL0     C26032   7.073   2.520   0.523 -0.1705  0.0725  0.1295
  198MOL0     C26033   6.921   2.537   0.508  0.4370  0.5452  0.9855
  198MOL0     O26034   6.875   2.654   0.454  0.1766  0.0468 -0.8250
  198MOL0     C26035   6.751   2.658   0.416 -0.1952  0.4034  0.4089
  198MOL0     C26036   6.693   2.782   0.422 -0.6930 -0.0798  0.0094
  198MOL0     C26037   6.564   2.809   0.401  0.2471  0.3744  0.6494
  198MOL0     C26038   6.474   2.707   0.367  0.9394  0.8131  0.3023
  198MOL0     O26039   6.343   2.735   0.343 -0.6391 -0.0810 -0.0056
  198MOL0     C26040   6.242   2.639   0.377 -0.5986 -1.5940  1.1979
  198MOL0     C26041   6.198   2.537   0.266  0.0161  0.1724 -0.2807
  198MOL0     C26042   6.092   2.449   0.324 -0.1112  0.2271  0.3492
  198MOL0     C26043   6.006   2.375   0.218 -0.2604  0.2002  0.0838
  198MOL0     C26044   5.929   2.255   0.264  0.0551  0.2169 -0.5978
  198MOL0     C26045   5.807   2.303   0.352  0.6843 -0.3144  0.5912
  198MOL0     C26046   5.707   2.196   0.394  0.4652 -0.3634 -0.3140
  198MOL0     C26047   5.581   2.175   0.308  0.3285 -0.4397  0.0672
  198MOL0    Cl26048   5.466   2.070   0.414 -0.2474 -0.1616 -0.1564
  198MOL0     C26049   6.525   2.578   0.358  0.3191 -0.3923 -0.0751
  198MOL0     C26050   6.663   2.549   0.377  0.2106 -0.3514 -0.4421
  198MOL0     O26051   6.852   2.436   0.540  0.3021  0.2406 -0.3987
  198MOL0     C26052   7.133   2.438   0.620  0.4101 -0.7547  0.2889
  198MOL0     C26053   7.271   2.438   0.641 -0.1244 -0.4648 -0.3877
  198MOL0     N26054   7.836   2.133   0.913 -0.1948  0.0534  0.2322
  198MOL0     N26055   7.918   2.064   0.983  0.1032  0.2435 -0.6324
  198MOL0     C26056   8.837   1.401   0.573  0.6763  0.6856  0.3302
  198MOL0     C26057   8.958   1.468   0.608  0.0154  0.2185 -0.1602
  198MOL0     C26058   9.255   1.853   0.585 -0.5504 -0.0845  0.8533
  198MOL0     C26059   9.280   1.974   0.508  0.7537 -0.7949 -0.3679
  198MOL0     C26060   9.395   2.054   0.520  0.0910  0.5898 -1.3031
  198MOL0     C26061   9.493   2.007   0.606 -0.3559  0.3647  0.1010
  198MOL0     O26062   9.611   2.070   0.636  0.2554  0.0344  0.6223
  198MOL0     C26063   9.626   2.216   0.625 -0.4314 -0.7333  0.2419
  198MOL0     C26064   9.569   2.291   0.748  0.2581 -0.4445  0.1192
  198MOL0     C26065   9.605   2.447   0.763 -0.3236  0.3103  0.1850
  198MOL0     C26066   9.509   2.548   0.686 -0.0922  0.4847 -0.4311
  198MOL0     C26067   9.365   2.536   0.718  0.0275 -1.0273 -0.8890
  198MOL0     C26068   9.242   2.544   0.737  0.2574  0.4583  0.0573
  198MOL0     C26069   9.494   1.876   0.648  0.5669 -0.0252  0.9315
  198MOL0     C26070   9.378   1.799   0.644  0.0016 -0.2213  0.5742
  198MOL0     H26071   8.920   1.725   0.379  1.5451 -1.4184  0.2037
  198MOL0     H26072   8.735   1.598   0.317  0.2535  0.5312  0.2643
  198MOL0     H26073   8.459   1.356   0.341 -3.5125  4.0121 -2.4073
  198MOL0     H26074   8.577   1.433   0.251  0.9654 -0.6691  0.4273
  198MOL0     H26075   8.385   1.575   0.329 -0.9598  0.9883  0.5305
  198MOL0     H26076   8.543   1.641   0.388 -2.0900  1.7296  0.3836
  198MOL0     H26077   8.504   1.530   0.612 -2.4323 -0.3029  2.4068
  198MOL0     H26078   8.349   1.473   0.553  0.3163 -0.6376 -1.5556
  198MOL0     H26079   8.433   1.765   0.538  0.3832 -0.3178  0.5002
  198MOL0     H26080   8.281   1.694   0.499  0.9166  0.2993 -0.1052
  198MOL0     H26081   8.390   1.670   0.774  1.3283 -0.0603 -0.5947
  198MOL0     H26082   8.242   1.597   0.711  4.1795 -2.4042 -0.0017
  198MOL0     H26083   8.158   1.849   0.656  1.1359  1.5985  0.4643
  198MOL0     H26084   8.299   1.906   0.736 -3.1851  3.6858  2.2226
  198MOL0     H26085   8.071   1.738   0.835 -0.6030 -0.3911 -0.3635
  198MOL0     H26086   8.216   1.738   0.936  0.0258  0.6727 -0.3986
  198MOL0     H26087   8.215   1.995   0.952 -2.1074  3.9946  0.8751
  198MOL0     H26088   8.108   1.891   1.039  1.9413  0.3228  0.2972
  198MOL0     H26089   8.068   2.046   0.693  1.6702 -2.2036  0.8399
  198MOL0     H26090   7.710   2.162   0.688 -1.3412  2.9921 -1.7880
  198MOL0     H26091   7.849   2.195   0.583 -2.6733  0.6029 -1.1158
  198MOL0     H26092   7.888   2.409   0.734  2.5102 -2.9560 -1.8297
  198MOL0     H26093   7.752   2.365   0.819  2.5584  0.6629  0.8566
  198MOL0     H26094   7.729   2.546   0.632 -0.5235  0.5316 -1.3614
  198MOL0     H26095   7.748   2.431   0.513 -2.1772  2.5148 -1.9465
  198MOL0     H26096   7.531   2.422   0.740 -1.4185 -2.6007  0.3796
  198MOL0     H26097   7.543   2.314   0.597 -0.8577  1.4667 -4.7326
  198MOL0     H26098   7.375   2.653   0.394  0.1041  0.5774  1.6719
  198MOL0     H26099   7.126   2.666   0.370  0.7097 -0.3008 -1.6275
  198MOL0     H26100   6.755   2.865   0.454 -1.9048 -0.2574  3.2095
  198MOL0     H26101   6.533   2.912   0.419 -1.9966  0.3086 -2.0515
  198MOL0     H26102   6.150   2.689   0.409  0.0248 -0.4375  1.2423
  198MOL0     H26103   6.279   2.596   0.470 -1.7597 -0.3388  2.3024
  198MOL0     H26104   6.286   2.483   0.230  2.5012  3.1454  0.9571
  198MOL0     H26105   6.155   2.589   0.180  0.2867  0.2329 -0.3805
  198MOL0     H26106   6.018   2.512   0.375 -0.5768 -1.2113  1.5086
  198MOL0     H26107   6.144   2.378   0.390  3.6138  1.7435 -0.6953
  198MOL0     H26108   5.941   2.447   0.166 -0.2300 -1.1041 -1.8430
  198MOL0     H26109   6.080   2.338   0.146 -0.5552  1.5159 -0.9519
  198MOL0     H26110   5.989   2.183   0.320  1.5793  0.1286 -2.2686
  198MOL0     H26111   5.886   2.201   0.179 -1.4578 -0.6368  0.6519
  198MOL0     H26112   5.761   2.386   0.299  0.9594 -0.1563  0.5947
  198MOL0     H26113   5.841   2.344   0.447  0.3695 -2.5690  1.7616
  198MOL0     H26114   5.764   2.103   0.402  1.8322  0.5941  2.1289
  198MOL0     H26115   5.677   2.210   0.498  2.6622 -3.7862  0.9787
  198MOL0     H26116   5.613   2.133   0.212 -0.2578  0.9375 -0.7497
  198MOL0     H26117   5.534   2.272   0.294 -0.8460 -1.2786 -2.2209
  198MOL0     H26118   6.461   2.502   0.313  0.4240  0.1685 -1.2124
  198MOL0     H26119   6.691   2.444   0.370  0.8735 -0.1164 -1.6477
  198MOL0     H26120   7.077   2.362   0.672  0.8361 -2.4236 -1.5353
  198MOL0     H26121   7.313   2.374   0.718  2.9163  2.7873  0.9666
  198MOL0     H26122   8.809   1.308   0.623  2.0722 -0.7512 -1.3897
  198MOL0     H26123   9.020   1.428   0.687  2.0407 -1.2492 -2.3300
  198MOL0     H26124   9.196   2.004   0.446  1.0518 -1.0244 -0.8899
  198MOL0     H26125   9.407   2.151   0.474  0.2217  0.6432 -1.1581
  198MOL0     H26126   9.583   2.250   0.531  3.7587 -3.2941 -2.9112
  198MOL0     H26127   9.730   2.245   0.610 -0.2362 -2.1304 -1.3864
  198MOL0     H26128   9.461   2.274   0.748 -0.2215  2.1048  0.3403
  198MOL0     H26129   9.607   2.241   0.837  0.7459 -0.1303  0.0884
  198MOL0     H26130   9.710   2.461   0.737  0.6653 -1.4664  2.8081
  198MOL0     H26131   9.597   2.478   0.867  0.6823  2.0605 -0.2165
  198MOL0     H26132   9.550   2.648   0.703 -0.1609  1.1014 -3.3335
  198MOL0     H26133   9.531   2.536   0.579  0.9052 -2.6623  0.0319
  198MOL0     H26134   9.136   2.543   0.747  0.2722 -0.2701  0.2740
  198MOL0     H26135   9.575   1.835   0.708 -0.6241 -3.8368  0.2180
  198MOL0     H26136   9.365   1.707   0.701  0.5338 -0.7586 -0.1504
  199MOL0     O26137   3.833   2.086  10.011 -0.1867  0.3531  0.4050
  199MOL0     C26138   3.899   2.187  10.002 -0.0269 -0.7352  0.0074
  199MOL0     O26139   3.991   2.231  10.090  0.2338  0.9485 -0.3643
  199MOL0     C26140   4.025   2.141  10.182  0.0674 -0.6699 -0.0427
  199MOL0     C26141   4.085   2.020  10.153 -0.3803  0.0336 -1.0185
  199MOL0     C26142   4.128   1.936  10.260 -0.5266 -0.3451 -0.1915
  199MOL0     C26143   4.111   1.970  10.397  0.3388  0.2973 -0.1442
  199MOL0     O26144   4.155   1.902  10.510 -0.2493  0.2831  0.1183
  199MOL0     C26145   4.287   1.842  10.508  0.2461 -0.3108  0.4120
  199MOL0     C26146   4.282   1.695  10.531  0.1492 -1.0638 -1.0287
  199MOL0     C26147   4.417   1.622  10.522 -0.4340 -0.3215  0.2147
  199MOL0     C26148   4.410   1.494  10.607 -0.2521  0.4973  0.9048
  199MOL0     C26149   4.554   1.425  10.609 -0.2742 -0.5722  0.5499
  199MOL0     C26150   4.558   1.281  10.654 -0.5563 -0.1605  0.4135
  199MOL0     C26151   4.704   1.218  10.648 -0.1665  0.5471 -0.1563
  199MOL0     C26152   4.709   1.071  10.669 -0.2289  0.3665 -0.2665
  199MOL0     N26153   4.628   0.984  10.583  0.6325 -0.0422  0.1026
  199MOL0     C26154   4.661   0.955  10.451  0.1579 -0.7949  0.0671
  199MOL0     C26155   4.563   0.865  10.411  0.0698  1.1577 -0.1023
  199MOL0     C26156   4.545   0.798  10.265 -0.0146  0.0661 -0.9179
  199MOL0     C26157   4.491   0.900  10.163 -0.4532  0.1636 -0.0378
  199MOL0     C26158   4.508   0.853  10.021 -0.6143 -0.5375 -0.5982
  199MOL0     C26159   4.427   0.936   9.921  0.0589  1.2339  0.2925
  199MOL0     O26160   4.286   0.912   9.958  0.6232  0.0527  0.1075
  199MOL0     C26161   4.193   0.982   9.899 -0.4169  0.5093  0.6476
  199MOL0     C26162   4.207   1.082   9.799  0.4194  0.6782 -0.2730
  199MOL0     C26163   4.099   1.148   9.740  0.0575 -0.3479  0.4473
  199MOL0     C26164   3.965   1.116   9.768  1.2393  0.2846  0.5949
  199MOL0     C26165   3.851   1.182   9.705 -1.0532 -1.3645  0.0743
  199MOL0     O26166   3.889   1.264   9.599  0.3913 -0.8048 -0.0034
  199MOL0     C26167   3.799   1.363   9.560  0.0190 -0.0232  0.2382
  199MOL0     C26168   3.757   1.469   9.636  1.4666  0.5727 -0.1805
  199MOL0     C26169   3.676   1.569   9.567 -0.7427  0.0705 -1.5450
  199MOL0     C26170   3.671   1.571   9.422  0.0729  0.0053  0.3038
  199MOL0     O26171   3.612   1.681   9.368  0.8919  0.2301  0.1368
  199MOL0     C26172   3.627   1.703   9.228  0.1645 -1.0069 -0.2136
  199MOL0     C26173   3.629   1.852   9.228  0.7508  0.0797  0.0139
  199MOL0     C26174   3.746   1.912   9.314 -0.0725  0.0163 -0.5185
  199MOL0     C26175   3.753   2.068   9.301  0.7854  0.2699 -0.1278
  199MOL0     C26176   3.838   2.145   9.405  0.3565  0.0020 -0.2757
  199MOL0     C26177   3.986   2.132   9.365  0.4114  0.2016  0.8432
  199MOL0     C26178   4.076   2.228   9.449  0.3648 -0.7370  0.1054
  199MOL0     C26179   4.131   2.173   9.576 -0.3609  0.2185 -0.0601
  199MOL0    Cl26180   4.270   2.273   9.621 -0.1329  0.3827  0.4148
  199MOL0     C26181   3.702   1.451   9.347  0.1174  0.1536 -0.8818
  199MOL0     C26182   3.770   1.350   9.426  0.1227  0.8246  0.0815
  199MOL0     O26183   3.737   1.156   9.751 -0.3221 -0.3010 -0.1346
  199MOL0     C26184   3.949   1.020   9.870 -0.1249 -0.1860  0.2872
  199MOL0     C26185   4.060   0.961   9.930  0.0218  0.7649  0.3824
  199MOL0     N26186   4.474   0.847  10.519  0.3424 -1.2179 -0.1232
  199MOL0     N26187   4.512   0.922  10.620  0.7023 -0.4158  0.5428
  199MOL0     C26188   4.049   2.084  10.420  0.1156  0.6582  0.0989
  199MOL0     C26189   4.004   2.164  10.320  0.1774  0.8613  0.4216
  199MOL0     C26190   3.874   2.271   9.880  0.5191 -0.0576  0.0468
  199MOL0     C26191   3.958   2.383   9.854  0.0857  0.2139  0.4500
  199MOL0     C26192   3.936   2.462   9.736 -0.6901  0.2642  0.5471
  199MOL0     C26193   3.829   2.432   9.661  1.1541 -0.0908 -0.5541
  199MOL0     O26194   3.783   2.510   9.558 -0.0016  0.1084  0.1384
  199MOL0     C26195   3.838   2.636   9.513 -0.5508 -0.3861  0.3865
  199MOL0     C26196   3.740   2.696   9.419  0.0323 -0.2832 -0.0188
  199MOL0     C26197   3.689   2.600   9.301  0.2711 -0.4912 -0.4999
  199MOL0     C26198   3.810   2.530   9.237  0.0561  0.4459  0.3782
  199MOL0     C26199   3.911   2.623   9.182  0.2674 -0.9221  0.7697
  199MOL0     C26200   3.986   2.691   9.119 -0.4803 -0.2026  0.9320
  199MOL0     C26201   3.741   2.334   9.701  0.2955  0.2135  0.0095
  199MOL0     C26202   3.759   2.247   9.808 -0.3053 -0.8385 -0.7767
  199MOL0     H26203   4.101   1.991  10.050  0.0454 -1.8026 -0.4587
  199MOL0     H26204   4.174   1.844  10.226  3.6444  2.6079 -3.6235
  199MOL0     H26205   4.346   1.879  10.592  0.6489  1.7140 -0.6788
  199MOL0     H26206   4.336   1.865  10.413 -1.5559 -1.2924 -0.8198
  199MOL0     H26207   4.208   1.653  10.461  1.6166 -0.0572 -3.3088
  199MOL0     H26208   4.240   1.682  10.631  2.7267 -2.3915 -0.0105
  199MOL0     H26209   4.498   1.686  10.560 -0.3110  2.6400 -4.2158
  199MOL0     H26210   4.437   1.607  10.415 -1.3476  4.0200 -0.7637
  199MOL0     H26211   4.369   1.520  10.704 -1.7188 -0.1492  0.4857
  199MOL0     H26212   4.335   1.422  10.571  2.0362 -0.9516 -1.3132
  199MOL0     H26213   4.623   1.486  10.668  0.2328  0.5031 -1.0769
  199MOL0     H26214   4.599   1.431  10.509  1.9075 -0.9955  1.4419
  199MOL0     H26215   4.501   1.220  10.583 -0.1918 -0.0020 -0.0275
  199MOL0     H26216   4.520   1.274  10.756  1.5056  1.4372  1.3586
  199MOL0     H26217   4.745   1.232  10.548 -2.2405 -2.5400 -1.5793
  199MOL0     H26218   4.771   1.261  10.724 -1.2475  1.6390  0.2112
  199MOL0     H26219   4.662   1.044  10.765  3.4867 -0.0372  1.6342
  199MOL0     H26220   4.813   1.039  10.660  0.5084  3.0109 -2.2037
  199MOL0     H26221   4.746   0.989  10.392 -0.9153 -0.2650 -1.2321
  199MOL0     H26222   4.458   0.732  10.280  0.0038  0.1733 -0.3197
  199MOL0     H26223   4.623   0.732  10.226  2.0818 -0.4107  3.4791
  199MOL0     H26224   4.541   0.997  10.179 -1.1931  0.8456 -1.6605
  199MOL0     H26225   4.387   0.923  10.186 -1.3957 -2.1732 -1.6719
  199MOL0     H26226   4.613   0.855   9.992  0.2955 -2.4499  2.1308
  199MOL0     H26227   4.461   0.754  10.018  0.3184 -1.1762  2.3265
  199MOL0     H26228   4.446   0.907   9.818  1.8269  1.7931  0.4309
  199MOL0     H26229   4.457   1.042   9.927  3.9343  0.3947 -1.2267
  199MOL0     H26230   4.308   1.111   9.773  1.1369 -1.6363 -0.3492
  199MOL0     H26231   4.127   1.224   9.668 -1.9240  0.9807  0.9897
  199MOL0     H26232   3.761   1.467   9.745  0.7980 -1.4953 -0.1434
  199MOL0     H26233   3.630   1.655   9.615  2.1555  3.1025 -3.7648
  199MOL0     H26234   3.557   1.641   9.171  0.5308  0.7669 -2.8135
  199MOL0     H26235   3.727   1.672   9.194  0.7265  0.2538  0.2120
  199MOL0     H26236   3.531   1.884   9.266  0.6154 -0.9147  0.5306
  199MOL0     H26237   3.643   1.877   9.122  1.0213 -2.9071 -0.7298
  199MOL0     H26238   3.835   1.876   9.262  0.5489  0.6465  0.0956
  199MOL0     H26239   3.738   1.883   9.419  0.2304 -1.1024 -0.7894
  199MOL0     H26240   3.790   2.096   9.202 -1.0716  0.4623 -0.8071
  199MOL0     H26241   3.650   2.103   9.310  0.2357 -1.4873  0.8195
  199MOL0     H26242   3.819   2.106   9.505  2.1421  0.3707  0.2463
  199MOL0     H26243   3.814   2.251   9.396  1.2876  0.3399  0.9637
  199MOL0     H26244   3.995   2.148   9.257 -1.8354 -1.2944  0.3635
  199MOL0     H26245   4.030   2.033   9.372  0.0117  0.0460  1.2015
  199MOL0     H26246   4.157   2.253   9.380 -0.5252  2.2252 -0.0221
  199MOL0     H26247   4.014   2.317   9.465 -0.5750 -0.7446 -2.8318
  199MOL0     H26248   4.169   2.070   9.582 -0.7201 -0.1701 -3.1644
  199MOL0     H26249   4.052   2.184   9.651  0.0831 -0.1443  0.4784
  199MOL0     H26250   3.653   1.436   9.251 -0.5250  2.9672 -1.0872
  199MOL0     H26251   3.784   1.256   9.373 -3.1842  0.0589  0.3738
  199MOL0     H26252   3.855   0.987   9.912 -0.5318 -2.4326 -2.1000
  199MOL0     H26253   4.037   0.873   9.989  2.3792  0.4273  0.8958
  199MOL0     H26254   4.045   2.107  10.526 -0.4594  3.1313 -0.3988
  199MOL0     H26255   3.957   2.255  10.356  0.0165  0.4869  1.1820
  199MOL0     H26256   4.035   2.417   9.922 -0.7109  0.4495  1.2558
  199MOL0     H26257   4.004   2.538   9.698  0.0303 -0.6421 -0.0439
  199MOL0     H26258   3.920   2.617   9.444 -3.9168  0.1613 -4.2296
  199MOL0     H26259   3.875   2.693   9.599  1.0005 -1.5019  0.5004
  199MOL0     H26260   3.655   2.736   9.475  1.0518 -1.2287  2.3212
  199MOL0     H26261   3.796   2.782   9.380  2.3904 -2.3304 -1.4875
  199MOL0     H26262   3.626   2.659   9.235 -3.3460 -1.5686  1.7288
  199MOL0     H26263   3.626   2.523   9.347 -1.5995  0.4512 -1.3946
  199MOL0     H26264   3.848   2.463   9.315  0.6922 -1.0618 -1.1784
  199MOL0     H26265   3.777   2.461   9.159  1.5645 -2.9447  2.4802
  199MOL0     H26266   4.041   2.759   9.058 -1.0397 -1.6718 -1.3561
  199MOL0     H26267   3.658   2.311   9.635  0.3060  1.5753 -0.5198
  199MOL0     H26268   3.687   2.166   9.820  1.9651 -2.7664  0.6409
  200MOL0     O26269   3.990   5.680   2.855 -1.2879  0.3229 -0.1255
  200MOL0     C26270   4.072   5.699   2.763 -1.0598  0.9167  0.0791
  200MOL0     O26271   4.182   5.630   2.744 -0.2882 -0.1237  0.9087
  200MOL0     C26272   4.221   5.522   2.821 -0.3357 -0.5546  0.2507
  200MOL0     C26273   4.188   5.505   2.960 -0.5045  0.3671 -0.4360
  200MOL0     C26274   4.205   5.378   3.025 -0.2767 -0.3892  0.4037
  200MOL0     C26275   4.256   5.267   2.949  0.0238  0.2580  0.1333
  200MOL0     O26276   4.261   5.137   2.997  0.2430 -1.2376  0.5050
  200MOL0     C26277   4.304   5.124   3.133 -0.5517  0.1083 -0.9530
  200MOL0     C26278   4.452   5.176   3.156 -0.0228 -0.7187  0.5969
  200MOL0     C26279   4.499   5.162   3.300 -0.2597  1.2359  0.4572
  200MOL0     C26280   4.492   5.020   3.346  0.0728 -0.1074 -0.6662
  200MOL0     C26281   4.595   4.929   3.272 -0.8033  0.0316  0.4223
  200MOL0     C26282   4.606   4.803   3.364  0.2792  0.0224 -0.5038
  200MOL0     C26283   4.708   4.707   3.306  0.3844  0.6907 -0.9126
  200MOL0     C26284   4.718   4.576   3.385  0.1188 -0.4314  0.3472
  200MOL0     N26285   4.826   4.489   3.327 -0.3019  0.2121 -0.5834
  200MOL0     C26286   4.828   4.413   3.212 -0.5909 -0.0670 -0.2831
  200MOL0     C26287   4.949   4.348   3.222  0.1855 -0.4020 -0.5650
  200MOL0     C26288   5.003   4.251   3.116  0.4253  0.3720 -0.9714
  200MOL0     C26289   5.143   4.183   3.158 -0.0298  0.0035  0.8371
  200MOL0     C26290   5.178   4.063   3.059 -0.1246  0.0552  0.2170
  200MOL0     C26291   5.321   4.026   3.073 -0.4750 -0.7906 -0.6512
  200MOL0     O26292   5.344   3.901   3.012  0.8514  0.4998  0.2857
  200MOL0     C26293   5.466   3.848   3.040  1.2857 -0.5232 -0.0184
  200MOL0     C26294   5.481   3.714   3.021  0.4948 -0.6491 -0.3937
  200MOL0     C26295   5.601   3.645   3.043  0.5234 -0.5154  0.1165
  200MOL0     C26296   5.711   3.714   3.080 -0.6021  0.4490  0.1015
  200MOL0     C26297   5.836   3.634   3.116  0.0658 -0.0131 -0.3011
  200MOL0     O26298   5.938   3.701   3.175 -0.3531  0.0881  0.0167
  200MOL0     C26299   6.056   3.647   3.227 -0.2946  0.4454 -0.6114
  200MOL0     C26300   6.079   3.508   3.274 -0.0867  0.0283 -0.5915
  200MOL0     C26301   6.199   3.473   3.337  0.9217  1.3520  0.1281
  200MOL0     C26302   6.295   3.562   3.378  0.4761 -0.0007  0.4665
  200MOL0     O26303   6.411   3.540   3.448 -0.0520  0.4821 -0.8085
  200MOL0     C26304   6.434   3.412   3.520 -0.2563 -0.2028 -0.7080
  200MOL0     C26305   6.328   3.394   3.626 -0.1284 -0.7391 -0.3778
  200MOL0     C26306   6.303   3.240   3.636 -0.7516 -0.0737 -0.4047
  200MOL0     C26307   6.216   3.224   3.755  0.1945  1.2852 -0.5047
  200MOL0     C26308   6.207   3.075   3.811 -0.3176 -0.3841  0.4655
  200MOL0     C26309   6.119   3.075   3.937 -0.4564  0.2135  0.0909
  200MOL0     C26310   6.183   2.967   4.024  0.4054  0.6152 -0.5622
  200MOL0     C26311   6.100   2.945   4.161 -0.3451  1.2622  0.8518
  200MOL0    Cl26312   6.156   3.065   4.287  0.1270 -0.2252 -0.5242
  200MOL0     C26313   6.270   3.691   3.334  0.4339 -0.4668  1.3424
  200MOL0     C26314   6.157   3.737   3.266  0.5177  0.1044  0.0480
  200MOL0     O26315   5.849   3.512   3.082 -0.3376  0.4717 -0.0968
  200MOL0     C26316   5.699   3.855   3.091 -0.7107  0.2474  0.3663
  200MOL0     C26317   5.584   3.926   3.070  1.4146 -0.4289  0.1827
  200MOL0     N26318   5.021   4.392   3.332 -0.2710 -0.0635  0.0756
  200MOL0     N26319   4.942   4.472   3.398 -0.4697  0.3883  0.7267
  200MOL0     C26320   4.293   5.290   2.813 -0.6799  0.4963  0.3520
  200MOL0     C26321   4.266   5.408   2.746  1.1363  1.0246  0.7514
  200MOL0     C26322   4.045   5.805   2.678 -0.0890  0.4714  0.2610
  200MOL0     C26323   3.944   5.899   2.717  0.2122  0.2713  0.2058
  200MOL0     C26324   3.886   5.986   2.626 -0.6520  0.8675  0.6266
  200MOL0     C26325   3.933   5.995   2.490  1.1683 -0.3641 -1.0950
  200MOL0     O26326   3.870   6.077   2.395  0.0491 -0.5372 -0.6636
  200MOL0     C26327   3.746   6.145   2.435  0.9898 -1.1238 -1.2630
  200MOL0     C26328   3.657   6.180   2.317  0.0341  0.4374 -0.4972
  200MOL0     C26329   3.531   6.251   2.374 -0.0366 -0.3544  0.5493
  200MOL0     C26330   3.456   6.323   2.266 -0.2642  0.1230  0.0599
  200MOL0     C26331   3.405   6.241   2.152  0.9917 -0.7684  0.3937
  200MOL0     C26332   3.350   6.187   2.058 -0.1828 -0.4087 -0.4709
  200MOL0     C26333   4.042   5.914   2.453 -0.6909  0.2366  0.0066
  200MOL0     C26334   4.096   5.817   2.549 -0.3424 -0.1392  0.6043
  200MOL0     H26335   4.156   5.594   3.014  0.9465 -0.3364  1.7330
  200MOL0     H26336   4.178   5.355   3.127  1.5930 -2.8396  0.4461
  200MOL0     H26337   4.313   5.015   3.143  1.9670  0.4748  4.5882
  200MOL0     H26338   4.222   5.154   3.199 -1.4775 -1.9459 -1.0741
  200MOL0     H26339   4.458   5.285   3.156 -0.0303 -0.6949 -0.9092
  200MOL0     H26340   4.522   5.142   3.078  0.4957  0.8351  0.3435
  200MOL0     H26341   4.434   5.217   3.370  0.0371  3.0113 -0.5873
  200MOL0     H26342   4.600   5.204   3.299 -0.6136  2.2041 -1.7915
  200MOL0     H26343   4.494   5.023   3.455 -3.6505 -0.2708 -0.4762
  200MOL0     H26344   4.389   4.985   3.336 -0.2262 -0.6610  2.8857
  200MOL0     H26345   4.693   4.978   3.269 -1.8227  2.2598  1.6027
  200MOL0     H26346   4.553   4.896   3.176 -0.3187 -3.2179  1.1895
  200MOL0     H26347   4.506   4.763   3.381  0.9225 -2.0278 -1.2232
  200MOL0     H26348   4.642   4.824   3.465 -0.1895 -1.4342 -0.0031
  200MOL0     H26349   4.695   4.691   3.199  0.0910  0.4652 -0.8455
  200MOL0     H26350   4.809   4.742   3.330  0.8847  0.4857 -2.5760
  200MOL0     H26351   4.624   4.520   3.385  0.4631 -1.0309 -0.2523
  200MOL0     H26352   4.744   4.597   3.489 -0.1183 -3.9643  1.2333
  200MOL0     H26353   4.745   4.388   3.146 -0.1433  1.4024 -1.4771
  200MOL0     H26354   5.009   4.292   3.015 -0.0989  0.8516 -0.8107
  200MOL0     H26355   4.936   4.165   3.105 -0.9160  1.4851 -1.8245
  200MOL0     H26356   5.127   4.140   3.257 -4.1348 -1.5570 -0.2674
  200MOL0     H26357   5.223   4.256   3.175 -1.3088  1.1056  2.5686
  200MOL0     H26358   5.103   3.985   3.069 -0.0956 -0.0229 -0.1639
  200MOL0     H26359   5.161   4.091   2.955 -0.0580 -2.8248 -0.6456
  200MOL0     H26360   5.352   4.039   3.177 -2.2242  0.2081 -0.2212
  200MOL0     H26361   5.382   4.101   3.023 -2.1325 -0.6494 -2.5754
  200MOL0     H26362   5.388   3.662   2.998 -0.1737  1.2782 -2.4109
  200MOL0     H26363   5.608   3.539   3.022  1.9313  0.2584 -4.4475
  200MOL0     H26364   6.015   3.423   3.252  1.6547 -1.4805 -0.1179
  200MOL0     H26365   6.214   3.369   3.364 -0.5235  1.0172 -0.2802
  200MOL0     H26366   6.523   3.427   3.582 -0.0831 -0.6463 -0.8426
  200MOL0     H26367   6.457   3.325   3.458  1.3817 -1.5533  1.6371
  200MOL0     H26368   6.237   3.453   3.610  0.3929  0.7931  1.7724
  200MOL0     H26369   6.368   3.432   3.721 -1.2128 -0.5020 -0.0055
  200MOL0     H26370   6.393   3.179   3.649 -0.8629 -0.2892 -0.6319
  200MOL0     H26371   6.254   3.202   3.546 -1.3964  0.0264 -0.1035
  200MOL0     H26372   6.252   3.288   3.836  1.8448  0.7749 -0.7893
  200MOL0     H26373   6.116   3.264   3.736 -1.0092 -0.3916  1.8463
  200MOL0     H26374   6.309   3.036   3.819 -0.3904 -0.5083  0.8231
  200MOL0     H26375   6.147   3.010   3.748 -3.4435 -2.0434  4.6576
  200MOL0     H26376   6.018   3.044   3.907  0.2942  0.3433 -2.8881
  200MOL0     H26377   6.134   3.170   3.990 -1.4932 -0.0962  0.9823
  200MOL0     H26378   6.185   2.871   3.971 -0.6625  0.5228 -0.4670
  200MOL0     H26379   6.286   2.993   4.049 -0.1053  2.8988 -0.5648
  200MOL0     H26380   6.128   2.850   4.207  1.0812  1.0503 -0.3629
  200MOL0     H26381   5.991   2.950   4.152 -0.8225 -3.8897  1.0554
  200MOL0     H26382   6.345   3.766   3.355 -0.9840  1.3710  0.1312
  200MOL0     H26383   6.143   3.844   3.249 -1.7670 -0.0619  0.5906
  200MOL0     H26384   5.792   3.904   3.115 -0.6250  0.1733  0.1923
  200MOL0     H26385   5.582   4.033   3.085 -0.0594 -0.5658  1.1788
  200MOL0     H26386   4.330   5.198   2.768 -2.8155  0.2982 -1.1204
  200MOL0     H26387   4.283   5.411   2.639  0.3361 -0.8492  0.5397
  200MOL0     H26388   3.902   5.891   2.817  1.8262 -0.4033  0.8655
  200MOL0     H26389   3.806   6.039   2.676  0.6281  2.7184  0.8060
  200MOL0     H26390   3.762   6.230   2.502  0.2167 -2.5112  0.7973
  200MOL0     H26391   3.686   6.076   2.495 -1.3366  0.0083 -2.1894
  200MOL0     H26392   3.721   6.237   2.249  0.3847 -0.4216 -0.9151
  200MOL0     H26393   3.633   6.089   2.260  0.3563  0.5238 -0.7752
  200MOL0     H26394   3.560   6.318   2.456 -0.1696 -1.0592  1.1780
  200MOL0     H26395   3.467   6.176   2.421  0.5410 -1.7989 -0.8696
  200MOL0     H26396   3.371   6.368   2.318  1.4718  1.4750  1.8662
  200MOL0     H26397   3.515   6.403   2.219 -0.6737  0.0210 -0.6464
  200MOL0     H26398   3.297   6.138   1.978  1.6371  1.7744 -3.1960
  200MOL0     H26399   4.079   5.924   2.351  0.2741 -3.1358 -0.0868
  200MOL0     H26400   4.170   5.748   2.512 -1.3845  0.4461 -2.9637
  201MOL0     O26401   1.133   8.228   6.691 -0.5949 -0.2914 -0.4096
  201MOL0     C26402   1.228   8.290   6.723 -0.1714 -0.7825  0.0544
  201MOL0     O26403   1.349   8.292   6.661  0.1015  0.4292 -0.1957
  201MOL0     C26404   1.360   8.215   6.551  0.7335 -1.0754 -0.0561
  201MOL0     C26405   1.308   8.259   6.432  0.6254  0.3690  0.0089
  201MOL0     C26406   1.311   8.180   6.314  0.6813  0.8423 -0.5637
  201MOL0     C26407   1.373   8.048   6.318 -0.0025 -0.5956 -0.1022
  201MOL0     O26408   1.387   7.965   6.211  0.9328 -0.0845 -0.3077
  201MOL0     C26409   1.275   7.954   6.124  0.8700  0.1918  0.3887
  201MOL0     C26410   1.288   7.822   6.039  0.7349  0.4248 -0.8092
  201MOL0     C26411   1.223   7.698   6.104  0.3461  0.0372  0.6856
  201MOL0     C26412   1.263   7.561   6.049  0.3112  0.5501 -0.5510
  201MOL0     C26413   1.196   7.530   5.911 -0.2533 -0.6788  0.8266
  201MOL0     C26414   1.045   7.521   5.911 -1.9693  0.3945 -0.1883
  201MOL0     C26415   1.006   7.495   5.765 -0.4256  0.1303 -0.5337
  201MOL0     C26416   0.858   7.513   5.737  0.5691 -0.0468 -0.2989
  201MOL0     N26417   0.838   7.510   5.598 -0.4761  0.1911  0.5189
  201MOL0     C26418   0.838   7.616   5.502 -0.1709 -0.2597 -0.2090
  201MOL0     C26419   0.784   7.562   5.400  0.0001  0.5290  0.6925
  201MOL0     C26420   0.765   7.623   5.263 -0.5617  0.0162  0.0149
  201MOL0     C26421   0.651   7.728   5.254  0.0054  0.7783  0.4455
  201MOL0     C26422   0.506   7.668   5.255 -0.4549  0.2738 -0.2871
  201MOL0     C26423   0.398   7.759   5.195 -0.2023 -0.0168 -0.2910
  201MOL0     O26424   0.342   7.854   5.285 -0.3218  0.2702  0.2113
  201MOL0     C26425   0.369   7.985   5.275 -0.1705  0.1837 -0.3522
  201MOL0     C26426   0.339   8.061   5.385 -0.1618 -0.1870 -1.1008
  201MOL0     C26427   0.349   8.202   5.374 -0.1657 -0.2013  0.7484
  201MOL0     C26428   0.414   8.266   5.259  0.2560  0.5748 -0.4629
  201MOL0     C26429   0.424   8.407   5.246  0.0450  0.5849  0.2598
  201MOL0     O26430   0.341   8.484   5.328  0.5252 -0.8680  0.5711
  201MOL0     C26431   0.330   8.624   5.284 -0.0566 -0.1112  0.1748
  201MOL0     C26432   0.198   8.667   5.282  0.2739 -0.2316 -0.0547
  201MOL0     C26433   0.165   8.798   5.239  0.2677 -0.3158  0.0982
  201MOL0     C26434   0.277   8.889   5.222 -1.2367 -0.0875  0.8767
  201MOL0     O26435   0.262   9.019   5.181  0.0499 -0.3876 -0.5059
  201MOL0     C26436   0.160   9.088   5.266 -0.8280  0.0528 -0.4285
  201MOL0     C26437   0.168   9.075   5.424  0.3026  0.7569 -0.2439
  201MOL0     C26438   0.308   9.114   5.489 -0.1391  0.3078 -0.5606
  201MOL0     C26439   0.307   9.260   5.545  0.0272 -0.3829 -0.8093
  201MOL0     C26440   0.433   9.291   5.636 -0.6568 -0.1745  0.5362
  201MOL0     C26441   0.448   9.192   5.751  0.4174  0.4903  0.4911
  201MOL0     C26442   0.532   9.244   5.862 -1.1967  1.2141 -0.5694
  201MOL0     C26443   0.684   9.248   5.811 -0.5038 -0.7172 -0.2257
  201MOL0    Cl26444   0.737   9.084   5.799 -0.5750 -0.3694  0.7233
  201MOL0     C26445   0.406   8.853   5.230 -0.1797  0.1325 -0.0083
  201MOL0     C26446   0.424   8.717   5.267  0.1489  0.2118  0.4423
  201MOL0     O26447   0.514   8.440   5.167  0.4562 -0.3567  0.4175
  201MOL0     C26448   0.452   8.182   5.158 -0.5505  0.8641  0.0390
  201MOL0     C26449   0.422   8.050   5.159  1.3632 -0.3139  0.8345
  201MOL0     N26450   0.739   7.430   5.428 -0.5686  0.4102  0.3848
  201MOL0     N26451   0.768   7.405   5.548 -0.3030  0.1026  0.3928
  201MOL0     C26452   1.441   8.021   6.436 -0.2407  0.0138 -0.2856
  201MOL0     C26453   1.432   8.101   6.553 -0.3769  0.1902  0.0544
  201MOL0     C26454   1.212   8.390   6.839 -0.5742  0.1253 -0.1502
  201MOL0     C26455   1.324   8.464   6.882 -0.6405 -0.3515  1.2027
  201MOL0     C26456   1.316   8.566   6.973 -0.5147  0.3920 -0.5332
  201MOL0     C26457   1.202   8.600   7.028 -0.8993  0.3722  0.1459
  201MOL0     O26458   1.200   8.715   7.105  0.0753 -0.1349  0.7703
  201MOL0     C26459   1.076   8.797   7.109  0.0009  0.2180  1.5434
  201MOL0     C26460   1.009   8.778   7.243  0.4141  0.2401  0.5235
  201MOL0     C26461   0.878   8.864   7.256  0.1248 -0.1803  0.1357
  201MOL0     C26462   0.862   8.964   7.360 -0.7558 -0.1213  0.0295
  201MOL0     C26463   0.865   8.905   7.498  0.1909 -0.3872  0.7302
  201MOL0     C26464   0.835   8.857   7.601  0.6497  0.1526  0.2696
  201MOL0     C26465   1.090   8.518   7.001  0.4529  0.5020 -0.4374
  201MOL0     C26466   1.088   8.413   6.904 -0.0359 -0.3998 -0.9431
  201MOL0     H26467   1.264   8.358   6.431  0.4245  0.2848  0.4802
  201MOL0     H26468   1.260   8.216   6.226 -0.4963 -0.2839 -0.3658
  201MOL0     H26469   1.278   8.044   6.062  1.0541 -0.6256 -0.8454
  201MOL0     H26470   1.182   7.949   6.180  0.3185  0.1931 -0.5011
  201MOL0     H26471   1.395   7.820   6.017  0.5908  3.8458 -2.5215
  201MOL0     H26472   1.242   7.828   5.940 -3.0116  0.9688  0.7788
  201MOL0     H26473   1.114   7.704   6.107  0.4305  2.2799  1.7803
  201MOL0     H26474   1.243   7.701   6.212  0.3872 -0.4898  0.6934
  201MOL0     H26475   1.370   7.569   6.026  0.2998  1.1969 -0.4085
  201MOL0     H26476   1.238   7.487   6.125  2.2007 -0.2582 -0.6611
  201MOL0     H26477   1.234   7.429   5.893 -2.2460 -0.9555 -2.7332
  201MOL0     H26478   1.240   7.599   5.838  2.3328 -1.7618  1.2460
  201MOL0     H26479   1.006   7.621   5.931  0.5603  1.2241  1.0279
  201MOL0     H26480   1.014   7.450   5.988 -1.3057  1.7669  1.4130
  201MOL0     H26481   1.059   7.567   5.702 -0.0967  0.4452  0.0906
  201MOL0     H26482   1.038   7.396   5.732 -2.4372 -0.7318 -0.0607
  201MOL0     H26483   0.814   7.603   5.781 -0.6462  0.1402 -1.7953
  201MOL0     H26484   0.809   7.434   5.793 -2.7048  4.6130  4.3741
  201MOL0     H26485   0.879   7.716   5.513 -2.2877  0.5999  0.4823
  201MOL0     H26486   0.746   7.548   5.185  1.0353 -0.4720  0.0725
  201MOL0     H26487   0.859   7.676   5.249 -1.3092  1.3337 -0.1674
  201MOL0     H26488   0.674   7.781   5.161  1.2609  2.0857  1.4557
  201MOL0     H26489   0.670   7.802   5.332  5.0523 -1.8456  2.1522
  201MOL0     H26490   0.525   7.573   5.203 -0.2715  1.3490 -2.2735
  201MOL0     H26491   0.469   7.643   5.355 -1.1330 -0.8661 -0.8069
  201MOL0     H26492   0.318   7.690   5.166  2.4008 -2.8770 -1.3161
  201MOL0     H26493   0.432   7.792   5.096 -0.4676 -1.4169 -0.8803
  201MOL0     H26494   0.317   8.017   5.482 -0.1964 -1.0041 -1.4661
  201MOL0     H26495   0.330   8.265   5.461  2.7223  1.1653  0.5022
  201MOL0     H26496   0.121   8.594   5.305  0.5859 -0.1239  1.4856
  201MOL0     H26497   0.068   8.834   5.204 -0.1735 -2.8463 -1.5246
  201MOL0     H26498   0.063   9.068   5.220 -0.6610  0.2090 -0.8518
  201MOL0     H26499   0.183   9.193   5.244 -1.1082  0.1674 -0.1752
  201MOL0     H26500   0.158   8.971   5.459 -1.2403  1.7515  2.5915
  201MOL0     H26501   0.087   9.123   5.479  1.3245  0.9517  1.1704
  201MOL0     H26502   0.390   9.108   5.417 -0.0564  1.4259 -0.5767
  201MOL0     H26503   0.335   9.047   5.572  5.7578  1.7298 -0.9192
  201MOL0     H26504   0.295   9.335   5.467 -1.6965 -0.5754 -0.7854
  201MOL0     H26505   0.213   9.268   5.602 -0.4068 -0.6929 -1.4729
  201MOL0     H26506   0.407   9.379   5.695 -0.1128  0.7205 -0.5387
  201MOL0     H26507   0.520   9.316   5.576 -1.6351  2.6827  0.1684
  201MOL0     H26508   0.490   9.099   5.711  1.1428  1.4644 -1.1393
  201MOL0     H26509   0.355   9.162   5.800  0.0009  1.1336  0.0970
  201MOL0     H26510   0.506   9.341   5.906  2.2399 -0.0205  5.2600
  201MOL0     H26511   0.521   9.186   5.953  2.3149 -0.5903 -1.1400
  201MOL0     H26512   0.757   9.295   5.879  0.6537 -0.2887 -1.7101
  201MOL0     H26513   0.693   9.307   5.720  4.4037 -0.6658  0.0343
  201MOL0     H26514   0.488   8.921   5.211 -0.4416  0.4943  0.1345
  201MOL0     H26515   0.530   8.702   5.286  1.3746  3.7657 -2.4247
  201MOL0     H26516   0.493   8.209   5.061 -0.9366  0.8450 -0.1330
  201MOL0     H26517   0.430   8.006   5.060  5.3673  3.9919 -1.1519
  201MOL0     H26518   1.501   7.931   6.432  0.9882  0.8295 -1.6551
  201MOL0     H26519   1.475   8.070   6.647  1.2692  0.5470 -0.5398
  201MOL0     H26520   1.420   8.449   6.834 -0.2352  1.1110  1.5127
  201MOL0     H26521   1.402   8.628   6.997 -1.1906  0.8139  0.9275
  201MOL0     H26522   1.005   8.766   7.032  2.8823 -3.8696  0.1795
  201MOL0     H26523   1.088   8.905   7.097 -1.8643  0.1301 -2.7290
  201MOL0     H26524   0.969   8.677   7.254 -1.3914  0.7340 -1.0200
  201MOL0     H26525   1.089   8.791   7.316  2.8008 -2.3921 -1.3714
  201MOL0     H26526   0.793   8.796   7.259  1.4936 -2.0575 -1.1924
  201MOL0     H26527   0.871   8.913   7.158 -2.2200 -2.1531 -0.7875
  201MOL0     H26528   0.952   9.025   7.360  1.5505 -3.2423  1.4731
  201MOL0     H26529   0.772   9.019   7.330 -0.5053 -0.9279 -2.4850
  201MOL0     H26530   0.834   8.813   7.699  1.8429  0.5279  0.4629
  201MOL0     H26531   1.005   8.553   7.059  2.9795 -0.8515  4.7663
  201MOL0     H26532   0.995   8.359   6.890  0.8261 -2.7940  1.6157
  202MOL0     O26533   2.842  10.929   4.620 -0.2381 -0.0794  0.0510
  202MOL0     C26534   2.899  11.036   4.633 -0.8679  1.0710  0.0118
  202MOL0     O26535   3.029  11.063   4.608 -0.4803  0.0709 -1.0061
  202MOL0     C26536   3.123  10.971   4.563  0.5335  0.1423  0.0608
  202MOL0     C26537   3.091  10.872   4.464  0.1007 -0.3940  0.2188
  202MOL0     C26538   3.177  10.762   4.446  0.1841  0.0743  0.2390
  202MOL0     C26539   3.303  10.763   4.507 -0.2698  1.1208 -0.0855
  202MOL0     O26540   3.384  10.657   4.462 -0.1443  0.1742 -0.9232
  202MOL0     C26541   3.522  10.679   4.429 -0.0967 -0.0601 -0.1805
  202MOL0     C26542   3.605  10.630   4.542 -0.7781 -0.7966 -0.4641
  202MOL0     C26543   3.754  10.628   4.516 -0.3357  0.1254  0.6338
  202MOL0     C26544   3.819  10.560   4.643  0.4985  0.2797 -1.0769
  202MOL0     C26545   3.973  10.550   4.637 -0.5195 -0.1807 -0.0421
  202MOL0     C26546   4.004  10.483   4.774 -0.4189  0.6255  0.1211
  202MOL0     C26547   4.143  10.439   4.765 -0.0522 -0.8505  0.3013
  202MOL0     C26548   4.180  10.376   4.893 -1.6783 -0.5302  0.5052
  202MOL0     N26549   4.209  10.470   5.010 -0.0226 -0.2568  0.3787
  202MOL0     C26550   4.113  10.540   5.080  0.0073 -0.7622  0.0086
  202MOL0     C26551   4.184  10.594   5.181 -0.5180 -0.1305  0.3206
  202MOL0     C26552   4.131  10.688   5.281  0.7359 -0.1620 -0.3654
  202MOL0     C26553   3.989  10.721   5.264  0.4449 -0.0080  0.0229
  202MOL0     C26554   3.933  10.810   5.372 -0.0134  0.5292  0.1360
  202MOL0     C26555   3.781  10.813   5.345  0.0110 -1.2270 -0.6337
  202MOL0     O26556   3.715  10.694   5.378 -0.1925 -0.1535 -0.6268
  202MOL0     C26557   3.574  10.678   5.384 -0.7364 -0.2856  0.5679
  202MOL0     C26558   3.528  10.550   5.363 -0.1999  0.0138 -0.2627
  202MOL0     C26559   3.388  10.521   5.360  0.4412 -0.0249  0.3307
  202MOL0     C26560   3.292  10.625   5.365 -0.1960  0.3372  0.0078
  202MOL0     C26561   3.145  10.605   5.355  0.0572 -0.1120 -0.7112
  202MOL0     O26562   3.098  10.492   5.296  0.2041 -0.0911 -0.3745
  202MOL0     C26563   2.966  10.453   5.295 -0.9561 -0.1614 -0.4313
  202MOL0     C26564   2.934  10.385   5.177  0.1569 -0.1465 -0.5889
  202MOL0     C26565   2.800  10.361   5.148  0.0198  0.9008  0.0432
  202MOL0     C26566   2.696  10.398   5.231  0.7157 -0.0344  0.4884
  202MOL0     O26567   2.564  10.376   5.202  0.1292 -0.3780 -0.6922
  202MOL0     C26568   2.511  10.361   5.073  0.9981  0.2774  0.2123
  202MOL0     C26569   2.364  10.420   5.069  0.3582  0.6621 -0.0514
  202MOL0     C26570   2.277  10.353   5.175 -0.2754 -0.7169 -0.7371
  202MOL0     C26571   2.128  10.376   5.148 -0.0794  0.0323  0.0181
  202MOL0     C26572   2.047  10.369   5.278 -0.5259 -0.2227  0.1587
  202MOL0     C26573   2.063  10.241   5.356 -0.0523 -0.6863 -0.4682
  202MOL0     C26574   1.974  10.131   5.310 -0.0554  0.9402 -0.7296
  202MOL0     C26575   2.045  10.002   5.286  0.1652  0.2349 -0.1492
  202MOL0    Cl26576   2.121   9.947   5.435  0.2680 -0.1101  0.3214
  202MOL0     C26577   2.722  10.460   5.347 -0.4202  0.0225 -0.0491
  202MOL0     C26578   2.862  10.482   5.385  0.7618  0.0596 -0.0811
  202MOL0     O26579   3.075  10.692   5.407  0.7172  0.0182 -0.3823
  202MOL0     C26580   3.345  10.757   5.393 -0.0230 -0.1400 -0.2348
  202MOL0     C26581   3.487  10.784   5.393 -0.1248  0.1387 -0.1774
  202MOL0     N26582   4.323  10.568   5.166 -1.2141  0.8187 -0.3708
  202MOL0     N26583   4.336  10.486   5.063 -0.4979  0.4991  0.7118
  202MOL0     C26584   3.332  10.866   4.595 -0.1796  0.9046 -0.0896
  202MOL0     C26585   3.249  10.971   4.630  0.5779  0.1708 -0.0036
  202MOL0     C26586   2.816  11.153   4.654  0.2086  0.0274  0.4520
  202MOL0     C26587   2.678  11.144   4.675 -0.4132  0.2610 -0.4760
  202MOL0     C26588   2.594  11.256   4.680  0.4845  0.0716  0.1391
  202MOL0     C26589   2.647  11.386   4.668  0.6012  0.1114  0.2820
  202MOL0     O26590   2.553  11.489   4.686 -0.2121  0.0531  0.7051
  202MOL0     C26591   2.602  11.616   4.670 -0.1500 -0.1130  0.2685
  202MOL0     C26592   2.482  11.711   4.698  0.0850  0.3877 -0.4119
  202MOL0     C26593   2.392  11.667   4.822  1.6858 -0.3715 -0.1587
  202MOL0     C26594   2.471  11.648   4.950  0.1605  0.6284  0.0883
  202MOL0     C26595   2.542  11.767   4.988 -0.5993  0.9205  0.3142
  202MOL0     C26596   2.605  11.871   5.014  0.4351  0.3168  0.2029
  202MOL0     C26597   2.790  11.396   4.650 -0.2137  0.5361  0.5126
  202MOL0     C26598   2.865  11.287   4.642 -0.2540  1.0313  0.5023
  202MOL0     H26599   2.995  10.865   4.413  0.5632 -0.2776 -0.6761
  202MOL0     H26600   3.149  10.680   4.380  0.3411  0.3673 -0.1978
  202MOL0     H26601   3.541  10.782   4.397 -1.7448 -0.2013 -1.7605
  202MOL0     H26602   3.543  10.612   4.345 -0.7465 -1.0805  0.4559
  202MOL0     H26603   3.563  10.533   4.567 -1.6673 -0.4497 -0.5611
  202MOL0     H26604   3.587  10.690   4.631 -0.8970 -1.5359  0.0148
  202MOL0     H26605   3.798  10.727   4.501 -2.1059  1.2605  2.3191
  202MOL0     H26606   3.767  10.579   4.420  2.0593  2.3608 -0.2856
  202MOL0     H26607   3.784  10.604   4.736  2.8879 -1.4130  0.7423
  202MOL0     H26608   3.785  10.458   4.660 -0.1201  0.7845  0.9676
  202MOL0     H26609   4.020  10.649   4.634 -0.3701 -0.2135  1.0510
  202MOL0     H26610   4.005  10.495   4.547 -3.0942  1.9160 -2.4458
  202MOL0     H26611   3.941  10.399   4.802 -1.2856  1.9444  2.4958
  202MOL0     H26612   3.986  10.551   4.858 -0.9440 -1.1111  1.4678
  202MOL0     H26613   4.154  10.357   4.693  1.4949 -1.2042  0.9032
  202MOL0     H26614   4.225  10.506   4.740  0.7959 -2.6205 -2.0504
  202MOL0     H26615   4.257  10.301   4.875 -0.4995  0.6444  0.4904
  202MOL0     H26616   4.096  10.314   4.926 -3.5687  0.5474 -1.9169
  202MOL0     H26617   4.006  10.553   5.066  0.2301  1.1966 -0.1273
  202MOL0     H26618   4.181  10.784   5.267 -0.1379  0.2433 -0.7998
  202MOL0     H26619   4.148  10.654   5.383 -0.7076  2.8267  1.0043
  202MOL0     H26620   3.947  10.620   5.263  1.4434 -0.4519  1.4095
  202MOL0     H26621   3.962  10.773   5.171 -3.7130 -0.4515  0.7906
  202MOL0     H26622   3.962  10.773   5.470  2.0085  2.2717  0.2715
  202MOL0     H26623   3.971  10.912   5.360 -4.5138  2.1560 -2.9800
  202MOL0     H26624   3.753  10.857   5.249  0.9028  2.2840  0.5620
  202MOL0     H26625   3.740  10.877   5.424 -0.7861 -0.6382 -1.4968
  202MOL0     H26626   3.592  10.463   5.360 -0.0764  0.0997 -0.1317
  202MOL0     H26627   3.359  10.417   5.354  0.1731  0.0754 -0.1095
  202MOL0     H26628   3.005  10.360   5.098  2.5998  3.0789  0.3533
  202MOL0     H26629   2.792  10.309   5.053 -0.0615 -4.5055  2.6174
  202MOL0     H26630   2.503  10.252   5.067 -0.3644  0.3771 -0.2466
  202MOL0     H26631   2.571  10.408   4.995 -2.0325  0.6052 -2.0949
  202MOL0     H26632   2.327  10.412   4.966  0.3396 -1.3719  0.0644
  202MOL0     H26633   2.364  10.522   5.108 -0.2238 -0.1693  2.2620
  202MOL0     H26634   2.302  10.379   5.279  0.6016  2.1970 -1.5904
  202MOL0     H26635   2.302  10.247   5.163 -1.0239 -1.2540  1.7347
  202MOL0     H26636   2.111  10.473   5.102 -4.8086 -0.5992 -0.0494
  202MOL0     H26637   2.085  10.308   5.073 -1.6272 -0.5630  1.3804
  202MOL0     H26638   1.944  10.398   5.258 -0.3256  0.4774  0.1158
  202MOL0     H26639   2.076  10.454   5.340 -1.5359 -0.1499  0.5480
  202MOL0     H26640   2.031  10.276   5.454 -2.2930  0.9867 -1.6958
  202MOL0     H26641   2.168  10.211   5.362  0.5727  1.6444  2.5883
  202MOL0     H26642   1.897  10.107   5.384  1.8467 -0.5543  0.8859
  202MOL0     H26643   1.928  10.165   5.217  1.2135 -1.0501 -2.1827
  202MOL0     H26644   2.122  10.005   5.208 -1.0057  0.6010 -1.3175
  202MOL0     H26645   1.977   9.920   5.260  1.2534 -0.6211 -0.4133
  202MOL0     H26646   2.636  10.462   5.413 -1.5983 -2.8904 -1.2759
  202MOL0     H26647   2.882  10.528   5.481  1.9545  2.2711 -1.3116
  202MOL0     H26648   3.275  10.840   5.401  0.9248  0.6206  0.3947
  202MOL0     H26649   3.516  10.885   5.422 -2.8893 -0.0177  3.9613
  202MOL0     H26650   3.431  10.855   4.638 -0.0530  1.4631 -0.2287
  202MOL0     H26651   3.268  11.061   4.688  0.3093  0.7153 -0.7499
  202MOL0     H26652   2.631  11.047   4.677 -1.3931  0.6163 -3.1178
  202MOL0     H26653   2.489  11.242   4.705 -0.1836  0.0046 -2.3556
  202MOL0     H26654   2.634  11.618   4.565  0.5381  1.1486  0.4938
  202MOL0     H26655   2.688  11.642   4.731  1.5042 -2.7214 -0.7845
  202MOL0     H26656   2.521  11.812   4.710  0.7474  0.0611  0.2732
  202MOL0     H26657   2.419  11.709   4.609  0.5058  1.8377 -0.7655
  202MOL0     H26658   2.342  11.573   4.797  2.8174 -0.7343 -1.1508
  202MOL0     H26659   2.315  11.744   4.838  1.5025 -0.6897  0.5156
  202MOL0     H26660   2.405  11.620   5.033  1.5099 -1.5348  0.5229
  202MOL0     H26661   2.548  11.570   4.943  1.9933  1.9876  3.1155
  202MOL0     H26662   2.661  11.961   5.031  0.7769  0.4141 -1.3167
  202MOL0     H26663   2.820  11.501   4.649 -0.7453  0.6890 -0.5796
  202MOL0     H26664   2.972  11.299   4.626 -0.3740  0.3744 -0.9709
  203MOL0     O26665   1.468   9.552   9.287 -0.4552  0.2525 -0.4430
  203MOL0     C26666   1.543   9.600   9.376 -0.1831 -0.3291 -0.0753
  203MOL0     O26667   1.499   9.637   9.496  0.6734  0.2179 -0.0846
  203MOL0     C26668   1.369   9.621   9.542 -0.0423  0.2489  0.4810
  203MOL0     C26669   1.325   9.727   9.612  1.1438  0.7798  0.1221
  203MOL0     C26670   1.190   9.728   9.667 -1.1398 -0.3212  0.8488
  203MOL0     C26671   1.109   9.614   9.649 -0.6622  0.1293 -0.3313
  203MOL0     O26672   0.987   9.597   9.704 -0.1382  0.3670  0.6004
  203MOL0     C26673   0.954   9.688   9.809 -0.6337  0.0829  0.8547
  203MOL0     C26674   0.862   9.802   9.777  0.1206  0.7650  0.1600
  203MOL0     C26675   0.724   9.765   9.720  0.7300 -0.2922 -0.1705
  203MOL0     C26676   0.732   9.705   9.581  0.7496  0.1692 -0.0650
  203MOL0     C26677   0.606   9.692   9.509 -0.1196 -0.5735  0.3953
  203MOL0     C26678   0.511   9.597   9.588  0.6094 -0.6150  0.7852
  203MOL0     C26679   0.397   9.563   9.485 -0.5683 -0.2526 -0.1797
  203MOL0     C26680   0.424   9.467   9.369 -0.7055  0.1474  0.3761
  203MOL0     N26681   0.313   9.457   9.268 -0.1817 -0.0892  0.4304
  203MOL0     C26682   0.200   9.395   9.281  1.2524 -0.2403  0.0906
  203MOL0     C26683   0.125   9.422   9.173  0.6765  0.4799 -0.0807
  203MOL0     C26684  -0.022   9.383   9.155 -0.1302  0.3916 -0.0925
  203MOL0     C26685  -0.036   9.242   9.090  0.5700  0.3353 -0.3503
  203MOL0     C26686  -0.023   9.253   8.933  0.4925 -0.1248 -0.5241
  203MOL0     C26687  -0.160   9.297   8.862  0.5872  1.0493 -0.3905
  203MOL0     O26688  -0.271   9.215   8.916  0.2195  0.0788 -0.4076
  203MOL0     C26689  -0.397   9.247   8.872  0.3774 -1.1814  0.4523
  203MOL0     C26690  -0.503   9.177   8.922  0.1176 -0.1334  0.3804
  203MOL0     C26691  -0.631   9.218   8.883 -0.3833 -0.4453  0.0517
  203MOL0     C26692  -0.672   9.310   8.786  0.4156  0.0154  0.9556
  203MOL0     C26693  -0.809   9.325   8.737  0.0725 -0.0572  0.0555
  203MOL0     O26694  -0.823   9.395   8.618 -0.4038  0.3169  1.1566
  203MOL0     C26695  -0.951   9.426   8.575 -0.5699 -0.8119 -0.2350
  203MOL0     C26696  -1.042   9.497   8.655  0.5483 -1.2340 -0.1376
  203MOL0     C26697  -1.177   9.519   8.613 -0.3670 -1.0377  0.1776
  203MOL0     C26698  -1.220   9.458   8.490 -0.0422  0.6479  0.3508
  203MOL0     O26699  -1.348   9.469   8.442  0.0980 -0.0569  0.3046
  203MOL0     C26700  -1.457   9.493   8.533  1.0561 -0.6172  0.1515
  203MOL0     C26701  -1.595   9.508   8.467  0.0938 -0.3856 -0.3104
  203MOL0     C26702  -1.707   9.540   8.574  0.2336 -0.5859 -0.2300
  203MOL0     C26703  -1.735   9.437   8.678  1.0419  0.4884  0.6007
  203MOL0     C26704  -1.869   9.465   8.755 -0.9814 -0.1220 -0.2128
  203MOL0     C26705  -1.906   9.609   8.775 -0.2709 -0.0929  0.3325
  203MOL0     C26706  -2.015   9.628   8.883 -0.1221 -0.1048 -0.9312
  203MOL0     C26707  -2.140   9.535   8.873 -0.6906 -0.2406 -1.1297
  203MOL0    Cl26708  -2.279   9.593   8.959  0.2467 -0.2120 -0.0065
  203MOL0     C26709  -1.125   9.398   8.404 -0.6641 -0.4129 -0.6949
  203MOL0     C26710  -0.991   9.391   8.448  0.6849 -0.1792  0.3218
  203MOL0     O26711  -0.904   9.283   8.807 -0.5368  0.5751  0.3083
  203MOL0     C26712  -0.563   9.380   8.727 -0.3648  0.3051 -0.2283
  203MOL0     C26713  -0.433   9.353   8.778 -0.4451 -0.2667 -0.0461
  203MOL0     N26714   0.199   9.500   9.092 -0.1651  0.4838  0.8468
  203MOL0     N26715   0.316   9.523   9.143 -0.7418  0.8799 -0.4274
  203MOL0     C26716   1.164   9.502   9.581 -0.0126 -0.2653  0.1236
  203MOL0     C26717   1.293   9.506   9.522 -0.6477  0.0650 -0.3390
  203MOL0     C26718   1.687   9.613   9.365 -0.1809 -0.8281 -0.5920
  203MOL0     C26719   1.770   9.647   9.473 -0.4195 -0.5475 -0.1537
  203MOL0     C26720   1.904   9.676   9.454  0.8488  0.1994 -0.8821
  203MOL0     C26721   1.959   9.667   9.330 -0.0944 -0.0823  0.2585
  203MOL0     O26722   2.091   9.710   9.322  1.0006 -0.0851  0.5738
  203MOL0     C26723   2.153   9.672   9.198  0.6379  0.2200  0.5417
  203MOL0     C26724   2.121   9.772   9.083 -0.2688  0.3104 -0.1505
  203MOL0     C26725   2.223   9.787   8.965  0.2603  0.6140  0.9872
  203MOL0     C26726   2.354   9.858   8.994 -0.3568  0.4547 -0.3719
  203MOL0     C26727   2.475   9.772   8.993  0.4679  1.0229 -0.4654
  203MOL0     C26728   2.557   9.683   8.997  0.2988 -0.7446  0.1680
  203MOL0     C26729   1.885   9.610   9.232  0.4917  1.0941 -0.2451
  203MOL0     C26730   1.741   9.592   9.244  0.3502 -0.6932  0.0715
  203MOL0     H26731   1.383   9.815   9.639 -1.1114  3.0080 -1.7572
  203MOL0     H26732   1.145   9.820   9.703  0.0940  0.3873  0.6542
  203MOL0     H26733   1.043   9.722   9.864 -0.4417 -0.4615  0.8848
  203MOL0     H26734   0.892   9.624   9.873  0.2221 -1.0835  0.5553
  203MOL0     H26735   0.920   9.861   9.705 -1.1240  2.0357  0.1591
  203MOL0     H26736   0.859   9.863   9.867 -3.0346  1.0399 -0.0426
  203MOL0     H26737   0.674   9.863   9.721 -0.0344 -0.6045  2.6149
  203MOL0     H26738   0.672   9.698   9.789  1.4906  1.2222  1.9831
  203MOL0     H26739   0.788   9.771   9.513 -1.8945  0.8634 -1.7570
  203MOL0     H26740   0.786   9.611   9.566 -0.0177 -0.4678  1.0659
  203MOL0     H26741   0.617   9.664   9.404 -0.4354  1.5962 -0.2616
  203MOL0     H26742   0.557   9.790   9.512 -2.3683 -1.6205  0.2157
  203MOL0     H26743   0.481   9.645   9.682 -1.6894  0.9092 -0.6030
  203MOL0     H26744   0.560   9.503   9.615  3.2800  0.5298  0.1972
  203MOL0     H26745   0.309   9.529   9.541 -0.8063 -2.0450 -1.5171
  203MOL0     H26746   0.370   9.663   9.449  0.8392  0.4433  0.6435
  203MOL0     H26747   0.441   9.365   9.405 -1.2533 -1.1422 -2.6624
  203MOL0     H26748   0.511   9.507   9.316 -0.9759  2.3666  1.4893
  203MOL0     H26749   0.174   9.342   9.372 -3.8680  0.1758 -0.8701
  203MOL0     H26750  -0.074   9.455   9.091  1.1876  1.3271 -0.1490
  203MOL0     H26751  -0.060   9.378   9.258  4.1778 -0.2622  1.6675
  203MOL0     H26752  -0.129   9.185   9.104  1.0053 -1.4634 -3.7676
  203MOL0     H26753   0.040   9.175   9.130 -0.2988 -1.9537 -2.3100
  203MOL0     H26754   0.061   9.318   8.907  3.0378 -2.5826  0.8887
  203MOL0     H26755   0.019   9.156   8.902 -0.0049 -1.2598  2.0226
  203MOL0     H26756  -0.153   9.285   8.754 -0.5682 -0.1130 -0.3619
  203MOL0     H26757  -0.179   9.403   8.880  0.3060  0.7705  1.1255
  203MOL0     H26758  -0.475   9.108   9.001 -0.9222 -0.8945  0.1078
  203MOL0     H26759  -0.711   9.154   8.920 -1.0338  0.4428  0.2278
  203MOL0     H26760  -1.011   9.528   8.754  1.8211  1.5234 -1.2957
  203MOL0     H26761  -1.245   9.590   8.659  0.2065  2.2574 -3.4837
  203MOL0     H26762  -1.448   9.591   8.579 -0.4194  0.2128 -1.2113
  203MOL0     H26763  -1.458   9.414   8.608  0.5066 -0.4314  0.3404
  203MOL0     H26764  -1.618   9.413   8.418 -1.4987 -0.6002  0.7912
  203MOL0     H26765  -1.599   9.574   8.379  3.3441 -2.4395 -2.2346
  203MOL0     H26766  -1.798   9.547   8.514  0.8223 -1.2884 -1.2368
  203MOL0     H26767  -1.686   9.633   8.627 -0.4089 -2.3920  3.5668
  203MOL0     H26768  -1.736   9.333   8.643 -2.4060 -0.1064  1.9875
  203MOL0     H26769  -1.656   9.445   8.753 -1.9022 -0.1107  4.0421
  203MOL0     H26770  -1.872   9.416   8.853  1.7615  2.0011  1.0705
  203MOL0     H26771  -1.955   9.423   8.702 -1.2270 -0.9012  0.7666
  203MOL0     H26772  -1.942   9.661   8.686  1.9057  0.5238 -0.2673
  203MOL0     H26773  -1.817   9.665   8.806 -0.8717  1.5313 -0.7405
  203MOL0     H26774  -1.961   9.612   8.976 -0.0300 -0.9298 -1.1167
  203MOL0     H26775  -2.041   9.735   8.881  2.3011  0.5461 -0.6818
  203MOL0     H26776  -2.115   9.432   8.901  0.0412 -0.5115 -2.6670
  203MOL0     H26777  -2.166   9.524   8.767  0.3321 -1.4021 -1.2734
  203MOL0     H26778  -1.156   9.362   8.306 -1.5897  0.8503 -0.9058
  203MOL0     H26779  -0.920   9.350   8.378 -2.1388 -1.0358 -2.2719
  203MOL0     H26780  -0.591   9.446   8.646  0.9402 -1.7433 -2.4968
  203MOL0     H26781  -0.355   9.421   8.746 -0.9209  0.2834 -0.0635
  203MOL0     H26782   1.107   9.410   9.580 -0.9650  0.3098 -1.2940
  203MOL0     H26783   1.327   9.426   9.458 -1.2470 -1.1872  0.8649
  203MOL0     H26784   1.730   9.654   9.574  2.1054 -0.0251  0.8686
  203MOL0     H26785   1.944   9.724   9.542  0.9902 -3.0612  0.9846
  203MOL0     H26786   2.132   9.570   9.163  1.2282  0.0194  0.7589
  203MOL0     H26787   2.260   9.676   9.219  0.5701  1.9386  0.7128
  203MOL0     H26788   2.021   9.757   9.042 -0.1435  0.2896 -0.4526
  203MOL0     H26789   2.120   9.867   9.138 -0.9215 -1.0846  2.4221
  203MOL0     H26790   2.181   9.825   8.871  1.9568 -2.2069 -1.0936
  203MOL0     H26791   2.251   9.686   8.935 -0.3963  0.7278 -0.0938
  203MOL0     H26792   2.372   9.936   8.919  1.8031  0.5093  0.1265
  203MOL0     H26793   2.343   9.914   9.088  2.7573 -1.6798  1.4538
  203MOL0     H26794   2.635   9.611   9.009  1.1099 -0.5436 -2.9400
  203MOL0     H26795   1.925   9.579   9.136 -1.5121  1.0681 -1.1183
  203MOL0     H26796   1.686   9.570   9.153 -0.0125 -2.4731  0.6761
  204MOL0     O26797   7.468   3.710   4.618  0.6072  0.0930  0.1036
  204MOL0     C26798   7.559   3.745   4.544 -0.0935 -0.1310 -0.0132
  204MOL0     O26799   7.564   3.721   4.409  0.4299  0.4801 -0.1022
  204MOL0     C26800   7.457   3.692   4.336  0.7487 -0.0665  0.6270
  204MOL0     C26801   7.322   3.738   4.358  0.2228  0.9784 -0.2002
  204MOL0     C26802   7.223   3.735   4.259 -0.2629  1.1402 -0.7018
  204MOL0     C26803   7.255   3.681   4.132  0.5496  0.7323  0.5863
  204MOL0     O26804   7.177   3.675   4.019  0.2549  0.6500  0.6162
  204MOL0     C26805   7.043   3.695   4.045  0.9708 -0.5076 -0.0226
  204MOL0     C26806   6.959   3.573   4.047 -0.0983 -0.4865 -0.1474
  204MOL0     C26807   7.015   3.477   4.144  1.3220  0.3151  0.2276
  204MOL0     C26808   6.945   3.344   4.149 -0.5614  0.0022 -0.1305
  204MOL0     C26809   6.921   3.268   4.283 -0.9646 -0.0491 -0.1238
  204MOL0     C26810   7.049   3.269   4.362  0.5498  0.2356  0.3557
  204MOL0     C26811   7.032   3.199   4.508  0.0705 -0.4611  0.9764
  204MOL0     C26812   6.971   3.055   4.508  0.3890 -0.6472 -0.3667
  204MOL0     N26813   6.934   3.017   4.650  0.3889  0.8019 -0.3075
  204MOL0     C26814   7.027   2.998   4.742 -0.5896 -0.1222  0.0608
  204MOL0     C26815   6.983   2.911   4.835  1.1127  0.1973 -0.8464
  204MOL0     C26816   7.046   2.872   4.966 -0.3726 -1.0729 -0.1186
  204MOL0     C26817   7.052   2.720   4.975  1.2101  1.0931  0.2349
  204MOL0     C26818   7.115   2.669   5.102 -0.4227 -0.3773 -0.7475
  204MOL0     C26819   7.122   2.519   5.123 -0.6540  0.1427 -0.3300
  204MOL0     O26820   7.166   2.467   5.253  0.0659 -0.0731  0.8529
  204MOL0     C26821   7.077   2.474   5.361 -0.6165 -0.6779  0.0631
  204MOL0     C26822   6.953   2.532   5.362 -1.0889 -0.3462  0.7737
  204MOL0     C26823   6.872   2.533   5.484 -0.3381 -0.4699 -0.0250
  204MOL0     C26824   6.917   2.471   5.602 -0.0252 -0.7982  0.1397
  204MOL0     C26825   6.836   2.469   5.721  0.3308  0.0546  0.3337
  204MOL0     O26826   6.707   2.511   5.703  0.1933  0.4920  0.0214
  204MOL0     C26827   6.626   2.534   5.815 -0.0658  0.3172  0.0896
  204MOL0     C26828   6.678   2.559   5.944 -0.1772 -0.0958  0.2717
  204MOL0     C26829   6.599   2.586   6.051  0.0956  0.0001 -0.5343
  204MOL0     C26830   6.458   2.586   6.037 -0.5528  0.2082  0.3783
  204MOL0     O26831   6.381   2.616   6.156 -0.3524 -0.3818  0.9274
  204MOL0     C26832   6.237   2.608   6.141 -0.3049 -0.4999 -0.5535
  204MOL0     C26833   6.177   2.592   6.280 -0.6342 -0.2412  0.6751
  204MOL0     C26834   6.031   2.635   6.282  0.2377  0.3998 -0.3279
  204MOL0     C26835   5.946   2.573   6.165 -0.0288  0.5061  0.0635
  204MOL0     C26836   5.797   2.604   6.195  0.3032  0.0882  0.1690
  204MOL0     C26837   5.707   2.568   6.066  0.3521  0.1034 -0.6270
  204MOL0     C26838   5.736   2.653   5.948 -0.6451 -0.2560 -0.2122
  204MOL0     C26839   5.617   2.656   5.852 -0.7722  0.7703 -0.5712
  204MOL0    Cl26840   5.493   2.763   5.919  0.0008 -0.2010  0.1219
  204MOL0     C26841   6.410   2.582   5.900 -0.3841  0.0520  0.3274
  204MOL0     C26842   6.495   2.560   5.791  0.2071  0.5973 -0.0803
  204MOL0     O26843   6.888   2.430   5.822  0.1585  0.1162  0.5752
  204MOL0     C26844   7.046   2.414   5.599  0.0209  1.4493 -0.3138
  204MOL0     C26845   7.127   2.416   5.486 -0.0896 -1.1504  0.7847
  204MOL0     N26846   6.859   2.870   4.802  0.5288  0.5881  0.7454
  204MOL0     N26847   6.835   2.934   4.690  0.2250 -0.0062  0.0701
  204MOL0     C26848   7.375   3.613   4.117 -0.1956 -0.0343  0.3929
  204MOL0     C26849   7.479   3.615   4.218  1.0782 -0.3074 -0.1733
  204MOL0     C26850   7.684   3.782   4.604  0.2396 -1.6646 -0.7990
  204MOL0     C26851   7.686   3.841   4.738 -0.4229 -0.4199 -0.2428
  204MOL0     C26852   7.806   3.904   4.785  0.0736  0.6867 -0.3273
  204MOL0     C26853   7.930   3.905   4.709  0.6205 -0.0742 -0.2337
  204MOL0     O26854   8.050   3.951   4.756  0.8098  0.1778 -0.0941
  204MOL0     C26855   8.073   3.948   4.900  0.5613  0.7664  0.3045
  204MOL0     C26856   8.160   3.831   4.950  0.4643 -0.1063  0.2386
  204MOL0     C26857   8.294   3.811   4.886 -1.2704  0.8618  0.7054
  204MOL0     C26858   8.417   3.862   4.967  0.4777 -0.0771  0.1997
  204MOL0     C26859   8.424   4.013   4.973 -0.3940 -0.7352 -0.1736
  204MOL0     C26860   8.420   4.134   4.989  0.5797 -0.4468  0.2871
  204MOL0     C26861   7.923   3.847   4.584  0.5969  0.5806  0.3186
  204MOL0     C26862   7.808   3.788   4.541  0.0074 -0.2008 -0.4089
  204MOL0     H26863   7.296   3.797   4.446  0.0452  0.5723  0.0241
  204MOL0     H26864   7.133   3.789   4.284  1.1666  3.3041  0.0932
  204MOL0     H26865   7.006   3.760   3.965 -0.3095 -1.6682 -0.4234
  204MOL0     H26866   7.015   3.751   4.134  0.3896  2.6954 -2.0449
  204MOL0     H26867   6.972   3.526   3.949 -2.6774  0.7893 -1.1989
  204MOL0     H26868   6.852   3.595   4.054 -0.5323 -2.8070  2.0141
  204MOL0     H26869   7.016   3.526   4.242  1.4665  2.1810 -0.6602
  204MOL0     H26870   7.121   3.456   4.129  1.0183 -0.9900 -0.1536
  204MOL0     H26871   6.846   3.352   4.103  0.4069 -1.8898 -2.7931
  204MOL0     H26872   7.001   3.285   4.077 -1.8672  1.6490 -2.6443
  204MOL0     H26873   6.888   3.165   4.266  1.2499 -0.7126 -0.7021
  204MOL0     H26874   6.839   3.316   4.337 -0.4965  0.8793 -0.2299
  204MOL0     H26875   7.078   3.371   4.388 -0.1473 -0.1363  2.8186
  204MOL0     H26876   7.125   3.218   4.302  2.6005 -0.8749  3.6127
  204MOL0     H26877   7.130   3.199   4.555 -0.7898  1.0948  2.9020
  204MOL0     H26878   6.970   3.263   4.572  0.9571  2.6601 -1.0729
  204MOL0     H26879   7.035   2.987   4.451  1.8719  1.6800 -1.6090
  204MOL0     H26880   6.869   3.056   4.468 -0.6729 -1.3692  2.0974
  204MOL0     H26881   7.119   3.054   4.754 -1.7331  1.9525 -0.2635
  204MOL0     H26882   6.986   2.902   5.052 -1.2481  0.5605 -1.2286
  204MOL0     H26883   7.145   2.917   4.968 -1.1945  0.9003 -1.0278
  204MOL0     H26884   7.102   2.674   4.889 -2.8465 -4.9412  0.5183
  204MOL0     H26885   6.952   2.676   4.973  0.8776  1.8211 -2.1648
  204MOL0     H26886   7.221   2.696   5.103 -0.6721  0.6739  1.3868
  204MOL0     H26887   7.075   2.711   5.194  0.7015  2.5738 -1.4863
  204MOL0     H26888   7.201   2.488   5.055 -2.3421 -1.8106 -1.5127
  204MOL0     H26889   7.025   2.473   5.100 -1.9926  2.5930  0.0181
  204MOL0     H26890   6.920   2.572   5.267 -2.1227 -0.9491  0.8719
  204MOL0     H26891   6.782   2.593   5.492 -0.2697 -0.6699  4.0902
  204MOL0     H26892   6.782   2.571   5.971 -0.1493  0.3630 -0.0181
  204MOL0     H26893   6.636   2.602   6.152 -1.2147  1.2837 -0.2301
  204MOL0     H26894   6.195   2.536   6.071 -1.3633  0.1011 -0.5549
  204MOL0     H26895   6.211   2.709   6.109  2.0420  0.5493  0.5829
  204MOL0     H26896   6.231   2.657   6.350 -1.6062  0.4060  0.8372
  204MOL0     H26897   6.188   2.487   6.310  0.8056 -1.3014 -3.0835
  204MOL0     H26898   6.022   2.744   6.282 -2.4790  0.2988  2.0108
  204MOL0     H26899   5.986   2.588   6.370 -3.0380  0.9958 -1.5313
  204MOL0     H26900   5.977   2.623   6.073  0.6473  2.6538  1.3580
  204MOL0     H26901   5.966   2.466   6.168 -0.6513  0.3936  0.4696
  204MOL0     H26902   5.793   2.708   6.229 -1.2828  0.3541 -0.7295
  204MOL0     H26903   5.760   2.545   6.279 -1.0812  0.3013 -0.2699
  204MOL0     H26904   5.601   2.587   6.084 -0.0113  3.1718 -4.5979
  204MOL0     H26905   5.721   2.461   6.048 -0.2676 -0.2491  0.8699
  204MOL0     H26906   5.756   2.755   5.983  1.9155 -0.6202 -0.4715
  204MOL0     H26907   5.823   2.610   5.898 -2.1177 -1.0156 -2.2524
  204MOL0     H26908   5.582   2.557   5.824  0.9526  0.3734 -1.5235
  204MOL0     H26909   5.658   2.707   5.764  3.3200  1.9010  1.6951
  204MOL0     H26910   6.309   2.593   5.864  0.3838  0.2659 -1.8841
  204MOL0     H26911   6.460   2.556   5.689 -1.1171 -3.6197  0.3290
  204MOL0     H26912   7.101   2.371   5.682  4.1807 -0.2498 -3.5585
  204MOL0     H26913   7.231   2.389   5.478 -0.3872 -2.0001 -0.4743
  204MOL0     H26914   7.393   3.596   4.012  1.4654  4.0817 -0.1670
  204MOL0     H26915   7.580   3.592   4.184  0.4528 -0.3815 -2.0692
  204MOL0     H26916   7.604   3.824   4.807 -1.3968  1.9292 -0.7183
  204MOL0     H26917   7.794   3.939   4.887 -2.0892  0.7848 -0.5729
  204MOL0     H26918   7.987   3.963   4.966 -1.9423 -0.1672 -2.5139
  204MOL0     H26919   8.128   4.040   4.920 -1.4346  1.5661  2.7575
  204MOL0     H26920   8.158   3.845   5.059 -2.1719 -0.6646  0.3391
  204MOL0     H26921   8.107   3.737   4.933 -0.4143  0.5860 -0.9843
  204MOL0     H26922   8.298   3.833   4.779  0.5270  5.2955  1.4383
  204MOL0     H26923   8.309   3.703   4.886 -3.2657  0.5596  1.1195
  204MOL0     H26924   8.398   3.832   5.070 -1.9834  0.9585  0.1187
  204MOL0     H26925   8.509   3.816   4.929 -0.2636 -2.0428  0.6725
  204MOL0     H26926   8.406   4.236   4.956  1.7349 -0.8912 -1.7343
  204MOL0     H26927   8.010   3.839   4.519  0.4031  2.7909 -0.2952
  204MOL0     H26928   7.800   3.747   4.441  0.8977  3.3372 -2.0971
  205MOL0     O26929   8.504   2.128   7.069 -0.0826  0.5618 -0.2501
  205MOL0     C26930   8.409   2.062   7.115 -0.9214  0.3097  0.7189
  205MOL0     O26931   8.386   2.032   7.241 -0.5330 -0.3722 -0.0594
  205MOL0     C26932   8.461   2.078   7.348  0.1476 -0.4299  0.2885
  205MOL0     C26933   8.457   1.987   7.453  0.2782  0.4515 -0.1677
  205MOL0     C26934   8.550   1.995   7.556 -0.2679  0.2153  0.1443
  205MOL0     C26935   8.630   2.109   7.572  1.3714 -0.0894  0.6468
  205MOL0     O26936   8.702   2.125   7.685 -0.1588  0.1124  0.1998
  205MOL0     C26937   8.836   2.183   7.676  0.6312 -0.0964 -0.5354
  205MOL0     C26938   8.904   2.138   7.811  0.3825 -0.1361  0.6222
  205MOL0     C26939   9.015   2.230   7.845 -0.7304 -0.1729 -0.3752
  205MOL0     C26940   9.068   2.209   7.989  1.1196 -0.3997 -0.6882
  205MOL0     C26941   9.137   2.335   8.052 -1.2270 -0.5191  0.7427
  205MOL0     C26942   9.145   2.333   8.203 -0.0925  0.1944  0.4057
  205MOL0     C26943   9.189   2.472   8.256  0.5755  0.5848  0.9702
  205MOL0     C26944   9.331   2.498   8.201  0.1367 -0.5405  0.3668
  205MOL0     N26945   9.385   2.602   8.287  0.3896  0.1962 -0.0938
  205MOL0     C26946   9.441   2.584   8.409  1.7256 -0.6128  0.3980
  205MOL0     C26947   9.473   2.708   8.442 -0.9004 -0.5604 -0.0570
  205MOL0     C26948   9.539   2.763   8.569  0.4682  0.5606  0.4861
  205MOL0     C26949   9.443   2.806   8.671  0.7204  0.7978  0.4932
  205MOL0     C26950   9.510   2.849   8.799  0.4914 -0.5955 -0.4087
  205MOL0     C26951   9.396   2.917   8.878  0.5343  0.6595 -0.0236
  205MOL0     O26952   9.412   2.922   9.019 -0.4376  0.9759 -0.0411
  205MOL0     C26953   9.511   2.998   9.072 -0.2597 -0.5826  1.4221
  205MOL0     C26954   9.552   2.958   9.198  0.3839 -0.6189 -0.6479
  205MOL0     C26955   9.646   3.031   9.270 -0.6365  0.7775 -0.3449
  205MOL0     C26956   9.710   3.142   9.206 -0.4876 -0.5648  0.2908
  205MOL0     C26957   9.813   3.220   9.279 -1.0062 -0.3837 -0.7897
  205MOL0     O26958   9.819   3.202   9.422  0.3340 -1.2475 -0.1291
  205MOL0     C26959   9.922   3.265   9.490  0.1982  0.5476  0.3054
  205MOL0     C26960  10.024   3.351   9.445  0.2580 -0.2815 -0.6855
  205MOL0     C26961  10.103   3.422   9.538  0.4783  0.2024 -0.0890
  205MOL0     C26962  10.082   3.412   9.678 -0.0012 -0.5084  0.6376
  205MOL0     O26963  10.151   3.474   9.774  0.3473  0.7785 -0.3836
  205MOL0     C26964  10.294   3.498   9.757  0.2711  0.3368  1.1859
  205MOL0     C26965  10.375   3.378   9.705 -0.9927  0.4649  0.4126
  205MOL0     C26966  10.512   3.417   9.667 -0.2237  0.3118  0.6656
  205MOL0     C26967  10.540   3.525   9.566 -0.3520  0.7220 -0.2243
  205MOL0     C26968  10.689   3.537   9.527 -0.1726 -0.4367 -0.3954
  205MOL0     C26969  10.783   3.562   9.651 -0.0187 -0.4961 -0.3280
  205MOL0     C26970  10.924   3.599   9.604 -1.0282 -0.7329  0.3880
  205MOL0     C26971  11.034   3.572   9.702  0.5062  0.6412 -1.2380
  205MOL0    Cl26972  10.979   3.679   9.838 -0.0271 -0.1265  0.2593
  205MOL0     C26973   9.972   3.332   9.719  0.9189  0.5251 -0.2146
  205MOL0     C26974   9.894   3.257   9.627 -0.2673 -0.1495 -0.5136
  205MOL0     O26975   9.888   3.291   9.216  0.0180 -0.2755 -0.6158
  205MOL0     C26976   9.681   3.177   9.074 -1.1771 -0.8248  1.1584
  205MOL0     C26977   9.582   3.107   9.007  0.3289  0.6888  0.2213
  205MOL0     N26978   9.437   2.792   8.337  0.4965  0.2435 -0.0549
  205MOL0     N26979   9.388   2.727   8.241  0.2380  1.2031 -0.4016
  205MOL0     C26980   8.630   2.210   7.468 -0.0888  0.8854  0.6361
  205MOL0     C26981   8.547   2.197   7.360  0.7275 -0.2844 -0.2865
  205MOL0     C26982   8.335   2.000   6.999 -0.2808  0.3053  0.4187
  205MOL0     C26983   8.360   2.037   6.867  0.4468 -0.0334  0.3367
  205MOL0     C26984   8.285   1.993   6.757 -0.5795  0.2894  0.8573
  205MOL0     C26985   8.198   1.881   6.773  0.3714  0.8168  0.1400
  205MOL0     O26986   8.148   1.798   6.673  0.7270  0.6992 -0.5533
  205MOL0     C26987   8.144   1.839   6.537 -0.3847 -0.6941  0.1391
  205MOL0     C26988   8.060   1.961   6.503  0.0713  0.3881 -0.7458
  205MOL0     C26989   7.914   1.931   6.506  0.0675 -0.2162 -0.1582
  205MOL0     C26990   7.883   1.825   6.402  0.0989  0.0269 -0.0783
  205MOL0     C26991   7.735   1.808   6.384 -0.7626  0.0812  0.1527
  205MOL0     C26992   7.612   1.796   6.371  0.3642 -0.3417 -0.2994
  205MOL0     C26993   8.167   1.848   6.911  0.1683 -0.7352  0.0981
  205MOL0     C26994   8.240   1.897   7.015 -1.0147  0.1048  0.2404
  205MOL0     H26995   8.390   1.902   7.448 -2.1193  2.3515 -4.0754
  205MOL0     H26996   8.560   1.930   7.642  4.0037  0.4162  0.0117
  205MOL0     H26997   8.824   2.291   7.659  0.6773 -0.2352 -1.4798
  205MOL0     H26998   8.895   2.146   7.592 -1.7656 -0.6068 -2.0959
  205MOL0     H26999   8.928   2.033   7.797 -0.1683 -0.1341 -0.4529
  205MOL0     H27000   8.834   2.154   7.893  2.4456 -0.4003  2.5233
  205MOL0     H27001   8.980   2.333   7.829 -4.1985 -1.2135 -0.3003
  205MOL0     H27002   9.097   2.210   7.776  1.0844 -1.9356  2.1278
  205MOL0     H27003   8.987   2.186   8.059  2.4578 -2.3554  0.3140
  205MOL0     H27004   9.138   2.125   7.983  0.0269 -1.4086  0.1793
  205MOL0     H27005   9.081   2.423   8.019  0.5894  0.1079 -0.9247
  205MOL0     H27006   9.234   2.348   8.003 -0.0654 -2.4208  2.3621
  205MOL0     H27007   9.212   2.254   8.238 -2.9329 -2.9894 -0.7303
  205MOL0     H27008   9.047   2.306   8.244 -0.7650  0.6136 -0.8705
  205MOL0     H27009   9.112   2.548   8.239 -3.0123 -2.9335 -0.0761
  205MOL0     H27010   9.186   2.470   8.366  0.9732  1.6073  1.0165
  205MOL0     H27011   9.332   2.527   8.096  2.2773  0.3730  0.5887
  205MOL0     H27012   9.401   2.415   8.214  2.2798  1.0170 -0.6576
  205MOL0     H27013   9.437   2.492   8.467 -4.7749 -0.9832  0.0675
  205MOL0     H27014   9.608   2.842   8.537 -3.0651  3.3753 -0.7819
  205MOL0     H27015   9.602   2.683   8.610 -1.5317 -0.3324  1.9660
  205MOL0     H27016   9.374   2.726   8.697  0.8752  0.9429  1.3804
  205MOL0     H27017   9.378   2.882   8.626 -2.5422 -0.8752  2.0646
  205MOL0     H27018   9.535   2.761   8.860  3.6606 -0.1090 -0.8056
  205MOL0     H27019   9.597   2.913   8.782 -0.7266  0.8724 -1.3578
  205MOL0     H27020   9.299   2.868   8.864  1.6288 -0.9949 -2.5195
  205MOL0     H27021   9.387   3.019   8.840 -2.2534  0.9682  1.1953
  205MOL0     H27022   9.500   2.872   9.240 -1.0132 -0.7177 -2.4460
  205MOL0     H27023   9.683   2.999   9.367  0.5864 -2.0792 -1.6612
  205MOL0     H27024  10.058   3.371   9.344  1.3072 -0.2499 -0.3368
  205MOL0     H27025  10.178   3.486   9.493  1.8739 -0.6374  0.9577
  205MOL0     H27026  10.342   3.536   9.847  1.9870 -0.3309  0.5885
  205MOL0     H27027  10.300   3.584   9.689  2.7202 -0.9743 -0.4089
  205MOL0     H27028  10.327   3.337   9.616  0.9087  0.3581 -0.6101
  205MOL0     H27029  10.377   3.302   9.784  0.9511  1.6871  1.6283
  205MOL0     H27030  10.566   3.328   9.632 -1.3149  0.3614 -1.3287
  205MOL0     H27031  10.564   3.444   9.759 -0.4769  0.3126  0.8104
  205MOL0     H27032  10.471   3.501   9.486 -0.0368 -1.7280  0.1676
  205MOL0     H27033  10.512   3.620   9.612  2.5901  0.2564  2.9869
  205MOL0     H27034  10.702   3.605   9.442 -0.9422 -0.6351 -0.6773
  205MOL0     H27035  10.716   3.438   9.489 -0.7083 -0.9278  0.4682
  205MOL0     H27036  10.807   3.477   9.715  0.9835  0.1599  0.1948
  205MOL0     H27037  10.736   3.644   9.707  1.5380 -1.5797  2.7982
  205MOL0     H27038  10.955   3.544   9.515  0.6428  0.0844  0.4264
  205MOL0     H27039  10.925   3.705   9.576 -1.3853 -0.6624  0.6251
  205MOL0     H27040  11.133   3.603   9.665  1.9186  0.2340  1.9031
  205MOL0     H27041  11.041   3.468   9.733  0.7852 -0.1187 -3.6163
  205MOL0     H27042   9.962   3.322   9.827 -0.5793 -0.3651 -0.4081
  205MOL0     H27043   9.812   3.198   9.667 -0.6035  0.1664 -0.7318
  205MOL0     H27044   9.745   3.255   9.034 -0.2217 -1.1374  2.0223
  205MOL0     H27045   9.557   3.141   8.907 -1.2832  2.0272  1.0182
  205MOL0     H27046   8.687   2.302   7.464  0.6209  0.4173 -1.4856
  205MOL0     H27047   8.549   2.272   7.281 -0.4013 -1.2078 -1.2406
  205MOL0     H27048   8.444   2.102   6.842  0.0634  1.1540  2.0234
  205MOL0     H27049   8.317   2.027   6.658  1.2788 -0.5525  1.1138
  205MOL0     H27050   8.129   1.754   6.469 -0.4177  1.5165 -2.7851
  205MOL0     H27051   8.246   1.871   6.514 -0.0562 -1.8372 -0.0586
  205MOL0     H27052   8.072   2.034   6.584 -0.8260 -2.0645  1.7884
  205MOL0     H27053   8.088   2.000   6.405 -0.0828 -1.5635 -1.6063
  205MOL0     H27054   7.853   2.021   6.494  0.1384 -0.1888 -0.3091
  205MOL0     H27055   7.888   1.900   6.608 -0.2093  2.6563  0.7130
  205MOL0     H27056   7.919   1.863   6.306  4.5040 -3.7510 -0.2679
  205MOL0     H27057   7.933   1.732   6.428  0.3123  0.6250  1.8013
  205MOL0     H27058   7.506   1.804   6.356  0.1022  4.2246  2.2311
  205MOL0     H27059   8.104   1.763   6.934  2.1576 -3.3605 -3.1384
  205MOL0     H27060   8.224   1.862   7.116 -3.5252 -1.0330 -0.4808
  206MOL0     O27061   6.888   1.204   0.647 -0.1546 -0.1369 -0.6476
  206MOL0     C27062   6.979   1.277   0.610  0.4419  0.6092 -0.3130
  206MOL0     O27063   6.963   1.389   0.544 -0.5558 -0.4705 -0.3080
  206MOL0     C27064   6.838   1.439   0.513 -0.2230  0.8671 -0.1594
  206MOL0     C27065   6.761   1.392   0.407  0.2806  0.0333  0.0862
  206MOL0     C27066   6.626   1.435   0.388 -0.0344  0.0807 -0.1711
  206MOL0     C27067   6.564   1.530   0.474 -0.6171 -0.0765  0.7033
  206MOL0     O27068   6.439   1.575   0.475  0.8374 -0.2082  0.7803
  206MOL0     C27069   6.339   1.540   0.373  0.1391  0.4249  0.0340
  206MOL0     C27070   6.234   1.433   0.417 -0.5644 -0.7128  0.0429
  206MOL0     C27071   6.152   1.492   0.529  0.1223 -0.7690 -0.2628
  206MOL0     C27072   6.043   1.398   0.575  1.3805  0.1065 -0.0589
  206MOL0     C27073   5.993   1.439   0.719 -0.1288 -0.1213  0.9965
  206MOL0     C27074   5.890   1.348   0.776 -0.1587 -0.4545 -0.6149
  206MOL0     C27075   5.831   1.409   0.906  0.4145 -0.0056  0.3175
  206MOL0     C27076   5.713   1.326   0.956  0.2982 -0.0028 -0.0488
  206MOL0     N27077   5.580   1.340   0.892 -0.1843 -0.0280  0.4619
  206MOL0     C27078   5.464   1.315   0.957  0.0319 -0.0436  1.5013
  206MOL0     C27079   5.371   1.327   0.854  0.5842 -0.3338  0.3964
  206MOL0     C27080   5.226   1.310   0.861 -0.0570  0.1134  0.8956
  206MOL0     C27081   5.139   1.425   0.924 -0.9898 -0.8045  0.3098
  206MOL0     C27082   5.117   1.408   1.065  0.1221  0.3387  0.1557
  206MOL0     C27083   4.992   1.479   1.116 -0.0300  0.7106 -0.1116
  206MOL0     O27084   5.018   1.618   1.089  0.3789  0.7929 -0.4128
  206MOL0     C27085   4.910   1.695   1.065  0.1563 -0.5405 -0.2243
  206MOL0     C27086   4.784   1.690   1.128  0.0082  0.0133 -0.3117
  206MOL0     C27087   4.684   1.786   1.105 -0.5482  0.3582 -0.1380
  206MOL0     C27088   4.705   1.889   1.005 -0.2327 -0.4165  0.8531
  206MOL0     C27089   4.589   1.978   0.981  1.1774 -0.5286 -0.2185
  206MOL0     O27090   4.487   1.993   1.077 -0.1009  0.0994 -0.6815
  206MOL0     C27091   4.410   2.115   1.063  0.1231 -0.3876 -0.1449
  206MOL0     C27092   4.304   2.118   0.973 -0.1755 -0.9783 -0.2612
  206MOL0     C27093   4.219   2.231   0.969 -0.0570  0.0369  0.0736
  206MOL0     C27094   4.247   2.342   1.050 -0.2352 -0.6725 -0.6389
  206MOL0     O27095   4.155   2.439   1.059  0.0685  0.0096 -0.0192
  206MOL0     C27096   4.065   2.428   1.170  0.2564  0.1316 -0.5673
  206MOL0     C27097   3.953   2.321   1.144  0.5037  0.1671 -0.2714
  206MOL0     C27098   3.844   2.342   1.253 -0.2139  0.1590  0.6419
  206MOL0     C27099   3.766   2.209   1.283  0.1985 -1.0617  0.4476
  206MOL0     C27100   3.632   2.236   1.362 -0.4459 -0.1230 -0.3239
  206MOL0     C27101   3.557   2.122   1.420 -0.1385  0.7723  0.7383
  206MOL0     C27102   3.486   2.039   1.308 -0.2782  0.1408  0.7406
  206MOL0     C27103   3.356   2.105   1.263 -0.6693 -0.0415 -0.7861
  206MOL0    Cl27104   3.387   2.219   1.136  0.1784 -0.5040  0.3393
  206MOL0     C27105   4.341   2.333   1.151  0.1752  0.0929  0.1292
  206MOL0     C27106   4.430   2.231   1.147 -0.3300  0.8722 -0.5125
  206MOL0     O27107   4.603   2.049   0.881  0.7688 -0.2959  0.3821
  206MOL0     C27108   4.822   1.886   0.929 -0.4975  0.5367 -0.5742
  206MOL0     C27109   4.937   1.796   0.968  0.1717  0.1434 -0.0969
  206MOL0     N27110   5.441   1.356   0.735 -0.0803  0.7089  0.0908
  206MOL0     N27111   5.564   1.349   0.763 -0.5508  0.1401  0.2532
  206MOL0     C27112   6.637   1.568   0.586 -0.1869  0.0484 -0.8682
  206MOL0     C27113   6.774   1.527   0.600  0.5540  0.2777 -0.3250
  206MOL0     C27114   7.106   1.214   0.613 -0.3417  0.1493 -0.3672
  206MOL0     C27115   7.216   1.264   0.542  0.3856  1.1793  0.8493
  206MOL0     C27116   7.345   1.216   0.561  0.6882  0.1599  0.3637
  206MOL0     C27117   7.372   1.110   0.644 -0.5051 -0.3795  0.8443
  206MOL0     O27118   7.491   1.062   0.688 -0.7183 -0.4556 -0.5509
  206MOL0     C27119   7.609   1.105   0.622 -0.4450  0.3331 -0.2334
  206MOL0     C27120   7.615   1.051   0.480  0.1708  0.4298  0.1317
  206MOL0     C27121   7.742   1.080   0.412 -0.2850 -1.0719  0.1077
  206MOL0     C27122   7.822   1.207   0.438  0.0500  0.1316  0.0178
  206MOL0     C27123   7.742   1.329   0.390 -1.1444  0.0565 -1.0014
  206MOL0     C27124   7.680   1.430   0.347  0.3009  0.2025  0.0459
  206MOL0     C27125   7.264   1.049   0.703 -0.6403 -0.3957  0.8804
  206MOL0     C27126   7.136   1.097   0.695  0.0904 -0.1284 -0.5562
  206MOL0     H27127   6.807   1.318   0.343  0.1073  0.3751 -0.4423
  206MOL0     H27128   6.567   1.389   0.310 -1.4043 -0.8998  1.3868
  206MOL0     H27129   6.378   1.508   0.276  0.5602  1.4619 -0.1509
  206MOL0     H27130   6.292   1.634   0.344  1.5099  0.7847 -1.1384
  206MOL0     H27131   6.291   1.353   0.465 -0.2827  0.4085  1.6594
  206MOL0     H27132   6.172   1.391   0.338 -0.4867  3.3989 -2.5036
  206MOL0     H27133   6.102   1.585   0.500  4.0187  1.6814  0.1518
  206MOL0     H27134   6.210   1.531   0.613 -0.1517  2.7077 -1.5408
  206MOL0     H27135   5.963   1.390   0.501  0.5194 -1.9901  1.0045
  206MOL0     H27136   6.081   1.295   0.570 -0.0790 -0.4060 -3.0827
  206MOL0     H27137   5.938   1.532   0.702 -0.3019 -0.3023  0.5318
  206MOL0     H27138   6.076   1.447   0.790 -0.4668  0.1785  1.3597
  206MOL0     H27139   5.923   1.245   0.794 -0.8344 -0.6209 -0.3182
  206MOL0     H27140   5.815   1.339   0.697  0.4357  3.3622 -1.8091
  206MOL0     H27141   5.908   1.424   0.982  3.0945  1.5751 -2.4414
  206MOL0     H27142   5.789   1.508   0.885 -0.7312 -0.4874  0.3032
  206MOL0     H27143   5.698   1.370   1.055 -1.1520 -2.6243  1.0169
  206MOL0     H27144   5.738   1.222   0.979  1.3280 -0.0602 -1.3506
  206MOL0     H27145   5.451   1.287   1.061  2.7494  0.6188  2.0831
  206MOL0     H27146   5.210   1.222   0.924  0.3889  0.8518  2.0727
  206MOL0     H27147   5.207   1.291   0.755  0.6906 -0.3862  0.8360
  206MOL0     H27148   5.042   1.429   0.872 -1.5157  0.5683  1.3208
  206MOL0     H27149   5.176   1.527   0.907 -1.8298 -0.0685  2.4501
  206MOL0     H27150   5.083   1.306   1.087 -2.5628  1.0581 -0.3021
  206MOL0     H27151   5.203   1.432   1.128  2.0592 -4.0090 -0.4556
  206MOL0     H27152   4.974   1.467   1.224 -0.7703 -0.9440 -0.3957
  206MOL0     H27153   4.904   1.443   1.064  0.2473  0.8310 -0.6664
  206MOL0     H27154   4.767   1.630   1.217 -0.7528  0.1888 -0.3380
  206MOL0     H27155   4.603   1.787   1.178  2.4571 -1.3884  3.5828
  206MOL0     H27156   4.275   2.037   0.907 -1.7724 -0.7085  0.0750
  206MOL0     H27157   4.134   2.244   0.903 -0.3922  1.1267  0.6941
  206MOL0     H27158   4.015   2.525   1.178  1.9718  1.0418 -0.5137
  206MOL0     H27159   4.120   2.416   1.264  2.1579  0.5654 -1.5854
  206MOL0     H27160   3.991   2.219   1.154 -0.0817 -0.0482 -0.1740
  206MOL0     H27161   3.899   2.329   1.050  0.5618  1.1595 -0.2294
  206MOL0     H27162   3.779   2.426   1.227 -1.3369 -0.3074  1.8570
  206MOL0     H27163   3.890   2.361   1.350  0.3384 -2.8605  1.0797
  206MOL0     H27164   3.738   2.151   1.195 -0.4213 -0.0589 -0.0320
  206MOL0     H27165   3.842   2.150   1.334 -0.1533  0.5505  3.0366
  206MOL0     H27166   3.574   2.302   1.297  0.1653 -0.2061 -0.9677
  206MOL0     H27167   3.647   2.304   1.446  1.2182  0.2760 -0.9096
  206MOL0     H27168   3.480   2.153   1.490 -2.8346 -0.9780 -1.2576
  206MOL0     H27169   3.632   2.065   1.476  0.1437  1.2888  0.8893
  206MOL0     H27170   3.542   2.034   1.214 -2.9678 -1.0619 -0.9188
  206MOL0     H27171   3.472   1.937   1.344 -0.6951  0.1734  0.6671
  206MOL0     H27172   3.311   2.148   1.353 -1.0293  1.1343 -1.5091
  206MOL0     H27173   3.294   2.032   1.210  2.0027 -1.0084 -2.7897
  206MOL0     H27174   4.364   2.417   1.216 -2.2316  1.7789 -1.0305
  206MOL0     H27175   4.516   2.221   1.213 -0.8736  1.9554  0.3872
  206MOL0     H27176   4.840   1.952   0.845 -0.5437  2.1968  0.6700
  206MOL0     H27177   5.035   1.799   0.923  0.2986  0.1820  0.1785
  206MOL0     H27178   6.588   1.643   0.648  0.1771 -0.3773 -0.0527
  206MOL0     H27179   6.829   1.572   0.682 -0.3314  1.6794 -0.4699
  206MOL0     H27180   7.197   1.350   0.478  0.0273 -1.8578 -3.5943
  206MOL0     H27181   7.423   1.276   0.516  1.8551 -2.1833 -0.8807
  206MOL0     H27182   7.689   1.060   0.682 -0.9624  0.0977  0.2925
  206MOL0     H27183   7.618   1.214   0.619 -1.3654  0.4285  0.1375
  206MOL0     H27184   7.603   0.943   0.490  2.7268  0.2161  1.6968
  206MOL0     H27185   7.531   1.092   0.423  0.3647  0.6267 -0.0153
  206MOL0     H27186   7.722   1.065   0.305 -2.7306  0.5033  0.2532
  206MOL0     H27187   7.817   1.002   0.430  0.7717 -0.0371  0.3146
  206MOL0     H27188   7.843   1.204   0.546 -0.0620  0.4614  0.0512
  206MOL0     H27189   7.922   1.205   0.394 -0.4573 -2.4569 -1.1980
  206MOL0     H27190   7.633   1.514   0.302  1.6935  1.7621  1.3665
  206MOL0     H27191   7.282   0.967   0.771  0.7157 -0.3867  0.5763
  206MOL0     H27192   7.064   1.045   0.758 -1.5626  2.1829 -0.4015
  207MOL0     O27193   9.495   6.480   6.323 -0.2646  0.1622  0.3259
  207MOL0     C27194   9.550   6.468   6.217 -0.4146  0.1727 -0.2931
  207MOL0     O27195   9.590   6.577   6.134 -0.2413 -0.1484 -0.0898
  207MOL0     C27196   9.529   6.699   6.152  0.5997 -0.2682  0.3900
  207MOL0     C27197   9.384   6.708   6.173  0.3495 -0.1573  0.3593
  207MOL0     C27198   9.324   6.837   6.194  0.1975 -0.7798  0.9147
  207MOL0     C27199   9.400   6.961   6.185 -0.1241 -0.2778  0.1396
  207MOL0     O27200   9.343   7.082   6.186 -0.8701 -0.6555 -0.5867
  207MOL0     C27201   9.204   7.110   6.148 -0.5668  0.2712 -0.4098
  207MOL0     C27202   9.115   7.102   6.277  0.3634  0.0181 -0.5715
  207MOL0     C27203   8.989   7.188   6.254 -0.0688  0.3569  0.4599
  207MOL0     C27204   8.902   7.124   6.138  1.0487  0.1444 -0.1726
  207MOL0     C27205   8.766   7.183   6.121  0.0393 -0.8361 -0.2536
  207MOL0     C27206   8.744   7.332   6.069 -0.1078  0.4985 -0.5334
  207MOL0     C27207   8.602   7.361   6.013 -0.4640  0.7148 -0.4061
  207MOL0     C27208   8.557   7.265   5.905  0.1689 -0.2032  0.0542
  207MOL0     N27209   8.634   7.275   5.772  1.2751  0.2876  0.2100
  207MOL0     C27210   8.746   7.210   5.749  0.0247 -0.8214 -0.4064
  207MOL0     C27211   8.776   7.258   5.625 -0.3180  0.6309 -0.2777
  207MOL0     C27212   8.888   7.217   5.538 -1.2803 -0.0671 -0.0327
  207MOL0     C27213   9.026   7.251   5.597  0.4814 -1.1539 -1.4316
  207MOL0     C27214   9.049   7.408   5.631  0.2745  0.2948 -0.3946
  207MOL0     C27215   9.178   7.434   5.706  0.2435 -0.1282  0.1666
  207MOL0     O27216   9.234   7.316   5.757 -0.8778  0.2829 -0.6664
  207MOL0     C27217   9.361   7.300   5.804 -0.8598 -0.9923 -0.5568
  207MOL0     C27218   9.398   7.168   5.833 -0.3234 -0.3814  0.1006
  207MOL0     C27219   9.526   7.136   5.874 -0.2907  0.7355  0.3531
  207MOL0     C27220   9.621   7.239   5.895  0.9153 -0.2798 -0.2980
  207MOL0     C27221   9.759   7.210   5.943  0.2552  0.3395 -0.3347
  207MOL0     O27222   9.807   7.073   5.951  0.2792  0.2469  0.3668
  207MOL0     C27223   9.940   7.056   5.986  0.1664  0.0879  0.3315
  207MOL0     C27224  10.034   7.060   5.886  0.0522 -0.1033  0.4760
  207MOL0     C27225  10.170   7.057   5.918  0.0077 -0.5159  0.6607
  207MOL0     C27226  10.218   7.023   6.039 -0.9811 -0.2948 -0.1701
  207MOL0     O27227  10.357   7.001   6.056  1.5769 -0.3207  0.7440
  207MOL0     C27228  10.391   6.911   6.159 -0.1927 -0.2013 -0.3493
  207MOL0     C27229  10.547   6.874   6.155  0.1910  0.0679  0.4208
  207MOL0     C27230  10.579   6.831   6.013 -0.6160 -0.1161 -0.3324
  207MOL0     C27231  10.726   6.788   6.022 -0.4277 -0.0777 -0.0085
  207MOL0     C27232  10.788   6.744   5.887  0.6224 -0.5663 -0.1359
  207MOL0     C27233  10.700   6.647   5.804  0.3075  0.7704  0.7646
  207MOL0     C27234  10.752   6.635   5.661  0.3459 -0.0290 -0.2980
  207MOL0     C27235  10.729   6.753   5.573  0.4065 -0.2268  0.4709
  207MOL0    Cl27236  10.783   6.713   5.408  0.3465 -0.1133  0.2446
  207MOL0     C27237  10.122   7.007   6.140  0.3482 -0.4420 -0.0905
  207MOL0     C27238   9.980   7.031   6.112 -0.5154 -0.3654 -0.5227
  207MOL0     O27239   9.832   7.309   5.967 -0.2556 -0.1596 -0.3388
  207MOL0     C27240   9.580   7.371   5.864  1.1514 -0.0014  0.3812
  207MOL0     C27241   9.450   7.400   5.828 -0.7112 -0.9608  0.5353
  207MOL0     N27242   8.675   7.339   5.575  0.1914  0.5904 -0.5704
  207MOL0     N27243   8.595   7.357   5.673 -0.1976  0.2913  0.0523
  207MOL0     C27244   9.538   6.938   6.161  1.0370 -0.0636 -0.5045
  207MOL0     C27245   9.611   6.816   6.139  0.6538 -0.7905  0.3147
  207MOL0     C27246   9.577   6.331   6.177  0.5201  0.1942  0.7004
  207MOL0     C27247   9.573   6.222   6.257  0.3152 -0.0147  0.8845
  207MOL0     C27248   9.601   6.094   6.203 -0.1470 -0.6862  0.3885
  207MOL0     C27249   9.643   6.077   6.074 -0.1858 -0.0152 -0.1963
  207MOL0     O27250   9.683   5.953   6.061  0.6815 -0.8040 -0.4757
  207MOL0     C27251   9.747   5.908   5.940  0.0559  1.3810  0.4700
  207MOL0     C27252   9.806   5.760   5.947 -0.1683 -0.6418  0.3328
  207MOL0     C27253   9.687   5.662   5.982 -0.1273 -0.2599 -0.3763
  207MOL0     C27254   9.719   5.594   6.118  0.0362 -0.1811  0.7026
  207MOL0     C27255   9.612   5.508   6.167 -0.9745  0.1759  0.2941
  207MOL0     C27256   9.514   5.450   6.215 -1.0822 -0.3508  0.4181
  207MOL0     C27257   9.664   6.191   5.992  0.3603 -0.3899  0.0400
  207MOL0     C27258   9.627   6.313   6.045  0.0871  0.6665  0.2913
  207MOL0     H27259   9.318   6.622   6.187  0.4861 -0.0573  1.7321
  207MOL0     H27260   9.217   6.849   6.200  0.1022 -0.4989 -0.8506
  207MOL0     H27261   9.172   7.048   6.063 -3.1918  0.2902  0.4737
  207MOL0     H27262   9.208   7.210   6.104  1.1074 -1.8033 -5.8009
  207MOL0     H27263   9.168   7.145   6.362  1.9416 -2.4483 -0.1944
  207MOL0     H27264   9.090   7.001   6.314 -1.5667  0.9080  0.7307
  207MOL0     H27265   9.018   7.289   6.223  1.7717 -1.4872 -4.9277
  207MOL0     H27266   8.941   7.185   6.352  2.5711  0.4556  1.8530
  207MOL0     H27267   8.948   7.141   6.040  0.6407 -0.0486 -0.3996
  207MOL0     H27268   8.894   7.016   6.150 -1.2685  0.1924 -0.7874
  207MOL0     H27269   8.714   7.171   6.216  0.4009  3.0605  0.6091
  207MOL0     H27270   8.706   7.118   6.056 -1.1819  0.0090 -0.0000
  207MOL0     H27271   8.822   7.362   5.999  0.7202 -0.2107  0.0626
  207MOL0     H27272   8.765   7.398   6.153  3.5529  3.0624 -3.1743
  207MOL0     H27273   8.529   7.354   6.094  0.0172 -0.3812 -0.0478
  207MOL0     H27274   8.601   7.457   5.960  3.7238 -1.0073 -4.2761
  207MOL0     H27275   8.452   7.289   5.891 -0.3884 -0.7075  2.8452
  207MOL0     H27276   8.555   7.160   5.936  2.8891 -0.1432  0.7033
  207MOL0     H27277   8.808   7.142   5.807  0.8756  0.0327 -0.2958
  207MOL0     H27278   8.879   7.254   5.435 -2.6088  0.2837  0.1882
  207MOL0     H27279   8.879   7.108   5.542  3.2674 -0.5568  2.9827
  207MOL0     H27280   9.100   7.219   5.523 -0.6013 -0.8896 -2.6641
  207MOL0     H27281   9.035   7.204   5.695 -2.3687 -0.1391 -0.6083
  207MOL0     H27282   9.052   7.463   5.536  1.1234  0.8977 -0.0374
  207MOL0     H27283   8.966   7.442   5.694 -2.7628 -0.9679 -3.4159
  207MOL0     H27284   9.162   7.513   5.779 -1.0224  0.1986 -0.4349
  207MOL0     H27285   9.248   7.467   5.629  0.7429 -2.0541 -0.2562
  207MOL0     H27286   9.330   7.095   5.789 -0.1178  0.6274 -2.0101
  207MOL0     H27287   9.563   7.035   5.885 -1.0959  0.7629  4.9966
  207MOL0     H27288  10.002   7.074   5.783 -0.0420 -0.7771  0.4087
  207MOL0     H27289  10.245   7.069   5.840  0.0391 -0.3289  0.7192
  207MOL0     H27290  10.341   6.814   6.157 -0.5877 -0.0129 -2.9222
  207MOL0     H27291  10.385   6.959   6.257  4.3275 -1.0205  0.5606
  207MOL0     H27292  10.570   6.786   6.215 -0.5445  0.2279  0.9535
  207MOL0     H27293  10.610   6.956   6.188  0.1263  1.5348 -2.7047
  207MOL0     H27294  10.576   6.915   5.942 -0.4679  0.5921  0.4784
  207MOL0     H27295  10.510   6.753   5.979 -0.9795 -0.3054  0.8224
  207MOL0     H27296  10.784   6.866   6.071 -0.2059  0.1526 -0.6226
  207MOL0     H27297  10.732   6.697   6.082  1.5581 -2.2680 -3.1810
  207MOL0     H27298  10.892   6.711   5.900  0.8253 -0.7856 -2.0187
  207MOL0     H27299  10.820   6.830   5.826  2.6091 -1.2303 -0.1110
  207MOL0     H27300  10.598   6.685   5.792  0.3266  0.9145  1.0379
  207MOL0     H27301  10.698   6.557   5.867 -0.4454  1.4769  1.7895
  207MOL0     H27302  10.852   6.591   5.659  1.7908  3.0849 -1.2443
  207MOL0     H27303  10.691   6.554   5.619 -2.4210  1.6829  0.1157
  207MOL0     H27304  10.780   6.842   5.612 -0.2069 -0.3301  1.5459
  207MOL0     H27305  10.625   6.786   5.565  0.1941 -1.0621 -0.2999
  207MOL0     H27306  10.142   6.967   6.239 -2.3118  0.7437  1.0280
  207MOL0     H27307   9.911   7.012   6.193  1.1588 -2.3337  0.5307
  207MOL0     H27308   9.645   7.457   5.879 -2.0440  3.0089 -1.4361
  207MOL0     H27309   9.431   7.504   5.803  1.4183  0.0006  2.5426
  207MOL0     H27310   9.584   7.036   6.151  2.1161 -0.4277  0.6405
  207MOL0     H27311   9.715   6.816   6.106  0.2199  0.4538 -1.1493
  207MOL0     H27312   9.552   6.234   6.363 -0.2429  0.5423  0.7243
  207MOL0     H27313   9.595   6.011   6.272 -1.0083 -0.2807  0.8258
  207MOL0     H27314   9.829   5.979   5.926  0.9202  0.6502  1.6073
  207MOL0     H27315   9.679   5.913   5.855  0.5957  1.8042  0.0621
  207MOL0     H27316   9.856   5.727   5.856  0.8182 -0.6837  0.8814
  207MOL0     H27317   9.888   5.755   6.018 -1.1119 -0.0223  1.5145
  207MOL0     H27318   9.673   5.585   5.906 -0.5008 -1.4927  0.8986
  207MOL0     H27319   9.599   5.727   5.993  0.0808 -0.2967  2.1986
  207MOL0     H27320   9.815   5.541   6.120  2.1339  3.0782 -1.9791
  207MOL0     H27321   9.730   5.671   6.194  2.2602 -1.8129  2.1847
  207MOL0     H27322   9.429   5.391   6.243 -0.8210 -0.3646  1.2075
  207MOL0     H27323   9.707   6.196   5.892  0.6234  1.0380  0.2023
  207MOL0     H27324   9.637   6.401   5.983 -0.3728 -0.7958 -1.9804
  208MOL0     O27325   9.591   5.946  10.861  0.3981  0.2196  0.4303
  208MOL0     C27326   9.625   6.058  10.820 -0.8672  0.8228 -0.3824
  208MOL0     O27327   9.538   6.166  10.787  0.4926 -0.7555  0.0872
  208MOL0     C27328   9.414   6.120  10.752 -0.3308  0.5504 -0.0296
  208MOL0     C27329   9.404   6.090  10.611 -0.7275  0.4734 -0.9273
  208MOL0     C27330   9.281   6.033  10.570 -1.1007 -0.2400 -0.5469
  208MOL0     C27331   9.172   6.020  10.655 -0.6425  0.3890  0.1808
  208MOL0     O27332   9.050   5.972  10.617  0.0468 -0.2980  0.2652
  208MOL0     C27333   8.976   5.883  10.697  0.7007 -0.1140 -0.3494
  208MOL0     C27334   8.872   5.811  10.612 -0.6984  0.3743  0.1297
  208MOL0     C27335   8.793   5.730  10.707  0.9629 -0.4226 -0.2956
  208MOL0     C27336   8.664   5.680  10.652  0.1040 -0.3212  0.5112
  208MOL0     C27337   8.584   5.595  10.754 -0.0319 -0.5558 -0.6613
  208MOL0     C27338   8.465   5.524  10.701 -0.0082  0.7182 -0.6508
  208MOL0     C27339   8.403   5.442  10.813  0.2506 -0.5863 -0.6105
  208MOL0     C27340   8.332   5.322  10.770  0.0206  0.4949 -0.6109
  208MOL0     N27341   8.247   5.260  10.879 -0.2339  0.0635  0.2168
  208MOL0     C27342   8.118   5.288  10.904  0.4404 -0.2327  0.1830
  208MOL0     C27343   8.065   5.187  10.979 -0.7144  0.1559 -0.2577
  208MOL0     C27344   7.928   5.156  11.034 -0.2722  0.9034  0.0127
  208MOL0     C27345   7.938   5.172  11.186  0.6194  0.2663 -0.6512
  208MOL0     C27346   7.817   5.130  11.261 -0.9702 -0.5071 -0.5911
  208MOL0     C27347   7.684   5.176  11.193  0.5798  0.2622  0.3623
  208MOL0     O27348   7.588   5.172  11.299  0.0989 -0.4932  0.0918
  208MOL0     C27349   7.464   5.232  11.286 -1.0599  0.8603  0.4002
  208MOL0     C27350   7.362   5.184  11.367  0.4412  0.8361  0.6159
  208MOL0     C27351   7.229   5.237  11.356 -0.7625 -0.3260 -0.1739
  208MOL0     C27352   7.197   5.347  11.266 -0.9006  0.0343  0.3660
  208MOL0     C27353   7.062   5.403  11.246 -0.6721 -0.0301  0.4539
  208MOL0     O27354   6.971   5.341  11.314  0.4443 -0.9694  0.1679
  208MOL0     C27355   6.835   5.374  11.315  0.1963 -0.2889 -0.6609
  208MOL0     C27356   6.790   5.457  11.419 -0.2754 -0.2932 -1.1786
  208MOL0     C27357   6.660   5.478  11.432  0.4230  0.0923  0.6862
  208MOL0     C27358   6.567   5.424  11.344  0.2006  0.0048 -0.2139
  208MOL0     O27359   6.434   5.443  11.387 -0.8711 -0.2603 -0.3221
  208MOL0     C27360   6.334   5.390  11.300 -0.1985 -0.0584 -0.1767
  208MOL0     C27361   6.197   5.415  11.352  0.6146 -0.1048  0.1226
  208MOL0     C27362   6.084   5.403  11.246 -0.4387 -0.1233 -0.1333
  208MOL0     C27363   5.943   5.406  11.311 -0.2009 -0.8384 -0.0025
  208MOL0     C27364   5.825   5.404  11.209  0.3677 -0.3207 -0.5451
  208MOL0     C27365   5.701   5.335  11.264 -0.1752  0.3062 -0.5565
  208MOL0     C27366   5.624   5.409  11.372 -0.4605  0.2573  1.5486
  208MOL0     C27367   5.565   5.547  11.341 -0.2562  0.5158  0.1501
  208MOL0    Cl27368   5.498   5.622  11.486  0.0261 -0.1399 -0.0952
  208MOL0     C27369   6.608   5.338  11.238  0.1150 -1.4047 -0.3037
  208MOL0     C27370   6.744   5.314  11.229 -0.4012 -0.0562 -1.2449
  208MOL0     O27371   7.044   5.500  11.174 -0.3232  0.1461 -0.3693
  208MOL0     C27372   7.309   5.395  11.182 -0.5238 -0.2560  1.0421
  208MOL0     C27373   7.435   5.331  11.189  0.1829  0.1431  0.1106
  208MOL0     N27374   8.169   5.094  10.995  0.9501  0.1708 -0.6895
  208MOL0     N27375   8.274   5.138  10.930 -0.3150  0.2234  0.4753
  208MOL0     C27376   9.190   6.044  10.793 -0.3545  0.7805 -0.2182
  208MOL0     C27377   9.310   6.092  10.842  0.4253  0.9653  0.3491
  208MOL0     C27378   9.766   6.099  10.849 -0.2396 -0.3659  0.0990
  208MOL0     C27379   9.805   6.234  10.824 -0.5634 -0.6182  0.4230
  208MOL0     C27380   9.936   6.271  10.860 -0.5453 -0.0418  0.4966
  208MOL0     C27381  10.030   6.178  10.908  0.0518  0.5334 -0.9693
  208MOL0     O27382  10.153   6.235  10.933 -1.2730 -0.0810 -0.7075
  208MOL0     C27383  10.276   6.162  10.917 -0.8611 -0.2274  0.0817
  208MOL0     C27384  10.372   6.267  10.867 -0.0744  0.2232  0.1691
  208MOL0     C27385  10.518   6.219  10.851  0.1009 -0.0926  0.3614
  208MOL0     C27386  10.635   6.308  10.824  0.0614  0.2385  0.2238
  208MOL0     C27387  10.751   6.228  10.804 -0.6519 -0.6859 -0.0244
  208MOL0     C27388  10.849   6.159  10.804 -0.1777  0.6883 -0.1337
  208MOL0     C27389   9.991   6.042  10.924 -0.4035 -0.5619 -0.5819
  208MOL0     C27390   9.858   6.007  10.892  0.3256  0.3985 -0.4534
  208MOL0     H27391   9.491   6.109  10.548  0.2514  0.1221  0.2870
  208MOL0     H27392   9.262   6.036  10.464 -1.5670  0.3717 -0.4568
  208MOL0     H27393   8.917   5.921  10.780 -0.9103 -1.2874 -0.9132
  208MOL0     H27394   9.030   5.805  10.752 -1.9470 -3.1895 -1.7620
  208MOL0     H27395   8.901   5.747  10.528 -3.6080 -1.6296  0.4926
  208MOL0     H27396   8.806   5.878  10.556 -0.0294  0.8739 -0.0717
  208MOL0     H27397   8.764   5.789  10.795 -1.0159  1.0816 -1.8645
  208MOL0     H27398   8.859   5.649  10.741  0.7252 -0.2289  0.6556
  208MOL0     H27399   8.594   5.760  10.629 -0.9645 -1.4294 -0.2130
  208MOL0     H27400   8.677   5.627  10.557 -1.6895  2.0218 -1.1617
  208MOL0     H27401   8.546   5.672  10.823 -1.0985  0.9098 -2.7843
  208MOL0     H27402   8.655   5.526  10.801  0.6324  1.2967  1.1843
  208MOL0     H27403   8.495   5.451  10.625 -2.3752 -0.2260 -0.7677
  208MOL0     H27404   8.400   5.599  10.656 -1.4740 -0.6781 -0.9584
  208MOL0     H27405   8.483   5.409  10.879 -0.2864 -1.7957 -0.5219
  208MOL0     H27406   8.328   5.502  10.865  1.2654 -1.1228  1.5648
  208MOL0     H27407   8.401   5.256  10.718 -0.1463 -0.5058  0.3953
  208MOL0     H27408   8.265   5.350  10.689 -1.4946 -1.0264  0.0569
  208MOL0     H27409   8.068   5.376  10.865 -2.9153 -1.4659  1.3796
  208MOL0     H27410   7.906   5.055  10.997  3.2228 -0.8222  2.1242
  208MOL0     H27411   7.864   5.230  10.986 -0.9360 -0.3618 -1.1393
  208MOL0     H27412   7.948   5.280  11.202 -3.0172  0.9773 -2.1108
  208MOL0     H27413   8.033   5.129  11.218  1.8979  1.0839 -3.0672
  208MOL0     H27414   7.823   5.023  11.282  0.5975 -0.6524 -1.5615
  208MOL0     H27415   7.829   5.171  11.361 -0.3575  0.4568 -1.0445
  208MOL0     H27416   7.642   5.099  11.128  0.5632  0.9379 -0.4433
  208MOL0     H27417   7.691   5.267  11.133 -1.6533  1.0472  1.2002
  208MOL0     H27418   7.377   5.099  11.433 -0.3104  0.3823  0.2112
  208MOL0     H27419   7.155   5.195  11.424 -0.4642 -1.1929 -0.3735
  208MOL0     H27420   6.846   5.509  11.496 -0.2287 -1.1038 -0.6540
  208MOL0     H27421   6.638   5.535  11.521  0.8869  0.2446  0.7062
  208MOL0     H27422   6.337   5.281  11.290 -1.1111 -0.4968  2.9741
  208MOL0     H27423   6.338   5.436  11.201  0.0515 -0.3832 -0.3185
  208MOL0     H27424   6.190   5.500  11.421 -2.6363 -3.0457  3.9231
  208MOL0     H27425   6.178   5.340  11.430 -3.4096 -1.6709 -2.0074
  208MOL0     H27426   6.095   5.299  11.213  1.6259 -1.0236  2.9249
  208MOL0     H27427   6.082   5.476  11.165  2.3101  1.5867  1.1940
  208MOL0     H27428   5.942   5.323  11.383 -1.3179 -1.3730 -0.6080
  208MOL0     H27429   5.942   5.502  11.362 -1.3240 -0.0538 -1.4259
  208MOL0     H27430   5.853   5.340  11.125  0.3019  1.2392 -1.8104
  208MOL0     H27431   5.803   5.506  11.176  1.6374 -0.1289 -0.8745
  208MOL0     H27432   5.726   5.235  11.302  3.6130  1.4774  0.4360
  208MOL0     H27433   5.637   5.313  11.178  0.6237 -0.0508 -1.0802
  208MOL0     H27434   5.539   5.353  11.412 -2.6225  3.4807  1.8535
  208MOL0     H27435   5.689   5.430  11.457  0.7851  0.1653  0.6435
  208MOL0     H27436   5.493   5.533  11.259 -0.7658 -2.6762  0.9959
  208MOL0     H27437   5.644   5.610  11.299 -0.3230 -0.2003 -1.0957
  208MOL0     H27438   6.546   5.276  11.174 -0.7296 -0.0611 -0.8419
  208MOL0     H27439   6.788   5.251  11.152  1.4846  3.6511 -3.5151
  208MOL0     H27440   7.287   5.457  11.096  1.0164  0.1467  0.9217
  208MOL0     H27441   7.511   5.358  11.116 -0.6726  3.2545  0.2072
  208MOL0     H27442   9.106   6.018  10.857 -1.6553 -1.9695 -2.7782
  208MOL0     H27443   9.313   6.095  10.951 -1.2375 -1.9962  0.5693
  208MOL0     H27444   9.738   6.295  10.764  1.4086  0.2597 -1.0051
  208MOL0     H27445   9.976   6.371  10.843 -0.2276 -0.1925  0.3479
  208MOL0     H27446  10.265   6.084  10.841 -0.7011 -1.1624  0.9958
  208MOL0     H27447  10.309   6.120  11.012 -3.6487 -0.8310  0.8745
  208MOL0     H27448  10.326   6.308  10.777 -0.2084  1.2799  0.6952
  208MOL0     H27449  10.366   6.344  10.945  0.6626 -0.6561  1.1333
  208MOL0     H27450  10.512   6.144  10.771 -1.7357 -0.9990  1.2867
  208MOL0     H27451  10.537   6.173  10.948 -0.8874 -0.6395  0.3146
  208MOL0     H27452  10.616   6.367  10.735  3.1498  3.1607  1.2781
  208MOL0     H27453  10.643   6.393  10.893 -1.0866  1.0110 -0.5492
  208MOL0     H27454  10.946   6.116  10.813  0.6677  2.4282 -0.4917
  208MOL0     H27455  10.062   5.977  10.973  3.1238 -0.3110 -4.7755
  208MOL0     H27456   9.828   5.903  10.901 -0.3343  0.4185 -2.0862
  209MOL0     O27457   7.748   4.226   4.115  0.2225 -0.0513 -0.9358
  209MOL0     C27458   7.745   4.247   4.234 -0.3113 -0.8905 -1.1196
  209MOL0     O27459   7.838   4.325   4.302  1.7403  0.3959  0.3316
  209MOL0     C27460   7.963   4.329   4.248 -1.0055  0.1505 -0.5670
  209MOL0     C27461   8.000   4.435   4.162 -0.0277  0.4182  0.1329
  209MOL0     C27462   8.127   4.435   4.110  0.0872 -1.1065  0.7868
  209MOL0     C27463   8.229   4.347   4.150 -0.6125  0.4820  0.1966
  209MOL0     O27464   8.343   4.349   4.075 -1.1269  0.1395 -0.0910
  209MOL0     C27465   8.455   4.262   4.115 -1.0143  1.0587  0.5251
  209MOL0     C27466   8.453   4.123   4.057  0.1631  0.4287 -0.4479
  209MOL0     C27467   8.413   4.120   3.911  0.6131  0.2336 -0.0440
  209MOL0     C27468   8.420   3.979   3.860  0.7394  0.0208 -0.1430
  209MOL0     C27469   8.415   3.972   3.707 -0.3551  0.6719 -0.4939
  209MOL0     C27470   8.482   3.846   3.646  0.1024  0.6897  0.6076
  209MOL0     C27471   8.529   3.855   3.492 -0.0152 -0.0829 -0.4263
  209MOL0     C27472   8.425   3.909   3.380 -0.0834  0.6964 -1.1738
  209MOL0     N27473   8.304   3.829   3.391 -0.2214 -0.7777  0.6408
  209MOL0     C27474   8.188   3.870   3.444 -1.0896 -0.1617 -0.3726
  209MOL0     C27475   8.108   3.768   3.427 -0.6047  0.5633 -0.2080
  209MOL0     C27476   7.967   3.763   3.477 -0.0655 -0.8370  0.4985
  209MOL0     C27477   7.931   3.647   3.574  0.4085  0.0226 -0.4271
  209MOL0     C27478   7.799   3.660   3.640  0.2062  0.3291  0.1498
  209MOL0     C27479   7.678   3.648   3.544  0.1255 -0.4320  0.6175
  209MOL0     O27480   7.562   3.654   3.621  0.2827  0.0002 -1.0786
  209MOL0     C27481   7.492   3.539   3.651  0.8206  0.4004 -0.8521
  209MOL0     C27482   7.520   3.409   3.610 -0.5709  0.1776 -1.1049
  209MOL0     C27483   7.432   3.306   3.647  0.2281  0.2806  0.2266
  209MOL0     C27484   7.312   3.336   3.723 -0.3425  0.0694 -0.1511
  209MOL0     C27485   7.223   3.223   3.777  0.6760 -0.0304  0.6071
  209MOL0     O27486   7.231   3.102   3.727 -0.0547  0.4762  0.0479
  209MOL0     C27487   7.173   2.993   3.787 -0.4618  0.4441  1.3735
  209MOL0     C27488   7.111   2.903   3.703  0.2274 -0.4952 -0.9315
  209MOL0     C27489   7.032   2.802   3.746  0.4795 -0.7303  0.2965
  209MOL0     C27490   7.017   2.783   3.890 -0.3554  0.2453  0.7771
  209MOL0     O27491   6.937   2.684   3.948  0.3574 -0.6191  0.4919
  209MOL0     C27492   6.826   2.621   3.873 -0.1915  0.4402  0.9000
  209MOL0     C27493   6.882   2.499   3.799 -0.0855  0.1926 -0.0174
  209MOL0     C27494   6.858   2.374   3.887 -0.7181  0.4395  0.3515
  209MOL0     C27495   6.908   2.245   3.818  0.0242  0.1467 -0.5503
  209MOL0     C27496   6.956   2.140   3.916  0.8810  0.0627  0.6099
  209MOL0     C27497   6.843   2.038   3.956  0.6464  0.1493  0.4982
  209MOL0     C27498   6.885   1.955   4.071  0.5737 -0.3441 -0.9924
  209MOL0     C27499   7.002   1.855   4.031  0.0213 -1.0242  0.1368
  209MOL0    Cl27500   7.034   1.761   4.176 -0.3682  0.7797 -0.1255
  209MOL0     C27501   7.085   2.865   3.976 -0.1848  0.5925 -0.0682
  209MOL0     C27502   7.165   2.972   3.928  0.1735  0.4351 -0.3204
  209MOL0     O27503   7.134   3.252   3.861  0.4697 -0.5569 -0.2373
  209MOL0     C27504   7.295   3.466   3.772  0.8467 -0.5500 -0.1494
  209MOL0     C27505   7.379   3.568   3.730  0.4790 -0.1823  0.4430
  209MOL0     N27506   8.174   3.657   3.375 -0.1208 -0.0965 -0.2027
  209MOL0     N27507   8.300   3.694   3.364 -0.2463  0.4771 -0.0973
  209MOL0     C27508   8.208   4.263   4.259 -0.5919 -0.3287 -0.2903
  209MOL0     C27509   8.073   4.254   4.312  0.0760  0.5429 -0.1787
  209MOL0     C27510   7.629   4.199   4.312  0.7730  1.1449 -0.8170
  209MOL0     C27511   7.605   4.257   4.438 -0.1598 -0.3718 -0.8208
  209MOL0     C27512   7.492   4.224   4.513  0.1486  0.3778  0.9316
  209MOL0     C27513   7.411   4.122   4.470  0.3630  1.1536 -0.4160
  209MOL0     O27514   7.311   4.065   4.542  0.0230 -0.3948 -0.2113
  209MOL0     C27515   7.282   4.121   4.680  0.3887 -0.0533  0.5734
  209MOL0     C27516   7.162   4.046   4.737 -0.8773 -0.3021 -0.1525
  209MOL0     C27517   7.181   3.891   4.765  0.7338  0.1904 -0.7497
  209MOL0     C27518   7.055   3.824   4.833  1.5169  0.0596  0.0802
  209MOL0     C27519   7.007   3.907   4.945  0.3976 -0.8569  0.2809
  209MOL0     C27520   6.973   3.988   5.030 -0.0083 -0.5081  0.2337
  209MOL0     C27521   7.426   4.068   4.342  0.5178  0.7030 -0.6416
  209MOL0     C27522   7.529   4.115   4.259 -0.3661 -0.0955  0.0051
  209MOL0     H27523   7.935   4.517   4.131  1.5954  0.6442 -3.1412
  209MOL0     H27524   8.158   4.512   4.040  1.3065 -1.9021  0.4174
  209MOL0     H27525   8.471   4.261   4.223  1.3291  3.4945  0.2976
  209MOL0     H27526   8.546   4.311   4.077 -1.3895  0.7218 -0.8851
  209MOL0     H27527   8.377   4.072   4.117 -0.0976  0.9629 -0.3164
  209MOL0     H27528   8.546   4.069   4.076 -1.9409 -2.4409  2.9070
  209MOL0     H27529   8.486   4.182   3.859  1.7043 -0.7224  0.3110
  209MOL0     H27530   8.317   4.167   3.889  1.2053  3.3309  3.1448
  209MOL0     H27531   8.516   3.934   3.887 -0.1036 -0.6815  1.8976
  209MOL0     H27532   8.348   3.906   3.899 -0.9331  1.5281 -0.3035
  209MOL0     H27533   8.469   4.057   3.664  4.2835 -1.4636  0.4090
  209MOL0     H27534   8.308   3.980   3.686 -0.3713  0.7508 -0.3848
  209MOL0     H27535   8.418   3.757   3.653  0.3430  0.3655 -0.9757
  209MOL0     H27536   8.577   3.828   3.698  0.0252 -0.3918  0.4032
  209MOL0     H27537   8.619   3.915   3.482  0.1570 -0.6565 -2.8516
  209MOL0     H27538   8.556   3.755   3.459 -0.5310  0.3706 -2.3542
  209MOL0     H27539   8.469   3.900   3.280 -1.5580  0.2133 -1.8106
  209MOL0     H27540   8.405   4.014   3.401  0.2870  0.6530 -0.5786
  209MOL0     H27541   8.175   3.962   3.500 -1.0093 -0.2013 -0.2895
  209MOL0     H27542   7.898   3.773   3.394  0.8289 -0.3370 -0.2000
  209MOL0     H27543   7.949   3.857   3.530 -1.5152 -0.5812 -0.4073
  209MOL0     H27544   8.005   3.650   3.655 -0.9177  0.0193  0.8302
  209MOL0     H27545   7.927   3.549   3.525 -1.3927 -1.1487  1.8574
  209MOL0     H27546   7.784   3.570   3.700  0.1219 -0.2879 -0.7852
  209MOL0     H27547   7.791   3.744   3.710 -0.4319  1.4203 -1.1789
  209MOL0     H27548   7.683   3.572   3.466  1.2123  1.7028 -1.5462
  209MOL0     H27549   7.682   3.744   3.491  0.3220 -0.0372  1.3328
  209MOL0     H27550   7.605   3.386   3.546 -0.8912 -0.4761 -1.3057
  209MOL0     H27551   7.445   3.203   3.614  0.0060  0.3758 -0.1589
  209MOL0     H27552   7.126   2.911   3.595  3.6827  0.1565 -0.5002
  209MOL0     H27553   6.990   2.744   3.665  0.2559  1.6702 -1.3916
  209MOL0     H27554   6.787   2.691   3.798  0.8757  0.1807  0.0607
  209MOL0     H27555   6.748   2.588   3.942 -1.8437  1.8215 -0.2052
  209MOL0     H27556   6.988   2.515   3.775  0.0069 -1.1588 -0.5913
  209MOL0     H27557   6.826   2.488   3.705  2.0025 -1.8450 -1.1502
  209MOL0     H27558   6.752   2.357   3.907 -0.8213 -1.5719 -1.4979
  209MOL0     H27559   6.904   2.396   3.984  1.0644  0.5545 -0.4738
  209MOL0     H27560   6.831   2.206   3.751 -0.4713  0.5473 -0.2246
  209MOL0     H27561   6.993   2.269   3.753 -0.3252 -0.2957 -1.1844
  209MOL0     H27562   7.010   2.191   3.997  1.3398  0.4336  0.0755
  209MOL0     H27563   7.029   2.075   3.867  0.8550 -2.4464  3.5615
  209MOL0     H27564   6.806   1.972   3.877 -0.1047 -0.4191  1.3070
  209MOL0     H27565   6.764   2.100   3.997 -0.8066 -1.3284  0.0497
  209MOL0     H27566   6.904   2.029   4.150 -1.4345  0.5766 -1.3001
  209MOL0     H27567   6.806   1.889   4.104  0.6609 -1.2818 -2.5468
  209MOL0     H27568   7.090   1.908   3.995  0.0334  0.0717  1.6629
  209MOL0     H27569   6.967   1.796   3.946  2.7559  0.8690 -2.4875
  209MOL0     H27570   7.084   2.852   4.084 -2.8423 -0.0327 -0.0970
  209MOL0     H27571   7.217   3.041   3.993 -0.9831  0.7204  0.3388
  209MOL0     H27572   7.225   3.495   3.850 -0.5821 -3.7105 -0.1020
  209MOL0     H27573   7.372   3.668   3.770  0.3088 -0.3134  0.7450
  209MOL0     H27574   8.284   4.196   4.297  1.8066  0.7918 -2.7829
  209MOL0     H27575   8.046   4.194   4.398 -2.3388  0.3151 -1.0202
  209MOL0     H27576   7.674   4.333   4.473  1.4910 -0.7403 -3.0073
  209MOL0     H27577   7.477   4.290   4.598 -0.9767  1.3289  0.0383
  209MOL0     H27578   7.257   4.227   4.669  1.3437  0.2109  0.8159
  209MOL0     H27579   7.370   4.115   4.744  0.5235  1.3849  0.5607
  209MOL0     H27580   7.142   4.097   4.832 -2.5301 -0.6418 -0.2785
  209MOL0     H27581   7.070   4.055   4.678  0.3934  0.2326 -2.1170
  209MOL0     H27582   7.255   3.872   4.844 -2.3735 -1.6227  2.0221
  209MOL0     H27583   7.205   3.837   4.674  2.5674 -0.3706  0.0309
  209MOL0     H27584   6.974   3.826   4.760  1.3613  4.0876  0.1323
  209MOL0     H27585   7.071   3.721   4.866 -0.9437 -0.5451 -0.3785
  209MOL0     H27586   6.947   4.051   5.113 -0.9275 -1.5651  0.7847
  209MOL0     H27587   7.344   4.016   4.293 -1.3725  3.1683 -0.3175
  209MOL0     H27588   7.543   4.088   4.155  3.2783  0.8563  0.1005
  210MOL0     O27589   5.964   9.941   2.913  0.5695 -0.6902  0.5182
  210MOL0     C27590   5.911   9.872   3.002 -0.3932 -0.7447  0.1914
  210MOL0     O27591   5.927   9.741   3.028  0.3026 -0.6476  0.2060
  210MOL0     C27592   5.996   9.660   2.943  0.6456 -1.2159  0.1576
  210MOL0     C27593   6.043   9.545   3.008 -0.1932  0.0624 -0.3502
  210MOL0     C27594   6.119   9.441   2.950 -0.0029  0.7196  0.1970
  210MOL0     C27595   6.141   9.456   2.809 -0.1335  0.5980 -0.1962
  210MOL0     O27596   6.198   9.362   2.726 -0.0341 -0.2911  1.1985
  210MOL0     C27597   6.306   9.282   2.778 -1.1086  0.0633 -0.1184
  210MOL0     C27598   6.445   9.340   2.767  0.0375 -0.5585  1.2173
  210MOL0     C27599   6.558   9.244   2.741  0.3009  0.6876  0.9065
  210MOL0     C27600   6.687   9.322   2.706  0.2898  0.0229  0.8324
  210MOL0     C27601   6.824   9.239   2.721 -0.2865 -0.4278 -0.4124
  210MOL0     C27602   6.886   9.224   2.868  0.1830 -0.9875 -0.0877
  210MOL0     C27603   6.936   9.364   2.903 -0.1324 -0.4244  0.5244
  210MOL0     C27604   7.024   9.378   3.031 -0.3879 -0.1610 -0.8174
  210MOL0     N27605   7.033   9.245   3.110  0.0351 -0.5283  0.4121
  210MOL0     C27606   7.141   9.157   3.093 -1.0941 -0.0029  0.5633
  210MOL0     C27607   7.113   9.064   3.184  0.2129 -0.4145 -0.4858
  210MOL0     C27608   7.211   8.951   3.208  0.2840 -0.7599  0.4339
  210MOL0     C27609   7.297   8.956   3.325  0.2467  0.1075 -0.4291
  210MOL0     C27610   7.413   8.858   3.300 -0.5433  0.1522 -0.1703
  210MOL0     C27611   7.490   8.855   3.434 -0.0586 -0.1193  0.2407
  210MOL0     O27612   7.611   8.789   3.410  0.8543  0.9017 -0.2099
  210MOL0     C27613   7.651   8.675   3.477 -0.0292 -0.1032 -0.5037
  210MOL0     C27614   7.719   8.575   3.405 -0.0337 -0.3015  0.8276
  210MOL0     C27615   7.773   8.454   3.456 -0.1025  0.0333  0.5840
  210MOL0     C27616   7.752   8.433   3.591  0.0234 -1.0087 -0.5141
  210MOL0     C27617   7.789   8.312   3.650 -0.3425  0.9735  0.7655
  210MOL0     O27618   7.810   8.210   3.566  0.4934 -0.0816  0.0450
  210MOL0     C27619   7.845   8.082   3.612 -0.2000  0.9310 -0.3474
  210MOL0     C27620   7.877   8.007   3.499 -0.4076 -0.1146 -0.4845
  210MOL0     C27621   7.946   7.894   3.509 -0.1245 -0.1101  0.7321
  210MOL0     C27622   7.948   7.832   3.635  0.2346 -0.0486  0.0456
  210MOL0     O27623   8.019   7.723   3.639 -0.3630 -0.2144 -0.0623
  210MOL0     C27624   7.955   7.602   3.607  0.4746 -0.0612 -0.3810
  210MOL0     C27625   8.057   7.481   3.596  0.2510 -0.3962 -0.3324
  210MOL0     C27626   8.187   7.511   3.524 -0.3510  0.2954 -0.2103
  210MOL0     C27627   8.270   7.386   3.508 -0.6013  0.2188 -0.5534
  210MOL0     C27628   8.394   7.417   3.408  0.8674  0.0912 -0.4437
  210MOL0     C27629   8.491   7.305   3.422 -0.6128  0.7565 -0.5397
  210MOL0     C27630   8.632   7.350   3.385 -0.1125  0.0933 -0.0597
  210MOL0     C27631   8.716   7.245   3.303 -0.4919  0.2390  0.4403
  210MOL0    Cl27632   8.890   7.299   3.278  0.0288  0.6977  0.0847
  210MOL0     C27633   7.886   7.886   3.751 -0.1583 -0.0870  0.3941
  210MOL0     C27634   7.843   8.018   3.739  0.2421 -0.3283 -1.0553
  210MOL0     O27635   7.819   8.309   3.770 -0.0280  0.0702 -0.4173
  210MOL0     C27636   7.691   8.535   3.667 -0.3568 -0.2590  0.5599
  210MOL0     C27637   7.642   8.652   3.614  1.0080  0.3013 -0.8597
  210MOL0     N27638   6.989   9.088   3.250  0.4765 -0.8377 -0.5258
  210MOL0     N27639   6.948   9.207   3.208 -0.9506  0.5429  0.6989
  210MOL0     C27640   6.094   9.571   2.739 -0.4350  1.2233 -0.0176
  210MOL0     C27641   6.029   9.673   2.807  1.5757  0.3911 -0.0672
  210MOL0     C27642   5.806   9.944   3.080 -0.4420  1.1771  0.7456
  210MOL0     C27643   5.768  10.078   3.055 -0.1358 -0.9618 -0.2948
  210MOL0     C27644   5.670  10.139   3.128 -0.5889 -0.2874 -0.4528
  210MOL0     C27645   5.607  10.075   3.241  0.0354 -0.4532  0.4572
  210MOL0     O27646   5.507  10.143   3.311  0.5645  0.2445 -0.4561
  210MOL0     C27647   5.555  10.260   3.382 -0.1667 -0.3191  0.8577
  210MOL0     C27648   5.531  10.247   3.532  0.7853  0.5457 -0.2323
  210MOL0     C27649   5.378  10.205   3.568  0.0338 -0.5965 -0.1152
  210MOL0     C27650   5.370  10.231   3.717  0.2762 -0.4649 -0.5318
  210MOL0     C27651   5.235  10.278   3.746 -0.8030 -0.1904 -0.0618
  210MOL0     C27652   5.139  10.326   3.799 -0.0316  0.2298 -0.6277
  210MOL0     C27653   5.654   9.949   3.274  0.2738  0.0938  0.5896
  210MOL0     C27654   5.747   9.880   3.192  0.3476 -0.2246  0.3156
  210MOL0     H27655   6.032   9.531   3.115 -1.0854 -2.7895 -0.7099
  210MOL0     H27656   6.140   9.351   3.008 -0.3742  0.3052 -0.3082
  210MOL0     H27657   6.312   9.198   2.708 -3.3630  2.1505 -3.0689
  210MOL0     H27658   6.291   9.252   2.882  0.5554  3.0243  1.1047
  210MOL0     H27659   6.472   9.414   2.843  1.7784  1.8417 -1.5293
  210MOL0     H27660   6.421   9.401   2.678  0.5996 -0.8837  0.8378
  210MOL0     H27661   6.531   9.178   2.657 -0.6630  1.1673  0.8305
  210MOL0     H27662   6.591   9.188   2.829 -0.4429 -0.5037  0.4637
  210MOL0     H27663   6.675   9.352   2.601  0.3687  2.6421  1.5068
  210MOL0     H27664   6.694   9.412   2.767  0.6506  1.6622 -1.5211
  210MOL0     H27665   6.900   9.278   2.652  2.7104  0.5113  3.0983
  210MOL0     H27666   6.805   9.135   2.694 -5.2083  0.1983 -0.2190
  210MOL0     H27667   6.965   9.148   2.865  1.4709  0.1954  1.5723
  210MOL0     H27668   6.812   9.208   2.947 -2.4591  2.0508 -1.7030
  210MOL0     H27669   6.992   9.412   2.822 -3.3862  1.5051 -0.7614
  210MOL0     H27670   6.848   9.428   2.917  1.2692  0.9058  4.6665
  210MOL0     H27671   6.974   9.439   3.108  1.0869 -2.5821  2.3041
  210MOL0     H27672   7.123   9.421   3.012  0.2670 -1.0669  0.4051
  210MOL0     H27673   7.229   9.156   3.029  1.0088 -5.1760  2.9526
  210MOL0     H27674   7.261   8.952   3.110 -1.0935 -0.0927 -0.3032
  210MOL0     H27675   7.149   8.863   3.227  2.9709 -1.9813  5.0200
  210MOL0     H27676   7.245   8.913   3.411 -1.3625  1.8360 -0.4759
  210MOL0     H27677   7.315   9.061   3.349  0.4251 -0.0514  0.1537
  210MOL0     H27678   7.394   8.753   3.274  0.5322  0.0712 -0.6712
  210MOL0     H27679   7.472   8.891   3.214  0.7004  0.2976  0.6981
  210MOL0     H27680   7.417   8.813   3.504 -4.5643  0.4648 -3.5884
  210MOL0     H27681   7.511   8.961   3.446 -1.8429  0.8949 -3.7792
  210MOL0     H27682   7.735   8.610   3.304 -0.1531 -0.3156  0.8035
  210MOL0     H27683   7.817   8.385   3.385 -0.0414  2.0855 -1.4962
  210MOL0     H27684   7.848   8.047   3.402 -0.4713 -1.5408 -1.0811
  210MOL0     H27685   7.979   7.843   3.419 -0.7978  1.7938 -0.6489
  210MOL0     H27686   7.901   7.604   3.512  3.3339  2.3494 -2.1246
  210MOL0     H27687   7.896   7.569   3.693  0.9404  1.2427  0.4802
  210MOL0     H27688   8.003   7.411   3.532 -2.0119  1.8767 -1.0826
  210MOL0     H27689   8.070   7.435   3.695  2.0316 -0.6686 -0.6572
  210MOL0     H27690   8.246   7.585   3.578 -1.2365  2.8183 -2.4460
  210MOL0     H27691   8.174   7.547   3.421  0.6882 -0.5810 -0.6706
  210MOL0     H27692   8.303   7.349   3.606 -0.8121 -0.8846 -0.8814
  210MOL0     H27693   8.212   7.311   3.452  1.7576 -1.3833 -1.0146
  210MOL0     H27694   8.434   7.514   3.439 -0.0773 -0.6564  3.6560
  210MOL0     H27695   8.355   7.424   3.306  0.8266  2.6848 -0.3116
  210MOL0     H27696   8.444   7.226   3.364 -3.5174  0.1611  2.3563
  210MOL0     H27697   8.488   7.273   3.526 -1.5735  1.1354 -0.4396
  210MOL0     H27698   8.619   7.432   3.314 -2.4029  0.8326  1.1121
  210MOL0     H27699   8.685   7.389   3.473 -2.3255 -1.6450  2.1891
  210MOL0     H27700   8.660   7.239   3.209 -0.2126 -0.8575  0.3270
  210MOL0     H27701   8.717   7.143   3.343  1.4054 -1.1250 -2.6635
  210MOL0     H27702   7.884   7.830   3.844  3.1216  2.5420  2.2988
  210MOL0     H27703   7.795   8.066   3.823 -0.7969 -3.1766  0.0979
  210MOL0     H27704   7.676   8.522   3.774 -0.4903  3.2761  1.0825
  210MOL0     H27705   7.585   8.721   3.675 -1.1594 -1.7664 -0.3977
  210MOL0     H27706   6.112   9.583   2.633  1.4335  0.9224  0.2185
  210MOL0     H27707   6.013   9.766   2.753  0.2979  0.8846  1.1126
  210MOL0     H27708   5.816  10.133   2.975 -1.0251  3.3348  1.8530
  210MOL0     H27709   5.636  10.236   3.094  2.9215  1.8991  1.6655
  210MOL0     H27710   5.519  10.353   3.337  2.5542 -0.8183 -2.7775
  210MOL0     H27711   5.664  10.266   3.376 -0.2793  4.9774 -1.0987
  210MOL0     H27712   5.595  10.171   3.577  0.4445  0.6914  0.5168
  210MOL0     H27713   5.561  10.345   3.572 -2.5420  0.6958  2.3405
  210MOL0     H27714   5.371  10.098   3.548 -3.0590 -0.3438 -0.8426
  210MOL0     H27715   5.300  10.257   3.513  0.0278 -0.3815  0.0932
  210MOL0     H27716   5.389  10.144   3.781  0.2169 -0.8929 -1.0852
  210MOL0     H27717   5.439  10.311   3.744  0.2865 -0.7078  0.1877
  210MOL0     H27718   5.055  10.361   3.856  0.2050  2.3478 -1.4862
  210MOL0     H27719   5.628   9.900   3.368  0.6357 -2.0678 -0.3706
  210MOL0     H27720   5.786   9.782   3.220  0.7479  0.3197  1.7841
  211MOL0     O27721  10.616  10.176   7.456  0.4449  0.2165  0.0635
  211MOL0     C27722  10.612  10.052   7.430  0.0631  0.3784 -0.4424
  211MOL0     O27723  10.495   9.981   7.406  0.1780  0.1080 -0.3206
  211MOL0     C27724  10.381  10.053   7.359 -0.7624 -0.0586  0.0832
  211MOL0     C27725  10.282  10.107   7.444 -1.1038  0.4820  0.4067
  211MOL0     C27726  10.167  10.162   7.393  0.2803  0.3118  0.5583
  211MOL0     C27727  10.156  10.180   7.248  0.3106  0.0008 -0.4378
  211MOL0     O27728  10.032  10.199   7.193  0.2082  0.0135  0.5286
  211MOL0     C27729   9.920  10.257   7.268 -0.6059 -0.3646 -0.4507
  211MOL0     C27730   9.826  10.156   7.341 -0.9734  0.1822 -0.0089
  211MOL0     C27731   9.756  10.082   7.230 -0.1938 -0.5234  0.2258
  211MOL0     C27732   9.654   9.985   7.284  0.2909 -0.5144 -0.0235
  211MOL0     C27733   9.626   9.870   7.183  0.0986 -0.4390  0.1200
  211MOL0     C27734   9.552   9.757   7.252  1.3635  0.7594 -0.2468
  211MOL0     C27735   9.400   9.770   7.267  0.0422 -0.0801 -0.0077
  211MOL0     C27736   9.336   9.645   7.340 -0.4134  0.3903  0.1244
  211MOL0     N27737   9.367   9.532   7.255 -0.1546 -0.4104  0.0334
  211MOL0     C27738   9.351   9.523   7.123 -0.1432  0.3945 -0.1063
  211MOL0     C27739   9.379   9.398   7.093 -0.8615  0.0985  0.4907
  211MOL0     C27740   9.391   9.333   6.959 -0.2342 -0.1500  0.3575
  211MOL0     C27741   9.254   9.333   6.899 -0.3961 -0.5071  0.6202
  211MOL0     C27742   9.237   9.243   6.773  1.0844 -0.8432  0.3446
  211MOL0     C27743   9.089   9.228   6.716  0.0719 -0.3451 -0.6110
  211MOL0     O27744   9.026   9.358   6.684 -0.0919  0.4705  0.3862
  211MOL0     C27745   8.900   9.336   6.639  0.0055  0.4290 -0.7980
  211MOL0     C27746   8.840   9.447   6.579  0.0555 -0.7146 -0.0203
  211MOL0     C27747   8.707   9.449   6.543  0.5396  0.9054  0.0860
  211MOL0     C27748   8.627   9.327   6.569 -0.2065  0.8344 -1.6951
  211MOL0     C27749   8.480   9.324   6.545 -0.1967  0.2939  0.3978
  211MOL0     O27750   8.424   9.437   6.497  0.0872  0.3269 -0.0904
  211MOL0     C27751   8.303   9.415   6.440  0.0864  0.5063 -0.0336
  211MOL0     C27752   8.279   9.377   6.309  1.5472  0.5426 -0.7602
  211MOL0     C27753   8.143   9.359   6.264 -0.6148 -0.6361 -0.2180
  211MOL0     C27754   8.033   9.388   6.349 -0.0379  0.9275 -0.3699
  211MOL0     O27755   7.896   9.384   6.318 -0.0979 -0.1716 -0.8592
  211MOL0     C27756   7.840   9.253   6.276  0.2576 -1.2960 -0.0974
  211MOL0     C27757   7.736   9.273   6.158 -0.1817  0.2991  0.1304
  211MOL0     C27758   7.751   9.152   6.064 -0.0416 -0.3288  0.9543
  211MOL0     C27759   7.682   9.031   6.115  0.4256  0.0835  1.0227
  211MOL0     C27760   7.721   8.906   6.036 -1.2219  0.4649 -0.3265
  211MOL0     C27761   7.647   8.774   6.076 -0.1789 -0.4150 -0.6664
  211MOL0     C27762   7.696   8.665   5.988  1.6240 -0.3089 -0.2556
  211MOL0     C27763   7.606   8.541   5.976  0.1518 -0.4319  0.3497
  211MOL0    Cl27764   7.453   8.569   5.882 -0.2034 -0.2435  0.1492
  211MOL0     C27765   8.067   9.427   6.474  0.5420 -1.3367  0.0584
  211MOL0     C27766   8.195   9.430   6.524  0.3439  0.1559  0.0037
  211MOL0     O27767   8.427   9.214   6.546 -0.2700 -0.3192  0.0564
  211MOL0     C27768   8.688   9.212   6.618  1.0923  0.3952  0.2291
  211MOL0     C27769   8.825   9.212   6.646  1.3867  0.8371  0.0098
  211MOL0     N27770   9.420   9.337   7.204 -0.7176  1.6276 -0.3930
  211MOL0     N27771   9.415   9.416   7.295  0.0291 -0.5563 -0.4270
  211MOL0     C27772  10.261  10.152   7.171  0.8916  0.1625  0.2300
  211MOL0     C27773  10.371  10.084   7.218 -0.2495 -0.1617  0.7512
  211MOL0     C27774  10.742   9.976   7.430  0.7870  0.0882 -1.1764
  211MOL0     C27775  10.859  10.046   7.439  0.6702  0.9174  0.9993
  211MOL0     C27776  10.979   9.986   7.428 -0.4465 -0.3537  0.1688
  211MOL0     C27777  10.982   9.845   7.428  0.3780 -0.7631  0.3718
  211MOL0     O27778  11.109   9.800   7.422  0.3840 -0.1118  0.8124
  211MOL0     C27779  11.146   9.665   7.396 -0.2526 -0.0667  0.2037
  211MOL0     C27780  11.297   9.649   7.369  0.4959 -0.0094 -0.7078
  211MOL0     C27781  11.334   9.706   7.232 -0.2243 -0.3414  0.4903
  211MOL0     C27782  11.482   9.694   7.196 -0.1383  0.7156 -0.6655
  211MOL0     C27783  11.556   9.790   7.276 -0.4483  0.7801  0.2632
  211MOL0     C27784  11.634   9.863   7.340 -0.3950  0.8560  0.3907
  211MOL0     C27785  10.863   9.772   7.423  0.7707 -1.1042 -0.0399
  211MOL0     C27786  10.739   9.833   7.426 -0.7632  0.0280  0.5734
  211MOL0     H27787  10.313  10.100   7.548  3.8290 -1.0351 -0.9211
  211MOL0     H27788  10.091  10.203   7.458  0.1236  1.0084 -0.0552
  211MOL0     H27789   9.854  10.311   7.200 -0.4711 -1.3880 -1.4342
  211MOL0     H27790   9.959  10.333   7.335 -2.1123  1.0158 -1.0761
  211MOL0     H27791   9.764  10.207   7.416  1.7056  1.4555  1.4780
  211MOL0     H27792   9.886  10.083   7.397 -0.9193  3.0200  4.1322
  211MOL0     H27793   9.836  10.027   7.181  2.3592  1.3279  2.0558
  211MOL0     H27794   9.707  10.160   7.171 -0.1873 -0.0523  0.8309
  211MOL0     H27795   9.675   9.934   7.378 -0.7754  1.7375  1.5304
  211MOL0     H27796   9.557  10.029   7.310  1.5109  1.3419  1.7006
  211MOL0     H27797   9.720   9.823   7.150  1.2299 -0.6334  3.2714
  211MOL0     H27798   9.571   9.897   7.093  0.6182 -0.2254 -0.1378
  211MOL0     H27799   9.595   9.730   7.349  2.8133  2.3454 -0.4153
  211MOL0     H27800   9.569   9.660   7.203 -1.6925 -1.4534  2.5718
  211MOL0     H27801   9.385   9.864   7.321  0.9933  1.2634 -1.9793
  211MOL0     H27802   9.344   9.782   7.174 -2.2431 -0.5854  1.2248
  211MOL0     H27803   9.227   9.644   7.344 -0.5373 -0.8062 -2.0879
  211MOL0     H27804   9.387   9.626   7.435  2.9233 -3.4490 -2.0917
  211MOL0     H27805   9.327   9.595   7.046 -0.5132  3.2221  2.4798
  211MOL0     H27806   9.431   9.232   6.973 -1.1786 -0.2701  2.5928
  211MOL0     H27807   9.464   9.381   6.893  0.4063 -0.1047  1.0776
  211MOL0     H27808   9.211   9.430   6.876  2.0705  0.4309 -0.3301
  211MOL0     H27809   9.190   9.291   6.978 -1.5915  1.4430  0.7431
  211MOL0     H27810   9.288   9.289   6.688 -1.6377  0.4063 -0.7231
  211MOL0     H27811   9.272   9.147   6.812  3.7722  0.9276  2.7708
  211MOL0     H27812   9.037   9.187   6.803 -3.0711  0.7713 -1.8134
  211MOL0     H27813   9.092   9.154   6.636 -0.6905 -1.8750  0.7362
  211MOL0     H27814   8.909   9.531   6.571  2.3778 -2.0020  3.8257
  211MOL0     H27815   8.658   9.537   6.501  1.9310  1.4048 -0.5838
  211MOL0     H27816   8.357   9.362   6.235  1.9567  2.3084 -0.7529
  211MOL0     H27817   8.119   9.322   6.165 -2.5259 -3.1856  1.0916
  211MOL0     H27818   7.778   9.210   6.355 -0.6663 -2.0164 -1.1856
  211MOL0     H27819   7.926   9.188   6.255  3.1545  2.3712 -0.6757
  211MOL0     H27820   7.766   9.362   6.102  1.3763 -0.4743 -0.3096
  211MOL0     H27821   7.636   9.283   6.202 -0.2068 -0.7954  0.3437
  211MOL0     H27822   7.856   9.124   6.053 -0.1308 -0.8355  1.3229
  211MOL0     H27823   7.705   9.190   5.972 -0.1505  0.4844  1.3409
  211MOL0     H27824   7.697   9.004   6.219 -1.9224  1.4394  1.8014
  211MOL0     H27825   7.574   9.052   6.111  0.6766  1.4939 -3.0045
  211MOL0     H27826   7.825   8.883   6.058 -1.6884 -0.6073  0.8384
  211MOL0     H27827   7.705   8.933   5.931  1.6702  2.9312 -0.2542
  211MOL0     H27828   7.542   8.788   6.050 -0.2965 -0.5141 -0.2540
  211MOL0     H27829   7.656   8.747   6.181 -0.5072 -3.6878 -1.3722
  211MOL0     H27830   7.715   8.702   5.887  3.3052  2.1041  0.8393
  211MOL0     H27831   7.791   8.628   6.027  2.8364  2.5182 -0.2974
  211MOL0     H27832   7.569   8.513   6.074 -3.3230  0.1236 -0.6725
  211MOL0     H27833   7.673   8.463   5.938  0.0182  0.1185 -1.1097
  211MOL0     H27834   7.996   9.455   6.551  0.9070 -1.3095  0.3909
  211MOL0     H27835   8.222   9.452   6.627  0.4448 -0.2195  0.0571
  211MOL0     H27836   8.626   9.123   6.626 -2.2146  2.6627  1.9232
  211MOL0     H27837   8.859   9.109   6.659  0.2026  0.0817 -2.2428
  211MOL0     H27838  10.250  10.176   7.066 -2.2718  0.5455  0.5659
  211MOL0     H27839  10.462  10.063   7.163  0.3259 -1.2654  2.0809
  211MOL0     H27840  10.864  10.154   7.451  2.4088  0.8773  0.8449
  211MOL0     H27841  11.075  10.037   7.422  1.1891 -3.1909  0.1551
  211MOL0     H27842  11.087   9.630   7.311  0.0370  1.5049 -0.6742
  211MOL0     H27843  11.120   9.600   7.480  2.9145 -4.1559 -1.6439
  211MOL0     H27844  11.360   9.682   7.452  1.7347 -0.3524 -1.4930
  211MOL0     H27845  11.318   9.542   7.379  0.4517  0.2291  5.1768
  211MOL0     H27846  11.295   9.807   7.225 -0.3805 -0.4828 -1.1160
  211MOL0     H27847  11.293   9.649   7.148  1.3153 -0.6946 -0.0600
  211MOL0     H27848  11.518   9.592   7.212  0.1246  1.2474  3.0231
  211MOL0     H27849  11.511   9.714   7.093  6.1478 -2.6123  0.0075
  211MOL0     H27850  11.704   9.912   7.404  1.8354 -1.1516 -0.3585
  211MOL0     H27851  10.878   9.664   7.426 -2.1185 -1.5925 -0.5658
  211MOL0     H27852  10.649   9.779   7.397 -0.7441  0.8471 -1.1470
  212MOL0     O27853   3.337   7.776   5.926  0.0006 -0.1175 -0.1227
  212MOL0     C27854   3.288   7.771   6.038 -0.3302 -0.0034 -0.4211
  212MOL0     O27855   3.366   7.777   6.152  0.5103  0.9587  0.1997
  212MOL0     C27856   3.500   7.760   6.152 -0.4949 -0.7766 -1.0453
  212MOL0     C27857   3.582   7.671   6.073  1.0083  0.1548 -0.5891
  212MOL0     C27858   3.726   7.683   6.069  0.4801 -0.2595  1.1079
  212MOL0     C27859   3.794   7.793   6.137 -0.1071 -0.2508  1.3958
  212MOL0     O27860   3.929   7.815   6.144  0.6061  0.2164  0.0233
  212MOL0     C27861   3.999   7.815   6.026  0.4959 -0.2207 -0.7623
  212MOL0     C27862   4.107   7.921   6.041  0.2776  0.2686  0.6116
  212MOL0     C27863   4.224   7.920   5.937  0.1179  0.4125  0.2075
  212MOL0     C27864   4.346   7.988   5.998 -1.0969  0.0119  0.5961
  212MOL0     C27865   4.467   7.954   5.925 -0.7259 -0.7438 -0.2822
  212MOL0     C27866   4.597   8.023   5.973  1.3150 -0.3390  1.4353
  212MOL0     C27867   4.722   7.953   5.917  0.2177 -0.3655 -0.7178
  212MOL0     C27868   4.791   7.839   6.000 -0.7996 -0.5702  0.9350
  212MOL0     N27869   4.717   7.712   5.995  0.2163 -0.0291 -0.4185
  212MOL0     C27870   4.632   7.675   6.091  0.3319 -0.3361 -0.3447
  212MOL0     C27871   4.583   7.558   6.051  0.6941  0.2618  0.0693
  212MOL0     C27872   4.480   7.475   6.114 -0.2348  0.2136  0.5539
  212MOL0     C27873   4.346   7.552   6.133 -0.4756 -1.2351  0.3448
  212MOL0     C27874   4.245   7.463   6.181  0.4356  0.2496 -0.1723
  212MOL0     C27875   4.113   7.530   6.206 -0.0548  0.1558  0.7393
  212MOL0     O27876   4.046   7.457   6.304  0.3064 -0.2971 -0.9227
  212MOL0     C27877   3.961   7.537   6.380  0.6044  0.3823 -1.4801
  212MOL0     C27878   3.834   7.484   6.413  0.8324  0.5815  0.4000
  212MOL0     C27879   3.745   7.555   6.493 -0.1743 -0.1852  0.5204
  212MOL0     C27880   3.780   7.683   6.545  1.2136  0.4103 -0.0394
  212MOL0     C27881   3.672   7.760   6.625 -1.2354  0.3125 -0.6850
  212MOL0     O27882   3.561   7.685   6.672 -0.3772  0.1730 -0.0889
  212MOL0     C27883   3.457   7.736   6.739  0.0351  0.0117  0.2924
  212MOL0     C27884   3.369   7.642   6.802 -0.3823 -0.6461 -0.0845
  212MOL0     C27885   3.263   7.689   6.887  0.0840 -0.3165  0.5030
  212MOL0     C27886   3.246   7.821   6.909  1.2368  0.2095 -0.4050
  212MOL0     O27887   3.151   7.861   6.998 -0.3510 -0.1343  0.7936
  212MOL0     C27888   3.123   7.773   7.106 -0.0028 -0.0237 -0.1232
  212MOL0     C27889   2.983   7.714   7.069  0.0231 -1.0831  0.2257
  212MOL0     C27890   2.942   7.615   7.177  0.0601  0.4468 -0.2230
  212MOL0     C27891   2.831   7.663   7.282 -1.5381  1.0740  0.8301
  212MOL0     C27892   2.881   7.601   7.408  0.5156 -0.0432 -1.2448
  212MOL0     C27893   2.773   7.627   7.514  0.0376  0.1657 -0.7917
  212MOL0     C27894   2.804   7.561   7.660  0.1142 -0.5612 -0.0341
  212MOL0     C27895   2.723   7.626   7.775 -0.6409 -0.4064  1.3223
  212MOL0    Cl27896   2.793   7.790   7.780 -0.2325 -0.1609  0.0113
  212MOL0     C27897   3.323   7.916   6.842  0.5915  1.1330 -0.1028
  212MOL0     C27898   3.428   7.869   6.750 -0.5573 -0.5491  0.4229
  212MOL0     O27899   3.699   7.880   6.649  0.8311 -0.4793  0.9564
  212MOL0     C27900   3.904   7.735   6.514 -0.5656 -0.8002 -0.5542
  212MOL0     C27901   3.994   7.662   6.436 -0.2932 -1.3824 -1.0955
  212MOL0     N27902   4.653   7.523   5.934 -0.1735  0.6223  0.1402
  212MOL0     N27903   4.737   7.619   5.893 -0.0590 -0.0259  0.2265
  212MOL0     C27904   3.716   7.878   6.215 -0.3971 -0.6658 -0.4096
  212MOL0     C27905   3.581   7.854   6.226  0.4116  0.1517 -0.6240
  212MOL0     C27906   3.143   7.750   6.042  0.6391 -1.5745  0.2667
  212MOL0     C27907   3.066   7.785   6.153  0.8301  0.7740  0.4005
  212MOL0     C27908   2.928   7.759   6.156 -0.5459  0.4667 -0.9684
  212MOL0     C27909   2.870   7.685   6.055 -1.2063 -0.1975  0.2430
  212MOL0     O27910   2.740   7.640   6.052  0.2031  0.4502  0.2819
  212MOL0     C27911   2.638   7.664   6.156 -0.2437 -0.6233 -0.4819
  212MOL0     C27912   2.535   7.552   6.164  0.5233  0.7720 -0.2057
  212MOL0     C27913   2.412   7.596   6.248 -0.5992  0.4862  0.0469
  212MOL0     C27914   2.291   7.512   6.200  0.5903 -0.4858  0.0249
  212MOL0     C27915   2.175   7.555   6.282 -0.4399  1.3643  1.3155
  212MOL0     C27916   2.079   7.593   6.338 -1.0105  0.1971 -0.0427
  212MOL0     C27917   2.944   7.662   5.937  0.4948  0.6748 -0.6787
  212MOL0     C27918   3.081   7.691   5.933  0.9783  0.1386  0.0284
  212MOL0     H27919   3.538   7.582   6.027  3.6094 -2.2480  1.1937
  212MOL0     H27920   3.784   7.611   6.014  2.1501 -0.3717  2.9211
  212MOL0     H27921   3.941   7.839   5.937 -1.1989 -3.8813 -0.8007
  212MOL0     H27922   4.053   7.721   6.014  3.0465  1.0034  0.3299
  212MOL0     H27923   4.149   7.901   6.140  3.0441  0.6101 -0.3841
  212MOL0     H27924   4.058   8.018   6.032 -1.0984 -0.5694 -2.1349
  212MOL0     H27925   4.189   7.982   5.855 -2.2813  0.2425  1.0406
  212MOL0     H27926   4.241   7.823   5.891 -2.2439  0.3241 -0.6032
  212MOL0     H27927   4.331   8.096   5.997 -0.3439  0.2204 -2.9887
  212MOL0     H27928   4.357   7.956   6.102  2.0159  2.3387  1.1139
  212MOL0     H27929   4.460   7.984   5.820 -2.2742 -1.8866 -0.5357
  212MOL0     H27930   4.476   7.846   5.919 -2.6956 -0.9187 -0.9271
  212MOL0     H27931   4.601   8.029   6.083  2.8050  2.1082  1.3245
  212MOL0     H27932   4.595   8.124   5.931  0.2274 -1.5740 -1.7467
  212MOL0     H27933   4.701   7.920   5.815  2.0004 -2.2525 -0.5476
  212MOL0     H27934   4.795   8.032   5.899 -1.3602  1.1497 -0.6792
  212MOL0     H27935   4.808   7.877   6.101 -1.2726  1.5798  0.2515
  212MOL0     H27936   4.888   7.827   5.952 -0.1691  3.8686  0.7273
  212MOL0     H27937   4.587   7.726   6.176 -0.6079 -2.5827  0.6099
  212MOL0     H27938   4.516   7.438   6.211 -1.0143 -0.2985  0.6555
  212MOL0     H27939   4.449   7.391   6.053 -1.8673 -0.3013  1.9982
  212MOL0     H27940   4.312   7.602   6.042 -0.4816  0.2260  1.1181
  212MOL0     H27941   4.357   7.621   6.217  4.0091 -0.8189 -0.3093
  212MOL0     H27942   4.226   7.371   6.125 -1.4596 -0.5557  1.6060
  212MOL0     H27943   4.278   7.424   6.278  0.5092 -3.8159 -1.6201
  212MOL0     H27944   4.052   7.533   6.115 -0.0970  0.5136  0.7774
  212MOL0     H27945   4.129   7.631   6.245  1.0460  0.1773  0.2659
  212MOL0     H27946   3.794   7.395   6.366  1.4873 -1.1319  2.8919
  212MOL0     H27947   3.645   7.520   6.516 -0.9047  1.9378  0.7771
  212MOL0     H27948   3.377   7.539   6.769 -2.1916 -0.3002 -1.7992
  212MOL0     H27949   3.189   7.617   6.920  0.2036 -1.0130 -0.7103
  212MOL0     H27950   3.100   7.844   7.185  0.5023  1.0072 -0.8849
  212MOL0     H27951   3.204   7.701   7.121  1.9279  2.4108  2.1000
  212MOL0     H27952   2.966   7.670   6.970 -0.2647 -0.2133 -0.1228
  212MOL0     H27953   2.919   7.802   7.080 -0.0892 -0.9512 -1.2702
  212MOL0     H27954   3.022   7.558   7.225 -3.3078 -2.2051  2.8606
  212MOL0     H27955   2.883   7.540   7.123 -2.1069  0.1745  2.3155
  212MOL0     H27956   2.817   7.771   7.288 -2.2346  0.9244  2.2189
  212MOL0     H27957   2.738   7.616   7.250 -1.3270  1.1091  0.1495
  212MOL0     H27958   2.977   7.648   7.434 -1.7051  3.5892  1.1798
  212MOL0     H27959   2.883   7.493   7.387 -0.2576 -0.7697  1.8910
  212MOL0     H27960   2.676   7.586   7.484 -0.0210 -0.4526  0.1911
  212MOL0     H27961   2.758   7.735   7.523  3.6575  0.6136  1.9306
  212MOL0     H27962   2.759   7.462   7.649 -0.4939 -0.0229 -3.8084
  212MOL0     H27963   2.911   7.566   7.684  0.0575  0.0227  0.1223
  212MOL0     H27964   2.746   7.572   7.867  1.1588 -1.8244  0.1173
  212MOL0     H27965   2.618   7.628   7.746  0.5330  0.2711 -3.9495
  212MOL0     H27966   3.309   8.018   6.877  0.9358  1.3080 -0.4625
  212MOL0     H27967   3.485   7.939   6.691 -1.8298 -1.0754 -1.5126
  212MOL0     H27968   3.924   7.838   6.542 -1.7892 -0.5584 -0.5091
  212MOL0     H27969   4.083   7.721   6.417 -1.3308  0.0299 -1.7461
  212MOL0     H27970   3.766   7.957   6.270 -4.0112  1.4413  0.2315
  212MOL0     H27971   3.523   7.918   6.292  2.0433  1.4984 -0.4230
  212MOL0     H27972   3.110   7.834   6.239  0.2942 -1.8672  2.3018
  212MOL0     H27973   2.872   7.789   6.245 -0.5521  1.2061 -1.2133
  212MOL0     H27974   2.586   7.760   6.148 -0.5219 -0.5560  1.6196
  212MOL0     H27975   2.696   7.656   6.248 -1.7489 -1.1919  0.4602
  212MOL0     H27976   2.509   7.515   6.064  1.6760 -4.0161  1.0192
  212MOL0     H27977   2.591   7.475   6.217  0.0720  0.9224  0.5079
  212MOL0     H27978   2.397   7.704   6.236  0.1469  1.0352  3.3021
  212MOL0     H27979   2.432   7.580   6.354  0.2282  1.7351  0.0929
  212MOL0     H27980   2.270   7.521   6.093 -1.0112 -1.9811  0.1709
  212MOL0     H27981   2.322   7.408   6.213 -0.2540 -0.7450 -0.0160
  212MOL0     H27982   2.001   7.644   6.392  0.3476  3.0176 -0.5490
  212MOL0     H27983   2.899   7.600   5.860 -1.9861  1.3997  0.0705
  212MOL0     H27984   3.144   7.658   5.851  2.3788  2.1232  0.2502
  213MOL0     O27985   9.368   5.734   8.050  1.0744 -0.2099 -0.5718
  213MOL0     C27986   9.455   5.743   7.958 -0.4147 -0.1927 -0.4505
  213MOL0     O27987   9.437   5.811   7.842  0.1161  0.6684  0.7311
  213MOL0     C27988   9.311   5.857   7.806  0.0210 -0.7018  0.3874
  213MOL0     C27989   9.184   5.787   7.813  0.4743 -0.7231  0.0975
  213MOL0     C27990   9.069   5.845   7.753 -0.2826 -0.4678  0.1991
  213MOL0     C27991   9.076   5.967   7.691 -0.0562  0.6504  0.6482
  213MOL0     O27992   8.970   6.031   7.626 -0.0889 -0.0625 -0.0190
  213MOL0     C27993   8.835   5.992   7.664  1.4118 -0.3322  0.4583
  213MOL0     C27994   8.737   6.118   7.637 -0.1495  0.4721 -0.2724
  213MOL0     C27995   8.750   6.167   7.498  0.6687 -1.3122  0.2846
  213MOL0     C27996   8.620   6.262   7.474 -0.0878  0.4348 -0.4138
  213MOL0     C27997   8.559   6.244   7.330  0.2390  0.1443 -0.0464
  213MOL0     C27998   8.422   6.322   7.319 -0.4832  0.9131  0.3846
  213MOL0     C27999   8.373   6.301   7.176 -0.3076 -0.1396  0.2631
  213MOL0     C28000   8.261   6.407   7.129  0.0620 -0.0039 -0.6754
  213MOL0     N28001   8.118   6.380   7.168  0.1164 -0.5790 -0.0017
  213MOL0     C28002   8.060   6.368   7.291  0.2763  0.9479 -0.7842
  213MOL0     C28003   7.936   6.327   7.260  1.0677  0.6074 -0.4010
  213MOL0     C28004   7.819   6.286   7.359  0.5454  0.2360  0.3415
  213MOL0     C28005   7.689   6.373   7.335 -0.5242 -0.1853  0.1190
  213MOL0     C28006   7.617   6.364   7.205  0.9075  0.0875 -0.1178
  213MOL0     C28007   7.644   6.473   7.100  0.6384 -0.2053  0.5272
  213MOL0     O28008   7.570   6.447   6.978  0.0681 -0.0161  0.7698
  213MOL0     C28009   7.427   6.481   6.977  0.0000 -0.0798  0.1338
  213MOL0     C28010   7.355   6.552   7.087  0.6763  0.7919  0.8546
  213MOL0     C28011   7.215   6.561   7.076 -0.3877  0.1504  0.0494
  213MOL0     C28012   7.146   6.509   6.966 -0.3624 -0.6293  0.7977
  213MOL0     C28013   6.998   6.538   6.951  0.3212  0.3193  0.2012
  213MOL0     O28014   6.938   6.632   7.028 -0.1362  0.0585 -0.1622
  213MOL0     C28015   6.808   6.660   7.030  0.0567 -0.1418  0.1328
  213MOL0     C28016   6.776   6.781   7.082  0.3137 -0.3981  0.9187
  213MOL0     C28017   6.641   6.818   7.084  0.0004  0.5789 -0.6482
  213MOL0     C28018   6.532   6.746   7.021 -0.1176  0.1704 -0.3384
  213MOL0     O28019   6.405   6.791   7.035  0.3950  0.0296  0.7685
  213MOL0     C28020   6.308   6.695   7.099  0.0620  0.8163  0.2813
  213MOL0     C28021   6.173   6.748   7.057 -0.3210  0.5721  0.2479
  213MOL0     C28022   6.138   6.786   6.914 -0.2567 -0.5635 -1.0283
  213MOL0     C28023   6.007   6.865   6.914  0.3248  0.0714  0.3540
  213MOL0     C28024   5.923   6.825   6.800 -0.2812  0.5311  0.4519
  213MOL0     C28025   5.811   6.921   6.776  1.1736 -0.1143 -0.5844
  213MOL0     C28026   5.696   6.846   6.702 -0.9071 -0.7004  0.6087
  213MOL0     C28027   5.566   6.930   6.686 -0.4575  0.0597  1.1321
  213MOL0    Cl28028   5.502   6.937   6.857 -0.0589  0.0288 -0.3608
  213MOL0     C28029   6.566   6.626   6.973 -0.4584  0.7436  0.4747
  213MOL0     C28030   6.707   6.580   6.978 -0.3969  0.2353  0.4660
  213MOL0     O28031   6.947   6.464   6.867 -0.3785 -0.0049  0.5480
  213MOL0     C28032   7.214   6.453   6.858  1.5229 -0.3019 -1.2154
  213MOL0     C28033   7.355   6.435   6.864 -0.4811  0.1780  0.4228
  213MOL0     N28034   7.931   6.301   7.123 -0.6175  0.0201 -0.9941
  213MOL0     N28035   8.045   6.325   7.075 -0.6927  0.7561  0.1116
  213MOL0     C28036   9.193   6.029   7.680  0.2946  0.0865  0.7331
  213MOL0     C28037   9.304   5.981   7.736 -0.8076 -0.1880 -0.4407
  213MOL0     C28038   9.590   5.694   7.987 -0.3745  0.9953  0.5678
  213MOL0     C28039   9.607   5.627   8.107  0.0059  0.7226 -0.1047
  213MOL0     C28040   9.734   5.597   8.149  0.9950 -0.0480 -0.3236
  213MOL0     C28041   9.840   5.606   8.066 -0.7070 -0.2767  0.4340
  213MOL0     O28042   9.959   5.564   8.118  0.6582  0.2132 -0.4189
  213MOL0     C28043  10.066   5.540   8.028  0.7413 -0.2871 -0.3255
  213MOL0     C28044  10.190   5.481   8.090  0.5205  0.1619 -0.3115
  213MOL0     C28045  10.292   5.471   7.977  0.0836 -0.6168  0.1319
  213MOL0     C28046  10.418   5.390   8.016  0.1762 -1.8964  0.4031
  213MOL0     C28047  10.386   5.249   8.020  0.1528  0.5836 -0.7080
  213MOL0     C28048  10.370   5.132   8.023 -0.2855  0.5434  0.5692
  213MOL0     C28049   9.826   5.681   7.947 -0.3786  0.1368 -0.3813
  213MOL0     C28050   9.704   5.726   7.909  0.5601  0.1566  1.1663
  213MOL0     H28051   9.183   5.682   7.843 -2.4212 -1.1590 -1.1679
  213MOL0     H28052   8.973   5.795   7.743  0.5906 -2.0992 -0.2497
  213MOL0     H28053   8.840   5.952   7.766  1.8190 -0.4265  0.4051
  213MOL0     H28054   8.790   5.917   7.598 -0.2404 -0.3488  1.5358
  213MOL0     H28055   8.762   6.193   7.712  3.2825 -3.0049  2.4746
  213MOL0     H28056   8.633   6.094   7.656 -0.7729  3.5199  0.7275
  213MOL0     H28057   8.732   6.087   7.426 -1.3455 -0.6052 -0.0581
  213MOL0     H28058   8.847   6.213   7.477 -0.3011  1.7408  1.9244
  213MOL0     H28059   8.544   6.239   7.548  1.3843 -0.3334  0.9304
  213MOL0     H28060   8.652   6.366   7.489 -0.1742  0.2414  1.3568
  213MOL0     H28061   8.546   6.139   7.303 -1.2946 -0.1023  1.4547
  213MOL0     H28062   8.629   6.291   7.260 -0.9920  0.3158 -1.1913
  213MOL0     H28063   8.441   6.429   7.322 -0.7648  1.1327 -2.6823
  213MOL0     H28064   8.350   6.288   7.395  0.4969 -1.4179  0.3557
  213MOL0     H28065   8.459   6.315   7.111  1.0122  1.0374  2.1583
  213MOL0     H28066   8.338   6.200   7.155  0.0295 -0.1463 -0.2711
  213MOL0     H28067   8.282   6.410   7.022 -0.2295 -1.6323 -0.8032
  213MOL0     H28068   8.282   6.501   7.181  0.2067 -1.5945  2.4069
  213MOL0     H28069   8.107   6.380   7.388  0.8941  1.5217 -1.1481
  213MOL0     H28070   7.851   6.296   7.463  1.9425 -2.9389  0.3325
  213MOL0     H28071   7.788   6.182   7.343 -1.1589  0.8721 -0.8078
  213MOL0     H28072   7.714   6.477   7.355 -2.2779  0.4053 -0.4881
  213MOL0     H28073   7.623   6.350   7.419  2.5124  1.4366  3.1809
  213MOL0     H28074   7.648   6.275   7.148 -2.4353 -3.4375  2.9795
  213MOL0     H28075   7.511   6.357   7.228  0.3953 -0.1483 -2.3481
  213MOL0     H28076   7.749   6.490   7.075  0.0672  2.4054 -0.4164
  213MOL0     H28077   7.616   6.566   7.151  2.2016 -0.1976  1.4411
  213MOL0     H28078   7.421   6.589   7.165  0.7987  1.0222  0.6402
  213MOL0     H28079   7.157   6.603   7.158 -0.0615  0.7360 -0.0141
  213MOL0     H28080   6.861   6.836   7.121  0.4152 -1.2558  1.9628
  213MOL0     H28081   6.615   6.916   7.124  0.8534  0.8807 -0.8188
  213MOL0     H28082   6.326   6.684   7.206  1.1874  1.1292  0.1414
  213MOL0     H28083   6.309   6.593   7.058 -4.2632  1.2081 -1.3038
  213MOL0     H28084   6.168   6.838   7.119  0.4040 -1.9787  4.4183
  213MOL0     H28085   6.099   6.677   7.095 -0.9399  1.0457 -0.0699
  213MOL0     H28086   6.133   6.691   6.861  0.1635 -2.2301  1.7539
  213MOL0     H28087   6.209   6.857   6.869 -0.8439  1.3732  0.9232
  213MOL0     H28088   5.947   6.829   6.999  1.3977 -0.5795  0.8658
  213MOL0     H28089   6.017   6.974   6.912 -2.3351  0.5007  3.2804
  213MOL0     H28090   5.874   6.729   6.818 -0.0811  0.4115  0.3633
  213MOL0     H28091   5.986   6.803   6.713 -2.3561 -1.3842 -0.6810
  213MOL0     H28092   5.839   7.007   6.715 -1.5403  2.4256  1.4568
  213MOL0     H28093   5.776   6.961   6.871 -0.1817 -0.1385 -1.0428
  213MOL0     H28094   5.744   6.818   6.608 -1.3727  1.3857 -0.3223
  213MOL0     H28095   5.663   6.754   6.749 -5.5114 -0.5108 -1.7452
  213MOL0     H28096   5.493   6.871   6.629 -0.4370 -0.2502  1.4205
  213MOL0     H28097   5.584   7.027   6.639  0.9041  0.0141  1.5222
  213MOL0     H28098   6.489   6.557   6.942  1.8169 -2.7706  2.0015
  213MOL0     H28099   6.726   6.476   6.955  1.8112  0.7905 -0.4868
  213MOL0     H28100   7.163   6.409   6.773 -5.1085 -0.5008  2.2221
  213MOL0     H28101   7.404   6.386   6.781 -0.2958  2.0649 -0.6539
  213MOL0     H28102   9.195   6.118   7.617 -3.6777  0.2143  0.5433
  213MOL0     H28103   9.395   6.025   7.698  0.2468 -2.4507 -0.7077
  213MOL0     H28104   9.526   5.600   8.174  1.1948 -1.6453  0.4945
  213MOL0     H28105   9.753   5.559   8.248  0.7186  2.4706  0.7575
  213MOL0     H28106  10.088   5.630   7.969  0.2958 -1.7658 -2.8871
  213MOL0     H28107  10.015   5.468   7.964 -0.4301  0.6688 -0.5146
  213MOL0     H28108  10.227   5.543   8.172  1.7203  2.0377 -2.1723
  213MOL0     H28109  10.160   5.384   8.132 -0.3979  0.9482  0.9306
  213MOL0     H28110  10.322   5.577   7.971  1.1224 -0.7944  1.6859
  213MOL0     H28111  10.248   5.447   7.880 -1.0331  0.0121  0.4680
  213MOL0     H28112  10.490   5.402   7.935  0.7882 -3.3811  0.6853
  213MOL0     H28113  10.468   5.420   8.109 -0.1157 -3.2707  1.0466
  213MOL0     H28114  10.344   5.028   8.029 -0.9055  0.6319 -0.3431
  213MOL0     H28115   9.904   5.705   7.875 -0.0593 -0.0567 -0.1000
  213MOL0     H28116   9.689   5.790   7.823 -0.3751 -2.3590 -0.6664
  214MOL0     O28117   0.593   2.400   1.932  1.2595  0.3068 -1.1915
  214MOL0     C28118   0.587   2.280   1.904  0.0092 -0.8305  0.0850
  214MOL0     O28119   0.470   2.207   1.868  0.7292  0.7353 -0.6667
  214MOL0     C28120   0.354   2.270   1.822  0.2659  0.5025 -0.2071
  214MOL0     C28121   0.236   2.188   1.810  0.1336  0.4439  0.0816
  214MOL0     C28122   0.116   2.238   1.746  0.1460 -0.5278 -0.6201
  214MOL0     C28123   0.114   2.355   1.673 -1.6393  0.0557 -0.2691
  214MOL0     O28124   0.017   2.408   1.591 -0.4722  0.1515  0.1362
  214MOL0     C28125  -0.026   2.313   1.493 -0.6212  0.9307  0.8818
  214MOL0     C28126  -0.161   2.352   1.420 -0.1820  0.6917 -0.0122
  214MOL0     C28127  -0.230   2.239   1.365  0.7037  0.1350  0.0416
  214MOL0     C28128  -0.350   2.278   1.276 -0.4670  1.2592  0.7480
  214MOL0     C28129  -0.407   2.150   1.218 -0.8367 -0.5501 -0.3675
  214MOL0     C28130  -0.313   2.090   1.103  0.4447  0.3852 -0.0024
  214MOL0     C28131  -0.381   1.998   1.004  0.0372  0.6372  0.2297
  214MOL0     C28132  -0.452   2.072   0.894  0.8663  0.1642 -0.0606
  214MOL0     N28133  -0.358   2.132   0.800 -0.3953 -0.1373 -0.6043
  214MOL0     C28134  -0.312   2.264   0.815 -0.5771 -0.0463  1.2489
  214MOL0     C28135  -0.222   2.279   0.707  0.1869  0.8969 -0.0303
  214MOL0     C28136  -0.164   2.420   0.665  0.0921  0.7064 -0.3034
  214MOL0     C28137  -0.021   2.441   0.699 -0.5875 -0.1032 -0.6335
  214MOL0     C28138   0.021   2.577   0.635 -0.7912  0.2045  0.3309
  214MOL0     C28139   0.173   2.583   0.631 -0.0388  0.3847  0.6823
  214MOL0     O28140   0.209   2.720   0.620 -0.1001 -0.4449  1.4204
  214MOL0     C28141   0.347   2.742   0.623  0.5025 -0.8170 -0.5123
  214MOL0     C28142   0.423   2.707   0.731  0.3602  0.8084  1.0379
  214MOL0     C28143   0.557   2.738   0.753 -0.9963  1.6645  0.5771
  214MOL0     C28144   0.628   2.812   0.659 -0.8054  0.0368  1.1500
  214MOL0     C28145   0.766   2.845   0.668 -1.2023 -0.5093 -0.2668
  214MOL0     O28146   0.832   2.822   0.787 -0.2806 -0.6454 -0.4530
  214MOL0     C28147   0.967   2.846   0.802  1.8786 -0.0618  0.3534
  214MOL0     C28148   1.040   2.956   0.757  0.2875  0.5822  0.4017
  214MOL0     C28149   1.184   2.962   0.772  0.4262  0.1442  0.7087
  214MOL0     C28150   1.247   2.860   0.844  0.7381 -0.3558 -0.2237
  214MOL0     O28151   1.382   2.854   0.866 -0.0976  0.1213 -0.0384
  214MOL0     C28152   1.439   2.972   0.920 -0.6586  0.2743  0.8430
  214MOL0     C28153   1.556   3.033   0.829  0.5971 -0.8499 -0.7882
  214MOL0     C28154   1.658   2.922   0.803 -0.2372 -0.0785  0.2033
  214MOL0     C28155   1.788   2.975   0.743 -0.6697 -0.3885 -0.8238
  214MOL0     C28156   1.860   2.857   0.672 -0.9168  0.5910 -0.5883
  214MOL0     C28157   1.795   2.832   0.530  0.1862  0.0677  0.2023
  214MOL0     C28158   1.871   2.725   0.447  0.2029  0.1398 -0.1376
  214MOL0     C28159   1.787   2.651   0.349 -0.0014 -1.1478 -0.5461
  214MOL0    Cl28160   1.877   2.500   0.313 -0.0759 -0.0085  0.3724
  214MOL0     C28161   1.173   2.755   0.899  0.3400 -0.1357 -0.3155
  214MOL0     C28162   1.032   2.749   0.877 -0.1216 -0.5243  0.6329
  214MOL0     O28163   0.823   2.881   0.563  0.0341  0.5761 -0.3125
  214MOL0     C28164   0.555   2.844   0.552 -0.1652 -0.8721 -0.5234
  214MOL0     C28165   0.418   2.810   0.527 -0.2067 -0.0348  0.0928
  214MOL0     N28166  -0.209   2.165   0.644 -0.7852  0.0949  0.9766
  214MOL0     N28167  -0.288   2.075   0.700 -0.4589  0.2052  0.7396
  214MOL0     C28168   0.218   2.441   1.708  0.6496 -0.2843 -0.4966
  214MOL0     C28169   0.332   2.401   1.784  0.0595 -0.6351  1.0337
  214MOL0     C28170   0.710   2.203   1.905 -0.2056 -0.3065 -0.2716
  214MOL0     C28171   0.835   2.267   1.933 -0.2857 -0.6725  0.4119
  214MOL0     C28172   0.945   2.186   1.941  0.1491  0.2260 -0.2633
  214MOL0     C28173   0.949   2.048   1.922  0.4620 -0.7175 -0.4374
  214MOL0     O28174   1.063   1.964   1.943  0.7179  1.4457 -0.9241
  214MOL0     C28175   1.193   2.018   1.978  0.0130  0.1860  0.2444
  214MOL0     C28176   1.290   1.908   2.031  1.0423  0.0938 -1.0962
  214MOL0     C28177   1.234   1.865   2.170  0.9687  0.0199  0.6318
  214MOL0     C28178   1.342   1.770   2.226  0.1587 -0.3873 -0.2429
  214MOL0     C28179   1.347   1.641   2.156  1.0757 -0.4032 -0.1953
  214MOL0     C28180   1.360   1.541   2.086 -0.8685 -0.7167  0.2890
  214MOL0     C28181   0.821   1.988   1.895 -0.4320 -1.1074 -0.4635
  214MOL0     C28182   0.703   2.056   1.883  0.0029 -0.1983 -0.4535
  214MOL0     H28183   0.226   2.088   1.851 -2.6864  0.1306 -1.1630
  214MOL0     H28184   0.020   2.188   1.742 -0.1555  0.0516 -4.8263
  214MOL0     H28185  -0.046   2.217   1.542  1.4303  0.5154  0.9907
  214MOL0     H28186   0.051   2.289   1.419  0.0312  2.4088  1.0488
  214MOL0     H28187  -0.120   2.420   1.345 -0.8904  3.1449  1.6933
  214MOL0     H28188  -0.225   2.406   1.492 -0.5574 -0.7818  0.7898
  214MOL0     H28189  -0.265   2.174   1.445 -0.9000 -1.2421 -1.6709
  214MOL0     H28190  -0.165   2.176   1.304 -0.1782 -1.8600  1.0798
  214MOL0     H28191  -0.422   2.329   1.340 -3.0010  1.2773 -1.9227
  214MOL0     H28192  -0.336   2.345   1.191  2.1056  0.3114  0.3172
  214MOL0     H28193  -0.506   2.173   1.179 -0.7533  0.7264  0.1112
  214MOL0     H28194  -0.415   2.077   1.299 -0.7620 -0.8141 -0.5963
  214MOL0     H28195  -0.237   2.035   1.160 -1.7734 -0.1554  2.6599
  214MOL0     H28196  -0.264   2.175   1.057 -0.4040  1.7802  1.5442
  214MOL0     H28197  -0.297   1.947   0.956  1.6311  2.0896  1.3590
  214MOL0     H28198  -0.443   1.922   1.052  1.0524 -1.7842 -2.0495
  214MOL0     H28199  -0.529   2.134   0.942  0.6363 -1.0849  1.2763
  214MOL0     H28200  -0.509   2.003   0.831 -0.8343  0.6251  0.8924
  214MOL0     H28201  -0.352   2.340   0.881 -1.1800  2.0756 -1.4053
  214MOL0     H28202  -0.233   2.489   0.715 -0.5708 -0.1883  0.0408
  214MOL0     H28203  -0.168   2.419   0.556 -0.4232  0.5512 -0.2860
  214MOL0     H28204   0.046   2.358   0.674  1.4462  1.2801 -0.0322
  214MOL0     H28205  -0.017   2.458   0.807 -0.3030  2.8856 -1.0375
  214MOL0     H28206  -0.031   2.585   0.539 -3.8851  0.8417  1.9381
  214MOL0     H28207  -0.013   2.659   0.699 -1.4433 -1.5153  2.3167
  214MOL0     H28208   0.210   2.528   0.544 -0.7536  1.8882 -0.6084
  214MOL0     H28209   0.219   2.542   0.722 -2.1722  1.5055  2.3703
  214MOL0     H28210   0.367   2.659   0.811 -1.1174  0.1769 -0.3317
  214MOL0     H28211   0.610   2.692   0.836 -1.7952 -2.3261 -0.9409
  214MOL0     H28212   0.990   3.035   0.702 -1.7071 -0.1737  1.0303
  214MOL0     H28213   1.239   3.038   0.717  0.5767 -0.6164 -0.2136
  214MOL0     H28214   1.486   2.948   1.015 -1.3076  1.4139  1.4722
  214MOL0     H28215   1.365   3.050   0.939  0.2333  1.1283  0.8632
  214MOL0     H28216   1.602   3.102   0.900  0.4378  0.5544 -1.9896
  214MOL0     H28217   1.524   3.089   0.740 -2.4157 -0.9382  0.1230
  214MOL0     H28218   1.609   2.846   0.741 -0.2509 -1.3774  1.7312
  214MOL0     H28219   1.688   2.881   0.900  1.7067 -1.3023 -0.8482
  214MOL0     H28220   1.758   3.056   0.676  0.6501 -0.2970 -1.3351
  214MOL0     H28221   1.858   3.008   0.821  2.4204 -0.8068 -3.2258
  214MOL0     H28222   1.854   2.769   0.736 -0.0175 -0.3235 -1.7179
  214MOL0     H28223   1.965   2.886   0.661 -1.4433  1.9068 -2.6960
  214MOL0     H28224   1.796   2.926   0.474  0.3088 -0.6224 -0.9657
  214MOL0     H28225   1.690   2.805   0.544  0.3891 -0.4776  0.6882
  214MOL0     H28226   1.947   2.780   0.391  1.0197  1.3624  2.0340
  214MOL0     H28227   1.912   2.656   0.521 -4.1957 -1.4485  1.1614
  214MOL0     H28228   1.749   2.695   0.257 -4.6562 -1.0813  1.1621
  214MOL0     H28229   1.689   2.625   0.389  0.1214 -1.4306 -0.4232
  214MOL0     H28230   1.235   2.682   0.950  2.4735  0.5467 -1.7793
  214MOL0     H28231   0.970   2.670   0.919 -2.2520  0.2652 -0.8627
  214MOL0     H28232   0.600   2.921   0.490 -0.4478  1.1521  1.6708
  214MOL0     H28233   0.363   2.844   0.439 -0.3173  3.2331  1.2938
  214MOL0     H28234   0.213   2.546   1.678  0.9901  0.3497  1.5319
  214MOL0     H28235   0.409   2.476   1.804  1.3715 -2.0855  1.6118
  214MOL0     H28236   0.840   2.374   1.945  3.0470 -0.8972  2.3454
  214MOL0     H28237   1.037   2.234   1.972  0.4830 -0.0629 -0.7898
  214MOL0     H28238   1.172   2.103   2.043 -0.8105  1.6493 -1.8370
  214MOL0     H28239   1.236   2.075   1.895 -2.6513  1.7510 -0.1604
  214MOL0     H28240   1.293   1.819   1.967  0.8689  1.7389 -3.5156
  214MOL0     H28241   1.392   1.946   2.034  0.7298  0.8880  0.9535
  214MOL0     H28242   1.132   1.827   2.166 -0.1818  2.8742  0.4525
  214MOL0     H28243   1.231   1.949   2.240  2.1882  0.3264  0.3391
  214MOL0     H28244   1.442   1.814   2.217  1.6094 -1.7385  5.5097
  214MOL0     H28245   1.319   1.759   2.332 -0.8732  1.0935 -0.2874
  214MOL0     H28246   1.368   1.458   2.019  1.4185 -0.6867  0.4437
  214MOL0     H28247   0.829   1.880   1.894 -0.4025 -1.1373  0.9170
  214MOL0     H28248   0.617   1.995   1.854  0.3367 -0.0189 -1.8786
  215MOL0     O28249   5.197   5.904   4.981 -0.4586  0.0263 -0.0193
  215MOL0     C28250   5.255   6.016   4.977  0.4366 -0.1171 -0.2871
  215MOL0     O28251   5.290   6.088   5.081  0.7994  0.1026 -0.3370
  215MOL0     C28252   5.289   6.026   5.208  0.3701 -1.3439  0.0210
  215MOL0     C28253   5.266   6.109   5.321  0.5527 -0.5977 -0.1126
  215MOL0     C28254   5.251   6.046   5.445  0.5725  0.4711  1.1953
  215MOL0     C28255   5.277   5.907   5.455 -0.2060  0.1359 -0.0440
  215MOL0     O28256   5.258   5.843   5.579  0.1606 -0.9064  0.2893
  215MOL0     C28257   5.297   5.913   5.699  0.3183  0.3607 -1.3612
  215MOL0     C28258   5.451   5.942   5.699  0.3440  0.6189 -0.3649
  215MOL0     C28259   5.532   5.813   5.660  0.0730 -0.0920 -0.4051
  215MOL0     C28260   5.683   5.837   5.645  0.3493  0.0699  0.9075
  215MOL0     C28261   5.773   5.806   5.766 -0.1825 -0.3045  0.2344
  215MOL0     C28262   5.917   5.835   5.730 -0.2565  0.9582  0.2413
  215MOL0     C28263   5.979   5.705   5.653  0.9272 -0.8493  0.0110
  215MOL0     C28264   6.126   5.725   5.643 -0.4074  0.2715  0.2132
  215MOL0     N28265   6.203   5.702   5.778 -0.1717  1.0683 -0.0031
  215MOL0     C28266   6.218   5.574   5.817 -0.8662 -0.6770 -0.1065
  215MOL0     C28267   6.274   5.583   5.935  0.0288  0.2625 -0.8921
  215MOL0     C28268   6.313   5.460   6.016  0.1822  0.6498 -0.4768
  215MOL0     C28269   6.464   5.438   6.017  0.2192  0.7496 -0.9024
  215MOL0     C28270   6.507   5.333   5.919  0.2541  0.5017  0.9125
  215MOL0     C28271   6.657   5.293   5.927 -0.4073 -0.0873  0.6521
  215MOL0     O28272   6.694   5.241   6.049  0.4062  0.2813 -0.2182
  215MOL0     C28273   6.827   5.203   6.083 -0.1394 -0.5022 -0.0414
  215MOL0     C28274   6.938   5.215   5.990 -0.4000 -0.1037 -0.6558
  215MOL0     C28275   7.067   5.170   6.031  0.1424  0.0765  1.0344
  215MOL0     C28276   7.098   5.120   6.160  1.0232 -0.5661  1.2855
  215MOL0     C28277   7.236   5.100   6.197  0.0633  0.4820 -0.3540
  215MOL0     O28278   7.345   5.125   6.105  1.0157 -0.9518  0.4734
  215MOL0     C28279   7.463   5.151   6.146 -0.3207  0.1889 -0.3186
  215MOL0     C28280   7.550   5.053   6.106  0.5488  0.2795  0.7448
  215MOL0     C28281   7.687   5.062   6.141  0.0098  0.1048 -0.7478
  215MOL0     C28282   7.733   5.185   6.196 -0.1047  0.5387  0.1148
  215MOL0     O28283   7.865   5.190   6.224 -0.4153 -0.4039  0.2624
  215MOL0     C28284   7.941   5.310   6.233  0.2202 -1.7521 -1.4997
  215MOL0     C28285   8.087   5.300   6.223  0.1356 -0.3019 -0.7228
  215MOL0     C28286   8.147   5.169   6.292 -0.2200 -0.7920 -0.2557
  215MOL0     C28287   8.297   5.162   6.278  0.0202 -0.0231  0.9363
  215MOL0     C28288   8.379   5.257   6.369 -0.6678  0.4192 -0.3714
  215MOL0     C28289   8.372   5.232   6.523 -0.1289 -0.1669  0.4717
  215MOL0     C28290   8.457   5.112   6.561  0.2042 -0.4948 -0.3764
  215MOL0     C28291   8.476   5.057   6.693 -0.1650  0.8141  0.4411
  215MOL0    Cl28292   8.592   4.913   6.663 -0.2003  0.1103 -0.5458
  215MOL0     C28293   7.640   5.284   6.242 -0.2093 -0.3055  0.6639
  215MOL0     C28294   7.502   5.255   6.218 -0.4297 -0.2953  0.0578
  215MOL0     O28295   7.252   5.058   6.308 -0.5199  0.3470  0.3216
  215MOL0     C28296   6.991   5.117   6.249  0.2316 -0.5092 -0.5627
  215MOL0     C28297   6.865   5.156   6.211  0.4787 -0.4791 -0.4869
  215MOL0     N28298   6.310   5.714   5.967  0.0204  0.6369  0.2130
  215MOL0     N28299   6.257   5.787   5.874  0.5033 -0.1006 -0.1593
  215MOL0     C28300   5.314   5.834   5.345 -0.4689 -0.1759  0.8068
  215MOL0     C28301   5.335   5.898   5.223  0.7305 -0.6673 -0.3528
  215MOL0     C28302   5.290   6.067   4.843 -0.3549 -0.1293 -0.4098
  215MOL0     C28303   5.190   6.072   4.746 -0.0093 -0.3613 -0.2718
  215MOL0     C28304   5.213   6.127   4.621 -0.2209 -1.0489 -0.3902
  215MOL0     C28305   5.345   6.167   4.594 -0.1810  0.0868  0.9129
  215MOL0     O28306   5.368   6.233   4.473 -0.3066  0.2716 -0.0982
  215MOL0     C28307   5.504   6.223   4.424 -0.4618  0.0927  0.7394
  215MOL0     C28308   5.540   6.077   4.378  0.2362  0.4843  0.7201
  215MOL0     C28309   5.439   5.998   4.292 -0.2426 -0.2973 -0.5999
  215MOL0     C28310   5.506   5.914   4.184  0.1478 -0.3494 -0.3794
  215MOL0     C28311   5.565   5.782   4.224  0.7815 -0.1825 -0.2734
  215MOL0     C28312   5.612   5.672   4.263 -0.0569 -0.1763  0.2487
  215MOL0     C28313   5.446   6.156   4.693 -0.6835  0.0640  0.3852
  215MOL0     C28314   5.416   6.120   4.823  0.5464 -1.4077 -0.3467
  215MOL0     H28315   5.241   6.212   5.302 -0.7456 -0.8272  0.2812
  215MOL0     H28316   5.201   6.103   5.523 -0.6836 -0.1351  0.8676
  215MOL0     H28317   5.267   5.848   5.782 -0.3678 -0.8207 -2.5143
  215MOL0     H28318   5.243   6.005   5.724  0.6648  0.1495  0.3112
  215MOL0     H28319   5.484   5.990   5.792  2.0654 -1.5069  0.1942
  215MOL0     H28320   5.464   6.029   5.634 -1.6353 -0.9614 -3.0946
  215MOL0     H28321   5.506   5.781   5.559  0.2052 -2.8989  0.3807
  215MOL0     H28322   5.525   5.734   5.735  0.5004  1.6841  1.6177
  215MOL0     H28323   5.727   5.777   5.565 -1.4258 -3.4483  2.3493
  215MOL0     H28324   5.701   5.944   5.629  0.5951  0.3601  2.8813
  215MOL0     H28325   5.769   5.697   5.778  1.8632 -0.6286 -1.3378
  215MOL0     H28326   5.745   5.863   5.855 -3.1286 -1.5105  0.1762
  215MOL0     H28327   5.963   5.836   5.830  1.5871  2.5479 -0.5729
  215MOL0     H28328   5.930   5.931   5.681 -0.8428  0.2836 -1.2824
  215MOL0     H28329   5.957   5.612   5.706  1.1335  0.3134  2.2288
  215MOL0     H28330   5.931   5.705   5.554 -2.2966 -1.4707  1.4362
  215MOL0     H28331   6.141   5.831   5.621  2.2692  0.2546  1.5244
  215MOL0     H28332   6.161   5.651   5.570 -1.0807  0.6596 -0.5111
  215MOL0     H28333   6.183   5.488   5.761 -0.7436 -1.2592  0.6825
  215MOL0     H28334   6.257   5.372   5.984 -2.1074 -0.0015  4.4298
  215MOL0     H28335   6.282   5.487   6.118 -1.1620 -2.6241  0.0960
  215MOL0     H28336   6.485   5.401   6.118 -0.7575  3.6206  0.4489
  215MOL0     H28337   6.518   5.532   6.009  1.4362  0.2518  0.8610
  215MOL0     H28338   6.455   5.237   5.912 -1.7414  1.6084 -1.7527
  215MOL0     H28339   6.499   5.375   5.818  1.2175 -3.5789 -1.0738
  215MOL0     H28340   6.702   5.391   5.909  1.8748 -1.5472 -2.4722
  215MOL0     H28341   6.674   5.238   5.834 -2.7872  3.8421 -2.4403
  215MOL0     H28342   6.920   5.246   5.888 -0.5854 -0.8947 -0.8728
  215MOL0     H28343   7.143   5.173   5.954  2.4708  1.4922  3.2183
  215MOL0     H28344   7.517   4.963   6.055  2.8410 -0.8406  1.1226
  215MOL0     H28345   7.753   4.977   6.123 -0.8402 -1.4770  2.7038
  215MOL0     H28346   7.914   5.356   6.329  1.1846 -1.8272 -1.1781
  215MOL0     H28347   7.905   5.386   6.163 -5.2504 -1.6296  0.9020
  215MOL0     H28348   8.122   5.392   6.270 -0.9069 -0.4801  0.4733
  215MOL0     H28349   8.112   5.291   6.117 -1.2528 -1.9769 -0.9744
  215MOL0     H28350   8.101   5.090   6.232  1.2341 -1.1274 -0.9622
  215MOL0     H28351   8.127   5.154   6.398 -1.7817 -2.6900 -0.7528
  215MOL0     H28352   8.334   5.061   6.297  2.3363  0.8377  1.2521
  215MOL0     H28353   8.322   5.177   6.172  0.1148 -3.3496  0.3754
  215MOL0     H28354   8.340   5.356   6.343 -0.7633  0.6412  0.6009
  215MOL0     H28355   8.486   5.259   6.346 -0.2185 -1.3379  1.3529
  215MOL0     H28356   8.271   5.216   6.561  0.8508 -4.3729  1.8307
  215MOL0     H28357   8.406   5.323   6.572 -1.7921 -0.0422  1.4874
  215MOL0     H28358   8.426   5.030   6.495 -1.0374  1.4678 -2.3639
  215MOL0     H28359   8.554   5.144   6.524 -0.2493  0.4727 -0.7709
  215MOL0     H28360   8.384   5.042   6.750 -0.1446  5.0866  1.9862
  215MOL0     H28361   8.533   5.131   6.750 -2.9921  1.0866  3.1995
  215MOL0     H28362   7.667   5.382   6.281  5.0359 -0.2227 -2.3070
  215MOL0     H28363   7.438   5.327   6.268  1.4465  0.5729  1.3226
  215MOL0     H28364   6.997   5.090   6.354 -2.7789  0.2992 -0.0913
  215MOL0     H28365   6.783   5.156   6.282  0.6126 -2.2373 -0.2964
  215MOL0     H28366   5.331   5.729   5.365  0.3501 -1.0162 -3.2489
  215MOL0     H28367   5.370   5.843   5.137  2.1463  2.8475 -2.2173
  215MOL0     H28368   5.094   6.032   4.776  0.0754  0.4583  1.1421
  215MOL0     H28369   5.133   6.127   4.548 -0.6712 -2.5414  0.0709
  215MOL0     H28370   5.579   6.245   4.500  0.5331 -1.5126  0.2810
  215MOL0     H28371   5.527   6.285   4.336  2.1264  0.9686  1.9292
  215MOL0     H28372   5.631   6.070   4.318  0.4529  0.4983  1.0444
  215MOL0     H28373   5.572   6.020   4.465  3.5986 -1.2732 -1.4462
  215MOL0     H28374   5.389   6.077   4.236  1.9378  2.3278  0.8991
  215MOL0     H28375   5.366   5.951   4.358 -1.5638  2.0837 -0.2485
  215MOL0     H28376   5.424   5.884   4.118  1.8339 -2.1444 -1.7579
  215MOL0     H28377   5.581   5.977   4.136  1.2457 -0.8738  0.5912
  215MOL0     H28378   5.638   5.569   4.278  1.4857  0.3201  1.2157
  215MOL0     H28379   5.549   6.190   4.697 -0.2341 -1.3368  2.0267
  215MOL0     H28380   5.487   6.142   4.902 -1.8795  0.4185  1.4875
  216MOL0     O28381   1.734   5.718   2.730  0.3513  0.1859 -0.7314
  216MOL0     C28382   1.768   5.624   2.803  1.0931 -0.3858  0.2376
  216MOL0     O28383   1.687   5.560   2.889 -0.4643  0.3286 -0.7520
  216MOL0     C28384   1.552   5.563   2.878  0.8860  1.3606 -0.2490
  216MOL0     C28385   1.482   5.560   2.759  1.2051  0.6060 -0.2272
  216MOL0     C28386   1.339   5.544   2.764  0.0151  0.2815 -0.2539
  216MOL0     C28387   1.274   5.537   2.888 -0.1949 -0.8862  0.4749
  216MOL0     O28388   1.135   5.510   2.895  0.5574 -0.2970 -0.1005
  216MOL0     C28389   1.100   5.399   2.982  0.0662 -0.3647  0.9515
  216MOL0     C28390   0.967   5.337   2.945 -0.4334  0.8832 -0.6719
  216MOL0     C28391   0.889   5.258   3.059  0.0719 -0.3779  0.1424
  216MOL0     C28392   0.791   5.154   3.001  0.6693 -0.9997 -0.3283
  216MOL0     C28393   0.741   5.077   3.119  0.3809 -0.5664  0.1457
  216MOL0     C28394   0.626   4.987   3.078  0.5083 -0.1696 -0.3915
  216MOL0     C28395   0.560   4.933   3.205  0.1619 -1.2308  0.5814
  216MOL0     C28396   0.658   4.904   3.330  0.4834 -0.3841  0.7037
  216MOL0     N28397   0.591   4.829   3.436  0.7403  0.1490  0.6415
  216MOL0     C28398   0.608   4.688   3.448 -0.1119 -0.4735 -0.1567
  216MOL0     C28399   0.536   4.657   3.565 -0.1756 -0.5647 -0.4883
  216MOL0     C28400   0.511   4.511   3.590  0.8217  0.3852  0.0229
  216MOL0     C28401   0.514   4.487   3.747 -0.4621  0.4396 -0.3366
  216MOL0     C28402   0.504   4.343   3.767  0.1474 -0.0083 -0.7325
  216MOL0     C28403   0.365   4.291   3.767 -0.0684  0.2126  0.3959
  216MOL0     O28404   0.358   4.143   3.757  0.6612  1.6196  0.5019
  216MOL0     C28405   0.237   4.091   3.738  0.6625 -0.6597  0.4915
  216MOL0     C28406   0.114   4.152   3.774 -0.9201  0.3459  0.8528
  216MOL0     C28407  -0.014   4.091   3.743 -0.1131  0.0281 -0.5626
  216MOL0     C28408  -0.005   3.968   3.673 -0.5644  1.0186 -0.6295
  216MOL0     C28409  -0.133   3.899   3.624  0.0130 -0.0018 -0.6523
  216MOL0     O28410  -0.128   3.782   3.550 -0.6429 -0.0725  0.1972
  216MOL0     C28411  -0.243   3.764   3.475  0.6278 -1.0598  0.2815
  216MOL0     C28412  -0.361   3.703   3.527  0.5418  0.1056 -0.3694
  216MOL0     C28413  -0.468   3.654   3.448 -0.3419 -0.8191  0.2923
  216MOL0     C28414  -0.470   3.700   3.316 -1.1285  1.2021  0.0795
  216MOL0     O28415  -0.572   3.645   3.244  0.1270  0.3413 -0.1882
  216MOL0     C28416  -0.542   3.605   3.105  0.5560  0.0985 -0.6559
  216MOL0     C28417  -0.661   3.549   3.026 -0.3900  0.3756 -0.0963
  216MOL0     C28418  -0.640   3.565   2.875 -0.2940 -0.0894  0.0171
  216MOL0     C28419  -0.738   3.477   2.800 -0.1844  0.3631  0.5566
  216MOL0     C28420  -0.709   3.479   2.656  0.3404  0.4273 -0.1222
  216MOL0     C28421  -0.801   3.388   2.577  0.3738  0.1317 -0.0252
  216MOL0     C28422  -0.775   3.397   2.431  0.6614 -0.7587 -0.0523
  216MOL0     C28423  -0.910   3.406   2.357 -0.5684 -1.0648 -0.9834
  216MOL0    Cl28424  -0.903   3.452   2.187  0.2810  0.3854  0.6337
  216MOL0     C28425  -0.372   3.785   3.264 -0.2352 -0.2060  0.3149
  216MOL0     C28426  -0.261   3.810   3.341 -1.7019  0.7979 -0.5895
  216MOL0     O28427  -0.230   3.957   3.661  0.5393  0.0276  0.4272
  216MOL0     C28428   0.117   3.899   3.668  0.5408  0.8062 -0.4347
  216MOL0     C28429   0.234   3.959   3.702 -1.0996  0.5401  0.5449
  216MOL0     N28430   0.478   4.773   3.614  0.1264  0.6459  1.0445
  216MOL0     N28431   0.499   4.868   3.530 -1.1589 -0.7008  0.2865
  216MOL0     C28432   1.352   5.538   3.003  1.2420  0.1490  0.3463
  216MOL0     C28433   1.490   5.550   2.996  1.1986 -0.1657  0.4796
  216MOL0     C28434   1.905   5.602   2.828 -1.0661 -0.3935 -1.1525
  216MOL0     C28435   1.962   5.562   2.947 -0.4476  1.0635  0.7640
  216MOL0     C28436   2.098   5.537   2.955 -0.0512  0.4207  0.5037
  216MOL0     C28437   2.183   5.570   2.852 -0.9472 -0.3399  0.2441
  216MOL0     O28438   2.317   5.541   2.867  0.3825 -0.1303  0.4910
  216MOL0     C28439   2.392   5.473   2.761  0.6112 -0.0525  0.4362
  216MOL0     C28440   2.463   5.567   2.668 -0.1344  0.1411  0.2756
  216MOL0     C28441   2.534   5.687   2.730  0.4662 -0.8388 -0.0321
  216MOL0     C28442   2.635   5.659   2.837  1.1504 -0.7199  0.4763
  216MOL0     C28443   2.738   5.560   2.811 -0.1240  0.1916 -0.2661
  216MOL0     C28444   2.841   5.504   2.773  1.1250  0.9158  0.1672
  216MOL0     C28445   2.135   5.630   2.735 -0.2634  0.0339  0.3050
  216MOL0     C28446   1.991   5.630   2.722 -0.2362 -0.2704 -0.2633
  216MOL0     H28447   1.531   5.560   2.662  0.1993 -1.4249 -0.7997
  216MOL0     H28448   1.279   5.527   2.675 -1.2291  2.6289  0.0668
  216MOL0     H28449   1.079   5.438   3.082 -0.1366 -0.7418  1.0555
  216MOL0     H28450   1.175   5.320   2.989  3.4012  2.4126 -0.6503
  216MOL0     H28451   0.994   5.263   2.869  0.2531  2.2536 -1.8274
  216MOL0     H28452   0.904   5.406   2.887  0.1354  0.6304 -1.6095
  216MOL0     H28453   0.840   5.334   3.121  1.7895  3.0257 -2.2914
  216MOL0     H28454   0.969   5.208   3.115  1.5291  0.7611 -0.8403
  216MOL0     H28455   0.703   5.199   2.954 -0.8507 -4.3565 -1.0155
  216MOL0     H28456   0.833   5.086   2.926 -0.4162 -1.9534 -0.1024
  216MOL0     H28457   0.716   5.155   3.192  5.5894  1.0732  0.6165
  216MOL0     H28458   0.821   5.022   3.170 -0.3257 -2.2552 -0.5097
  216MOL0     H28459   0.651   4.909   3.005 -2.1036  0.0509 -1.6286
  216MOL0     H28460   0.554   5.048   3.023  1.9323  0.5630 -1.5323
  216MOL0     H28461   0.491   5.010   3.240  1.0541 -0.4186  0.6102
  216MOL0     H28462   0.512   4.838   3.182  1.1554 -1.6002 -0.0260
  216MOL0     H28463   0.692   5.001   3.366 -2.6496  1.6134 -1.2158
  216MOL0     H28464   0.733   4.834   3.290  0.9789  0.0377  0.8903
  216MOL0     H28465   0.661   4.619   3.383 -3.0920 -1.0495 -2.1668
  216MOL0     H28466   0.597   4.456   3.551 -0.2229 -1.3036  0.0131
  216MOL0     H28467   0.420   4.482   3.537  1.1184 -1.5114  0.4672
  216MOL0     H28468   0.427   4.537   3.789 -1.4991 -0.0387 -1.8371
  216MOL0     H28469   0.604   4.536   3.785  0.5660 -0.6302 -1.2752
  216MOL0     H28470   0.580   4.291   3.709 -0.9890 -0.8277 -1.5148
  216MOL0     H28471   0.549   4.320   3.864  0.5870 -2.9331 -1.5330
  216MOL0     H28472   0.312   4.326   3.678  0.5557 -2.5426 -1.1840
  216MOL0     H28473   0.314   4.324   3.858 -2.5547 -1.9380 -0.1124
  216MOL0     H28474   0.108   4.258   3.799 -0.0485  0.3283  1.1671
  216MOL0     H28475  -0.105   4.149   3.758 -0.0631 -0.2962  1.1400
  216MOL0     H28476  -0.375   3.670   3.629  0.4516 -1.2869 -0.8156
  216MOL0     H28477  -0.537   3.579   3.485 -0.2319 -0.5187  1.1308
  216MOL0     H28478  -0.457   3.537   3.120 -0.7806 -1.1255  1.7906
  216MOL0     H28479  -0.508   3.690   3.046  0.2693 -0.7595 -2.1071
  216MOL0     H28480  -0.754   3.596   3.061  0.3384  0.6242  1.5702
  216MOL0     H28481  -0.658   3.441   3.042 -0.4127  0.3927  0.0267
  216MOL0     H28482  -0.543   3.534   2.836 -0.7384  0.5376 -1.6980
  216MOL0     H28483  -0.634   3.670   2.846 -0.5279  0.0654  0.5121
  216MOL0     H28484  -0.740   3.377   2.843  0.4900  0.3438  0.5662
  216MOL0     H28485  -0.834   3.525   2.822  1.4643  4.8850 -0.8459
  216MOL0     H28486  -0.608   3.440   2.640 -1.0314 -2.2006 -3.6417
  216MOL0     H28487  -0.727   3.581   2.621 -1.8296  0.4780  0.9443
  216MOL0     H28488  -0.906   3.412   2.593  0.0960 -0.8827 -0.2922
  216MOL0     H28489  -0.794   3.282   2.603  0.5669  0.0447 -0.4146
  216MOL0     H28490  -0.713   3.481   2.399  3.3134 -2.8198 -0.6594
  216MOL0     H28491  -0.718   3.312   2.394 -1.3495 -2.5942  0.8029
  216MOL0     H28492  -0.962   3.492   2.400  2.7700  1.6132 -1.8819
  216MOL0     H28493  -0.971   3.318   2.382  1.4399 -2.4430 -0.7326
  216MOL0     H28494  -0.368   3.822   3.162 -0.8037 -3.8917 -1.2129
  216MOL0     H28495  -0.193   3.876   3.289 -2.0013  0.8323 -0.9438
  216MOL0     H28496   0.115   3.801   3.623  0.9686  0.6900 -0.2042
  216MOL0     H28497   0.330   3.911   3.685 -2.4686 -2.2506  0.0811
  216MOL0     H28498   1.303   5.522   3.099 -2.1661 -1.7041 -1.5215
  216MOL0     H28499   1.538   5.524   3.090 -1.8409  2.5127  3.0455
  216MOL0     H28500   1.900   5.552   3.035 -1.2520  2.9393  0.4482
  216MOL0     H28501   2.141   5.502   3.048  1.0494  0.4889  0.0389
  216MOL0     H28502   2.325   5.410   2.700 -1.2058 -2.2787  4.3522
  216MOL0     H28503   2.458   5.417   2.827 -0.8858 -0.2465  1.8128
  216MOL0     H28504   2.534   5.517   2.602  0.2706 -1.6036  1.9526
  216MOL0     H28505   2.385   5.605   2.602 -1.0436 -0.6812  0.8422
  216MOL0     H28506   2.455   5.752   2.767  1.4044  0.9771 -1.0817
  216MOL0     H28507   2.576   5.744   2.646 -0.0555 -0.2311  0.1159
  216MOL0     H28508   2.683   5.755   2.858 -1.1403  2.3074 -5.5984
  216MOL0     H28509   2.581   5.618   2.922 -1.0244  0.1880 -0.3737
  216MOL0     H28510   2.928   5.454   2.738  0.1634 -0.2373 -0.6486
  216MOL0     H28511   2.190   5.663   2.647 -0.0775 -0.8200  0.0870
  216MOL0     H28512   1.944   5.655   2.628 -1.6351 -2.0229 -0.0718
  217MOL0     O28513   4.316   0.771   3.493  0.2783  0.3614  0.0026
  217MOL0     C28514   4.385   0.682   3.538  0.2971  0.1483 -0.3713
  217MOL0     O28515   4.342   0.588   3.629  0.7736  0.0539  0.9729
  217MOL0     C28516   4.214   0.557   3.647 -0.0219  0.0396 -0.3426
  217MOL0     C28517   4.098   0.595   3.570 -0.0034  0.1576  0.1838
  217MOL0     C28518   3.972   0.549   3.614 -0.7923  0.0656 -0.3735
  217MOL0     C28519   3.946   0.476   3.728 -0.2224 -0.9348 -0.2283
  217MOL0     O28520   3.827   0.445   3.784  0.6376  0.0726 -0.6045
  217MOL0     C28521   3.717   0.444   3.692 -0.4442 -0.1982  0.5351
  217MOL0     C28522   3.586   0.417   3.762  0.4121  0.2542 -0.2988
  217MOL0     C28523   3.454   0.444   3.677  0.2259  0.0175 -0.7638
  217MOL0     C28524   3.423   0.339   3.573 -0.8207  0.0550 -0.2804
  217MOL0     C28525   3.280   0.344   3.532  0.1309  1.0098 -0.3519
  217MOL0     C28526   3.235   0.239   3.440 -0.4545  0.1045  0.4200
  217MOL0     C28527   3.082   0.241   3.413 -0.5436  0.3586 -0.2175
  217MOL0     C28528   3.052   0.357   3.315 -0.8280  0.3660  1.2190
  217MOL0     N28529   2.913   0.344   3.247 -0.0194  0.6372 -0.1966
  217MOL0     C28530   2.797   0.280   3.292  0.0407 -0.1682 -1.0151
  217MOL0     C28531   2.704   0.308   3.199  0.2920 -0.3662  0.1107
  217MOL0     C28532   2.566   0.269   3.222  0.7340  0.0870  1.3807
  217MOL0     C28533   2.482   0.396   3.225  0.2300  0.4487  0.5551
  217MOL0     C28534   2.341   0.376   3.267 -0.0992 -0.4474 -0.2702
  217MOL0     C28535   2.265   0.510   3.250 -0.0653 -0.0598  0.0439
  217MOL0     O28536   2.145   0.527   3.331  0.2629 -0.1526  0.2153
  217MOL0     C28537   2.037   0.461   3.282 -0.1174 -0.5997  0.1813
  217MOL0     C28538   1.978   0.465   3.157 -0.5476  0.3103  0.1669
  217MOL0     C28539   1.849   0.413   3.147 -0.6163  0.1310 -0.2567
  217MOL0     C28540   1.773   0.362   3.252  0.5585 -0.6790  0.3776
  217MOL0     C28541   1.634   0.306   3.226 -0.3416  0.1063 -0.6818
  217MOL0     O28542   1.574   0.264   3.333  0.1863  0.0855  0.5775
  217MOL0     C28543   1.442   0.223   3.324  1.1238  0.3381  0.1955
  217MOL0     C28544   1.399   0.128   3.228 -0.2168 -1.2840  0.1536
  217MOL0     C28545   1.275   0.085   3.234  0.4099 -0.0300  0.3430
  217MOL0     C28546   1.180   0.134   3.323 -0.5342  0.6052  0.4148
  217MOL0     O28547   1.064   0.072   3.312 -0.2440 -0.6562  0.0218
  217MOL0     C28548   0.964   0.079   3.420 -1.0896  0.7957 -0.7301
  217MOL0     C28549   0.851  -0.008   3.392  0.2732  0.2735 -0.1023
  217MOL0     C28550   0.794   0.025   3.249  0.6872 -0.6076  0.0468
  217MOL0     C28551   0.699  -0.083   3.205 -0.4196  0.1948 -0.3128
  217MOL0     C28552   0.659  -0.040   3.062 -0.6205  0.6641 -0.5982
  217MOL0     C28553   0.582  -0.154   2.993 -0.4077  0.1397  0.0306
  217MOL0     C28554   0.470  -0.116   2.914 -0.5599 -0.8595 -0.2543
  217MOL0     C28555   0.504  -0.037   2.780  0.5853 -0.3030 -0.3274
  217MOL0    Cl28556   0.350   0.016   2.709 -0.3113 -0.4671  0.1583
  217MOL0     C28557   1.209   0.236   3.410 -0.5325 -0.1880 -0.4239
  217MOL0     C28558   1.346   0.272   3.420 -0.5076  1.1608 -0.3773
  217MOL0     O28559   1.590   0.306   3.113  0.6012 -0.0620  0.0848
  217MOL0     C28560   1.840   0.338   3.367 -0.8987 -1.1824 -0.1632
  217MOL0     C28561   1.972   0.387   3.378 -0.1198  0.5196 -0.0760
  217MOL0     N28562   2.765   0.350   3.085  0.4795 -0.0711  0.4725
  217MOL0     N28563   2.881   0.392   3.122  0.6011 -0.2718 -0.4796
  217MOL0     C28564   4.061   0.431   3.798  1.0305 -1.0409  0.2634
  217MOL0     C28565   4.187   0.468   3.755  0.0389  0.1284  0.5705
  217MOL0     C28566   4.523   0.677   3.507  0.1010  0.3479 -0.1182
  217MOL0     C28567   4.602   0.566   3.532  0.3539  0.3486 -0.0731
  217MOL0     C28568   4.736   0.558   3.504  0.4702  1.2184  0.0903
  217MOL0     C28569   4.809   0.662   3.444  0.5423 -0.6010 -0.2535
  217MOL0     O28570   4.943   0.658   3.413  0.3166  0.7826 -0.2873
  217MOL0     C28571   5.031   0.600   3.502  0.0762 -0.1252 -0.2708
  217MOL0     C28572   5.063   0.464   3.457 -0.0492 -0.2940 -0.4932
  217MOL0     C28573   5.124   0.459   3.320  0.0333  0.3023  0.1896
  217MOL0     C28574   5.264   0.513   3.289  0.1563  0.3687 -0.2572
  217MOL0     C28575   5.310   0.466   3.163 -1.1895  0.0713  0.2692
  217MOL0     C28576   5.341   0.429   3.050 -0.3621 -0.4112  0.7665
  217MOL0     C28577   4.725   0.770   3.404  0.4836 -0.1538  0.2276
  217MOL0     C28578   4.585   0.778   3.440  0.6694  0.2689  0.0401
  217MOL0     H28579   4.104   0.650   3.476  0.1812  0.7103  0.5170
  217MOL0     H28580   3.883   0.584   3.561 -1.2551  3.7953  2.4143
  217MOL0     H28581   3.737   0.365   3.619  0.4476 -0.8405  1.4484
  217MOL0     H28582   3.708   0.543   3.647  2.3397 -0.4279 -0.7085
  217MOL0     H28583   3.572   0.486   3.845 -0.9345  0.2676 -0.5173
  217MOL0     H28584   3.586   0.316   3.804 -4.3060 -0.0002 -0.3387
  217MOL0     H28585   3.443   0.545   3.637 -3.6845  0.3659  0.7163
  217MOL0     H28586   3.377   0.446   3.756  2.5624 -0.9230  1.6950
  217MOL0     H28587   3.490   0.351   3.487 -0.4719 -0.4594 -0.0819
  217MOL0     H28588   3.453   0.243   3.616 -0.8070  1.1105  2.2353
  217MOL0     H28589   3.261   0.444   3.493  2.8102  1.2000 -1.3105
  217MOL0     H28590   3.220   0.327   3.623  3.7926 -1.9434  1.7989
  217MOL0     H28591   3.257   0.146   3.492 -0.0767  0.3908  0.7732
  217MOL0     H28592   3.295   0.238   3.348  0.1066 -0.6374  0.7893
  217MOL0     H28593   3.039   0.146   3.379 -2.8801  0.6587  1.6237
  217MOL0     H28594   3.031   0.267   3.506 -1.5142 -1.6158 -0.1441
  217MOL0     H28595   3.132   0.360   3.241 -2.4427  1.0766 -0.5799
  217MOL0     H28596   3.059   0.452   3.370  0.6029 -0.7364  3.0735
  217MOL0     H28597   2.784   0.242   3.393  0.3504 -3.8152 -2.2076
  217MOL0     H28598   2.550   0.234   3.324 -1.4062  0.3798  1.1882
  217MOL0     H28599   2.533   0.204   3.140 -0.6803  0.4210  1.6673
  217MOL0     H28600   2.485   0.452   3.131 -1.0481  0.5632  0.5647
  217MOL0     H28601   2.530   0.461   3.299  0.3446 -0.7138  1.5408
  217MOL0     H28602   2.283   0.312   3.199 -3.5744  1.9948  0.1064
  217MOL0     H28603   2.337   0.349   3.372 -2.8714  2.7367  0.6207
  217MOL0     H28604   2.228   0.496   3.148 -0.9596 -1.9525  0.5668
  217MOL0     H28605   2.335   0.593   3.258  0.5409 -0.6942  2.2979
  217MOL0     H28606   2.020   0.513   3.069  2.1791 -0.3367  1.0291
  217MOL0     H28607   1.798   0.434   3.054  0.2254  0.2824 -0.6928
  217MOL0     H28608   1.466   0.099   3.148 -1.1326 -2.8515 -0.0856
  217MOL0     H28609   1.245   0.014   3.157  1.1330  2.2162 -2.1687
  217MOL0     H28610   0.924   0.181   3.422  1.6324  1.9125  0.8142
  217MOL0     H28611   1.011   0.047   3.513  2.1580  0.4157 -2.3754
  217MOL0     H28612   0.774  -0.003   3.470 -2.3835 -1.4227 -2.3955
  217MOL0     H28613   0.890  -0.110   3.393  2.6906  1.1522  0.5429
  217MOL0     H28614   0.872   0.030   3.173  0.7617  0.3929  0.1776
  217MOL0     H28615   0.750   0.125   3.252  0.7086 -0.5827 -0.4069
  217MOL0     H28616   0.748  -0.181   3.201 -1.0360 -0.1146 -0.3926
  217MOL0     H28617   0.608  -0.091   3.265 -1.2553 -1.8127 -1.7256
  217MOL0     H28618   0.744  -0.025   2.995 -1.3500  3.1092 -1.0505
  217MOL0     H28619   0.590   0.045   3.065  0.1746  1.4842 -3.3265
  217MOL0     H28620   0.526  -0.212   3.067 -3.4053 -0.3343 -2.4100
  217MOL0     H28621   0.653  -0.222   2.946 -1.2209 -0.0663 -0.9338
  217MOL0     H28622   0.408  -0.201   2.882  1.2004 -1.8760 -1.1182
  217MOL0     H28623   0.406  -0.045   2.967 -0.6857  0.7221 -2.3778
  217MOL0     H28624   0.553  -0.105   2.709  2.4140  0.9754 -0.3469
  217MOL0     H28625   0.565   0.051   2.803 -1.6338  2.5502 -4.1906
  217MOL0     H28626   1.126   0.274   3.469 -1.5500 -1.2185 -1.1545
  217MOL0     H28627   1.379   0.331   3.504 -1.1180 -0.9329  1.4315
  217MOL0     H28628   1.789   0.303   3.457  0.0259  2.8004  2.1687
  217MOL0     H28629   2.020   0.386   3.475  0.5995 -3.7170 -0.3137
  217MOL0     H28630   4.048   0.378   3.891 -0.2149 -1.1238  0.0616
  217MOL0     H28631   4.265   0.427   3.820  0.2160 -0.8834 -0.2558
  217MOL0     H28632   4.565   0.486   3.595 -1.0419 -0.8221 -2.2759
  217MOL0     H28633   4.793   0.475   3.543 -2.7484 -1.5453 -0.6144
  217MOL0     H28634   4.985   0.603   3.602  0.8716 -0.5216  0.1134
  217MOL0     H28635   5.121   0.661   3.507 -0.3744  0.5089  4.4454
  217MOL0     H28636   5.129   0.406   3.523 -1.1683 -2.0639 -0.8804
  217MOL0     H28637   4.968   0.411   3.448 -0.3360  0.3477 -1.3787
  217MOL0     H28638   5.061   0.525   3.259  1.0735  0.7488 -0.4347
  217MOL0     H28639   5.112   0.354   3.292  1.4469 -0.0599  0.8482
  217MOL0     H28640   5.255   0.622   3.288 -4.1858  0.2075 -1.6051
  217MOL0     H28641   5.329   0.479   3.370  0.4108 -2.3386 -1.5030
  217MOL0     H28642   5.380   0.401   2.954 -2.5193  0.2141 -0.3748
  217MOL0     H28643   4.794   0.844   3.365  2.1984 -1.8995 -0.1743
  217MOL0     H28644   4.532   0.867   3.407  0.9024 -0.9634 -4.2228
  218MOL0     O28645   0.759   0.993   3.523 -0.2510 -0.1626  0.2472
  218MOL0     C28646   0.841   1.064   3.465 -0.0061 -1.1356  0.1257
  218MOL0     O28647   0.812   1.170   3.380 -0.2140 -0.1727  0.7490
  218MOL0     C28648   0.679   1.209   3.357 -0.0598 -0.1696 -0.2007
  218MOL0     C28649   0.567   1.131   3.380 -0.4008 -0.4888 -0.4820
  218MOL0     C28650   0.441   1.192   3.373 -0.3832  0.1868 -0.5961
  218MOL0     C28651   0.422   1.329   3.341 -0.2492 -0.4061 -0.5439
  218MOL0     O28652   0.302   1.392   3.329  0.1774 -0.0896  0.0009
  218MOL0     C28653   0.222   1.381   3.443 -0.8944  0.2133  0.4024
  218MOL0     C28654   0.095   1.457   3.412  0.6142  0.5377  0.7711
  218MOL0     C28655   0.027   1.388   3.288 -0.0269  0.2222 -0.4072
  218MOL0     C28656  -0.104   1.463   3.257 -0.1272  0.1084 -1.2175
  218MOL0     C28657  -0.187   1.363   3.170  1.2711  0.7697 -0.3993
  218MOL0     C28658  -0.244   1.252   3.255 -0.8052 -0.1481  0.5718
  218MOL0     C28659  -0.352   1.170   3.183 -0.3940 -0.0218  0.2627
  218MOL0     C28660  -0.410   1.068   3.286 -0.1720 -0.7302 -0.0424
  218MOL0     N28661  -0.524   0.991   3.220 -0.0259 -0.4988 -0.2601
  218MOL0     C28662  -0.539   0.854   3.244 -0.1652 -0.6149  0.2659
  218MOL0     C28663  -0.661   0.820   3.207  0.1536 -0.4636  0.9086
  218MOL0     C28664  -0.705   0.680   3.187 -0.7289  0.3427  0.1455
  218MOL0     C28665  -0.855   0.673   3.181  0.3483  0.6443  0.0775
  218MOL0     C28666  -0.905   0.531   3.234 -1.2259 -0.2079  0.2217
  218MOL0     C28667  -1.032   0.491   3.166 -0.1480  0.1905  1.4590
  218MOL0     O28668  -1.125   0.602   3.193 -0.2815 -0.6603 -0.2776
  218MOL0     C28669  -1.231   0.588   3.276  0.0002  0.6541 -0.0990
  218MOL0     C28670  -1.363   0.632   3.226 -0.4556  0.2922 -0.0366
  218MOL0     C28671  -1.470   0.599   3.308  0.7790  0.7436 -0.0772
  218MOL0     C28672  -1.473   0.537   3.439  0.2172 -0.5648 -0.8153
  218MOL0     C28673  -1.592   0.513   3.535  0.2861 -0.1373  0.4175
  218MOL0     O28674  -1.574   0.420   3.625 -0.0296  0.2856  0.1861
  218MOL0     C28675  -1.681   0.369   3.710 -0.7336 -0.0558  0.2274
  218MOL0     C28676  -1.816   0.368   3.676  0.3706  0.7202 -0.1193
  218MOL0     C28677  -1.909   0.304   3.765  0.5132  1.0897 -0.3670
  218MOL0     C28678  -1.869   0.253   3.893  0.1738 -0.0702  1.3211
  218MOL0     O28679  -1.958   0.206   3.986 -1.3504  0.3864 -1.0810
  218MOL0     C28680  -2.089   0.254   3.981 -0.1344  0.5796 -0.3739
  218MOL0     C28681  -2.156   0.221   4.116 -0.5780  0.8057 -1.3778
  218MOL0     C28682  -2.296   0.271   4.139  0.2233 -0.2224  0.4344
  218MOL0     C28683  -2.362   0.238   4.277 -1.1079 -0.2441 -0.9110
  218MOL0     C28684  -2.492   0.315   4.296  1.0207 -0.3838  0.4972
  218MOL0     C28685  -2.572   0.257   4.407  0.1218 -0.0455 -0.4645
  218MOL0     C28686  -2.705   0.319   4.429 -0.0492 -0.4054  0.3783
  218MOL0     C28687  -2.783   0.256   4.549  0.0435 -0.6362  0.3309
  218MOL0    Cl28688  -2.949   0.306   4.569  0.1308  0.2423  0.6171
  218MOL0     C28689  -1.731   0.256   3.918  0.5148  0.2943  0.3317
  218MOL0     C28690  -1.640   0.308   3.825 -0.4432 -0.2471  0.0413
  218MOL0     O28691  -1.696   0.576   3.522 -0.4255  0.3018 -0.7922
  218MOL0     C28692  -1.348   0.487   3.476 -0.2760 -0.9025 -0.4418
  218MOL0     C28693  -1.229   0.521   3.399 -0.5318 -0.3970  0.2316
  218MOL0     N28694  -0.722   0.935   3.152  0.0051 -0.3783  0.0436
  218MOL0     N28695  -0.638   1.036   3.162  0.2133  0.1927  0.0809
  218MOL0     C28696   0.535   1.398   3.298 -0.1313  0.3539 -0.3651
  218MOL0     C28697   0.660   1.340   3.311  0.4382 -0.7268 -0.8871
  218MOL0     C28698   0.988   1.032   3.500 -0.0116 -0.7793  0.6138
  218MOL0     C28699   1.098   1.119   3.461  0.8436 -0.0327  0.4098
  218MOL0     C28700   1.229   1.081   3.484 -0.9495  0.6427  0.5242
  218MOL0     C28701   1.258   0.961   3.556 -0.3298 -0.0911 -0.5879
  218MOL0     O28702   1.386   0.919   3.592 -0.0235  0.5943  0.8428
  218MOL0     C28703   1.488   1.018   3.599  0.6755  1.0293  0.6507
  218MOL0     C28704   1.611   0.960   3.684  0.1752  0.4495  0.0107
  218MOL0     C28705   1.742   1.041   3.664  0.3377  0.2193 -0.5255
  218MOL0     C28706   1.794   1.053   3.516  0.5848  0.2149  0.5848
  218MOL0     C28707   1.855   0.926   3.482  0.3115  0.4572  0.2970
  218MOL0     C28708   1.917   0.819   3.468 -0.1020  0.3179 -0.3351
  218MOL0     C28709   1.159   0.871   3.591  0.5728  0.0749  0.2730
  218MOL0     C28710   1.027   0.910   3.558  0.7557  0.0035 -0.2399
  218MOL0     H28711   0.565   1.029   3.416 -0.4784 -0.2570  0.1875
  218MOL0     H28712   0.359   1.121   3.385  0.5756 -0.7487  0.7973
  218MOL0     H28713   0.269   1.436   3.525  3.4758  0.2015 -1.7932
  218MOL0     H28714   0.201   1.280   3.478  0.9973 -0.9205 -1.4668
  218MOL0     H28715   0.116   1.564   3.399 -1.2363  0.8909  0.4632
  218MOL0     H28716   0.034   1.458   3.502 -3.4992 -1.4597 -1.7267
  218MOL0     H28717   0.019   1.284   3.321  2.1530  0.4840  1.1323
  218MOL0     H28718   0.084   1.394   3.195  0.1049  1.3117 -0.2674
  218MOL0     H28719  -0.151   1.505   3.346  2.3861  3.2709 -1.1758
  218MOL0     H28720  -0.088   1.558   3.205 -1.6315 -0.0561 -2.0657
  218MOL0     H28721  -0.126   1.321   3.090  0.6337 -0.8952 -0.0439
  218MOL0     H28722  -0.277   1.415   3.134  1.3353  0.6646 -0.7113
  218MOL0     H28723  -0.285   1.298   3.345  0.6887  1.9806  0.2590
  218MOL0     H28724  -0.166   1.183   3.287  0.8359  1.2939 -0.1661
  218MOL0     H28725  -0.434   1.232   3.146  1.0905  0.6271 -2.1336
  218MOL0     H28726  -0.312   1.111   3.100 -2.4135  0.6297 -1.2482
  218MOL0     H28727  -0.438   1.126   3.374 -1.6872 -0.4619 -0.6714
  218MOL0     H28728  -0.331   1.004   3.326 -0.1912  0.9168  2.8857
  218MOL0     H28729  -0.470   0.787   3.294  0.0299  0.3630  1.3503
  218MOL0     H28730  -0.672   0.612   3.266  0.9123 -0.2309 -0.9857
  218MOL0     H28731  -0.663   0.645   3.092 -1.4394 -2.1092  0.6502
  218MOL0     H28732  -0.885   0.698   3.079  3.8688  0.2492 -1.1895
  218MOL0     H28733  -0.891   0.747   3.252  3.8089  0.6784  2.0490
  218MOL0     H28734  -0.829   0.456   3.212  1.8789  2.2777  1.5327
  218MOL0     H28735  -0.916   0.537   3.343  1.5378  2.1350  0.5129
  218MOL0     H28736  -1.064   0.394   3.205  0.7543 -0.8050 -0.1835
  218MOL0     H28737  -1.010   0.487   3.059  1.5920 -0.1910  1.8037
  218MOL0     H28738  -1.374   0.677   3.128 -1.1375  0.2170  0.0043
  218MOL0     H28739  -1.565   0.628   3.265  1.9276  2.8318 -1.3590
  218MOL0     H28740  -1.858   0.409   3.585 -1.9890 -2.0511 -0.4580
  218MOL0     H28741  -2.015   0.305   3.743 -0.2217 -3.4329  1.7094
  218MOL0     H28742  -2.151   0.221   3.898 -1.9110 -2.3480  1.8912
  218MOL0     H28743  -2.074   0.362   3.971  0.5365  0.5151 -0.1131
  218MOL0     H28744  -2.099   0.274   4.193 -3.0713  2.0889 -0.2854
  218MOL0     H28745  -2.163   0.116   4.144  0.8726  0.3538 -2.5622
  218MOL0     H28746  -2.360   0.229   4.062  1.7572  0.1303 -1.1086
  218MOL0     H28747  -2.282   0.379   4.128 -1.0923 -0.0805  0.0120
  218MOL0     H28748  -2.380   0.131   4.264 -0.9844 -0.2183 -1.3262
  218MOL0     H28749  -2.297   0.249   4.364 -3.8575  1.0347  1.1265
  218MOL0     H28750  -2.553   0.306   4.206  0.4233  2.3418  0.5368
  218MOL0     H28751  -2.476   0.423   4.310 -0.6788 -0.0677  0.2249
  218MOL0     H28752  -2.508   0.257   4.496  0.1719  0.9767 -0.4900
  218MOL0     H28753  -2.603   0.156   4.381 -2.3300 -0.0407  1.9719
  218MOL0     H28754  -2.698   0.428   4.435 -1.5485 -0.3115  0.9984
  218MOL0     H28755  -2.756   0.299   4.334 -0.7870 -0.4101  0.7633
  218MOL0     H28756  -2.729   0.284   4.641 -0.1225 -1.1492  0.5910
  218MOL0     H28757  -2.776   0.148   4.533 -1.1360 -0.1195 -6.1015
  218MOL0     H28758  -1.678   0.223   4.007 -0.3646 -0.8241  0.4615
  218MOL0     H28759  -1.535   0.304   3.850 -0.5435 -0.5006  0.4261
  218MOL0     H28760  -1.338   0.428   3.567 -1.3531 -0.8920 -0.2977
  218MOL0     H28761  -1.134   0.471   3.414  0.8521  1.1628 -2.6348
  218MOL0     H28762   0.519   1.491   3.244 -1.9084 -1.1595 -2.6293
  218MOL0     H28763   0.746   1.402   3.291  0.0321 -0.3152 -1.3803
  218MOL0     H28764   1.083   1.214   3.411 -5.7498 -1.4373 -1.2368
  218MOL0     H28765   1.302   1.143   3.432 -2.3271  0.3793 -1.8717
  218MOL0     H28766   1.448   1.107   3.648 -2.3785 -0.6856  1.5563
  218MOL0     H28767   1.534   1.054   3.507  2.8734  0.3244  1.4102
  218MOL0     H28768   1.597   0.965   3.793  0.9337 -0.1316  0.1497
  218MOL0     H28769   1.618   0.855   3.653  0.8916 -0.4310  2.7739
  218MOL0     H28770   1.822   1.028   3.737 -0.1667  2.8782  0.6214
  218MOL0     H28771   1.706   1.135   3.706 -2.5752 -1.9376  2.3235
  218MOL0     H28772   1.718   1.078   3.441  3.0459  3.7109 -1.0452
  218MOL0     H28773   1.869   1.133   3.513 -0.1560  0.9647  1.5007
  218MOL0     H28774   1.965   0.725   3.450 -0.4133  0.3472 -1.3376
  218MOL0     H28775   1.164   0.772   3.636 -2.4994 -0.0417  0.5882
  218MOL0     H28776   0.939   0.856   3.592 -1.9469  2.5542 -2.6707
  219MOL0     O28777   2.654   5.486   6.544  0.0113  0.5332  0.2191
  219MOL0     C28778   2.663   5.610   6.522  0.3584 -0.0373  0.1373
  219MOL0     O28779   2.603   5.713   6.592 -0.4700  0.1336  0.2520
  219MOL0     C28780   2.498   5.700   6.678 -0.0676 -0.4241 -0.1272
  219MOL0     C28781   2.460   5.820   6.743 -0.2035 -0.6488 -0.0972
  219MOL0     C28782   2.356   5.825   6.839 -0.0593 -0.5474  0.7606
  219MOL0     C28783   2.277   5.707   6.863  0.4027  0.7820 -0.1055
  219MOL0     O28784   2.176   5.714   6.948  0.1786 -0.1823  0.2166
  219MOL0     C28785   2.152   5.834   7.030 -0.7382  0.8609 -0.0701
  219MOL0     C28786   2.065   5.807   7.146  0.4991  0.1248  0.0933
  219MOL0     C28787   1.916   5.814   7.107 -0.4472  0.0805  0.6794
  219MOL0     C28788   1.816   5.774   7.216  0.2973  0.4606 -0.1579
  219MOL0     C28789   1.670   5.788   7.176  0.3169  1.0263 -0.2798
  219MOL0     C28790   1.569   5.681   7.246 -0.9451 -1.1028  0.0282
  219MOL0     C28791   1.441   5.655   7.153 -0.4602  0.7700 -0.7576
  219MOL0     C28792   1.358   5.531   7.197 -0.5838  0.0400 -0.2884
  219MOL0     N28793   1.270   5.562   7.306  0.0768 -0.1381 -0.5174
  219MOL0     C28794   1.290   5.519   7.431 -0.2100 -0.7231  0.5438
  219MOL0     C28795   1.194   5.572   7.510  0.5527  0.4358  1.1062
  219MOL0     C28796   1.195   5.556   7.662 -0.7688 -0.6388 -0.3403
  219MOL0     C28797   1.210   5.402   7.705 -0.1076 -0.4795 -0.0833
  219MOL0     C28798   1.180   5.352   7.852  0.7157 -0.9169  0.2768
  219MOL0     C28799   1.049   5.410   7.912  1.3986  0.9750  0.4266
  219MOL0     O28800   1.050   5.385   8.057  1.2527 -0.0478  0.7415
  219MOL0     C28801   0.931   5.429   8.111 -0.0186  0.4332 -0.5023
  219MOL0     C28802   0.809   5.467   8.057 -0.7973 -0.5171  0.4593
  219MOL0     C28803   0.702   5.517   8.139 -1.1049  0.0320 -0.0489
  219MOL0     C28804   0.712   5.519   8.277  0.4531 -0.2593 -0.9754
  219MOL0     C28805   0.600   5.566   8.358  0.5025 -0.1011 -0.0400
  219MOL0     O28806   0.470   5.583   8.299  0.3826  0.3589 -0.5578
  219MOL0     C28807   0.359   5.625   8.377 -0.1913  0.4017 -0.8012
  219MOL0     C28808   0.264   5.700   8.304  0.2101  0.1622 -1.0950
  219MOL0     C28809   0.140   5.743   8.354  0.1059 -0.0631 -0.1617
  219MOL0     C28810   0.104   5.699   8.486  0.3499  0.0033 -0.0889
  219MOL0     O28811  -0.013   5.744   8.539 -0.0254  0.5402  0.4689
  219MOL0     C28812  -0.122   5.807   8.466  0.6241  0.3538 -0.4956
  219MOL0     C28813  -0.167   5.926   8.546 -0.6541 -0.4041  0.0700
  219MOL0     C28814  -0.059   6.026   8.551  0.2219 -0.1498 -0.0971
  219MOL0     C28815  -0.116   6.143   8.619  0.6932 -0.2679  0.8914
  219MOL0     C28816  -0.011   6.224   8.692  0.2848 -1.1261  0.4748
  219MOL0     C28817  -0.040   6.382   8.679 -0.3805  0.5817 -0.1035
  219MOL0     C28818  -0.175   6.421   8.743 -0.1465 -0.2467 -0.0405
  219MOL0     C28819  -0.229   6.560   8.722  0.1069  0.2584 -0.4148
  219MOL0    Cl28820  -0.344   6.575   8.591 -0.2966 -0.1328 -0.0213
  219MOL0     C28821   0.188   5.604   8.549  0.3723 -0.7435  0.1742
  219MOL0     C28822   0.316   5.568   8.501  0.0393  0.1671 -0.1674
  219MOL0     O28823   0.627   5.584   8.476 -0.1758  0.5346 -0.3644
  219MOL0     C28824   0.835   5.476   8.332 -0.4421 -0.1103 -0.3803
  219MOL0     C28825   0.938   5.436   8.251 -0.4061 -0.1386  0.0135
  219MOL0     N28826   1.107   5.642   7.428 -0.2246 -0.4048  0.5173
  219MOL0     N28827   1.153   5.634   7.304  0.2480 -0.4214  0.1716
  219MOL0     C28828   2.307   5.586   6.789  0.3255 -1.3965  0.7108
  219MOL0     C28829   2.417   5.582   6.698  0.2811 -0.5955 -0.0632
  219MOL0     C28830   2.756   5.649   6.413 -0.2937 -0.1520  0.1297
  219MOL0     C28831   2.731   5.764   6.333  0.5744  0.9031  0.3770
  219MOL0     C28832   2.804   5.775   6.211  0.5095  0.1259  0.2802
  219MOL0     C28833   2.907   5.686   6.178  0.1473  0.2421  0.8308
  219MOL0     O28834   2.973   5.723   6.060 -0.4402  0.4071 -0.4436
  219MOL0     C28835   3.098   5.658   6.042  0.2378  0.2104 -0.4560
  219MOL0     C28836   3.173   5.691   5.920 -0.5943  0.0820  1.7384
  219MOL0     C28837   3.321   5.622   5.923 -0.1807 -0.1158 -0.7070
  219MOL0     C28838   3.393   5.639   5.783  0.3253  0.5089 -0.3830
  219MOL0     C28839   3.449   5.782   5.777  0.8912 -0.1475 -1.3174
  219MOL0     C28840   3.488   5.894   5.761 -0.8104  0.9892 -0.5371
  219MOL0     C28841   2.942   5.580   6.262  0.3838  0.6079  0.9037
  219MOL0     C28842   2.857   5.558   6.373 -0.3869 -0.4039 -0.4166
  219MOL0     H28843   2.512   5.909   6.710 -1.5287  0.2876  0.2821
  219MOL0     H28844   2.307   5.915   6.873 -0.7979  0.4335 -2.5024
  219MOL0     H28845   2.111   5.907   6.959 -3.0620  0.0250  0.3535
  219MOL0     H28846   2.251   5.861   7.068 -0.1118 -0.2503 -0.8378
  219MOL0     H28847   2.077   5.891   7.216  0.8001 -0.0122  0.2075
  219MOL0     H28848   2.074   5.716   7.205 -2.6831 -0.9439 -0.8943
  219MOL0     H28849   1.909   5.747   7.021  3.2623 -0.1649  0.3887
  219MOL0     H28850   1.889   5.915   7.073 -0.5435 -0.4920 -1.0308
  219MOL0     H28851   1.833   5.676   7.263  0.3746  0.8334  0.5994
  219MOL0     H28852   1.827   5.829   7.309 -1.2917 -0.7154  0.7836
  219MOL0     H28853   1.663   5.763   7.070  1.2828 -0.6917  0.0092
  219MOL0     H28854   1.629   5.889   7.172 -3.1895 -0.2710 -2.4986
  219MOL0     H28855   1.548   5.720   7.346 -2.5782  0.1483 -0.7555
  219MOL0     H28856   1.619   5.584   7.251 -1.9539 -1.6700 -0.5487
  219MOL0     H28857   1.370   5.739   7.160 -0.9679  0.3221 -0.4377
  219MOL0     H28858   1.480   5.637   7.053 -1.5055  0.8317 -1.1985
  219MOL0     H28859   1.430   5.450   7.209  1.0872  0.8105 -3.8479
  219MOL0     H28860   1.292   5.501   7.115 -1.7803 -0.6301  0.8785
  219MOL0     H28861   1.381   5.480   7.475  0.5669  1.6148  1.1504
  219MOL0     H28862   1.101   5.603   7.692  0.0047  1.9033 -1.5870
  219MOL0     H28863   1.274   5.620   7.702 -1.3224 -0.8900  1.2191
  219MOL0     H28864   1.314   5.369   7.693  0.8056  1.9567  0.3533
  219MOL0     H28865   1.159   5.349   7.625  3.2195 -1.2216 -1.9202
  219MOL0     H28866   1.179   5.243   7.863 -0.1611 -0.8729  0.7587
  219MOL0     H28867   1.269   5.386   7.907  0.3025 -0.8419  0.9065
  219MOL0     H28868   0.965   5.363   7.861  2.0220  2.7651 -2.5016
  219MOL0     H28869   1.043   5.519   7.900 -1.2157  1.2751  3.2502
  219MOL0     H28870   0.782   5.452   7.954  2.7174 -0.2231 -0.6501
  219MOL0     H28871   0.603   5.526   8.095 -1.6644 -1.3345  0.8367
  219MOL0     H28872   0.292   5.734   8.204  1.5309 -2.4082 -1.6755
  219MOL0     H28873   0.091   5.805   8.280 -0.8978  0.8585  1.2248
  219MOL0     H28874  -0.209   5.741   8.473 -1.1263  2.5303 -0.8080
  219MOL0     H28875  -0.103   5.818   8.359 -0.6925 -2.4904 -1.1285
  219MOL0     H28876  -0.194   5.900   8.649 -0.7087  0.8770  0.3939
  219MOL0     H28877  -0.257   5.966   8.498 -0.6445 -0.7109 -0.2054
  219MOL0     H28878  -0.006   6.045   8.457 -0.8602  2.2555 -0.3153
  219MOL0     H28879   0.020   5.990   8.617 -1.9340 -1.0791  2.1203
  219MOL0     H28880  -0.158   6.200   8.535 -0.4317 -0.4360  1.3227
  219MOL0     H28881  -0.199   6.112   8.683  0.7649 -1.3912  0.4725
  219MOL0     H28882   0.086   6.210   8.643 -0.0782  0.5867 -0.8149
  219MOL0     H28883   0.004   6.185   8.793  2.5027  1.0727  1.0798
  219MOL0     H28884  -0.028   6.424   8.579  1.1374 -0.8867 -0.5875
  219MOL0     H28885   0.026   6.440   8.743  0.5172 -2.4933  1.9904
  219MOL0     H28886  -0.257   6.354   8.717 -0.3553 -0.5577  1.3537
  219MOL0     H28887  -0.164   6.418   8.852 -1.5326  1.9264  0.2171
  219MOL0     H28888  -0.152   6.638   8.716 -0.6638  0.9150 -2.7911
  219MOL0     H28889  -0.290   6.582   8.811  2.3286  1.6006  0.8829
  219MOL0     H28890   0.151   5.567   8.644 -1.1332 -3.7495 -1.4538
  219MOL0     H28891   0.380   5.512   8.568 -1.0267 -2.1501 -0.9606
  219MOL0     H28892   0.851   5.441   8.433  1.5034 -1.2282 -1.0164
  219MOL0     H28893   1.032   5.420   8.303  0.6983  2.0705 -1.1330
  219MOL0     H28894   2.256   5.491   6.798 -0.7456 -0.8760  0.2961
  219MOL0     H28895   2.439   5.494   6.638 -1.9012 -1.4821  0.3352
  219MOL0     H28896   2.652   5.839   6.340 -1.3888 -1.1053  0.8790
  219MOL0     H28897   2.786   5.857   6.143 -1.7930  0.1959  0.9147
  219MOL0     H28898   3.087   5.550   6.049  2.0296  0.1020  1.8150
  219MOL0     H28899   3.149   5.691   6.133 -1.6609 -3.2732  2.1025
  219MOL0     H28900   3.124   5.662   5.826  1.5710  1.1079  0.2053
  219MOL0     H28901   3.184   5.799   5.914 -1.2824  0.1706  1.9802
  219MOL0     H28902   3.310   5.516   5.945  0.0877  0.4032  2.3734
  219MOL0     H28903   3.374   5.672   6.004 -0.4223  3.7870 -2.7163
  219MOL0     H28904   3.471   5.563   5.773 -2.0461 -1.8696 -2.2749
  219MOL0     H28905   3.323   5.623   5.701  0.8072  0.0214 -0.6999
  219MOL0     H28906   3.530   5.988   5.734 -0.2958  0.9178 -0.0145
  219MOL0     H28907   3.015   5.501   6.245 -1.4553 -1.3270  1.4036
  219MOL0     H28908   2.871   5.477   6.442  0.4682  1.0358  1.1753
  220MOL0     O28909   7.374   8.618   4.322  0.4926  0.6388 -0.3150
  220MOL0     C28910   7.430   8.612   4.429 -0.6606  0.3630  0.0107
  220MOL0     O28911   7.428   8.708   4.522 -0.0357  0.5486  0.5879
  220MOL0     C28912   7.371   8.826   4.498  0.7925  0.2156  0.5824
  220MOL0     C28913   7.380   8.898   4.379 -0.5830  0.2779 -0.4645
  220MOL0     C28914   7.333   9.022   4.357  0.4112 -1.0147  0.1631
  220MOL0     C28915   7.270   9.090   4.465  0.7177 -0.1543 -0.7846
  220MOL0     O28916   7.206   9.215   4.455 -0.4587  0.0659 -0.1988
  220MOL0     C28917   7.238   9.299   4.348  0.6325  0.2360  0.6503
  220MOL0     C28918   7.152   9.426   4.352  0.5090  0.3542  0.7869
  220MOL0     C28919   7.169   9.504   4.475  0.0777 -0.4767  0.6253
  220MOL0     C28920   7.128   9.653   4.451  0.2867 -0.4137  0.2068
  220MOL0     C28921   6.979   9.683   4.435 -0.3086 -0.2738 -0.0079
  220MOL0     C28922   6.910   9.676   4.576  0.2251 -0.7065 -0.4788
  220MOL0     C28923   6.787   9.767   4.594  0.8744 -0.6320 -0.2646
  220MOL0     C28924   6.827   9.909   4.616  0.2129 -0.5452 -0.0725
  220MOL0     N28925   6.699   9.979   4.637 -0.6030  0.1980 -0.0438
  220MOL0     C28926   6.652  10.014   4.757  0.4088  0.2861 -0.2631
  220MOL0     C28927   6.538  10.078   4.721 -0.0025 -0.1125  0.5426
  220MOL0     C28928   6.454  10.166   4.817  0.2601 -0.3033 -1.0574
  220MOL0     C28929   6.418  10.292   4.745  0.5080  0.0857 -1.0477
  220MOL0     C28930   6.372  10.398   4.837 -0.2181 -0.2283  1.1567
  220MOL0     C28931   6.244  10.369   4.913 -0.2152  0.4853  0.2602
  220MOL0     O28932   6.126  10.356   4.827 -1.0141 -0.4752 -0.1207
  220MOL0     C28933   6.000  10.366   4.888  0.0172  0.5031 -0.6279
  220MOL0     C28934   5.888  10.395   4.808 -0.0512 -0.4198 -0.2374
  220MOL0     C28935   5.762  10.422   4.865 -0.1326  0.9234 -0.0191
  220MOL0     C28936   5.747  10.408   5.008 -0.3544 -0.8331 -0.8617
  220MOL0     C28937   5.612  10.433   5.074  0.2581 -0.4635  0.3024
  220MOL0     O28938   5.508  10.455   4.994  0.4701 -0.0308  0.9242
  220MOL0     C28939   5.394  10.498   5.049 -0.4230 -0.1719  0.1926
  220MOL0     C28940   5.292  10.405   5.080  0.3572  1.2506  0.5757
  220MOL0     C28941   5.176  10.446   5.131 -0.0018 -0.3564 -0.2067
  220MOL0     C28942   5.163  10.581   5.178  0.4860  0.7316  0.8085
  220MOL0     O28943   5.041  10.605   5.241 -0.0691  0.6170 -0.4778
  220MOL0     C28944   5.007  10.743   5.237 -0.1661  0.6749 -0.1418
  220MOL0     C28945   4.857  10.757   5.244  0.1728  1.0826 -0.3191
  220MOL0     C28946   4.802  10.708   5.386  0.0058  0.4540 -0.2482
  220MOL0     C28947   4.662  10.747   5.391  0.0282  0.0207 -1.2523
  220MOL0     C28948   4.598  10.691   5.526  0.3235 -0.5762  0.4106
  220MOL0     C28949   4.459  10.748   5.557 -0.6687 -0.6972  0.2436
  220MOL0     C28950   4.373  10.684   5.674  0.2299 -0.0190 -0.8166
  220MOL0     C28951   4.439  10.685   5.809  0.0864  0.4758 -0.5899
  220MOL0    Cl28952   4.314  10.634   5.931  0.0829 -0.0980  0.3166
  220MOL0     C28953   5.267  10.665   5.149  0.1030 -0.0167 -0.0301
  220MOL0     C28954   5.383  10.627   5.093  0.0080 -0.2016 -0.0301
  220MOL0     O28955   5.616  10.441   5.197  0.1512  0.2163 -0.3808
  220MOL0     C28956   5.868  10.394   5.087  0.2593  0.2593  0.3259
  220MOL0     C28957   5.983  10.367   5.026  0.0449 -0.3505 -0.1772
  220MOL0     N28958   6.514  10.063   4.586 -0.2913 -0.3920  0.5425
  220MOL0     N28959   6.614  10.003   4.539 -0.3578 -0.2219  0.7021
  220MOL0     C28960   7.261   9.024   4.592  1.0125  0.5215  0.4766
  220MOL0     C28961   7.308   8.899   4.609 -0.9667  0.6898 -0.2639
  220MOL0     C28962   7.498   8.490   4.466 -0.0470 -0.2607 -0.1356
  220MOL0     C28963   7.587   8.486   4.568 -0.0909  0.2145  0.0203
  220MOL0     C28964   7.675   8.369   4.582  0.6203 -0.3694 -1.0867
  220MOL0     C28965   7.642   8.252   4.506  0.8278 -0.1604  0.2391
  220MOL0     O28966   7.702   8.131   4.524  0.2592  0.2534  0.5061
  220MOL0     C28967   7.625   8.021   4.579 -1.1198 -0.5307 -0.3902
  220MOL0     C28968   7.682   7.982   4.717 -0.6077 -1.1559 -0.4471
  220MOL0     C28969   7.660   8.103   4.815 -0.0912  0.0151 -0.4890
  220MOL0     C28970   7.657   8.054   4.962 -1.0130 -0.5012 -0.5752
  220MOL0     C28971   7.615   8.166   5.049 -1.2770 -0.3559 -1.4966
  220MOL0     C28972   7.613   8.263   5.118  0.1687  0.0307  0.3124
  220MOL0     C28973   7.551   8.263   4.414  0.5032 -0.7673 -0.3551
  220MOL0     C28974   7.478   8.372   4.387 -0.0191  0.0230  0.2824
  220MOL0     H28975   7.439   8.867   4.293 -1.6719  3.0827 -2.3769
  220MOL0     H28976   7.336   9.088   4.271 -0.7559  1.0979  1.6471
  220MOL0     H28977   7.218   9.248   4.254  1.7118 -1.2848  1.2183
  220MOL0     H28978   7.342   9.333   4.341  0.6625 -0.2108 -2.3575
  220MOL0     H28979   7.047   9.399   4.331  0.1768  1.6105  0.7744
  220MOL0     H28980   7.181   9.492   4.269  0.5203  0.9001  1.2230
  220MOL0     H28981   7.276   9.501   4.500 -0.2926  0.5561  2.4709
  220MOL0     H28982   7.109   9.477   4.562 -1.0142 -1.5918 -0.4228
  220MOL0     H28983   7.163   9.705   4.541  1.4843 -1.9679  0.7010
  220MOL0     H28984   7.184   9.697   4.369 -1.0972 -0.8929 -1.0499
  220MOL0     H28985   6.926   9.608   4.375  1.4810 -1.7234  0.1379
  220MOL0     H28986   6.989   9.781   4.389  0.3451 -0.5460 -0.4561
  220MOL0     H28987   6.977   9.709   4.656 -1.0809 -0.3060  0.4963
  220MOL0     H28988   6.873   9.577   4.603 -1.4506 -0.1232 -0.4911
  220MOL0     H28989   6.733   9.760   4.499  1.9374 -0.3178 -0.9076
  220MOL0     H28990   6.715   9.743   4.673  1.0414  2.4961  0.9784
  220MOL0     H28991   6.873   9.949   4.525  0.3744 -1.7251 -0.5269
  220MOL0     H28992   6.901   9.918   4.696 -0.6772  1.4822  0.5833
  220MOL0     H28993   6.695  10.014   4.857 -0.4385 -3.4154  0.2332
  220MOL0     H28994   6.516  10.188   4.905 -2.9261  5.0545  0.2869
  220MOL0     H28995   6.363  10.109   4.841 -0.6386  1.1358 -0.9143
  220MOL0     H28996   6.342  10.274   4.668  0.4099  0.6816 -1.0957
  220MOL0     H28997   6.508  10.332   4.697  0.6492 -3.0381 -3.6799
  220MOL0     H28998   6.448  10.428   4.910  0.3833 -3.1011  1.8630
  220MOL0     H28999   6.355  10.480   4.767 -1.3662 -1.1899  0.2644
  220MOL0     H29000   6.240  10.444   4.993  0.2384 -1.3670  2.1280
  220MOL0     H29001   6.249  10.277   4.973  1.0563  1.0871  1.1136
  220MOL0     H29002   5.902  10.402   4.700  1.7410  1.8455  0.0706
  220MOL0     H29003   5.674  10.449   4.807 -0.2965 -0.0394 -0.2210
  220MOL0     H29004   5.309  10.299   5.066  1.3309  1.6379 -1.8003
  220MOL0     H29005   5.105  10.368   5.156  1.2426 -0.6193  2.9783
  220MOL0     H29006   5.039  10.799   5.148 -1.8946  2.7166  0.4358
  220MOL0     H29007   5.046  10.793   5.326 -2.6902 -0.0964  1.4828
  220MOL0     H29008   4.806  10.700   5.167  0.3581 -1.1010  1.0931
  220MOL0     H29009   4.833  10.863   5.228 -1.5198  0.4711 -2.3261
  220MOL0     H29010   4.860  10.751   5.469  0.8144 -1.4408  0.2188
  220MOL0     H29011   4.806  10.599   5.391  3.2262  0.3318 -2.5593
  220MOL0     H29012   4.657  10.856   5.384 -0.3777  0.0936 -0.0589
  220MOL0     H29013   4.599  10.706   5.312 -3.3448  0.6661  0.8805
  220MOL0     H29014   4.664  10.711   5.610  0.6830 -1.3028  0.3026
  220MOL0     H29015   4.592  10.584   5.507  1.9490 -0.9133  1.5858
  220MOL0     H29016   4.405  10.742   5.462 -0.8425 -0.7294  0.3442
  220MOL0     H29017   4.483  10.854   5.563  0.3642 -0.8193 -1.1104
  220MOL0     H29018   4.279  10.741   5.683 -0.0441 -0.7726  1.9949
  220MOL0     H29019   4.345  10.581   5.649  1.6378  0.3456 -4.4960
  220MOL0     H29020   4.473  10.787   5.832  0.4581  0.9135 -2.8795
  220MOL0     H29021   4.519  10.611   5.815 -1.2860 -0.9446  2.0294
  220MOL0     H29022   5.253  10.772   5.157  1.6458  0.6640 -4.0745
  220MOL0     H29023   5.467  10.695   5.097  1.3999 -1.7251 -1.5267
  220MOL0     H29024   5.861  10.399   5.195 -1.4700  3.4823  0.2028
  220MOL0     H29025   6.065  10.344   5.093 -0.0708  0.5001  0.2825
  220MOL0     H29026   7.205   9.066   4.676 -3.7741 -0.3612 -1.9334
  220MOL0     H29027   7.287   8.859   4.707 -2.3471  0.2044 -0.7211
  220MOL0     H29028   7.611   8.579   4.619 -1.7720 -0.8886  2.9891
  220MOL0     H29029   7.764   8.358   4.643  1.4535 -0.4259 -2.2842
  220MOL0     H29030   7.636   7.938   4.509 -0.0506 -0.4097 -0.3748
  220MOL0     H29031   7.519   8.047   4.591 -0.4665  1.6895  1.2419
  220MOL0     H29032   7.625   7.896   4.751  0.4304 -2.6906 -2.3782
  220MOL0     H29033   7.784   7.943   4.714  1.2472  2.8227  2.4640
  220MOL0     H29034   7.568   8.153   4.785 -1.1608 -1.5763  0.0173
  220MOL0     H29035   7.741   8.176   4.801  0.6367 -0.5648  0.5414
  220MOL0     H29036   7.584   7.972   4.963 -1.9515  0.2991 -1.7321
  220MOL0     H29037   7.744   8.002   5.003  0.7174  4.4864  3.0444
  220MOL0     H29038   7.616   8.350   5.182 -0.9764 -1.3270  2.3221
  220MOL0     H29039   7.544   8.175   4.350 -1.1199 -0.6838 -0.3202
  220MOL0     H29040   7.395   8.367   4.317  0.1913  0.2536  0.0152
  221MOL0     O29041   2.105  10.364   5.662  0.4687  0.4749  0.0846
  221MOL0     C29042   2.157  10.280   5.735  0.1242  0.7415  0.3762
  221MOL0     O29043   2.093  10.227   5.845 -0.5738  0.1930 -0.1302
  221MOL0     C29044   1.963  10.271   5.866  0.3735  1.4889 -0.1391
  221MOL0     C29045   1.927  10.351   5.976 -0.1635 -0.0110  0.4344
  221MOL0     C29046   1.790  10.387   6.001 -0.6348 -0.7051 -0.5324
  221MOL0     C29047   1.692  10.331   5.921 -0.2478 -0.2770 -0.5422
  221MOL0     O29048   1.555  10.354   5.942 -0.2182  0.5732  0.3008
  221MOL0     C29049   1.508  10.310   6.072 -0.1896  0.1909  1.2489
  221MOL0     C29050   1.355  10.272   6.072 -0.8544  0.0377  0.0822
  221MOL0     C29051   1.263  10.387   6.122  0.1690 -0.1628  0.6773
  221MOL0     C29052   1.118  10.351   6.133 -0.0937  0.3701  0.4890
  221MOL0     C29053   1.038  10.338   5.995 -0.1611  0.8636 -0.5057
  221MOL0     C29054   0.879  10.347   6.012 -0.0269  0.3667 -0.4167
  221MOL0     C29055   0.815  10.484   6.003  0.8315  0.1104  0.4086
  221MOL0     C29056   0.665  10.476   5.998 -0.5378  1.4822  0.0861
  221MOL0     N29057   0.606  10.605   6.001 -0.0018  0.2845  1.7889
  221MOL0     C29058   0.587  10.682   6.110  0.5554 -0.0503 -0.6365
  221MOL0     C29059   0.515  10.788   6.062 -0.7000  0.3639 -0.5698
  221MOL0     C29060   0.435  10.881   6.140 -0.4594  0.1865 -0.2820
  221MOL0     C29061   0.289  10.831   6.161 -1.1233 -0.3677 -0.2123
  221MOL0     C29062   0.194  10.951   6.148 -0.8792 -0.0676 -0.0489
  221MOL0     C29063   0.066  10.907   6.219 -0.3962 -0.6252  0.3278
  221MOL0     O29064  -0.034  11.013   6.205 -0.5557  0.3062  0.3739
  221MOL0     C29065  -0.161  10.992   6.257 -0.5908 -0.3430  0.8813
  221MOL0     C29066  -0.246  11.100   6.255  0.5048 -0.2394 -0.9371
  221MOL0     C29067  -0.376  11.103   6.305 -0.0195  0.4339 -0.4900
  221MOL0     C29068  -0.434  10.979   6.347  0.2332  0.4882  0.0007
  221MOL0     C29069  -0.572  10.973   6.386  0.2498 -0.4497  0.3258
  221MOL0     O29070  -0.640  11.093   6.396 -0.2753 -0.6471 -0.3825
  221MOL0     C29071  -0.771  11.100   6.430  0.2025 -0.0312  0.1406
  221MOL0     C29072  -0.858  11.027   6.354  0.5787  0.0008  0.1150
  221MOL0     C29073  -0.997  11.020   6.394  0.1860 -0.6562 -0.6057
  221MOL0     C29074  -1.038  11.100   6.502  0.6470 -0.2959  1.2277
  221MOL0     O29075  -1.175  11.095   6.519 -0.0459 -0.6452  0.0428
  221MOL0     C29076  -1.230  11.180   6.622  0.1386  0.0158  0.7039
  221MOL0     C29077  -1.379  11.150   6.642  0.0383 -0.4070 -0.5269
  221MOL0     C29078  -1.464  11.265   6.705  0.7647 -0.7412  0.7938
  221MOL0     C29079  -1.592  11.209   6.761 -0.2052  0.0850 -0.6080
  221MOL0     C29080  -1.653  11.330   6.835 -0.0469  0.2558 -0.0866
  221MOL0     C29081  -1.796  11.292   6.883  0.0698  0.6854 -0.6496
  221MOL0     C29082  -1.799  11.173   6.980 -0.6189 -0.1033  0.3527
  221MOL0     C29083  -1.946  11.146   7.025 -0.8399  0.4631  0.1828
  221MOL0    Cl29084  -1.953  11.002   7.144 -0.0821 -0.1595 -0.0241
  221MOL0     C29085  -0.938  11.175   6.566  0.6704 -0.2654  0.1757
  221MOL0     C29086  -0.808  11.179   6.538  0.2997  0.9541  0.1307
  221MOL0     O29087  -0.618  10.862   6.412  0.4309 -0.3592  1.3813
  221MOL0     C29088  -0.359  10.862   6.342 -0.6090 -1.1750 -0.2395
  221MOL0     C29089  -0.222  10.869   6.301  0.3359 -0.2290  0.8890
  221MOL0     N29090   0.521  10.783   5.923  0.1015 -0.5218  0.5793
  221MOL0     N29091   0.577  10.670   5.880  0.0763  0.0939 -0.5260
  221MOL0     C29092   1.724  10.257   5.800  0.2351 -0.2877 -0.5407
  221MOL0     C29093   1.859  10.213   5.785 -0.3395 -0.7552 -0.4986
  221MOL0     C29094   2.294  10.223   5.693 -0.0911  0.0889  0.3205
  221MOL0     C29095   2.363  10.132   5.770  0.5496  0.1757  0.2368
  221MOL0     C29096   2.499  10.100   5.745  0.6577 -1.1591  0.5934
  221MOL0     C29097   2.556  10.156   5.627 -0.6570 -0.2753  0.7636
  221MOL0     O29098   2.680  10.126   5.579  0.0740  0.5020  0.5395
  221MOL0     C29099   2.772  10.059   5.665  0.5873 -0.2723 -1.4614
  221MOL0     C29100   2.800  10.120   5.804  0.7018 -0.7196  0.3510
  221MOL0     C29101   2.936  10.190   5.812  0.4060 -0.2348  1.0737
  221MOL0     C29102   2.947  10.307   5.713  0.5926 -0.8504  0.2035
  221MOL0     C29103   3.072  10.380   5.731 -0.3650  0.5039 -0.3907
  221MOL0     C29104   3.174  10.440   5.728 -0.0250  0.0423  0.1092
  221MOL0     C29105   2.480  10.234   5.538  0.0820  0.2372  0.2526
  221MOL0     C29106   2.359  10.279   5.581 -0.5449 -0.2907  1.2169
  221MOL0     H29107   1.999  10.385   6.050  0.8671 -1.8742  0.3387
  221MOL0     H29108   1.769  10.447   6.088  2.7530 -1.3924  0.9146
  221MOL0     H29109   1.518  10.393   6.142  2.7075  2.5567 -1.6568
  221MOL0     H29110   1.565  10.219   6.093 -2.1234 -0.9050  2.0786
  221MOL0     H29111   1.352  10.199   6.153  1.0815  0.5070  0.6410
  221MOL0     H29112   1.324  10.231   5.975  0.9561 -2.4526  0.4659
  221MOL0     H29113   1.275  10.468   6.050 -1.6003 -1.0007 -0.6748
  221MOL0     H29114   1.292  10.422   6.222  0.5981  0.6374  0.2797
  221MOL0     H29115   1.103  10.265   6.198 -3.4603  1.2846  1.1063
  221MOL0     H29116   1.067  10.436   6.180 -0.2730  0.3602  0.3105
  221MOL0     H29117   1.055  10.238   5.953  1.4936  0.7652  0.3078
  221MOL0     H29118   1.087  10.411   5.930  0.0983  2.0931  1.0167
  221MOL0     H29119   0.859  10.289   6.103  0.1301 -3.3914 -2.5571
  221MOL0     H29120   0.836  10.283   5.934 -0.2521 -0.7158  0.5575
  221MOL0     H29121   0.831  10.538   6.097  0.7572  2.7553 -1.0154
  221MOL0     H29122   0.869  10.527   5.918  2.1697 -2.9462 -0.4333
  221MOL0     H29123   0.633  10.423   6.088 -3.0055  0.7157 -1.1582
  221MOL0     H29124   0.622  10.409   5.923  1.6578 -0.2914  0.2852
  221MOL0     H29125   0.596  10.656   6.215  1.1165  1.8208 -0.1801
  221MOL0     H29126   0.423  10.974   6.083 -2.0749  0.7095  0.8604
  221MOL0     H29127   0.488  10.908   6.232 -1.2430 -0.4771  0.3671
  221MOL0     H29128   0.287  10.779   6.257  1.1356 -1.8724 -0.9028
  221MOL0     H29129   0.268  10.755   6.085  1.8593 -0.5074 -1.0425
  221MOL0     H29130   0.247  11.026   6.208 -0.1023 -0.7326  0.1226
  221MOL0     H29131   0.188  10.986   6.044  1.6214  1.0054  0.0803
  221MOL0     H29132   0.074  10.887   6.327 -2.5626  4.0772  1.6343
  221MOL0     H29133   0.025  10.827   6.158 -1.5592  2.0041 -2.6278
  221MOL0     H29134  -0.195  11.192   6.225  2.3520 -0.9830 -0.2467
  221MOL0     H29135  -0.437  11.193   6.306 -1.1151 -0.2998 -0.7073
  221MOL0     H29136  -0.828  10.956   6.277  0.2234 -2.2836  1.9622
  221MOL0     H29137  -1.070  10.974   6.329  0.6345 -1.7529 -0.3442
  221MOL0     H29138  -1.220  11.285   6.591 -1.2460 -0.1324 -0.2975
  221MOL0     H29139  -1.180  11.166   6.719  1.2393  2.0430  0.5000
  221MOL0     H29140  -1.388  11.058   6.700 -3.4609 -1.3159 -2.2390
  221MOL0     H29141  -1.425  11.124   6.546 -4.5760  2.1885  0.6743
  221MOL0     H29142  -1.483  11.345   6.633  2.7558  1.0098  2.1285
  221MOL0     H29143  -1.404  11.306   6.786  1.0138  1.4897 -0.4414
  221MOL0     H29144  -1.667  11.196   6.682 -2.7051  1.8480  1.3044
  221MOL0     H29145  -1.564  11.124   6.823  2.3413  0.9614 -0.4340
  221MOL0     H29146  -1.646  11.421   6.775  3.3104 -1.7916 -3.1564
  221MOL0     H29147  -1.583  11.349   6.917  0.8042  0.6926 -0.8963
  221MOL0     H29148  -1.867  11.273   6.803 -1.4690 -1.0472  1.0247
  221MOL0     H29149  -1.836  11.377   6.939 -1.7002  1.1621 -2.5430
  221MOL0     H29150  -1.761  11.086   6.925  0.6955  3.3812 -5.0279
  221MOL0     H29151  -1.730  11.183   7.064 -1.0681 -3.4581  1.2741
  221MOL0     H29152  -2.009  11.118   6.941 -0.3883  0.8639 -0.2976
  221MOL0     H29153  -1.982  11.230   7.085  1.4069 -0.7603  3.5542
  221MOL0     H29154  -0.976  11.241   6.643  0.9748 -2.7111  2.5658
  221MOL0     H29155  -0.724  11.219   6.594  1.2559  0.4174 -0.8761
  221MOL0     H29156  -0.395  10.767   6.381  1.4683 -1.9541 -0.0722
  221MOL0     H29157  -0.164  10.778   6.314  0.2374 -0.7386 -1.7069
  221MOL0     H29158   1.652  10.213   5.731 -1.8526  1.4729  0.3979
  221MOL0     H29159   1.889  10.164   5.693  5.1706 -2.1180  1.6347
  221MOL0     H29160   2.316  10.094   5.860  0.8487  0.2002  0.4046
  221MOL0     H29161   2.545  10.032   5.817 -0.1660 -0.2335  2.0482
  221MOL0     H29162   2.866  10.032   5.616  0.1430 -2.1403 -1.3547
  221MOL0     H29163   2.739   9.958   5.691  0.7672 -0.2542 -1.1544
  221MOL0     H29164   2.722  10.192   5.832  2.3302  1.1552  0.2272
  221MOL0     H29165   2.819  10.045   5.881  2.7610  0.3996  0.9796
  221MOL0     H29166   3.012  10.124   5.769 -0.2465 -0.1818 -0.2296
  221MOL0     H29167   2.966  10.222   5.912 -1.2096  2.7827  0.7100
  221MOL0     H29168   2.945  10.262   5.613 -2.6650  0.6650 -0.5506
  221MOL0     H29169   2.861  10.372   5.732  0.8340 -1.1083  2.4776
  221MOL0     H29170   3.270  10.486   5.717  0.4397 -1.4128 -2.8675
  221MOL0     H29171   2.527  10.268   5.447  1.6311 -1.2245  0.4532
  221MOL0     H29172   2.318  10.363   5.524  2.1656  0.9024  0.8841
  222MOL0     O29173   8.364   2.322   5.250  0.1055  0.3291  0.1755
  222MOL0     C29174   8.304   2.217   5.227 -0.4953  0.6355  0.8818
  222MOL0     O29175   8.218   2.194   5.127  0.7303 -0.2186 -0.0314
  222MOL0     C29176   8.206   2.280   5.016 -0.1909 -1.3840 -0.2016
  222MOL0     C29177   8.080   2.281   4.948 -1.3397 -0.3772 -0.4871
  222MOL0     C29178   8.071   2.351   4.829 -1.2004 -0.4394  0.3579
  222MOL0     C29179   8.173   2.426   4.779  0.3579  0.1530  0.5876
  222MOL0     O29180   8.151   2.484   4.660 -0.0706 -0.5427 -0.4525
  222MOL0     C29181   8.232   2.583   4.607 -1.1386 -0.1867  0.4586
  222MOL0     C29182   8.213   2.729   4.658  0.7728 -0.5307  0.1780
  222MOL0     C29183   8.318   2.832   4.619  0.7319 -0.8385  0.2496
  222MOL0     C29184   8.291   2.964   4.690  0.2647  0.3133 -0.6418
  222MOL0     C29185   8.308   3.089   4.594  1.2147 -0.5098 -0.6158
  222MOL0     C29186   8.279   3.206   4.680 -0.8366 -0.1990 -0.1257
  222MOL0     C29187   8.251   3.316   4.591 -0.4685  0.5248 -0.7860
  222MOL0     C29188   8.257   3.453   4.664 -0.0373  0.1692  0.3901
  222MOL0     N29189   8.288   3.565   4.571  0.7496  0.5181 -1.1190
  222MOL0     C29190   8.405   3.619   4.529 -0.2608 -0.3034  0.9514
  222MOL0     C29191   8.356   3.713   4.456 -0.0796 -1.0495  0.3287
  222MOL0     C29192   8.426   3.809   4.355  0.3040  1.0280  0.7032
  222MOL0     C29193   8.377   3.951   4.376 -0.3403 -0.0665 -0.3988
  222MOL0     C29194   8.358   3.997   4.521  0.2775 -0.0069  1.1909
  222MOL0     C29195   8.481   4.007   4.611  0.1095 -0.2954 -0.2351
  222MOL0     O29196   8.599   4.039   4.527 -0.3905  0.1961 -0.1767
  222MOL0     C29197   8.724   4.080   4.561 -0.3474 -0.3009  0.5226
  222MOL0     C29198   8.758   4.111   4.685 -0.1991 -0.7289 -0.7899
  222MOL0     C29199   8.883   4.166   4.722  0.0064  0.3045 -0.1359
  222MOL0     C29200   8.980   4.201   4.631  0.4467  0.2754  0.4363
  222MOL0     C29201   9.102   4.274   4.666 -0.7920  0.2568 -1.0837
  222MOL0     O29202   9.130   4.286   4.803 -0.2598 -0.9293  0.2006
  222MOL0     C29203   9.255   4.342   4.851 -0.2446 -0.2628 -0.5702
  222MOL0     C29204   9.327   4.449   4.792 -0.1373  0.6398 -0.1609
  222MOL0     C29205   9.455   4.482   4.841  0.5159  0.3555  1.0460
  222MOL0     C29206   9.514   4.408   4.940 -0.7385  0.0605  0.8269
  222MOL0     O29207   9.643   4.461   4.972  0.2032  0.0429  0.4306
  222MOL0     C29208   9.711   4.403   5.075  0.3638 -0.4423 -0.1211
  222MOL0     C29209   9.840   4.491   5.110  0.2614  0.4709  0.6501
  222MOL0     C29210   9.932   4.544   4.998  0.3589  1.2009 -0.1442
  222MOL0     C29211   9.981   4.424   4.917 -0.1770 -0.0356  0.7874
  222MOL0     C29212  10.101   4.456   4.825 -0.1215 -1.0275  0.4117
  222MOL0     C29213  10.126   4.345   4.719  0.0806  0.8437  0.1471
  222MOL0     C29214  10.241   4.366   4.627 -0.5252  0.1413  0.0274
  222MOL0     C29215  10.379   4.355   4.708 -0.6978 -0.1085  0.4824
  222MOL0    Cl29216  10.511   4.349   4.590 -0.1916  0.0410  0.3570
  222MOL0     C29217   9.426   4.321   5.018 -1.2526 -0.2058 -0.2335
  222MOL0     C29218   9.304   4.282   4.968 -0.3039  0.8889  0.4819
  222MOL0     O29219   9.169   4.319   4.572  0.9326  0.4116  0.1910
  222MOL0     C29220   8.950   4.150   4.495 -0.5060  1.0442 -0.3945
  222MOL0     C29221   8.829   4.092   4.462  0.5626 -0.0774 -0.3186
  222MOL0     N29222   8.215   3.711   4.438 -0.3985  0.3546 -0.0999
  222MOL0     N29223   8.181   3.620   4.515  0.3191 -0.2661 -0.6308
  222MOL0     C29224   8.292   2.448   4.850  0.2226  0.1267  1.0155
  222MOL0     C29225   8.299   2.377   4.967 -0.2488 -0.2813 -0.2020
  222MOL0     C29226   8.349   2.097   5.313 -1.1890 -0.0927 -0.4101
  222MOL0     C29227   8.433   2.113   5.425  0.4483  0.3680 -0.7100
  222MOL0     C29228   8.469   2.003   5.497  0.0526  0.8083  0.5426
  222MOL0     C29229   8.431   1.879   5.461  0.1613 -0.6952 -0.3283
  222MOL0     O29230   8.507   1.778   5.521  1.0466  0.2154 -0.8586
  222MOL0     C29231   8.462   1.640   5.506  0.1867  0.7041  0.4605
  222MOL0     C29232   8.556   1.544   5.583  0.4481 -0.5761  0.0503
  222MOL0     C29233   8.685   1.514   5.493 -0.5155  0.3369 -0.1096
  222MOL0     C29234   8.772   1.402   5.561 -0.2148 -0.4314  0.6487
  222MOL0     C29235   8.848   1.460   5.666  0.4832  0.2731 -0.0906
  222MOL0     C29236   8.912   1.514   5.757 -0.0211  0.0550  0.4140
  222MOL0     C29237   8.339   1.861   5.355 -0.5410 -0.3733  0.0756
  222MOL0     C29238   8.301   1.973   5.282  0.1879  0.2299  0.4499
  222MOL0     H29239   8.003   2.216   4.987  0.5307 -2.6216 -0.2799
  222MOL0     H29240   7.978   2.346   4.774 -1.0975 -1.2534  0.2520
  222MOL0     H29241   8.219   2.582   4.499  1.1130 -1.0523  0.1249
  222MOL0     H29242   8.339   2.560   4.612 -0.5484  2.2299  0.0794
  222MOL0     H29243   8.207   2.721   4.767 -1.2662 -0.8684  0.0845
  222MOL0     H29244   8.122   2.765   4.607  1.6744  0.7269 -0.6066
  222MOL0     H29245   8.327   2.856   4.512 -0.5107  0.4217  0.3910
  222MOL0     H29246   8.417   2.800   4.654  0.0984 -2.1348  0.9357
  222MOL0     H29247   8.200   2.967   4.752  2.0429  1.8323  2.1453
  222MOL0     H29248   8.367   2.985   4.767 -0.3548  2.3284 -0.5045
  222MOL0     H29249   8.231   3.074   4.517 -0.1749 -2.7629  1.0914
  222MOL0     H29250   8.407   3.086   4.546  1.1147  0.0776 -0.8628
  222MOL0     H29251   8.366   3.235   4.740 -1.1009  3.5257 -1.3046
  222MOL0     H29252   8.212   3.190   4.765  0.8736 -1.6827  1.0138
  222MOL0     H29253   8.321   3.314   4.506 -0.1397 -0.2724 -0.5028
  222MOL0     H29254   8.151   3.291   4.555 -0.4669 -2.9804  1.2351
  222MOL0     H29255   8.331   3.463   4.744  1.8782  1.3028 -1.4062
  222MOL0     H29256   8.163   3.472   4.715 -0.0389  2.2876 -0.3030
  222MOL0     H29257   8.509   3.600   4.553 -0.3433 -1.3015  0.5678
  222MOL0     H29258   8.405   3.786   4.250 -1.3545  2.6977  0.6273
  222MOL0     H29259   8.533   3.785   4.354 -0.0405 -1.8046 -4.3354
  222MOL0     H29260   8.279   3.955   4.326 -1.0647  0.3708  0.9979
  222MOL0     H29261   8.453   4.019   4.337  2.6093 -2.1188  1.3883
  222MOL0     H29262   8.316   4.097   4.509 -3.1875 -1.6564 -3.2152
  222MOL0     H29263   8.277   3.940   4.566 -0.9521 -1.4204 -2.4537
  222MOL0     H29264   8.493   3.908   4.657 -2.9648 -1.7966 -2.3066
  222MOL0     H29265   8.462   4.084   4.687  2.2824  1.0060 -0.9202
  222MOL0     H29266   8.679   4.102   4.759  0.3589  1.1370  0.0879
  222MOL0     H29267   8.877   4.210   4.821 -2.3020 -0.2882  0.0281
  222MOL0     H29268   9.289   4.518   4.717  0.8572  2.3066  0.7860
  222MOL0     H29269   9.497   4.571   4.795 -1.0426  0.7893  0.3734
  222MOL0     H29270   9.748   4.305   5.041 -1.2749 -1.0520 -0.2022
  222MOL0     H29271   9.653   4.396   5.167  1.3162 -1.1446  0.4451
  222MOL0     H29272   9.886   4.436   5.193 -3.1001 -0.9807  1.6957
  222MOL0     H29273   9.801   4.577   5.166  1.7782  0.8095  1.2693
  222MOL0     H29274  10.019   4.594   5.042  1.3919 -0.7971  0.1878
  222MOL0     H29275   9.880   4.611   4.928 -1.9169  0.9445  1.2088
  222MOL0     H29276  10.008   4.337   4.978  1.0710 -0.0720  0.2049
  222MOL0     H29277   9.905   4.406   4.841  1.6417  2.7159 -1.9174
  222MOL0     H29278  10.181   4.473   4.897  1.4299 -0.0986 -1.4326
  222MOL0     H29279  10.086   4.549   4.769  1.8527 -1.5304 -1.0551
  222MOL0     H29280  10.034   4.347   4.660 -0.7112 -0.2482  1.2934
  222MOL0     H29281  10.125   4.246   4.765 -2.0712  0.2251 -1.1254
  222MOL0     H29282  10.231   4.308   4.534 -0.1856  1.0833 -0.6072
  222MOL0     H29283  10.224   4.467   4.590 -0.1924  0.6296  1.1917
  222MOL0     H29284  10.380   4.259   4.761  1.8572 -1.8090 -2.3545
  222MOL0     H29285  10.396   4.438   4.777  1.4911  0.8328 -1.1067
  222MOL0     H29286   9.459   4.287   5.116 -1.6682 -0.0408 -0.0306
  222MOL0     H29287   9.236   4.211   5.014  0.8405 -0.9611 -0.5754
  222MOL0     H29288   9.025   4.142   4.417 -1.4552 -1.5096 -1.1644
  222MOL0     H29289   8.799   4.058   4.363 -4.3562  0.9881  0.5419
  222MOL0     H29290   8.374   2.514   4.821  1.3227 -1.8105 -0.5643
  222MOL0     H29291   8.388   2.379   5.029 -0.2342  1.6162 -0.2325
  222MOL0     H29292   8.477   2.211   5.440 -1.6293  1.6292 -2.2078
  222MOL0     H29293   8.547   1.999   5.572 -0.6097  0.4361  1.2222
  222MOL0     H29294   8.454   1.613   5.400  2.5330  1.0847  0.1390
  222MOL0     H29295   8.362   1.637   5.550 -0.0469  4.8070  0.6246
  222MOL0     H29296   8.571   1.593   5.679  0.6869  0.2599 -0.4008
  222MOL0     H29297   8.496   1.453   5.595  2.3682 -1.7043  1.8114
  222MOL0     H29298   8.730   1.612   5.477 -2.4379  1.6650  2.0017
  222MOL0     H29299   8.654   1.473   5.396 -1.3152 -0.1153  0.3288
  222MOL0     H29300   8.707   1.320   5.593 -0.0497 -2.3483 -3.3646
  222MOL0     H29301   8.848   1.373   5.487 -0.0607  4.0817 -1.2889
  222MOL0     H29302   8.972   1.552   5.838 -2.9018 -1.2468  3.3875
  222MOL0     H29303   8.296   1.765   5.332 -3.6614  0.7447  0.7823
  222MOL0     H29304   8.235   1.960   5.197 -4.3390 -0.7035  3.7395
  223MOL0     O29305   3.808   6.949   1.672 -0.3104 -0.0522  0.0533
  223MOL0     C29306   3.866   7.058   1.652  0.7709  0.5845 -0.1474
  223MOL0     O29307   3.997   7.072   1.617 -0.1770 -0.5470  0.1332
  223MOL0     C29308   4.070   6.963   1.601  0.0987 -0.4584 -0.8218
  223MOL0     C29309   4.179   6.943   1.673 -0.1623 -1.1813  1.1240
  223MOL0     C29310   4.258   6.835   1.656 -0.5089 -0.2447  0.2845
  223MOL0     C29311   4.239   6.738   1.556 -0.1032  0.0483 -0.2786
  223MOL0     O29312   4.322   6.627   1.565 -0.0172  0.2048  0.2196
  223MOL0     C29313   4.294   6.506   1.496 -0.6996  0.5627  0.1450
  223MOL0     C29314   4.186   6.420   1.575 -0.5446 -0.4257  0.3016
  223MOL0     C29315   4.038   6.454   1.563  0.3294  0.8380 -0.2386
  223MOL0     C29316   3.985   6.425   1.422 -0.3750 -0.0299  0.4270
  223MOL0     C29317   3.830   6.461   1.418  0.9227 -0.4211  0.6612
  223MOL0     C29318   3.795   6.614   1.430 -0.6251 -0.5248  0.4803
  223MOL0     C29319   3.643   6.639   1.410 -0.6177  0.7133 -0.3446
  223MOL0     C29320   3.603   6.783   1.402  0.4159 -0.1598  0.4366
  223MOL0     N29321   3.464   6.797   1.422  0.8842  0.0799  0.0924
  223MOL0     C29322   3.404   6.809   1.546 -0.0852 -0.0230 -0.3570
  223MOL0     C29323   3.277   6.773   1.523 -1.2790  0.2159 -0.1354
  223MOL0     C29324   3.167   6.773   1.632 -0.0798  0.4693 -0.3237
  223MOL0     C29325   3.043   6.687   1.595  0.7035  0.3331  0.9575
  223MOL0     C29326   2.966   6.664   1.727 -0.3350  0.0454 -0.4452
  223MOL0     C29327   2.823   6.599   1.693 -0.0528  0.1487 -0.4415
  223MOL0     O29328   2.717   6.686   1.651 -0.6786  0.1317 -0.1693
  223MOL0     C29329   2.597   6.631   1.630 -0.5780  0.1703  0.1743
  223MOL0     C29330   2.569   6.496   1.648  0.4441  0.1524 -0.9868
  223MOL0     C29331   2.443   6.438   1.623 -0.0092  0.2398 -0.5895
  223MOL0     C29332   2.338   6.524   1.590  0.5454 -0.6307 -0.2403
  223MOL0     C29333   2.206   6.463   1.572 -0.1253  0.4366  0.2126
  223MOL0     O29334   2.102   6.538   1.601  1.1117 -0.1557 -0.1533
  223MOL0     C29335   1.979   6.515   1.551  0.1812  0.9623 -0.3726
  223MOL0     C29336   1.912   6.611   1.473  0.1160 -0.6984  0.4860
  223MOL0     C29337   1.772   6.590   1.448 -0.5540  0.2404 -0.4163
  223MOL0     C29338   1.698   6.482   1.501  0.5450 -0.4119  0.5155
  223MOL0     O29339   1.563   6.478   1.474  0.4746  0.1023  0.1536
  223MOL0     C29340   1.507   6.356   1.431 -0.6603 -0.3443  0.1739
  223MOL0     C29341   1.381   6.309   1.508  0.1666  0.7937  0.8862
  223MOL0     C29342   1.263   6.400   1.463 -1.1831  0.0860  0.6005
  223MOL0     C29343   1.126   6.329   1.490 -0.8095 -0.2249 -0.0022
  223MOL0     C29344   1.029   6.432   1.448  0.1297  0.2352 -0.1949
  223MOL0     C29345   0.885   6.406   1.496 -0.5501  1.1636  0.4988
  223MOL0     C29346   0.819   6.312   1.383 -0.1449 -1.5688 -0.4422
  223MOL0     C29347   0.749   6.191   1.439 -0.9726 -0.7513 -0.6670
  223MOL0    Cl29348   0.680   6.087   1.315 -0.5166  0.2093 -0.1921
  223MOL0     C29349   1.770   6.387   1.570 -0.3960  0.4453 -1.0334
  223MOL0     C29350   1.903   6.401   1.601 -0.5856  0.1631  0.6089
  223MOL0     O29351   2.203   6.357   1.508 -0.6430 -0.1178  0.6707
  223MOL0     C29352   2.360   6.667   1.577  0.2090  0.2939 -0.1224
  223MOL0     C29353   2.490   6.719   1.607 -0.0884 -0.3411  0.1059
  223MOL0     N29354   3.252   6.752   1.394  0.4894  0.1684 -0.0540
  223MOL0     N29355   3.358   6.775   1.334  0.6242  0.2679  0.7495
  223MOL0     C29356   4.134   6.763   1.465 -0.4328 -0.2707 -0.4203
  223MOL0     C29357   4.048   6.878   1.495 -0.3544  0.2474  0.1490
  223MOL0     C29358   3.785   7.172   1.645 -0.4699  0.4663  0.1125
  223MOL0     C29359   3.655   7.172   1.596 -0.6011 -0.6072 -0.1564
  223MOL0     C29360   3.583   7.294   1.588 -0.4608  0.3423  0.5924
  223MOL0     C29361   3.637   7.424   1.612  1.1982 -0.5650 -1.7142
  223MOL0     O29362   3.563   7.547   1.620  0.4327 -0.0576  0.5162
  223MOL0     C29363   3.418   7.553   1.620 -0.6513  0.2683  0.5284
  223MOL0     C29364   3.354   7.504   1.749 -0.6990 -0.1988 -0.1399
  223MOL0     C29365   3.225   7.577   1.803  0.0420  0.8646  0.1814
  223MOL0     C29366   3.239   7.708   1.880  0.0814 -0.3674  0.4463
  223MOL0     C29367   3.308   7.680   2.009 -0.5382  0.5847  0.6579
  223MOL0     C29368   3.384   7.657   2.100 -0.6387  0.1813 -0.2847
  223MOL0     C29369   3.765   7.424   1.665  0.0775 -0.7849 -0.3250
  223MOL0     C29370   3.834   7.299   1.679  0.1135 -0.0661  0.7036
  223MOL0     H29371   4.206   7.008   1.756 -0.0009  1.9742 -1.2063
  223MOL0     H29372   4.348   6.819   1.714  0.2955 -4.9376 -1.7950
  223MOL0     H29373   4.388   6.451   1.486 -3.5400 -4.9366 -0.1116
  223MOL0     H29374   4.262   6.520   1.393 -1.4388 -0.2459  0.2561
  223MOL0     H29375   4.213   6.446   1.678 -1.0826  2.3331 -0.1564
  223MOL0     H29376   4.192   6.312   1.566 -0.1561 -0.4712  0.9811
  223MOL0     H29377   4.029   6.562   1.579 -0.7762  0.9112 -1.2472
  223MOL0     H29378   3.985   6.405   1.646 -0.4439  2.2592  0.1389
  223MOL0     H29379   4.030   6.492   1.349 -3.8299  2.0284 -0.0307
  223MOL0     H29380   4.012   6.325   1.386 -1.3732  0.5574 -2.1806
  223MOL0     H29381   3.773   6.400   1.489 -2.0032  2.2807  0.8135
  223MOL0     H29382   3.793   6.422   1.323  0.0946 -4.7467  2.5345
  223MOL0     H29383   3.842   6.651   1.338  0.1306 -0.2169  0.9825
  223MOL0     H29384   3.834   6.664   1.519 -2.3058 -0.6561  1.3333
  223MOL0     H29385   3.613   6.591   1.316 -0.1503  0.7727 -0.5264
  223MOL0     H29386   3.587   6.595   1.493  0.3776  0.3213  0.1291
  223MOL0     H29387   3.623   6.805   1.296 -7.6543 -0.8080 -1.8878
  223MOL0     H29388   3.663   6.845   1.469  1.1301 -0.4191  0.0462
  223MOL0     H29389   3.436   6.852   1.640 -1.0499 -2.7030  1.3081
  223MOL0     H29390   3.141   6.878   1.643  0.5109  0.7912 -1.6872
  223MOL0     H29391   3.210   6.745   1.729 -2.2532  2.0908  1.2007
  223MOL0     H29392   3.074   6.598   1.540  2.9921  2.6755 -1.9396
  223MOL0     H29393   2.982   6.749   1.528  1.5406  0.6649  0.4802
  223MOL0     H29394   3.025   6.598   1.790 -1.7689 -1.1638 -0.3212
  223MOL0     H29395   2.954   6.756   1.786  0.1205  0.3446 -0.8132
  223MOL0     H29396   2.800   6.546   1.786  1.2646  2.4791  1.3085
  223MOL0     H29397   2.834   6.523   1.615  0.1240 -0.5298  0.2299
  223MOL0     H29398   2.653   6.430   1.668  1.0770  0.9650 -0.9053
  223MOL0     H29399   2.431   6.330   1.617  1.9434  0.0158 -1.3086
  223MOL0     H29400   1.957   6.701   1.434  1.8107 -1.5990  0.2605
  223MOL0     H29401   1.708   6.652   1.386 -0.4437  2.2185  1.3411
  223MOL0     H29402   1.584   6.280   1.447  0.7674  0.8176 -0.9770
  223MOL0     H29403   1.492   6.342   1.323 -0.2576  1.3150 -0.1118
  223MOL0     H29404   1.382   6.313   1.618  0.8919  1.5483  0.8602
  223MOL0     H29405   1.370   6.207   1.471  2.4904  1.5240 -2.1850
  223MOL0     H29406   1.270   6.422   1.356 -1.6269 -1.0105  0.3318
  223MOL0     H29407   1.275   6.490   1.523  1.6487 -1.3302  2.3762
  223MOL0     H29408   1.115   6.237   1.431  3.5755  0.0260 -1.5937
  223MOL0     H29409   1.113   6.313   1.597  1.9393 -0.3124  0.3923
  223MOL0     H29410   1.041   6.442   1.339 -3.1044 -1.0595 -0.7759
  223MOL0     H29411   1.056   6.530   1.489  1.0989  0.3243 -0.9917
  223MOL0     H29412   0.821   6.493   1.517  1.0874  2.1355  1.7295
  223MOL0     H29413   0.885   6.373   1.600 -0.0195 -0.1149  0.1057
  223MOL0     H29414   0.735   6.365   1.338  1.6499  1.9786 -0.0148
  223MOL0     H29415   0.890   6.273   1.309  0.0358 -1.9222 -0.0846
  223MOL0     H29416   0.666   6.223   1.503 -0.7656  1.3176 -1.3634
  223MOL0     H29417   0.817   6.127   1.496 -4.2618 -2.3117  1.8343
  223MOL0     H29418   1.727   6.298   1.613  0.3690  1.1832  1.4461
  223MOL0     H29419   1.952   6.331   1.669 -1.6190 -1.2903 -0.0895
  223MOL0     H29420   2.282   6.734   1.543  1.0933  0.3249 -2.2018
  223MOL0     H29421   2.510   6.825   1.596 -0.6910 -0.4967 -3.9718
  223MOL0     H29422   4.116   6.692   1.385 -2.6370  1.4894 -1.6108
  223MOL0     H29423   3.968   6.894   1.423  0.0084 -4.0644 -1.5256
  223MOL0     H29424   3.617   7.077   1.559 -1.0826 -0.5678  0.2239
  223MOL0     H29425   3.480   7.284   1.558 -1.5111 -0.6715  4.0919
  223MOL0     H29426   3.374   7.495   1.538 -1.6311  1.1702  0.3914
  223MOL0     H29427   3.403   7.660   1.600  3.6107  0.8900 -0.2136
  223MOL0     H29428   3.331   7.397   1.744 -0.5053 -0.3400  1.5210
  223MOL0     H29429   3.436   7.525   1.819  1.2728  2.5438 -2.9833
  223MOL0     H29430   3.184   7.504   1.874  2.2410 -0.6780 -0.0499
  223MOL0     H29431   3.157   7.583   1.718 -0.3634  0.0847  0.4395
  223MOL0     H29432   3.297   7.792   1.841 -2.2690  1.9681  1.6904
  223MOL0     H29433   3.139   7.737   1.914 -0.2806 -0.4097 -0.5462
  223MOL0     H29434   3.451   7.642   2.183 -0.9698 -0.9318 -0.2090
  223MOL0     H29435   3.795   7.525   1.689 -0.9199  0.1744 -2.7762
  223MOL0     H29436   3.940   7.306   1.703  0.8859 -1.7786 -1.7358
  224MOL0     O29437   0.661   4.074   2.180 -0.3011 -0.0858  0.2056
  224MOL0     C29438   0.644   4.122   2.071  0.3573  0.7253  0.0558
  224MOL0     O29439   0.747   4.179   1.986 -0.3044 -0.2769  0.4803
  224MOL0     C29440   0.868   4.193   2.046 -0.1794 -0.2399 -0.8792
  224MOL0     C29441   0.961   4.091   2.021  0.5180  0.2249 -0.0515
  224MOL0     C29442   1.085   4.100   2.075  0.3179 -0.0199 -0.7127
  224MOL0     C29443   1.118   4.207   2.157 -0.0208  0.0386 -0.2709
  224MOL0     O29444   1.250   4.231   2.188  0.4159  0.1026 -0.0802
  224MOL0     C29445   1.286   4.228   2.327 -0.1250  0.3665  0.7227
  224MOL0     C29446   1.438   4.205   2.348 -0.4136 -0.1526 -1.0109
  224MOL0     C29447   1.514   4.328   2.288  0.7198  1.0049 -0.0035
  224MOL0     C29448   1.656   4.350   2.343  0.5438 -0.6509  0.0420
  224MOL0     C29449   1.727   4.464   2.267  0.3651 -0.8083  0.2033
  224MOL0     C29450   1.857   4.515   2.322 -0.2634  0.7481 -0.3796
  224MOL0     C29451   1.831   4.561   2.469  0.2760  0.1112 -0.8847
  224MOL0     C29452   1.960   4.630   2.521 -0.1013 -0.8230  0.4429
  224MOL0     N29453   1.940   4.691   2.652  1.4465  0.0398 -0.6265
  224MOL0     C29454   1.832   4.668   2.735 -0.7878  0.8099  0.7185
  224MOL0     C29455   1.852   4.753   2.845  0.8278  0.3733 -0.1042
  224MOL0     C29456   1.758   4.776   2.956 -0.0621  0.2473  1.7713
  224MOL0     C29457   1.831   4.781   3.088 -0.4357  0.5148  0.7720
  224MOL0     C29458   1.730   4.816   3.198 -0.1387 -0.0701  0.0908
  224MOL0     C29459   1.606   4.711   3.204 -0.2335  0.3378 -0.5313
  224MOL0     O29460   1.535   4.734   3.327 -0.4965  0.3831 -0.3264
  224MOL0     C29461   1.412   4.675   3.327 -0.1914  0.0004 -0.2605
  224MOL0     C29462   1.376   4.552   3.279  0.0710  0.6590 -0.3205
  224MOL0     C29463   1.242   4.508   3.273 -0.4262 -0.3076  0.0835
  224MOL0     C29464   1.142   4.604   3.297 -0.2079  0.0235  0.3464
  224MOL0     C29465   0.995   4.574   3.275 -0.3205  0.6732  0.3519
  224MOL0     O29466   0.965   4.448   3.229  0.3136  0.3439  0.6260
  224MOL0     C29467   0.832   4.409   3.229 -0.5724 -0.2864  1.1624
  224MOL0     C29468   0.732   4.473   3.154 -0.0259  0.6662  0.0747
  224MOL0     C29469   0.596   4.433   3.170 -0.7120  0.0410 -1.0951
  224MOL0     C29470   0.569   4.328   3.259 -0.4630 -0.4439  0.3236
  224MOL0     O29471   0.438   4.304   3.289  0.3880 -0.3431 -0.3274
  224MOL0     C29472   0.399   4.227   3.400  0.3595  0.9519 -0.8813
  224MOL0     C29473   0.373   4.077   3.363 -0.3102 -0.1344  0.8889
  224MOL0     C29474   0.252   4.066   3.265  0.1401 -0.1127 -0.7950
  224MOL0     C29475   0.209   3.920   3.259 -0.4669  1.2297 -0.6963
  224MOL0     C29476   0.096   3.906   3.160  0.3234 -0.5122 -0.0244
  224MOL0     C29477   0.060   3.757   3.137  0.0118 -0.2914  0.5757
  224MOL0     C29478  -0.035   3.732   3.016  0.5718  0.1123  0.2893
  224MOL0     C29479  -0.107   3.595   3.018  0.4762 -0.2330  0.6732
  224MOL0    Cl29480  -0.252   3.606   2.908 -0.0689  0.1755  0.2516
  224MOL0     C29481   0.675   4.254   3.323  0.7293 -0.4798  0.5973
  224MOL0     C29482   0.804   4.303   3.317  0.6298  1.0693 -0.0994
  224MOL0     O29483   0.917   4.658   3.324  0.0915 -0.3798 -0.5859
  224MOL0     C29484   1.174   4.737   3.335  0.5033 -0.0519 -0.1644
  224MOL0     C29485   1.306   4.768   3.361 -0.2493  0.3187  0.0143
  224MOL0     N29486   1.967   4.815   2.821  0.9106  0.6611 -1.4196
  224MOL0     N29487   2.017   4.792   2.707  0.3583  0.5033  0.1523
  224MOL0     C29488   1.028   4.313   2.170 -0.8382  0.0975 -0.1347
  224MOL0     C29489   0.904   4.314   2.115  1.0559 -0.2899  0.4203
  224MOL0     C29490   0.500   4.118   2.011  0.6525  0.1547  0.7716
  224MOL0     C29491   0.392   4.075   2.073  0.6098  0.4866 -1.5480
  224MOL0     C29492   0.263   4.083   2.019  0.6515  0.3524 -1.0486
  224MOL0     C29493   0.235   4.135   1.891 -0.1868  0.1565 -0.6912
  224MOL0     O29494   0.105   4.149   1.854  0.3343  0.0508  0.4685
  224MOL0     C29495   0.071   4.220   1.732 -1.0792 -0.4173 -1.9035
  224MOL0     C29496  -0.075   4.243   1.727  0.3899 -0.9366 -0.9374
  224MOL0     C29497  -0.132   4.179   1.600 -0.6887 -0.4322 -0.1664
  224MOL0     C29498  -0.278   4.189   1.575  0.3379  0.1209 -0.2555
  224MOL0     C29499  -0.360   4.077   1.522 -0.4220  0.1002  0.8725
  224MOL0     C29500  -0.426   3.980   1.479  0.1416 -0.1516  0.0606
  224MOL0     C29501   0.347   4.164   1.821 -0.6841 -0.1923  0.0541
  224MOL0     C29502   0.479   4.156   1.875 -0.0901 -0.1721 -0.7698
  224MOL0     H29503   0.941   4.009   1.954  0.2055  0.9389 -0.8549
  224MOL0     H29504   1.156   4.018   2.070  1.3606  0.3987  3.2342
  224MOL0     H29505   1.229   4.144   2.367  0.5386 -1.0004 -1.0526
  224MOL0     H29506   1.253   4.322   2.371  0.4161  0.1705  1.5600
  224MOL0     H29507   1.474   4.105   2.322  0.6508 -0.5305  1.6119
  224MOL0     H29508   1.460   4.208   2.455 -0.5166 -4.4820 -0.7028
  224MOL0     H29509   1.467   4.427   2.286 -0.0619  0.6709  1.1357
  224MOL0     H29510   1.534   4.294   2.186 -0.5255  2.3230 -0.7356
  224MOL0     H29511   1.641   4.373   2.449  0.8285  0.9870 -0.2548
  224MOL0     H29512   1.724   4.264   2.332  2.1177  0.3078  1.5950
  224MOL0     H29513   1.662   4.552   2.266 -0.9896 -1.7035  2.4085
  224MOL0     H29514   1.737   4.443   2.160  3.2863 -1.4369  0.5320
  224MOL0     H29515   1.887   4.596   2.253 -0.1491  1.2327  0.2278
  224MOL0     H29516   1.938   4.442   2.322  1.4523  2.4318  2.6827
  224MOL0     H29517   1.743   4.626   2.474  1.4417  1.6762  2.0891
  224MOL0     H29518   1.807   4.483   2.542 -6.4681  1.5685 -0.8858
  224MOL0     H29519   2.017   4.685   2.447  1.6383 -2.7739  0.2428
  224MOL0     H29520   2.020   4.542   2.544  0.2609 -0.6861  0.0321
  224MOL0     H29521   1.741   4.612   2.715  0.1770 -0.7884  0.6529
  224MOL0     H29522   1.672   4.709   2.953 -0.4841  0.7375  2.5698
  224MOL0     H29523   1.719   4.876   2.934 -0.6693 -1.0632 -5.0557
  224MOL0     H29524   1.914   4.852   3.091  0.5389 -0.5699  4.3537
  224MOL0     H29525   1.880   4.684   3.097 -0.1962  0.5972  0.4047
  224MOL0     H29526   1.793   4.810   3.287 -0.7608 -0.4577  0.5116
  224MOL0     H29527   1.698   4.918   3.176  2.1750  0.2712 -2.1126
  224MOL0     H29528   1.642   4.608   3.198 -2.8562 -0.5542 -2.8372
  224MOL0     H29529   1.543   4.733   3.117  0.6841  3.8524 -0.4705
  224MOL0     H29530   1.452   4.486   3.239 -0.0250 -1.8781  3.2241
  224MOL0     H29531   1.216   4.410   3.232  1.5623 -0.1995 -1.5830
  224MOL0     H29532   0.769   4.551   3.088  3.3876  0.3082  1.3772
  224MOL0     H29533   0.516   4.473   3.110 -0.2909 -0.1519 -1.7953
  224MOL0     H29534   0.305   4.272   3.431 -0.0042  0.6474 -1.5294
  224MOL0     H29535   0.466   4.233   3.487 -1.6288 -2.6992  1.1523
  224MOL0     H29536   0.337   4.044   3.461 -0.8658  1.5165  1.2711
  224MOL0     H29537   0.465   4.039   3.319 -0.4575  1.6288 -1.0591
  224MOL0     H29538   0.285   4.104   3.168  5.3337  1.1321  1.1551
  224MOL0     H29539   0.166   4.124   3.301 -2.6846 -3.5103 -1.5065
  224MOL0     H29540   0.294   3.855   3.234 -1.6060  0.2791 -2.3228
  224MOL0     H29541   0.188   3.879   3.358  0.1688 -1.7024 -1.6720
  224MOL0     H29542   0.130   3.942   3.063  1.1751 -2.4506 -0.4857
  224MOL0     H29543   0.012   3.966   3.198  0.9187  1.4128 -1.5779
  224MOL0     H29544   0.022   3.728   3.236 -1.6784  0.3066  0.1427
  224MOL0     H29545   0.152   3.702   3.118 -0.1687 -0.4756  0.2288
  224MOL0     H29546  -0.119   3.802   3.015 -0.1990 -0.7556 -1.6749
  224MOL0     H29547   0.024   3.744   2.924  2.1333 -3.8788  0.5717
  224MOL0     H29548  -0.133   3.570   3.122  3.1005 -0.7965  1.2719
  224MOL0     H29549  -0.056   3.509   2.974 -1.9851 -1.1146 -0.6584
  224MOL0     H29550   0.647   4.167   3.381  1.6267 -1.1265  0.0741
  224MOL0     H29551   0.884   4.250   3.367  0.8254  0.2013 -1.2820
  224MOL0     H29552   1.104   4.819   3.351 -0.1227 -1.0875  3.1706
  224MOL0     H29553   1.327   4.859   3.417  0.4069 -1.9544  3.8401
  224MOL0     H29554   1.069   4.401   2.219  2.0327 -0.2031 -1.7830
  224MOL0     H29555   0.835   4.396   2.130 -0.7667 -1.6933  0.1110
  224MOL0     H29556   0.401   4.044   2.177  1.8116 -0.0837 -1.7951
  224MOL0     H29557   0.177   4.067   2.083  1.9511 -1.3889  0.3642
  224MOL0     H29558   0.111   4.157   1.653 -1.0595 -4.0718  0.7670
  224MOL0     H29559   0.122   4.317   1.732 -0.6988  0.1603  6.3299
  224MOL0     H29560  -0.119   4.186   1.810 -0.3031  0.6788 -0.1679
  224MOL0     H29561  -0.098   4.348   1.743  1.1379 -1.0004  0.9184
  224MOL0     H29562  -0.106   4.073   1.610  0.4417  0.0224  2.3278
  224MOL0     H29563  -0.079   4.213   1.511 -1.8381 -1.1207 -1.1460
  224MOL0     H29564  -0.324   4.206   1.673 -1.0264 -0.8018 -0.7188
  224MOL0     H29565  -0.288   4.271   1.502 -1.4555 -0.2212 -0.4456
  224MOL0     H29566  -0.488   3.909   1.428 -1.8003  0.3795  1.5850
  224MOL0     H29567   0.336   4.183   1.715 -1.0875  1.5918  0.3907
  224MOL0     H29568   0.561   4.184   1.810 -0.2752  0.1413 -0.8705
  225MOL0     O29569   6.495  10.063   2.300  0.9381  0.0962  0.3878
  225MOL0     C29570   6.488  10.143   2.394  0.0613 -0.2090 -0.4699
  225MOL0     O29571   6.590  10.169   2.484  0.6371 -0.5727  0.7236
  225MOL0     C29572   6.695  10.084   2.463 -0.0127 -0.4609 -0.0462
  225MOL0     C29573   6.694   9.944   2.492 -0.4620 -0.2497 -0.3379
  225MOL0     C29574   6.805   9.863   2.482  0.8924  0.1373 -0.0761
  225MOL0     C29575   6.932   9.921   2.454  0.1956  0.0086 -0.6295
  225MOL0     O29576   7.053   9.858   2.460 -0.4152  1.0295 -0.0379
  225MOL0     C29577   7.054   9.718   2.499  0.0694 -0.8584 -0.1155
  225MOL0     C29578   7.190   9.649   2.475  0.3398  1.4018  0.0559
  225MOL0     C29579   7.172   9.502   2.524 -0.7378  0.7462  0.6379
  225MOL0     C29580   7.298   9.414   2.491 -0.6688  1.2245 -0.1040
  225MOL0     C29581   7.287   9.273   2.569 -0.0864 -0.4519 -0.5367
  225MOL0     C29582   7.163   9.192   2.537  0.1955  0.6945  0.8079
  225MOL0     C29583   7.155   9.145   2.397  0.6818 -0.2684  0.6509
  225MOL0     C29584   7.017   9.083   2.364 -0.5390 -0.4244  0.0058
  225MOL0     N29585   6.919   9.194   2.346  0.1149  0.1691  0.2861
  225MOL0     C29586   6.928   9.316   2.290  0.0363  0.1478  0.9264
  225MOL0     C29587   6.807   9.374   2.295 -0.0165 -0.6695 -0.9895
  225MOL0     C29588   6.768   9.498   2.224 -0.6698  0.0528 -0.4695
  225MOL0     C29589   6.620   9.525   2.221  0.6243 -0.4164 -0.1520
  225MOL0     C29590   6.561   9.582   2.357 -0.8230  0.2808 -0.5153
  225MOL0     C29591   6.414   9.619   2.347  0.3524 -0.0004  0.4247
  225MOL0     O29592   6.386   9.715   2.449 -0.2442 -0.8547  0.2564
  225MOL0     C29593   6.257   9.750   2.457 -0.2988  0.4223  0.2970
  225MOL0     C29594   6.213   9.869   2.530 -0.1717 -0.0138  0.0984
  225MOL0     C29595   6.082   9.898   2.532 -0.0573  0.5232 -0.5291
  225MOL0     C29596   5.972   9.827   2.477 -0.0759  0.3018 -0.0001
  225MOL0     C29597   5.831   9.881   2.469 -0.4996  0.6083 -0.2872
  225MOL0     O29598   5.811   9.999   2.528 -0.1235  0.1304 -0.3445
  225MOL0     C29599   5.692  10.060   2.538 -0.1863 -0.2363  1.0150
  225MOL0     C29600   5.570  10.051   2.456 -0.3823  0.2998  0.4384
  225MOL0     C29601   5.453  10.118   2.486 -0.3879 -0.5491 -0.4096
  225MOL0     C29602   5.457  10.203   2.600 -0.2223  0.5227  0.1916
  225MOL0     O29603   5.348  10.272   2.657 -0.5895  0.1452 -0.5447
  225MOL0     C29604   5.213  10.239   2.620  0.0903 -0.1537 -0.2807
  225MOL0     C29605   5.127  10.364   2.625 -0.3468  0.7510  0.4584
  225MOL0     C29606   4.982  10.322   2.637  0.2160  0.0873  0.4144
  225MOL0     C29607   4.893  10.440   2.690  0.3196 -0.0283 -0.7139
  225MOL0     C29608   4.742  10.432   2.660  0.2918 -0.2650 -0.7404
  225MOL0     C29609   4.678  10.289   2.687  1.0275 -0.2769 -0.7408
  225MOL0     C29610   4.521  10.287   2.671 -0.5120 -0.5147  0.3679
  225MOL0     C29611   4.455  10.158   2.720 -0.4800  0.0730 -0.9991
  225MOL0    Cl29612   4.354  10.187   2.869  0.0880 -0.5901 -0.3356
  225MOL0     C29613   5.572  10.206   2.680 -1.1032  0.6983 -0.0959
  225MOL0     C29614   5.685  10.143   2.651  0.1258  1.1362 -0.3222
  225MOL0     O29615   5.746   9.819   2.405 -0.2562 -0.0335  0.0455
  225MOL0     C29616   6.016   9.714   2.404 -0.0445  0.4359 -1.3051
  225MOL0     C29617   6.153   9.688   2.380  0.9584  0.0946 -0.5259
  225MOL0     N29618   6.727   9.296   2.371 -0.7872 -0.0620 -0.1614
  225MOL0     N29619   6.793   9.184   2.404  0.5646 -0.0343  0.3046
  225MOL0     C29620   6.931  10.057   2.424  0.5813  0.6611  0.4761
  225MOL0     C29621   6.820  10.132   2.418 -1.4199  0.0896 -0.6123
  225MOL0     C29622   6.370  10.235   2.416 -0.3606  0.2358 -1.3333
  225MOL0     C29623   6.382  10.353   2.487  1.2148  0.4820 -0.2746
  225MOL0     C29624   6.271  10.423   2.512  0.1537 -0.4881  0.0735
  225MOL0     C29625   6.141  10.380   2.467  0.0273  0.0188 -0.2783
  225MOL0     O29626   6.027  10.442   2.501  0.2268 -0.3591 -0.7636
  225MOL0     C29627   5.980  10.369   2.614 -0.6308  0.0224 -0.4464
  225MOL0     C29628   5.994  10.475   2.733  0.7031 -0.3214  0.4656
  225MOL0     C29629   5.885  10.458   2.839  0.3064  0.2758 -0.0143
  225MOL0     C29630   5.760  10.539   2.810  0.1030  0.2858 -0.1983
  225MOL0     C29631   5.666  10.546   2.923 -0.3635 -0.6276  0.6330
  225MOL0     C29632   5.593  10.539   3.026  0.4321  0.0381 -0.3461
  225MOL0     C29633   6.132  10.261   2.395  0.0535 -0.0349  0.4196
  225MOL0     C29634   6.251  10.195   2.360 -0.6269 -0.1446 -0.5133
  225MOL0     H29635   6.595   9.905   2.514 -0.2508  0.1368  1.4603
  225MOL0     H29636   6.792   9.759   2.510 -0.3519  0.1029 -0.7315
  225MOL0     H29637   6.979   9.674   2.433 -0.0786 -1.2722  0.3282
  225MOL0     H29638   7.023   9.712   2.604 -0.7334  0.5273 -0.2457
  225MOL0     H29639   7.268   9.698   2.533  1.7936  2.4026 -2.6022
  225MOL0     H29640   7.227   9.651   2.372 -3.4016  0.0680 -1.5109
  225MOL0     H29641   7.082   9.462   2.476  0.7563 -2.2741  0.0798
  225MOL0     H29642   7.168   9.495   2.633 -1.2195  1.0219  0.6427
  225MOL0     H29643   7.329   9.391   2.388  3.2905 -0.7231  1.3111
  225MOL0     H29644   7.382   9.468   2.534 -0.3404 -1.0636  2.3973
  225MOL0     H29645   7.292   9.290   2.677 -0.6871 -2.2352 -0.2061
  225MOL0     H29646   7.369   9.212   2.530  0.5713 -0.4203  0.7281
  225MOL0     H29647   7.073   9.248   2.564  1.3917  1.8406  2.6239
  225MOL0     H29648   7.168   9.096   2.588  1.3314 -0.0305 -0.6081
  225MOL0     H29649   7.174   9.231   2.333  1.3667 -2.0792 -1.7068
  225MOL0     H29650   7.237   9.075   2.379 -1.8652 -3.2123 -0.3677
  225MOL0     H29651   6.992   9.019   2.449  0.0701 -0.4757  0.1497
  225MOL0     H29652   7.022   9.020   2.274  0.6439 -0.5324  0.1397
  225MOL0     H29653   7.009   9.357   2.232 -0.0990  0.6429  1.0783
  225MOL0     H29654   6.810   9.474   2.126  2.8065  0.5266  0.7571
  225MOL0     H29655   6.824   9.588   2.254 -1.8540  2.4256 -4.5607
  225MOL0     H29656   6.567   9.433   2.197 -0.6880 -0.3337  2.1931
  225MOL0     H29657   6.592   9.602   2.148 -1.1894  1.4376  2.3459
  225MOL0     H29658   6.576   9.510   2.437  1.1418 -0.0237 -1.1125
  225MOL0     H29659   6.611   9.675   2.387 -4.0163  1.9741 -0.0152
  225MOL0     H29660   6.350   9.530   2.346 -0.7931  0.7838 -1.7955
  225MOL0     H29661   6.396   9.656   2.246  1.0661  1.4379  0.7889
  225MOL0     H29662   6.288   9.916   2.592 -0.1702 -0.7426  0.6583
  225MOL0     H29663   6.058   9.986   2.590  1.3305  2.5865 -2.8705
  225MOL0     H29664   5.559   9.989   2.368 -0.3718  3.5640 -2.0542
  225MOL0     H29665   5.368  10.103   2.420  1.3125 -1.5005 -2.5060
  225MOL0     H29666   5.167  10.167   2.688 -0.0897  2.5302  2.6376
  225MOL0     H29667   5.200  10.196   2.520 -0.1307 -1.6761  0.3780
  225MOL0     H29668   5.147  10.437   2.546  0.5628 -0.2437 -0.2612
  225MOL0     H29669   5.150  10.414   2.719  2.1655 -2.6946  1.8579
  225MOL0     H29670   4.974  10.245   2.715 -2.7249  0.5635  0.7039
  225MOL0     H29671   4.954  10.279   2.540  1.3824 -2.0281  0.9361
  225MOL0     H29672   4.910  10.451   2.797 -1.6281 -0.8098 -0.2978
  225MOL0     H29673   4.925  10.536   2.646  0.8754 -0.6353 -1.6791
  225MOL0     H29674   4.736  10.469   2.557 -1.5898  1.1601 -0.1830
  225MOL0     H29675   4.678  10.501   2.716  0.3690 -0.7257 -0.0758
  225MOL0     H29676   4.693  10.267   2.793 -4.7430 -0.9499  0.2832
  225MOL0     H29677   4.710  10.213   2.615  0.6066  0.9622 -2.3042
  225MOL0     H29678   4.492  10.370   2.737 -2.6728  0.8151 -2.0670
  225MOL0     H29679   4.486  10.317   2.572 -0.2083  0.2784  0.4894
  225MOL0     H29680   4.520  10.079   2.758  0.8505  2.1091  1.2574
  225MOL0     H29681   4.395  10.106   2.645  3.6015 -1.9439 -3.2655
  225MOL0     H29682   5.559  10.259   2.774  2.9101 -0.3380  1.2531
  225MOL0     H29683   5.769  10.147   2.720 -0.3137 -2.9503  0.7151
  225MOL0     H29684   5.940   9.658   2.350  0.7421 -0.2710 -1.6982
  225MOL0     H29685   6.169   9.608   2.309  3.9109  0.2618 -0.1536
  225MOL0     H29686   7.020  10.115   2.403  0.0854 -0.0340 -4.9576
  225MOL0     H29687   6.836  10.239   2.402  3.2242 -0.2993 -0.1053
  225MOL0     H29688   6.482  10.384   2.515  1.1549 -0.6890  1.3706
  225MOL0     H29689   6.267  10.514   2.571 -1.0671  0.4862 -1.4248
  225MOL0     H29690   6.035  10.278   2.639  0.6418  0.5474 -1.2427
  225MOL0     H29691   5.874  10.344   2.599 -0.5866 -0.1818 -0.4152
  225MOL0     H29692   6.092  10.466   2.781 -0.6003 -2.7987  2.9659
  225MOL0     H29693   5.991  10.577   2.691  2.1204 -0.1394  0.7658
  225MOL0     H29694   5.929  10.510   2.925  2.0219 -0.5087 -0.3640
  225MOL0     H29695   5.864  10.354   2.866  1.4634  0.6008  2.3919
  225MOL0     H29696   5.777  10.643   2.782  1.8049  0.1187  0.1185
  225MOL0     H29697   5.703  10.492   2.729 -1.0269 -1.3897  1.4649
  225MOL0     H29698   5.533  10.541   3.115 -0.4249  1.8181 -0.9348
  225MOL0     H29699   6.044  10.215   2.351  0.4107 -0.9427  0.6328
  225MOL0     H29700   6.257  10.109   2.294 -0.9342  0.2509 -1.0709
  226MOL0     O29701   6.218   9.462   7.924  0.0701  0.2573  0.1439
  226MOL0     C29702   6.188   9.500   7.810 -0.0705 -0.7506  0.2965
  226MOL0     O29703   6.271   9.551   7.715 -0.2479 -0.0925  0.0907
  226MOL0     C29704   6.404   9.545   7.738  0.2033 -0.0508 -0.1680
  226MOL0     C29705   6.468   9.586   7.865  0.2486  0.4692 -0.1720
  226MOL0     C29706   6.602   9.565   7.894 -1.1374  0.9982  0.3869
  226MOL0     C29707   6.677   9.488   7.795  0.1574 -0.8479  0.2965
  226MOL0     O29708   6.813   9.462   7.815 -0.0209  0.5473 -0.2670
  226MOL0     C29709   6.907   9.574   7.822 -1.2930  0.2235 -0.2622
  226MOL0     C29710   7.050   9.531   7.858  0.5403  0.6226 -0.3273
  226MOL0     C29711   7.148   9.645   7.870 -1.1807  0.3548  0.0163
  226MOL0     C29712   7.188   9.683   7.729 -0.0946  0.3665 -0.1221
  226MOL0     C29713   7.336   9.742   7.720 -0.0860  0.0738 -0.5821
  226MOL0     C29714   7.435   9.624   7.714 -0.3919 -0.9039 -0.4491
  226MOL0     C29715   7.581   9.691   7.725  0.0008 -0.5656  0.2118
  226MOL0     C29716   7.689   9.599   7.788  0.5430  0.2241  0.1901
  226MOL0     N29717   7.826   9.657   7.790  0.5011 -1.1864  0.2480
  226MOL0     C29718   7.880   9.769   7.857  0.9407  0.1597 -0.9078
  226MOL0     C29719   8.007   9.741   7.858 -0.1002  0.5278  0.1607
  226MOL0     C29720   8.106   9.829   7.926 -0.6910 -0.7568 -0.1652
  226MOL0     C29721   8.163   9.939   7.824 -0.0924  1.5028 -0.0426
  226MOL0     C29722   8.247  10.047   7.903 -0.4565 -0.4500  0.5683
  226MOL0     C29723   8.372  10.096   7.826  0.5876 -0.3475  0.3228
  226MOL0     O29724   8.448   9.986   7.760 -0.4445  0.7223 -1.2003
  226MOL0     C29725   8.553  10.046   7.694 -0.8916  0.1341  0.3003
  226MOL0     C29726   8.685  10.022   7.738  0.8425 -0.0203  0.7792
  226MOL0     C29727   8.793  10.071   7.677 -0.6838 -0.7027  0.2713
  226MOL0     C29728   8.780  10.139   7.554  1.2719 -0.0081 -0.1911
  226MOL0     C29729   8.894  10.182   7.480 -0.0390  1.0565 -0.9441
  226MOL0     O29730   9.017  10.127   7.509  0.1472  0.6990  0.1430
  226MOL0     C29731   9.130  10.199   7.474 -0.5635 -0.1801 -0.5991
  226MOL0     C29732   9.252  10.132   7.511  0.4251  0.1615 -0.2635
  226MOL0     C29733   9.375  10.191   7.490 -0.8853 -0.1027  0.5967
  226MOL0     C29734   9.377  10.319   7.429  0.5920  0.2529  0.4187
  226MOL0     O29735   9.501  10.376   7.392 -0.3452  0.4485  0.3736
  226MOL0     C29736   9.519  10.511   7.348 -0.3998  0.2839  0.2074
  226MOL0     C29737   9.664  10.534   7.352  0.2598  0.2007  0.5714
  226MOL0     C29738   9.694  10.670   7.305 -0.0658  0.1763 -0.1931
  226MOL0     C29739   9.851  10.714   7.321  1.1476 -0.8241  0.2122
  226MOL0     C29740   9.853  10.866   7.320 -0.0279 -0.1044 -0.2685
  226MOL0     C29741   9.998  10.921   7.296  0.0780 -0.3128  0.2308
  226MOL0     C29742  10.023  11.079   7.274  0.7867 -0.3167  0.4366
  226MOL0     C29743   9.979  11.149   7.148  0.5224 -0.1839  1.1727
  226MOL0    Cl29744  10.125  11.182   7.046 -0.2123  0.0549  0.0114
  226MOL0     C29745   9.255  10.388   7.401  0.4190 -0.3091  0.4225
  226MOL0     C29746   9.130  10.334   7.421  0.0766 -0.4266  0.2181
  226MOL0     O29747   8.870  10.262   7.389 -0.6642 -0.6744 -0.6703
  226MOL0     C29748   8.651  10.159   7.500 -0.1902 -0.0355 -0.0318
  226MOL0     C29749   8.539  10.111   7.569  0.5924 -0.0045  0.1463
  226MOL0     N29750   8.040   9.634   7.781 -0.6937  0.5821 -0.2869
  226MOL0     N29751   7.928   9.587   7.744  0.4442  0.4770 -0.0015
  226MOL0     C29752   6.619   9.448   7.678 -0.0137  0.8914 -0.6500
  226MOL0     C29753   6.491   9.483   7.647  0.3685  0.3379  0.4280
  226MOL0     C29754   6.041   9.492   7.786 -0.2383 -0.2912 -0.1393
  226MOL0     C29755   5.960   9.404   7.852  0.3363  1.0859  0.5590
  226MOL0     C29756   5.819   9.397   7.829  0.7661 -0.3395 -0.1922
  226MOL0     C29757   5.765   9.481   7.734 -0.1885  0.0643  1.2892
  226MOL0     O29758   5.629   9.479   7.721 -0.7944  0.1981 -0.1120
  226MOL0     C29759   5.561   9.567   7.620 -0.0059 -0.4058  0.2230
  226MOL0     C29760   5.403   9.546   7.618  0.3334 -0.7145  0.6272
  226MOL0     C29761   5.338   9.629   7.725 -0.2142  0.1148  0.0591
  226MOL0     C29762   5.187   9.605   7.753  1.2652  0.4996  0.3520
  226MOL0     C29763   5.162   9.464   7.792 -0.0695 -0.2302 -0.3072
  226MOL0     C29764   5.140   9.351   7.832 -0.0018  0.4006 -0.4642
  226MOL0     C29765   5.849   9.567   7.661  0.3042  0.4439 -0.5267
  226MOL0     C29766   5.979   9.571   7.688  1.0528 -0.3256  0.3464
  226MOL0     H29767   6.393   9.619   7.937 -0.4499 -3.5036  1.2063
  226MOL0     H29768   6.622   9.615   7.988  1.6799  2.7734 -1.0119
  226MOL0     H29769   6.885   9.646   7.901 -1.0546 -1.7579  1.6911
  226MOL0     H29770   6.894   9.629   7.728 -2.5467  0.3838 -0.0102
  226MOL0     H29771   7.076   9.445   7.796  0.9405 -1.7150  2.8084
  226MOL0     H29772   7.051   9.490   7.959 -3.2762  0.7635 -0.0906
  226MOL0     H29773   7.230   9.599   7.926  0.8281  0.8683 -2.2717
  226MOL0     H29774   7.114   9.731   7.928  1.0487 -0.1865  2.2761
  226MOL0     H29775   7.178   9.605   7.653  2.0917  0.4154 -0.5356
  226MOL0     H29776   7.117   9.757   7.691 -0.1647 -0.2654 -1.2695
  226MOL0     H29777   7.354   9.788   7.817 -0.7099 -3.9780  1.6652
  226MOL0     H29778   7.349   9.800   7.628 -0.4601  1.6508  0.3237
  226MOL0     H29779   7.429   9.567   7.621  1.6441 -1.1780 -0.4541
  226MOL0     H29780   7.416   9.556   7.798  0.0993 -1.2360 -0.6063
  226MOL0     H29781   7.602   9.707   7.619 -0.3808 -0.0365  0.2150
  226MOL0     H29782   7.588   9.785   7.781 -1.9993 -0.0108 -0.3964
  226MOL0     H29783   7.687   9.505   7.732  1.4859  0.1402  0.2902
  226MOL0     H29784   7.655   9.578   7.889 -1.4217  2.1701  0.0168
  226MOL0     H29785   7.846   9.860   7.906 -0.3232  1.2024 -3.5702
  226MOL0     H29786   8.182   9.763   7.968  1.9695  0.9101 -2.0343
  226MOL0     H29787   8.071   9.876   8.018  3.3538  2.4816  0.0412
  226MOL0     H29788   8.087   9.991   7.765  0.1768  2.2160  0.2361
  226MOL0     H29789   8.232   9.891   7.754  1.8172  0.8974  2.1250
  226MOL0     H29790   8.184  10.134   7.923 -3.5874 -2.9620  2.8334
  226MOL0     H29791   8.296  10.009   7.993  0.3162 -4.1629 -1.2201
  226MOL0     H29792   8.443  10.141   7.896  0.6308 -0.2620  0.2258
  226MOL0     H29793   8.351  10.170   7.747  1.9393 -1.6536 -1.3407
  226MOL0     H29794   8.702   9.971   7.833 -0.7570 -1.4312  0.3596
  226MOL0     H29795   8.894  10.047   7.708 -0.3849 -1.1481 -1.0267
  226MOL0     H29796   9.250  10.033   7.557  2.7564 -0.4220 -1.2455
  226MOL0     H29797   9.466  10.145   7.526 -1.8542 -2.8395 -0.2051
  226MOL0     H29798   9.472  10.583   7.417  3.3652  0.9633  2.3024
  226MOL0     H29799   9.479  10.510   7.246  2.0565  1.0093 -0.8345
  226MOL0     H29800   9.721  10.473   7.281  0.0455  1.4770 -0.7558
  226MOL0     H29801   9.703  10.512   7.451  1.6415  0.9102  0.2018
  226MOL0     H29802   9.628  10.741   7.356 -1.8098 -2.2412  1.1526
  226MOL0     H29803   9.664  10.666   7.200 -1.3093  0.1658  0.1504
  226MOL0     H29804   9.885  10.672   7.416 -1.0947 -2.5312  0.3491
  226MOL0     H29805   9.912  10.678   7.238  0.8336  1.2162 -0.9765
  226MOL0     H29806   9.822  10.907   7.417 -2.4286 -2.0288 -0.1114
  226MOL0     H29807   9.782  10.894   7.242  0.9337  2.7369 -0.2158
  226MOL0     H29808  10.042  10.887   7.202 -0.6959  1.2504 -0.7298
  226MOL0     H29809  10.055  10.893   7.385  0.0512 -0.0207  0.3398
  226MOL0     H29810   9.982  11.133   7.360  2.5908  2.0639 -0.1098
  226MOL0     H29811  10.131  11.091   7.284  0.6345  3.1343 -0.7498
  226MOL0     H29812   9.924  11.242   7.166  1.4081  0.9828 -1.5688
  226MOL0     H29813   9.922  11.079   7.086  2.0013  0.6472 -1.3010
  226MOL0     H29814   9.257  10.488   7.359 -0.9390  0.8553  2.9178
  226MOL0     H29815   9.042  10.391   7.394  0.4516 -0.4303 -1.0874
  226MOL0     H29816   8.631  10.216   7.410 -2.7259  2.0498  1.6866
  226MOL0     H29817   8.438  10.135   7.537 -1.3847  1.6047  6.1556
  226MOL0     H29818   6.668   9.383   7.606  1.0760  1.4266 -0.4080
  226MOL0     H29819   6.440   9.445   7.559 -0.1311  1.8200  0.0456
  226MOL0     H29820   6.010   9.349   7.931  3.3222  1.4021 -0.9690
  226MOL0     H29821   5.754   9.331   7.885 -0.2238 -1.1930 -2.2447
  226MOL0     H29822   5.597   9.549   7.518 -1.7380  1.6917 -0.8281
  226MOL0     H29823   5.571   9.671   7.651 -2.4548 -0.0280 -0.1296
  226MOL0     H29824   5.370   9.581   7.520  2.1528  1.2259  0.6359
  226MOL0     H29825   5.381   9.440   7.634  1.6915 -1.0529  0.3975
  226MOL0     H29826   5.357   9.737   7.717 -0.1798  0.5164  3.9113
  226MOL0     H29827   5.396   9.603   7.814  0.3762 -2.1833 -0.9209
  226MOL0     H29828   5.167   9.678   7.831  0.1523  2.6517 -1.8198
  226MOL0     H29829   5.135   9.636   7.662  0.9304 -0.1696  0.3096
  226MOL0     H29830   5.145   9.253   7.874 -0.6773 -0.1459 -1.6218
  226MOL0     H29831   5.807   9.633   7.586 -3.3069 -2.3179 -1.1948
  226MOL0     H29832   6.035   9.636   7.621 -0.5778 -0.2471 -0.9899
  227MOL0     O29833   8.405   5.036   4.669 -0.6387  0.0259 -0.4113
  227MOL0     C29834   8.446   4.946   4.595 -0.9713 -0.7591  1.0028
  227MOL0     O29835   8.383   4.834   4.562  0.1118 -0.0605  0.1148
  227MOL0     C29836   8.245   4.834   4.535 -0.0199  0.1101  0.4580
  227MOL0     C29837   8.179   4.714   4.545  0.5635 -0.3057 -0.5196
  227MOL0     C29838   8.041   4.700   4.506  0.2656  0.6251 -0.8078
  227MOL0     C29839   7.973   4.812   4.466  0.8322  1.2010  0.2549
  227MOL0     O29840   7.835   4.808   4.436  0.2973 -0.3360 -0.0499
  227MOL0     C29841   7.753   4.696   4.465 -0.2461  0.8499 -0.6822
  227MOL0     C29842   7.612   4.733   4.420  0.1311  0.2908  0.5200
  227MOL0     C29843   7.513   4.654   4.506 -0.9547 -0.3611  0.4248
  227MOL0     C29844   7.375   4.652   4.445 -0.1845  0.2197 -0.2725
  227MOL0     C29845   7.296   4.537   4.510 -1.5815 -0.0348 -0.2838
  227MOL0     C29846   7.153   4.556   4.498  0.1309 -0.3324 -0.2081
  227MOL0     C29847   7.065   4.451   4.578  0.2653  0.2032  0.0189
  227MOL0     C29848   6.919   4.489   4.547 -0.5694  1.0714  0.8370
  227MOL0     N29849   6.820   4.386   4.590  0.3007 -0.0148  0.0639
  227MOL0     C29850   6.831   4.302   4.696 -0.2244  0.6940 -0.5672
  227MOL0     C29851   6.742   4.204   4.677  0.0259  0.0114 -0.1449
  227MOL0     C29852   6.731   4.087   4.766 -0.5438  0.5555 -0.0706
  227MOL0     C29853   6.591   4.058   4.797  0.1623 -0.4198  0.0697
  227MOL0     C29854   6.578   3.942   4.889  0.4948 -1.0535 -0.1381
  227MOL0     C29855   6.645   3.814   4.845  0.0802  0.0939 -0.0066
  227MOL0     O29856   6.569   3.714   4.904 -0.2836 -0.4883 -0.0947
  227MOL0     C29857   6.605   3.661   5.024  0.0844  0.3073  0.4282
  227MOL0     C29858   6.690   3.724   5.121 -0.1703 -0.7878  0.0539
  227MOL0     C29859   6.729   3.653   5.230 -0.2343  0.3979 -0.1073
  227MOL0     C29860   6.674   3.522   5.250  0.8536  0.0497  0.1721
  227MOL0     C29861   6.702   3.458   5.375 -0.0125  0.6071 -0.7627
  227MOL0     O29862   6.800   3.518   5.443 -0.0044  0.3091 -0.0113
  227MOL0     C29863   6.810   3.512   5.585 -0.0077  0.2631  0.0320
  227MOL0     C29864   6.883   3.416   5.656  0.4176  0.3177  0.7560
  227MOL0     C29865   6.903   3.426   5.793  0.8142  0.1814 -0.0775
  227MOL0     C29866   6.843   3.531   5.863  0.3652 -0.2050 -0.1465
  227MOL0     O29867   6.884   3.549   5.988  0.1627 -0.9234 -0.4100
  227MOL0     C29868   6.924   3.682   6.023 -0.7683  0.0350  0.1320
  227MOL0     C29869   7.012   3.659   6.147 -0.4336  0.5801  0.6607
  227MOL0     C29870   6.946   3.583   6.267  0.3026  0.0521 -0.4941
  227MOL0     C29871   7.059   3.567   6.370 -0.0666 -0.0455 -0.2142
  227MOL0     C29872   7.012   3.500   6.495 -0.3887 -0.2152  0.0122
  227MOL0     C29873   7.112   3.473   6.606 -0.1423  0.1677 -0.6267
  227MOL0     C29874   7.145   3.600   6.686  0.9236 -0.0216 -0.4365
  227MOL0     C29875   7.237   3.559   6.807  0.3928  0.5792 -0.2808
  227MOL0    Cl29876   7.387   3.481   6.747 -0.2505  0.2676  0.1066
  227MOL0     C29877   6.759   3.619   5.794  0.0581 -0.0496  0.2919
  227MOL0     C29878   6.750   3.616   5.656  0.6748 -0.5969  0.7592
  227MOL0     O29879   6.630   3.359   5.420 -0.3692 -0.2984  0.8881
  227MOL0     C29880   6.583   3.464   5.165 -0.2204 -0.1103  0.0114
  227MOL0     C29881   6.551   3.537   5.043  0.4593  0.5065 -0.5274
  227MOL0     N29882   6.667   4.230   4.571  0.4276  0.4085  0.9945
  227MOL0     N29883   6.726   4.334   4.516  0.6829  0.9632 -0.7692
  227MOL0     C29884   8.035   4.933   4.456 -1.0784 -0.0294 -0.1474
  227MOL0     C29885   8.174   4.950   4.501 -0.7037  0.0280 -0.1656
  227MOL0     C29886   8.587   4.939   4.567  0.8567  0.3251  0.0808
  227MOL0     C29887   8.651   4.825   4.510  1.5570 -0.1218 -0.9805
  227MOL0     C29888   8.771   4.836   4.440  0.9646  0.0439  0.9043
  227MOL0     C29889   8.852   4.954   4.457  1.1286 -1.0003  0.0775
  227MOL0     O29890   8.982   4.953   4.419  0.2813  0.2401  0.0647
  227MOL0     C29891   9.037   5.075   4.371 -0.0328  1.1214  0.3959
  227MOL0     C29892   9.158   5.047   4.287 -1.1000 -0.3841  0.1637
  227MOL0     C29893   9.286   5.044   4.372 -0.9101 -0.1597 -0.3989
  227MOL0     C29894   9.408   5.033   4.285  1.1575 -0.1084  0.6279
  227MOL0     C29895   9.528   5.067   4.359 -0.4776 -0.2114 -1.1921
  227MOL0     C29896   9.628   5.097   4.429 -0.7644  0.3266  0.1689
  227MOL0     C29897   8.794   5.054   4.531  0.7212  0.7521  0.7829
  227MOL0     C29898   8.664   5.053   4.583 -0.4677  0.0381  0.6565
  227MOL0     H29899   8.236   4.631   4.586  1.0612 -0.1256 -0.8293
  227MOL0     H29900   8.000   4.600   4.512  0.7778  0.3852 -1.1336
  227MOL0     H29901   7.761   4.679   4.572 -1.2479  0.1728 -0.7075
  227MOL0     H29902   7.788   4.606   4.413 -1.4450 -1.0985  1.6975
  227MOL0     H29903   7.595   4.712   4.314  3.3398 -2.7421  0.4094
  227MOL0     H29904   7.601   4.841   4.433  2.7706  0.6406  0.3542
  227MOL0     H29905   7.503   4.699   4.606 -2.3044 -2.1107  1.1105
  227MOL0     H29906   7.554   4.554   4.523  2.8607  0.9043 -0.2370
  227MOL0     H29907   7.337   4.752   4.467  3.0925  1.3821  0.5193
  227MOL0     H29908   7.361   4.647   4.337  1.4337 -2.1278 -0.4478
  227MOL0     H29909   7.325   4.526   4.615  0.4439 -0.2000 -0.8138
  227MOL0     H29910   7.325   4.445   4.460 -1.8447 -0.5470  0.4946
  227MOL0     H29911   7.137   4.546   4.390  1.1615 -1.5553 -0.2704
  227MOL0     H29912   7.126   4.657   4.533  2.0068  0.7952 -1.8076
  227MOL0     H29913   7.077   4.348   4.545  0.9819  0.2739  0.0413
  227MOL0     H29914   7.083   4.474   4.684  0.7047  3.0306 -0.5863
  227MOL0     H29915   6.914   4.508   4.440  1.0395 -0.7161  0.3953
  227MOL0     H29916   6.888   4.578   4.603 -0.1815  1.0138  1.1479
  227MOL0     H29917   6.903   4.314   4.777 -1.4573 -0.1765  0.7256
  227MOL0     H29918   6.777   4.099   4.864 -1.5761 -1.6307  0.7420
  227MOL0     H29919   6.787   4.010   4.712 -1.1032  0.0826  0.0061
  227MOL0     H29920   6.526   4.049   4.710 -0.0900  0.1557  0.1934
  227MOL0     H29921   6.559   4.149   4.848 -0.1304  0.3473 -1.4256
  227MOL0     H29922   6.615   3.968   4.989  4.0046 -1.0704 -1.3078
  227MOL0     H29923   6.469   3.929   4.894  0.2940  0.2700 -0.5454
  227MOL0     H29924   6.749   3.822   4.877  0.4335  0.5938 -1.2198
  227MOL0     H29925   6.638   3.807   4.736 -1.0827 -0.6684  0.0927
  227MOL0     H29926   6.734   3.822   5.107  0.2034 -0.8040  1.0271
  227MOL0     H29927   6.795   3.701   5.301  1.4399 -1.5973 -0.2317
  227MOL0     H29928   6.917   3.335   5.592 -5.1765 -4.6541  3.1221
  227MOL0     H29929   6.962   3.349   5.841  0.1108  1.5091  3.1489
  227MOL0     H29930   6.836   3.743   6.044 -0.3903  1.0945 -1.2395
  227MOL0     H29931   6.976   3.735   5.943  2.9285  0.5340  2.6206
  227MOL0     H29932   7.042   3.755   6.191  1.5483  1.3471 -2.0779
  227MOL0     H29933   7.105   3.604   6.130 -2.0856 -2.3457  0.4772
  227MOL0     H29934   6.905   3.485   6.242  0.5454 -0.5126  1.1891
  227MOL0     H29935   6.868   3.653   6.296  0.2641  0.9925 -2.6788
  227MOL0     H29936   7.135   3.501   6.327 -1.7993 -1.5860 -1.0603
  227MOL0     H29937   7.096   3.668   6.388 -1.5396  0.4343  0.2457
  227MOL0     H29938   6.970   3.400   6.479  2.1599 -1.7721  2.2978
  227MOL0     H29939   6.939   3.573   6.532  0.0249  0.2611 -0.0966
  227MOL0     H29940   7.209   3.454   6.558  0.6733  0.8376  0.7124
  227MOL0     H29941   7.081   3.389   6.668  3.9219 -2.2389 -1.5031
  227MOL0     H29942   7.180   3.680   6.619 -0.4886 -0.3437 -1.6187
  227MOL0     H29943   7.053   3.635   6.733  0.8978  0.7907 -1.0627
  227MOL0     H29944   7.180   3.485   6.864  2.5200 -0.7947  0.1660
  227MOL0     H29945   7.260   3.647   6.867  1.4410  0.3320 -0.3001
  227MOL0     H29946   6.704   3.695   5.850 -0.5369 -0.2402 -0.0246
  227MOL0     H29947   6.693   3.692   5.602 -1.1956  0.7907  4.3421
  227MOL0     H29948   6.539   3.368   5.187 -1.0671  0.0276 -0.9889
  227MOL0     H29949   6.474   3.501   4.975 -1.1487  1.0915  0.9011
  227MOL0     H29950   7.975   5.016   4.420 -2.1045 -0.5131  0.4049
  227MOL0     H29951   8.227   5.045   4.511  0.4781 -0.8805  4.4785
  227MOL0     H29952   8.601   4.729   4.510  2.7763 -0.8678 -3.8023
  227MOL0     H29953   8.817   4.752   4.390  1.5745 -0.2320  1.9095
  227MOL0     H29954   9.068   5.135   4.458 -1.1653  1.2012  0.7517
  227MOL0     H29955   8.959   5.137   4.327 -0.0261  0.3939 -0.6568
  227MOL0     H29956   9.151   4.960   4.222  0.3459  0.4303 -1.1550
  227MOL0     H29957   9.169   5.121   4.207  1.3320 -0.1510  0.6307
  227MOL0     H29958   9.274   4.957   4.437 -1.4547  0.7669  0.7595
  227MOL0     H29959   9.293   5.133   4.435 -0.4507 -0.7775  0.4366
  227MOL0     H29960   9.410   4.936   4.233 -3.7813  0.7336 -1.6951
  227MOL0     H29961   9.387   5.091   4.195 -2.0116 -0.2060  1.1870
  227MOL0     H29962   9.721   5.102   4.483  0.2908 -0.5414 -1.4700
  227MOL0     H29963   8.854   5.142   4.553  1.2505  0.3305  1.0548
  227MOL0     H29964   8.617   5.134   4.638 -0.3264  1.4839 -1.2351
  228MOL0     O29965   1.813   9.960   7.237  0.1965 -0.1756 -0.1245
  228MOL0     C29966   1.818  10.031   7.338  0.7240 -0.3627  0.3287
  228MOL0     O29967   1.926  10.107   7.371  0.0404  0.0735  0.0504
  228MOL0     C29968   2.048  10.080   7.310  0.1436 -0.6952  0.0657
  228MOL0     C29969   2.153  10.018   7.378  0.5522 -0.3611 -0.6721
  228MOL0     C29970   2.266   9.981   7.302 -0.1077 -0.0332  0.6323
  228MOL0     C29971   2.282  10.027   7.166  0.1047 -0.8996 -0.6449
  228MOL0     O29972   2.390   9.996   7.087  0.4270  0.0547 -0.1384
  228MOL0     C29973   2.508   9.963   7.166  0.3962  1.1966  0.3090
  228MOL0     C29974   2.638   9.966   7.082 -0.5436 -0.1161  0.3489
  228MOL0     C29975   2.687  10.113   7.033 -0.1824 -0.3975  0.3920
  228MOL0     C29976   2.824  10.101   6.954  0.4146 -0.2847  0.4314
  228MOL0     C29977   2.863  10.248   6.923  0.7132 -0.5419 -0.3374
  228MOL0     C29978   2.974  10.266   6.808  0.9357  0.0249  0.3932
  228MOL0     C29979   3.117  10.241   6.854 -0.2440  0.0878 -0.5988
  228MOL0     C29980   3.219  10.280   6.748 -0.0276 -0.3371  0.3648
  228MOL0     N29981   3.198  10.210   6.623 -0.3399 -0.4693 -0.2349
  228MOL0     C29982   3.182  10.074   6.619 -0.3368  0.1222 -0.3855
  228MOL0     C29983   3.181  10.041   6.490  0.3276 -0.0058 -0.1125
  228MOL0     C29984   3.168   9.905   6.435  0.8371  1.2494  0.6253
  228MOL0     C29985   3.014   9.867   6.437  0.2686  1.0966 -0.1747
  228MOL0     C29986   2.925   9.958   6.350 -0.5817  0.4985  0.8677
  228MOL0     C29987   2.941   9.958   6.199 -0.9987  0.0409 -0.8751
  228MOL0     O29988   2.903   9.832   6.133  0.0885 -0.1025  0.0286
  228MOL0     C29989   2.781   9.823   6.079  0.4781  0.2782  0.2787
  228MOL0     C29990   2.662   9.890   6.112  0.2626  0.5859  0.2923
  228MOL0     C29991   2.544   9.848   6.042  0.7813  0.6712 -0.4600
  228MOL0     C29992   2.536   9.730   5.969  0.0080  0.7502  0.0535
  228MOL0     C29993   2.407   9.673   5.935  0.4955 -0.9550 -1.1332
  228MOL0     O29994   2.404   9.549   5.886 -0.0291 -0.4814 -0.2222
  228MOL0     C29995   2.276   9.493   5.856 -0.9616 -0.0777 -0.2959
  228MOL0     C29996   2.206   9.400   5.940  0.3773 -0.4795  0.1817
  228MOL0     C29997   2.079   9.353   5.897 -0.1459  0.2914  0.2696
  228MOL0     C29998   2.026   9.398   5.782  0.5997  0.1984  0.0584
  228MOL0     O29999   1.904   9.341   5.735  0.5335 -0.4969  0.1047
  228MOL0     C30000   1.777   9.412   5.766 -0.2817 -0.1244 -0.6312
  228MOL0     C30001   1.698   9.456   5.649 -0.2243 -1.2009  0.9827
  228MOL0     C30002   1.560   9.505   5.687 -0.1328  0.0290  0.4687
  228MOL0     C30003   1.477   9.532   5.562 -0.5749 -0.5677  0.0714
  228MOL0     C30004   1.333   9.571   5.605 -0.4823 -0.5667 -0.3915
  228MOL0     C30005   1.245   9.450   5.642  0.1078  0.2192  0.5428
  228MOL0     C30006   1.110   9.494   5.701 -0.1117 -0.1529  0.0539
  228MOL0     C30007   1.009   9.382   5.719 -0.1343  0.1045  0.3424
  228MOL0    Cl30008   1.054   9.277   5.863 -0.1764 -0.0331 -0.0434
  228MOL0     C30009   2.101   9.466   5.697 -0.5305  0.0173  0.4635
  228MOL0     C30010   2.223   9.515   5.733  0.1484  0.0049  1.6995
  228MOL0     O30011   2.311   9.750   5.932 -0.1577  0.6636  0.4710
  228MOL0     C30012   2.648   9.657   5.958 -0.5245  0.4422 -0.1630
  228MOL0     C30013   2.767   9.702   6.007  0.3506 -0.6080 -0.2796
  228MOL0     N30014   3.196  10.158   6.418  0.4695  0.8975  0.4100
  228MOL0     N30015   3.212  10.261   6.500 -0.6456  0.0539  0.2839
  228MOL0     C30016   2.179  10.095   7.105 -0.0622 -0.4895  0.6710
  228MOL0     C30017   2.062  10.114   7.171 -0.1220  0.0979  1.1598
  228MOL0     C30018   1.698  10.034   7.427 -0.0035 -0.0007 -0.1199
  228MOL0     C30019   1.709  10.088   7.559  0.6391 -0.3942 -0.0820
  228MOL0     C30020   1.603  10.083   7.643  0.9168  0.3153  0.7407
  228MOL0     C30021   1.474  10.028   7.612 -0.3725 -0.3461 -1.2296
  228MOL0     O30022   1.373   9.994   7.709  0.1653 -0.5528 -0.1110
  228MOL0     C30023   1.384   9.860   7.751  0.4847 -0.2675 -0.0523
  228MOL0     C30024   1.269   9.808   7.844 -0.4062 -0.9630  1.0245
  228MOL0     C30025   1.295   9.673   7.906 -0.7392  0.5900  0.9427
  228MOL0     C30026   1.318   9.565   7.793  0.2614 -0.1835  0.3688
  228MOL0     C30027   1.317   9.424   7.828  0.8899  0.6039 -0.7664
  228MOL0     C30028   1.286   9.309   7.870 -0.6677 -1.1921  0.4237
  228MOL0     C30029   1.468   9.968   7.483  0.6047 -0.0199  0.9794
  228MOL0     C30030   1.574   9.972   7.389 -0.3286  0.0333 -0.0440
  228MOL0     H30031   2.132   9.988   7.480 -1.4917  2.0252 -0.3075
  228MOL0     H30032   2.348   9.924   7.344 -0.3917 -3.6662 -3.0638
  228MOL0     H30033   2.505   9.858   7.195  1.7560  1.8384  3.0617
  228MOL0     H30034   2.523  10.024   7.255 -0.8507  0.5236  0.9974
  228MOL0     H30035   2.611   9.909   6.993 -3.6899 -1.5450  2.0381
  228MOL0     H30036   2.726   9.929   7.136 -1.1056 -1.9932  0.0340
  228MOL0     H30037   2.699  10.172   7.125 -0.7743 -3.2918  2.4692
  228MOL0     H30038   2.615  10.169   6.971  1.9138  0.5501 -1.3090
  228MOL0     H30039   2.903  10.060   7.017 -0.5316 -4.1849 -0.6548
  228MOL0     H30040   2.809  10.032   6.870 -0.5904 -0.0898  0.4304
  228MOL0     H30041   2.885  10.301   7.016 -2.7611  2.3661 -0.9249
  228MOL0     H30042   2.774  10.306   6.895  0.7089 -0.3159  0.1477
  228MOL0     H30043   2.966  10.370   6.776  0.4916  0.5458  2.1065
  228MOL0     H30044   2.960  10.195   6.726 -0.9592 -1.2331  1.7078
  228MOL0     H30045   3.129  10.301   6.945  0.8450 -0.1014 -0.6013
  228MOL0     H30046   3.138  10.140   6.889 -2.1436 -0.1183  0.0966
  228MOL0     H30047   3.320  10.272   6.790  0.1485  4.4541  1.4375
  228MOL0     H30048   3.208  10.388   6.732 -0.8640  0.0877  3.1902
  228MOL0     H30049   3.159  10.011   6.704 -1.7795 -1.7046 -2.0484
  228MOL0     H30050   3.230   9.838   6.495 -1.3268 -0.5192  1.0421
  228MOL0     H30051   3.206   9.889   6.334  1.8212 -0.7679  1.2653
  228MOL0     H30052   2.975   9.854   6.539  2.6330  1.4765  0.8409
  228MOL0     H30053   3.002   9.766   6.395 -2.4538  0.9317  0.8246
  228MOL0     H30054   2.823   9.928   6.375 -0.8270  1.0520  0.5431
  228MOL0     H30055   2.949  10.059   6.383  0.4198  0.2799  0.8435
  228MOL0     H30056   3.046   9.977   6.178 -0.9285 -2.3590 -3.2078
  228MOL0     H30057   2.880  10.041   6.162  2.9358  1.7043 -4.4385
  228MOL0     H30058   2.668   9.979   6.173 -1.0534 -0.1803  1.5949
  228MOL0     H30059   2.453   9.900   6.070 -0.0281 -2.2142  3.1031
  228MOL0     H30060   2.261   9.363   6.026  1.8600  0.1902 -0.4380
  228MOL0     H30061   2.022   9.286   5.962  0.6367 -3.6807 -2.7525
  228MOL0     H30062   1.791   9.501   5.828 -4.4810  0.7647 -0.6707
  228MOL0     H30063   1.700   9.345   5.805 -1.9605  0.7701 -2.2256
  228MOL0     H30064   1.682   9.370   5.583  1.4673 -1.9243  1.4841
  228MOL0     H30065   1.750   9.540   5.603  2.8304 -1.8035  3.0791
  228MOL0     H30066   1.562   9.593   5.752  1.5070  0.2554  0.1731
  228MOL0     H30067   1.513   9.427   5.747  0.5128 -2.1447 -1.6544
  228MOL0     H30068   1.526   9.621   5.521  0.5796 -0.5800  1.3861
  228MOL0     H30069   1.487   9.448   5.493 -1.2332 -0.1205 -0.5900
  228MOL0     H30070   1.284   9.627   5.526 -3.8486  0.8011  2.4109
  228MOL0     H30071   1.333   9.640   5.690 -1.7004 -0.6554 -0.3032
  228MOL0     H30072   1.301   9.398   5.721 -1.0769  0.5461  1.6325
  228MOL0     H30073   1.233   9.379   5.560  0.6139  0.7059  0.0291
  228MOL0     H30074   1.133   9.542   5.797 -2.1851 -0.5268  0.7878
  228MOL0     H30075   1.066   9.562   5.628  0.3979  0.6458  0.4751
  228MOL0     H30076   1.010   9.337   5.619  3.3027 -0.8661  0.6770
  228MOL0     H30077   0.905   9.412   5.737 -1.1289 -3.6185  1.6120
  228MOL0     H30078   2.081   9.488   5.592 -0.0859  1.9089  0.7443
  228MOL0     H30079   2.277   9.572   5.659  0.4278  0.8310  2.5199
  228MOL0     H30080   2.655   9.569   5.895  1.5558 -0.1632  0.8072
  228MOL0     H30081   2.851   9.633   6.009  0.5070 -0.4717 -1.3862
  228MOL0     H30082   2.189  10.138   7.005 -3.3190  3.0438  1.6089
  228MOL0     H30083   1.979  10.154   7.113  0.2952  1.4850  1.4837
  228MOL0     H30084   1.787  10.154   7.598 -3.0957  2.2347  4.0175
  228MOL0     H30085   1.617  10.122   7.743 -2.2154  0.5109  1.1934
  228MOL0     H30086   1.471   9.847   7.815  1.3248 -1.5406 -1.3912
  228MOL0     H30087   1.415   9.789   7.674 -4.1221 -1.7411 -0.9011
  228MOL0     H30088   1.262   9.882   7.924 -1.7380  2.1694 -1.7909
  228MOL0     H30089   1.171   9.811   7.796  0.2053 -1.5021 -0.3080
  228MOL0     H30090   1.212   9.640   7.969  0.7604 -2.4491  1.4895
  228MOL0     H30091   1.386   9.678   7.965  0.3500 -1.8546 -0.3788
  228MOL0     H30092   1.229   9.588   7.734 -0.1457  1.0847  1.4171
  228MOL0     H30093   1.404   9.582   7.728  0.4506 -0.1182  0.6357
  228MOL0     H30094   1.239   9.218   7.903 -0.9651 -2.3133 -2.7447
  228MOL0     H30095   1.379   9.915   7.452  0.1016  1.2224  0.2509
  228MOL0     H30096   1.563   9.901   7.307 -0.9540 -3.6839  2.9471
  229MOL0     O30097  10.698   8.334   1.231 -0.3218 -0.4005 -0.0530
  229MOL0     C30098  10.640   8.263   1.148  0.4306  0.4727 -1.1091
  229MOL0     O30099  10.693   8.205   1.041 -0.2778 -0.0704  0.8871
  229MOL0     C30100  10.831   8.210   1.007  0.9136 -0.7284  0.5853
  229MOL0     C30101  10.940   8.244   1.093 -0.2947  0.2467  0.3828
  229MOL0     C30102  11.074   8.246   1.052 -0.3429  0.9103 -0.4467
  229MOL0     C30103  11.111   8.238   0.920  0.1386 -0.2730 -0.5406
  229MOL0     O30104  11.242   8.261   0.894 -0.7370  0.0709 -0.2224
  229MOL0     C30105  11.280   8.268   0.768 -1.0448  0.2849  0.9060
  229MOL0     C30106  11.417   8.331   0.759  0.1500 -0.2642 -0.2869
  229MOL0     C30107  11.483   8.311   0.622 -1.1372 -0.5124  0.0956
  229MOL0     C30108  11.610   8.401   0.613 -0.6171 -0.0775  0.9562
  229MOL0     C30109  11.690   8.368   0.485 -0.0259  0.9757  0.4824
  229MOL0     C30110  11.624   8.375   0.343  0.2891  0.4572  0.2397
  229MOL0     C30111  11.726   8.383   0.225 -0.5711  0.0092 -0.3408
  229MOL0     C30112  11.661   8.393   0.092 -0.0245  0.1544  0.7380
  229MOL0     N30113  11.544   8.482   0.075 -0.4746  0.6055  1.1645
  229MOL0     C30114  11.413   8.449   0.097 -0.3033 -0.8025  0.6358
  229MOL0     C30115  11.344   8.566   0.089 -0.0185  0.3071  0.2499
  229MOL0     C30116  11.202   8.585   0.083 -0.1593 -0.3314  0.0289
  229MOL0     C30117  11.128   8.539   0.214 -0.2775 -0.0992 -0.2132
  229MOL0     C30118  11.149   8.633   0.334  0.1721  0.5941  0.2596
  229MOL0     C30119  11.228   8.570   0.451 -1.0997 -0.0233  0.3404
  229MOL0     O30120  11.199   8.615   0.586  0.0173 -0.4721  0.4935
  229MOL0     C30121  11.072   8.576   0.622  0.4668 -0.4635 -0.3133
  229MOL0     C30122  11.033   8.641   0.742  0.8984 -0.1704  1.3965
  229MOL0     C30123  10.910   8.619   0.795  0.1568  0.3355 -0.3093
  229MOL0     C30124  10.821   8.532   0.737 -0.5614  0.6676 -0.0696
  229MOL0     C30125  10.685   8.508   0.789 -0.9260 -1.1747 -0.3562
  229MOL0     O30126  10.597   8.449   0.711 -0.3600  0.3150  1.0534
  229MOL0     C30127  10.468   8.436   0.764 -0.2563  0.3673 -1.0444
  229MOL0     C30128  10.369   8.521   0.724 -0.4276  0.2027  0.5574
  229MOL0     C30129  10.232   8.503   0.750  0.4466 -0.2285  0.1124
  229MOL0     C30130  10.193   8.407   0.845 -0.1087  0.1484 -0.0855
  229MOL0     O30131  10.054   8.399   0.885  0.5464 -0.2544  0.5305
  229MOL0     C30132   9.996   8.266   0.920  1.0537  0.0095  0.0635
  229MOL0     C30133   9.861   8.285   0.976 -0.2446  0.0553  0.3813
  229MOL0     C30134   9.800   8.169   1.052 -0.1029  0.6236  0.6733
  229MOL0     C30135   9.656   8.192   1.088  0.4884 -0.3761 -0.6229
  229MOL0     C30136   9.588   8.089   1.177  0.2237 -0.4509 -0.6183
  229MOL0     C30137   9.441   8.128   1.201 -0.4887 -0.0788  0.0392
  229MOL0     C30138   9.367   8.063   1.329  0.4363  0.4360 -0.4278
  229MOL0     C30139   9.325   7.916   1.341  0.3492 -0.7530  1.2412
  229MOL0    Cl30140   9.476   7.813   1.319  0.2167 -0.3607 -0.7683
  229MOL0     C30141  10.295   8.313   0.883  0.1770 -0.0541  0.6057
  229MOL0     C30142  10.434   8.328   0.848 -0.6287 -0.5617  0.5442
  229MOL0     O30143  10.662   8.544   0.900 -0.1445  0.3692  0.2711
  229MOL0     C30144  10.855   8.464   0.617  0.1155  0.3519  0.3632
  229MOL0     C30145  10.980   8.484   0.562  0.1323 -0.0920 -0.1521
  229MOL0     N30146  11.435   8.668   0.057  0.2210 -0.0964  0.5046
  229MOL0     N30147  11.554   8.619   0.050 -0.4156  0.3576 -1.1440
  229MOL0     C30148  11.006   8.196   0.840  0.1708  0.0980  0.1209
  229MOL0     C30149  10.870   8.175   0.878  0.7498  0.8205 -1.5515
  229MOL0     C30150  10.496   8.228   1.185 -0.4825 -0.0556 -0.1958
  229MOL0     C30151  10.434   8.124   1.132  0.0112  0.6175  0.0148
  229MOL0     C30152  10.302   8.096   1.170  0.1432 -0.3326  0.3175
  229MOL0     C30153  10.230   8.166   1.274 -0.0400  0.3851  0.1281
  229MOL0     O30154  10.108   8.119   1.319 -1.0572  0.0913  0.1769
  229MOL0     C30155  10.083   8.129   1.459  0.9143 -0.7401  0.4964
  229MOL0     C30156   9.952   8.037   1.469 -1.0179 -1.0864 -0.1533
  229MOL0     C30157   9.981   7.890   1.450 -0.0451 -0.2731 -0.1393
  229MOL0     C30158   9.845   7.825   1.432 -0.5312  0.3095  0.5259
  229MOL0     C30159   9.766   7.831   1.555 -0.2925  0.3261 -0.1232
  229MOL0     C30160   9.685   7.832   1.647  0.5064 -0.1245 -0.0552
  229MOL0     C30161  10.297   8.280   1.328 -0.3353  0.8869  0.0584
  229MOL0     C30162  10.432   8.299   1.286  0.0393  0.6834  0.4823
  229MOL0     H30163  10.921   8.265   1.198 -0.8676  1.1830  0.1061
  229MOL0     H30164  11.139   8.278   1.132 -2.0641  3.9335 -0.1199
  229MOL0     H30165  11.212   8.310   0.692  2.2267  1.0658 -1.8345
  229MOL0     H30166  11.296   8.166   0.734  2.5419  0.3124  2.1653
  229MOL0     H30167  11.484   8.285   0.832 -0.0090 -1.6806 -1.0080
  229MOL0     H30168  11.402   8.438   0.777  0.4271 -0.3364  0.4184
  229MOL0     H30169  11.430   8.345   0.533  1.1308 -0.0615 -1.1506
  229MOL0     H30170  11.503   8.206   0.599  0.3574 -1.0954  3.4004
  229MOL0     H30171  11.585   8.507   0.619  1.1016  0.3325  1.3359
  229MOL0     H30172  11.673   8.374   0.698  2.1959  0.5210 -0.8365
  229MOL0     H30173  11.739   8.272   0.504  0.4479  0.7864 -1.5385
  229MOL0     H30174  11.766   8.448   0.482 -2.0129  3.0028  1.1072
  229MOL0     H30175  11.562   8.465   0.336  1.5133  1.3423  0.3494
  229MOL0     H30176  11.563   8.287   0.322 -0.2529  0.6391  1.0234
  229MOL0     H30177  11.777   8.476   0.252  0.2391 -0.6118  0.3529
  229MOL0     H30178  11.804   8.306   0.225 -1.5473 -1.1463  2.6732
  229MOL0     H30179  11.618   8.295   0.069  0.3074  0.2767 -0.4391
  229MOL0     H30180  11.732   8.412   0.012 -0.9330 -0.4135 -0.2414
  229MOL0     H30181  11.377   8.350   0.121  0.9569 -1.5511 -0.4183
  229MOL0     H30182  11.157   8.531  -0.001  4.1860 -3.2506 -0.7922
  229MOL0     H30183  11.185   8.692   0.064  1.5408 -0.2398 -1.3708
  229MOL0     H30184  11.146   8.432   0.220  0.6531  0.0455 -0.3332
  229MOL0     H30185  11.026   8.563   0.183 -0.0296 -0.6500 -1.5016
  229MOL0     H30186  11.210   8.713   0.291 -1.4383  0.8888 -1.6684
  229MOL0     H30187  11.058   8.688   0.360 -0.7592  1.0991 -3.4369
  229MOL0     H30188  11.334   8.582   0.427 -1.3335  0.4139 -0.5057
  229MOL0     H30189  11.216   8.462   0.443  2.6320 -0.5779  0.0581
  229MOL0     H30190  11.104   8.707   0.790  0.4880 -0.1222  1.9477
  229MOL0     H30191  10.889   8.674   0.886  2.5925  1.5144 -0.3744
  229MOL0     H30192  10.387   8.609   0.663 -1.2825  0.0861  0.1207
  229MOL0     H30193  10.151   8.570   0.723  0.1552  0.9076  3.4396
  229MOL0     H30194  10.059   8.215   0.994  1.7123  0.8082  0.0679
  229MOL0     H30195   9.996   8.209   0.827 -3.9981 -1.5028  0.6880
  229MOL0     H30196   9.798   8.301   0.888 -0.3538  1.0688  0.6321
  229MOL0     H30197   9.858   8.380   1.031  2.6039  0.3812  0.1125
  229MOL0     H30198   9.862   8.139   1.136 -0.1741 -3.4854 -0.5295
  229MOL0     H30199   9.789   8.085   0.984 -1.4008  0.9903  0.3968
  229MOL0     H30200   9.656   8.283   1.149 -0.5398 -0.5524 -0.3457
  229MOL0     H30201   9.594   8.195   0.998 -4.9927  0.9100  2.7185
  229MOL0     H30202   9.633   8.087   1.277 -1.4947  2.0554  0.3175
  229MOL0     H30203   9.605   7.990   1.134 -0.0692 -0.7097 -0.1467
  229MOL0     H30204   9.390   8.117   1.105  1.2290 -2.7998 -0.6981
  229MOL0     H30205   9.449   8.232   1.231  0.1710  0.7717 -2.7442
  229MOL0     H30206   9.423   8.079   1.422  0.1992  0.0542 -0.2169
  229MOL0     H30207   9.273   8.117   1.336  0.7829  1.0343 -0.3124
  229MOL0     H30208   9.257   7.897   1.258  1.2643  0.6017  0.1211
  229MOL0     H30209   9.281   7.885   1.436 -0.6361 -4.4276 -0.2770
  229MOL0     H30210  10.278   8.221   0.938  2.3182  0.3340  2.0360
  229MOL0     H30211  10.518   8.262   0.866 -1.0820 -1.0883  0.7345
  229MOL0     H30212  10.788   8.404   0.557  2.0516  1.6423 -3.3867
  229MOL0     H30213  11.015   8.448   0.467  3.1427  3.0378 -0.4275
  229MOL0     H30214  11.021   8.201   0.733 -0.5455  1.4058  0.0601
  229MOL0     H30215  10.808   8.135   0.798  2.6251 -2.4113 -1.5482
  229MOL0     H30216  10.473   8.071   1.046 -1.5404  1.0456 -0.9950
  229MOL0     H30217  10.250   8.003   1.145 -0.3022 -0.1274  0.4604
  229MOL0     H30218  10.069   8.231   1.495  1.8180 -0.4485  0.0378
  229MOL0     H30219  10.153   8.075   1.523  0.5760 -2.5756 -0.6200
  229MOL0     H30220   9.912   8.052   1.570  0.5654  1.5144  0.1806
  229MOL0     H30221   9.877   8.084   1.406 -1.5126  0.4956  1.5369
  229MOL0     H30222  10.024   7.851   1.543 -3.3411 -0.2299  1.5367
  229MOL0     H30223  10.041   7.877   1.359  0.2453  1.9449 -0.3317
  229MOL0     H30224   9.796   7.874   1.348 -1.0844 -3.6052 -1.6633
  229MOL0     H30225   9.868   7.720   1.413  4.0502  0.8516  1.7427
  229MOL0     H30226   9.607   7.825   1.719  0.3883 -1.3015 -0.2923
  229MOL0     H30227  10.254   8.329   1.414  1.5248  0.9459  1.0113
  229MOL0     H30228  10.484   8.392   1.307  0.1705  1.4216 -2.6506
  230MOL0     O30229   8.724   4.033   7.741 -0.1660  0.3037  0.7256
  230MOL0     C30230   8.759   3.978   7.635  0.3670  0.1459 -0.4899
  230MOL0     O30231   8.827   3.855   7.623  1.2023  0.7537  0.6089
  230MOL0     C30232   8.858   3.799   7.746 -0.4017 -0.1544  0.2479
  230MOL0     C30233   8.758   3.733   7.811  0.6756 -0.7202 -0.2835
  230MOL0     C30234   8.777   3.689   7.950  0.1438 -0.7417 -0.3927
  230MOL0     C30235   8.901   3.719   8.019 -0.0238 -0.1345 -0.4863
  230MOL0     O30236   8.906   3.676   8.151  0.0549  0.3381 -0.0790
  230MOL0     C30237   9.009   3.737   8.227  1.0627  0.6932  0.3178
  230MOL0     C30238   8.986   3.707   8.372 -0.5352  0.1431 -0.5433
  230MOL0     C30239   9.115   3.747   8.459  0.2949 -0.4057  0.0112
  230MOL0     C30240   9.105   3.673   8.592  0.4324 -0.3521  1.5366
  230MOL0     C30241   9.210   3.684   8.699 -0.3290  0.2843 -0.3018
  230MOL0     C30242   9.348   3.638   8.655 -0.3492  0.7666 -0.0424
  230MOL0     C30243   9.457   3.677   8.754  0.0204 -0.1687 -0.3871
  230MOL0     C30244   9.596   3.641   8.721 -0.1836 -0.2893 -0.3433
  230MOL0     N30245   9.607   3.493   8.696  0.0887 -0.1447  0.4185
  230MOL0     C30246   9.617   3.444   8.567  0.1285  0.0015  0.0002
  230MOL0     C30247   9.624   3.316   8.584 -0.6484 -0.0108  0.3902
  230MOL0     C30248   9.637   3.211   8.479 -1.0588 -0.3638 -0.2298
  230MOL0     C30249   9.519   3.114   8.454  1.5768 -0.1439  0.5974
  230MOL0     C30250   9.395   3.200   8.435 -0.1107  0.3285 -0.2653
  230MOL0     C30251   9.276   3.113   8.397  0.0713  0.3832  0.1931
  230MOL0     O30252   9.168   3.201   8.372 -0.1375 -0.0251 -0.2823
  230MOL0     C30253   9.085   3.193   8.267  0.3018 -0.3633  0.1783
  230MOL0     C30254   9.006   3.307   8.249  0.2823  0.4761  0.1151
  230MOL0     C30255   8.908   3.313   8.148  0.7631 -0.4074 -1.0358
  230MOL0     C30256   8.877   3.199   8.074  0.1802 -0.9849  0.9249
  230MOL0     C30257   8.756   3.212   7.992  0.4695 -0.5184  0.1597
  230MOL0     O30258   8.721   3.338   7.946  0.1874 -0.0406  0.5103
  230MOL0     C30259   8.589   3.364   7.919 -0.3187  0.9362  0.0073
  230MOL0     C30260   8.495   3.326   8.007 -0.0804  0.2597  0.2934
  230MOL0     C30261   8.359   3.352   7.974  0.2615 -0.6985  0.6555
  230MOL0     C30262   8.329   3.410   7.852 -1.1134 -0.1739  0.4417
  230MOL0     O30263   8.197   3.397   7.830 -0.3143 -0.1386  0.2512
  230MOL0     C30264   8.153   3.423   7.692 -0.1048  0.3825 -0.4492
  230MOL0     C30265   8.002   3.415   7.695  0.7980  0.2240  0.7642
  230MOL0     C30266   7.951   3.530   7.782  0.2684  0.2954 -1.0041
  230MOL0     C30267   7.802   3.523   7.823 -0.6054  0.0373 -0.0791
  230MOL0     C30268   7.778   3.457   7.956  0.0857 -0.0240 -1.0058
  230MOL0     C30269   7.633   3.476   7.995  0.6412  0.4463 -0.3765
  230MOL0     C30270   7.594   3.411   8.133 -0.1424  0.2990  0.4585
  230MOL0     C30271   7.484   3.478   8.211  0.4767  0.0825 -0.4106
  230MOL0    Cl30272   7.548   3.619   8.298  0.2146 -1.0090 -0.2094
  230MOL0     C30273   8.425   3.453   7.764 -0.0989 -0.1066 -0.1760
  230MOL0     C30274   8.555   3.425   7.800 -0.4790  0.1199 -0.3070
  230MOL0     O30275   8.701   3.108   7.971 -0.3107  0.9447  0.4368
  230MOL0     C30276   8.965   3.086   8.076 -0.2261 -0.9569 -1.2047
  230MOL0     C30277   9.073   3.083   8.174 -0.7421  0.4962  0.5520
  230MOL0     N30278   9.633   3.292   8.716 -0.6289  1.1596  0.2150
  230MOL0     N30279   9.623   3.399   8.788  0.6840 -0.3251 -0.8540
  230MOL0     C30280   8.999   3.790   7.947  1.3032 -0.3321  0.0955
  230MOL0     C30281   8.978   3.827   7.814  0.3336  0.1272 -0.0935
  230MOL0     C30282   8.731   4.054   7.509 -0.1506 -0.3713  0.1614
  230MOL0     C30283   8.804   4.021   7.390  1.3208  0.1498  0.4699
  230MOL0     C30284   8.779   4.088   7.271  0.4622  0.0469 -0.3762
  230MOL0     C30285   8.684   4.196   7.269 -0.1925 -0.0969  0.4697
  230MOL0     O30286   8.658   4.265   7.150  0.3757 -0.2542  0.2139
  230MOL0     C30287   8.671   4.191   7.024  0.0697 -0.1608 -0.1720
  230MOL0     C30288   8.594   4.268   6.916 -0.7316  1.4019  0.0307
  230MOL0     C30289   8.437   4.271   6.942  0.0018 -0.5741 -0.1212
  230MOL0     C30290   8.358   4.316   6.818  0.0969 -0.3888 -0.0456
  230MOL0     C30291   8.358   4.223   6.708 -0.3907 -0.2069  0.8638
  230MOL0     C30292   8.366   4.134   6.621 -0.1176 -0.0985  0.9726
  230MOL0     C30293   8.614   4.228   7.382 -0.1516 -1.1060 -0.5139
  230MOL0     C30294   8.639   4.163   7.503 -0.3100 -1.2955  0.0914
  230MOL0     H30295   8.666   3.736   7.754  1.0513  1.7375 -0.8829
  230MOL0     H30296   8.686   3.645   7.987 -0.2437 -1.1024 -1.7236
  230MOL0     H30297   9.003   3.846   8.217 -1.4872  0.9128  2.8506
  230MOL0     H30298   9.106   3.698   8.197  1.0026 -1.2478  2.3787
  230MOL0     H30299   8.967   3.599   8.376  0.6823 -0.0590  0.7198
  230MOL0     H30300   8.900   3.754   8.419 -0.2724 -0.7079  0.8550
  230MOL0     H30301   9.136   3.854   8.473 -1.4872  0.5264 -3.3973
  230MOL0     H30302   9.203   3.694   8.422  0.5954  0.6596 -0.8396
  230MOL0     H30303   9.013   3.695   8.647  0.9613 -1.5601  2.9803
  230MOL0     H30304   9.104   3.569   8.558 -2.5308  0.0925 -0.1163
  230MOL0     H30305   9.173   3.638   8.791  0.2183  0.2360 -0.1020
  230MOL0     H30306   9.219   3.789   8.728  0.4707  0.5596 -1.4673
  230MOL0     H30307   9.368   3.681   8.556  4.7348  0.8699  0.7259
  230MOL0     H30308   9.347   3.531   8.632  2.6932  1.3003 -3.7724
  230MOL0     H30309   9.447   3.785   8.767  1.0436 -0.2870  1.9676
  230MOL0     H30310   9.433   3.632   8.851  1.7532  1.2552  0.7670
  230MOL0     H30311   9.672   3.673   8.792  0.5115 -1.5446 -0.4821
  230MOL0     H30312   9.618   3.700   8.631 -0.8478 -1.3920 -1.2635
  230MOL0     H30313   9.605   3.509   8.481 -2.1878  0.6997  0.7682
  230MOL0     H30314   9.713   3.142   8.517 -0.2757  0.8679  0.4778
  230MOL0     H30315   9.675   3.260   8.389  0.9835 -2.1883 -0.4362
  230MOL0     H30316   9.507   3.047   8.540  1.6104 -0.4146  0.3938
  230MOL0     H30317   9.548   3.068   8.359 -1.5302 -0.6709 -0.2095
  230MOL0     H30318   9.378   3.246   8.533  0.2650  0.1713 -0.1253
  230MOL0     H30319   9.414   3.278   8.360  2.4360  0.2994  0.2565
  230MOL0     H30320   9.243   3.055   8.484 -0.3398  1.9128  1.1029
  230MOL0     H30321   9.306   3.056   8.309 -0.8185  0.5034 -0.1922
  230MOL0     H30322   9.013   3.392   8.316 -3.8758 -0.0302  1.4484
  230MOL0     H30323   8.860   3.410   8.140  1.2326 -0.1137 -0.3937
  230MOL0     H30324   8.516   3.294   8.109 -0.7528  0.1734  0.4100
  230MOL0     H30325   8.279   3.315   8.037  0.8577 -1.5193  0.9600
  230MOL0     H30326   8.202   3.362   7.616 -0.2232 -2.4915  1.6140
  230MOL0     H30327   8.170   3.528   7.669 -1.9709  0.7556 -0.2828
  230MOL0     H30328   7.980   3.313   7.727  2.9135 -0.9066 -1.0758
  230MOL0     H30329   7.959   3.434   7.597  1.1519  1.0772  0.7641
  230MOL0     H30330   7.971   3.626   7.733 -0.6627 -0.0191 -2.0351
  230MOL0     H30331   8.008   3.532   7.875 -0.0686  0.6317 -0.7984
  230MOL0     H30332   7.762   3.625   7.821 -2.8205 -0.7752 -0.2092
  230MOL0     H30333   7.734   3.477   7.750  0.0523  0.5415 -1.0322
  230MOL0     H30334   7.849   3.491   8.032  1.3563  0.4366 -2.3534
  230MOL0     H30335   7.798   3.351   7.941 -2.4844 -0.4385 -2.1017
  230MOL0     H30336   7.576   3.420   7.921 -2.9305 -0.0756  2.4635
  230MOL0     H30337   7.597   3.578   8.011  1.5702  1.1056 -2.2535
  230MOL0     H30338   7.561   3.311   8.105  1.6798  0.2481 -1.8301
  230MOL0     H30339   7.684   3.404   8.194  1.1908 -2.0788 -1.6098
  230MOL0     H30340   7.465   3.405   8.291  0.3130 -0.2093 -0.7149
  230MOL0     H30341   7.391   3.499   8.157  0.4855 -0.0017 -0.4597
  230MOL0     H30342   8.406   3.494   7.666  2.3382  2.0881  0.1342
  230MOL0     H30343   8.638   3.445   7.733 -1.4865  0.2458 -1.5456
  230MOL0     H30344   8.966   3.002   8.008  2.7937 -0.7654 -1.4945
  230MOL0     H30345   9.144   3.002   8.166 -1.2126  0.1784 -0.6297
  230MOL0     H30346   9.092   3.831   7.985  0.5396  2.8000 -1.1243
  230MOL0     H30347   9.058   3.886   7.771  0.5837  1.2651  1.8190
  230MOL0     H30348   8.876   3.942   7.410  0.1644 -0.7884  1.0721
  230MOL0     H30349   8.836   4.059   7.183  0.4460 -5.0397  0.9551
  230MOL0     H30350   8.633   4.092   7.047 -0.9315 -0.3388 -2.3623
  230MOL0     H30351   8.778   4.191   7.000  0.4651  0.2039  1.4499
  230MOL0     H30352   8.634   4.370   6.912  1.0620  0.7994  1.2816
  230MOL0     H30353   8.621   4.222   6.821 -1.0713  0.3203  0.4413
  230MOL0     H30354   8.419   4.335   7.029  3.1950  0.3270  0.0064
  230MOL0     H30355   8.404   4.172   6.975  2.8578 -0.8218  2.4214
  230MOL0     H30356   8.261   4.337   6.866  0.8597 -0.5021  1.6313
  230MOL0     H30357   8.394   4.410   6.775  3.4019 -0.7824  1.5495
  230MOL0     H30358   8.370   4.057   6.547 -0.3896  0.1298  0.7158
  230MOL0     H30359   8.538   4.305   7.372  0.4541 -0.3988  0.2465
  230MOL0     H30360   8.595   4.215   7.587  1.8804 -0.9739  1.1167
  231MOL0     O30361   9.954   4.706  11.227 -0.1350  0.5426 -0.2278
  231MOL0     C30362   9.893   4.605  11.238  0.3833 -0.2231 -0.1802
  231MOL0     O30363   9.759   4.584  11.205  0.1156 -0.9121  0.0870
  231MOL0     C30364   9.684   4.700  11.188 -0.7721 -0.0524 -1.0105
  231MOL0     C30365   9.650   4.737  11.060 -0.2151 -0.0244 -0.2664
  231MOL0     C30366   9.567   4.842  11.043  0.0599 -1.1593 -0.0036
  231MOL0     C30367   9.514   4.915  11.158 -0.1476  0.1646 -0.3232
  231MOL0     O30368   9.438   5.029  11.153  0.1826 -0.3410  0.0824
  231MOL0     C30369   9.388   5.073  11.028  0.1030  1.1633  0.4694
  231MOL0     C30370   9.261   4.993  10.980 -0.6087  0.0576 -0.4089
  231MOL0     C30371   9.233   5.002  10.826  0.5151 -0.9656  0.1228
  231MOL0     C30372   9.093   4.974  10.792  0.2188  0.1264 -0.0472
  231MOL0     C30373   9.070   4.964  10.638  0.0243  0.4606 -0.5608
  231MOL0     C30374   8.925   4.985  10.599 -0.6781 -0.5419 -0.8049
  231MOL0     C30375   8.910   4.986  10.446 -0.3880 -0.1314  0.4852
  231MOL0     C30376   8.797   5.071  10.401 -0.1480  0.0427  0.0911
  231MOL0     N30377   8.673   5.038  10.473  0.2108  0.0010 -0.2261
  231MOL0     C30378   8.596   4.931  10.451  0.3237 -0.0800 -0.3569
  231MOL0     C30379   8.491   4.931  10.545  1.2252 -0.5286 -0.7891
  231MOL0     C30380   8.378   4.834  10.543  0.6153  0.2366 -0.2712
  231MOL0     C30381   8.264   4.882  10.639 -0.7431 -0.3812  0.3452
  231MOL0     C30382   8.165   4.981  10.562  0.7895 -0.6101  0.1141
  231MOL0     C30383   8.030   4.992  10.636  0.5908 -0.2176  0.7619
  231MOL0     O30384   7.935   5.054  10.539  0.0593  0.6569 -0.1176
  231MOL0     C30385   7.799   5.019  10.557 -0.9532 -1.1543 -0.6322
  231MOL0     C30386   7.711   5.114  10.513  0.5344  0.3715  0.6347
  231MOL0     C30387   7.572   5.098  10.526  0.0944 -1.3518 -0.4914
  231MOL0     C30388   7.520   4.995  10.593  0.2953 -0.7476 -0.4135
  231MOL0     C30389   7.373   4.970  10.594  0.3758 -0.6156  0.3793
  231MOL0     O30390   7.298   5.046  10.506  0.4437 -0.0843 -0.3702
  231MOL0     C30391   7.162   5.060  10.526 -0.2301 -0.5940  0.3939
  231MOL0     C30392   7.104   5.191  10.531 -0.3322 -0.7348 -0.2904
  231MOL0     C30393   6.966   5.205  10.556 -0.7090 -0.6814 -0.0920
  231MOL0     C30394   6.895   5.088  10.583  0.2420 -0.0658 -0.1657
  231MOL0     O30395   6.759   5.099  10.617 -0.6857  0.2240  0.0304
  231MOL0     C30396   6.695   5.220  10.625  1.4429 -0.5773 -0.5168
  231MOL0     C30397   6.546   5.208  10.669 -0.5712 -0.1178 -0.3910
  231MOL0     C30398   6.451   5.137  10.563  0.5553 -0.5225 -0.5124
  231MOL0     C30399   6.315   5.101  10.633 -0.5784 -0.6140 -0.1209
  231MOL0     C30400   6.213   5.044  10.540  1.1399 -0.1707  0.1690
  231MOL0     C30401   6.077   5.011  10.608  0.0231  0.2244  0.2064
  231MOL0     C30402   5.967   4.987  10.492 -0.1241  0.5458  0.2615
  231MOL0     C30403   5.834   4.968  10.562 -0.5679  0.0407 -0.3482
  231MOL0    Cl30404   5.848   4.848  10.695 -0.6274 -0.3782  0.0652
  231MOL0     C30405   6.955   4.961  10.560  0.8374 -0.0497  1.4444
  231MOL0     C30406   7.082   4.950  10.534 -0.2975  0.0420 -0.2384
  231MOL0     O30407   7.333   4.895  10.682  0.6023 -0.6044 -0.7548
  231MOL0     C30408   7.608   4.908  10.661 -0.4451 -0.1943 -0.3081
  231MOL0     C30409   7.746   4.921  10.639 -0.4778  0.1376 -0.7166
  231MOL0     N30410   8.517   5.044  10.619  0.7275 -0.3370 -0.2475
  231MOL0     N30411   8.617   5.115  10.570 -0.2647 -0.4437 -1.0344
  231MOL0     C30412   9.560   4.873  11.282 -0.3816  0.7298 -0.1901
  231MOL0     C30413   9.646   4.769  11.299  0.4234  0.7203  0.0848
  231MOL0     C30414   9.975   4.491  11.298  0.4134 -0.0962  0.8898
  231MOL0     C30415   9.922   4.378  11.362 -0.3313  0.3578  0.3600
  231MOL0     C30416  10.007   4.285  11.429  0.4215  0.9453  0.0522
  231MOL0     C30417  10.145   4.290  11.430  1.3900 -0.2982 -0.2103
  231MOL0     O30418  10.226   4.219  11.510 -0.0809  0.2985  0.0591
  231MOL0     C30419  10.193   4.146  11.622  0.4304  0.1040  0.2333
  231MOL0     C30420  10.163   4.005  11.578  1.1554  0.3201  0.1705
  231MOL0     C30421  10.099   3.916  11.686  0.8355  0.0497  0.6485
  231MOL0     C30422  10.163   3.893  11.819  0.1831 -0.2647  0.6070
  231MOL0     C30423  10.130   4.009  11.907  0.8581 -0.2159  0.6171
  231MOL0     C30424  10.102   4.102  11.969  0.0773 -0.3605 -0.9424
  231MOL0     C30425  10.198   4.399  11.355 -0.2938 -0.2890 -0.7622
  231MOL0     C30426  10.113   4.502  11.307  0.6339  0.4999 -0.1540
  231MOL0     H30427   9.683   4.676  10.976 -1.7178  0.7850 -1.5016
  231MOL0     H30428   9.529   4.873  10.946 -3.3280  0.3068  1.6148
  231MOL0     H30429   9.464   5.056  10.950 -2.9559 -2.8226 -2.0659
  231MOL0     H30430   9.362   5.179  11.026  2.2535  1.7815  1.5501
  231MOL0     H30431   9.176   5.029  11.038  2.8097  1.3368  4.4293
  231MOL0     H30432   9.283   4.888  11.001  0.3389  0.1168 -1.0419
  231MOL0     H30433   9.307   4.940  10.775  0.4836 -0.5138 -0.4713
  231MOL0     H30434   9.260   5.103  10.796  2.1143 -1.6712 -0.8948
  231MOL0     H30435   9.064   4.877  10.834 -1.2231  0.0358 -1.1735
  231MOL0     H30436   9.022   5.043  10.838 -0.4649  0.0310 -0.9188
  231MOL0     H30437   9.102   4.869  10.594  0.0526 -0.6703  1.7578
  231MOL0     H30438   9.127   5.040  10.585  0.6344  1.1768  1.0718
  231MOL0     H30439   8.897   5.084  10.634  1.7613  0.2592 -0.8794
  231MOL0     H30440   8.860   4.910  10.645  0.5623 -1.3792 -0.3329
  231MOL0     H30441   9.004   5.031  10.414 -0.0314 -1.0281  0.2400
  231MOL0     H30442   8.916   4.882  10.414  1.5609 -0.0832  0.5947
  231MOL0     H30443   8.781   5.051  10.294  1.0120 -2.0839  0.2429
  231MOL0     H30444   8.820   5.175  10.423 -0.9021 -0.3273  3.0617
  231MOL0     H30445   8.611   4.849  10.381 -5.1988 -2.6619  0.9380
  231MOL0     H30446   8.408   4.731  10.562  0.4764 -0.2869 -2.6748
  231MOL0     H30447   8.347   4.835  10.438  1.2247  2.4567 -0.4727
  231MOL0     H30448   8.317   4.942  10.713  0.0486 -2.1135  1.2597
  231MOL0     H30449   8.212   4.805  10.696 -1.5291  0.6855  1.1012
  231MOL0     H30450   8.208   5.080  10.550 -1.8478  0.4637 -1.1686
  231MOL0     H30451   8.140   4.939  10.464 -3.1199 -0.0631  0.7473
  231MOL0     H30452   8.029   5.046  10.731 -2.0063  1.0167  0.1410
  231MOL0     H30453   8.008   4.890  10.667 -1.4039 -0.5017 -1.2755
  231MOL0     H30454   7.752   5.205  10.471  0.2758  0.5262  0.7128
  231MOL0     H30455   7.495   5.169  10.496 -1.7746 -2.4637  1.3734
  231MOL0     H30456   7.166   5.280  10.522 -3.4754  1.4645 -1.9266
  231MOL0     H30457   6.924   5.305  10.568  2.8554  1.3096 -2.4749
  231MOL0     H30458   6.692   5.257  10.522 -1.4753  3.7843  0.8301
  231MOL0     H30459   6.743   5.289  10.694 -0.3250 -3.4300  4.0386
  231MOL0     H30460   6.504   5.305  10.697 -0.4621 -0.1172 -0.2257
  231MOL0     H30461   6.552   5.156  10.766  5.0230 -3.3524 -1.9851
  231MOL0     H30462   6.508   5.051  10.527 -0.7276 -2.2157  1.2746
  231MOL0     H30463   6.435   5.214  10.487  0.1314  0.8028  0.8562
  231MOL0     H30464   6.335   5.030  10.714  1.1972 -0.4113 -0.3547
  231MOL0     H30465   6.273   5.187  10.686 -2.3472 -1.2098 -0.4744
  231MOL0     H30466   6.243   4.956  10.482  0.1272  0.4734 -1.4330
  231MOL0     H30467   6.185   5.108  10.455 -1.4376 -1.0509  0.2469
  231MOL0     H30468   6.058   5.099  10.670  1.6697  0.6469  0.1766
  231MOL0     H30469   6.103   4.920  10.664  3.5287  1.1561  0.3326
  231MOL0     H30470   5.945   5.074  10.430  0.9512 -0.4283 -1.5689
  231MOL0     H30471   5.991   4.893  10.441  1.6084 -0.8994  3.3997
  231MOL0     H30472   5.761   4.925  10.493 -0.0257 -1.2124 -0.1674
  231MOL0     H30473   5.793   5.065  10.594  0.4319  0.4850 -0.3675
  231MOL0     H30474   6.882   4.883  10.580  0.4580  0.3126  1.4882
  231MOL0     H30475   7.124   4.851  10.523  2.3081  0.7914  2.0621
  231MOL0     H30476   7.572   4.829  10.727 -0.6575  0.1551  0.0019
  231MOL0     H30477   7.821   4.851  10.673  0.1195  0.1480 -1.9750
  231MOL0     H30478   9.521   4.915  11.375  0.1973 -1.3778  1.0575
  231MOL0     H30479   9.673   4.742  11.400 -0.7392 -1.3546 -0.0954
  231MOL0     H30480   9.815   4.360  11.357 -0.6995  2.0029  1.2949
  231MOL0     H30481   9.953   4.201  11.472 -3.3161  2.7088 -0.8236
  231MOL0     H30482  10.108   4.192  11.673  0.6690  0.3867  0.3776
  231MOL0     H30483  10.279   4.146  11.690  1.3529 -0.4940 -0.8886
  231MOL0     H30484  10.104   4.005  11.486  1.3152 -1.5586  0.0166
  231MOL0     H30485  10.252   3.956  11.536  0.0091  0.1431 -2.2127
  231MOL0     H30486  10.096   3.815  11.643  2.0956  0.2109  0.1357
  231MOL0     H30487   9.995   3.947  11.696  0.7735 -0.0965  0.4837
  231MOL0     H30488  10.119   3.808  11.872  1.2380  0.8535  3.4058
  231MOL0     H30489  10.272   3.885  11.815  0.1628 -0.6260  0.8021
  231MOL0     H30490  10.076   4.194  12.017  2.1732  1.3004 -2.7582
  231MOL0     H30491  10.306   4.409  11.351 -0.1755  1.4566  2.6610
  231MOL0     H30492  10.147   4.596  11.266 -1.5005  0.5756 -1.9604
  232MOL0     O30493   9.615  10.579  10.457  0.2628  0.6383 -0.0912
  232MOL0     C30494   9.590  10.699  10.436 -0.6832  0.0839 -0.1142
  232MOL0     O30495   9.677  10.796  10.400  0.1020 -0.7593  0.5866
  232MOL0     C30496   9.820  10.781  10.393 -1.0906  0.8619 -0.5918
  232MOL0     C30497   9.884  10.903  10.356  0.4034  0.2811  0.4062
  232MOL0     C30498  10.022  10.911  10.364  0.6935 -0.1926  0.3261
  232MOL0     C30499  10.097  10.808  10.404  0.9214  0.1532 -0.6412
  232MOL0     O30500  10.227  10.833  10.389 -0.2900 -0.6272  0.5563
  232MOL0     C30501  10.312  10.728  10.430  0.1527  0.6124 -0.7760
  232MOL0     C30502  10.453  10.785  10.447  0.3819  0.7178 -0.7056
  232MOL0     C30503  10.471  10.823  10.596 -0.3088 -0.2016 -0.1357
  232MOL0     C30504  10.622  10.829  10.626 -0.0360  0.8859  0.6520
  232MOL0     C30505  10.629  10.851  10.783 -0.3102 -0.2891 -0.4323
  232MOL0     C30506  10.758  10.919  10.821 -0.1890  0.3715  0.2278
  232MOL0     C30507  10.759  10.942  10.969  0.1087 -0.0746  0.5758
  232MOL0     C30508  10.899  10.948  11.025 -0.7615  0.4592  0.6733
  232MOL0     N30509  10.904  11.001  11.162 -0.0339 -0.4518  0.3311
  232MOL0     C30510  11.017  11.079  11.213  0.2410 -0.4377 -0.0483
  232MOL0     C30511  10.991  11.076  11.348 -0.1062  0.3524  0.2553
  232MOL0     C30512  11.085  11.123  11.460  0.2756  0.0832  0.6323
  232MOL0     C30513  11.158  11.255  11.435  0.4277 -0.3700 -0.0605
  232MOL0     C30514  11.085  11.374  11.497 -0.4729  0.9230 -0.3840
  232MOL0     C30515  10.942  11.392  11.459  0.1830 -0.2750  0.2218
  232MOL0     O30516  10.950  11.403  11.312  0.2403  0.8111  0.6868
  232MOL0     C30517  10.835  11.365  11.246  0.0219 -0.0185 -0.2750
  232MOL0     C30518  10.845  11.346  11.109 -0.2990 -0.1292  0.7852
  232MOL0     C30519  10.745  11.322  11.014  0.1049  0.4373 -0.2945
  232MOL0     C30520  10.615  11.305  11.066  0.4464  0.1993  0.4777
  232MOL0     C30521  10.500  11.258  10.974  0.8865  0.0334  0.0647
  232MOL0     O30522  10.377  11.227  11.045 -0.7962 -0.1349 -0.8390
  232MOL0     C30523  10.264  11.195  10.974 -0.1609 -0.1414 -0.8171
  232MOL0     C30524  10.263  11.100  10.866  0.6056 -0.0402  0.9328
  232MOL0     C30525  10.147  11.074  10.782  0.6153 -1.0768  0.1386
  232MOL0     C30526  10.021  11.128  10.813  0.3055  0.7949  0.4042
  232MOL0     O30527   9.914  11.081  10.747 -0.8189 -0.1857 -0.1055
  232MOL0     C30528   9.790  11.152  10.769 -0.7446  0.2083 -0.3922
  232MOL0     C30529   9.682  11.117  10.666  0.1590  0.2583 -0.2420
  232MOL0     C30530   9.561  11.205  10.695  0.2224 -0.2320 -0.9032
  232MOL0     C30531   9.460  11.137  10.790 -0.6447  0.7140  0.0204
  232MOL0     C30532   9.358  11.239  10.841 -0.9380  0.3786 -0.3349
  232MOL0     C30533   9.274  11.299  10.736 -0.6544 -0.0483  0.5310
  232MOL0     C30534   9.188  11.210  10.639  0.6174  0.4452  0.1566
  232MOL0     C30535   9.043  11.255  10.604  0.7153  0.1330  0.2077
  232MOL0    Cl30536   8.930  11.208  10.745 -0.1399  0.0684  0.1223
  232MOL0     C30537  10.026  11.220  10.922  0.3380  0.2055 -1.6945
  232MOL0     C30538  10.138  11.251  11.000 -0.9040  0.3647  0.3638
  232MOL0     O30539  10.516  11.244  10.854 -0.5199  0.2515  0.1201
  232MOL0     C30540  10.596  11.335  11.208  0.4300  0.0267  0.6157
  232MOL0     C30541  10.704  11.361  11.298 -0.7261  0.6905 -0.0401
  232MOL0     N30542  10.874  11.009  11.378  0.4481 -0.3881 -0.2404
  232MOL0     N30543  10.834  10.948  11.266  0.5464  0.7795 -0.3221
  232MOL0     C30544  10.030  10.695  10.450 -0.9389  0.8592 -0.1537
  232MOL0     C30545   9.894  10.673  10.438  0.9054  0.4662  0.0516
  232MOL0     C30546   9.460  10.749  10.446  1.5596 -0.6191 -0.0154
  232MOL0     C30547   9.427  10.889  10.435 -0.3129  0.3999 -0.5736
  232MOL0     C30548   9.294  10.937  10.426 -0.2997 -0.4228 -0.1839
  232MOL0     C30549   9.188  10.846  10.453 -0.3429 -0.3881  1.2033
  232MOL0     O30550   9.060  10.894  10.458  0.1968  0.0402  0.1185
  232MOL0     C30551   8.956  10.799  10.490  0.8405  0.7327 -0.3043
  232MOL0     C30552   8.819  10.870  10.497  0.3775  0.7467  0.8437
  232MOL0     C30553   8.713  10.766  10.508  0.1763 -0.5619 -0.6761
  232MOL0     C30554   8.700  10.720  10.656 -0.7775 -0.3392  0.2777
  232MOL0     C30555   8.578  10.640  10.645  0.3991  0.3964  0.4178
  232MOL0     C30556   8.485  10.568  10.652  0.6097  0.0951 -0.0942
  232MOL0     C30557   9.212  10.710  10.460 -0.2005  0.4533  0.3941
  232MOL0     C30558   9.349  10.661  10.443  0.5715  0.0753  0.1955
  232MOL0     H30559   9.823  10.983  10.316 -1.4491 -1.4055 -0.3005
  232MOL0     H30560  10.064  11.008  10.339  3.6254 -0.7097  2.6277
  232MOL0     H30561  10.310  10.651  10.352 -0.6228 -0.5576  0.3397
  232MOL0     H30562  10.285  10.685  10.527 -0.7669  2.9817  0.0845
  232MOL0     H30563  10.453  10.870  10.378 -2.8828  0.3135 -1.3892
  232MOL0     H30564  10.526  10.711  10.416  1.1860  1.0028  0.4269
  232MOL0     H30565  10.423  10.751  10.663  0.4568  1.2622  2.1328
  232MOL0     H30566  10.437  10.926  10.608  2.4867  0.8318 -0.3621
  232MOL0     H30567  10.672  10.738  10.591 -2.6849 -1.1929  1.9381
  232MOL0     H30568  10.664  10.915  10.573 -0.0266  1.0301  0.8930
  232MOL0     H30569  10.605  10.755  10.831 -3.5627 -1.6619 -4.2342
  232MOL0     H30570  10.550  10.916  10.821 -0.7552 -1.8025  1.4318
  232MOL0     H30571  10.775  11.015  10.771  0.6084 -0.4094 -1.0519
  232MOL0     H30572  10.841  10.858  10.786  0.5300  1.6580 -0.3719
  232MOL0     H30573  10.703  11.034  10.989 -0.1644 -0.2462  0.6070
  232MOL0     H30574  10.710  10.859  11.020 -0.0483  1.2966  2.7736
  232MOL0     H30575  10.961  11.001  10.952  0.8558 -2.8694 -0.5776
  232MOL0     H30576  10.932  10.845  11.009 -0.4318  0.9677 -2.7070
  232MOL0     H30577  11.100  11.114  11.152 -1.1250  0.5030 -1.4490
  232MOL0     H30578  11.169  11.053  11.464  2.7305  2.8006  4.3861
  232MOL0     H30579  11.032  11.127  11.556 -1.5955 -1.8536 -0.2364
  232MOL0     H30580  11.168  11.275  11.328 -1.3980  3.7021  0.3642
  232MOL0     H30581  11.258  11.254  11.480  0.5874 -0.6406 -0.4125
  232MOL0     H30582  11.077  11.347  11.603  0.4981 -0.2526 -0.5958
  232MOL0     H30583  11.142  11.467  11.490  0.7572  0.2561  0.4214
  232MOL0     H30584  10.907  11.486  11.501 -0.5169 -0.2932 -0.3014
  232MOL0     H30585  10.877  11.308  11.483  0.3022 -0.4216  0.0395
  232MOL0     H30586  10.938  11.384  11.067 -1.8152  3.2290  0.1636
  232MOL0     H30587  10.764  11.290  10.912  0.2021 -2.2484  0.4889
  232MOL0     H30588  10.346  11.040  10.829 -1.4034 -0.2431 -4.0432
  232MOL0     H30589  10.154  11.005  10.699 -1.8743  0.8413 -1.8142
  232MOL0     H30590   9.822  11.255  10.748 -1.2184  0.2070 -1.1409
  232MOL0     H30591   9.758  11.139  10.872  1.5915 -0.5482  0.3178
  232MOL0     H30592   9.655  11.013  10.690 -1.2761  0.9351  1.2957
  232MOL0     H30593   9.720  11.116  10.564  1.3806  1.8278  0.1499
  232MOL0     H30594   9.511  11.212  10.598  0.3281 -1.4485 -1.0655
  232MOL0     H30595   9.589  11.306  10.724 -1.5717  1.3247 -4.0347
  232MOL0     H30596   9.399  11.062  10.739  2.0180  0.9947 -3.9627
  232MOL0     H30597   9.505  11.090  10.878 -3.0216 -0.0060  0.9494
  232MOL0     H30598   9.409  11.306  10.911  1.1157 -1.9648  0.5295
  232MOL0     H30599   9.284  11.190  10.905 -3.3513  2.0523 -1.6354
  232MOL0     H30600   9.334  11.355  10.664 -1.3343 -1.5385 -1.2557
  232MOL0     H30601   9.202  11.369  10.781 -2.7619 -0.3042 -2.2280
  232MOL0     H30602   9.241  11.192  10.545 -0.3628  0.4380 -0.4084
  232MOL0     H30603   9.168  11.121  10.701  0.4193  0.2171 -0.2304
  232MOL0     H30604   9.010  11.212  10.509  0.2738  0.9170 -0.0016
  232MOL0     H30605   9.049  11.364  10.596  0.3668  0.0603 -1.3156
  232MOL0     H30606   9.930  11.258  10.955 -0.3487 -0.6652 -2.6505
  232MOL0     H30607  10.131  11.324  11.080 -1.9510 -0.1247  0.7449
  232MOL0     H30608  10.496  11.334  11.249  0.6060 -0.8904  1.0410
  232MOL0     H30609  10.677  11.390  11.399 -4.4342  1.5687 -1.1415
  232MOL0     H30610  10.077  10.599  10.472 -0.1800  0.6931 -2.2777
  232MOL0     H30611   9.849  10.578  10.464 -0.6816  0.8195 -1.2996
  232MOL0     H30612   9.506  10.960  10.413 -1.8214  2.0160 -0.9958
  232MOL0     H30613   9.275  11.041  10.401 -2.1942 -0.5427  0.6037
  232MOL0     H30614   8.978  10.764  10.591 -1.1883 -0.1428 -0.1204
  232MOL0     H30615   8.949  10.723  10.412  0.3713  3.9356 -3.6219
  232MOL0     H30616   8.804  10.949  10.571  2.0415  2.8383 -0.8821
  232MOL0     H30617   8.815  10.925  10.402 -2.2711 -0.4700  0.1709
  232MOL0     H30618   8.725  10.678  10.443 -0.5984 -1.5337  0.4564
  232MOL0     H30619   8.617  10.814  10.488  0.9220  0.7684 -1.2002
  232MOL0     H30620   8.776  10.651  10.695 -1.8565 -0.7376  1.7448
  232MOL0     H30621   8.692  10.804  10.725  1.8885  0.9702 -0.8636
  232MOL0     H30622   8.398  10.506  10.665 -0.0221  0.5852 -1.6802
  232MOL0     H30623   9.144  10.627  10.473  2.4753 -1.6430  2.2864
  232MOL0     H30624   9.360  10.554  10.428  1.1710  0.3808 -1.8332
  233MOL0     O30625   2.210   1.412   1.102  0.5262  0.4418 -0.0280
  233MOL0     C30626   2.237   1.503   1.028  0.5224 -0.6587  0.8692
  233MOL0     O30627   2.335   1.505   0.931 -0.5534  1.2593 -0.0918
  233MOL0     C30628   2.379   1.393   0.860 -0.2412 -0.3092  0.0227
  233MOL0     C30629   2.501   1.387   0.792  0.2268 -0.2450  0.6266
  233MOL0     C30630   2.534   1.266   0.720  0.3196  0.0872  0.3316
  233MOL0     C30631   2.449   1.155   0.701 -0.0621 -0.8000 -0.5250
  233MOL0     O30632   2.467   1.051   0.616 -1.0341 -0.3172  0.7226
  233MOL0     C30633   2.442   0.921   0.655 -0.4526 -1.0710  1.1835
  233MOL0     C30634   2.547   0.885   0.762 -0.2882  0.4282  0.5831
  233MOL0     C30635   2.547   0.730   0.793 -0.2361  0.1678  0.3636
  233MOL0     C30636   2.616   0.706   0.927 -0.1097 -0.4608  1.1033
  233MOL0     C30637   2.762   0.760   0.956  0.4372 -1.3276  0.6395
  233MOL0     C30638   2.857   0.723   0.842  0.0519  0.1339  1.0831
  233MOL0     C30639   3.010   0.764   0.873  0.1365  0.2753  0.6517
  233MOL0     C30640   3.095   0.716   0.757  0.3473 -1.0405  0.0114
  233MOL0     N30641   3.234   0.737   0.801 -0.2327  0.2706 -0.2425
  233MOL0     C30642   3.320   0.828   0.747  0.2076 -0.1532  0.8559
  233MOL0     C30643   3.445   0.804   0.795 -0.7276  0.4177 -0.2486
  233MOL0     C30644   3.574   0.879   0.760  0.0898 -0.1717  0.1320
  233MOL0     C30645   3.699   0.785   0.773 -0.2635 -0.0101  0.1866
  233MOL0     C30646   3.838   0.861   0.755  0.1355  0.0362 -0.1569
  233MOL0     C30647   3.960   0.771   0.761 -0.2410  0.0620 -0.7060
  233MOL0     O30648   3.967   0.687   0.648  1.3507 -0.5510  0.3635
  233MOL0     C30649   4.076   0.605   0.637 -0.1491  0.9231  0.7135
  233MOL0     C30650   4.171   0.585   0.736 -0.3183 -0.6212  0.1769
  233MOL0     C30651   4.272   0.494   0.713  0.2397  0.9427 -0.3318
  233MOL0     C30652   4.279   0.427   0.590 -0.0003  0.6241  0.6477
  233MOL0     C30653   4.392   0.337   0.562 -0.0979  0.3623  0.3338
  233MOL0     O30654   4.464   0.301   0.681  0.0186 -0.1068  0.2452
  233MOL0     C30655   4.571   0.219   0.664  0.0327 -0.6261  0.6627
  233MOL0     C30656   4.670   0.234   0.561 -0.1411 -0.5625 -0.3463
  233MOL0     C30657   4.786   0.153   0.560  0.4026  0.4283  0.2609
  233MOL0     C30658   4.807   0.052   0.656  0.7514 -0.0222 -0.3730
  233MOL0     O30659   4.911  -0.030   0.642 -0.8040  0.1123  0.0172
  233MOL0     C30660   4.995  -0.063   0.759  0.0842 -0.2846 -0.1576
  233MOL0     C30661   5.073   0.067   0.798  0.5787  0.2232 -0.0117
  233MOL0     C30662   5.175   0.114   0.694 -0.9042  0.8936 -0.4183
  233MOL0     C30663   5.261   0.241   0.726 -0.3572 -0.8213 -0.3670
  233MOL0     C30664   5.369   0.299   0.629  0.0107  0.4739  0.3996
  233MOL0     C30665   5.462   0.183   0.596  0.2412 -0.2671 -0.2463
  233MOL0     C30666   5.558   0.230   0.488  0.0965  0.6586 -0.0446
  233MOL0     C30667   5.638   0.105   0.440  0.1639  0.3412  0.3883
  233MOL0    Cl30668   5.760   0.069   0.566 -0.1031  0.5035 -0.2496
  233MOL0     C30669   4.707   0.044   0.757 -0.3302  0.0772 -0.3430
  233MOL0     C30670   4.599   0.128   0.766  0.1826  0.1055  0.4962
  233MOL0     O30671   4.408   0.292   0.445  0.0567  0.4352  0.1417
  233MOL0     C30672   4.183   0.442   0.496  0.4165  0.7893 -0.0649
  233MOL0     C30673   4.084   0.536   0.516  0.7018 -0.3980 -0.4549
  233MOL0     N30674   3.428   0.705   0.892  0.0097 -0.1870 -0.4606
  233MOL0     N30675   3.302   0.665   0.885 -0.1283 -0.9936 -0.4289
  233MOL0     C30676   2.330   1.163   0.771 -1.2110  0.3951  0.0487
  233MOL0     C30677   2.295   1.278   0.844  0.2552  0.6307  0.5473
  233MOL0     C30678   2.178   1.638   1.062  0.5296  0.5486 -0.0491
  233MOL0     C30679   2.218   1.748   0.990 -1.0143 -0.3514 -0.5238
  233MOL0     C30680   2.186   1.877   1.021  0.4310 -0.3455  0.7636
  233MOL0     C30681   2.098   1.897   1.130  0.6540 -0.5715  0.2140
  233MOL0     O30682   2.061   2.018   1.192 -0.5264 -0.1319  0.2405
  233MOL0     C30683   2.146   2.127   1.166  0.8003  0.0087 -0.5955
  233MOL0     C30684   2.263   2.127   1.265  0.2926 -0.4155  0.1804
  233MOL0     C30685   2.217   2.144   1.414  0.2230  0.2962  0.1302
  233MOL0     C30686   2.295   2.242   1.501  0.6617  0.3364  0.6311
  233MOL0     C30687   2.239   2.376   1.481  0.7836 -0.7305  0.0094
  233MOL0     C30688   2.190   2.492   1.487 -0.6968 -0.9080  0.4034
  233MOL0     C30689   2.044   1.789   1.195  0.2192  0.6370 -0.1879
  233MOL0     C30690   2.086   1.656   1.165 -0.0674 -0.5504 -0.8111
  233MOL0     H30691   2.573   1.465   0.815 -1.5760  1.1964  1.6036
  233MOL0     H30692   2.630   1.265   0.669  1.8228  2.6167  2.8625
  233MOL0     H30693   2.454   0.874   0.557 -0.7496  4.7077 -2.0887
  233MOL0     H30694   2.341   0.908   0.693 -0.8890 -0.0877  0.4040
  233MOL0     H30695   2.530   0.944   0.852 -2.3803  1.1112 -0.1930
  233MOL0     H30696   2.649   0.915   0.734 -1.8920  3.8512 -2.4625
  233MOL0     H30697   2.602   0.673   0.717  2.3347 -1.1276  3.0264
  233MOL0     H30698   2.450   0.678   0.794  0.5379 -1.3111  0.9990
  233MOL0     H30699   2.553   0.760   0.999 -2.7564 -1.5091 -0.3070
  233MOL0     H30700   2.617   0.602   0.963 -2.1203 -0.2454  1.8944
  233MOL0     H30701   2.803   0.726   1.052  0.8420  0.6979  1.2373
  233MOL0     H30702   2.752   0.869   0.962  1.8261 -1.2249  1.8145
  233MOL0     H30703   2.825   0.770   0.749 -1.4362 -0.4201  1.2771
  233MOL0     H30704   2.848   0.615   0.825 -0.2001  0.2110  0.7180
  233MOL0     H30705   3.018   0.872   0.886 -0.3070  0.2816  0.8878
  233MOL0     H30706   3.031   0.711   0.967  0.8589 -2.8032 -1.0883
  233MOL0     H30707   3.060   0.759   0.662 -1.2184 -2.2073  0.0201
  233MOL0     H30708   3.079   0.608   0.750 -0.6749 -0.8228 -1.5161
  233MOL0     H30709   3.291   0.909   0.680  0.1500 -0.2435  0.7717
  233MOL0     H30710   3.591   0.967   0.823  2.0102 -0.1445 -0.3747
  233MOL0     H30711   3.567   0.910   0.655 -0.4805 -0.9370 -0.0642
  233MOL0     H30712   3.698   0.716   0.688 -0.1235 -2.4267  2.0460
  233MOL0     H30713   3.695   0.720   0.861  1.8275  0.3236  0.5780
  233MOL0     H30714   3.845   0.920   0.663  1.0381  0.9950  0.4904
  233MOL0     H30715   3.851   0.926   0.842 -2.4205 -1.8714  1.8076
  233MOL0     H30716   3.955   0.714   0.854  1.6902  3.9185  2.0580
  233MOL0     H30717   4.050   0.833   0.766 -0.1157 -0.1886  0.2277
  233MOL0     H30718   4.170   0.635   0.832 -0.2812  0.9920 -0.6349
  233MOL0     H30719   4.351   0.474   0.785 -1.7046  0.2066  1.7083
  233MOL0     H30720   4.659   0.301   0.476  5.4004 -0.5319 -1.4075
  233MOL0     H30721   4.865   0.165   0.487 -0.7064  4.7434 -0.5212
  233MOL0     H30722   5.058  -0.145   0.721 -1.2625 -3.4339  3.6952
  233MOL0     H30723   4.938  -0.120   0.832 -2.0768 -3.7480 -4.0869
  233MOL0     H30724   5.128   0.046   0.890 -1.2197 -2.8318  0.4861
  233MOL0     H30725   5.003   0.148   0.820  0.5990  0.1717  0.2491
  233MOL0     H30726   5.123   0.130   0.599 -1.0588 -1.0486 -0.7127
  233MOL0     H30727   5.231   0.022   0.676 -2.2856  0.4990 -3.2129
  233MOL0     H30728   5.184   0.319   0.735 -0.5886 -1.0034 -0.7765
  233MOL0     H30729   5.305   0.218   0.823  1.7750  1.8045 -0.5943
  233MOL0     H30730   5.433   0.381   0.662  0.4194  0.7493 -0.9988
  233MOL0     H30731   5.317   0.327   0.537  1.1375 -1.2584 -0.8327
  233MOL0     H30732   5.399   0.100   0.562 -1.2471  0.6020  0.2609
  233MOL0     H30733   5.507   0.138   0.684  4.6827 -0.3331 -2.3077
  233MOL0     H30734   5.495   0.253   0.401 -0.1084 -2.4799 -0.8464
  233MOL0     H30735   5.625   0.310   0.520 -0.2525  0.3409  1.5814
  233MOL0     H30736   5.700   0.126   0.353 -0.6369 -1.1182 -0.5797
  233MOL0     H30737   5.574   0.019   0.419 -0.1102  0.6345  0.0091
  233MOL0     H30738   4.731  -0.020   0.842  0.4890  2.6699  1.5112
  233MOL0     H30739   4.529   0.124   0.849  1.8835 -0.2125  1.9774
  233MOL0     H30740   4.198   0.391   0.401  2.0503 -1.7115  1.4533
  233MOL0     H30741   4.007   0.549   0.440  1.0752 -0.9598 -0.9344
  233MOL0     H30742   2.257   1.082   0.769  1.9043 -2.6880  0.6389
  233MOL0     H30743   2.196   1.295   0.887  0.3427  1.8339  0.2811
  233MOL0     H30744   2.265   1.735   0.893 -1.5842 -0.6967 -0.7576
  233MOL0     H30745   2.233   1.959   0.968  2.1346  0.0316  2.7098
  233MOL0     H30746   2.077   2.211   1.174  2.2942  1.8764 -4.7022
  233MOL0     H30747   2.180   2.136   1.062  0.2609 -0.6228 -0.8343
  233MOL0     H30748   2.319   2.034   1.258  0.1739 -0.3720 -2.2181
  233MOL0     H30749   2.341   2.201   1.245  0.8577 -1.0786 -0.1053
  233MOL0     H30750   2.246   2.046   1.454  0.4243  1.5034  3.1806
  233MOL0     H30751   2.109   2.155   1.426  0.3121  0.2031  1.1148
  233MOL0     H30752   2.281   2.210   1.604 -0.0440 -0.8870  0.1749
  233MOL0     H30753   2.401   2.248   1.475  0.7435  1.8075  1.2166
  233MOL0     H30754   2.145   2.585   1.512  0.6042 -0.9254  3.1896
  233MOL0     H30755   1.981   1.795   1.283 -0.2691 -3.2566 -0.0971
  233MOL0     H30756   2.056   1.573   1.227 -1.8632 -1.5221 -2.8446
  234MOL0     O30757   4.378   8.302   1.049 -0.5255  0.8605 -0.2572
  234MOL0     C30758   4.372   8.423   1.036 -0.8177 -0.1655 -0.0723
  234MOL0     O30759   4.473   8.512   1.020  0.5669  0.5590 -0.2303
  234MOL0     C30760   4.604   8.458   1.013  0.4714  0.2295  1.1415
  234MOL0     C30761   4.634   8.350   0.934  0.2032  0.0451  0.1500
  234MOL0     C30762   4.759   8.289   0.938 -0.2379  0.5278  1.2267
  234MOL0     C30763   4.856   8.339   1.027  0.5841  0.5403 -0.2127
  234MOL0     O30764   4.976   8.280   1.051  1.3824  0.0685  0.1892
  234MOL0     C30765   5.006   8.141   0.995  0.8562  0.7169 -0.4212
  234MOL0     C30766   5.147   8.105   1.043 -0.7077  0.1901 -0.2792
  234MOL0     C30767   5.256   8.184   0.971  0.3449 -0.3444 -0.4368
  234MOL0     C30768   5.262   8.135   0.826 -0.5677 -0.2135 -0.9699
  234MOL0     C30769   5.395   8.167   0.751 -0.1149  0.5729  0.2810
  234MOL0     C30770   5.450   8.313   0.752 -1.1968  0.2615 -0.7574
  234MOL0     C30771   5.370   8.413   0.668  0.3549 -0.6351  0.3956
  234MOL0     C30772   5.438   8.543   0.653  0.6908 -0.0326 -0.7605
  234MOL0     N30773   5.518   8.563   0.536 -0.4239 -0.5694  0.0894
  234MOL0     C30774   5.646   8.503   0.526 -0.1850 -0.1240  0.2328
  234MOL0     C30775   5.674   8.504   0.397 -0.4080 -0.1577 -0.4636
  234MOL0     C30776   5.811   8.478   0.331  1.2014  0.4481 -0.7436
  234MOL0     C30777   5.814   8.344   0.265  0.2969  0.2753  0.8242
  234MOL0     C30778   5.832   8.229   0.367 -0.0681  0.8308 -0.3822
  234MOL0     C30779   5.837   8.102   0.290  0.1039  0.1622  0.2228
  234MOL0     O30780   5.945   8.098   0.194 -0.7030 -0.0488 -0.0054
  234MOL0     C30781   6.069   8.048   0.230 -0.1332 -0.2713  0.3030
  234MOL0     C30782   6.171   8.026   0.130 -0.6788 -0.1665  1.1867
  234MOL0     C30783   6.301   7.981   0.170 -0.6623  0.8718  0.6606
  234MOL0     C30784   6.333   7.943   0.303  0.0019 -0.1012 -0.7087
  234MOL0     C30785   6.474   7.922   0.344 -1.0047 -0.2657  0.2393
  234MOL0     O30786   6.511   7.853   0.457  0.0703 -0.1018  0.4126
  234MOL0     C30787   6.632   7.801   0.473 -0.7845 -0.1777 -0.6661
  234MOL0     C30788   6.744   7.815   0.383 -0.1033 -0.5843 -0.6368
  234MOL0     C30789   6.863   7.731   0.401  0.8626  0.0515  0.3858
  234MOL0     C30790   6.873   7.642   0.507  0.2525 -0.1095  0.7926
  234MOL0     O30791   6.987   7.567   0.530  0.2354  0.1215  0.3969
  234MOL0     C30792   7.094   7.573   0.437  0.0174 -0.0179  0.0720
  234MOL0     C30793   7.198   7.469   0.501 -0.2890 -0.6762  0.2920
  234MOL0     C30794   7.342   7.472   0.457 -0.6006 -0.4680  0.2558
  234MOL0     C30795   7.365   7.510   0.306  0.7042  0.3773 -0.0527
  234MOL0     C30796   7.507   7.481   0.267 -0.0035  0.0757 -0.5367
  234MOL0     C30797   7.540   7.321   0.258  0.6693  0.2552  0.0061
  234MOL0     C30798   7.661   7.283   0.189  0.1029  0.0159  0.5827
  234MOL0     C30799   7.797   7.302   0.254 -1.0610  0.1217  0.0178
  234MOL0    Cl30800   7.836   7.488   0.257  0.4525 -0.0001 -0.0987
  234MOL0     C30801   6.767   7.633   0.596  0.5346 -0.5184  0.2643
  234MOL0     C30802   6.646   7.710   0.578  0.6868 -0.8437 -0.8160
  234MOL0     O30803   6.547   7.983   0.266  0.0836 -0.2956  0.0509
  234MOL0     C30804   6.227   7.935   0.394  0.0108  1.1240 -0.2998
  234MOL0     C30805   6.100   7.980   0.352 -0.0891 -0.4746 -0.5333
  234MOL0     N30806   5.569   8.574   0.330 -0.2621  0.3697  0.3140
  234MOL0     N30807   5.487   8.609   0.412 -0.8040 -0.3342 -0.2574
  234MOL0     C30808   4.822   8.453   1.103  0.9950  0.6856  0.0555
  234MOL0     C30809   4.698   8.514   1.092  0.2041 -1.8091 -0.3243
  234MOL0     C30810   4.233   8.489   1.036  1.7270 -0.1933  1.0074
  234MOL0     C30811   4.110   8.416   1.027 -0.8398 -0.1914  0.1319
  234MOL0     C30812   3.981   8.481   1.038 -0.2686  0.3250 -0.5184
  234MOL0     C30813   3.970   8.616   1.060  0.3309 -0.0263  0.0581
  234MOL0     O30814   3.847   8.671   1.092 -0.1092  0.3713 -0.0475
  234MOL0     C30815   3.835   8.811   1.087 -0.6495 -0.4724 -0.5857
  234MOL0     C30816   3.688   8.845   1.096 -0.7030 -0.1606 -0.0948
  234MOL0     C30817   3.631   8.814   0.957  0.1281 -0.1538 -1.2288
  234MOL0     C30818   3.485   8.850   0.940  0.3341 -0.7344 -0.4017
  234MOL0     C30819   3.402   8.783   1.027 -0.4213  0.6686  0.7687
  234MOL0     C30820   3.348   8.723   1.118  0.0620  1.0774  0.2056
  234MOL0     C30821   4.095   8.685   1.054 -0.9680  0.0206  0.2072
  234MOL0     C30822   4.222   8.627   1.036 -0.1196  0.0219 -0.0966
  234MOL0     H30823   4.552   8.318   0.871 -1.0413 -0.7873  2.0834
  234MOL0     H30824   4.780   8.197   0.883  0.5309  1.2441  0.2979
  234MOL0     H30825   4.998   8.142   0.886 -1.8382 -2.4015 -0.4164
  234MOL0     H30826   4.942   8.063   1.038  0.7053  1.9290  1.6967
  234MOL0     H30827   5.180   8.004   1.020 -0.0973  0.3419 -0.0857
  234MOL0     H30828   5.154   8.113   1.152  0.3443  0.1447 -0.3393
  234MOL0     H30829   5.347   8.176   1.032  0.1516  0.4930 -0.0194
  234MOL0     H30830   5.227   8.290   0.972  2.3069  0.2318  0.6160
  234MOL0     H30831   5.251   8.027   0.820 -1.2484 -0.2154  0.0796
  234MOL0     H30832   5.186   8.181   0.762 -1.0336  1.1149  0.4564
  234MOL0     H30833   5.389   8.129   0.649 -0.9919  0.7371  0.2687
  234MOL0     H30834   5.475   8.105   0.794 -1.2193  1.6392  4.2369
  234MOL0     H30835   5.551   8.303   0.711  1.3973 -3.7110  5.1904
  234MOL0     H30836   5.464   8.349   0.854  0.1677 -1.1656 -0.3842
  234MOL0     H30837   5.350   8.380   0.566 -0.9797  4.4772 -1.2855
  234MOL0     H30838   5.282   8.427   0.732  2.3929 -1.8887  3.7556
  234MOL0     H30839   5.503   8.558   0.740 -0.8717 -1.5972  0.7547
  234MOL0     H30840   5.363   8.622   0.660 -2.2024 -2.6830  1.5665
  234MOL0     H30841   5.700   8.448   0.603 -1.3806 -0.5465  0.8013
  234MOL0     H30842   5.885   8.481   0.412  0.6135  0.7945 -0.2050
  234MOL0     H30843   5.834   8.555   0.257  0.0415  0.4575 -1.1269
  234MOL0     H30844   5.900   8.359   0.199  1.5153  0.3987  2.3763
  234MOL0     H30845   5.733   8.328   0.193  1.5249 -1.6358 -0.2109
  234MOL0     H30846   5.928   8.242   0.418  0.0513 -1.9828  0.2765
  234MOL0     H30847   5.759   8.220   0.448  2.1677  0.3318  1.6959
  234MOL0     H30848   5.738   8.082   0.246  0.5408 -1.6674 -0.0045
  234MOL0     H30849   5.843   8.021   0.362 -0.9948 -0.6532 -0.5688
  234MOL0     H30850   6.155   8.065   0.030  0.4272  2.4682  1.9495
  234MOL0     H30851   6.377   8.005   0.096  1.3821 -2.3600  1.4954
  234MOL0     H30852   6.744   7.886   0.300 -4.0279 -1.2865 -1.4483
  234MOL0     H30853   6.937   7.756   0.326  2.0048 -0.9291  1.1491
  234MOL0     H30854   7.144   7.670   0.444  1.0050 -0.4751 -0.3993
  234MOL0     H30855   7.056   7.550   0.337 -1.9538 -1.5068  1.0996
  234MOL0     H30856   7.156   7.368   0.495  1.4512 -1.6093  2.5438
  234MOL0     H30857   7.215   7.490   0.607 -0.2385  1.1761 -0.0488
  234MOL0     H30858   7.370   7.368   0.469  0.6089  0.0013  1.8008
  234MOL0     H30859   7.402   7.532   0.526 -0.8576 -2.1714  2.0130
  234MOL0     H30860   7.284   7.469   0.245  0.2910  3.1413 -1.5366
  234MOL0     H30861   7.339   7.615   0.289 -1.5743 -0.1780 -0.3369
  234MOL0     H30862   7.580   7.521   0.338  0.9996 -0.5651 -1.1764
  234MOL0     H30863   7.524   7.536   0.174  0.3025  0.1260 -0.4530
  234MOL0     H30864   7.451   7.266   0.228  0.4152  0.9851 -0.6073
  234MOL0     H30865   7.547   7.284   0.361  1.6501  1.4897  0.4164
  234MOL0     H30866   7.639   7.178   0.170  0.9051 -0.2523  1.0974
  234MOL0     H30867   7.666   7.345   0.099 -0.0893  2.1630  1.9923
  234MOL0     H30868   7.876   7.250   0.199 -0.2443  0.5177  0.8012
  234MOL0     H30869   7.797   7.267   0.357 -1.7699 -1.0804 -0.3715
  234MOL0     H30870   6.763   7.563   0.678  2.5286 -3.0261 -1.5798
  234MOL0     H30871   6.559   7.695   0.641  2.0619  1.6325  1.8991
  234MOL0     H30872   6.258   7.893   0.489  2.2815  0.4216 -1.2751
  234MOL0     H30873   6.023   7.962   0.426  0.1136  1.2293  0.1290
  234MOL0     H30874   4.890   8.506   1.167  1.7325  1.0658 -1.0163
  234MOL0     H30875   4.680   8.601   1.154  2.7267  0.0259 -1.9430
  234MOL0     H30876   4.111   8.308   1.031  1.5633 -0.2870 -0.8641
  234MOL0     H30877   3.889   8.425   1.053  0.2985 -0.7977 -1.1517
  234MOL0     H30878   3.891   8.860   1.007  0.8909  0.1490  0.8203
  234MOL0     H30879   3.894   8.848   1.171  1.0905  0.5705 -2.1872
  234MOL0     H30880   3.659   8.784   1.182  0.7724 -1.2007 -0.2876
  234MOL0     H30881   3.666   8.947   1.128  3.8207  0.4759  1.7931
  234MOL0     H30882   3.645   8.706   0.945 -1.2215 -0.3210 -1.4062
  234MOL0     H30883   3.684   8.863   0.875 -1.7204  3.5392 -0.4582
  234MOL0     H30884   3.483   8.959   0.941 -0.1162 -0.6879  2.4721
  234MOL0     H30885   3.449   8.814   0.843 -0.2988  5.4657 -2.9643
  234MOL0     H30886   3.308   8.656   1.192  1.4219 -0.4675 -0.3867
  234MOL0     H30887   4.096   8.794   1.060 -1.8924  0.2076 -1.8551
  234MOL0     H30888   4.313   8.685   1.047  0.4380 -1.3381  4.7167
  235MOL0     O30889   7.899   5.578   6.442 -0.3656 -0.0188  0.2682
  235MOL0     C30890   7.871   5.666   6.522  0.7069 -0.1883  0.8112
  235MOL0     O30891   7.960   5.734   6.600 -0.1377  0.5809  0.0534
  235MOL0     C30892   8.098   5.708   6.585  0.0228  0.1150  0.0195
  235MOL0     C30893   8.170   5.689   6.464 -0.1217 -0.0929  0.4271
  235MOL0     C30894   8.315   5.678   6.468  0.1792  0.2396  0.5197
  235MOL0     C30895   8.386   5.684   6.585 -0.2644  0.2147  0.3173
  235MOL0     O30896   8.523   5.670   6.608 -0.4203  0.4642 -0.0165
  235MOL0     C30897   8.612   5.719   6.506  0.5655 -0.4123 -0.3840
  235MOL0     C30898   8.674   5.612   6.420 -0.7019 -0.3157  0.0052
  235MOL0     C30899   8.757   5.505   6.506 -0.4038  0.2963 -0.1425
  235MOL0     C30900   8.791   5.387   6.418 -0.6295  0.1206  0.4895
  235MOL0     C30901   8.879   5.274   6.478 -0.1855 -0.7144 -0.1423
  235MOL0     C30902   8.823   5.219   6.605  0.0660  0.2780 -0.4922
  235MOL0     C30903   8.917   5.119   6.671  0.1308  0.2434  0.5729
  235MOL0     C30904   8.893   5.116   6.815  0.2397  0.7282  0.0513
  235MOL0     N30905   8.933   4.983   6.881 -0.1351 -0.7627  0.8823
  235MOL0     C30906   8.849   4.876   6.897 -0.4976  0.2884  1.0000
  235MOL0     C30907   8.911   4.799   6.985 -0.5957  0.2413  0.2776
  235MOL0     C30908   8.850   4.673   7.056 -0.2937 -0.3428  0.2222
  235MOL0     C30909   8.931   4.550   7.006  1.0427  0.1383 -0.3091
  235MOL0     C30910   9.041   4.517   7.101 -0.4647 -0.4204  0.2354
  235MOL0     C30911   8.995   4.435   7.219 -0.2864 -0.9068 -0.5834
  235MOL0     O30912   9.113   4.384   7.272  0.0691  0.1647 -0.2296
  235MOL0     C30913   9.107   4.341   7.402 -0.3191  1.0805 -0.0966
  235MOL0     C30914   8.987   4.347   7.484 -0.2098  0.2154 -0.5407
  235MOL0     C30915   8.995   4.308   7.620 -0.4039  0.3088 -0.0721
  235MOL0     C30916   9.116   4.258   7.683  1.2228  0.4588 -0.7233
  235MOL0     C30917   9.111   4.221   7.824 -0.5952 -0.0052  0.0429
  235MOL0     O30918   8.992   4.230   7.893  0.1103 -1.0098  0.0302
  235MOL0     C30919   8.984   4.190   8.021  0.1304 -0.7909  0.0014
  235MOL0     C30920   8.894   4.087   8.065  0.6979  0.1662  0.9802
  235MOL0     C30921   8.891   4.064   8.203 -0.2833 -0.0311 -0.3843
  235MOL0     C30922   8.966   4.134   8.295  0.2517  0.5772  0.5418
  235MOL0     O30923   8.940   4.093   8.423  0.3910  0.3520 -0.5503
  235MOL0     C30924   9.025   4.138   8.526 -0.2136  0.4908  0.0850
  235MOL0     C30925   8.966   4.110   8.661  0.3208 -0.2315 -0.4236
  235MOL0     C30926   8.831   4.180   8.675  0.2997  1.2991 -1.4511
  235MOL0     C30927   8.770   4.173   8.824  0.1155 -0.0630 -0.2774
  235MOL0     C30928   8.756   4.034   8.887 -0.7498  0.4719 -0.5853
  235MOL0     C30929   8.645   3.947   8.820 -0.7935  0.3226  0.0486
  235MOL0     C30930   8.622   3.805   8.868  0.1910 -0.8718 -0.3301
  235MOL0     C30931   8.699   3.696   8.805  0.0862  0.0744 -0.3452
  235MOL0    Cl30932   8.867   3.692   8.882 -0.5567  0.1583 -0.2181
  235MOL0     C30933   9.049   4.237   8.251  0.5388  0.2956 -0.5881
  235MOL0     C30934   9.057   4.261   8.115  0.0455 -0.3274 -0.0389
  235MOL0     O30935   9.207   4.151   7.860 -0.5791  1.1492 -0.4272
  235MOL0     C30936   9.226   4.248   7.589 -0.0262  0.1541 -0.3469
  235MOL0     C30937   9.224   4.290   7.453  0.5801  0.2552 -0.3084
  235MOL0     N30938   9.033   4.856   7.013 -0.6257 -0.6512  0.2706
  235MOL0     N30939   9.045   4.970   6.950  0.8132 -0.2520 -0.8116
  235MOL0     C30940   8.303   5.697   6.697  0.5032  0.3490 -0.3884
  235MOL0     C30941   8.168   5.703   6.706  0.5556  0.9545  0.7097
  235MOL0     C30942   7.725   5.705   6.523 -0.0172  0.3206 -0.0424
  235MOL0     C30943   7.626   5.638   6.450  0.1850 -0.6535 -0.2167
  235MOL0     C30944   7.488   5.663   6.490 -0.3633 -0.3334  0.0983
  235MOL0     C30945   7.445   5.759   6.592 -0.3337 -0.5262  0.6650
  235MOL0     O30946   7.309   5.754   6.603  0.2996  0.7909  0.5141
  235MOL0     C30947   7.252   5.844   6.697  0.9380 -0.7052  0.7573
  235MOL0     C30948   7.249   5.984   6.644 -0.1211 -0.5192 -0.4243
  235MOL0     C30949   7.228   5.988   6.489  0.0748  0.2120  0.1120
  235MOL0     C30950   7.244   6.132   6.433  0.4369  0.4985 -0.2368
  235MOL0     C30951   7.125   6.211   6.480 -0.2829 -0.6975 -0.1261
  235MOL0     C30952   7.015   6.270   6.496 -0.2721 -0.5825 -0.5356
  235MOL0     C30953   7.553   5.844   6.638 -0.4214 -0.1375  0.1795
  235MOL0     C30954   7.684   5.813   6.615  0.3543  0.1347 -0.0962
  235MOL0     H30955   8.118   5.681   6.369 -2.9328 -2.4874  2.0194
  235MOL0     H30956   8.373   5.665   6.377  1.2784 -0.7695  1.3300
  235MOL0     H30957   8.690   5.764   6.569  0.5339 -0.5416 -0.2524
  235MOL0     H30958   8.557   5.796   6.452 -1.8857 -0.8187  1.3720
  235MOL0     H30959   8.740   5.663   6.349 -0.6804 -0.2592  0.0655
  235MOL0     H30960   8.605   5.552   6.361  2.7495 -1.1385 -3.6044
  235MOL0     H30961   8.703   5.464   6.591 -1.5614  0.5945 -0.7083
  235MOL0     H30962   8.856   5.549   6.525 -0.0016  0.4393 -2.2995
  235MOL0     H30963   8.711   5.334   6.366  1.0695 -1.4330 -0.6479
  235MOL0     H30964   8.840   5.432   6.331  0.7800 -3.1174 -0.5142
  235MOL0     H30965   8.982   5.308   6.496  0.0422 -1.8536  0.7827
  235MOL0     H30966   8.890   5.195   6.404 -3.2349 -0.1123 -1.3662
  235MOL0     H30967   8.725   5.172   6.607 -0.1513  0.7372  0.0345
  235MOL0     H30968   8.819   5.305   6.673  2.3664  0.1013 -0.0368
  235MOL0     H30969   8.902   5.018   6.632  2.4113  0.2572 -0.4485
  235MOL0     H30970   9.020   5.151   6.653  0.2362 -1.9254 -4.2468
  235MOL0     H30971   8.791   5.139   6.848  0.5913  2.3865  0.0595
  235MOL0     H30972   8.964   5.188   6.858  1.9187 -0.9627  0.2042
  235MOL0     H30973   8.746   4.857   6.869  0.2247  2.4707 -4.4070
  235MOL0     H30974   8.748   4.658   7.021 -0.3732 -4.5265  1.7373
  235MOL0     H30975   8.848   4.677   7.165 -4.4226  1.3406  0.2581
  235MOL0     H30976   8.977   4.587   6.915 -1.3320  2.9632 -0.5033
  235MOL0     H30977   8.870   4.466   6.972  0.3597  0.7236 -0.5517
  235MOL0     H30978   9.115   4.463   7.041  0.5020  1.1721 -0.0680
  235MOL0     H30979   9.094   4.609   7.128  0.8954 -0.9151 -0.6501
  235MOL0     H30980   8.913   4.368   7.192 -0.7129  0.9233 -4.3640
  235MOL0     H30981   8.960   4.513   7.288  3.2245  1.0227 -0.7088
  235MOL0     H30982   8.888   4.378   7.454 -0.5669 -1.0069 -0.6731
  235MOL0     H30983   8.908   4.322   7.683 -0.6394  0.0002 -0.3256
  235MOL0     H30984   8.838   4.019   8.002  0.7472  2.2549 -1.5060
  235MOL0     H30985   8.816   3.991   8.231 -1.4092  0.2157 -2.5004
  235MOL0     H30986   9.039   4.247   8.524 -1.6178  0.6891 -2.2708
  235MOL0     H30987   9.123   4.095   8.506 -0.4314  0.5806 -1.2925
  235MOL0     H30988   9.039   4.144   8.736 -0.7142  1.9084 -0.2918
  235MOL0     H30989   8.955   4.002   8.667  0.2624 -0.1723  1.0327
  235MOL0     H30990   8.761   4.131   8.609 -0.9878 -0.0298  0.7823
  235MOL0     H30991   8.848   4.286   8.652  4.6397  0.9132 -0.8980
  235MOL0     H30992   8.835   4.228   8.892  0.7690  1.7704 -2.2936
  235MOL0     H30993   8.668   4.212   8.823 -2.2327 -5.2312 -2.8181
  235MOL0     H30994   8.740   4.051   8.994 -2.4969  0.8754 -0.8778
  235MOL0     H30995   8.851   3.983   8.872 -1.4175 -0.7134 -0.8713
  235MOL0     H30996   8.658   3.942   8.711  0.8742  0.2447  0.2191
  235MOL0     H30997   8.556   4.009   8.834 -1.4882 -0.2958 -1.3721
  235MOL0     H30998   8.650   3.798   8.974  0.5203 -0.7779 -0.4104
  235MOL0     H30999   8.514   3.790   8.867 -0.3959  2.3665  0.9134
  235MOL0     H31000   8.708   3.724   8.699  1.7419  0.6709 -0.0847
  235MOL0     H31001   8.658   3.596   8.823 -2.3987  1.3954  2.0704
  235MOL0     H31002   9.098   4.303   8.322 -0.1384  0.4004 -0.2076
  235MOL0     H31003   9.121   4.347   8.096 -0.4669 -0.3807 -2.2678
  235MOL0     H31004   9.321   4.212   7.628  1.2838  2.0598 -1.5609
  235MOL0     H31005   9.309   4.263   7.391 -0.6211 -0.8460 -1.5531
  235MOL0     H31006   8.346   5.674   6.794 -0.0004 -1.1781 -0.4896
  235MOL0     H31007   8.112   5.694   6.798 -1.7884 -1.1941 -0.7906
  235MOL0     H31008   7.653   5.578   6.363 -0.6791  0.6398 -1.4358
  235MOL0     H31009   7.411   5.602   6.443 -0.2679 -0.8359  0.5800
  235MOL0     H31010   7.310   5.850   6.790  1.2238  4.2157  0.5377
  235MOL0     H31011   7.147   5.821   6.717  0.5687 -0.6582 -0.9544
  235MOL0     H31012   7.172   6.041   6.695 -0.7278 -1.3919 -0.3422
  235MOL0     H31013   7.345   6.028   6.674 -0.8609 -0.9312  2.8689
  235MOL0     H31014   7.128   5.950   6.465 -0.3842  0.4886  1.5065
  235MOL0     H31015   7.295   5.917   6.440 -0.0081 -0.3879  0.8432
  235MOL0     H31016   7.339   6.180   6.460 -0.1083  1.3783  0.1457
  235MOL0     H31017   7.236   6.133   6.324  1.0157 -0.9361 -0.3230
  235MOL0     H31018   6.928   6.324   6.527 -0.2806 -0.3067 -1.0378
  235MOL0     H31019   7.540   5.936   6.695  4.1448  0.1730  1.1338
  235MOL0     H31020   7.750   5.886   6.660 -3.0099  1.1685  3.6890
  236MOL0     O31021   2.684   6.559   3.202 -0.0322 -0.2550  0.4636
  236MOL0     C31022   2.616   6.467   3.155  0.8767  1.1524 -0.2206
  236MOL0     O31023   2.667   6.343   3.109 -0.7604  0.0214  0.2452
  236MOL0     C31024   2.800   6.327   3.101 -0.1436 -0.2029 -0.0565
  236MOL0     C31025   2.872   6.402   3.010 -0.6150  0.4791  0.4172
  236MOL0     C31026   3.008   6.382   2.989 -1.0084  1.2017 -0.4480
  236MOL0     C31027   3.074   6.300   3.084  0.0066  0.3356  0.2071
  236MOL0     O31028   3.209   6.281   3.061 -0.4251 -1.2492 -0.4308
  236MOL0     C31029   3.299   6.230   3.162 -0.2734 -0.5703 -0.1448
  236MOL0     C31030   3.444   6.243   3.110 -0.1867 -0.2931 -0.1360
  236MOL0     C31031   3.522   6.107   3.103 -0.1224  0.4711 -0.2117
  236MOL0     C31032   3.652   6.108   3.023  0.6727 -0.0679 -0.0113
  236MOL0     C31033   3.711   5.962   3.027 -0.2962 -0.3407  0.1326
  236MOL0     C31034   3.781   5.892   3.146 -0.1760  0.1629  0.0656
  236MOL0     C31035   3.798   5.747   3.119  0.4490  0.6571  0.5305
  236MOL0     C31036   3.905   5.686   3.219 -0.6621 -0.6888  0.6237
  236MOL0     N31037   3.901   5.542   3.219  1.4390  0.2806  0.7591
  236MOL0     C31038   3.813   5.462   3.154 -0.6685  0.3516  0.1583
  236MOL0     C31039   3.826   5.333   3.198 -0.7145 -0.1337 -0.0204
  236MOL0     C31040   3.768   5.204   3.143  0.5521 -0.4994 -0.2767
  236MOL0     C31041   3.743   5.194   2.993  0.5197 -0.5220 -0.1036
  236MOL0     C31042   3.874   5.155   2.921  0.2351  0.4120 -0.0266
  236MOL0     C31043   3.891   5.240   2.801 -0.0902 -0.4405 -0.1830
  236MOL0     O31044   3.777   5.224   2.713  0.5267 -0.7278 -0.0137
  236MOL0     C31045   3.776   5.301   2.596  0.2311  0.5494 -0.2483
  236MOL0     C31046   3.651   5.310   2.530  0.2380  0.9560  0.3756
  236MOL0     C31047   3.635   5.375   2.406 -0.1102  0.2086 -0.0598
  236MOL0     C31048   3.742   5.450   2.356  0.4324 -0.1355  0.0844
  236MOL0     C31049   3.709   5.527   2.233  0.0266 -0.6391 -0.1318
  236MOL0     O31050   3.822   5.599   2.188 -0.3679 -0.1807 -0.5495
  236MOL0     C31051   3.806   5.694   2.096 -0.2907  0.2626  0.2763
  236MOL0     C31052   3.817   5.668   1.966 -0.4981  0.5074  0.2647
  236MOL0     C31053   3.789   5.764   1.870  0.0462 -0.0235 -0.1943
  236MOL0     C31054   3.774   5.897   1.910  0.2755 -0.7228  0.5198
  236MOL0     O31055   3.751   5.986   1.811 -0.0703 -0.3393 -0.2915
  236MOL0     C31056   3.722   6.122   1.857 -0.0787 -0.6732  0.9034
  236MOL0     C31057   3.691   6.190   1.720  0.8297  0.9485 -0.1454
  236MOL0     C31058   3.557   6.150   1.672 -0.2573 -0.1168 -0.0002
  236MOL0     C31059   3.519   6.191   1.536  0.1738 -0.4064 -0.0025
  236MOL0     C31060   3.381   6.118   1.508  0.0723 -0.2475 -0.3536
  236MOL0     C31061   3.323   6.148   1.373 -0.5898  0.7806  0.0209
  236MOL0     C31062   3.179   6.094   1.357 -0.1279  0.4314 -0.9780
  236MOL0     C31063   3.171   5.936   1.357 -0.4089 -1.1958  0.2646
  236MOL0    Cl31064   2.999   5.889   1.351  0.2006 -0.2831 -0.1470
  236MOL0     C31065   3.768   5.920   2.051  0.2174  0.1360  0.2893
  236MOL0     C31066   3.782   5.820   2.147 -0.3703 -0.3757 -0.9107
  236MOL0     O31067   3.595   5.559   2.200 -0.1433  0.4078 -0.3412
  236MOL0     C31068   3.868   5.460   2.428  0.6330 -0.0331  0.1149
  236MOL0     C31069   3.886   5.378   2.547 -0.2580  0.5883 -0.6344
  236MOL0     N31070   3.928   5.342   3.289 -0.1287  0.2484 -0.3898
  236MOL0     N31071   3.978   5.460   3.292 -0.1833  0.2032  0.1062
  236MOL0     C31072   3.002   6.215   3.167  0.6317  0.0555 -0.2016
  236MOL0     C31073   2.863   6.220   3.159 -0.7116 -0.2236 -0.5022
  236MOL0     C31074   2.470   6.476   3.156 -0.6232  0.5594  0.8620
  236MOL0     C31075   2.388   6.376   3.119  0.1328  0.4065  0.3556
  236MOL0     C31076   2.246   6.381   3.119  0.1216 -0.3070 -0.1013
  236MOL0     C31077   2.184   6.506   3.152 -0.8750 -0.6729 -0.2226
  236MOL0     O31078   2.046   6.536   3.149  0.2491  0.1387  0.5289
  236MOL0     C31079   1.959   6.441   3.080 -0.6859 -0.6715 -0.4883
  236MOL0     C31080   1.818   6.518   3.058 -1.0514 -0.0874  1.3847
  236MOL0     C31081   1.782   6.500   2.908 -0.0369  0.4983  0.0567
  236MOL0     C31082   1.646   6.567   2.865 -1.2573 -0.5197 -0.1422
  236MOL0     C31083   1.530   6.487   2.906 -0.7481  0.5439  0.8696
  236MOL0     C31084   1.430   6.428   2.935 -0.5468 -0.4820 -0.1585
  236MOL0     C31085   2.277   6.612   3.192  0.6424  0.0491 -0.0146
  236MOL0     C31086   2.414   6.593   3.198 -0.3328 -0.8112  0.5428
  236MOL0     H31087   2.805   6.474   2.964  0.2119  0.1808 -1.3270
  236MOL0     H31088   3.069   6.421   2.908 -0.5561 -1.6641 -1.6350
  236MOL0     H31089   3.276   6.123   3.171  1.1271 -0.9188 -0.4691
  236MOL0     H31090   3.299   6.281   3.258  0.5511 -0.2940 -0.2899
  236MOL0     H31091   3.501   6.323   3.158 -2.1829  0.1642  1.6094
  236MOL0     H31092   3.435   6.275   3.006  1.6960 -0.5791 -0.4314
  236MOL0     H31093   3.458   6.026   3.065 -0.4584  0.5230  0.2411
  236MOL0     H31094   3.554   6.079   3.203 -0.6847  0.7238  0.0449
  236MOL0     H31095   3.635   6.123   2.916  1.8133 -0.9090 -0.3357
  236MOL0     H31096   3.730   6.174   3.063  2.5864 -0.6983 -2.3946
  236MOL0     H31097   3.786   5.976   2.948 -3.0359  3.6216 -2.1304
  236MOL0     H31098   3.628   5.893   3.004  0.5689 -1.3790  0.0676
  236MOL0     H31099   3.704   5.898   3.224 -0.4646  3.3898 -0.3225
  236MOL0     H31100   3.870   5.951   3.173 -0.8704  1.3311 -0.1052
  236MOL0     H31101   3.701   5.696   3.124 -0.2954  1.9046 -0.4961
  236MOL0     H31102   3.829   5.731   3.016 -0.7986  1.4717  0.0013
  236MOL0     H31103   3.896   5.722   3.322  0.4034 -1.9122  1.1762
  236MOL0     H31104   3.999   5.727   3.179 -0.8126 -2.6799 -2.0000
  236MOL0     H31105   3.753   5.492   3.068 -0.5720 -1.6570 -0.6633
  236MOL0     H31106   3.675   5.176   3.194  0.3989  0.6805  0.1267
  236MOL0     H31107   3.829   5.120   3.174  0.4823  0.0333  1.4116
  236MOL0     H31108   3.730   5.301   2.976  0.8607 -0.1121  1.9099
  236MOL0     H31109   3.652   5.135   2.974  0.5072 -1.2269  1.9159
  236MOL0     H31110   3.960   5.151   2.989 -0.6801 -1.1321  1.0984
  236MOL0     H31111   3.873   5.058   2.870  2.0869  1.2034 -1.6827
  236MOL0     H31112   3.975   5.199   2.744 -0.3416 -0.6985 -0.3721
  236MOL0     H31113   3.918   5.344   2.819  0.9691 -0.5733 -0.9063
  236MOL0     H31114   3.575   5.232   2.535  2.4114 -1.5441 -1.9785
  236MOL0     H31115   3.542   5.362   2.350  0.1841  0.8921 -0.7194
  236MOL0     H31116   3.834   5.565   1.937 -0.0534  0.9665 -1.2073
  236MOL0     H31117   3.785   5.735   1.766 -1.0827 -1.7549  0.2837
  236MOL0     H31118   3.813   6.168   1.897 -1.0124  1.1529  1.0277
  236MOL0     H31119   3.636   6.127   1.924 -1.8529  2.4329 -1.3125
  236MOL0     H31120   3.762   6.164   1.641 -1.0978  1.1504 -2.0458
  236MOL0     H31121   3.701   6.298   1.735  0.5997  0.5732  3.6359
  236MOL0     H31122   3.478   6.193   1.735 -0.5571  3.1061 -2.3342
  236MOL0     H31123   3.558   6.041   1.678  1.6560 -0.0781  2.0381
  236MOL0     H31124   3.506   6.299   1.530 -3.3042 -0.5750  1.8045
  236MOL0     H31125   3.593   6.152   1.466 -0.6771 -1.0343 -0.5846
  236MOL0     H31126   3.308   6.151   1.582  2.0385 -0.1646  1.6464
  236MOL0     H31127   3.398   6.011   1.523  2.7027  0.3708  1.8033
  236MOL0     H31128   3.394   6.106   1.302 -2.3898 -0.9879 -0.8155
  236MOL0     H31129   3.333   6.257   1.360 -0.2268  0.4822 -2.8315
  236MOL0     H31130   3.114   6.128   1.438  2.5841 -0.3563  1.7177
  236MOL0     H31131   3.145   6.130   1.259  0.6885 -3.1741 -2.7805
  236MOL0     H31132   3.226   5.895   1.442  2.3751  0.0461 -0.8399
  236MOL0     H31133   3.225   5.898   1.270  0.5989 -3.2992  1.7374
  236MOL0     H31134   3.751   6.020   2.088 -0.9525  0.1619 -0.2732
  236MOL0     H31135   3.777   5.850   2.252 -0.6645  1.4253 -1.3895
  236MOL0     H31136   3.950   5.525   2.397  0.9065 -0.2954  0.2843
  236MOL0     H31137   3.981   5.369   2.598 -0.9527 -1.2956  0.4231
  236MOL0     H31138   3.063   6.144   3.221  1.1900  0.2764 -0.5399
  236MOL0     H31139   2.803   6.142   3.204 -0.9210 -0.0751 -0.5180
  236MOL0     H31140   2.429   6.279   3.092 -1.0713 -0.1203  0.3631
  236MOL0     H31141   2.175   6.311   3.076 -0.4863 -0.0634  0.4891
  236MOL0     H31142   1.952   6.344   3.129  1.5735 -1.0119 -0.7326
  236MOL0     H31143   2.009   6.426   2.984 -0.5202  0.9558 -0.6836
  236MOL0     H31144   1.750   6.478   3.134 -0.3218 -2.8878  0.6705
  236MOL0     H31145   1.816   6.626   3.073  1.0955  0.3453 -0.8434
  236MOL0     H31146   1.773   6.392   2.895  0.4641 -0.0193  3.2996
  236MOL0     H31147   1.859   6.544   2.844 -0.1713  2.2673  1.0592
  236MOL0     H31148   1.643   6.666   2.910 -1.5335 -1.9147  3.2228
  236MOL0     H31149   1.640   6.572   2.756 -0.4897 -0.7961 -0.2023
  236MOL0     H31150   1.349   6.370   2.975 -1.1908  1.1270  0.9904
  236MOL0     H31151   2.238   6.707   3.229 -0.6372 -0.9486  1.3020
  236MOL0     H31152   2.480   6.674   3.231 -0.1419 -1.0300  0.6999
  237MOL0     O31153   5.085   7.379   5.582 -0.9411  0.5806 -0.2408
  237MOL0     C31154   5.202   7.371   5.625  0.2102  0.5907 -0.0263
  237MOL0     O31155   5.304   7.297   5.554  0.2825 -0.0023 -0.5024
  237MOL0     C31156   5.264   7.240   5.439 -0.3325  0.2070  0.2400
  237MOL0     C31157   5.316   7.291   5.317  0.0289 -0.1263 -0.8278
  237MOL0     C31158   5.283   7.235   5.197 -0.4368  0.1954 -0.3906
  237MOL0     C31159   5.193   7.125   5.188 -0.0448  0.7268 -0.0843
  237MOL0     O31160   5.160   7.066   5.065 -0.3748  0.9414 -0.1414
  237MOL0     C31161   5.035   6.995   5.052  0.7844 -0.1303  0.1623
  237MOL0     C31162   4.917   7.089   5.090 -0.6049 -0.3409 -0.6795
  237MOL0     C31163   4.935   7.227   5.027 -0.1695 -0.8041 -0.9462
  237MOL0     C31164   4.818   7.312   5.043 -0.2704  0.1315  0.1798
  237MOL0     C31165   4.837   7.444   5.127  0.1273  0.5625 -0.1138
  237MOL0     C31166   4.873   7.418   5.270  0.8276  0.5297 -0.0677
  237MOL0     C31167   4.751   7.330   5.343  0.3037 -0.3642  0.3388
  237MOL0     C31168   4.785   7.315   5.494  0.2754  0.3774  0.3662
  237MOL0     N31169   4.677   7.246   5.577  0.2977  0.0707  0.0980
  237MOL0     C31170   4.560   7.290   5.642 -0.4894 -0.5755 -0.2388
  237MOL0     C31171   4.502   7.186   5.700  0.8571  0.0658 -0.3290
  237MOL0     C31172   4.386   7.192   5.790 -0.1252  0.0022 -0.8330
  237MOL0     C31173   4.271   7.120   5.730 -0.2686  0.2138  0.1581
  237MOL0     C31174   4.272   6.967   5.720 -0.9187  0.4250 -0.0619
  237MOL0     C31175   4.165   6.884   5.781 -0.5886  0.1903 -0.4995
  237MOL0     O31176   4.045   6.885   5.703  0.4705  0.6481  0.5645
  237MOL0     C31177   4.032   6.806   5.597  0.9496  0.3842  0.1228
  237MOL0     C31178   4.133   6.739   5.536  0.0386  0.1842 -0.7298
  237MOL0     C31179   4.114   6.667   5.423 -0.5229 -0.6060  1.1245
  237MOL0     C31180   3.986   6.641   5.375  0.2006 -0.3790  0.7855
  237MOL0     C31181   3.978   6.558   5.244  0.5869  0.8774 -0.4940
  237MOL0     O31182   3.856   6.552   5.192  0.7176  0.1273  0.4828
  237MOL0     C31183   3.832   6.467   5.089  0.3723  0.0512  0.8628
  237MOL0     C31184   3.707   6.397   5.103 -0.7347  0.1597 -0.2280
  237MOL0     C31185   3.660   6.312   5.003 -0.2820  0.2346  0.3065
  237MOL0     C31186   3.733   6.293   4.885  0.5601  0.3980 -0.6643
  237MOL0     O31187   3.690   6.191   4.804  0.1467 -0.6143 -0.1619
  237MOL0     C31188   3.745   6.144   4.677  0.6626 -0.1448 -0.0915
  237MOL0     C31189   3.646   6.044   4.634  0.0085  0.3382  0.3646
  237MOL0     C31190   3.645   6.006   4.489 -0.2442 -0.5149  0.3645
  237MOL0     C31191   3.784   5.955   4.445  0.1367  0.8640  0.3117
  237MOL0     C31192   3.763   5.908   4.299  0.1848  0.2799 -0.2471
  237MOL0     C31193   3.894   5.888   4.219  0.5167 -0.4569 -0.8667
  237MOL0     C31194   3.867   5.788   4.109  0.8413 -0.7445  0.2910
  237MOL0     C31195   3.989   5.759   4.020  0.1077 -0.8105 -1.1324
  237MOL0    Cl31196   4.134   5.695   4.124 -0.3798 -0.0876  0.5890
  237MOL0     C31197   3.855   6.367   4.860  0.0541  0.7495 -0.1830
  237MOL0     C31198   3.904   6.446   4.966 -0.3690 -0.1763 -0.1626
  237MOL0     O31199   4.076   6.494   5.199  0.6475 -0.6441  0.2602
  237MOL0     C31200   3.880   6.705   5.434  0.3780 -0.6646  1.0382
  237MOL0     C31201   3.901   6.788   5.545 -0.4939 -1.0599 -0.8138
  237MOL0     N31202   4.589   7.084   5.673 -0.1943 -0.2814 -0.0475
  237MOL0     N31203   4.696   7.116   5.618  0.0407  0.2943 -0.5593
  237MOL0     C31204   5.146   7.071   5.310  0.3231 -0.1101  0.3543
  237MOL0     C31205   5.181   7.133   5.432  1.1977  0.3379 -0.1919
  237MOL0     C31206   5.233   7.428   5.758 -0.1590 -0.0782  0.4861
  237MOL0     C31207   5.158   7.522   5.814 -0.0731 -0.0789  0.4562
  237MOL0     C31208   5.190   7.577   5.931  0.5542  0.7158 -0.9402
  237MOL0     C31209   5.307   7.545   5.998 -1.2032  0.8054 -0.7855
  237MOL0     O31210   5.334   7.618   6.114  0.4324  0.2316  0.2823
  237MOL0     C31211   5.435   7.599   6.197 -0.7048 -0.5242  0.3431
  237MOL0     C31212   5.405   7.660   6.331  0.5467  0.5807 -0.6870
  237MOL0     C31213   5.268   7.609   6.393 -0.0106  0.4944  0.8681
  237MOL0     C31214   5.254   7.669   6.538 -0.2242 -1.1103  0.0217
  237MOL0     C31215   5.164   7.603   6.624  0.2817  0.5240  0.4213
  237MOL0     C31216   5.083   7.563   6.707  0.1591 -0.1878  0.1084
  237MOL0     C31217   5.395   7.451   5.940  0.0890 -0.9631  0.9156
  237MOL0     C31218   5.354   7.385   5.819 -0.6144  0.2275  0.3428
  237MOL0     H31219   5.393   7.367   5.312  0.3820 -0.5434 -1.9361
  237MOL0     H31220   5.320   7.286   5.109  0.4238  0.8854  0.3487
  237MOL0     H31221   5.032   6.903   5.110  0.2754  0.3392  0.8901
  237MOL0     H31222   5.036   6.971   4.945  0.4191  0.2461  0.0716
  237MOL0     H31223   4.908   7.088   5.199 -0.4622 -0.1139 -0.6651
  237MOL0     H31224   4.820   7.058   5.050 -0.7343 -0.3049 -0.3977
  237MOL0     H31225   4.934   7.198   4.921 -2.6632 -1.9940 -0.6784
  237MOL0     H31226   5.022   7.283   5.062 -0.6594 -0.5666 -0.0892
  237MOL0     H31227   4.807   7.337   4.937 -1.7887 -0.7359  0.1165
  237MOL0     H31228   4.730   7.256   5.074  0.6040 -1.5377 -0.2441
  237MOL0     H31229   4.740   7.492   5.112 -0.6931 -1.2971 -1.2978
  237MOL0     H31230   4.915   7.505   5.080  0.3498  0.1424 -0.3048
  237MOL0     H31231   4.873   7.519   5.312 -1.3988  1.2016 -1.5005
  237MOL0     H31232   4.969   7.366   5.269 -0.5261 -2.1696 -1.9997
  237MOL0     H31233   4.650   7.370   5.327 -1.2356 -3.8077  0.3552
  237MOL0     H31234   4.741   7.229   5.301 -2.1877 -0.9469  2.0816
  237MOL0     H31235   4.801   7.412   5.540 -0.3038  0.4314  0.4650
  237MOL0     H31236   4.878   7.258   5.501  0.0974 -0.1772 -1.2637
  237MOL0     H31237   4.524   7.392   5.642 -0.1144 -0.4398 -0.5858
  237MOL0     H31238   4.371   7.294   5.826 -2.2596  0.0840 -1.7909
  237MOL0     H31239   4.416   7.142   5.883 -1.3639 -1.0360 -0.9657
  237MOL0     H31240   4.245   7.172   5.637  0.8235  2.6122  1.1000
  237MOL0     H31241   4.186   7.149   5.794  0.1025  0.0579  0.7276
  237MOL0     H31242   4.278   6.931   5.617  1.8302 -2.5226  0.9443
  237MOL0     H31243   4.368   6.942   5.765 -1.5635 -2.3478 -0.0151
  237MOL0     H31244   4.136   6.923   5.879  0.6714 -1.1442  0.4336
  237MOL0     H31245   4.195   6.780   5.793 -0.4924  0.4359  1.7957
  237MOL0     H31246   4.232   6.735   5.582 -1.2479 -0.5561  2.1847
  237MOL0     H31247   4.199   6.613   5.382  0.5924  0.6501  1.7071
  237MOL0     H31248   3.640   6.426   5.183  0.1964  2.5030 -0.2092
  237MOL0     H31249   3.565   6.262   5.021  0.8959 -2.5195 -0.7114
  237MOL0     H31250   3.843   6.097   4.684  0.8010  0.0467 -0.7227
  237MOL0     H31251   3.757   6.222   4.601 -0.4102  1.1636  1.0186
  237MOL0     H31252   3.547   6.088   4.650  0.3422  1.8797 -1.4503
  237MOL0     H31253   3.656   5.956   4.699  0.1597  1.1911  1.5423
  237MOL0     H31254   3.595   6.076   4.422 -0.0581 -2.3301 -1.7746
  237MOL0     H31255   3.579   5.918   4.487 -0.2897 -0.5225  1.3693
  237MOL0     H31256   3.850   6.043   4.452  0.0678  1.0960 -1.4464
  237MOL0     H31257   3.824   5.877   4.510 -3.1262 -0.0805  1.3724
  237MOL0     H31258   3.699   5.976   4.241  0.4234  4.3222  3.7151
  237MOL0     H31259   3.712   5.811   4.305  0.1043  0.0530 -3.1316
  237MOL0     H31260   3.964   5.849   4.294 -1.4559 -1.2313  0.6720
  237MOL0     H31261   3.933   5.980   4.174  1.7174 -1.9364 -3.0581
  237MOL0     H31262   3.835   5.698   4.163  0.6503 -1.0287 -0.2902
  237MOL0     H31263   3.772   5.805   4.057 -0.0856 -1.7058  1.6087
  237MOL0     H31264   4.011   5.853   3.969  1.3745  0.7178  1.9235
  237MOL0     H31265   3.951   5.706   3.933 -0.9044  2.4304 -2.7896
  237MOL0     H31266   3.917   6.348   4.773  4.9225 -1.1709  3.2528
  237MOL0     H31267   3.991   6.509   4.955 -0.2051 -0.4593 -0.4853
  237MOL0     H31268   3.775   6.694   5.409  0.4132  0.1947  0.4704
  237MOL0     H31269   3.816   6.843   5.584  1.0488 -1.1753  3.1871
  237MOL0     H31270   5.098   6.974   5.305  2.4505 -1.4240  2.9374
  237MOL0     H31271   5.130   7.100   5.522 -1.7255  2.5814 -0.8700
  237MOL0     H31272   5.071   7.540   5.752  0.9202 -2.5401 -1.8537
  237MOL0     H31273   5.131   7.655   5.979 -0.2116 -1.8825  2.7601
  237MOL0     H31274   5.522   7.645   6.149 -0.6316 -2.6034 -1.6981
  237MOL0     H31275   5.453   7.491   6.205  0.7295 -0.7922 -4.0952
  237MOL0     H31276   5.481   7.631   6.403  1.1991 -2.9527 -2.5599
  237MOL0     H31277   5.392   7.768   6.319  0.3859  0.4232 -2.1231
  237MOL0     H31278   5.268   7.501   6.410 -0.7134  0.4148  0.4195
  237MOL0     H31279   5.182   7.632   6.330  0.3893 -0.4608 -0.0650
  237MOL0     H31280   5.354   7.676   6.582 -0.3912  2.1467  0.1505
  237MOL0     H31281   5.229   7.776   6.537 -1.7407 -1.4427 -0.6133
  237MOL0     H31282   5.018   7.515   6.778 -0.5219  3.1496  1.9781
  237MOL0     H31283   5.494   7.432   5.980  0.7266 -1.5060 -0.8549
  237MOL0     H31284   5.412   7.308   5.771 -0.8429  0.5249 -0.4195
  238MOL0     O31285   9.026   5.083   1.383 -0.2266 -0.4156 -0.4200
  238MOL0     C31286   8.948   5.180   1.387 -1.1405 -0.5243 -0.1734
  238MOL0     O31287   8.823   5.182   1.444 -0.6058  0.1723  0.1259
  238MOL0     C31288   8.788   5.056   1.483  0.0830 -0.1915 -0.1718
  238MOL0     C31289   8.788   5.030   1.619 -0.8664 -0.0744  0.0119
  238MOL0     C31290   8.764   4.903   1.662 -0.6997  0.0485  0.5103
  238MOL0     C31291   8.722   4.804   1.569 -0.2608  0.8495  0.1479
  238MOL0     O31292   8.690   4.679   1.615 -0.1326 -0.9813  0.2279
  238MOL0     C31293   8.567   4.673   1.679 -0.4243  0.2117 -0.6315
  238MOL0     C31294   8.550   4.527   1.727 -0.1017 -0.6923  0.0022
  238MOL0     C31295   8.392   4.511   1.758  1.2683  0.4443 -0.2256
  238MOL0     C31296   8.337   4.381   1.810 -0.2928  0.4994 -0.4282
  238MOL0     C31297   8.191   4.376   1.825 -0.3048  0.1923  0.9070
  238MOL0     C31298   8.156   4.233   1.863 -1.4679  0.0937 -0.3072
  238MOL0     C31299   8.003   4.219   1.889 -0.1822  0.0675 -0.1753
  238MOL0     C31300   7.959   4.274   2.017 -0.2847  0.3154 -0.1502
  238MOL0     N31301   7.818   4.288   2.023  0.1246  0.9576 -0.8625
  238MOL0     C31302   7.734   4.183   2.038 -0.5238 -0.6208 -0.0869
  238MOL0     C31303   7.607   4.231   2.041 -0.0835 -0.5882  0.8006
  238MOL0     C31304   7.489   4.147   2.063 -0.5417  0.8609  0.8441
  238MOL0     C31305   7.365   4.206   1.992 -0.3984 -0.2353  0.7740
  238MOL0     C31306   7.249   4.107   1.988  0.4472  0.5354  0.5210
  238MOL0     C31307   7.136   4.142   1.891  1.2005 -0.1488  0.1971
  238MOL0     O31308   7.030   4.040   1.911  0.1752  0.0431  0.5163
  238MOL0     C31309   6.917   4.027   1.831  0.5759  0.0735 -0.4843
  238MOL0     C31310   6.828   3.916   1.843  0.2366 -0.3829  0.0868
  238MOL0     C31311   6.705   3.913   1.769  0.6274 -0.3910  0.2872
  238MOL0     C31312   6.676   4.016   1.673 -0.3814  0.5657 -0.0662
  238MOL0     C31313   6.550   4.012   1.591 -0.2252 -0.5507  0.1876
  238MOL0     O31314   6.537   4.110   1.493 -0.3154  0.3392  0.0636
  238MOL0     C31315   6.456   4.104   1.387  0.1090 -0.0354  0.2464
  238MOL0     C31316   6.408   3.986   1.328  0.2368  0.2078 -0.4930
  238MOL0     C31317   6.333   3.992   1.207 -0.8063 -0.1140  0.5644
  238MOL0     C31318   6.323   4.119   1.133  0.1137 -0.5037 -0.1771
  238MOL0     O31319   6.266   4.123   1.008 -0.4445  0.4601  0.1280
  238MOL0     C31320   6.271   4.232   0.924 -0.6743  0.3594  0.1696
  238MOL0     C31321   6.187   4.189   0.798 -0.1915  0.1070 -0.2247
  238MOL0     C31322   6.088   4.298   0.760 -0.3588  0.6709 -0.6426
  238MOL0     C31323   5.993   4.251   0.663  0.4116 -1.2595  0.4746
  238MOL0     C31324   5.918   4.383   0.628  0.4128  0.3568  0.6768
  238MOL0     C31325   5.816   4.368   0.514 -0.2447 -0.0896  0.8562
  238MOL0     C31326   5.762   4.500   0.453 -0.2713  0.2002  0.0499
  238MOL0     C31327   5.792   4.516   0.299 -1.1938  0.1378 -0.6439
  238MOL0    Cl31328   5.737   4.680   0.233 -0.2281 -0.1598 -0.1843
  238MOL0     C31329   6.356   4.238   1.202  0.0095 -0.2533  0.4703
  238MOL0     C31330   6.417   4.225   1.327 -0.3862 -0.5651  0.6322
  238MOL0     O31331   6.467   3.921   1.607  0.3929 -0.0398  0.7629
  238MOL0     C31332   6.759   4.125   1.670 -1.3055 -0.1995  0.5644
  238MOL0     C31333   6.875   4.131   1.743  0.4252  0.4281 -0.0322
  238MOL0     N31334   7.614   4.368   2.044  0.1280 -0.3135 -0.4777
  238MOL0     N31335   7.745   4.401   2.019  0.7026  0.3655 -0.7111
  238MOL0     C31336   8.717   4.832   1.432  0.5353 -0.4798  0.4334
  238MOL0     C31337   8.760   4.961   1.381 -0.0927  0.8315 -0.7795
  238MOL0     C31338   8.983   5.300   1.313 -0.8383 -0.9851  0.7587
  238MOL0     C31339   8.905   5.414   1.325 -0.1220  0.2670  0.2600
  238MOL0     C31340   8.946   5.534   1.258 -0.0093 -0.3542 -0.4462
  238MOL0     C31341   9.059   5.538   1.164 -0.6242  0.7737 -0.5822
  238MOL0     O31342   9.085   5.661   1.103 -0.2188  0.7135  0.4100
  238MOL0     C31343   9.192   5.672   1.008  0.2705 -0.5417 -1.3208
  238MOL0     C31344   9.245   5.823   1.021 -1.2918 -0.1148 -0.0967
  238MOL0     C31345   9.371   5.822   1.108 -0.8191  0.6960 -0.7002
  238MOL0     C31346   9.504   5.812   1.016 -0.0944  0.0761 -0.3473
  238MOL0     C31347   9.619   5.767   1.086 -0.0188  0.2514 -0.8422
  238MOL0     C31348   9.722   5.732   1.147 -0.4513 -0.6222 -0.3887
  238MOL0     C31349   9.111   5.412   1.140  0.2707 -0.1897  0.6561
  238MOL0     C31350   9.085   5.294   1.212  0.9428  0.0053 -1.1951
  238MOL0     H31351   8.829   5.104   1.686 -0.3881  0.1770 -0.5475
  238MOL0     H31352   8.758   4.891   1.770  0.7308 -0.7245  0.5214
  238MOL0     H31353   8.495   4.685   1.598 -0.3512 -1.7239 -1.0311
  238MOL0     H31354   8.558   4.747   1.758 -1.3399  1.1475 -1.5719
  238MOL0     H31355   8.604   4.506   1.820 -0.4018 -0.2000  0.2931
  238MOL0     H31356   8.593   4.449   1.663 -0.0975 -1.6648  1.1549
  238MOL0     H31357   8.339   4.521   1.663 -0.8430  0.5682  0.9267
  238MOL0     H31358   8.358   4.582   1.833 -0.3182  0.2671 -0.7550
  238MOL0     H31359   8.368   4.294   1.752 -1.1553  1.7282 -2.8598
  238MOL0     H31360   8.389   4.354   1.902 -0.2565 -1.0839 -0.8793
  238MOL0     H31361   8.151   4.393   1.725 -1.7988  1.9633  1.7409
  238MOL0     H31362   8.162   4.446   1.904  0.8801  1.4241  0.2819
  238MOL0     H31363   8.217   4.188   1.941 -0.9155 -1.4121 -1.5626
  238MOL0     H31364   8.173   4.173   1.773 -0.5714  2.2549 -1.6743
  238MOL0     H31365   7.949   4.269   1.807  0.3476 -1.3063 -1.4003
  238MOL0     H31366   7.981   4.112   1.890  2.5306 -0.5790 -1.0731
  238MOL0     H31367   7.993   4.375   2.042 -1.0196  0.9669 -1.6584
  238MOL0     H31368   8.003   4.214   2.097 -1.4850 -0.2657  0.0869
  238MOL0     H31369   7.761   4.078   2.043 -0.2757 -0.4956  2.0569
  238MOL0     H31370   7.468   4.119   2.166 -1.7444 -1.3534  0.0719
  238MOL0     H31371   7.516   4.051   2.017 -1.3034  0.3526  1.4270
  238MOL0     H31372   7.377   4.247   1.891  1.4414 -1.7415  0.3308
  238MOL0     H31373   7.352   4.290   2.061 -2.4367  0.5947 -0.5350
  238MOL0     H31374   7.290   4.009   1.961 -0.6347 -0.2558  1.6406
  238MOL0     H31375   7.214   4.094   2.091  3.7572  0.3651  1.7578
  238MOL0     H31376   7.177   4.127   1.791 -0.0451 -0.3377 -0.3158
  238MOL0     H31377   7.111   4.248   1.905  2.9887  0.3014  0.1189
  238MOL0     H31378   6.850   3.830   1.904  0.2304 -0.8290 -0.5303
  238MOL0     H31379   6.644   3.824   1.779  0.9659 -0.8447 -1.3883
  238MOL0     H31380   6.413   3.891   1.379  1.1363  1.2710  1.5462
  238MOL0     H31381   6.307   3.900   1.156  0.0001 -0.6788  1.1292
  238MOL0     H31382   6.371   4.252   0.884 -1.8062  2.7133 -1.7466
  238MOL0     H31383   6.227   4.317   0.976 -2.7758 -1.7989  2.1844
  238MOL0     H31384   6.141   4.093   0.822 -1.5549  0.7058 -0.3501
  238MOL0     H31385   6.238   4.181   0.702 -0.3461  2.2456 -0.5338
  238MOL0     H31386   6.154   4.379   0.727  1.3640  0.2161  1.4197
  238MOL0     H31387   6.027   4.338   0.841 -1.4910  1.6876 -1.9552
  238MOL0     H31388   6.050   4.210   0.579  0.7764  0.0738  0.0413
  238MOL0     H31389   5.918   4.183   0.703 -1.5514  0.4279 -0.1231
  238MOL0     H31390   5.990   4.459   0.597  1.4300 -0.7841  0.1242
  238MOL0     H31391   5.859   4.416   0.713 -2.4272 -0.0480 -0.9797
  238MOL0     H31392   5.731   4.308   0.549  1.7933 -2.3453  2.2198
  238MOL0     H31393   5.864   4.307   0.437  3.1584 -0.6087  3.2007
  238MOL0     H31394   5.654   4.504   0.466 -0.0290 -0.3361  2.9176
  238MOL0     H31395   5.796   4.591   0.503 -0.8372  0.8675 -0.7486
  238MOL0     H31396   5.738   4.438   0.245 -0.8403  1.7872 -3.5548
  238MOL0     H31397   5.899   4.501   0.285 -1.5043 -1.4496 -1.5178
  238MOL0     H31398   6.343   4.336   1.157  1.9903  1.2725  2.9152
  238MOL0     H31399   6.454   4.319   1.367 -2.6851 -0.2332  2.1587
  238MOL0     H31400   6.745   4.201   1.593  1.0035 -0.0486  0.2202
  238MOL0     H31401   6.943   4.212   1.717  0.2260  0.0159 -1.9961
  238MOL0     H31402   8.705   4.757   1.354  0.0818 -0.3187  0.3434
  238MOL0     H31403   8.751   4.980   1.275  0.4511 -0.2444 -1.0340
  238MOL0     H31404   8.822   5.415   1.395  0.1359 -0.3570  0.5769
  238MOL0     H31405   8.896   5.629   1.270  0.1447 -0.2838 -0.3572
  238MOL0     H31406   9.148   5.646   0.911 -3.1033 -3.1899  0.7262
  238MOL0     H31407   9.271   5.597   1.021 -0.1665 -0.7326  0.5072
  238MOL0     H31408   9.264   5.856   0.919 -0.8051  0.5958  0.2116
  238MOL0     H31409   9.173   5.895   1.060 -1.9503 -1.0473  0.4425
  238MOL0     H31410   9.357   5.731   1.167 -1.8795  1.2351 -0.1013
  238MOL0     H31411   9.370   5.913   1.169 -1.6203 -0.0368  0.3989
  238MOL0     H31412   9.493   5.745   0.930  0.3838  0.7571 -0.9472
  238MOL0     H31413   9.537   5.912   0.987 -2.3295  2.0041  3.0435
  238MOL0     H31414   9.806   5.698   1.205 -0.5655  0.4291  0.4065
  238MOL0     H31415   9.184   5.405   1.060 -2.8599 -0.6677 -2.3947
  238MOL0     H31416   9.141   5.203   1.197  3.0338  0.7328  1.3908
  239MOL0     O31417   3.584   4.783   4.029  0.3986 -0.3804 -0.9266
  239MOL0     C31418   3.703   4.806   4.023 -0.4269 -0.4571  0.4199
  239MOL0     O31419   3.758   4.931   4.039  0.3579  0.7173  0.1495
  239MOL0     C31420   3.696   5.052   4.044  0.0823 -0.4340  0.9936
  239MOL0     C31421   3.781   5.156   4.086  0.0171 -0.8477  0.3963
  239MOL0     C31422   3.727   5.286   4.100 -0.1635 -0.3117 -0.2294
  239MOL0     C31423   3.599   5.307   4.062  0.0056  0.7763 -0.6331
  239MOL0     O31424   3.560   5.434   4.066  0.8922 -0.7161 -0.4212
  239MOL0     C31425   3.448   5.463   4.133  0.6270  0.9832 -0.8341
  239MOL0     C31426   3.443   5.615   4.157 -0.2833 -0.5399 -0.4079
  239MOL0     C31427   3.340   5.674   4.063  0.7851 -0.5782  0.6471
  239MOL0     C31428   3.333   5.835   4.059  0.1443  0.2922  0.6840
  239MOL0     C31429   3.459   5.887   3.989 -0.4156  0.0199  0.0796
  239MOL0     C31430   3.464   6.038   3.995 -0.1648 -0.3401  0.5724
  239MOL0     C31431   3.586   6.103   3.926  0.9699  0.2087  0.8522
  239MOL0     C31432   3.585   6.252   3.945 -0.3991  0.4224  0.4734
  239MOL0     N31433   3.479   6.322   3.860 -0.5836 -0.1018  0.3689
  239MOL0     C31434   3.463   6.322   3.724  0.0154 -0.7712  0.2968
  239MOL0     C31435   3.339   6.380   3.702 -0.0690  0.0247 -0.2142
  239MOL0     C31436   3.273   6.403   3.573 -0.1736 -0.2678  0.1146
  239MOL0     C31437   3.129   6.445   3.598 -0.1767  0.7600 -0.4992
  239MOL0     C31438   3.047   6.455   3.467 -0.8355  0.4754 -0.0958
  239MOL0     C31439   2.901   6.463   3.504  0.7041 -0.0036  0.0402
  239MOL0     O31440   2.851   6.329   3.518 -0.3002  0.1775 -0.3340
  239MOL0     C31441   2.713   6.316   3.511  0.2148  0.2405 -0.3598
  239MOL0     C31442   2.621   6.432   3.506 -0.3038  0.1111 -0.8667
  239MOL0     C31443   2.483   6.405   3.490 -0.3226  0.5626  0.2962
  239MOL0     C31444   2.436   6.273   3.492 -0.8813  0.0885 -0.0483
  239MOL0     C31445   2.296   6.251   3.506 -0.2219 -0.2789  0.0962
  239MOL0     O31446   2.221   6.357   3.533  0.1195 -0.3077  0.1847
  239MOL0     C31447   2.091   6.356   3.531  0.9721  0.6327  0.0364
  239MOL0     C31448   2.012   6.293   3.431 -0.1326  0.6895 -0.8756
  239MOL0     C31449   1.873   6.302   3.451 -0.7300 -0.4819  0.2865
  239MOL0     C31450   1.817   6.386   3.541  0.3654 -0.1182  0.2207
  239MOL0     O31451   1.681   6.390   3.527 -0.0897  0.1019  0.6873
  239MOL0     C31452   1.609   6.493   3.598 -0.4293 -0.7951  0.4293
  239MOL0     C31453   1.460   6.472   3.554 -0.1031 -0.5061 -0.2562
  239MOL0     C31454   1.354   6.542   3.643 -0.5451 -1.2611 -0.3318
  239MOL0     C31455   1.358   6.496   3.789  0.4650  1.2565  0.3566
  239MOL0     C31456   1.240   6.541   3.862  0.2938 -0.1380 -0.4516
  239MOL0     C31457   1.112   6.459   3.835 -0.8370 -0.5645  0.1959
  239MOL0     C31458   1.008   6.502   3.936  0.8069  0.5486  0.0750
  239MOL0     C31459   0.894   6.599   3.878  0.1498  0.9848  1.0073
  239MOL0    Cl31460   0.966   6.756   3.815  0.0815  0.1957 -0.5336
  239MOL0     C31461   1.896   6.462   3.627  0.8551  0.1099  0.1786
  239MOL0     C31462   2.029   6.434   3.624 -0.3136 -0.5709 -0.3043
  239MOL0     O31463   2.250   6.136   3.486 -0.9213 -0.9143  0.3284
  239MOL0     C31464   2.533   6.167   3.491 -0.0507 -1.1557  0.5149
  239MOL0     C31465   2.670   6.187   3.498 -0.3480  0.4498  0.3521
  239MOL0     N31466   3.298   6.426   3.828  0.2490  0.1355 -0.1910
  239MOL0     N31467   3.377   6.394   3.923  0.4583 -0.0632  0.6084
  239MOL0     C31468   3.509   5.208   4.018  0.5476  0.8025 -0.4375
  239MOL0     C31469   3.560   5.071   4.012 -0.3743  0.1338 -0.2609
  239MOL0     C31470   3.805   4.694   4.005  0.0261 -0.6160  0.5493
  239MOL0     C31471   3.943   4.717   4.002 -0.1107  0.3330 -0.9377
  239MOL0     C31472   4.035   4.625   3.982 -0.1830  0.2822  0.4004
  239MOL0     C31473   3.993   4.497   3.956  0.7472  0.4832 -0.4527
  239MOL0     O31474   4.081   4.404   3.921 -0.9756  0.5742  0.5359
  239MOL0     C31475   4.223   4.414   3.945  0.7093  0.1100  0.4638
  239MOL0     C31476   4.256   4.399   4.097 -0.2152 -0.7555  0.0429
  239MOL0     C31477   4.240   4.251   4.138  0.0259 -0.4609 -0.4405
  239MOL0     C31478   4.259   4.231   4.284 -1.1290  0.0402  0.0906
  239MOL0     C31479   4.180   4.119   4.339  0.3853 -0.2801  0.7051
  239MOL0     C31480   4.104   4.031   4.384 -0.2092  0.0708 -1.4482
  239MOL0     C31481   3.858   4.464   3.962  0.7395 -0.3117  0.0933
  239MOL0     C31482   3.763   4.561   3.978  0.1096  0.0438 -0.0457
  239MOL0     H31483   3.886   5.138   4.107  0.0818  0.4044  1.2392
  239MOL0     H31484   3.789   5.365   4.140 -1.7058  0.7282  0.2079
  239MOL0     H31485   3.451   5.418   4.232  2.9161  4.0521  0.6533
  239MOL0     H31486   3.357   5.425   4.084  0.2871  0.3220  0.2843
  239MOL0     H31487   3.541   5.664   4.148 -1.0756  1.3390  0.6500
  239MOL0     H31488   3.413   5.624   4.262 -1.3323 -1.4130 -0.6238
  239MOL0     H31489   3.244   5.622   4.069 -0.8048  2.1529  0.4839
  239MOL0     H31490   3.370   5.635   3.965  1.7537 -2.1327  1.5262
  239MOL0     H31491   3.245   5.878   4.009 -0.3575 -0.5640  0.7969
  239MOL0     H31492   3.332   5.867   4.163  1.0015  1.7185  0.2685
  239MOL0     H31493   3.468   5.848   3.888 -0.9888  2.4192 -0.9560
  239MOL0     H31494   3.548   5.851   4.042  1.6280  4.5429  0.1300
  239MOL0     H31495   3.455   6.080   4.095  0.9644  2.2720 -0.3329
  239MOL0     H31496   3.377   6.070   3.936  0.9815  2.3969  0.1950
  239MOL0     H31497   3.678   6.059   3.965  0.7019 -0.4632  0.7418
  239MOL0     H31498   3.578   6.087   3.818  0.3756  1.2329  0.7300
  239MOL0     H31499   3.679   6.302   3.921 -0.9133  0.1652 -2.5380
  239MOL0     H31500   3.566   6.278   4.050 -0.6619  1.2414  0.2359
  239MOL0     H31501   3.512   6.264   3.646  1.9215  0.7149  0.3291
  239MOL0     H31502   3.284   6.305   3.525  0.9081 -0.5135  0.8236
  239MOL0     H31503   3.324   6.488   3.528  0.7911  0.5242  2.5387
  239MOL0     H31504   3.128   6.541   3.649 -1.6204 -0.2777  1.5295
  239MOL0     H31505   3.087   6.375   3.670 -1.3393  1.4921 -0.4421
  239MOL0     H31506   3.075   6.550   3.420  0.1485  0.3792  0.2618
  239MOL0     H31507   3.077   6.383   3.391  2.8489 -0.1371  1.6907
  239MOL0     H31508   2.852   6.506   3.416 -3.2006 -0.3612  1.8200
  239MOL0     H31509   2.885   6.539   3.581  2.0299  0.2258  0.1089
  239MOL0     H31510   2.644   6.534   3.534  1.0853  0.0256 -1.6256
  239MOL0     H31511   2.414   6.488   3.504  0.3709  1.2503 -0.2654
  239MOL0     H31512   2.049   6.230   3.351 -1.3667 -1.5138  0.1774
  239MOL0     H31513   1.803   6.254   3.383 -1.0499 -3.8303  2.7378
  239MOL0     H31514   1.650   6.590   3.568  2.2528 -1.8505  0.3709
  239MOL0     H31515   1.621   6.473   3.705  0.0538 -2.6166  0.0780
  239MOL0     H31516   1.422   6.370   3.548 -1.5758  0.0155 -0.2035
  239MOL0     H31517   1.449   6.524   3.458 -2.0074 -1.7530 -0.7630
  239MOL0     H31518   1.260   6.529   3.590 -0.7727  2.4493 -1.0922
  239MOL0     H31519   1.368   6.651   3.641  1.3900 -1.4311  0.7359
  239MOL0     H31520   1.359   6.387   3.789 -1.4200  1.0399 -3.8423
  239MOL0     H31521   1.452   6.533   3.830  0.8988 -0.0086  0.5361
  239MOL0     H31522   1.214   6.645   3.843 -3.1252 -0.5248  1.2786
  239MOL0     H31523   1.264   6.527   3.968  0.4419 -1.1687 -0.6075
  239MOL0     H31524   1.138   6.353   3.837  0.0956 -0.3392  0.1492
  239MOL0     H31525   1.072   6.485   3.736 -0.4999  1.1804  0.4823
  239MOL0     H31526   0.967   6.412   3.983  0.5688  0.6412  0.0453
  239MOL0     H31527   1.056   6.555   4.020  0.2746 -0.0712  0.7777
  239MOL0     H31528   0.824   6.617   3.960 -0.8261 -1.4870  0.7979
  239MOL0     H31529   0.835   6.553   3.799  2.3480 -1.3749  0.6040
  239MOL0     H31530   1.848   6.533   3.693 -1.5722 -0.7184 -0.5856
  239MOL0     H31531   2.092   6.471   3.704 -3.6814 -1.6570  3.1984
  239MOL0     H31532   2.510   6.061   3.482 -0.2942 -1.1057  0.5174
  239MOL0     H31533   2.732   6.100   3.481  1.9405  1.9582  0.6059
  239MOL0     H31534   3.411   5.226   3.976  0.2210 -1.6065 -0.8579
  239MOL0     H31535   3.488   4.998   3.977  0.4570  0.0399 -1.8511
  239MOL0     H31536   3.978   4.820   4.010 -0.6887  0.6955 -2.6335
  239MOL0     H31537   4.141   4.649   3.983  0.0450 -0.6908  1.7682
  239MOL0     H31538   4.267   4.508   3.911 -0.4992  0.8870  0.9715
  239MOL0     H31539   4.271   4.329   3.895 -1.2563 -1.0133  0.3644
  239MOL0     H31540   4.351   4.447   4.124 -2.2514  2.3071  2.4814
  239MOL0     H31541   4.179   4.460   4.146 -0.5123  2.5225 -3.9704
  239MOL0     H31542   4.309   4.180   4.092  1.7262  0.6249  0.3245
  239MOL0     H31543   4.137   4.227   4.108 -0.4954  1.0029  0.1155
  239MOL0     H31544   4.361   4.217   4.323 -0.8728  1.4001 -0.0293
  239MOL0     H31545   4.232   4.320   4.341 -1.6779 -1.5310  2.4346
  239MOL0     H31546   4.041   3.949   4.409 -0.5086  0.9909  1.1615
  239MOL0     H31547   3.825   4.360   3.956 -0.5629  0.1437 -1.0118
  239MOL0     H31548   3.661   4.529   3.959 -0.6500  1.7205  1.0173
  240MOL0     O31549   3.547   5.916   7.044  1.3174 -0.2089 -0.0837
  240MOL0     C31550   3.613   5.832   7.106  0.0656 -0.0381 -0.1977
  240MOL0     O31551   3.575   5.785   7.230 -0.4074  0.2152 -0.6379
  240MOL0     C31552   3.451   5.804   7.278 -0.1347  0.5397 -0.6240
  240MOL0     C31553   3.443   5.812   7.424  0.7005  0.1917  0.8252
  240MOL0     C31554   3.326   5.853   7.488  0.9792 -0.2569  0.2759
  240MOL0     C31555   3.210   5.880   7.420  0.6726  0.2260 -0.4548
  240MOL0     O31556   3.101   5.927   7.494 -0.4310 -1.0695 -0.1687
  240MOL0     C31557   2.989   5.983   7.434 -0.5760 -0.1835  0.3766
  240MOL0     C31558   2.891   6.016   7.546 -0.4779  0.1442  0.0970
  240MOL0     C31559   2.910   6.161   7.605  0.3625 -0.4087  0.0858
  240MOL0     C31560   3.050   6.196   7.636 -0.3101 -0.5724  0.0663
  240MOL0     C31561   3.057   6.331   7.717  0.1935  0.7720  0.1447
  240MOL0     C31562   3.021   6.461   7.655 -0.8671 -0.2656  0.0496
  240MOL0     C31563   3.070   6.571   7.750  0.3735  0.0122  0.4866
  240MOL0     C31564   3.020   6.703   7.702  0.3220 -0.3623 -0.9695
  240MOL0     N31565   3.071   6.834   7.769 -0.1493  0.3781  0.9924
  240MOL0     C31566   3.165   6.923   7.710  0.0330  0.5270  0.4820
  240MOL0     C31567   3.185   7.017   7.799  0.7208 -0.6411  0.7122
  240MOL0     C31568   3.296   7.120   7.771 -0.1089  0.2307  0.1136
  240MOL0     C31569   3.447   7.072   7.782 -0.6301  0.3777  0.7991
  240MOL0     C31570   3.481   7.004   7.915  0.3420 -0.1333  0.0246
  240MOL0     C31571   3.472   7.111   8.027 -0.5721  0.2556 -0.9857
  240MOL0     O31572   3.580   7.206   7.999  0.2663 -0.2258 -0.5108
  240MOL0     C31573   3.691   7.219   8.089 -0.2903  0.4999 -0.4306
  240MOL0     C31574   3.770   7.333   8.086 -0.2149  0.4229  0.2582
  240MOL0     C31575   3.896   7.349   8.141  0.3917 -0.5072 -0.4801
  240MOL0     C31576   3.940   7.242   8.221 -0.5661  0.2617 -0.5453
  240MOL0     C31577   4.069   7.277   8.296  0.3769 -0.2512  0.4299
  240MOL0     O31578   4.124   7.398   8.267  0.1338  1.2803 -0.2652
  240MOL0     C31579   4.233   7.435   8.350 -0.1093  0.7880 -0.7181
  240MOL0     C31580   4.232   7.424   8.493  0.0507 -0.6311  1.0857
  240MOL0     C31581   4.331   7.477   8.566 -0.1299 -0.1133 -0.2560
  240MOL0     C31582   4.451   7.527   8.509 -0.4061 -0.3222  1.3889
  240MOL0     O31583   4.548   7.582   8.586 -0.7430 -0.1836 -0.3943
  240MOL0     C31584   4.666   7.642   8.530  0.5325 -0.4742  0.4599
  240MOL0     C31585   4.638   7.781   8.468 -0.4741  0.4757 -0.0082
  240MOL0     C31586   4.576   7.870   8.581 -0.4006 -0.5553 -0.0154
  240MOL0     C31587   4.544   8.018   8.537 -0.9395 -0.1002 -0.2088
  240MOL0     C31588   4.421   8.022   8.447 -0.0234  0.8770 -0.8710
  240MOL0     C31589   4.370   8.169   8.429 -0.5418  0.3967  1.4217
  240MOL0     C31590   4.284   8.180   8.299 -0.1736 -0.0132  0.4898
  240MOL0     C31591   4.256   8.323   8.247  0.2260  1.1523  0.4486
  240MOL0    Cl31592   4.165   8.295   8.097 -0.1092 -0.1303 -0.2678
  240MOL0     C31593   4.450   7.531   8.371 -1.0097  1.1184  0.8076
  240MOL0     C31594   4.348   7.482   8.292 -0.8907 -0.6945  0.0787
  240MOL0     O31595   4.115   7.192   8.369  0.1657  0.7340 -0.0817
  240MOL0     C31596   3.866   7.119   8.226 -0.1904  0.8885 -0.0468
  240MOL0     C31597   3.742   7.110   8.157 -0.0024  0.0901 -0.1683
  240MOL0     N31598   3.124   6.988   7.918 -0.3212 -0.4542 -1.1231
  240MOL0     N31599   3.054   6.882   7.897  0.0580 -0.0812 -0.3176
  240MOL0     C31600   3.207   5.858   7.281 -0.1817 -0.7516  0.4787
  240MOL0     C31601   3.331   5.823   7.219 -0.0547 -0.7379 -0.1451
  240MOL0     C31602   3.735   5.780   7.046 -0.3256 -0.1981 -0.9317
  240MOL0     C31603   3.790   5.848   6.942 -0.7754 -0.2682  0.8355
  240MOL0     C31604   3.901   5.806   6.866 -0.4429 -0.6145 -0.6041
  240MOL0     C31605   3.957   5.680   6.894  0.5345 -0.4716  0.0761
  240MOL0     O31606   4.060   5.621   6.819  0.6546  0.2968 -0.2814
  240MOL0     C31607   4.056   5.636   6.682  0.1748  0.3630  0.6943
  240MOL0     C31608   4.162   5.736   6.645  0.4924 -0.4409 -0.2934
  240MOL0     C31609   4.129   5.771   6.498 -0.3027  0.0504 -0.2011
  240MOL0     C31610   4.229   5.868   6.444  0.4625  0.5085  0.2426
  240MOL0     C31611   4.370   5.825   6.425  0.1128  0.8662 -0.0249
  240MOL0     C31612   4.488   5.791   6.407 -0.2202  0.6530  0.0766
  240MOL0     C31613   3.920   5.623   7.018  0.6177 -0.4449  0.0224
  240MOL0     C31614   3.813   5.677   7.095 -0.5065 -0.1030  0.6889
  240MOL0     H31615   3.532   5.792   7.483  0.3403  1.2149  1.7236
  240MOL0     H31616   3.332   5.883   7.593 -0.3714 -0.5698  0.4553
  240MOL0     H31617   2.947   5.912   7.363  0.8470 -1.1840  0.4953
  240MOL0     H31618   3.033   6.069   7.383  0.0033 -0.4990  0.3347
  240MOL0     H31619   2.905   5.939   7.622  1.4039  0.1006 -0.2439
  240MOL0     H31620   2.787   6.007   7.513 -0.7852 -2.3305  1.4884
  240MOL0     H31621   2.846   6.164   7.694 -1.1852 -1.0905 -0.9464
  240MOL0     H31622   2.858   6.240   7.551  1.5416  2.9167  3.3424
  240MOL0     H31623   3.088   6.117   7.701 -0.9118  0.7593  2.1431
  240MOL0     H31624   3.104   6.203   7.541  1.2611 -2.8774  0.7071
  240MOL0     H31625   3.163   6.330   7.746  0.9197  2.7380 -2.0540
  240MOL0     H31626   3.003   6.336   7.812  2.5286  3.8542  1.5230
  240MOL0     H31627   2.912   6.459   7.648 -1.0012  3.6245 -2.7943
  240MOL0     H31628   3.059   6.480   7.554  0.5761  1.9127  0.9187
  240MOL0     H31629   3.029   6.547   7.848  0.8166 -0.1565  0.6303
  240MOL0     H31630   3.179   6.577   7.749  0.4116 -0.5005 -1.2063
  240MOL0     H31631   2.912   6.708   7.721  0.5543  1.1635  0.1204
  240MOL0     H31632   3.037   6.704   7.594  0.4947 -4.7183 -1.1632
  240MOL0     H31633   3.207   6.897   7.614 -2.4960  0.6203 -0.7159
  240MOL0     H31634   3.281   7.208   7.834  0.3483  1.6610 -1.6993
  240MOL0     H31635   3.283   7.159   7.670 -1.2567  0.4014  0.3109
  240MOL0     H31636   3.512   7.158   7.764  1.9416 -1.8650 -1.4736
  240MOL0     H31637   3.467   6.999   7.703  3.4033 -2.5289  4.1271
  240MOL0     H31638   3.409   6.924   7.935 -0.9180  1.0856  0.5622
  240MOL0     H31639   3.585   6.972   7.913  0.7822  1.0144  1.7465
  240MOL0     H31640   3.482   7.063   8.125 -2.7195 -1.3693 -1.4813
  240MOL0     H31641   3.377   7.164   8.025  0.1475  1.6017 -0.4501
  240MOL0     H31642   3.732   7.417   8.028 -0.0806 -0.1520 -0.6965
  240MOL0     H31643   3.953   7.437   8.112 -1.7626  0.6289 -1.5907
  240MOL0     H31644   4.143   7.383   8.540 -1.4067 -1.6778 -2.3068
  240MOL0     H31645   4.321   7.488   8.674  0.4468  0.3118 -0.2395
  240MOL0     H31646   4.710   7.567   8.463  0.5756  1.8366 -2.3313
  240MOL0     H31647   4.728   7.666   8.617  0.8220  1.8418 -0.2953
  240MOL0     H31648   4.574   7.777   8.380  0.8521  0.4639 -0.9983
  240MOL0     H31649   4.728   7.834   8.434  0.8354 -2.9075 -2.3859
  240MOL0     H31650   4.666   7.880   8.643  1.5015 -0.1586 -2.6760
  240MOL0     H31651   4.503   7.822   8.647 -1.0084 -1.0494 -1.0252
  240MOL0     H31652   4.530   8.071   8.631  3.3826  0.2446  0.4685
  240MOL0     H31653   4.631   8.065   8.488 -1.5078  4.2037  2.3827
  240MOL0     H31654   4.335   7.958   8.468 -3.4688  3.7376 -4.5327
  240MOL0     H31655   4.450   7.992   8.346  0.9218  1.6438 -0.8522
  240MOL0     H31656   4.458   8.234   8.425  0.7845 -1.3296  1.3515
  240MOL0     H31657   4.304   8.202   8.510 -2.0346  0.8028  0.0899
  240MOL0     H31658   4.333   8.118   8.224  0.3187 -1.1138  1.6725
  240MOL0     H31659   4.190   8.129   8.323  1.1748 -1.4280  3.1780
  240MOL0     H31660   4.347   8.382   8.232  0.7019  0.0948 -1.0972
  240MOL0     H31661   4.193   8.375   8.320 -0.8177  0.3107  0.1865
  240MOL0     H31662   4.540   7.548   8.313 -0.1346 -3.2224  0.5977
  240MOL0     H31663   4.359   7.475   8.185 -0.8248 -0.9132  0.0996
  240MOL0     H31664   3.900   7.045   8.297  1.5710  2.4405  0.7909
  240MOL0     H31665   3.685   7.019   8.169  1.3421 -1.0484 -1.8930
  240MOL0     H31666   3.118   5.887   7.227 -0.6339 -2.5588  0.1920
  240MOL0     H31667   3.334   5.817   7.111  1.6668 -3.7554 -0.0459
  240MOL0     H31668   3.765   5.953   6.929  0.9538  0.1847  0.9714
  240MOL0     H31669   3.941   5.887   6.805  0.8123  0.3035  1.3189
  240MOL0     H31670   3.959   5.665   6.642 -0.0579 -0.7801  0.4104
  240MOL0     H31671   4.071   5.542   6.630 -1.8109 -1.1763  2.6985
  240MOL0     H31672   4.156   5.829   6.703  1.3899 -1.4516  1.4794
  240MOL0     H31673   4.262   5.692   6.656  0.7212 -0.1965 -1.2333
  240MOL0     H31674   4.029   5.815   6.491  0.4694  2.9215  3.5825
  240MOL0     H31675   4.144   5.679   6.441  3.3151 -0.3282  1.1063
  240MOL0     H31676   4.187   5.888   6.345 -1.6464 -0.1630  0.9622
  240MOL0     H31677   4.220   5.960   6.504  0.6564  1.1645 -0.7098
  240MOL0     H31678   4.592   5.768   6.417 -0.4718  0.3733  2.9507
  240MOL0     H31679   3.975   5.537   7.055  0.5621 -0.1606  0.7990
  240MOL0     H31680   3.774   5.622   7.180  0.5813 -1.6172  0.2577
  241MOL0     O31681   6.925  10.224   9.234 -0.5262  0.4761  0.0859
  241MOL0     C31682   6.873  10.340   9.250 -0.5807  0.0541 -0.8043
  241MOL0     O31683   6.941  10.455   9.282 -0.2541  0.6151 -0.4524
  241MOL0     C31684   7.077  10.442   9.303 -0.9556  0.5805 -0.5482
  241MOL0     C31685   7.143  10.422   9.422 -0.3326  0.5683  0.5631
  241MOL0     C31686   7.278  10.385   9.431 -0.9355 -0.7752 -0.0945
  241MOL0     C31687   7.365  10.384   9.320  0.0795  0.6556 -0.1180
  241MOL0     O31688   7.495  10.339   9.314  0.4848  1.0287  0.1993
  241MOL0     C31689   7.564  10.385   9.433 -0.2898 -0.0248  0.0094
  241MOL0     C31690   7.710  10.375   9.407  0.2428 -0.8705 -0.6163
  241MOL0     C31691   7.782  10.389   9.543  0.3865  0.2597 -0.2893
  241MOL0     C31692   7.932  10.384   9.518 -0.6862  0.4060  0.9340
  241MOL0     C31693   8.004  10.408   9.655 -0.0342 -0.9617 -0.6094
  241MOL0     C31694   8.151  10.380   9.657  0.0231  0.8638  0.9133
  241MOL0     C31695   8.214  10.420   9.787 -0.7563 -0.1976  0.1882
  241MOL0     C31696   8.360  10.360   9.788  0.1909 -0.0399 -0.0857
  241MOL0     N31697   8.447  10.425   9.884 -0.4473 -0.5220  0.1705
  241MOL0     C31698   8.405  10.466  10.009  0.1080  0.0619 -0.3293
  241MOL0     C31699   8.514  10.535  10.058 -0.8780  1.0119  0.0028
  241MOL0     C31700   8.519  10.609  10.189  0.4643  0.0270  0.6868
  241MOL0     C31701   8.426  10.729  10.203  0.1913  0.6170 -0.4861
  241MOL0     C31702   8.481  10.855  10.132 -0.1966  0.8075 -0.4325
  241MOL0     C31703   8.558  10.932  10.244 -0.2899  0.3727  0.1000
  241MOL0     O31704   8.621  11.034  10.166  0.4351 -0.4900 -0.1624
  241MOL0     C31705   8.748  11.007  10.124 -0.3791 -0.0147 -0.3283
  241MOL0     C31706   8.823  11.112  10.069  0.0420  0.3581  1.3640
  241MOL0     C31707   8.951  11.092  10.012  0.1479 -0.6788  0.1560
  241MOL0     C31708   9.009  10.968  10.009  0.9669  0.9449 -0.3593
  241MOL0     C31709   9.136  10.937   9.949 -0.1911  0.5272  1.1680
  241MOL0     O31710   9.211  10.838  10.000 -0.0182  0.3188 -0.4217
  241MOL0     C31711   9.344  10.822   9.954  0.4375 -0.3423 -0.6999
  241MOL0     C31712   9.369  10.793   9.822 -0.6073  0.2601 -0.0721
  241MOL0     C31713   9.491  10.765   9.769 -0.4159  0.0474 -0.5582
  241MOL0     C31714   9.608  10.791   9.860  0.3106 -0.0451  0.0055
  241MOL0     O31715   9.735  10.778   9.816 -0.7867 -0.0176 -0.4370
  241MOL0     C31716   9.776  10.679   9.711 -1.2219  0.3496 -0.3082
  241MOL0     C31717   9.926  10.696   9.672  0.2114  0.4317 -0.2291
  241MOL0     C31718   9.953  10.833   9.607 -0.2381 -1.5306  0.5243
  241MOL0     C31719  10.107  10.839   9.570 -0.7289 -0.5120  0.0489
  241MOL0     C31720  10.143  10.954   9.472  0.6880  1.0474 -0.3283
  241MOL0     C31721  10.290  10.991   9.493 -0.1012 -0.2509  0.0441
  241MOL0     C31722  10.339  11.098   9.385  0.5413  0.5254 -0.0219
  241MOL0     C31723  10.456  11.169   9.434 -0.5184  0.4075  0.3144
  241MOL0    Cl31724  10.404  11.253   9.578 -0.0175  0.5060  0.3640
  241MOL0     C31725   9.581  10.812   9.995  0.5860 -0.2292  0.1891
  241MOL0     C31726   9.455  10.821  10.039  0.0782 -0.4196 -0.4814
  241MOL0     O31727   9.179  11.013   9.869 -0.2431 -0.0601 -0.0488
  241MOL0     C31728   8.940  10.862  10.072 -0.1818 -0.0670  0.3791
  241MOL0     C31729   8.815  10.881  10.120  0.4846  0.4474 -0.4657
  241MOL0     N31730   8.612  10.528   9.968 -1.4258  0.3217  0.5519
  241MOL0     N31731   8.571  10.466   9.866  0.0392  0.0636  0.2046
  241MOL0     C31732   7.300  10.387   9.196  0.2742  0.6815  0.5226
  241MOL0     C31733   7.162  10.420   9.188 -0.4244  0.0008 -0.4948
  241MOL0     C31734   6.729  10.348   9.233  0.3242 -0.5518  0.8001
  241MOL0     C31735   6.642  10.239   9.206  0.0185  0.6953  0.7851
  241MOL0     C31736   6.502  10.256   9.199 -0.6446  0.4824  1.2742
  241MOL0     C31737   6.443  10.375   9.222  0.1360  0.4874 -0.6003
  241MOL0     O31738   6.311  10.396   9.197  0.9932 -0.5008  0.1353
  241MOL0     C31739   6.237  10.397   9.321 -0.1000  0.3805 -0.0889
  241MOL0     C31740   6.101  10.439   9.302 -0.7578  0.0625 -0.1117
  241MOL0     C31741   6.018  10.431   9.424  0.2072  0.2426 -1.0196
  241MOL0     C31742   5.953  10.567   9.462  0.4571 -0.1045 -0.3534
  241MOL0     C31743   6.044  10.673   9.512 -0.3504  0.1902 -0.2979
  241MOL0     C31744   6.118  10.755   9.552  0.4766  0.5505 -0.6934
  241MOL0     C31745   6.527  10.482   9.250 -0.1635  0.2206  1.2935
  241MOL0     C31746   6.664  10.471   9.255 -0.1089 -0.2005  0.4074
  241MOL0     H31747   7.081  10.437   9.510 -2.6589  4.8891 -1.4575
  241MOL0     H31748   7.311  10.361   9.531  1.5820  5.0044  0.8972
  241MOL0     H31749   7.529  10.334   9.523  1.4812 -1.1031  0.1155
  241MOL0     H31750   7.552  10.492   9.452  2.5965  0.5156 -0.8276
  241MOL0     H31751   7.749  10.451   9.338  1.7871 -0.8336  0.2536
  241MOL0     H31752   7.729  10.272   9.373  4.4366  0.4052 -2.8166
  241MOL0     H31753   7.754  10.303   9.604  2.1443 -2.3201 -2.8337
  241MOL0     H31754   7.753  10.483   9.591  1.9889  1.4205 -1.5131
  241MOL0     H31755   7.963  10.286   9.480 -2.1720  0.9022 -1.8075
  241MOL0     H31756   7.967  10.455   9.442 -0.7343  0.2648  0.7804
  241MOL0     H31757   7.952  10.374   9.745  3.4111  1.5008  2.6167
  241MOL0     H31758   7.998  10.516   9.673 -0.6498 -1.0278 -0.3801
  241MOL0     H31759   8.191  10.453   9.586 -0.3068  0.6516  0.5066
  241MOL0     H31760   8.159  10.272   9.640 -0.7846  0.8755  0.4335
  241MOL0     H31761   8.215  10.528   9.803  1.1649 -0.6837  5.5010
  241MOL0     H31762   8.156  10.379   9.870  1.3653 -0.3680  1.6785
  241MOL0     H31763   8.401  10.358   9.686  1.0413 -3.4640  0.1874
  241MOL0     H31764   8.357  10.259   9.829 -0.6326  0.6306  1.5970
  241MOL0     H31765   8.304  10.452  10.046  0.5067 -2.3257  0.0283
  241MOL0     H31766   8.619  10.645  10.215 -0.2720  1.7480  1.2303
  241MOL0     H31767   8.493  10.537  10.268 -0.3621 -0.2299  0.1955
  241MOL0     H31768   8.412  10.751  10.310 -1.5649 -2.4035  0.0268
  241MOL0     H31769   8.333  10.695  10.158 -1.1172  2.5106  0.6234
  241MOL0     H31770   8.550  10.825  10.053  1.8531  0.1402  1.5192
  241MOL0     H31771   8.395  10.911  10.095 -0.0746  0.5010 -1.1943
  241MOL0     H31772   8.630  10.876  10.304 -0.9039 -0.9404 -0.3538
  241MOL0     H31773   8.482  10.967  10.315 -0.5311  0.0373  0.0071
  241MOL0     H31774   8.783  11.212  10.072  0.4679  0.6456 -0.6622
  241MOL0     H31775   8.996  11.172   9.953  2.4277 -1.7923  0.2475
  241MOL0     H31776   9.275  10.771   9.771 -1.5722 -0.0050  1.7287
  241MOL0     H31777   9.489  10.737   9.664 -0.5896  0.7567 -0.7478
  241MOL0     H31778   9.726  10.696   9.615 -1.9543  0.1434  0.0284
  241MOL0     H31779   9.760  10.580   9.753 -2.1221  1.4582  2.1887
  241MOL0     H31780   9.938  10.622   9.592 -2.5786  0.6921 -0.9873
  241MOL0     H31781   9.992  10.671   9.755  0.1547  0.5315 -0.1541
  241MOL0     H31782   9.922  10.909   9.679  2.0852 -0.7322  0.7594
  241MOL0     H31783   9.889  10.853   9.520 -2.4182  0.6517  2.4871
  241MOL0     H31784  10.157  10.855   9.665 -2.1102 -2.1773  1.1237
  241MOL0     H31785  10.161  10.752   9.532  0.0599  0.5329 -1.3320
  241MOL0     H31786  10.088  11.048   9.478 -1.6081 -0.1879 -0.8261
  241MOL0     H31787  10.140  10.920   9.368  1.9916  2.0476 -0.7277
  241MOL0     H31788  10.359  10.908   9.474 -0.9565 -1.4785  1.9615
  241MOL0     H31789  10.296  11.028   9.595 -1.8240  1.8973 -0.5527
  241MOL0     H31790  10.372  11.040   9.298  0.4545 -0.9522  0.8856
  241MOL0     H31791  10.259  11.167   9.359  0.6157  1.0435  1.0573
  241MOL0     H31792  10.480  11.237   9.352 -0.0696  1.6805  1.4623
  241MOL0     H31793  10.543  11.108   9.459 -0.7525  0.6138  1.6976
  241MOL0     H31794   9.671  10.827  10.055  0.3550  0.4806  0.3699
  241MOL0     H31795   9.430  10.850  10.141 -1.1095 -0.8351 -0.6416
  241MOL0     H31796   8.981  10.762  10.068 -2.0042 -0.9008 -4.6083
  241MOL0     H31797   8.777  10.792  10.171  2.1445  1.0065  1.8851
  241MOL0     H31798   7.348  10.371   9.100  0.7992  2.3864  0.4703
  241MOL0     H31799   7.111  10.432   9.093 -2.4652 -0.5436  0.4789
  241MOL0     H31800   6.683  10.138   9.203 -2.2573 -0.2575 -0.7803
  241MOL0     H31801   6.437  10.174   9.172  1.6563 -0.3946 -2.3537
  241MOL0     H31802   6.284  10.472   9.386  0.2306 -0.9037  1.2170
  241MOL0     H31803   6.249  10.304   9.377 -0.8750 -0.5392 -1.3971
  241MOL0     H31804   6.105  10.542   9.265  1.8388  0.2292  0.4664
  241MOL0     H31805   6.059  10.375   9.223  2.5997  1.1842 -3.0687
  241MOL0     H31806   6.084  10.401   9.506  1.1523  0.3572 -1.7210
  241MOL0     H31807   5.932  10.363   9.423  0.0808  0.2544  1.7065
  241MOL0     H31808   5.894  10.597   9.375 -1.5270 -0.8892  0.6774
  241MOL0     H31809   5.877  10.550   9.538 -0.2256 -0.3542 -1.0863
  241MOL0     H31810   6.201  10.816   9.582 -0.8302  1.3557  1.6585
  241MOL0     H31811   6.478  10.577   9.269 -1.8030 -0.5885  1.3097
  241MOL0     H31812   6.731  10.555   9.273 -1.3292  0.8091  0.3142
  242MOL0     O31813   0.795   1.432   8.232 -0.0427  0.2114 -0.0393
  242MOL0     C31814   0.849   1.544   8.237  0.7502 -0.2439  0.2747
  242MOL0     O31815   0.771   1.659   8.237  0.4278 -0.2107  0.3620
  242MOL0     C31816   0.643   1.636   8.291  0.1176 -0.2497 -0.5380
  242MOL0     C31817   0.610   1.575   8.414  0.4211 -0.5256  0.7162
  242MOL0     C31818   0.480   1.546   8.442  0.1257  0.3766  0.2706
  242MOL0     C31819   0.378   1.578   8.353 -0.1325  0.2133  0.3571
  242MOL0     O31820   0.248   1.541   8.380 -0.4544 -0.5923  0.2869
  242MOL0     C31821   0.135   1.633   8.356 -0.0638 -0.1997 -0.0374
  242MOL0     C31822   0.017   1.559   8.427 -0.7820  1.1306  0.2260
  242MOL0     C31823  -0.102   1.658   8.438  0.6164  0.4078  0.0372
  242MOL0     C31824  -0.213   1.589   8.525  0.2200 -0.1922  0.6585
  242MOL0     C31825  -0.338   1.691   8.545 -0.6987  0.4394 -0.1544
  242MOL0     C31826  -0.443   1.616   8.625  0.8232  0.5334 -0.1064
  242MOL0     C31827  -0.555   1.709   8.667  0.5517 -0.8331  1.1138
  242MOL0     C31828  -0.626   1.775   8.541  0.2387 -0.2843 -0.2459
  242MOL0     N31829  -0.758   1.818   8.589  0.2091  0.1122 -0.0842
  242MOL0     C31830  -0.878   1.750   8.581  0.4203 -0.3449 -0.2097
  242MOL0     C31831  -0.974   1.832   8.630 -0.4224 -0.1093  0.4998
  242MOL0     C31832  -1.114   1.803   8.667  0.5994  0.7610  0.8430
  242MOL0     C31833  -1.131   1.668   8.745 -1.3597  0.5150 -0.7386
  242MOL0     C31834  -1.271   1.618   8.759  0.5469  0.1605 -0.4301
  242MOL0     C31835  -1.364   1.719   8.816 -0.7296 -0.5463  0.2237
  242MOL0     O31836  -1.487   1.660   8.844  0.2005 -0.5739  0.1642
  242MOL0     C31837  -1.589   1.744   8.860  0.4570 -0.3797  0.1241
  242MOL0     C31838  -1.708   1.692   8.821  0.4191 -0.3030  0.8622
  242MOL0     C31839  -1.830   1.746   8.858 -0.3242 -0.4938 -0.0411
  242MOL0     C31840  -1.832   1.874   8.918  0.6451 -0.3901 -0.6931
  242MOL0     C31841  -1.967   1.939   8.959 -1.1026 -0.4542 -0.8602
  242MOL0     O31842  -2.080   1.855   8.972  0.1171 -0.1547  0.0002
  242MOL0     C31843  -2.215   1.899   8.991 -0.8039 -0.3370  0.4486
  242MOL0     C31844  -2.251   2.034   8.989  0.5283 -0.5258  0.7752
  242MOL0     C31845  -2.378   2.075   9.028 -0.3674  1.1257  0.3026
  242MOL0     C31846  -2.474   1.982   9.067  0.1002 -0.3712 -0.6317
  242MOL0     O31847  -2.606   2.013   9.085  0.8692  0.0976 -0.0590
  242MOL0     C31848  -2.627   2.124   9.175 -0.2473  0.9431  0.5090
  242MOL0     C31849  -2.783   2.127   9.188 -0.6708 -0.4268  0.2595
  242MOL0     C31850  -2.848   2.235   9.092 -0.1816 -0.2645 -0.6296
  242MOL0     C31851  -2.998   2.229   9.111  0.8744  0.4110 -0.7402
  242MOL0     C31852  -3.091   2.315   9.029  0.4154 -0.0428  0.0154
  242MOL0     C31853  -3.234   2.268   9.044 -0.1467  0.1710 -0.4364
  242MOL0     C31854  -3.344   2.352   8.971  0.2718 -0.5414  0.6241
  242MOL0     C31855  -3.359   2.293   8.830  0.4378  0.0738 -1.3255
  242MOL0    Cl31856  -3.516   2.353   8.769  0.0965 -0.0186 -0.0665
  242MOL0     C31857  -2.430   1.846   9.070 -0.2202 -0.5150 -0.3112
  242MOL0     C31858  -2.307   1.809   9.027  0.2316  0.4506 -0.0266
  242MOL0     O31859  -1.967   2.063   8.946  0.1918  0.0614 -0.2209
  242MOL0     C31860  -1.710   1.931   8.943  0.3956 -0.5659  0.0218
  242MOL0     C31861  -1.587   1.861   8.926 -0.8158 -0.9097  1.0288
  242MOL0     N31862  -0.913   1.945   8.664 -0.3419 -0.0506  0.5375
  242MOL0     N31863  -0.787   1.943   8.623 -0.6609  0.6563  0.3679
  242MOL0     C31864   0.404   1.654   8.238 -0.1544  0.8094  0.0449
  242MOL0     C31865   0.539   1.683   8.211  0.2751  0.3889 -0.8505
  242MOL0     C31866   0.998   1.553   8.194 -0.1159 -0.1791 -0.1393
  242MOL0     C31867   1.078   1.441   8.177 -0.0847  0.1094  0.5962
  242MOL0     C31868   1.210   1.447   8.138 -0.3046 -0.3285  1.3752
  242MOL0     C31869   1.270   1.576   8.108  0.3241 -0.8691 -0.5618
  242MOL0     O31870   1.401   1.607   8.072 -0.9383 -0.7132  0.2640
  242MOL0     C31871   1.488   1.485   8.058  0.0036 -0.2294 -0.1295
  242MOL0     C31872   1.635   1.532   8.051  0.9665 -0.8087  1.3476
  242MOL0     C31873   1.723   1.440   7.963 -0.3198 -0.1833 -0.2189
  242MOL0     C31874   1.870   1.499   7.976  0.9242 -0.2218 -0.7288
  242MOL0     C31875   1.965   1.396   7.959 -0.6753 -0.7335  0.6316
  242MOL0     C31876   2.052   1.312   7.941 -0.3238  0.3289  1.0437
  242MOL0     C31877   1.192   1.691   8.128 -1.2243  0.6356  0.5776
  242MOL0     C31878   1.057   1.680   8.164  0.3163  0.5186  0.4293
  242MOL0     H31879   0.694   1.548   8.477  0.3975 -1.7273  0.2673
  242MOL0     H31880   0.448   1.494   8.531 -1.8444  2.3269  0.7835
  242MOL0     H31881   0.107   1.655   8.253 -1.3979 -3.1271 -0.3840
  242MOL0     H31882   0.150   1.719   8.422  1.6658 -0.6508  0.2104
  242MOL0     H31883   0.048   1.508   8.518 -2.3315 -2.0619 -0.9111
  242MOL0     H31884  -0.003   1.474   8.361 -1.3032 -0.8392  2.7695
  242MOL0     H31885  -0.144   1.681   8.340 -0.1629  3.4744  0.9781
  242MOL0     H31886  -0.071   1.757   8.472  1.1184  0.6853 -1.1727
  242MOL0     H31887  -0.252   1.497   8.480  2.1658 -0.9628  0.4327
  242MOL0     H31888  -0.168   1.559   8.620 -0.0098 -1.8234  0.2831
  242MOL0     H31889  -0.372   1.728   8.448  0.5614 -1.3018 -1.3248
  242MOL0     H31890  -0.309   1.787   8.589 -2.2805  0.7689  0.2386
  242MOL0     H31891  -0.399   1.573   8.716  0.9144  2.2130  0.6822
  242MOL0     H31892  -0.481   1.535   8.562 -0.3660  0.4961  0.6295
  242MOL0     H31893  -0.628   1.644   8.716 -1.7034  1.4781  1.0412
  242MOL0     H31894  -0.525   1.786   8.739 -0.9047 -0.2800  1.1522
  242MOL0     H31895  -0.633   1.710   8.453  1.3300  1.7384 -1.9178
  242MOL0     H31896  -0.567   1.860   8.505 -0.1872  0.6035  1.1162
  242MOL0     H31897  -0.895   1.646   8.557 -0.4975 -0.4186  0.7131
  242MOL0     H31898  -1.165   1.807   8.570  2.3987 -1.6658 -0.3187
  242MOL0     H31899  -1.161   1.884   8.723  1.2037  1.1175  0.8375
  242MOL0     H31900  -1.084   1.688   8.842  1.0466 -2.1115 -1.2347
  242MOL0     H31901  -1.067   1.589   8.705 -0.2518  1.1784 -0.3072
  242MOL0     H31902  -1.307   1.578   8.663 -0.8200  0.2828  0.0028
  242MOL0     H31903  -1.272   1.532   8.826  1.8560  0.7999  0.4494
  242MOL0     H31904  -1.372   1.811   8.757 -1.2395  0.6901  2.1433
  242MOL0     H31905  -1.315   1.758   8.906  1.0323 -1.0245 -0.4942
  242MOL0     H31906  -1.712   1.596   8.772 -1.7433 -0.1141  0.5666
  242MOL0     H31907  -1.923   1.700   8.826 -0.9833  0.2807  0.7254
  242MOL0     H31908  -2.185   2.114   8.959 -1.2863  0.5617 -0.5778
  242MOL0     H31909  -2.406   2.179   9.039 -2.4679  0.5994  0.3893
  242MOL0     H31910  -2.580   2.215   9.136  3.8525 -0.8801  0.7204
  242MOL0     H31911  -2.583   2.111   9.274 -0.6799 -2.7046  0.3490
  242MOL0     H31912  -2.820   2.133   9.291 -1.8434  2.6999 -0.2437
  242MOL0     H31913  -2.827   2.033   9.152 -1.2581 -0.4149  0.9273
  242MOL0     H31914  -2.819   2.204   8.991  1.1529 -2.4802  0.3569
  242MOL0     H31915  -2.819   2.335   9.123 -0.1379  0.3196 -2.4279
  242MOL0     H31916  -3.024   2.125   9.089 -3.2864  1.8605 -4.2917
  242MOL0     H31917  -3.015   2.247   9.217  0.0458 -0.3620 -0.7274
  242MOL0     H31918  -3.065   2.316   8.922 -2.2595 -4.4398 -0.9378
  242MOL0     H31919  -3.090   2.416   9.071 -0.8811  2.5905 -5.3946
  242MOL0     H31920  -3.256   2.277   9.151  2.4635  1.3411  0.0991
  242MOL0     H31921  -3.229   2.162   9.016  1.6861 -0.3748  1.6192
  242MOL0     H31922  -3.443   2.342   9.016  0.7300 -0.8153  1.5802
  242MOL0     H31923  -3.313   2.455   8.954  0.4464 -0.5047  1.1722
  242MOL0     H31924  -3.358   2.184   8.831  0.5911 -0.0467  2.7555
  242MOL0     H31925  -3.281   2.331   8.763  0.0845  1.6807 -0.8770
  242MOL0     H31926  -2.501   1.771   9.103  0.9865 -0.4993  2.6628
  242MOL0     H31927  -2.279   1.704   9.024 -1.3200 -0.0867  2.0641
  242MOL0     H31928  -1.712   2.022   9.003 -0.5351  0.3516 -1.3339
  242MOL0     H31929  -1.491   1.902   8.955 -0.4877 -3.1159  3.3836
  242MOL0     H31930   0.327   1.696   8.175  1.5839  1.7810 -1.5518
  242MOL0     H31931   0.550   1.744   8.122 -1.4696 -0.1845 -1.4922
  242MOL0     H31932   1.035   1.343   8.196  0.9317  0.2156  4.2913
  242MOL0     H31933   1.265   1.354   8.129 -1.2801 -0.7210 -1.3074
  242MOL0     H31934   1.457   1.421   7.975 -0.1454 -1.0122  0.5195
  242MOL0     H31935   1.473   1.426   8.149 -0.5324  1.1846  0.7435
  242MOL0     H31936   1.652   1.629   8.002  1.2786 -1.2676  0.5302
  242MOL0     H31937   1.664   1.534   8.156 -2.7131  2.5438  2.5683
  242MOL0     H31938   1.689   1.454   7.860 -0.4253 -0.5155 -0.2285
  242MOL0     H31939   1.705   1.337   7.994 -0.4660 -0.1461 -0.1799
  242MOL0     H31940   1.892   1.583   7.910  0.7761  1.7672  1.5759
  242MOL0     H31941   1.875   1.525   8.082 -0.8332 -0.7017 -0.4904
  242MOL0     H31942   2.124   1.233   7.930  0.1067  0.9421 -0.8281
  242MOL0     H31943   1.230   1.792   8.117 -1.4740  0.7457  0.7070
  242MOL0     H31944   1.006   1.775   8.178 -1.7428 -0.4799  0.0620
  243MOL0     O31945   0.749   2.635   0.184 -1.1435 -0.8235  0.0796
  243MOL0     C31946   0.849   2.568   0.187 -1.3478  0.1330 -0.5883
  243MOL0     O31947   0.864   2.443   0.135  0.3776 -0.3044 -0.0202
  243MOL0     C31948   0.765   2.378   0.071 -0.6701 -0.1146 -0.7217
  243MOL0     C31949   0.749   2.394  -0.067  0.4101 -0.8398 -0.8116
  243MOL0     C31950   0.653   2.316  -0.139 -0.9033 -1.1152 -0.4750
  243MOL0     C31951   0.570   2.225  -0.080  0.1773 -0.2413 -1.1069
  243MOL0     O31952   0.469   2.145  -0.123  0.3611 -0.5913  0.9909
  243MOL0     C31953   0.403   2.193  -0.244 -0.1299  0.1884 -0.4009
  243MOL0     C31954   0.275   2.124  -0.269 -1.1886 -0.6618  0.8632
  243MOL0     C31955   0.159   2.174  -0.183 -0.5732  0.4139  0.3138
  243MOL0     C31956   0.030   2.110  -0.228 -0.0041 -0.8097  0.1290
  243MOL0     C31957  -0.070   2.077  -0.118 -0.2596 -0.6334  0.1302
  243MOL0     C31958  -0.141   2.195  -0.075  0.0856 -0.2035  0.0812
  243MOL0     C31959  -0.240   2.146   0.041  0.5818  0.2374  0.5275
  243MOL0     C31960  -0.326   2.266   0.081  0.7667 -0.1791  0.0005
  243MOL0     N31961  -0.427   2.223   0.178 -0.2330 -0.6379  0.0038
  243MOL0     C31962  -0.404   2.213   0.313 -0.6402 -0.0143  1.0064
  243MOL0     C31963  -0.513   2.152   0.364 -0.2516 -0.7976 -0.0450
  243MOL0     C31964  -0.548   2.125   0.508  0.5826  0.9418  0.1771
  243MOL0     C31965  -0.682   2.188   0.559 -0.7412 -0.4512  0.1980
  243MOL0     C31966  -0.699   2.341   0.537 -0.6004 -0.0305  0.1516
  243MOL0     C31967  -0.836   2.380   0.590  0.1029  0.1431  0.1141
  243MOL0     O31968  -0.828   2.389   0.738 -0.2763 -0.6422 -0.0914
  243MOL0     C31969  -0.945   2.349   0.804 -0.5809  0.3742  0.0789
  243MOL0     C31970  -1.036   2.445   0.835 -0.1225 -0.3487  0.5267
  243MOL0     C31971  -1.160   2.410   0.887 -0.0014  0.3316 -0.2333
  243MOL0     C31972  -1.194   2.281   0.931 -0.0963 -0.3406  1.0632
  243MOL0     C31973  -1.317   2.251   1.011 -0.1747  0.0821 -1.0793
  243MOL0     O31974  -1.420   2.338   0.991 -0.1029 -0.0691 -0.2766
  243MOL0     C31975  -1.536   2.307   1.053  0.1900 -0.0954  0.3169
  243MOL0     C31976  -1.613   2.415   1.101 -0.6568 -0.3078  0.0616
  243MOL0     C31977  -1.742   2.396   1.168 -0.4611  1.1102 -0.4896
  243MOL0     C31978  -1.785   2.267   1.189  0.6462 -0.2698  0.7808
  243MOL0     O31979  -1.904   2.241   1.237 -0.6178  0.1941 -0.0494
  243MOL0     C31980  -2.014   2.311   1.182 -0.1766 -0.2141 -0.1323
  243MOL0     C31981  -2.127   2.232   1.144  0.4691  0.1881  0.2359
  243MOL0     C31982  -2.082   2.135   1.033 -0.1059 -0.5339  0.5038
  243MOL0     C31983  -2.202   2.096   0.949 -0.2700  0.4824 -0.3543
  243MOL0     C31984  -2.216   2.205   0.845  0.2741  0.1913 -0.1111
  243MOL0     C31985  -2.318   2.169   0.726 -0.0247 -0.7114 -0.0393
  243MOL0     C31986  -2.334   2.287   0.629  0.2215 -0.5277 -0.0241
  243MOL0     C31987  -2.449   2.259   0.531 -0.2618 -0.4504 -0.2666
  243MOL0    Cl31988  -2.605   2.289   0.623 -0.3678 -0.0614 -0.1457
  243MOL0     C31989  -1.711   2.160   1.144  0.1141 -0.4855 -0.1667
  243MOL0     C31990  -1.600   2.179   1.058 -0.0250  0.2441 -0.3270
  243MOL0     O31991  -1.311   2.153   1.085  0.9728 -0.1193 -0.6874
  243MOL0     C31992  -1.093   2.182   0.900  0.3066  0.1609 -1.0932
  243MOL0     C31993  -0.970   2.212   0.833  0.5800 -0.2627  0.9130
  243MOL0     N31994  -0.596   2.122   0.266 -0.2135  0.9115  0.0830
  243MOL0     N31995  -0.547   2.169   0.150  0.5880 -0.5660 -0.2763
  243MOL0     C31996   0.592   2.215   0.055 -0.1677  0.5088 -0.2893
  243MOL0     C31997   0.685   2.287   0.130 -0.0909 -0.4349  0.3394
  243MOL0     C31998   0.980   2.629   0.246  0.0109  0.7747 -0.7047
  243MOL0     C31999   1.105   2.558   0.234  0.6498  0.2675  0.0322
  243MOL0     C32000   1.215   2.622   0.284 -0.7195 -0.4208 -0.2949
  243MOL0     C32001   1.203   2.745   0.349 -0.1484 -0.5233  0.4911
  243MOL0     O32002   1.313   2.805   0.398 -0.5309 -0.0236  0.0837
  243MOL0     C32003   1.360   2.940   0.351  0.7611 -0.7730 -0.7699
  243MOL0     C32004   1.444   2.912   0.225  0.3783  0.5466 -0.0799
  243MOL0     C32005   1.462   3.036   0.133 -0.5444 -0.3382 -0.5446
  243MOL0     C32006   1.601   3.110   0.135  0.2957  0.4214 -0.4696
  243MOL0     C32007   1.628   3.141   0.276  0.4858 -0.1506  0.4276
  243MOL0     C32008   1.649   3.170   0.393  0.2865 -1.1476  0.4403
  243MOL0     C32009   1.081   2.802   0.375  0.5448 -0.2318 -0.1165
  243MOL0     C32010   0.965   2.745   0.314 -0.1775  0.0237 -0.8867
  243MOL0     H32011   0.815   2.456  -0.127  0.5043 -0.1677 -0.0305
  243MOL0     H32012   0.650   2.309  -0.247 -1.2091  1.9179 -0.7547
  243MOL0     H32013   0.476   2.174  -0.324  2.1929  0.7467  1.4531
  243MOL0     H32014   0.384   2.300  -0.232  2.0076  0.2996  3.7203
  243MOL0     H32015   0.292   2.016  -0.269 -0.4402 -0.5445  1.4199
  243MOL0     H32016   0.253   2.147  -0.374  1.5377  2.6116  0.8411
  243MOL0     H32017   0.145   2.282  -0.182 -1.6617  0.2896  0.2976
  243MOL0     H32018   0.190   2.132  -0.087  2.2485 -0.7977 -1.0104
  243MOL0     H32019  -0.023   2.172  -0.301  0.7916  1.4761  1.3855
  243MOL0     H32020   0.056   2.014  -0.273  1.4338 -1.3293  1.9227
  243MOL0     H32021  -0.017   2.027  -0.036  3.7942 -1.5636 -2.7455
  243MOL0     H32022  -0.141   2.003  -0.156 -0.3009 -0.3319 -0.3876
  243MOL0     H32023  -0.207   2.227  -0.157 -0.1947  0.7452  0.6701
  243MOL0     H32024  -0.071   2.273  -0.046 -0.0039 -0.2173  0.3384
  243MOL0     H32025  -0.299   2.061   0.004  1.2819 -0.7961  1.7208
  243MOL0     H32026  -0.175   2.106   0.119  1.3494  0.8052  0.1835
  243MOL0     H32027  -0.374   2.317  -0.002 -0.4057  2.3297  2.0727
  243MOL0     H32028  -0.255   2.327   0.138 -0.1971 -1.7362  3.0846
  243MOL0     H32029  -0.307   2.235   0.356  1.0881 -0.8908 -2.1436
  243MOL0     H32030  -0.481   2.184   0.572  2.4941  0.7692 -1.5588
  243MOL0     H32031  -0.538   2.021   0.540 -0.3136  1.4878  2.4595
  243MOL0     H32032  -0.678   2.165   0.666 -1.7952  1.3211  0.6615
  243MOL0     H32033  -0.771   2.132   0.530 -0.1981 -0.5415 -1.3962
  243MOL0     H32034  -0.618   2.395   0.589  0.4601  0.5194 -1.9602
  243MOL0     H32035  -0.686   2.358   0.430  0.4402 -0.6756  0.1625
  243MOL0     H32036  -0.918   2.319   0.551  0.9050 -0.2651 -0.9896
  243MOL0     H32037  -0.857   2.484   0.564 -2.1935  0.0190  1.2355
  243MOL0     H32038  -1.005   2.548   0.819 -1.2808 -0.1478 -0.6666
  243MOL0     H32039  -1.218   2.495   0.919 -2.1750 -1.5908  1.2762
  243MOL0     H32040  -1.575   2.511   1.067 -1.2224  0.0722  0.4672
  243MOL0     H32041  -1.798   2.482   1.201  0.1191  1.4815 -0.4583
  243MOL0     H32042  -1.976   2.373   1.100 -1.0468  0.0108 -0.3756
  243MOL0     H32043  -2.049   2.386   1.254  1.6396 -1.5750  2.3439
  243MOL0     H32044  -2.203   2.301   1.108 -0.9096 -1.4222 -0.1028
  243MOL0     H32045  -2.171   2.184   1.233 -1.9257  1.7794  0.0035
  243MOL0     H32046  -2.040   2.043   1.075  1.3446 -1.1563 -2.1073
  243MOL0     H32047  -2.007   2.186   0.972 -0.0558 -2.6870 -1.3840
  243MOL0     H32048  -2.171   2.001   0.905  1.2072  0.4608  0.6636
  243MOL0     H32049  -2.296   2.088   1.005 -0.0285  0.8052  0.1070
  243MOL0     H32050  -2.121   2.224   0.794  0.1666 -0.2690 -0.4976
  243MOL0     H32051  -2.253   2.294   0.896 -2.8805 -2.3113  2.4148
  243MOL0     H32052  -2.417   2.148   0.767  1.1141  0.2941  3.5707
  243MOL0     H32053  -2.283   2.078   0.676 -0.9785 -0.9454 -0.3057
  243MOL0     H32054  -2.372   2.380   0.673  0.5663  1.0494 -2.7980
  243MOL0     H32055  -2.235   2.311   0.588  1.8857 -2.1818  2.7805
  243MOL0     H32056  -2.446   2.157   0.493 -1.8540 -0.0319 -1.5902
  243MOL0     H32057  -2.445   2.331   0.448  2.7760  0.9049  0.9006
  243MOL0     H32058  -1.751   2.061   1.163  2.3596 -1.4843 -0.3201
  243MOL0     H32059  -1.548   2.092   1.019 -1.7488 -2.2644  2.4954
  243MOL0     H32060  -1.105   2.077   0.926 -0.7632 -0.4272 -3.6704
  243MOL0     H32061  -0.894   2.144   0.796 -0.4687 -0.4917 -0.9448
  243MOL0     H32062   0.538   2.141   0.113 -0.3438 -1.1128 -2.3927
  243MOL0     H32063   0.691   2.264   0.236 -0.5638 -2.2496  0.0087
  243MOL0     H32064   1.117   2.458   0.192  1.1346  1.5122 -3.0429
  243MOL0     H32065   1.313   2.579   0.266 -1.2410 -1.2219 -1.3152
  243MOL0     H32066   1.422   2.981   0.431 -3.2596  3.4017  0.6241
  243MOL0     H32067   1.274   3.002   0.325  1.1591 -0.4253 -1.2909
  243MOL0     H32068   1.531   2.847   0.238 -0.7868 -1.2653 -0.9424
  243MOL0     H32069   1.385   2.841   0.167  3.1792 -2.8974  0.9903
  243MOL0     H32070   1.388   3.113   0.156 -0.9110 -0.2502 -1.9734
  243MOL0     H32071   1.445   3.000   0.032 -2.7093  0.8059 -0.6470
  243MOL0     H32072   1.675   3.037   0.103 -1.4997 -1.9809  0.5504
  243MOL0     H32073   1.609   3.199   0.071  0.6424  1.1640  0.5807
  243MOL0     H32074   1.678   3.208   0.489 -0.7533  1.3850 -0.1911
  243MOL0     H32075   1.067   2.885   0.442 -2.5992 -0.9255  0.2439
  243MOL0     H32076   0.865   2.776   0.342 -0.4384 -2.5554  1.5210
  244MOL0     O32077   2.084   9.650   3.277 -0.5461 -0.6188 -0.7651
  244MOL0     C32078   2.004   9.687   3.194  1.0792 -0.3994 -0.4897
  244MOL0     O32079   2.033   9.717   3.071  0.4847  0.2710  0.0221
  244MOL0     C32080   2.165   9.679   3.033  0.5590 -0.6413  0.3518
  244MOL0     C32081   2.269   9.764   3.053  0.4137  0.7260  0.5481
  244MOL0     C32082   2.391   9.736   2.989  0.4056  0.0260 -0.1738
  244MOL0     C32083   2.412   9.612   2.919 -0.1522  0.0146 -0.4618
  244MOL0     O32084   2.537   9.592   2.864 -0.0508  0.6485 -0.4398
  244MOL0     C32085   2.655   9.608   2.946  0.5578  0.8068 -0.3603
  244MOL0     C32086   2.743   9.733   2.905 -0.2049 -0.0702  0.4219
  244MOL0     C32087   2.807   9.723   2.763  0.0080  0.9665  1.7555
  244MOL0     C32088   2.909   9.834   2.744 -0.4624  0.1795  0.5866
  244MOL0     C32089   2.987   9.803   2.615  0.0808 -0.2129  0.4107
  244MOL0     C32090   3.082   9.923   2.596 -0.2548  0.7005  0.4770
  244MOL0     C32091   3.186   9.881   2.495  0.0136  0.2637 -0.6850
  244MOL0     C32092   3.299   9.980   2.503  0.2670  0.9026 -0.9445
  244MOL0     N32093   3.265  10.110   2.449 -0.0258 -0.1819 -0.1134
  244MOL0     C32094   3.232  10.137   2.321  0.1255 -0.3425 -0.2979
  244MOL0     C32095   3.175  10.255   2.335  0.5143 -0.7217  0.6961
  244MOL0     C32096   3.145  10.350   2.220  0.9393  0.5360  0.0455
  244MOL0     C32097   2.994  10.358   2.192 -0.1115 -0.1748 -0.6600
  244MOL0     C32098   2.972  10.394   2.043 -0.2180 -1.0820  0.1609
  244MOL0     C32099   3.024  10.535   1.994 -0.6050  0.2680 -0.5398
  244MOL0     O32100   2.965  10.626   2.083 -0.6157  0.7125 -0.2893
  244MOL0     C32101   2.829  10.656   2.063 -0.6154 -0.3242 -0.2689
  244MOL0     C32102   2.766  10.716   2.165  0.2639 -0.2732 -0.6914
  244MOL0     C32103   2.628  10.762   2.165  0.6109 -0.5028 -0.3260
  244MOL0     C32104   2.552  10.741   2.056  0.0759 -0.0446 -0.7527
  244MOL0     C32105   2.414  10.780   2.043 -0.6807  0.6366 -0.1048
  244MOL0     O32106   2.378  10.861   2.150  0.3869  0.0216  0.7608
  244MOL0     C32107   2.265  10.934   2.144  0.4716  0.4024 -0.6204
  244MOL0     C32108   2.142  10.864   2.152 -0.4170  0.2007 -0.1217
  244MOL0     C32109   2.026  10.930   2.145 -0.2475  0.3702  0.0169
  244MOL0     C32110   2.014  11.062   2.122 -0.0024  1.6115  0.1482
  244MOL0     O32111   1.893  11.110   2.096  0.0508 -0.8724 -0.4074
  244MOL0     C32112   1.856  11.227   2.171  0.4931  0.2267 -1.0281
  244MOL0     C32113   1.700  11.231   2.186 -0.1824 -0.3838 -0.5501
  244MOL0     C32114   1.635  11.095   2.230  1.4469 -0.2054  0.8158
  244MOL0     C32115   1.484  11.141   2.241 -1.0997 -0.4442  0.0146
  244MOL0     C32116   1.387  11.025   2.250  0.5457  0.1048  0.6369
  244MOL0     C32117   1.248  11.069   2.301  1.1963 -0.2825 -0.0284
  244MOL0     C32118   1.153  11.079   2.175  0.1250  0.1695  0.5597
  244MOL0     C32119   1.008  11.101   2.220 -0.5861 -0.2768 -0.7124
  244MOL0    Cl32120   0.942  11.005   2.352  0.5217  0.3788  0.1730
  244MOL0     C32121   2.137  11.138   2.120 -0.6106 -0.0831 -0.8397
  244MOL0     C32122   2.261  11.071   2.136  0.0219  0.2736 -0.6372
  244MOL0     O32123   2.345  10.749   1.948  0.6186 -0.9213 -0.6229
  244MOL0     C32124   2.611  10.676   1.946 -0.3510 -0.2065 -0.2731
  244MOL0     C32125   2.748  10.644   1.945 -0.0609  0.3199 -0.1074
  244MOL0     N32126   3.182  10.299   2.465 -0.8308 -0.3804  1.1015
  244MOL0     N32127   3.237  10.209   2.530  0.0853 -0.1833 -0.3754
  244MOL0     C32128   2.302   9.520   2.909 -0.7315  0.3398  0.6663
  244MOL0     C32129   2.180   9.562   2.961 -1.1411 -0.3605  0.3034
  244MOL0     C32130   1.859   9.688   3.227 -0.1023 -0.0156  0.6685
  244MOL0     C32131   1.768   9.770   3.155 -0.3021  0.5636  0.6605
  244MOL0     C32132   1.631   9.757   3.169  0.0756  0.0280 -0.4773
  244MOL0     C32133   1.576   9.664   3.266  0.1873 -0.4672  0.4545
  244MOL0     O32134   1.438   9.668   3.280  0.4235  0.4790 -0.0602
  244MOL0     C32135   1.383   9.583   3.385  0.9880  0.7307 -0.1801
  244MOL0     C32136   1.226   9.605   3.404 -0.4474  0.1971  0.0196
  244MOL0     C32137   1.186   9.750   3.427 -0.0437  0.7160 -0.4992
  244MOL0     C32138   1.031   9.772   3.428  0.5412 -0.1703  0.0265
  244MOL0     C32139   0.944   9.663   3.486  0.3380  0.9224 -0.5104
  244MOL0     C32140   0.860   9.585   3.536 -0.1476  0.3021  0.8525
  244MOL0     C32141   1.664   9.598   3.345 -0.4126  0.7949 -0.3871
  244MOL0     C32142   1.803   9.600   3.321  0.1732 -0.2927 -0.6412
  244MOL0     H32143   2.260   9.864   3.093 -0.1901 -0.2333  3.0179
  244MOL0     H32144   2.468   9.810   3.005  0.0070  0.4527 -0.2106
  244MOL0     H32145   2.716   9.518   2.931 -4.5949 -3.3938  0.5400
  244MOL0     H32146   2.621   9.610   3.050 -1.0022 -0.6787 -0.7784
  244MOL0     H32147   2.823   9.760   2.975 -0.7774  3.8572 -0.2221
  244MOL0     H32148   2.683   9.825   2.898 -1.6532 -0.9720  0.5883
  244MOL0     H32149   2.732   9.725   2.683 -0.9413  1.3004  2.6386
  244MOL0     H32150   2.855   9.625   2.755 -1.1373  0.5353 -0.6478
  244MOL0     H32151   2.865   9.934   2.746 -2.0757 -0.5087  1.6088
  244MOL0     H32152   2.983   9.835   2.824 -1.1728  3.2691  1.3360
  244MOL0     H32153   2.913   9.817   2.535  2.0546  4.0282 -0.9841
  244MOL0     H32154   3.037   9.706   2.619  3.1046  1.2136  0.2586
  244MOL0     H32155   3.134   9.942   2.690 -0.9400  0.4328  0.9150
  244MOL0     H32156   3.032  10.013   2.558  1.7379  1.3279 -0.8136
  244MOL0     H32157   3.225   9.779   2.505 -0.4326  0.1647  0.1426
  244MOL0     H32158   3.147   9.886   2.393  2.4615  3.2749 -1.6413
  244MOL0     H32159   3.383   9.945   2.442  2.4779  0.2024  2.2531
  244MOL0     H32160   3.339   9.980   2.605 -2.7091 -0.4474  0.3338
  244MOL0     H32161   3.256  10.086   2.228  0.8282 -1.6325  0.5582
  244MOL0     H32162   3.194  10.310   2.131 -3.8087 -1.9014 -1.8481
  244MOL0     H32163   3.186  10.446   2.251  0.6719  0.3381  1.0575
  244MOL0     H32164   2.947  10.418   2.271 -0.8569 -0.6086 -0.7685
  244MOL0     H32165   2.954  10.257   2.205 -0.0094  0.0563  2.1342
  244MOL0     H32166   3.021  10.325   1.974  0.4632  0.7378 -1.2750
  244MOL0     H32167   2.865  10.395   2.022 -0.6429  0.4079  2.0738
  244MOL0     H32168   2.994  10.552   1.890 -3.0124  1.0696  0.2085
  244MOL0     H32169   3.133  10.527   1.993 -0.7408 -3.1738  0.1625
  244MOL0     H32170   2.819  10.738   2.258  0.4117  1.1342 -1.0786
  244MOL0     H32171   2.590  10.808   2.255  2.1381 -0.4945  0.3497
  244MOL0     H32172   2.158  10.758   2.168  0.7033  0.1679 -1.2708
  244MOL0     H32173   1.926  10.890   2.144 -1.2050  2.5183  1.7906
  244MOL0     H32174   1.892  11.316   2.117 -0.0915  1.0230 -0.1237
  244MOL0     H32175   1.916  11.223   2.262  1.7147  1.6605 -1.7261
  244MOL0     H32176   1.651  11.255   2.091 -2.9175  0.1592  0.8979
  244MOL0     H32177   1.675  11.311   2.256  0.5205 -0.5222 -0.1319
  244MOL0     H32178   1.670  11.053   2.324  3.7907 -1.8856 -0.7051
  244MOL0     H32179   1.648  11.023   2.149  0.3228  0.5613 -0.0901
  244MOL0     H32180   1.475  11.188   2.340  3.2374  1.1451 -0.1298
  244MOL0     H32181   1.460  11.224   2.174 -0.5019  0.0009  0.3411
  244MOL0     H32182   1.423  10.954   2.324 -0.2615 -0.2220  0.7206
  244MOL0     H32183   1.397  10.975   2.153 -2.2581  2.3614 -0.9919
  244MOL0     H32184   1.259  11.164   2.354  0.1677  0.1156 -0.5080
  244MOL0     H32185   1.200  10.998   2.368  2.0306 -1.5330 -0.7163
  244MOL0     H32186   1.188  11.162   2.113  0.6659 -0.3580  0.1510
  244MOL0     H32187   1.165  10.991   2.112 -0.3489 -0.5849  1.4952
  244MOL0     H32188   0.947  11.089   2.130  0.2001 -0.9712 -1.1664
  244MOL0     H32189   0.994  11.204   2.254  0.2430 -0.1533 -0.7332
  244MOL0     H32190   2.137  11.243   2.091  0.0395  0.5642  1.3534
  244MOL0     H32191   2.355  11.124   2.129 -0.7207  1.8507  0.6469
  244MOL0     H32192   2.570  10.655   1.848  1.5838  1.0594 -1.4331
  244MOL0     H32193   2.771  10.601   1.848  0.3256  0.7410 -0.2058
  244MOL0     H32194   2.314   9.424   2.860 -0.8348  0.5614  0.2013
  244MOL0     H32195   2.094   9.496   2.961 -0.9524 -0.6782 -2.0748
  244MOL0     H32196   1.812   9.840   3.084  2.0692 -3.2636 -2.0800
  244MOL0     H32197   1.554   9.803   3.108 -0.8675  0.7868  1.2335
  244MOL0     H32198   1.439   9.595   3.478  0.8412 -0.4194  0.0745
  244MOL0     H32199   1.400   9.481   3.349 -0.4489  0.4374 -0.0801
  244MOL0     H32200   1.188   9.576   3.306 -0.4781  0.7404 -0.1339
  244MOL0     H32201   1.198   9.525   3.474  0.2530 -1.3640 -1.4253
  244MOL0     H32202   1.235   9.806   3.347 -0.3793  0.0578 -1.1737
  244MOL0     H32203   1.209   9.782   3.529 -3.4968  2.9619 -0.2266
  244MOL0     H32204   1.009   9.871   3.469 -0.5536  0.6457 -2.3747
  244MOL0     H32205   0.998   9.771   3.324  2.1523 -0.6945 -0.5016
  244MOL0     H32206   0.791   9.513   3.576  0.3950 -0.7830 -0.1093
  244MOL0     H32207   1.617   9.536   3.420 -1.1910  0.3372 -1.2414
  244MOL0     H32208   1.873   9.553   3.389  0.5692  2.5085  1.0441
  245MOL0     O32209   6.178  10.503   6.238 -0.2466  0.2124  1.0025
  245MOL0     C32210   6.101  10.412   6.214  0.1778 -0.3183 -0.4896
  245MOL0     O32211   5.968  10.421   6.220  0.3029 -0.0273 -0.8214
  245MOL0     C32212   5.905  10.527   6.281 -0.5407 -0.3622 -0.2201
  245MOL0     C32213   5.823  10.504   6.392 -0.1834  0.0584  0.7038
  245MOL0     C32214   5.739  10.604   6.439  0.2332 -0.4607  0.3347
  245MOL0     C32215   5.743  10.735   6.394 -0.7358  0.8883 -0.2075
  245MOL0     O32216   5.677  10.852   6.440 -0.0189 -0.0075 -0.0765
  245MOL0     C32217   5.582  10.834   6.552 -0.3645 -0.1893 -0.3539
  245MOL0     C32218   5.516  10.958   6.579 -0.1920  0.1468  0.7507
  245MOL0     C32219   5.615  11.076   6.601 -0.5067 -0.5614  0.1192
  245MOL0     C32220   5.542  11.200   6.605 -0.0418 -0.1948  0.2902
  245MOL0     C32221   5.623  11.334   6.624 -0.4466 -0.5455 -1.0987
  245MOL0     C32222   5.684  11.379   6.491 -0.0902 -0.5560  0.8077
  245MOL0     C32223   5.820  11.330   6.459 -0.5751 -0.2954  0.4795
  245MOL0     C32224   5.926  11.389   6.555 -0.1401  0.0952  0.6098
  245MOL0     N32225   6.059  11.362   6.495  0.3901 -0.4242  0.6628
  245MOL0     C32226   6.146  11.280   6.559 -0.7704  0.1483  0.7520
  245MOL0     C32227   6.267  11.314   6.502 -0.6148  0.6458 -0.4193
  245MOL0     C32228   6.406  11.267   6.527 -0.6137  0.6851  0.5830
  245MOL0     C32229   6.422  11.109   6.506  0.0075 -0.4668 -0.2259
  245MOL0     C32230   6.572  11.075   6.502 -0.0662  0.0810  0.2480
  245MOL0     C32231   6.610  10.938   6.549  0.5571 -1.0131  1.1120
  245MOL0     O32232   6.519  10.846   6.506 -0.4046 -0.3334  0.4525
  245MOL0     C32233   6.543  10.713   6.524  0.1867  0.9745  1.4388
  245MOL0     C32234   6.655  10.656   6.587  1.0600  0.3419  0.3552
  245MOL0     C32235   6.660  10.515   6.596  0.6208 -0.2079 -0.0398
  245MOL0     C32236   6.554  10.436   6.543 -0.4749 -0.3737 -0.9389
  245MOL0     C32237   6.568  10.292   6.543 -0.6153  1.4205  0.3265
  245MOL0     O32238   6.685  10.247   6.529 -0.2599 -0.0507 -1.4048
  245MOL0     C32239   6.699  10.113   6.501 -0.6947  0.7120 -0.1769
  245MOL0     C32240   6.699  10.022   6.606  0.5075 -0.3913  0.7607
  245MOL0     C32241   6.728   9.888   6.589  0.0342  0.0802 -0.9520
  245MOL0     C32242   6.762   9.837   6.466 -0.1762  0.1305  0.4562
  245MOL0     O32243   6.801   9.703   6.449  0.0272 -0.7449 -0.9833
  245MOL0     C32244   6.869   9.663   6.333 -0.7431  0.8264  0.5077
  245MOL0     C32245   6.923   9.519   6.341 -0.0176 -0.8658  0.4331
  245MOL0     C32246   7.043   9.513   6.431 -0.1889  0.2296 -0.5050
  245MOL0     C32247   7.091   9.369   6.442 -0.3981  0.2155  0.0120
  245MOL0     C32248   7.229   9.352   6.512 -0.2689  0.6089  0.7237
  245MOL0     C32249   7.259   9.437   6.631 -0.4079 -0.3309  0.4674
  245MOL0     C32250   7.187   9.389   6.757  0.6473  0.1207 -0.0885
  245MOL0     C32251   7.227   9.258   6.816 -0.3980  0.1986 -0.2537
  245MOL0    Cl32252   7.411   9.239   6.829  0.7450 -0.1178 -0.2310
  245MOL0     C32253   6.756   9.923   6.359  1.2435 -0.6257 -0.1426
  245MOL0     C32254   6.724  10.064   6.375 -0.3339  0.6094 -0.3484
  245MOL0     O32255   6.465  10.233   6.572  0.2410  0.1567  0.0142
  245MOL0     C32256   6.443  10.496   6.482  0.5471  0.3608 -0.7307
  245MOL0     C32257   6.438  10.635   6.469 -0.3355 -0.1860 -0.0242
  245MOL0     N32258   6.240  11.394   6.397  0.2912 -0.5586 -0.3118
  245MOL0     N32259   6.112  11.427   6.391  0.0900  0.2955  1.0581
  245MOL0     C32260   5.816  10.749   6.273  0.0817 -0.9453  0.2259
  245MOL0     C32261   5.888  10.647   6.216  0.6876 -0.4896  0.0394
  245MOL0     C32262   6.158  10.283   6.173  0.2269 -0.1123 -1.1250
  245MOL0     C32263   6.286  10.281   6.113 -0.5492 -0.8649  0.9549
  245MOL0     C32264   6.355  10.158   6.077  0.5614  0.6771  1.3700
  245MOL0     C32265   6.275  10.040   6.086  0.2158  0.3980 -0.9360
  245MOL0     O32266   6.322   9.925   6.027  1.0812 -0.4308 -0.3489
  245MOL0     C32267   6.456   9.915   5.985 -0.6613  0.5930  0.0199
  245MOL0     C32268   6.506   9.764   5.976  0.1582  0.1803  0.4595
  245MOL0     C32269   6.497   9.718   5.829  0.2386  0.0632 -0.6468
  245MOL0     C32270   6.505   9.567   5.806 -0.4572 -0.1189 -1.3024
  245MOL0     C32271   6.647   9.529   5.834  0.2829  0.3228 -0.6702
  245MOL0     C32272   6.766   9.495   5.843  0.9119 -0.5524  0.0023
  245MOL0     C32273   6.156  10.037   6.157  0.1707 -0.1149  0.3699
  245MOL0     C32274   6.096  10.162   6.202 -0.6601  0.7891 -0.0765
  245MOL0     H32275   5.822  10.414   6.452  0.1093 -1.1845 -1.0665
  245MOL0     H32276   5.678  10.595   6.529  0.5625  3.4188  1.1270
  245MOL0     H32277   5.629  10.799   6.644  2.9569 -1.6956 -2.4361
  245MOL0     H32278   5.504  10.759   6.534  0.4874 -1.0003 -0.7434
  245MOL0     H32279   5.442  10.948   6.660 -1.7904  2.2871 -0.3715
  245MOL0     H32280   5.444  10.978   6.499 -0.1460 -2.0446  0.0866
  245MOL0     H32281   5.692  11.082   6.523  1.3696  0.2212  1.9541
  245MOL0     H32282   5.666  11.057   6.696  1.0484  0.2118 -0.5291
  245MOL0     H32283   5.465  11.204   6.528  0.7075 -2.4844 -0.6387
  245MOL0     H32284   5.485  11.192   6.699 -1.7338 -0.5346 -0.7215
  245MOL0     H32285   5.695  11.329   6.706 -3.0040 -5.7069  1.3211
  245MOL0     H32286   5.550  11.414   6.641  0.3942  0.8961 -3.6527
  245MOL0     H32287   5.691  11.488   6.493  1.2595 -0.6269  1.0819
  245MOL0     H32288   5.621  11.347   6.408  1.7253 -1.1977 -0.3892
  245MOL0     H32289   5.835  11.222   6.452  1.8830  0.0494 -0.5630
  245MOL0     H32290   5.828  11.377   6.361 -1.5183 -0.2988  0.3922
  245MOL0     H32291   5.925  11.362   6.661 -0.3886 -0.8277  0.3771
  245MOL0     H32292   5.900  11.495   6.552  0.3918  0.2545  1.2531
  245MOL0     H32293   6.141  11.212   6.643  3.6882 -0.5059  0.7767
  245MOL0     H32294   6.433  11.297   6.628 -0.8482 -4.3848  2.4409
  245MOL0     H32295   6.477  11.309   6.455 -0.2271 -0.2930  0.3724
  245MOL0     H32296   6.373  11.081   6.412 -1.1529  2.0940 -0.4501
  245MOL0     H32297   6.373  11.066   6.594  1.7431  2.1667  2.1926
  245MOL0     H32298   6.606  11.067   6.398 -1.5930  1.2606 -0.3776
  245MOL0     H32299   6.622  11.148   6.566  0.3516  0.6920 -0.7382
  245MOL0     H32300   6.597  10.934   6.657 -0.6924  0.9599  1.0821
  245MOL0     H32301   6.713  10.931   6.514 -0.6663  2.2691 -4.3093
  245MOL0     H32302   6.736  10.723   6.613  1.0893  0.1823  0.6716
  245MOL0     H32303   6.740  10.460   6.644 -1.2480 -3.4113 -0.3552
  245MOL0     H32304   6.672  10.066   6.702 -0.7770  1.6020 -0.4458
  245MOL0     H32305   6.732   9.820   6.674 -1.5611  1.1858  0.0545
  245MOL0     H32306   6.953   9.732   6.316  0.1344  0.3209  2.4370
  245MOL0     H32307   6.793   9.663   6.255  0.9663  0.3923 -1.2280
  245MOL0     H32308   6.947   9.471   6.245  1.8603 -2.3379  1.5537
  245MOL0     H32309   6.842   9.461   6.385 -0.5550 -2.9859 -2.9876
  245MOL0     H32310   7.026   9.549   6.532 -2.3398 -0.7693 -0.4661
  245MOL0     H32311   7.123   9.567   6.378 -1.3892 -0.2621 -2.9846
  245MOL0     H32312   7.016   9.317   6.503 -1.8640 -0.2510 -2.0848
  245MOL0     H32313   7.091   9.324   6.343 -1.4387 -1.8248  0.8802
  245MOL0     H32314   7.310   9.370   6.441 -2.3266 -0.5258 -2.1109
  245MOL0     H32315   7.248   9.252   6.551  3.5708  1.7661  2.2247
  245MOL0     H32316   7.239   9.542   6.606  0.7121 -0.1482  0.3196
  245MOL0     H32317   7.366   9.425   6.646 -0.1729 -1.1052 -1.5581
  245MOL0     H32318   7.205   9.460   6.838  1.2704  1.4821 -1.3656
  245MOL0     H32319   7.080   9.401   6.742  0.6644  0.4271  0.0216
  245MOL0     H32320   7.198   9.175   6.752 -0.2916  1.3235 -1.8095
  245MOL0     H32321   7.184   9.267   6.917  1.3502 -0.6671  0.6205
  245MOL0     H32322   6.769   9.880   6.261  0.0087 -0.4981 -0.3839
  245MOL0     H32323   6.729  10.121   6.282  1.5996 -0.8240 -1.1944
  245MOL0     H32324   6.366  10.434   6.436 -1.0611  1.1617  0.7545
  245MOL0     H32325   6.356  10.692   6.428 -0.8437 -1.8603 -1.4480
  245MOL0     H32326   5.835  10.849   6.237  2.9040 -0.7422  1.9640
  245MOL0     H32327   5.938  10.655   6.120  0.6281  0.0782  0.0520
  245MOL0     H32328   6.336  10.375   6.091 -3.9618  0.7279 -0.8354
  245MOL0     H32329   6.456  10.154   6.037  0.5539  1.0017  1.3168
  245MOL0     H32330   6.523   9.971   6.051  1.9282  2.3735 -3.7524
  245MOL0     H32331   6.454   9.948   5.880  0.8483 -0.8963 -0.5112
  245MOL0     H32332   6.610   9.764   6.007  0.2112  1.4288  0.3359
  245MOL0     H32333   6.450   9.684   6.026 -0.3476 -0.7062 -1.4289
  245MOL0     H32334   6.574   9.765   5.768  1.2001 -1.5080 -0.6932
  245MOL0     H32335   6.394   9.746   5.804  0.0664  0.2692  0.2509
  245MOL0     H32336   6.438   9.510   5.871 -3.1168 -0.8667 -4.4055
  245MOL0     H32337   6.478   9.542   5.702  1.4033 -0.2929 -1.7765
  245MOL0     H32338   6.862   9.462   5.876  0.9633 -0.2689  0.1362
  245MOL0     H32339   6.112   9.941   6.179  0.0120  0.1154  1.0847
  245MOL0     H32340   6.008  10.168   6.265  0.4466 -2.2170  1.9736
  246MOL0     O32341  10.062   4.847   1.025 -0.1741 -0.1799  0.4697
  246MOL0     C32342  10.098   4.888   0.915 -0.7850  0.2844 -0.6832
  246MOL0     O32343  10.223   4.920   0.868 -0.5745 -0.0232  0.5475
  246MOL0     C32344  10.329   4.907   0.946 -0.4028 -0.8945 -0.1152
  246MOL0     C32345  10.346   4.983   1.063 -1.0175  1.0765 -0.0197
  246MOL0     C32346  10.467   4.975   1.132 -0.9665  0.3393 -1.0062
  246MOL0     C32347  10.570   4.895   1.093  0.2887 -0.3324  0.4550
  246MOL0     O32348  10.687   4.902   1.154 -0.8782  0.0300 -0.0276
  246MOL0     C32349  10.755   5.029   1.174  2.2960  0.7282 -0.1889
  246MOL0     C32350  10.897   5.004   1.173  0.2298 -0.7341 -0.7427
  246MOL0     C32351  10.972   4.957   1.041 -1.1026  0.1913 -0.2543
  246MOL0     C32352  10.997   4.808   1.050 -0.9562  0.4213 -0.6427
  246MOL0     C32353  11.140   4.770   1.059  0.3315  0.2213  0.3648
  246MOL0     C32354  11.202   4.831   1.184 -0.6202  0.2044 -0.5711
  246MOL0     C32355  11.364   4.821   1.181 -0.3412  0.1740 -0.2749
  246MOL0     C32356  11.421   4.880   1.312  0.0074  0.0043  0.1803
  246MOL0     N32357  11.563   4.906   1.286  0.3788 -0.3090  0.2108
  246MOL0     C32358  11.605   4.989   1.187 -0.4957 -0.9193  0.1691
  246MOL0     C32359  11.745   4.997   1.199 -0.4205 -0.4121 -0.3200
  246MOL0     C32360  11.833   5.075   1.107  0.2005  0.6343  0.1765
  246MOL0     C32361  11.926   4.990   1.016 -1.1747 -0.0551 -0.1739
  246MOL0     C32362  11.882   4.956   0.874 -0.8929  0.7063  0.7217
  246MOL0     C32363  11.753   4.876   0.868  0.6301 -0.4176  0.5395
  246MOL0     O32364  11.640   4.973   0.884 -0.6517  0.6107  0.9196
  246MOL0     C32365  11.522   4.928   0.830  0.0478  0.2638 -0.4964
  246MOL0     C32366  11.491   4.796   0.797 -0.0881  0.4169  0.0365
  246MOL0     C32367  11.368   4.762   0.745  0.0610 -0.0295  0.0354
  246MOL0     C32368  11.271   4.859   0.723  0.9043 -0.3533 -0.9790
  246MOL0     C32369  11.140   4.822   0.669  0.1825  0.3775  1.1550
  246MOL0     O32370  11.037   4.912   0.668  0.2972  0.9210  0.0456
  246MOL0     C32371  10.905   4.881   0.649  0.3647 -0.8397  0.6747
  246MOL0     C32372  10.833   4.977   0.575 -0.3785  0.0776  0.2543
  246MOL0     C32373  10.703   4.964   0.526 -0.0956  0.8329 -1.0922
  246MOL0     C32374  10.638   4.842   0.558  0.6871 -0.5428  0.0817
  246MOL0     O32375  10.514   4.798   0.524  0.2949  0.4878  0.6269
  246MOL0     C32376  10.416   4.897   0.481  0.4396 -0.8260  0.1262
  246MOL0     C32377  10.291   4.813   0.431  0.2078  0.6735 -0.1521
  246MOL0     C32378  10.220   4.759   0.563 -0.0301 -0.1398 -0.1172
  246MOL0     C32379  10.079   4.690   0.535  0.4378 -0.6343 -1.0475
  246MOL0     C32380  10.090   4.591   0.409  1.3780 -0.3051 -0.4479
  246MOL0     C32381   9.942   4.566   0.356  0.4647 -0.3956 -0.3774
  246MOL0     C32382   9.876   4.464   0.446  0.6917  1.1082 -0.5408
  246MOL0     C32383   9.727   4.451   0.411 -0.8800  0.4959  0.2435
  246MOL0    Cl32384   9.707   4.388   0.251  0.2529  0.1766  0.2015
  246MOL0     C32385  10.697   4.756   0.642  0.4487  0.3965 -0.1212
  246MOL0     C32386  10.828   4.771   0.691 -0.2036 -0.4276  0.4795
  246MOL0     O32387  11.126   4.706   0.630  0.2355  0.2466 -0.6680
  246MOL0     C32388  11.303   4.988   0.759  0.5869  0.3801 -0.0667
  246MOL0     C32389  11.430   5.023   0.798  0.7121  0.0726 -0.5709
  246MOL0     N32390  11.778   4.924   1.305  0.1234  0.2114 -0.0685
  246MOL0     N32391  11.674   4.869   1.355  0.3337 -0.1076 -0.0386
  246MOL0     C32392  10.553   4.819   0.974  0.1287 -0.9545  0.9695
  246MOL0     C32393  10.432   4.830   0.902 -0.9449 -0.3884  0.1936
  246MOL0     C32394   9.985   4.924   0.823 -0.8951  0.0145  0.6199
  246MOL0     C32395  10.005   5.010   0.711  0.0797 -0.3408  0.0873
  246MOL0     C32396   9.894   5.032   0.624  0.3766  0.1223 -0.1849
  246MOL0     C32397   9.765   4.985   0.651  0.7505 -0.3338  0.4530
  246MOL0     O32398   9.666   5.019   0.556  0.9215 -0.1417 -0.3527
  246MOL0     C32399   9.534   5.062   0.600 -0.0454 -0.3672 -0.0768
  246MOL0     C32400   9.435   4.941   0.596 -0.4731 -0.1575  0.5550
  246MOL0     C32401   9.451   4.878   0.452  0.1442  0.1799 -0.9227
  246MOL0     C32402   9.338   4.774   0.430 -0.8024 -0.3998  0.2488
  246MOL0     C32403   9.357   4.699   0.308  0.4385 -0.0091 -0.1666
  246MOL0     C32404   9.384   4.631   0.211  0.0967  0.1694  0.0939
  246MOL0     C32405   9.752   4.914   0.772 -0.1818 -0.6084  0.4752
  246MOL0     C32406   9.863   4.873   0.852  0.8275 -1.3242  1.4792
  246MOL0     H32407  10.258   5.025   1.111 -0.0466  0.7925  2.1190
  246MOL0     H32408  10.465   5.010   1.235  1.5384 -0.3315 -0.6501
  246MOL0     H32409  10.722   5.070   1.270  0.7720  0.7717 -0.7004
  246MOL0     H32410  10.728   5.101   1.097 -1.8677  0.2121  0.5317
  246MOL0     H32411  10.916   4.952   1.267 -2.0163  0.4094  0.4271
  246MOL0     H32412  10.923   5.110   1.181 -0.7838 -0.5368  0.1631
  246MOL0     H32413  11.061   5.020   1.044 -0.2152 -1.0490  2.9380
  246MOL0     H32414  10.908   4.976   0.953  0.4172 -2.7503 -2.1398
  246MOL0     H32415  10.953   4.767   1.141  1.1308 -2.5445 -0.8727
  246MOL0     H32416  10.960   4.751   0.964  1.3224  0.9231 -2.0462
  246MOL0     H32417  11.189   4.809   0.969 -0.6029  2.2213  0.6561
  246MOL0     H32418  11.160   4.663   1.054  2.5789  0.6575 -1.4420
  246MOL0     H32419  11.163   4.777   1.270  0.1948 -1.3399 -1.1364
  246MOL0     H32420  11.174   4.936   1.194 -0.2809  0.4028 -1.5775
  246MOL0     H32421  11.410   4.723   1.167  0.6361  0.0417  3.1014
  246MOL0     H32422  11.398   4.868   1.088 -1.8236 -1.1081 -1.5326
  246MOL0     H32423  11.404   4.819   1.401  2.6526  0.6845  1.2405
  246MOL0     H32424  11.370   4.972   1.341 -1.0924 -0.9420  1.3939
  246MOL0     H32425  11.546   5.034   1.108  2.4192 -0.4104 -1.8839
  246MOL0     H32426  11.894   5.141   1.169  0.7780  1.2005 -0.9555
  246MOL0     H32427  11.776   5.141   1.041  0.5232 -0.1633 -0.9317
  246MOL0     H32428  11.946   4.895   1.067 -0.7808  0.6054  0.9448
  246MOL0     H32429  12.019   5.046   1.003  0.2259 -1.5172  2.5497
  246MOL0     H32430  11.865   5.057   0.837  2.5967  0.7018 -1.3354
  246MOL0     H32431  11.967   4.912   0.822 -0.8486 -2.4818  3.2001
  246MOL0     H32432  11.741   4.795   0.942  2.5169 -1.7156 -0.4956
  246MOL0     H32433  11.762   4.832   0.769 -2.1802 -2.5288  1.0897
  246MOL0     H32434  11.558   4.711   0.800 -2.7977 -2.0052 -1.8972
  246MOL0     H32435  11.356   4.661   0.708  0.7144 -0.1858  0.2390
  246MOL0     H32436  10.884   5.073   0.567  0.2216 -0.0576  1.9644
  246MOL0     H32437  10.642   5.039   0.477 -2.5431 -0.8440 -0.7904
  246MOL0     H32438  10.459   4.964   0.405 -0.4211 -0.5873 -0.1707
  246MOL0     H32439  10.385   4.955   0.568  0.6554  0.7898 -0.8298
  246MOL0     H32440  10.322   4.730   0.366 -2.3772  0.3025 -1.0621
  246MOL0     H32441  10.231   4.875   0.364  0.5782  0.3316 -0.8115
  246MOL0     H32442  10.202   4.845   0.628  0.4561 -0.2676  0.1957
  246MOL0     H32443  10.289   4.683   0.601 -0.4039 -1.7917 -2.5311
  246MOL0     H32444  10.043   4.643   0.627 -0.5637 -0.4401 -1.3338
  246MOL0     H32445  10.001   4.766   0.523  0.2125 -0.3604  1.5274
  246MOL0     H32446  10.143   4.497   0.427  1.1934 -1.2369 -4.0672
  246MOL0     H32447  10.140   4.644   0.327  2.0150  4.3848  2.5639
  246MOL0     H32448   9.957   4.512   0.261 -1.6885 -2.9045  0.5825
  246MOL0     H32449   9.882   4.657   0.352 -1.2640 -1.5019 -1.8563
  246MOL0     H32450   9.914   4.362   0.438  0.8227  1.1209 -0.1222
  246MOL0     H32451   9.873   4.489   0.553 -2.8908  0.6570 -0.4185
  246MOL0     H32452   9.679   4.547   0.433 -0.9669  0.0192  2.2830
  246MOL0     H32453   9.678   4.379   0.476 -1.4218  2.6266  2.3160
  246MOL0     H32454  10.640   4.671   0.678  2.5974 -0.5932  1.1183
  246MOL0     H32455  10.859   4.686   0.751 -3.3056 -2.3705 -0.4259
  246MOL0     H32456  11.229   5.063   0.731  1.6791  1.1062 -1.0846
  246MOL0     H32457  11.447   5.127   0.826 -0.2703  0.2203 -0.4661
  246MOL0     H32458  10.638   4.760   0.940  0.5411  0.9406 -1.5268
  246MOL0     H32459  10.430   4.776   0.807 -1.6067 -3.5736  1.8844
  246MOL0     H32460  10.106   5.040   0.684 -0.0284 -1.0888 -1.2177
  246MOL0     H32461   9.914   5.095   0.538  2.4853  1.4983  1.2264
  246MOL0     H32462   9.499   5.144   0.537 -2.3221 -3.2702 -2.9075
  246MOL0     H32463   9.537   5.091   0.706 -2.9993  0.4941 -0.1419
  246MOL0     H32464   9.471   4.874   0.675 -0.0064 -0.2080  0.3016
  246MOL0     H32465   9.333   4.973   0.618  0.3644  1.2280  2.7200
  246MOL0     H32466   9.547   4.826   0.438 -0.7784 -1.4138 -1.5907
  246MOL0     H32467   9.431   4.944   0.367 -1.5614 -3.1897 -3.3667
  246MOL0     H32468   9.319   4.705   0.514 -1.2174  1.0747  1.4115
  246MOL0     H32469   9.248   4.835   0.422 -0.8577 -0.1915  1.9438
  246MOL0     H32470   9.406   4.577   0.121  2.2383  1.2318 -0.0830
  246MOL0     H32471   9.650   4.892   0.802 -1.2132  3.0686  0.2138
  246MOL0     H32472   9.844   4.809   0.937 -2.2887 -2.4037  0.1433
  247MOL0     O32473   4.586   2.774   3.953 -0.1629  0.2552 -0.4507
  247MOL0     C32474   4.509   2.834   4.034  0.4440  0.3610  1.1139
  247MOL0     O32475   4.543   2.879   4.151 -0.1246  0.4916  0.4404
  247MOL0     C32476   4.675   2.888   4.176 -0.3578  1.2412  0.6217
  247MOL0     C32477   4.749   3.006   4.166 -0.4131 -0.5868 -0.2429
  247MOL0     C32478   4.889   3.007   4.201 -0.1315 -0.7419 -0.3541
  247MOL0     C32479   4.957   2.889   4.251 -0.0907 -0.7265  0.7805
  247MOL0     O32480   5.091   2.898   4.289  0.0214 -0.1417  0.2359
  247MOL0     C32481   5.136   2.842   4.414  0.4651 -0.2994  0.6759
  247MOL0     C32482   5.271   2.892   4.444  0.3605 -0.0380  0.6592
  247MOL0     C32483   5.325   2.837   4.577  0.2589 -0.1187  0.3925
  247MOL0     C32484   5.459   2.900   4.598 -0.4310 -0.0639  0.1976
  247MOL0     C32485   5.526   2.851   4.718 -0.7840 -0.7269 -0.1673
  247MOL0     C32486   5.682   2.865   4.726  0.2018 -0.0765  0.3781
  247MOL0     C32487   5.734   3.012   4.718 -0.0355  0.1890 -0.0376
  247MOL0     C32488   5.834   3.018   4.606  0.4341  0.0047  0.5190
  247MOL0     N32489   5.786   2.998   4.462 -0.4091 -0.2179  0.7005
  247MOL0     C32490   5.773   2.882   4.394 -0.4816 -0.0905  1.3002
  247MOL0     C32491   5.738   2.918   4.259  0.0352 -0.5445  0.0379
  247MOL0     C32492   5.698   2.811   4.160  0.4731  0.2495 -0.0963
  247MOL0     C32493   5.633   2.868   4.038 -0.0127 -0.4019  1.1126
  247MOL0     C32494   5.479   2.900   4.044 -0.2225  0.1641  0.6421
  247MOL0     C32495   5.441   2.995   3.930 -0.8838 -0.5487  0.4540
  247MOL0     O32496   5.323   3.070   3.976 -0.1995 -0.7934  0.1581
  247MOL0     C32497   5.333   3.193   4.024 -0.4773 -0.0302 -0.6935
  247MOL0     C32498   5.452   3.242   4.085 -0.6096 -0.0520  0.3422
  247MOL0     C32499   5.467   3.382   4.118  0.4666  0.6549 -0.2331
  247MOL0     C32500   5.356   3.470   4.089 -0.5123  0.6353  0.0268
  247MOL0     C32501   5.369   3.617   4.117  0.1844 -0.6907 -0.3687
  247MOL0     O32502   5.262   3.679   4.054  0.1454 -0.1223  0.5775
  247MOL0     C32503   5.250   3.813   4.076 -0.6317  0.2330 -0.2569
  247MOL0     C32504   5.323   3.899   3.996 -0.3305 -0.1435 -0.0461
  247MOL0     C32505   5.312   4.031   4.012  0.3197  0.0508  0.5896
  247MOL0     C32506   5.240   4.085   4.120 -0.2814  0.0684 -0.4256
  247MOL0     O32507   5.254   4.211   4.137  0.4567 -0.2088 -0.3073
  247MOL0     C32508   5.136   4.277   4.189 -0.4208 -0.7043 -0.6419
  247MOL0     C32509   5.141   4.413   4.148  0.3145 -1.1591 -0.1209
  247MOL0     C32510   5.059   4.505   4.246  0.3398 -0.0366 -0.0616
  247MOL0     C32511   5.104   4.654   4.237  0.3390  0.0777 -0.1049
  247MOL0     C32512   5.004   4.740   4.321 -0.9084 -0.1601  1.5736
  247MOL0     C32513   4.866   4.775   4.250 -0.0866 -0.1223 -0.3641
  247MOL0     C32514   4.798   4.887   4.331  0.4360  0.2437 -0.3125
  247MOL0     C32515   4.652   4.909   4.311 -0.4632 -0.1306 -0.2931
  247MOL0    Cl32516   4.639   4.903   4.137 -0.0367 -0.5877 -0.1541
  247MOL0     C32517   5.159   3.995   4.197  0.2443 -0.8585  0.3471
  247MOL0     C32518   5.163   3.861   4.171 -0.3532  0.6829  0.1736
  247MOL0     O32519   5.446   3.669   4.193 -0.2572  0.4795 -0.7290
  247MOL0     C32520   5.234   3.411   4.040 -0.6085  0.3566  0.3843
  247MOL0     C32521   5.227   3.276   4.007  0.7251 -0.0648 -0.2528
  247MOL0     N32522   5.758   3.054   4.250 -0.7679  0.9537  1.2015
  247MOL0     N32523   5.767   3.098   4.370 -0.4034 -0.3251  0.7958
  247MOL0     C32524   4.876   2.777   4.263 -0.2346  0.1114  0.5182
  247MOL0     C32525   4.741   2.769   4.217 -0.5279 -0.8632 -0.4323
  247MOL0     C32526   4.365   2.840   3.992 -0.1491  0.4422 -0.0164
  247MOL0     C32527   4.270   2.886   4.083  1.2640  0.1474 -0.1654
  247MOL0     C32528   4.135   2.890   4.041  0.1516 -0.0953  0.1721
  247MOL0     C32529   4.093   2.846   3.911 -0.1303  0.1237 -0.3191
  247MOL0     O32530   3.962   2.863   3.879 -0.8849  0.1631  0.8427
  247MOL0     C32531   3.922   2.825   3.748  0.6276 -0.7512  0.3904
  247MOL0     C32532   3.894   2.675   3.723  0.1184  0.5571  0.2963
  247MOL0     C32533   3.858   2.648   3.576  0.4436  0.6157  0.0645
  247MOL0     C32534   3.987   2.625   3.492  0.7363 -0.4318 -0.2765
  247MOL0     C32535   4.073   2.516   3.519  0.5113 -0.3438 -0.2018
  247MOL0     C32536   4.156   2.436   3.561  0.2934 -0.5636  0.8429
  247MOL0     C32537   4.192   2.800   3.828  0.0402  0.5869  0.3544
  247MOL0     C32538   4.327   2.800   3.865  0.6603  0.7716  0.3378
  247MOL0     H32539   4.698   3.097   4.135 -2.4511 -1.4914  0.2994
  247MOL0     H32540   4.937   3.103   4.216 -1.6690  0.3653 -2.0433
  247MOL0     H32541   5.141   2.733   4.407  1.0479 -0.1846 -1.3686
  247MOL0     H32542   5.065   2.864   4.494 -3.6753 -2.8200 -1.9096
  247MOL0     H32543   5.248   2.999   4.447  0.7291  0.0748 -0.2357
  247MOL0     H32544   5.333   2.881   4.355 -1.6018 -1.0151 -0.6455
  247MOL0     H32545   5.334   2.729   4.568  1.2683 -0.3025  2.8748
  247MOL0     H32546   5.246   2.862   4.649  1.1406 -0.1662  1.3974
  247MOL0     H32547   5.517   2.880   4.507  0.9309 -1.8406  1.3745
  247MOL0     H32548   5.456   3.007   4.620  3.4048  0.0410  0.8359
  247MOL0     H32549   5.496   2.747   4.736 -3.9721  0.0986 -0.1560
  247MOL0     H32550   5.499   2.903   4.811 -2.9789 -2.5234  0.3087
  247MOL0     H32551   5.720   2.807   4.642 -0.6623  0.9368 -0.7480
  247MOL0     H32552   5.707   2.821   4.824  0.5625 -1.4426 -0.3017
  247MOL0     H32553   5.662   3.095   4.714  1.2869  1.4650  1.4158
  247MOL0     H32554   5.797   3.023   4.807  1.1954  0.6749 -0.9384
  247MOL0     H32555   5.900   2.934   4.625  2.0722  0.6814 -1.6853
  247MOL0     H32556   5.886   3.115   4.610  1.4808 -0.5115 -0.2068
  247MOL0     H32557   5.792   2.785   4.439  3.6736 -0.7572 -1.3127
  247MOL0     H32558   5.633   2.740   4.212  0.6252 -1.1030 -1.6849
  247MOL0     H32559   5.793   2.760   4.141  1.5640  2.3268 -0.5230
  247MOL0     H32560   5.646   2.789   3.963 -3.5065 -0.5970  0.5323
  247MOL0     H32561   5.687   2.958   4.007  3.4345 -2.0613  1.8435
  247MOL0     H32562   5.420   2.809   4.043  0.4556 -0.2906 -1.0822
  247MOL0     H32563   5.456   2.948   4.140 -0.8024 -2.7906  2.0990
  247MOL0     H32564   5.418   2.938   3.840 -2.9525  0.5482  0.2113
  247MOL0     H32565   5.513   3.073   3.904 -2.4054  1.2110  1.2546
  247MOL0     H32566   5.540   3.179   4.098 -0.6748  0.0635  1.3692
  247MOL0     H32567   5.563   3.418   4.153 -0.0449  1.9028 -0.0484
  247MOL0     H32568   5.398   3.862   3.927  1.5694  3.7663 -0.3792
  247MOL0     H32569   5.378   4.094   3.952  0.8454 -1.1120 -0.0843
  247MOL0     H32570   5.157   4.273   4.296 -0.8042 -1.7768 -0.5902
  247MOL0     H32571   5.040   4.230   4.168  0.1215 -1.4586 -1.5354
  247MOL0     H32572   5.116   4.424   4.042 -1.2907 -1.2206  0.2172
  247MOL0     H32573   5.243   4.449   4.163 -0.3779  0.6487  0.5156
  247MOL0     H32574   5.076   4.476   4.350 -0.1623 -1.2988 -0.3174
  247MOL0     H32575   4.956   4.479   4.220  1.0124 -1.5746 -1.4543
  247MOL0     H32576   5.203   4.675   4.277 -0.2946  0.2938  1.4497
  247MOL0     H32577   5.105   4.680   4.131  0.5637 -1.8223 -0.6035
  247MOL0     H32578   5.066   4.830   4.332  0.9431 -1.0300 -0.9868
  247MOL0     H32579   4.987   4.700   4.422 -0.9488 -2.4343  0.7185
  247MOL0     H32580   4.807   4.684   4.249  0.1610 -0.2834 -1.0985
  247MOL0     H32581   4.881   4.803   4.145 -2.8795 -0.3641 -0.9084
  247MOL0     H32582   4.799   4.870   4.439  1.1246  1.9187 -0.0282
  247MOL0     H32583   4.852   4.977   4.300  0.1644 -0.1092 -1.9085
  247MOL0     H32584   4.614   5.008   4.337  1.7810  0.6392  0.2213
  247MOL0     H32585   4.587   4.839   4.365  2.2000 -3.4549 -1.0680
  247MOL0     H32586   5.111   4.037   4.285  2.5209  2.7159  0.0856
  247MOL0     H32587   5.111   3.789   4.234 -0.4794 -1.5092 -2.2752
  247MOL0     H32588   5.148   3.473   4.019 -1.5767 -0.0438  2.7534
  247MOL0     H32589   5.142   3.241   3.950  2.0831 -0.4883 -2.0905
  247MOL0     H32590   4.930   2.696   4.311  2.1271  1.9205  1.1135
  247MOL0     H32591   4.682   2.679   4.227 -0.8713 -0.3352  3.7020
  247MOL0     H32592   4.300   2.911   4.185  0.0321  2.0060 -0.2102
  247MOL0     H32593   4.063   2.927   4.114 -0.3614 -0.1621 -0.2987
  247MOL0     H32594   3.996   2.860   3.675 -1.8101  2.1131 -0.9414
  247MOL0     H32595   3.830   2.881   3.729 -0.0055 -1.1445  2.1345
  247MOL0     H32596   3.975   2.612   3.761 -1.3997 -1.4983  0.2874
  247MOL0     H32597   3.816   2.652   3.796  2.7290 -3.0131  2.2373
  247MOL0     H32598   3.801   2.735   3.543  0.0421 -0.2335 -1.6416
  247MOL0     H32599   3.794   2.560   3.563  0.1213  0.9640 -0.7673
  247MOL0     H32600   3.941   2.622   3.393  2.6311  1.1770 -1.2614
  247MOL0     H32601   4.042   2.719   3.504 -1.5982  0.7394  2.7303
  247MOL0     H32602   4.235   2.370   3.592 -1.3863 -1.5188  3.3840
  247MOL0     H32603   4.166   2.761   3.730  0.7108 -0.9033  0.7433
  247MOL0     H32604   4.401   2.778   3.790 -0.4956 -0.2419 -0.5543
  248MOL0     O32605   2.004   8.276   5.743  0.3517 -0.4727 -0.5449
  248MOL0     C32606   1.930   8.216   5.821 -0.3154 -0.0048 -1.3187
  248MOL0     O32607   1.965   8.142   5.932  0.2414 -0.1582  0.5104
  248MOL0     C32608   2.098   8.120   5.959 -1.4759  0.3412 -0.3152
  248MOL0     C32609   2.200   8.209   5.930 -0.4412 -0.0452 -0.4161
  248MOL0     C32610   2.336   8.189   5.977 -0.0890  0.0394  0.8184
  248MOL0     C32611   2.374   8.066   6.036  0.0908 -1.0121  0.7306
  248MOL0     O32612   2.503   8.029   6.071  0.1018  0.0119 -0.4376
  248MOL0     C32613   2.604   8.119   6.038 -0.5588 -0.9712 -0.2273
  248MOL0     C32614   2.748   8.070   6.081  0.6314 -0.4858  1.1771
  248MOL0     C32615   2.855   8.167   6.016  0.3112 -0.4743 -0.4090
  248MOL0     C32616   2.989   8.123   6.034 -0.6670  0.2829  0.3725
  248MOL0     C32617   3.093   8.232   6.009 -0.2165 -1.0807  0.0749
  248MOL0     C32618   3.217   8.205   6.096 -0.6671  0.4114 -0.2784
  248MOL0     C32619   3.326   8.302   6.063  0.1689  0.4900 -0.0719
  248MOL0     C32620   3.456   8.280   6.137 -0.0741 -0.0443  0.3548
  248MOL0     N32621   3.558   8.236   6.036  0.4325 -0.3419 -0.6008
  248MOL0     C32622   3.552   8.114   5.970  0.2370 -0.6709 -0.5531
  248MOL0     C32623   3.668   8.107   5.901  0.3771  0.1604 -0.1093
  248MOL0     C32624   3.713   7.995   5.815 -0.8394  0.1389  1.5171
  248MOL0     C32625   3.703   8.010   5.664  0.7996 -0.2769 -0.1343
  248MOL0     C32626   3.577   8.093   5.617 -0.7668  0.2712 -0.0017
  248MOL0     C32627   3.449   8.021   5.633 -0.7061  0.9305 -0.4801
  248MOL0     O32628   3.341   8.090   5.569 -0.2996 -0.0186  0.7080
  248MOL0     C32629   3.213   8.053   5.582  0.1146 -0.4027  0.0802
  248MOL0     C32630   3.171   7.927   5.626 -0.1501 -1.0117  0.4208
  248MOL0     C32631   3.033   7.909   5.643 -0.4556 -0.0989  0.0673
  248MOL0     C32632   2.946   8.006   5.617  0.3049  0.4664 -0.6674
  248MOL0     C32633   2.797   7.986   5.626 -0.3061  0.6777  1.0388
  248MOL0     O32634   2.754   7.861   5.598  0.2457  0.3350  0.3828
  248MOL0     C32635   2.639   7.802   5.648  0.2127 -0.6917 -0.1020
  248MOL0     C32636   2.578   7.851   5.764 -0.1110  0.1287 -0.3074
  248MOL0     C32637   2.469   7.798   5.830  0.1973  0.0703  0.3227
  248MOL0     C32638   2.402   7.690   5.759  0.2812 -0.1177  0.7612
  248MOL0     O32639   2.284   7.646   5.822  0.0032 -0.2416  0.5796
  248MOL0     C32640   2.213   7.536   5.765  0.4272  0.7381  0.4468
  248MOL0     C32641   2.100   7.503   5.858  0.1664 -0.5883  0.7688
  248MOL0     C32642   2.036   7.625   5.944 -0.7995 -1.3916 -0.3292
  248MOL0     C32643   1.901   7.587   6.003  0.3540  0.6006  0.7577
  248MOL0     C32644   1.820   7.699   6.069  0.1037 -0.5310 -0.3026
  248MOL0     C32645   1.784   7.808   5.962 -0.1339 -0.4257 -0.8327
  248MOL0     C32646   1.700   7.754   5.843  1.4299  0.1748  1.3821
  248MOL0     C32647   1.682   7.862   5.735  0.2697 -0.1300  1.3726
  248MOL0    Cl32648   1.575   7.794   5.608  0.0321 -0.2390 -0.0170
  248MOL0     C32649   2.456   7.640   5.641 -0.4065  0.5426  0.3620
  248MOL0     C32650   2.570   7.698   5.579 -0.9766 -0.2074 -0.3467
  248MOL0     O32651   2.727   8.080   5.662 -0.1490 -0.3574 -0.7058
  248MOL0     C32652   2.990   8.133   5.592  0.5428 -0.3191 -0.1301
  248MOL0     C32653   3.119   8.162   5.563  0.0890  0.7955  1.1676
  248MOL0     N32654   3.735   8.224   5.927 -0.5893  0.2235  0.5270
  248MOL0     N32655   3.668   8.310   5.996  0.5054  0.2795 -0.6632
  248MOL0     C32656   2.270   7.972   6.063 -0.7823 -0.1459  0.3914
  248MOL0     C32657   2.139   8.001   6.025 -0.1482  0.5614  1.0176
  248MOL0     C32658   1.790   8.231   5.793 -0.2474  0.2421  0.2765
  248MOL0     C32659   1.702   8.221   5.897  0.7490  0.3521 -0.5461
  248MOL0     C32660   1.561   8.202   5.876  0.2870  0.2759 -0.8273
  248MOL0     C32661   1.518   8.209   5.749  0.0552  0.9994 -0.3414
  248MOL0     O32662   1.377   8.185   5.729 -0.5442 -0.2203 -0.2558
  248MOL0     C32663   1.321   8.158   5.595 -0.1528 -0.5693 -0.1528
  248MOL0     C32664   1.183   8.104   5.619  0.0784 -0.1043 -0.0833
  248MOL0     C32665   1.191   7.960   5.689 -1.0211  0.3216 -0.6569
  248MOL0     C32666   1.067   7.875   5.655 -0.1150 -0.0155  0.0258
  248MOL0     C32667   0.938   7.939   5.656  0.1793 -0.2691 -0.2567
  248MOL0     C32668   0.835   7.998   5.670  0.6303  0.2801  0.9157
  248MOL0     C32669   1.602   8.232   5.646  0.0400 -0.3966  0.1085
  248MOL0     C32670   1.742   8.250   5.662  1.5208  0.3496 -0.0055
  248MOL0     H32671   2.179   8.307   5.887  1.9674 -0.4894 -2.9066
  248MOL0     H32672   2.410   8.264   5.951 -0.4717 -0.1705 -0.9746
  248MOL0     H32673   2.590   8.206   6.103 -1.9334 -1.5952  0.3462
  248MOL0     H32674   2.611   8.149   5.933  1.3308 -1.3012 -0.2289
  248MOL0     H32675   2.749   7.972   6.033  1.4418  1.4815 -3.2801
  248MOL0     H32676   2.755   8.065   6.190  1.5362 -0.6884  1.1204
  248MOL0     H32677   2.838   8.268   6.054 -2.8911 -0.9792 -0.2454
  248MOL0     H32678   2.837   8.164   5.908 -4.7110 -1.7121  0.1945
  248MOL0     H32679   3.007   8.098   6.139  3.1120 -0.5458 -0.3241
  248MOL0     H32680   3.017   8.034   5.977  0.5168 -0.4522  2.0286
  248MOL0     H32681   3.047   8.328   6.032  2.0051  1.1928 -3.8372
  248MOL0     H32682   3.122   8.230   5.903  1.0552 -1.1336  0.4114
  248MOL0     H32683   3.247   8.101   6.082 -1.0166  0.3000 -0.2265
  248MOL0     H32684   3.200   8.221   6.203 -0.1419  0.4668 -0.2013
  248MOL0     H32685   3.328   8.284   5.955  1.8851 -2.7857  0.4091
  248MOL0     H32686   3.276   8.398   6.080  0.5926  1.1111 -2.0400
  248MOL0     H32687   3.448   8.190   6.199  0.1097 -0.8829 -0.7850
  248MOL0     H32688   3.483   8.365   6.200  0.0669 -0.8376  1.3833
  248MOL0     H32689   3.481   8.034   5.984 -0.3174  0.0373  0.9000
  248MOL0     H32690   3.646   7.910   5.832  0.7921 -1.7467 -0.7805
  248MOL0     H32691   3.816   7.964   5.834 -1.5136 -1.6248  2.5726
  248MOL0     H32692   3.717   7.918   5.607  3.0813  0.5971 -1.1152
  248MOL0     H32693   3.785   8.077   5.635  0.5553 -0.0288 -0.2558
  248MOL0     H32694   3.582   8.194   5.658 -0.3872  0.5020 -0.5988
  248MOL0     H32695   3.582   8.111   5.509 -1.2051 -1.1330 -0.2832
  248MOL0     H32696   3.430   8.004   5.739 -1.1236  0.3537 -0.6428
  248MOL0     H32697   3.464   7.920   5.594 -4.7433  0.6021 -1.6514
  248MOL0     H32698   3.249   7.853   5.639  1.6489  0.6988 -0.0347
  248MOL0     H32699   2.994   7.813   5.673 -0.0260  0.1387  1.4678
  248MOL0     H32700   2.625   7.933   5.818  0.6207  0.9197 -2.0402
  248MOL0     H32701   2.439   7.853   5.919  1.1225  2.7882 -0.9489
  248MOL0     H32702   2.263   7.442   5.739 -3.9278 -2.0278  0.9910
  248MOL0     H32703   2.164   7.571   5.674 -0.1888 -2.2673 -0.5198
  248MOL0     H32704   2.136   7.432   5.934  1.1879 -0.6679  0.2201
  248MOL0     H32705   2.016   7.458   5.805 -1.2562  0.2806  2.1932
  248MOL0     H32706   2.024   7.700   5.865 -2.8933 -2.1346 -0.7756
  248MOL0     H32707   2.100   7.659   6.026 -0.9272 -1.4653 -0.1980
  248MOL0     H32708   1.844   7.543   5.920  1.4460  0.4274  0.0732
  248MOL0     H32709   1.911   7.505   6.074 -2.2947 -2.7243 -2.2947
  248MOL0     H32710   1.889   7.748   6.138 -0.5635 -0.3014  0.2098
  248MOL0     H32711   1.740   7.663   6.135 -0.5943 -2.4173 -2.0573
  248MOL0     H32712   1.877   7.852   5.926 -0.6376  0.5067 -1.0402
  248MOL0     H32713   1.729   7.895   5.998  0.1213  0.1383 -1.7478
  248MOL0     H32714   1.732   7.659   5.798 -0.2563  0.1682  0.1013
  248MOL0     H32715   1.602   7.735   5.888  0.7420 -0.0863 -0.1579
  248MOL0     H32716   1.780   7.885   5.693 -1.2611 -1.7382 -3.7874
  248MOL0     H32717   1.636   7.951   5.777  3.3026  2.1767  0.2085
  248MOL0     H32718   2.401   7.561   5.590  0.9551  0.8540 -1.6999
  248MOL0     H32719   2.606   7.677   5.478  1.5598  1.7075  0.0534
  248MOL0     H32720   2.926   8.219   5.577 -0.9741 -1.0395  1.7163
  248MOL0     H32721   3.153   8.258   5.527  3.0049 -0.8854 -0.9189
  248MOL0     H32722   2.303   7.882   6.113  0.6760 -0.0976 -0.4485
  248MOL0     H32723   2.072   7.916   6.033  2.4003 -1.7380 -0.4825
  248MOL0     H32724   1.732   8.237   6.000 -0.8233 -1.1393  0.2098
  248MOL0     H32725   1.499   8.178   5.962  0.1007  1.9885 -0.4438
  248MOL0     H32726   1.380   8.083   5.541  1.2853  1.6914 -1.8995
  248MOL0     H32727   1.313   8.250   5.537 -1.4515 -0.2700  0.4537
  248MOL0     H32728   1.117   8.171   5.675 -1.6681 -0.4683 -1.6076
  248MOL0     H32729   1.139   8.100   5.519  0.5418 -3.5484 -0.2875
  248MOL0     H32730   1.202   7.979   5.796 -1.8582 -0.0172 -0.5054
  248MOL0     H32731   1.265   7.888   5.653 -1.9463 -2.1301  1.9267
  248MOL0     H32732   1.080   7.822   5.560  1.1087 -0.5796  0.4808
  248MOL0     H32733   1.050   7.798   5.732 -3.4516  0.3906 -0.1433
  248MOL0     H32734   0.751   8.063   5.683 -0.3949 -0.8165 -0.0450
  248MOL0     H32735   1.560   8.239   5.547 -0.0587  1.4922  0.2463
  248MOL0     H32736   1.817   8.261   5.584  0.9337 -2.3319 -1.0577
  249MOL0     O32737  11.335  10.337   8.105  0.7256 -0.0497  0.3916
  249MOL0     C32738  11.307  10.231   8.149 -0.3617  0.4489 -0.3154
  249MOL0     O32739  11.388  10.147   8.212 -0.8611  0.7745 -0.2825
  249MOL0     C32740  11.523  10.170   8.211  0.6145 -0.3010 -0.0062
  249MOL0     C32741  11.596  10.195   8.089  0.1448  0.0373 -0.2619
  249MOL0     C32742  11.727  10.235   8.102 -0.8207 -0.3088 -0.1757
  249MOL0     C32743  11.790  10.244   8.228  0.1138 -0.4880  0.2767
  249MOL0     O32744  11.930  10.265   8.237 -0.2021 -0.2017 -1.0246
  249MOL0     C32745  11.972  10.396   8.197  0.3329 -0.7612  0.0382
  249MOL0     C32746  12.100  10.375   8.120  0.1617 -0.2406 -1.0640
  249MOL0     C32747  12.092  10.271   8.004  0.3557 -0.0094 -0.2059
  249MOL0     C32748  12.230  10.249   7.935  0.3570 -0.5284 -0.2686
  249MOL0     C32749  12.194  10.187   7.795 -0.7765 -0.1422 -0.5586
  249MOL0     C32750  12.315  10.140   7.730 -0.2740  0.7331 -0.7702
  249MOL0     C32751  12.290  10.087   7.590  0.2532 -0.1208  1.3235
  249MOL0     C32752  12.414  10.098   7.507 -0.2752  0.0404 -0.0033
  249MOL0     N32753  12.400  10.006   7.396  1.4845  0.1985  0.4648
  249MOL0     C32754  12.467  10.023   7.278 -1.1821 -0.0086 -0.6545
  249MOL0     C32755  12.442   9.906   7.215 -1.0322  0.2035  0.7975
  249MOL0     C32756  12.511   9.869   7.080  1.0435 -0.8016 -0.2246
  249MOL0     C32757  12.667   9.892   7.075 -0.1004 -0.2460 -0.3517
  249MOL0     C32758  12.724   9.875   6.930  0.4990 -0.1753 -0.0597
  249MOL0     C32759  12.868   9.917   6.907 -0.6076  0.4840  0.2680
  249MOL0     O32760  12.883  10.054   6.942 -0.4761 -0.4873  1.2039
  249MOL0     C32761  13.006  10.118   6.919 -0.0556  0.1646 -0.0721
  249MOL0     C32762  13.110  10.064   6.845 -0.2959  0.1024 -0.6006
  249MOL0     C32763  13.223  10.135   6.818 -0.0726  1.0169 -0.1469
  249MOL0     C32764  13.239  10.266   6.856 -0.5795  0.0622  0.2291
  249MOL0     C32765  13.357  10.340   6.814  0.3187 -0.1482 -0.1764
  249MOL0     O32766  13.457  10.270   6.755 -0.1627  0.3759 -0.0073
  249MOL0     C32767  13.555  10.341   6.700 -0.1540  0.0878 -1.0306
  249MOL0     C32768  13.535  10.422   6.590  0.1925 -0.7427  0.4273
  249MOL0     C32769  13.639  10.501   6.534 -0.0535 -0.1150 -0.5875
  249MOL0     C32770  13.764  10.508   6.605 -0.8213  0.4514 -0.0892
  249MOL0     O32771  13.866  10.600   6.577  0.0132 -0.0432  0.8618
  249MOL0     C32772  13.836  10.704   6.474 -0.4975 -0.5432 -0.1996
  249MOL0     C32773  13.933  10.821   6.508  0.6781 -0.2380  1.0929
  249MOL0     C32774  14.082  10.797   6.476 -0.7282 -0.4327 -0.0902
  249MOL0     C32775  14.176  10.919   6.501  0.1818  0.4280  0.9644
  249MOL0     C32776  14.148  11.030   6.397 -0.3637  0.2190 -0.0172
  249MOL0     C32777  14.216  11.157   6.455  0.6833 -0.6857  0.6267
  249MOL0     C32778  14.365  11.154   6.425 -1.0096  0.7399  0.1241
  249MOL0     C32779  14.417  11.289   6.458  0.3132 -0.6652 -0.2659
  249MOL0    Cl32780  14.578  11.301   6.403  0.2937  0.1327 -0.1436
  249MOL0     C32781  13.791  10.420   6.713 -0.2736 -0.6090 -1.0614
  249MOL0     C32782  13.685  10.336   6.763 -0.5924 -0.0673 -0.4793
  249MOL0     O32783  13.350  10.461   6.836 -0.1357 -0.1285  1.4447
  249MOL0     C32784  13.138  10.318   6.937  0.9432  0.4524 -0.6145
  249MOL0     C32785  13.022  10.248   6.975 -0.9043  0.5239  0.5763
  249MOL0     N32786  12.393   9.810   7.304 -0.0158 -0.3182 -0.5090
  249MOL0     N32787  12.360   9.873   7.411 -0.8064  0.0970  0.1052
  249MOL0     C32788  11.722  10.208   8.344 -0.4161  0.0942 -0.6806
  249MOL0     C32789  11.583  10.180   8.335 -0.3349 -0.0225  0.7691
  249MOL0     C32790  11.162  10.187   8.151  0.0935  0.1699 -0.2120
  249MOL0     C32791  11.117  10.072   8.233 -0.9919 -0.2824  0.5234
  249MOL0     C32792  10.979  10.043   8.246 -0.7275  0.1961  0.2799
  249MOL0     C32793  10.888  10.119   8.173 -0.2709 -0.1956  0.0640
  249MOL0     O32794  10.753  10.115   8.168  0.5862  0.1950  0.9510
  249MOL0     C32795  10.686  10.067   8.288 -0.6375  0.3281  0.1931
  249MOL0     C32796  10.649  10.176   8.385  0.0134  0.1250 -0.7294
  249MOL0     C32797  10.511  10.149   8.447  0.2918 -0.3631  0.2272
  249MOL0     C32798  10.516  10.053   8.566 -0.6800 -0.8216 -0.4191
  249MOL0     C32799  10.558   9.918   8.520  0.2075  0.2626  0.1420
  249MOL0     C32800  10.601   9.812   8.480  0.4656  0.0759 -0.8102
  249MOL0     C32801  10.930  10.224   8.092  0.3544  0.3856  0.3931
  249MOL0     C32802  11.061  10.255   8.081  0.1575  0.7371  0.8330
  249MOL0     H32803  11.553  10.194   7.989  1.3605  2.0784 -0.8587
  249MOL0     H32804  11.789  10.268   8.019  4.7841 -0.0030  3.5470
  249MOL0     H32805  11.994  10.445   8.292 -1.9121 -0.3836  0.4332
  249MOL0     H32806  11.890  10.443   8.142  2.5605  2.0589 -1.1612
  249MOL0     H32807  12.174  10.349   8.196 -0.6890  0.3744 -0.0111
  249MOL0     H32808  12.135  10.471   8.080  0.6434  0.3355  0.6452
  249MOL0     H32809  12.013  10.307   7.938 -0.3305  1.7530  1.4895
  249MOL0     H32810  12.067  10.173   8.046 -0.1667 -0.5781 -1.7705
  249MOL0     H32811  12.284  10.341   7.910  0.3656 -0.8822 -1.6873
  249MOL0     H32812  12.297  10.184   7.991  1.0184  0.5790  0.2623
  249MOL0     H32813  12.143  10.267   7.741 -1.6752  1.8018  2.8284
  249MOL0     H32814  12.131  10.099   7.810 -0.6446  0.1515  2.2239
  249MOL0     H32815  12.363  10.065   7.793 -1.5356  1.4050  1.0848
  249MOL0     H32816  12.390  10.218   7.718  1.2123 -0.3239  1.0949
  249MOL0     H32817  12.261   9.981   7.597 -0.3700 -0.0009  0.6231
  249MOL0     H32818  12.197  10.132   7.556  0.0117 -0.5473  1.4147
  249MOL0     H32819  12.497  10.058   7.566 -0.7052  1.4034  1.5858
  249MOL0     H32820  12.440  10.201   7.483 -1.3721 -0.0414 -1.7876
  249MOL0     H32821  12.520  10.116   7.261  0.5176 -1.0688 -1.4260
  249MOL0     H32822  12.468   9.929   6.999 -2.1728  1.2754  2.7132
  249MOL0     H32823  12.483   9.764   7.067  0.4046 -0.8549  1.3609
  249MOL0     H32824  12.703   9.819   7.148 -1.5086 -0.5317  0.0804
  249MOL0     H32825  12.698   9.989   7.113  0.2075 -0.9025  1.1310
  249MOL0     H32826  12.710   9.769   6.907  0.8498 -0.8436  2.5473
  249MOL0     H32827  12.659   9.935   6.866  1.1048  3.4201  2.3751
  249MOL0     H32828  12.891   9.911   6.801 -2.4066  1.9943 -0.2684
  249MOL0     H32829  12.941   9.852   6.956 -1.3077 -1.3070 -0.9695
  249MOL0     H32830  13.106   9.968   6.795  1.2459  0.9793 -2.5597
  249MOL0     H32831  13.297  10.085   6.757 -0.7019 -2.0880  1.4165
  249MOL0     H32832  13.433  10.418   6.555 -0.0345 -0.6922  1.0711
  249MOL0     H32833  13.613  10.551   6.442  1.8021  1.1528 -0.4719
  249MOL0     H32834  13.732  10.735   6.490 -0.2709 -0.3109  0.9187
  249MOL0     H32835  13.846  10.675   6.369  0.6327  3.8816 -1.5636
  249MOL0     H32836  13.918  10.864   6.607 -1.6945  1.1574  0.2286
  249MOL0     H32837  13.893  10.905   6.450  3.4881  0.2353 -0.3360
  249MOL0     H32838  14.078  10.763   6.372 -2.4805 -0.4478 -0.0469
  249MOL0     H32839  14.117  10.719   6.545  1.0749  0.5225  0.1233
  249MOL0     H32840  14.164  10.961   6.601  0.3175  0.1210  1.1087
  249MOL0     H32841  14.279  10.886   6.487  0.7422  2.2400  0.4791
  249MOL0     H32842  14.041  11.051   6.389 -0.0247  2.3722  0.3182
  249MOL0     H32843  14.195  11.010   6.300  0.4057  4.6194 -0.7796
  249MOL0     H32844  14.209  11.166   6.564  3.5842 -1.5531  0.9909
  249MOL0     H32845  14.166  11.237   6.399 -2.3773 -3.9419 -1.7026
  249MOL0     H32846  14.414  11.072   6.478 -2.0620 -0.5975 -0.9031
  249MOL0     H32847  14.373  11.140   6.317 -1.3469  1.8692 -0.0590
  249MOL0     H32848  14.410  11.309   6.565  0.0191  0.7036 -0.5154
  249MOL0     H32849  14.346  11.358   6.411 -4.0093 -2.4805  2.8336
  249MOL0     H32850  13.888  10.412   6.760 -0.5408 -0.6022 -0.5038
  249MOL0     H32851  13.696  10.271   6.849  0.8406 -0.4677 -0.9547
  249MOL0     H32852  13.143  10.421   6.973  1.1687 -0.1456  1.1636
  249MOL0     H32853  12.939  10.286   7.034 -1.9023  0.4000 -0.7079
  249MOL0     H32854  11.772  10.198   8.439  1.0518  0.0161 -1.4352
  249MOL0     H32855  11.516  10.165   8.420  1.4847 -3.2357  1.8393
  249MOL0     H32856  11.195  10.026   8.293  1.8703  2.4729 -0.7745
  249MOL0     H32857  10.948   9.966   8.317  0.5797 -1.4273 -0.8223
  249MOL0     H32858  10.738   9.982   8.334 -1.7307 -0.5113 -0.0927
  249MOL0     H32859  10.589  10.026   8.258 -0.2080 -0.2290 -0.4577
  249MOL0     H32860  10.726  10.179   8.462 -1.7804 -2.9353  1.3859
  249MOL0     H32861  10.648  10.267   8.324  0.0066 -0.2014 -1.2297
  249MOL0     H32862  10.443  10.103   8.374 -0.7153 -2.7566  2.4933
  249MOL0     H32863  10.468  10.246   8.473 -3.7820 -2.0250  0.5450
  249MOL0     H32864  10.585  10.098   8.637  0.1695 -0.4396 -1.4660
  249MOL0     H32865  10.423  10.045   8.624  0.3352 -2.4107  1.0778
  249MOL0     H32866  10.645   9.719   8.452  1.3792 -0.0258  0.8100
  249MOL0     H32867  10.862  10.283   8.031  1.3970 -1.9820 -3.4244
  249MOL0     H32868  11.064  10.348   8.026 -1.6481  0.0467 -0.5478
  250MOL0     O32869  10.561   8.146  11.318  0.3753  0.1358 -0.2121
  250MOL0     C32870  10.598   8.196  11.217 -0.8327 -0.6961  0.0248
  250MOL0     O32871  10.521   8.269  11.127  0.7826 -1.1067 -0.1455
  250MOL0     C32872  10.398   8.327  11.162 -0.0524  0.3576 -1.5877
  250MOL0     C32873  10.338   8.326  11.291 -0.5730 -1.1188 -0.1205
  250MOL0     C32874  10.216   8.384  11.326  0.6671 -0.8082  0.3826
  250MOL0     C32875  10.136   8.442  11.225 -1.0621 -0.2733 -0.8070
  250MOL0     O32876  10.014   8.493  11.252  0.5718 -0.6018  0.2985
  250MOL0     C32877   9.997   8.637  11.209 -0.0118 -0.1680 -0.1072
  250MOL0     C32878  10.042   8.744  11.307 -0.0446  0.3807 -0.1222
  250MOL0     C32879  10.024   8.881  11.248  0.1461 -0.0657  0.3290
  250MOL0     C32880   9.881   8.935  11.267 -0.6612 -0.5741 -0.1288
  250MOL0     C32881   9.869   9.085  11.225  0.2885  0.8686 -0.4402
  250MOL0     C32882   9.721   9.117  11.210 -0.9790  0.6221  0.8670
  250MOL0     C32883   9.695   9.268  11.194 -0.8151  0.8964 -0.2317
  250MOL0     C32884   9.542   9.295  11.157  0.1517 -0.3588 -0.8927
  250MOL0     N32885   9.466   9.314  11.272 -0.3877 -0.3622 -0.4229
  250MOL0     C32886   9.458   9.435  11.339 -0.2355 -0.8566  0.1611
  250MOL0     C32887   9.353   9.410  11.432 -0.2499  0.0249  0.2923
  250MOL0     C32888   9.279   9.508  11.527  0.4547  0.0791  0.1575
  250MOL0     C32889   9.133   9.521  11.491 -0.8678 -0.0500  0.0463
  250MOL0     C32890   9.046   9.403  11.535 -0.8255 -0.1924 -0.3296
  250MOL0     C32891   8.905   9.417  11.489 -0.4006  0.5845 -0.3409
  250MOL0     O32892   8.846   9.547  11.528 -0.0525 -0.7185 -0.4307
  250MOL0     C32893   8.708   9.564  11.538 -0.5324 -0.1381 -0.7667
  250MOL0     C32894   8.610   9.470  11.498 -0.0241 -0.1863 -0.2844
  250MOL0     C32895   8.470   9.490  11.497  0.3599 -0.9135  0.7564
  250MOL0     C32896   8.424   9.621  11.536 -0.9863  0.9971  0.2372
  250MOL0     C32897   8.290   9.652  11.515  0.0407  0.1530  0.2175
  250MOL0     O32898   8.205   9.547  11.487 -0.1976 -0.4122 -0.1749
  250MOL0     C32899   8.070   9.550  11.456 -0.1634  0.6753  0.9334
  250MOL0     C32900   7.981   9.653  11.476  0.1827  0.1473 -0.1338
  250MOL0     C32901   7.843   9.648  11.452 -0.0568  0.4923 -0.0872
  250MOL0     C32902   7.798   9.530  11.394  0.1032  0.0950  0.1920
  250MOL0     O32903   7.660   9.513  11.354  1.1845  0.0135 -0.3518
  250MOL0     C32904   7.562   9.598  11.420  0.4234  0.2855 -0.3416
  250MOL0     C32905   7.463   9.506  11.470 -0.3455  0.4582  0.2355
  250MOL0     C32906   7.381   9.568  11.585 -0.1238  0.5263 -0.0628
  250MOL0     C32907   7.337   9.450  11.668 -0.2232 -0.0594  0.3946
  250MOL0     C32908   7.234   9.351  11.615 -0.4520  0.6612  0.0903
  250MOL0     C32909   7.097   9.418  11.578 -0.5253  0.4302 -0.1165
  250MOL0     C32910   7.004   9.316  11.512  0.7285 -0.4461 -0.5954
  250MOL0     C32911   6.875   9.372  11.476  0.7582 -0.4149  0.2508
  250MOL0    Cl32912   6.783   9.395  11.638 -0.1119 -0.0555  0.0898
  250MOL0     C32913   7.887   9.431  11.357  0.0018 -0.3481 -0.2074
  250MOL0     C32914   8.018   9.442  11.389  0.7497  0.3153  1.1612
  250MOL0     O32915   8.259   9.766  11.535  0.2742  1.0636  0.9134
  250MOL0     C32916   8.522   9.723  11.580 -0.4755  0.1079 -0.9610
  250MOL0     C32917   8.666   9.691  11.585 -0.0308  0.6364  0.3873
  250MOL0     N32918   9.306   9.275  11.417  0.5403  0.3782  0.5764
  250MOL0     N32919   9.375   9.223  11.326 -0.4360 -0.5490 -0.2714
  250MOL0     C32920  10.193   8.446  11.098 -0.2755  0.2004 -0.2075
  250MOL0     C32921  10.327   8.392  11.062 -0.2353 -0.7969  0.3375
  250MOL0     C32922  10.748   8.197  11.193  0.2645  0.1836  0.2798
  250MOL0     C32923  10.841   8.131  11.279 -0.0011 -0.6741  0.1109
  250MOL0     C32924  10.977   8.155  11.265 -0.2867  0.7946 -0.5665
  250MOL0     C32925  11.024   8.241  11.166 -0.0549 -1.1246  0.0254
  250MOL0     O32926  11.163   8.251  11.161 -0.2054 -0.1116  0.3476
  250MOL0     C32927  11.214   8.351  11.076 -0.4257 -0.4273  0.1090
  250MOL0     C32928  11.372   8.336  11.064  0.0473 -0.4943 -0.1863
  250MOL0     C32929  11.430   8.202  11.076 -0.3098  0.6943 -0.5297
  250MOL0     C32930  11.577   8.208  11.041  0.2625  0.0204  0.7496
  250MOL0     C32931  11.635   8.075  11.027  0.1373 -0.6649 -0.4883
  250MOL0     C32932  11.665   7.958  11.024 -0.3949 -0.3175 -0.2964
  250MOL0     C32933  10.929   8.310  11.085 -1.1172  0.7064  0.2251
  250MOL0     C32934  10.797   8.289  11.108  0.2713  0.0438  0.3026
  250MOL0     H32935  10.391   8.282  11.376 -0.8094 -0.4364  0.3894
  250MOL0     H32936  10.167   8.365  11.421  0.9284  1.8415  1.1235
  250MOL0     H32937   9.894   8.657  11.181  0.6557  0.1824 -2.4961
  250MOL0     H32938  10.051   8.657  11.116  0.7706  0.4377  0.4614
  250MOL0     H32939  10.150   8.737  11.328  0.0393 -0.6139 -0.8302
  250MOL0     H32940   9.993   8.726  11.403  0.0898  0.4593 -0.0381
  250MOL0     H32941  10.038   8.870  11.141 -0.7254 -1.7007  0.3512
  250MOL0     H32942  10.093   8.953  11.293 -0.7145  0.2499  1.1865
  250MOL0     H32943   9.813   8.868  11.213 -0.0620 -0.9793 -0.3917
  250MOL0     H32944   9.856   8.924  11.372 -0.1585 -1.1461 -0.0684
  250MOL0     H32945   9.922   9.097  11.131 -1.4949 -0.8672 -1.7487
  250MOL0     H32946   9.919   9.158  11.289 -2.3226  2.3205  0.1020
  250MOL0     H32947   9.680   9.081  11.304  1.3071  3.0109  2.9368
  250MOL0     H32948   9.685   9.055  11.126  4.2746 -6.5162  2.8186
  250MOL0     H32949   9.724   9.312  11.290  3.3016 -0.4825 -0.6430
  250MOL0     H32950   9.768   9.319  11.130 -0.9144  1.4262  0.0717
  250MOL0     H32951   9.506   9.212  11.095  2.4016 -3.4717  1.6177
  250MOL0     H32952   9.537   9.392  11.106 -2.1100 -0.2237 -0.5235
  250MOL0     H32953   9.513   9.524  11.311 -1.5995  0.0234  0.1401
  250MOL0     H32954   9.338   9.600  11.530 -1.9619  1.7635 -0.8474
  250MOL0     H32955   9.287   9.468  11.629 -1.6738 -0.5230  0.1274
  250MOL0     H32956   9.129   9.537  11.383 -1.3868 -0.7229 -0.0441
  250MOL0     H32957   9.098   9.613  11.539 -1.8003 -0.9110  1.0714
  250MOL0     H32958   9.086   9.315  11.484  2.1737 -0.5677  2.3654
  250MOL0     H32959   9.058   9.382  11.642 -2.3213 -1.7049 -0.4133
  250MOL0     H32960   8.849   9.337  11.538  1.6424 -0.7522 -0.0483
  250MOL0     H32961   8.902   9.394  11.382  3.7028 -2.4633 -0.0161
  250MOL0     H32962   8.636   9.369  11.468  2.9576  0.1626  0.8005
  250MOL0     H32963   8.395   9.421  11.461  0.0929  0.7356 -2.1304
  250MOL0     H32964   8.023   9.739  11.529 -1.0984 -0.3968  1.8757
  250MOL0     H32965   7.787   9.740  11.471  3.7145  2.5168  2.7906
  250MOL0     H32966   7.518   9.680  11.363 -0.0822  1.3862  1.5399
  250MOL0     H32967   7.608   9.643  11.509 -1.4793  0.6215  0.5254
  250MOL0     H32968   7.520   9.417  11.499 -0.8705  0.3430  0.9200
  250MOL0     H32969   7.404   9.465  11.388 -1.2849 -1.3149  1.7222
  250MOL0     H32970   7.298   9.607  11.525  0.2521  0.2404 -0.7889
  250MOL0     H32971   7.431   9.642  11.649 -1.5599 -0.4602  2.3381
  250MOL0     H32972   7.427   9.398  11.703  0.2003  1.7484  2.1727
  250MOL0     H32973   7.303   9.494  11.762 -0.3753 -2.1893  1.3922
  250MOL0     H32974   7.210   9.274  11.689  1.2170 -2.1734 -2.1123
  250MOL0     H32975   7.276   9.295  11.531  0.1137  1.7702 -0.3829
  250MOL0     H32976   7.125   9.490  11.500  0.1428  0.3532  0.0438
  250MOL0     H32977   7.034   9.452  11.660 -0.3905  1.0180 -0.2486
  250MOL0     H32978   7.042   9.273  11.420 -1.4774  1.4126 -2.5130
  250MOL0     H32979   6.987   9.240  11.589  2.5336 -0.8041 -0.5031
  250MOL0     H32980   6.813   9.303  11.419 -3.1935  2.7770  0.2088
  250MOL0     H32981   6.868   9.459  11.410 -1.9118  0.8816  2.0402
  250MOL0     H32982   7.853   9.343  11.304  0.1221 -1.3183  1.2881
  250MOL0     H32983   8.069   9.349  11.367 -2.7884 -2.1330  2.4983
  250MOL0     H32984   8.498   9.825  11.608  0.1456  0.4018 -1.4731
  250MOL0     H32985   8.744   9.758  11.619  1.0796 -0.4043 -0.0355
  250MOL0     H32986  10.131   8.488  11.020 -1.4367 -1.6391 -0.3342
  250MOL0     H32987  10.381   8.410  10.969  5.0830 -1.1708  3.0003
  250MOL0     H32988  10.800   8.061  11.352 -0.6718  1.7149  2.1652
  250MOL0     H32989  11.052   8.109  11.328 -0.1558  2.7459  0.7489
  250MOL0     H32990  11.190   8.451  11.115  0.7739  0.3343 -1.0055
  250MOL0     H32991  11.172   8.359  10.975 -0.9838 -0.9730  0.2991
  250MOL0     H32992  11.406   8.378  10.968  3.6367  0.5458  1.3697
  250MOL0     H32993  11.423   8.398  11.138 -2.7171 -0.2547  1.6384
  250MOL0     H32994  11.374   8.148  10.998  1.6627  0.4645 -1.8847
  250MOL0     H32995  11.412   8.169  11.179  1.7549 -0.9603 -0.6284
  250MOL0     H32996  11.579   8.260  10.945 -0.5511  1.9282  1.7136
  250MOL0     H32997  11.624   8.264  11.122  1.6531 -1.3284  0.9172
  250MOL0     H32998  11.703   7.861  11.046  0.1471  0.1525  0.9070
  250MOL0     H32999  10.963   8.377  11.008  1.6740  0.1394  0.8182
  250MOL0     H33000  10.728   8.347  11.047  2.1892  1.8627 -0.2562
  251MOL0     O33001   8.718   0.227   9.740 -0.3755 -0.1773  0.7627
  251MOL0     C33002   8.773   0.121   9.749  0.5425 -0.3131  0.9237
  251MOL0     O33003   8.704   0.004   9.774  0.6114 -1.1616  0.2634
  251MOL0     C33004   8.570  -0.013   9.791 -0.2939 -1.2174  0.2796
  251MOL0     C33005   8.481   0.078   9.738  0.9006 -0.0036 -0.5471
  251MOL0     C33006   8.339   0.056   9.732 -0.1005 -0.2486 -0.0211
  251MOL0     C33007   8.289  -0.066   9.778  0.4114 -0.2205 -0.7230
  251MOL0     O33008   8.160  -0.101   9.759  0.2967  0.2162  0.3079
  251MOL0     C33009   8.072  -0.010   9.817  0.0787  0.2788 -0.4969
  251MOL0     C33010   7.937  -0.065   9.801 -0.3567 -0.4624 -0.2941
  251MOL0     C33011   7.882  -0.074   9.660  0.2520  0.0523  0.6446
  251MOL0     C33012   7.820   0.070   9.620  0.1162 -0.2154  0.4721
  251MOL0     C33013   7.752   0.059   9.490 -1.2049  0.0742  0.6993
  251MOL0     C33014   7.606   0.039   9.473  0.8928 -0.0389  0.0193
  251MOL0     C33015   7.532   0.157   9.531 -0.1058 -0.2635  0.9159
  251MOL0     C33016   7.377   0.133   9.520  0.3708 -0.6024 -0.1905
  251MOL0     N33017   7.339   0.147   9.375  0.0030 -0.1375  0.0141
  251MOL0     C33018   7.264   0.244   9.320 -0.6594 -0.0202 -0.3334
  251MOL0     C33019   7.217   0.210   9.205  0.1371 -0.0605  0.0401
  251MOL0     C33020   7.137   0.285   9.098  0.2133 -0.6202 -0.4812
  251MOL0     C33021   7.142   0.435   9.109  0.3714  0.4459  0.5054
  251MOL0     C33022   7.059   0.498   8.996  0.7524 -0.4718  0.8965
  251MOL0     C33023   6.909   0.517   9.022 -0.1391 -0.3600  0.0865
  251MOL0     O33024   6.883   0.619   9.120  0.3974 -0.3286  0.1095
  251MOL0     C33025   6.762   0.672   9.140 -0.3993 -0.0051  0.1638
  251MOL0     C33026   6.772   0.805   9.180  0.3783  0.7866 -0.2025
  251MOL0     C33027   6.658   0.888   9.183 -0.5000 -0.1244  0.4035
  251MOL0     C33028   6.536   0.829   9.141  0.5640  0.6711  0.6647
  251MOL0     C33029   6.412   0.925   9.141 -0.0519 -0.1308 -0.0888
  251MOL0     O33030   6.301   0.878   9.088 -0.3428 -0.2150 -0.6696
  251MOL0     C33031   6.195   0.966   9.065 -0.4082  0.0793  0.2972
  251MOL0     C33032   6.179   1.104   9.091  0.1960  0.2111 -0.1047
  251MOL0     C33033   6.053   1.169   9.067 -0.4545  0.2151 -0.3277
  251MOL0     C33034   5.942   1.098   9.024 -0.6719 -0.3558  0.1951
  251MOL0     O33035   5.825   1.154   9.008 -0.3248 -0.4448 -0.0682
  251MOL0     C33036   5.777   1.241   9.112  0.7922  0.3073  0.1772
  251MOL0     C33037   5.623   1.211   9.127  0.0798 -0.3283  0.3616
  251MOL0     C33038   5.596   1.075   9.198  0.1818  0.3264 -0.1068
  251MOL0     C33039   5.446   1.054   9.217  0.0192 -1.3064 -1.1361
  251MOL0     C33040   5.384   0.971   9.109 -0.3892  0.3281  0.2054
  251MOL0     C33041   5.299   1.070   9.017  0.7247  0.0415  0.0558
  251MOL0     C33042   5.192   0.989   8.949 -0.6748  0.2785 -0.5693
  251MOL0     C33043   5.073   0.931   9.038 -0.6678  0.4831  0.4231
  251MOL0    Cl33044   4.946   1.048   9.065  0.3429 -0.0569 -0.1336
  251MOL0     C33045   5.962   0.964   8.995  0.7167  0.0176 -0.7361
  251MOL0     C33046   6.083   0.905   9.014  0.2519  0.1018  0.3871
  251MOL0     O33047   6.420   1.037   9.187 -0.1366 -0.0231 -0.3269
  251MOL0     C33048   6.534   0.694   9.097  1.0306 -0.3591 -0.4950
  251MOL0     C33049   6.650   0.612   9.099 -0.3186  0.0027  0.2161
  251MOL0     N33050   7.249   0.072   9.196  0.0948  0.3529  0.4322
  251MOL0     N33051   7.317   0.037   9.297  1.9433  0.7293 -0.3181
  251MOL0     C33052   8.381  -0.161   9.828 -0.2405  0.2008  0.2487
  251MOL0     C33053   8.518  -0.130   9.840  0.2318  0.7734 -0.1342
  251MOL0     C33054   8.920   0.107   9.744  0.4391  0.1052 -0.8749
  251MOL0     C33055   9.008   0.210   9.773  0.2370 -0.1914  0.3977
  251MOL0     C33056   9.151   0.195   9.763  0.0047  0.3368 -0.0114
  251MOL0     C33057   9.201   0.060   9.740  0.2780 -0.8214 -0.8826
  251MOL0     O33058   9.332   0.025   9.740 -0.6157  0.1828  0.3659
  251MOL0     C33059   9.434   0.131   9.742 -0.4026 -0.4132 -0.3146
  251MOL0     C33060   9.577   0.070   9.753 -0.6719 -0.7636  0.2203
  251MOL0     C33061   9.622  -0.044   9.658  1.0402 -0.2054 -0.6281
  251MOL0     C33062   9.732  -0.119   9.720  0.9234 -1.0911  0.9050
  251MOL0     C33063   9.852  -0.033   9.723 -0.0039 -0.3423 -0.1240
  251MOL0     C33064   9.954   0.030   9.714 -0.3939  0.4338  0.0307
  251MOL0     C33065   9.110  -0.041   9.725 -0.0363 -0.0946  0.1943
  251MOL0     C33066   8.972  -0.018   9.726 -0.2413  0.5389 -0.1652
  251MOL0     H33067   8.503   0.163   9.673 -3.3226  1.2317 -0.6748
  251MOL0     H33068   8.278   0.123   9.671  1.4007  1.4641  0.2656
  251MOL0     H33069   8.095   0.086   9.771 -1.2632  0.7388 -0.2533
  251MOL0     H33070   8.100   0.001   9.923 -1.3369  0.9840 -0.1694
  251MOL0     H33071   7.870  -0.001   9.858  1.4387  0.0199  1.3822
  251MOL0     H33072   7.924  -0.160   9.855  0.3401  0.8830  2.3991
  251MOL0     H33073   7.808  -0.154   9.656  1.3634 -1.0471  1.0962
  251MOL0     H33074   7.961  -0.093   9.586  0.1302  0.8695  0.2983
  251MOL0     H33075   7.746   0.088   9.698 -0.4103 -1.0802  0.1823
  251MOL0     H33076   7.893   0.152   9.623 -1.7542  1.6651 -1.4564
  251MOL0     H33077   7.788  -0.035   9.446 -0.3178 -0.3262  2.2139
  251MOL0     H33078   7.786   0.144   9.430 -1.6626  1.2111  1.9939
  251MOL0     H33079   7.577  -0.056   9.518 -3.1797  0.9493 -0.0827
  251MOL0     H33080   7.576   0.033   9.368  1.3495  0.1444 -0.1259
  251MOL0     H33081   7.548   0.187   9.635 -1.9057  1.2522  0.8150
  251MOL0     H33082   7.542   0.252   9.477  0.4821 -2.7410 -3.9339
  251MOL0     H33083   7.322   0.204   9.582 -0.9707 -1.2302 -0.6017
  251MOL0     H33084   7.364   0.029   9.551 -2.4437 -0.9018 -2.0034
  251MOL0     H33085   7.253   0.344   9.361 -1.0784  0.3754 -1.3832
  251MOL0     H33086   7.035   0.248   9.105  0.9583 -2.6823  0.0936
  251MOL0     H33087   7.180   0.262   9.000 -2.0280 -0.7957 -1.4897
  251MOL0     H33088   7.247   0.450   9.083  0.6751  1.1977  2.0584
  251MOL0     H33089   7.117   0.475   9.207 -2.3507 -1.1643  0.5648
  251MOL0     H33090   7.104   0.597   8.984 -1.1643  0.2884 -0.3955
  251MOL0     H33091   7.061   0.428   8.912 -0.9768  0.9216 -0.3811
  251MOL0     H33092   6.878   0.415   9.042 -0.4735 -0.3605 -0.4101
  251MOL0     H33093   6.861   0.544   8.927 -1.9026 -0.4792  0.9112
  251MOL0     H33094   6.864   0.848   9.217  0.6677  0.5835 -0.6639
  251MOL0     H33095   6.673   0.985   9.230 -1.4881 -1.2718  3.2836
  251MOL0     H33096   6.246   1.180   9.130 -1.0850  1.6506 -0.6259
  251MOL0     H33097   6.039   1.277   9.076 -2.3732  0.3998 -3.9171
  251MOL0     H33098   5.774   1.345   9.081  0.8097  0.9529  2.1878
  251MOL0     H33099   5.819   1.213   9.210 -1.7053 -0.9801  0.9547
  251MOL0     H33100   5.571   1.208   9.031 -2.7535 -1.4971  1.8012
  251MOL0     H33101   5.587   1.292   9.192  1.7617  0.7876 -0.0283
  251MOL0     H33102   5.651   1.067   9.292  1.2107 -0.9821 -0.7890
  251MOL0     H33103   5.640   0.992   9.143 -2.7791 -0.0404 -2.1896
  251MOL0     H33104   5.426   1.013   9.316 -0.0935  0.8399 -0.2084
  251MOL0     H33105   5.397   1.151   9.230  2.4206  0.7002 -5.2106
  251MOL0     H33106   5.326   0.891   9.156 -1.1445  0.0020 -1.2284
  251MOL0     H33107   5.461   0.922   9.048  0.8275  1.0633  1.0925
  251MOL0     H33108   5.363   1.109   8.938  1.7076  1.7400  1.6042
  251MOL0     H33109   5.249   1.148   9.075  2.3477  1.1015  0.0808
  251MOL0     H33110   5.147   1.050   8.871 -2.1481 -0.2557 -0.1597
  251MOL0     H33111   5.235   0.901   8.899 -2.0182 -0.7603  0.0479
  251MOL0     H33112   5.102   0.891   9.135 -1.7243  0.1553  0.6083
  251MOL0     H33113   5.026   0.852   8.978 -1.8742  0.0581  1.8982
  251MOL0     H33114   5.885   0.908   8.943 -0.1030  1.0456 -0.6626
  251MOL0     H33115   6.081   0.800   8.984  0.5977 -0.2532  1.5427
  251MOL0     H33116   6.438   0.656   9.065 -0.6492  3.0695 -0.0125
  251MOL0     H33117   6.646   0.508   9.067  0.1640 -1.0240  3.1591
  251MOL0     H33118   8.346  -0.255   9.869 -0.5550  1.2823  2.6810
  251MOL0     H33119   8.585  -0.213   9.860 -1.8873 -1.0387 -0.0605
  251MOL0     H33120   8.973   0.310   9.798  1.8771  0.4331  0.3754
  251MOL0     H33121   9.222   0.274   9.782 -0.0312 -0.0145  1.8133
  251MOL0     H33122   9.419   0.203   9.823  0.0185 -2.0440  1.2988
  251MOL0     H33123   9.420   0.173   9.643 -3.8318  0.0991  0.2719
  251MOL0     H33124   9.638   0.160   9.742  1.0892 -1.4725  3.3141
  251MOL0     H33125   9.606   0.046   9.855  3.4209  3.2685  0.2969
  251MOL0     H33126   9.655  -0.004   9.562 -0.0186 -0.8249 -1.2652
  251MOL0     H33127   9.533  -0.105   9.643  0.3979  0.4966  0.2148
  251MOL0     H33128   9.714  -0.156   9.822 -1.2669 -0.8284  0.6677
  251MOL0     H33129   9.762  -0.199   9.652  2.4162 -1.6735  2.1686
  251MOL0     H33130  10.046   0.084   9.714 -0.4172  0.4712  0.2839
  251MOL0     H33131   9.145  -0.144   9.728 -2.3421 -0.9037  1.7911
  251MOL0     H33132   8.904  -0.100   9.703  0.4033  0.1620 -0.7921
  252MOL0     O33133   0.035   7.045   0.531 -0.8060  0.0672 -0.7584
  252MOL0     C33134   0.074   7.046   0.645  0.3134  0.0841  0.0169
  252MOL0     O33135   0.011   7.015   0.757  0.0005  0.4561  0.0197
  252MOL0     C33136  -0.130   7.033   0.752 -0.1848  0.7868 -1.2997
  252MOL0     C33137  -0.215   7.095   0.664 -0.2008 -0.3496  0.2298
  252MOL0     C33138  -0.354   7.080   0.658 -0.3000  0.5909  0.6688
  252MOL0     C33139  -0.413   7.009   0.762  0.4310 -0.5426 -0.6975
  252MOL0     O33140  -0.550   6.986   0.771  0.0544  0.5091  0.3976
  252MOL0     C33141  -0.641   7.052   0.674  0.1205 -0.3411 -0.2608
  252MOL0     C33142  -0.783   6.994   0.706  0.2569 -1.0049  0.2887
  252MOL0     C33143  -0.800   6.841   0.708 -0.1375  0.9790 -0.3334
  252MOL0     C33144  -0.787   6.775   0.571 -0.3103  0.9244  0.1949
  252MOL0     C33145  -0.651   6.737   0.524 -0.2797 -0.4669  0.3837
  252MOL0     C33146  -0.653   6.690   0.376 -0.2306 -0.7507  0.9116
  252MOL0     C33147  -0.522   6.632   0.329  0.1054  0.5582  0.4007
  252MOL0     C33148  -0.535   6.481   0.318 -1.2040  0.1573 -0.1980
  252MOL0     N33149  -0.609   6.441   0.194 -0.5244  0.3004 -0.1656
  252MOL0     C33150  -0.697   6.333   0.182  0.5215  1.1538 -0.4905
  252MOL0     C33151  -0.716   6.329   0.051 -0.7097 -0.3069  0.9096
  252MOL0     C33152  -0.798   6.231  -0.024  0.4904  0.6733  0.0727
  252MOL0     C33153  -0.948   6.266  -0.025 -0.1656  0.5360  0.4895
  252MOL0     C33154  -1.036   6.139  -0.042 -0.2868 -0.9051  0.8234
  252MOL0     C33155  -1.188   6.160  -0.077 -0.3389 -0.1758 -0.1760
  252MOL0     O33156  -1.264   6.202   0.042 -0.6146 -0.5065  0.0666
  252MOL0     C33157  -1.392   6.180   0.024  0.3093  0.3640 -0.4029
  252MOL0     C33158  -1.458   6.117   0.123 -0.0969  0.6755 -0.4783
  252MOL0     C33159  -1.593   6.093   0.117 -0.2729 -0.2665  0.5108
  252MOL0     C33160  -1.673   6.147   0.010  0.7041 -0.1198  0.5930
  252MOL0     C33161  -1.822   6.141   0.024  0.1391 -0.0101 -0.2459
  252MOL0     O33162  -1.878   6.028   0.077 -0.6199 -0.1655 -0.5818
  252MOL0     C33163  -2.011   6.030   0.094 -0.0198 -0.3523  0.9011
  252MOL0     C33164  -2.106   6.006  -0.008 -1.0768  0.0855  0.1878
  252MOL0     C33165  -2.245   6.020   0.017 -0.6342  1.3635  0.1714
  252MOL0     C33166  -2.294   6.037   0.144  0.2835 -0.5315 -0.2152
  252MOL0     O33167  -2.433   6.036   0.157  0.4635  0.2108 -0.4697
  252MOL0     C33168  -2.496   6.063   0.285 -0.1379 -0.6927  0.0326
  252MOL0     C33169  -2.576   5.950   0.341  0.0893  0.7185 -0.3610
  252MOL0     C33170  -2.667   5.976   0.463  0.1253 -0.2232  0.6510
  252MOL0     C33171  -2.755   5.851   0.510 -0.7545 -0.9437  0.3796
  252MOL0     C33172  -2.862   5.889   0.610 -0.6152  0.2753 -0.3119
  252MOL0     C33173  -3.006   5.886   0.557 -0.3539  0.4652  0.3424
  252MOL0     C33174  -3.093   5.933   0.673 -1.0931 -0.0320 -0.2326
  252MOL0     C33175  -3.219   5.982   0.616  1.3853 -0.1591  0.7104
  252MOL0    Cl33176  -3.310   5.840   0.554  0.0775 -0.0614  0.5333
  252MOL0     C33177  -2.206   6.058   0.244 -0.1675  0.0642  0.9384
  252MOL0     C33178  -2.064   6.051   0.222  0.4649 -1.1062  0.6910
  252MOL0     O33179  -1.888   6.236  -0.021  0.0123  0.3150  0.4955
  252MOL0     C33180  -1.608   6.229  -0.087  0.6085  0.6528 -1.0215
  252MOL0     C33181  -1.468   6.239  -0.077  0.3523 -0.2544 -0.0271
  252MOL0     N33182  -0.646   6.429  -0.015 -0.3655 -0.5502 -0.7703
  252MOL0     N33183  -0.578   6.489   0.069 -0.3159 -0.1029 -0.3151
  252MOL0     C33184  -0.336   6.946   0.861  0.3213 -0.5793  0.0241
  252MOL0     C33185  -0.195   6.957   0.847  0.5800 -0.4637 -0.6268
  252MOL0     C33186   0.219   7.067   0.662  0.4027 -0.6614  0.7230
  252MOL0     C33187   0.271   7.131   0.778 -0.2191 -0.7423 -0.2840
  252MOL0     C33188   0.406   7.136   0.803 -0.0724 -0.9265  0.2740
  252MOL0     C33189   0.497   7.107   0.697  0.2269 -0.1227 -1.2270
  252MOL0     O33190   0.628   7.138   0.722 -0.8794  0.4330 -0.1642
  252MOL0     C33191   0.738   7.060   0.671  0.2870  0.0344  0.3026
  252MOL0     C33192   0.742   6.909   0.704  0.2202 -0.6487 -0.9201
  252MOL0     C33193   0.868   6.839   0.654 -0.5841  1.0141  0.0628
  252MOL0     C33194   0.877   6.703   0.717 -0.5882  0.2024  0.5663
  252MOL0     C33195   0.763   6.613   0.695  1.0757 -0.1229  0.4651
  252MOL0     C33196   0.662   6.538   0.688  0.2906  0.4423  0.1897
  252MOL0     C33197   0.452   7.051   0.578  0.2069  1.0863 -0.2254
  252MOL0     C33198   0.312   7.037   0.558 -0.3996 -0.1443  0.3798
  252MOL0     H33199  -0.163   7.162   0.596 -1.5643 -1.8329 -2.4248
  252MOL0     H33200  -0.412   7.128   0.580 -1.2039  0.9543  1.5541
  252MOL0     H33201  -0.620   7.036   0.568 -2.9528  2.5838 -1.4849
  252MOL0     H33202  -0.642   7.158   0.701  1.1244 -1.2596  4.3567
  252MOL0     H33203  -0.850   7.049   0.639 -0.2794 -0.5030  1.2117
  252MOL0     H33204  -0.824   7.042   0.795  1.2656 -1.3427  0.9557
  252MOL0     H33205  -0.901   6.810   0.736  1.2122 -2.7265  1.0936
  252MOL0     H33206  -0.733   6.816   0.791 -0.8835  2.6323  0.8368
  252MOL0     H33207  -0.841   6.681   0.587  0.9446  0.2348  0.4609
  252MOL0     H33208  -0.850   6.815   0.491 -1.9678 -1.9580 -0.1010
  252MOL0     H33209  -0.604   6.657   0.583  1.8004  0.1675 -0.3156
  252MOL0     H33210  -0.577   6.817   0.537  0.9875 -1.8986  2.8216
  252MOL0     H33211  -0.696   6.751   0.296 -4.9298 -2.2141  1.9738
  252MOL0     H33212  -0.732   6.617   0.394 -3.4337  2.0966 -0.4717
  252MOL0     H33213  -0.495   6.666   0.229 -0.9784 -0.4850 -0.2716
  252MOL0     H33214  -0.448   6.669   0.401 -2.0496  3.8141  1.1361
  252MOL0     H33215  -0.571   6.437   0.411  2.5552 -2.8233  0.1225
  252MOL0     H33216  -0.428   6.458   0.315 -0.7779  1.8408  0.9577
  252MOL0     H33217  -0.733   6.258   0.252  3.1798  0.0446 -0.1826
  252MOL0     H33218  -0.790   6.134   0.025 -2.2771  0.3443  0.0325
  252MOL0     H33219  -0.768   6.209  -0.127 -4.4922  0.2209 -1.5465
  252MOL0     H33220  -0.958   6.347  -0.098  1.3884 -1.0650 -1.6751
  252MOL0     H33221  -0.974   6.314   0.069  1.0148 -0.9183  1.6128
  252MOL0     H33222  -0.994   6.098  -0.135  3.3420  3.7091  0.0382
  252MOL0     H33223  -1.040   6.061   0.034 -1.8896 -0.7238  0.9644
  252MOL0     H33224  -1.230   6.067  -0.116 -1.3063  0.4011 -0.5779
  252MOL0     H33225  -1.199   6.232  -0.159 -0.7753  3.0075  2.4719
  252MOL0     H33226  -1.409   6.076   0.211 -0.6373  0.0098 -0.4775
  252MOL0     H33227  -1.631   6.033   0.199 -0.0140 -1.9656 -0.5590
  252MOL0     H33228  -2.083   5.962  -0.104 -3.4819 -5.0994  1.6269
  252MOL0     H33229  -2.309   5.991  -0.067  1.4777 -2.1384 -0.4370
  252MOL0     H33230  -2.556   6.152   0.264  2.3582  0.7923 -1.3167
  252MOL0     H33231  -2.430   6.095   0.366 -0.7878  0.2428  0.2176
  252MOL0     H33232  -2.504   5.869   0.360 -1.7053 -0.9491 -0.3994
  252MOL0     H33233  -2.641   5.906   0.265  0.0109  0.7893 -0.3341
  252MOL0     H33234  -2.734   6.061   0.445 -0.9446 -1.4769 -1.7275
  252MOL0     H33235  -2.605   5.998   0.550 -0.5582 -2.0146  1.6221
  252MOL0     H33236  -2.813   5.804   0.429 -0.5894  1.6313 -1.3541
  252MOL0     H33237  -2.690   5.780   0.561  1.4413 -1.1883 -2.5240
  252MOL0     H33238  -2.849   5.984   0.663 -3.1237  2.2814 -2.9302
  252MOL0     H33239  -2.848   5.813   0.688  4.3030  2.0789  0.9028
  252MOL0     H33240  -3.043   5.787   0.528 -0.0132  0.4099  0.0999
  252MOL0     H33241  -3.017   5.952   0.471 -2.2669  0.4792  0.5421
  252MOL0     H33242  -3.123   5.855   0.743 -0.5881  1.4058  1.6804
  252MOL0     H33243  -3.054   6.013   0.737 -3.8245  1.0705  0.2316
  252MOL0     H33244  -3.196   6.043   0.529 -0.0657  0.5449  0.7783
  252MOL0     H33245  -3.292   6.033   0.681  0.4705  1.4059 -1.4376
  252MOL0     H33246  -2.234   6.069   0.348 -1.4733 -0.1858  0.6187
  252MOL0     H33247  -1.994   6.062   0.304 -1.2873 -1.2174  2.2670
  252MOL0     H33248  -1.669   6.285  -0.157  1.9918  1.5893 -1.5185
  252MOL0     H33249  -1.401   6.292  -0.144 -1.6416  1.7240 -0.5841
  252MOL0     H33250  -0.373   6.884   0.943 -0.6343 -2.4780 -1.7448
  252MOL0     H33251  -0.138   6.892   0.913  2.4501  0.5335 -1.1983
  252MOL0     H33252   0.195   7.154   0.852 -1.9704 -2.2829 -1.4979
  252MOL0     H33253   0.455   7.170   0.895 -2.1222 -2.0519  1.8416
  252MOL0     H33254   0.831   7.102   0.711  0.2892  2.4404 -1.9062
  252MOL0     H33255   0.725   7.075   0.563  0.8308  0.2962  0.2706
  252MOL0     H33256   0.734   6.899   0.813  0.0180 -0.0849 -0.8783
  252MOL0     H33257   0.652   6.862   0.665  0.6463 -1.4165 -1.0001
  252MOL0     H33258   0.954   6.895   0.692  0.6542 -1.3810  0.9985
  252MOL0     H33259   0.869   6.817   0.547  2.5250 -1.1486  0.3979
  252MOL0     H33260   0.972   6.654   0.694 -0.7426 -1.1991  2.6032
  252MOL0     H33261   0.880   6.732   0.823 -2.2330  2.0798  0.1791
  252MOL0     H33262   0.578   6.471   0.680 -0.5605  1.1754  2.2761
  252MOL0     H33263   0.520   7.017   0.501  1.8706  2.3029  0.6706
  252MOL0     H33264   0.288   7.002   0.459  0.5789  1.5796 -0.5142
  253MOL0     O33265   6.280   7.385   3.977 -0.0549  0.1201 -0.3248
  253MOL0     C33266   6.263   7.487   3.910  0.9320 -0.9935 -0.5864
  253MOL0     O33267   6.320   7.515   3.790  0.2327  0.8774 -0.9605
  253MOL0     C33268   6.373   7.416   3.722  0.2932  1.4799  0.3514
  253MOL0     C33269   6.310   7.365   3.611  0.2025  0.1414 -0.8000
  253MOL0     C33270   6.365   7.262   3.530 -0.1049  0.1089 -1.0181
  253MOL0     C33271   6.497   7.218   3.551 -0.1981  0.4673 -0.8265
  253MOL0     O33272   6.545   7.110   3.477  0.4062 -0.0269 -0.2194
  253MOL0     C33273   6.647   7.137   3.377 -0.5660  0.2225 -0.7460
  253MOL0     C33274   6.589   7.221   3.269 -0.8307  1.4809 -0.5223
  253MOL0     C33275   6.697   7.280   3.183 -0.3076 -0.1316 -0.0129
  253MOL0     C33276   6.636   7.331   3.056 -0.7886 -0.6642  0.3074
  253MOL0     C33277   6.752   7.377   2.970 -1.1540 -0.4180 -0.3136
  253MOL0     C33278   6.720   7.516   2.903  0.4297 -0.0015 -0.9545
  253MOL0     C33279   6.587   7.535   2.833 -0.9186 -0.1552  0.7516
  253MOL0     C33280   6.576   7.657   2.739 -1.0533  0.1195 -0.4993
  253MOL0     N33281   6.604   7.625   2.600 -0.2328 -0.2800  0.9775
  253MOL0     C33282   6.631   7.717   2.499 -0.1728  0.2110 -1.7988
  253MOL0     C33283   6.641   7.631   2.387 -0.2663 -0.4097 -1.0907
  253MOL0     C33284   6.687   7.675   2.253 -0.4764  0.1235  0.8392
  253MOL0     C33285   6.581   7.631   2.145  0.3192 -1.5588  0.2001
  253MOL0     C33286   6.587   7.725   2.021 -0.0636 -0.2327  0.3254
  253MOL0     C33287   6.702   7.675   1.933  0.2588 -0.9813  0.1426
  253MOL0     O33288   6.827   7.656   1.999  0.3852 -0.5052 -0.1409
  253MOL0     C33289   6.939   7.660   1.924 -0.5431 -0.4706  0.3287
  253MOL0     C33290   6.969   7.580   1.819  0.1184 -0.5888  0.5911
  253MOL0     C33291   7.093   7.582   1.757 -0.6923 -0.1490  0.4178
  253MOL0     C33292   7.198   7.671   1.803  0.8366 -0.9975  0.2139
  253MOL0     C33293   7.330   7.680   1.736  0.1347  0.4229 -0.7934
  253MOL0     O33294   7.416   7.763   1.795 -0.0693 -0.9914 -0.5765
  253MOL0     C33295   7.531   7.786   1.727  0.0067  0.7793  0.1473
  253MOL0     C33296   7.654   7.740   1.780 -0.2984 -0.1167  0.5456
  253MOL0     C33297   7.768   7.744   1.696 -0.0167 -0.4678 -0.9284
  253MOL0     C33298   7.770   7.796   1.568  0.1094  0.1077 -0.2192
  253MOL0     O33299   7.881   7.799   1.477  0.1974  0.7611 -0.1197
  253MOL0     C33300   8.000   7.854   1.529  0.0836  0.6466 -0.8999
  253MOL0     C33301   8.090   7.930   1.424  0.2332  0.0019 -0.0303
  253MOL0     C33302   8.236   7.948   1.487  0.3720 -0.2191  0.2564
  253MOL0     C33303   8.323   8.014   1.376  0.5352 -1.1641 -0.2976
  253MOL0     C33304   8.463   8.016   1.447 -0.0985  0.2612 -0.1423
  253MOL0     C33305   8.564   8.003   1.336 -0.2425 -0.2938  0.8357
  253MOL0     C33306   8.709   8.033   1.378 -0.0320  0.1038 -0.1834
  253MOL0     C33307   8.815   7.966   1.276  0.6549 -0.4283 -0.2749
  253MOL0    Cl33308   8.972   7.976   1.362  0.0316 -0.1419 -0.3885
  253MOL0     C33309   7.642   7.853   1.523 -0.4277  0.1167  0.3067
  253MOL0     C33310   7.525   7.841   1.600 -0.7079  0.6103  0.7165
  253MOL0     O33311   7.353   7.601   1.650  0.6185 -0.1176  0.2491
  253MOL0     C33312   7.163   7.761   1.908  0.4807 -0.2630  0.4058
  253MOL0     C33313   7.032   7.759   1.957  1.1781 -0.1054  0.0771
  253MOL0     N33314   6.613   7.497   2.425  0.2115 -0.4234 -0.2781
  253MOL0     N33315   6.600   7.499   2.551 -0.0507  0.0556 -0.4637
  253MOL0     C33316   6.563   7.266   3.665 -0.3010 -0.8401 -0.3576
  253MOL0     C33317   6.502   7.365   3.752  0.3372  0.7836 -0.5245
  253MOL0     C33318   6.170   7.594   3.977  0.0995  0.0175 -0.3787
  253MOL0     C33319   6.122   7.708   3.912 -1.5717  0.0061 -0.9800
  253MOL0     C33320   6.050   7.797   3.981  0.7311  0.1460 -0.1151
  253MOL0     C33321   6.023   7.793   4.121 -0.3340 -0.1903 -0.4735
  253MOL0     O33322   5.963   7.908   4.175  0.2366  0.0964 -0.0611
  253MOL0     C33323   5.903   7.914   4.306 -0.7504  0.1253  0.1842
  253MOL0     C33324   5.761   7.867   4.306 -0.0319  0.0674 -0.2031
  253MOL0     C33325   5.668   7.912   4.418 -0.9360  0.7056  0.3655
  253MOL0     C33326   5.515   7.888   4.395  0.2025 -0.0611  0.3835
  253MOL0     C33327   5.440   7.908   4.518 -0.7922  0.2796  0.2693
  253MOL0     C33328   5.417   7.928   4.631  0.1508 -0.2408  0.8133
  253MOL0     C33329   6.076   7.680   4.188  0.1861  0.2954  0.3456
  253MOL0     C33330   6.139   7.585   4.112 -1.4002  1.1467  0.3045
  253MOL0     H33331   6.214   7.403   3.579 -0.1545 -0.2472 -0.1941
  253MOL0     H33332   6.312   7.217   3.447  0.9974 -3.0985 -0.1191
  253MOL0     H33333   6.683   7.038   3.347  1.1006  0.1619  1.2904
  253MOL0     H33334   6.738   7.178   3.421 -1.6280 -1.7286  3.8524
  253MOL0     H33335   6.530   7.310   3.293 -2.0352  1.5792 -3.3963
  253MOL0     H33336   6.516   7.154   3.222 -1.2136  1.6686 -0.2045
  253MOL0     H33337   6.776   7.209   3.156 -0.5274 -0.0106 -1.0237
  253MOL0     H33338   6.754   7.360   3.231  0.2016 -0.5765  0.1380
  253MOL0     H33339   6.591   7.251   2.996  0.8882 -3.4160  2.4173
  253MOL0     H33340   6.564   7.407   3.086  0.7052  0.2835  1.6630
  253MOL0     H33341   6.784   7.302   2.897  0.1665 -2.6060  2.3378
  253MOL0     H33342   6.841   7.411   3.025  1.4045 -0.5261 -4.0314
  253MOL0     H33343   6.804   7.532   2.834  0.2433  1.5539 -0.8718
  253MOL0     H33344   6.732   7.593   2.980 -2.7215 -2.0696  1.8544
  253MOL0     H33345   6.565   7.438   2.787  0.4558  0.0473 -0.4286
  253MOL0     H33346   6.512   7.560   2.908 -2.8011 -2.0969 -0.3587
  253MOL0     H33347   6.630   7.747   2.771 -1.8125  0.4863 -0.2164
  253MOL0     H33348   6.476   7.702   2.739 -1.4978 -0.8151  0.6294
  253MOL0     H33349   6.647   7.824   2.509  1.2047  0.1098 -2.7331
  253MOL0     H33350   6.786   7.629   2.241  1.7127  4.6348 -0.6463
  253MOL0     H33351   6.723   7.778   2.243  5.4500 -1.7047 -1.5953
  253MOL0     H33352   6.486   7.645   2.197  0.3622  2.2434 -0.4962
  253MOL0     H33353   6.598   7.527   2.115 -1.8699 -1.2832 -2.3239
  253MOL0     H33354   6.488   7.725   1.975 -0.5214  1.6297  1.2171
  253MOL0     H33355   6.595   7.832   2.043 -2.5881  0.4717 -1.6756
  253MOL0     H33356   6.708   7.743   1.848 -2.0646  1.0005  1.4583
  253MOL0     H33357   6.664   7.581   1.891 -1.1736 -0.4055  0.0978
  253MOL0     H33358   6.890   7.524   1.770 -1.1720  2.2310 -0.7295
  253MOL0     H33359   7.109   7.506   1.682  0.0766  0.0675  0.3581
  253MOL0     H33360   7.660   7.695   1.878 -1.3949  0.8419  1.0892
  253MOL0     H33361   7.858   7.689   1.722 -0.4301 -1.7938 -2.2059
  253MOL0     H33362   8.061   7.780   1.580  0.3848 -0.4402 -2.7505
  253MOL0     H33363   7.973   7.926   1.607  0.1626 -3.4419  3.2827
  253MOL0     H33364   8.037   8.025   1.416  0.5573  0.2814  0.9777
  253MOL0     H33365   8.092   7.879   1.327 -1.1647 -1.7700  0.8098
  253MOL0     H33366   8.282   7.860   1.531 -0.8110 -2.3163 -2.4484
  253MOL0     H33367   8.228   8.016   1.572  2.3570 -0.6750  0.8534
  253MOL0     H33368   8.332   7.963   1.279  4.8760  1.3535 -1.4900
  253MOL0     H33369   8.276   8.111   1.356 -1.6382 -2.1957 -0.5767
  253MOL0     H33370   8.471   7.920   1.500  2.9889 -0.3064 -1.4240
  253MOL0     H33371   8.495   8.102   1.505  4.4136 -1.2201 -0.0641
  253MOL0     H33372   8.531   8.069   1.256 -1.6205 -0.4790  1.2384
  253MOL0     H33373   8.559   7.902   1.293 -2.1785 -0.8058  2.1597
  253MOL0     H33374   8.727   8.140   1.379 -0.1019  0.1123  0.7396
  253MOL0     H33375   8.742   7.999   1.477  0.0898  0.7968  0.0131
  253MOL0     H33376   8.828   8.026   1.185  0.6197 -3.3077 -2.2981
  253MOL0     H33377   8.784   7.866   1.246 -3.0197  0.4961 -0.0502
  253MOL0     H33378   7.638   7.902   1.427 -1.9609 -0.1298  0.2253
  253MOL0     H33379   7.433   7.878   1.557 -2.9182 -2.5575  2.3347
  253MOL0     H33380   7.242   7.833   1.926  2.8401 -1.6676 -3.1114
  253MOL0     H33381   7.006   7.821   2.042  0.4402  0.1517 -0.3216
  253MOL0     H33382   6.665   7.236   3.688  0.1365 -0.6311 -1.9315
  253MOL0     H33383   6.551   7.400   3.842  0.6697 -2.9285  0.9068
  253MOL0     H33384   6.149   7.739   3.812  1.2707  0.4018 -0.1773
  253MOL0     H33385   6.016   7.887   3.930  1.3318  0.4517  0.0157
  253MOL0     H33386   5.916   8.015   4.344 -1.4144 -0.0317  0.8626
  253MOL0     H33387   5.949   7.852   4.384 -1.6301  0.7223  1.2183
  253MOL0     H33388   5.710   7.919   4.224  1.1376  1.9959  0.2172
  253MOL0     H33389   5.763   7.759   4.290 -0.2761  0.2429 -1.5834
  253MOL0     H33390   5.688   8.020   4.421 -0.8563  0.7799 -1.5202
  253MOL0     H33391   5.700   7.878   4.517  2.2384  3.9937  0.7100
  253MOL0     H33392   5.478   7.964   4.326  1.3507  0.5734  0.4527
  253MOL0     H33393   5.494   7.788   4.353 -1.9164  0.4147  0.1861
  253MOL0     H33394   5.396   7.959   4.731 -0.8965 -1.2176  0.9221
  253MOL0     H33395   6.069   7.676   4.296  1.1234  0.4948  0.4253
  253MOL0     H33396   6.180   7.505   4.173  0.7314  2.3821  0.6208
  254MOL0     O33397  10.019   4.879   4.940 -0.1168 -0.0852  0.0828
  254MOL0     C33398  10.093   4.899   5.037  0.1942  0.6549 -0.3543
  254MOL0     O33399  10.227   4.869   5.042 -0.1266 -0.3976 -0.1118
  254MOL0     C33400  10.301   4.849   4.929 -0.3569 -0.5124  0.9376
  254MOL0     C33401  10.350   4.956   4.866 -0.6359 -0.8283  0.0694
  254MOL0     C33402  10.426   4.937   4.751 -0.6384 -0.0697  0.0915
  254MOL0     C33403  10.464   4.809   4.701 -0.2865 -0.0919  0.6846
  254MOL0     O33404  10.540   4.796   4.585 -0.2319 -1.0612  0.2629
  254MOL0     C33405  10.523   4.675   4.512  0.2029  0.1411 -0.7054
  254MOL0     C33406  10.579   4.685   4.366  1.0577  0.1485 -0.0869
  254MOL0     C33407  10.732   4.688   4.360  0.2410  1.0777 -0.1166
  254MOL0     C33408  10.796   4.557   4.397 -0.9517  0.1111 -0.3273
  254MOL0     C33409  10.944   4.543   4.348  0.3799  0.3547 -0.6914
  254MOL0     C33410  10.949   4.506   4.201  0.0351  0.3193  0.1716
  254MOL0     C33411  11.076   4.570   4.140 -0.4366 -0.2073  0.0241
  254MOL0     C33412  11.205   4.533   4.210 -0.2912 -0.2841 -0.0844
  254MOL0     N33413  11.322   4.574   4.123 -1.0775  0.8226 -0.1040
  254MOL0     C33414  11.351   4.701   4.074 -0.7942 -0.4114 -0.0787
  254MOL0     C33415  11.474   4.704   4.017  0.3016  0.7973  0.2933
  254MOL0     C33416  11.537   4.823   3.943 -0.0548 -0.0090 -0.2059
  254MOL0     C33417  11.567   4.941   4.038 -0.2596 -1.4168  0.4616
  254MOL0     C33418  11.633   5.061   3.964 -0.1534  0.2202  0.0397
  254MOL0     C33419  11.645   5.189   4.037 -0.6196 -0.1695  0.3335
  254MOL0     O33420  11.711   5.297   3.972 -0.0878  0.5111 -0.4094
  254MOL0     C33421  11.846   5.312   3.996  0.6056 -1.0561  0.7176
  254MOL0     C33422  11.893   5.443   3.958  0.0243  0.4830  1.0067
  254MOL0     C33423  12.030   5.479   3.959  0.5409 -0.5467  0.4769
  254MOL0     C33424  12.123   5.385   4.007  1.0132 -0.2980 -0.0020
  254MOL0     C33425  12.258   5.422   4.008 -0.6813  0.6550 -0.7359
  254MOL0     O33426  12.296   5.538   3.946 -0.0878 -0.8842  0.5407
  254MOL0     C33427  12.431   5.575   3.950  0.2156  0.4469  0.6488
  254MOL0     C33428  12.472   5.702   3.983  0.1232  0.1148  0.5093
  254MOL0     C33429  12.607   5.741   3.976  1.1246  0.5751 -0.4205
  254MOL0     C33430  12.702   5.639   3.927  0.0383 -0.5350 -0.2696
  254MOL0     O33431  12.836   5.640   3.925  0.6976 -0.1017 -0.0211
  254MOL0     C33432  12.903   5.770   3.937  0.2786  0.5135  0.6078
  254MOL0     C33433  12.916   5.811   4.087  0.4796 -0.0610  0.4205
  254MOL0     C33434  13.014   5.718   4.153 -0.0713 -0.5991  0.4414
  254MOL0     C33435  13.150   5.778   4.170 -0.3052  0.0874  0.1652
  254MOL0     C33436  13.227   5.695   4.267  0.2004 -0.3330  0.2061
  254MOL0     C33437  13.378   5.663   4.212  0.7858 -0.4974  0.0169
  254MOL0     C33438  13.451   5.799   4.189  0.6574 -0.0125  0.6465
  254MOL0     C33439  13.597   5.770   4.167 -0.3246  0.3127  0.5945
  254MOL0    Cl33440  13.631   5.649   4.035 -0.5012  0.2046  0.0799
  254MOL0     C33441  12.661   5.512   3.894 -0.1194 -0.3881  0.3219
  254MOL0     C33442  12.532   5.480   3.901  0.7925 -0.5455 -0.1355
  254MOL0     O33443  12.326   5.354   4.086  0.0401 -0.4922 -0.3126
  254MOL0     C33444  12.079   5.252   4.044 -0.4100 -0.4152  0.5687
  254MOL0     C33445  11.946   5.223   4.024  0.3066  0.7707 -0.2916
  254MOL0     N33446  11.514   4.570   4.017 -0.4919 -0.2949 -0.2108
  254MOL0     N33447  11.433   4.499   4.084  0.5289 -0.2079  0.6479
  254MOL0     C33448  10.436   4.706   4.783 -0.6774  0.5843  0.3472
  254MOL0     C33449  10.350   4.717   4.891 -0.7661 -0.9711 -0.1879
  254MOL0     C33450  10.045   4.950   5.165 -0.8650  0.5407 -0.0394
  254MOL0     C33451   9.907   4.935   5.195 -0.5218  0.3938 -0.1545
  254MOL0     C33452   9.848   4.972   5.317 -0.0711  0.4858 -0.3004
  254MOL0     C33453   9.933   5.034   5.408 -0.5211 -0.5329  0.3192
  254MOL0     O33454   9.885   5.067   5.531 -0.1795  0.2245  0.1146
  254MOL0     C33455   9.951   5.005   5.645  0.9448  0.6095  0.3477
  254MOL0     C33456   9.881   4.880   5.687 -0.1889  0.1841 -0.1941
  254MOL0     C33457   9.955   4.842   5.820 -0.5666  0.4198 -0.2467
  254MOL0     C33458   9.907   4.723   5.899  0.2779 -0.1250 -0.5256
  254MOL0     C33459   9.782   4.745   5.962  0.3132  0.6374 -0.6507
  254MOL0     C33460   9.684   4.774   6.020  0.5592 -0.5564 -0.4548
  254MOL0     C33461  10.068   5.052   5.377  0.1713 -0.4821  0.3515
  254MOL0     C33462  10.124   5.017   5.261 -0.3257  0.8140 -0.8351
  254MOL0     H33463  10.331   5.054   4.908  0.9738 -0.1828 -0.6066
  254MOL0     H33464  10.478   5.014   4.696  3.2716 -0.3132  2.9887
  254MOL0     H33465  10.417   4.647   4.511  0.6075 -1.7810  1.4375
  254MOL0     H33466  10.582   4.597   4.561  0.9036  0.8007 -0.4755
  254MOL0     H33467  10.536   4.779   4.331 -2.0735 -0.4244  1.8074
  254MOL0     H33468  10.527   4.614   4.301  0.0153  0.3502  0.5066
  254MOL0     H33469  10.774   4.765   4.426  1.6196  0.0620  0.2439
  254MOL0     H33470  10.756   4.725   4.259 -2.2890  1.3354 -0.6709
  254MOL0     H33471  10.793   4.535   4.504  0.1527  1.2791 -0.0334
  254MOL0     H33472  10.741   4.473   4.353  1.4903 -2.0440  0.4880
  254MOL0     H33473  10.993   4.478   4.421 -0.6056  1.9154  1.4755
  254MOL0     H33474  10.991   4.640   4.368  0.7405 -0.2848  2.0135
  254MOL0     H33475  10.860   4.540   4.147  0.2281  0.1919 -0.2278
  254MOL0     H33476  10.956   4.398   4.189  2.3583  0.6130 -1.7400
  254MOL0     H33477  11.071   4.553   4.031  0.5162 -1.6265  0.1712
  254MOL0     H33478  11.067   4.679   4.145 -0.0824 -0.0517 -1.8092
  254MOL0     H33479  11.195   4.424   4.209  0.6827 -0.3887 -0.1516
  254MOL0     H33480  11.211   4.574   4.311 -0.1945  4.2778 -1.7055
  254MOL0     H33481  11.292   4.792   4.084  1.1817  0.7705  1.5715
  254MOL0     H33482  11.466   4.857   3.868  0.3667  1.2909 -0.0510
  254MOL0     H33483  11.627   4.777   3.901  1.8742  1.7762  1.6627
  254MOL0     H33484  11.632   4.910   4.121  2.0459  1.6455 -0.0200
  254MOL0     H33485  11.472   4.974   4.079 -1.7260 -1.2375 -2.7911
  254MOL0     H33486  11.734   5.031   3.933 -0.3360 -2.3903  1.6758
  254MOL0     H33487  11.568   5.081   3.878  0.3023  0.2036 -0.3161
  254MOL0     H33488  11.688   5.177   4.137 -2.4150 -0.9668  1.0580
  254MOL0     H33489  11.544   5.226   4.055 -0.0739  1.3719  0.3679
  254MOL0     H33490  11.822   5.519   3.926  0.5747  0.7086  0.3092
  254MOL0     H33491  12.060   5.575   3.918 -0.4489 -1.4270 -2.5939
  254MOL0     H33492  12.404   5.775   4.025 -0.7413 -0.0781 -0.5180
  254MOL0     H33493  12.622   5.836   4.026 -1.9783  1.3804 -0.8294
  254MOL0     H33494  12.853   5.853   3.885 -0.9866  0.9145  2.3823
  254MOL0     H33495  13.005   5.746   3.903  0.1202  1.0489 -0.2910
  254MOL0     H33496  12.828   5.818   4.151 -0.3632 -1.7391 -0.4917
  254MOL0     H33497  12.957   5.913   4.086  0.5421  0.1727  5.1228
  254MOL0     H33498  13.035   5.625   4.098  0.5126 -1.8394  2.6473
  254MOL0     H33499  12.978   5.688   4.251 -0.9484 -0.0360  0.3039
  254MOL0     H33500  13.189   5.786   4.068 -2.9289 -1.7939 -1.1255
  254MOL0     H33501  13.126   5.877   4.210 -1.3050 -0.1921  0.3033
  254MOL0     H33502  13.179   5.600   4.293 -0.2359 -1.1985 -3.2495
  254MOL0     H33503  13.228   5.754   4.359 -0.5874 -1.4286  0.9481
  254MOL0     H33504  13.382   5.623   4.110 -2.1202 -0.0282 -0.3637
  254MOL0     H33505  13.433   5.604   4.287  1.2425 -0.0053  0.0756
  254MOL0     H33506  13.416   5.848   4.098 -1.0507 -0.9668  0.7560
  254MOL0     H33507  13.453   5.866   4.276  0.1970  0.0541  0.6058
  254MOL0     H33508  13.635   5.737   4.264 -2.3420 -3.4006  0.3266
  254MOL0     H33509  13.648   5.862   4.136 -3.2533  2.2355  1.0926
  254MOL0     H33510  12.742   5.446   3.865  2.3489  1.8124  1.8039
  254MOL0     H33511  12.483   5.394   3.855  2.3121 -1.1915 -0.6362
  254MOL0     H33512  12.153   5.179   4.075  0.2129  1.1715  3.1550
  254MOL0     H33513  11.902   5.124   4.032 -1.4679  1.5445 -0.1370
  254MOL0     H33514  10.493   4.614   4.779  0.9203  1.4151  2.3929
  254MOL0     H33515  10.337   4.631   4.955  0.6220 -2.4717 -1.8269
  254MOL0     H33516   9.838   4.895   5.121  0.9531 -1.0056 -0.8384
  254MOL0     H33517   9.744   4.955   5.343  0.9512 -0.4654  3.8717
  254MOL0     H33518   9.927   5.074   5.727  0.3254  0.5207  0.2498
  254MOL0     H33519  10.059   4.995   5.629  0.9409 -0.9176  1.0891
  254MOL0     H33520   9.775   4.898   5.704  0.1635  2.0360  0.3031
  254MOL0     H33521   9.900   4.808   5.607 -1.4618  2.9189 -3.2284
  254MOL0     H33522   9.966   4.922   5.894  0.4360  0.6471 -0.6203
  254MOL0     H33523  10.061   4.819   5.802  0.3052 -0.1689  4.2708
  254MOL0     H33524   9.888   4.633   5.840 -0.4939 -1.0910  1.0952
  254MOL0     H33525   9.979   4.692   5.977 -0.0205 -2.0524 -0.9526
  254MOL0     H33526   9.596   4.813   6.067  1.3716  0.5657  0.1724
  254MOL0     H33527  10.119   5.104   5.458 -0.8999  0.2882  0.5649
  254MOL0     H33528  10.229   5.016   5.233  0.1338 -2.3031  0.5995
  255MOL0     O33529   6.606   1.593   0.108  0.7587  0.2401 -0.2704
  255MOL0     C33530   6.588   1.714   0.115 -1.1376  0.0760  0.2365
  255MOL0     O33531   6.476   1.787   0.113 -0.0072  0.2468  0.3272
  255MOL0     C33532   6.347   1.740   0.101 -0.0767  0.1496 -0.0824
  255MOL0     C33533   6.248   1.834   0.126  0.5595 -0.1638  0.7403
  255MOL0     C33534   6.107   1.819   0.095 -0.3095  0.1340 -0.3740
  255MOL0     C33535   6.076   1.701   0.019 -0.1362  0.5842  0.2897
  255MOL0     O33536   5.953   1.709  -0.050 -0.1654 -1.0867 -0.2922
  255MOL0     C33537   5.862   1.600  -0.048 -0.1695 -1.0608  0.3535
  255MOL0     C33538   5.867   1.535   0.083  0.3106  0.7748 -0.2719
  255MOL0     C33539   5.762   1.433   0.105  0.0140  0.5190 -0.5778
  255MOL0     C33540   5.772   1.380   0.253 -0.9204  0.2407  0.3764
  255MOL0     C33541   5.666   1.269   0.276  0.2703 -0.2386 -0.4827
  255MOL0     C33542   5.670   1.231   0.428 -0.1910  0.0996 -0.2195
  255MOL0     C33543   5.603   1.089   0.432 -0.1998  0.1814 -0.6098
  255MOL0     C33544   5.606   1.038   0.574 -0.0622  0.2843 -0.2916
  255MOL0     N33545   5.513   0.938   0.598 -0.8243 -0.1632  0.2251
  255MOL0     C33546   5.392   0.952   0.663  1.0362  0.0490 -0.1637
  255MOL0     C33547   5.341   0.829   0.671  0.5027  0.1824  0.9284
  255MOL0     C33548   5.194   0.800   0.694  0.5312  0.2470  1.0609
  255MOL0     C33549   5.125   0.912   0.786  0.4738  0.9045  1.0320
  255MOL0     C33550   5.047   1.018   0.708  0.5242  0.3431  0.8202
  255MOL0     C33551   4.958   1.108   0.795 -0.2662 -0.5285 -0.9452
  255MOL0     O33552   4.858   1.032   0.861  0.6366 -0.3738 -0.1161
  255MOL0     C33553   4.729   1.081   0.880 -0.5065 -0.6801  0.0267
  255MOL0     C33554   4.639   0.983   0.916  0.0628  0.3719 -0.9605
  255MOL0     C33555   4.508   1.012   0.939 -0.9551 -0.4500 -0.6917
  255MOL0     C33556   4.472   1.154   0.941  0.5324 -0.3394  0.9492
  255MOL0     C33557   4.332   1.201   0.954 -0.3972 -0.2587 -0.1201
  255MOL0     O33558   4.232   1.109   0.931 -0.2826 -0.2457 -1.3081
  255MOL0     C33559   4.105   1.166   0.922 -0.0820  0.1564  0.1886
  255MOL0     C33560   4.034   1.143   0.803 -0.1429 -0.1402 -0.5500
  255MOL0     C33561   3.899   1.177   0.782  0.2766 -0.5665 -0.5241
  255MOL0     C33562   3.834   1.244   0.888 -0.6892 -0.9453 -0.9473
  255MOL0     O33563   3.703   1.287   0.878 -1.0330  0.4536  0.7335
  255MOL0     C33564   3.644   1.274   0.751  0.3665  0.4643 -0.1901
  255MOL0     C33565   3.503   1.305   0.794 -0.1481  0.0623  0.4060
  255MOL0     C33566   3.412   1.298   0.674  0.0582  0.2618  0.5395
  255MOL0     C33567   3.271   1.346   0.712  0.1351  0.4328  0.0396
  255MOL0     C33568   3.172   1.316   0.611  0.2112 -0.4982  1.0910
  255MOL0     C33569   3.023   1.311   0.667  0.4528  1.1247 -0.5385
  255MOL0     C33570   2.984   1.185   0.751 -0.4546  0.1605 -0.4338
  255MOL0     C33571   2.953   1.220   0.891  0.2736  0.2774  0.3996
  255MOL0    Cl33572   2.782   1.262   0.923 -0.3602 -0.3993  0.3881
  255MOL0     C33573   3.900   1.279   1.006 -0.1362  0.5172 -0.4743
  255MOL0     C33574   4.031   1.226   1.025 -0.0101  0.5696 -0.3448
  255MOL0     O33575   4.310   1.317   0.983  0.1497  0.8118  0.1442
  255MOL0     C33576   4.560   1.249   0.892 -0.1758  0.1065 -0.0520
  255MOL0     C33577   4.694   1.218   0.874  0.7337  0.0877  0.2672
  255MOL0     N33578   5.443   0.742   0.635 -0.1085  0.5519 -0.4674
  255MOL0     N33579   5.547   0.806   0.601 -0.4473 -0.0879 -0.1586
  255MOL0     C33580   6.172   1.597   0.003  0.2342 -0.1348  0.4993
  255MOL0     C33581   6.306   1.621   0.034 -0.5768  0.5265 -0.5281
  255MOL0     C33582   6.706   1.797   0.144  0.3259  0.3158 -0.2987
  255MOL0     C33583   6.697   1.913   0.221 -0.3187 -0.1691 -0.1052
  255MOL0     C33584   6.811   1.983   0.241  0.3111  0.5414  0.0880
  255MOL0     C33585   6.934   1.932   0.194 -0.8591  0.2292  0.3614
  255MOL0     O33586   7.048   1.997   0.228  0.3969  0.4070 -0.4647
  255MOL0     C33587   7.050   2.135   0.280  0.3460 -0.3882 -1.5321
  255MOL0     C33588   7.182   2.210   0.253  0.0036 -0.0254  0.3237
  255MOL0     C33589   7.209   2.210   0.096  0.8973 -0.4228  0.4082
  255MOL0     C33590   7.107   2.272   0.012 -0.5956  0.0735 -0.7149
  255MOL0     C33591   7.076   2.412   0.055  0.1511  0.6229  0.3188
  255MOL0     C33592   7.078   2.527   0.075 -0.1203 -0.4252 -0.8686
  255MOL0     C33593   6.952   1.821   0.126  0.7696  0.6541 -0.2009
  255MOL0     C33594   6.838   1.750   0.097  0.0505  0.2489  0.0593
  255MOL0     H33595   6.277   1.932   0.164  2.0966 -0.2298 -0.1770
  255MOL0     H33596   6.033   1.897   0.113  0.5816  1.6603 -2.7667
  255MOL0     H33597   5.895   1.532  -0.127  0.2410 -0.5478  0.0752
  255MOL0     H33598   5.762   1.642  -0.059 -0.1343 -1.2651 -0.9288
  255MOL0     H33599   5.866   1.615   0.156 -0.7855 -0.1539  0.7687
  255MOL0     H33600   5.959   1.478   0.098  0.0265  0.2403 -0.5148
  255MOL0     H33601   5.769   1.356   0.028  2.1451 -1.3216  1.2845
  255MOL0     H33602   5.663   1.480   0.097  0.2332  0.9731 -0.6693
  255MOL0     H33603   5.873   1.341   0.267 -1.1269 -2.2638 -3.4055
  255MOL0     H33604   5.748   1.462   0.321  4.8606  1.5212  1.3887
  255MOL0     H33605   5.691   1.181   0.216 -1.9720 -0.4237 -1.2706
  255MOL0     H33606   5.567   1.302   0.243 -0.7762 -0.9548  1.7003
  255MOL0     H33607   5.615   1.312   0.477  1.1308  1.1997 -0.5017
  255MOL0     H33608   5.769   1.211   0.471 -0.3585 -2.7422 -0.9574
  255MOL0     H33609   5.496   1.090   0.406 -0.1752  0.0766 -0.7170
  255MOL0     H33610   5.650   1.015   0.365 -1.1060 -0.5830 -0.4339
  255MOL0     H33611   5.588   1.119   0.646  2.2616 -0.5665  1.3880
  255MOL0     H33612   5.706   1.001   0.601 -0.4435  0.3830  1.3629
  255MOL0     H33613   5.340   1.046   0.676 -3.5558 -2.0979 -1.0655
  255MOL0     H33614   5.201   0.701   0.741  2.7023 -1.4475 -2.4530
  255MOL0     H33615   5.130   0.784   0.607  0.9795  0.3547  0.7117
  255MOL0     H33616   5.199   0.954   0.855  0.4386 -0.6192  2.0482
  255MOL0     H33617   5.048   0.876   0.854 -1.4887  1.7372 -0.6263
  255MOL0     H33618   5.105   1.091   0.650  0.1558  0.6063  0.7787
  255MOL0     H33619   4.995   0.962   0.630  1.6729  0.2107  0.1184
  255MOL0     H33620   4.932   1.192   0.730  2.7268  0.0403 -1.5652
  255MOL0     H33621   5.013   1.160   0.875 -2.3602  2.0036 -1.0288
  255MOL0     H33622   4.668   0.880   0.936  3.1266  1.3179  0.0383
  255MOL0     H33623   4.435   0.938   0.970  0.2874 -1.3115  0.3267
  255MOL0     H33624   4.090   1.092   0.725  1.5065 -2.6320  2.0842
  255MOL0     H33625   3.851   1.168   0.685 -0.2103  0.2082 -0.3593
  255MOL0     H33626   3.643   1.173   0.709  0.7560 -0.7070  2.4597
  255MOL0     H33627   3.678   1.351   0.681 -0.0486 -1.4398 -2.6562
  255MOL0     H33628   3.510   1.406   0.835  5.6644  0.3093 -0.3671
  255MOL0     H33629   3.474   1.239   0.877  3.6685  1.6460  3.2869
  255MOL0     H33630   3.407   1.192   0.648 -1.4994  0.3758  0.2887
  255MOL0     H33631   3.457   1.364   0.599 -1.8425 -0.9133 -1.7650
  255MOL0     H33632   3.245   1.297   0.807  1.2644  3.2464  1.9466
  255MOL0     H33633   3.275   1.453   0.736 -0.4651 -0.2963  4.0733
  255MOL0     H33634   3.199   1.218   0.571  0.6175  0.6878 -1.7790
  255MOL0     H33635   3.174   1.399   0.540 -1.4495  0.6592  2.3192
  255MOL0     H33636   2.964   1.334   0.578 -0.2826  1.9530  0.1534
  255MOL0     H33637   3.006   1.403   0.723 -0.0909  1.3027 -0.9834
  255MOL0     H33638   2.891   1.144   0.710 -1.3255  1.6124  0.0166
  255MOL0     H33639   3.062   1.109   0.752 -0.9370 -0.3482 -0.5073
  255MOL0     H33640   3.016   1.304   0.920 -0.6366  0.7431  1.1055
  255MOL0     H33641   2.973   1.127   0.944  1.0918 -1.2900 -2.4770
  255MOL0     H33642   3.867   1.343   1.087 -0.6565  1.0528 -1.0985
  255MOL0     H33643   4.075   1.230   1.124 -2.9337 -0.0147  1.1071
  255MOL0     H33644   4.532   1.350   0.866 -0.1423 -0.2753 -1.7156
  255MOL0     H33645   4.764   1.296   0.846  0.6708  0.0230 -0.0702
  255MOL0     H33646   6.151   1.503  -0.047  1.3094 -0.5343  0.7550
  255MOL0     H33647   6.373   1.542   0.000  0.2979  0.0056  2.1317
  255MOL0     H33648   6.597   1.946   0.244 -2.0926 -3.6152 -1.9973
  255MOL0     H33649   6.803   2.069   0.306 -0.2188  1.3649 -1.0344
  255MOL0     H33650   7.024   2.134   0.386  1.7010 -1.3322 -1.1856
  255MOL0     H33651   6.966   2.194   0.243 -1.4534 -2.6471 -1.2635
  255MOL0     H33652   7.191   2.313   0.289 -0.0825 -1.0899  3.7276
  255MOL0     H33653   7.267   2.167   0.306 -0.2112  1.1365  1.6793
  255MOL0     H33654   7.239   2.112   0.058 -0.3579 -0.3967 -0.7250
  255MOL0     H33655   7.292   2.281   0.086 -1.2415  2.3865  1.1300
  255MOL0     H33656   7.131   2.274  -0.094  1.2895  0.8864 -0.3213
  255MOL0     H33657   7.020   2.206   0.020  0.8078 -1.6812  0.7989
  255MOL0     H33658   7.077   2.634   0.084  2.2582 -0.4967  1.7026
  255MOL0     H33659   7.055   1.793   0.109  0.4321 -0.4541 -0.5122
  255MOL0     H33660   6.858   1.676   0.021 -0.4165  0.5859 -0.3990
  256MOL0     O33661  10.575   6.075   2.068  1.0475 -0.3449 -0.3256
  256MOL0     C33662  10.605   6.046   1.951 -0.3892  0.5199  0.0992
  256MOL0     O33663  10.520   6.009   1.856  0.7936  0.4611 -0.1588
  256MOL0     C33664  10.394   6.054   1.867 -0.5940 -0.2686 -0.1565
  256MOL0     C33665  10.340   6.126   1.754 -0.2289 -0.0563 -0.7621
  256MOL0     C33666  10.207   6.153   1.753  0.5240 -0.4201 -0.1723
  256MOL0     C33667  10.125   6.115   1.854  0.6349  0.3564  0.0244
  256MOL0     O33668   9.988   6.140   1.869 -0.7160 -0.2437  0.0534
  256MOL0     C33669   9.927   6.197   1.760 -0.1704  0.0771  0.1356
  256MOL0     C33670   9.772   6.180   1.783 -0.5134  0.0433 -0.2597
  256MOL0     C33671   9.731   6.035   1.749 -0.7538 -0.1481  1.2495
  256MOL0     C33672   9.582   6.019   1.772  0.1041  0.1046 -0.0046
  256MOL0     C33673   9.548   6.013   1.921 -0.9090 -0.1331  0.1086
  256MOL0     C33674   9.401   6.064   1.934  1.0314  1.1028  0.2215
  256MOL0     C33675   9.366   6.026   2.077 -0.6716  0.0558 -0.5770
  256MOL0     C33676   9.219   6.065   2.122  0.4617  0.2427  0.5796
  256MOL0     N33677   9.183   6.207   2.121 -0.1477 -0.7626 -0.1127
  256MOL0     C33678   9.092   6.261   2.039  1.3149 -0.7061  0.6135
  256MOL0     C33679   9.062   6.380   2.090  0.0162 -0.2483 -0.4342
  256MOL0     C33680   8.962   6.489   2.049  0.7158  0.8204 -0.1644
  256MOL0     C33681   8.822   6.439   2.057  1.6883  0.3250  0.0829
  256MOL0     C33682   8.769   6.434   2.209 -0.4426  0.4748  0.4449
  256MOL0     C33683   8.664   6.322   2.228  0.0370  0.7530 -0.1991
  256MOL0     O33684   8.554   6.345   2.151  0.0834 -0.2300 -0.6763
  256MOL0     C33685   8.433   6.278   2.174 -0.4028 -0.3811  0.4721
  256MOL0     C33686   8.333   6.307   2.082  1.1101  0.4276  0.7288
  256MOL0     C33687   8.207   6.244   2.077 -0.5404 -0.2691 -1.3352
  256MOL0     C33688   8.181   6.150   2.176  0.6821  0.3849  0.5580
  256MOL0     C33689   8.045   6.092   2.180 -0.9020  0.4038 -0.1409
  256MOL0     O33690   8.008   6.054   2.303  0.3187  0.1679  0.0760
  256MOL0     C33691   7.886   5.990   2.304  0.2616 -0.7210  0.1500
  256MOL0     C33692   7.863   5.859   2.332  0.5905  0.1701 -0.2162
  256MOL0     C33693   7.730   5.814   2.317  0.1743  0.3336 -0.1401
  256MOL0     C33694   7.618   5.904   2.294 -0.0142 -0.0277 -0.1260
  256MOL0     O33695   7.490   5.859   2.270 -0.6399 -0.7196  0.2382
  256MOL0     C33696   7.374   5.940   2.231 -0.2447 -0.9724  0.0792
  256MOL0     C33697   7.248   5.859   2.219  0.1756 -0.3023  0.5472
  256MOL0     C33698   7.259   5.756   2.099 -0.2682 -0.5239 -0.8807
  256MOL0     C33699   7.127   5.672   2.080 -0.2703  0.4156 -0.2456
  256MOL0     C33700   7.146   5.586   1.956 -0.0320  0.9506  0.2325
  256MOL0     C33701   7.032   5.486   1.939 -0.2807 -1.1429 -0.0810
  256MOL0     C33702   7.061   5.380   1.837  0.0056  0.6929 -0.4898
  256MOL0     C33703   6.960   5.262   1.847 -0.3116 -0.0366  0.4459
  256MOL0    Cl33704   6.972   5.157   1.979  0.1293 -0.1746 -0.1536
  256MOL0     C33705   7.641   6.039   2.287  0.0927  0.8324 -0.5201
  256MOL0     C33706   7.778   6.085   2.293 -0.4084  0.5129 -0.1844
  256MOL0     O33707   7.989   6.073   2.070  0.3542  0.0975  0.4145
  256MOL0     C33708   8.286   6.117   2.274  0.5746 -0.9567 -0.1834
  256MOL0     C33709   8.412   6.177   2.269  0.0691  0.1682 -0.2687
  256MOL0     N33710   9.136   6.397   2.208 -0.7113  0.2433 -0.1593
  256MOL0     N33711   9.213   6.293   2.221  0.3307  0.3348 -0.5440
  256MOL0     C33712  10.178   6.042   1.960  1.0671  0.3477 -0.7044
  256MOL0     C33713  10.309   6.019   1.973 -0.3203 -0.9055 -0.4521
  256MOL0     C33714  10.745   6.048   1.910  0.1488  0.8692  0.4571
  256MOL0     C33715  10.782   6.027   1.779 -0.0589 -0.1384 -0.2172
  256MOL0     C33716  10.914   6.015   1.739 -0.3431 -0.2164 -0.4271
  256MOL0     C33717  11.018   6.019   1.840 -0.0012  0.3645  0.4449
  256MOL0     O33718  11.146   6.001   1.816 -0.3880 -0.6288  0.6025
  256MOL0     C33719  11.202   6.052   1.690 -0.7638 -0.2706 -0.3824
  256MOL0     C33720  11.352   6.016   1.697  0.0868 -0.0007  0.2059
  256MOL0     C33721  11.442   6.085   1.596  0.0803 -1.2836  0.7529
  256MOL0     C33722  11.453   6.235   1.613  0.5294 -0.3392 -0.6186
  256MOL0     C33723  11.550   6.280   1.512  0.1389  0.0065  0.0461
  256MOL0     C33724  11.611   6.321   1.408  0.1782  0.0370  0.2319
  256MOL0     C33725  10.983   6.039   1.971 -0.8225 -0.7806  0.0909
  256MOL0     C33726  10.844   6.044   2.007  0.3159 -0.8130  0.2043
  256MOL0     H33727  10.403   6.160   1.673 -0.0269 -0.4284 -0.7654
  256MOL0     H33728  10.171   6.220   1.675  1.6104  0.7898  0.3286
  256MOL0     H33729   9.958   6.161   1.661 -2.0681  2.9461 -1.6616
  256MOL0     H33730   9.951   6.303   1.767  0.3707 -0.0821  0.7036
  256MOL0     H33731   9.736   6.253   1.711  4.2229  0.7685 -2.2547
  256MOL0     H33732   9.741   6.215   1.882 -3.6144 -0.5011 -0.9596
  256MOL0     H33733   9.786   5.973   1.821  3.6478  0.9856 -0.8358
  256MOL0     H33734   9.760   6.012   1.647 -1.2213  3.9223  0.0217
  256MOL0     H33735   9.524   6.093   1.717 -0.9145 -1.5740 -1.2645
  256MOL0     H33736   9.554   5.926   1.721  1.5928  0.4340 -1.5335
  256MOL0     H33737   9.614   6.076   1.982  0.8512 -0.9330 -0.9061
  256MOL0     H33738   9.568   5.915   1.965  1.4129  0.1490 -0.1626
  256MOL0     H33739   9.339   6.019   1.856 -0.1863 -0.1697  1.8362
  256MOL0     H33740   9.397   6.172   1.918  0.3261  0.9623 -0.6412
  256MOL0     H33741   9.390   5.924   2.109 -2.0625  0.4963  2.1259
  256MOL0     H33742   9.430   6.094   2.132 -0.0750  0.1194 -1.3366
  256MOL0     H33743   9.175   6.030   2.216 -1.5499 -0.3773 -0.5267
  256MOL0     H33744   9.153   6.013   2.051  0.5135 -2.5993  2.4317
  256MOL0     H33745   9.054   6.216   1.947 -1.9221  1.6452  0.6454
  256MOL0     H33746   8.979   6.517   1.945  0.2719  0.2936 -0.3822
  256MOL0     H33747   8.977   6.582   2.105 -2.2061  0.4035  1.4933
  256MOL0     H33748   8.830   6.335   2.025  0.8383  1.0311 -2.6726
  256MOL0     H33749   8.759   6.502   1.994 -1.2814 -1.9435  0.6082
  256MOL0     H33750   8.854   6.417   2.275 -1.8006  2.1399  2.7808
  256MOL0     H33751   8.727   6.530   2.239 -0.6610  1.0438 -1.5687
  256MOL0     H33752   8.636   6.323   2.334  2.8051  2.1663  0.6184
  256MOL0     H33753   8.707   6.223   2.216 -0.9825  0.3250 -0.4241
  256MOL0     H33754   8.355   6.379   2.004 -0.6058 -1.9086 -2.0705
  256MOL0     H33755   8.136   6.276   2.001 -1.4481  0.4047 -0.2369
  256MOL0     H33756   7.952   5.798   2.333  0.2858 -0.3437  2.3136
  256MOL0     H33757   7.725   5.707   2.334  1.2211  0.6596  2.6306
  256MOL0     H33758   7.398   5.983   2.134 -0.2293  1.4269  1.0823
  256MOL0     H33759   7.369   6.018   2.308 -0.7216 -1.7011  0.7997
  256MOL0     H33760   7.169   5.929   2.192  1.4680  1.5496  1.3331
  256MOL0     H33761   7.228   5.806   2.312  1.5510 -1.6594  0.1156
  256MOL0     H33762   7.333   5.688   2.142 -1.4882 -0.7721  0.9572
  256MOL0     H33763   7.290   5.805   2.006  1.6290  1.5061  0.6909
  256MOL0     H33764   7.127   5.597   2.159 -1.2048 -0.4909 -1.0724
  256MOL0     H33765   7.038   5.735   2.077  0.9595  2.3372  1.4569
  256MOL0     H33766   7.244   5.538   1.950  0.8373  2.8398 -2.6093
  256MOL0     H33767   7.145   5.646   1.865  2.4137  0.6983 -0.0231
  256MOL0     H33768   6.935   5.534   1.919  0.9883  2.3734  1.3836
  256MOL0     H33769   7.010   5.451   2.040 -1.6182  0.7825  0.3720
  256MOL0     H33770   7.058   5.423   1.737 -1.5835 -0.7806 -1.1263
  256MOL0     H33771   7.161   5.340   1.856  0.3220  1.6751 -0.0043
  256MOL0     H33772   6.971   5.209   1.752 -0.4701  2.2009 -0.8850
  256MOL0     H33773   6.858   5.301   1.841  0.0772  0.8507 -1.1026
  256MOL0     H33774   7.570   6.119   2.270  0.4634  1.1860 -0.4357
  256MOL0     H33775   7.805   6.188   2.276  4.7872 -0.6849 -0.9434
  256MOL0     H33776   8.268   6.036   2.344  0.1325 -0.2320  0.5633
  256MOL0     H33777   8.490   6.146   2.337  1.3530  4.3352  0.4220
  256MOL0     H33778  10.122   6.027   2.051  1.3646  1.3834 -0.3486
  256MOL0     H33779  10.348   5.966   2.059 -1.3906  0.7296  1.1206
  256MOL0     H33780  10.715   6.014   1.694  1.5297 -0.6989 -1.4401
  256MOL0     H33781  10.950   5.976   1.644  0.0868 -2.0908  0.4498
  256MOL0     H33782  11.197   6.161   1.681 -1.3959 -0.3506 -1.1338
  256MOL0     H33783  11.137   6.017   1.609  0.4173  0.6653 -1.7856
  256MOL0     H33784  11.395   6.014   1.798  2.2128 -2.2807 -0.6566
  256MOL0     H33785  11.363   5.915   1.658 -0.5071 -0.3646  0.9620
  256MOL0     H33786  11.390   6.066   1.501 -0.4140 -1.2075  1.0013
  256MOL0     H33787  11.541   6.040   1.589 -0.1126 -1.6529  0.2820
  256MOL0     H33788  11.354   6.274   1.585 -0.1456 -2.8349 -1.9997
  256MOL0     H33789  11.476   6.272   1.714 -1.5169  3.1539 -1.2648
  256MOL0     H33790  11.664   6.340   1.316  1.6974 -1.6285  0.7060
  256MOL0     H33791  11.069   6.037   2.037 -0.7689  3.1192  0.3556
  256MOL0     H33792  10.809   6.064   2.108  1.8277 -2.2371  1.0607
  257MOL0     O33793   2.821   1.908   6.729  0.1289  0.2713 -0.7421
  257MOL0     C33794   2.807   1.788   6.757 -0.0696 -0.9824  0.0662
  257MOL0     O33795   2.696   1.729   6.811 -0.0319 -0.6288  0.8440
  257MOL0     C33796   2.588   1.825   6.822 -0.0385  0.4485  0.1627
  257MOL0     C33797   2.594   1.935   6.903 -1.1446  0.4633  0.0751
  257MOL0     C33798   2.481   2.011   6.920  0.9993 -0.4803 -1.0371
  257MOL0     C33799   2.353   1.974   6.854  0.5555 -0.2946  0.6488
  257MOL0     O33800   2.228   2.029   6.861 -0.7640 -0.1410  0.8318
  257MOL0     C33801   2.210   2.100   6.987 -0.0263  0.0312  0.4102
  257MOL0     C33802   2.058   2.094   7.026 -0.4718  0.3693 -0.7700
  257MOL0     C33803   1.969   2.198   6.966  0.2092 -0.6698 -0.0843
  257MOL0     C33804   1.840   2.196   7.046  0.2896  0.2960  0.7775
  257MOL0     C33805   1.738   2.308   7.015 -0.2186 -0.5073 -0.4225
  257MOL0     C33806   1.682   2.373   7.144 -0.7991 -0.3784  0.4244
  257MOL0     C33807   1.537   2.428   7.130 -0.4548  0.1543  0.2334
  257MOL0     C33808   1.496   2.519   7.253  0.4345 -1.2236 -0.9169
  257MOL0     N33809   1.452   2.443   7.362 -1.0826  0.0371  0.2249
  257MOL0     C33810   1.329   2.384   7.376 -0.1151 -0.1500  1.3974
  257MOL0     C33811   1.340   2.307   7.488  0.9589 -0.1278  0.4509
  257MOL0     C33812   1.251   2.188   7.522  0.0376  0.1003  0.6420
  257MOL0     C33813   1.108   2.227   7.553 -0.4226 -0.6180 -0.0441
  257MOL0     C33814   1.015   2.113   7.606 -0.3980  0.4118  1.0497
  257MOL0     C33815   0.872   2.161   7.639 -0.1559 -0.1303 -0.4367
  257MOL0     O33816   0.804   2.052   7.710  0.1026 -0.0960 -0.7475
  257MOL0     C33817   0.680   2.062   7.752 -0.1711 -0.2995 -0.3002
  257MOL0     C33818   0.577   2.147   7.694 -0.5167 -0.2452 -0.1493
  257MOL0     C33819   0.446   2.136   7.725  0.0495  0.1832 -0.2389
  257MOL0     C33820   0.408   2.042   7.830  0.1298 -0.1091 -0.7254
  257MOL0     C33821   0.267   2.032   7.870 -0.4353 -0.5364 -0.0464
  257MOL0     O33822   0.251   1.952   7.969  0.7247 -0.3736 -1.4061
  257MOL0     C33823   0.120   1.950   8.028 -0.5196 -0.8229 -1.0517
  257MOL0     C33824   0.103   1.955   8.162  0.0843 -0.9267  0.0624
  257MOL0     C33825  -0.018   1.943   8.232 -0.7725 -0.5770 -0.6016
  257MOL0     C33826  -0.129   1.922   8.151 -1.3245  0.1976 -0.9535
  257MOL0     O33827  -0.245   1.931   8.224  0.1335  0.7519 -0.7897
  257MOL0     C33828  -0.357   1.972   8.153 -0.4488 -1.1983  1.2215
  257MOL0     C33829  -0.477   1.982   8.251 -0.0769 -0.5987  1.0165
  257MOL0     C33830  -0.587   2.045   8.166  0.1374  0.7409 -0.7371
  257MOL0     C33831  -0.713   2.051   8.254  0.0166 -0.1706 -0.1656
  257MOL0     C33832  -0.808   2.157   8.184 -0.3886  0.0622  0.3962
  257MOL0     C33833  -0.926   2.200   8.257  0.0720 -1.1667  0.4898
  257MOL0     C33834  -1.038   2.096   8.289  0.6275 -0.3677 -0.7603
  257MOL0     C33835  -1.128   2.122   8.413 -0.8004 -0.8670 -0.2261
  257MOL0    Cl33836  -1.184   2.293   8.434  0.1729 -0.1943 -0.2475
  257MOL0     C33837  -0.119   1.908   8.010 -0.1117  0.5468 -0.6047
  257MOL0     C33838   0.006   1.919   7.948  0.2081  0.9937  0.1643
  257MOL0     O33839   0.191   2.118   7.831  0.1989 -0.6092  0.2910
  257MOL0     C33840   0.507   1.953   7.887  0.2770  0.5311  0.1729
  257MOL0     C33841   0.637   1.974   7.849  0.5508  0.0296  0.2310
  257MOL0     N33842   1.466   2.316   7.532 -0.4578  0.4379  0.7424
  257MOL0     N33843   1.539   2.399   7.457 -0.0149 -1.3412  0.0769
  257MOL0     C33844   2.353   1.864   6.769 -0.4219 -0.3069  0.9118
  257MOL0     C33845   2.471   1.791   6.759  0.2750 -0.4317 -0.1716
  257MOL0     C33846   2.921   1.702   6.719 -1.0237 -0.4860  0.9889
  257MOL0     C33847   2.926   1.566   6.758 -0.2315  0.2332  0.0258
  257MOL0     C33848   3.039   1.489   6.715 -0.2800 -0.2390  1.0330
  257MOL0     C33849   3.143   1.540   6.634 -0.6548 -0.3537  0.3383
  257MOL0     O33850   3.249   1.454   6.601  0.1862  0.1914 -0.7948
  257MOL0     C33851   3.347   1.482   6.497  0.2010 -0.0175 -0.2571
  257MOL0     C33852   3.480   1.514   6.564 -0.0979  0.0061 -0.9274
  257MOL0     C33853   3.539   1.389   6.640 -0.0258 -0.4308 -0.5927
  257MOL0     C33854   3.671   1.427   6.712 -0.2082  0.8431 -0.4505
  257MOL0     C33855   3.656   1.543   6.795  1.1880 -0.0055  0.0070
  257MOL0     C33856   3.649   1.641   6.872 -0.0887 -0.4931 -0.1340
  257MOL0     C33857   3.143   1.672   6.597  0.5257  0.6710 -0.4674
  257MOL0     C33858   3.028   1.750   6.635  0.2351 -0.4760 -0.0020
  257MOL0     H33859   2.680   1.969   6.960 -2.1179  0.6968  1.4559
  257MOL0     H33860   2.477   2.078   7.006 -2.0508 -0.8758 -0.7669
  257MOL0     H33861   2.244   2.204   6.980  2.0576 -0.7368 -2.7449
  257MOL0     H33862   2.262   2.049   7.069 -2.7693  0.9078  2.8764
  257MOL0     H33863   2.055   2.085   7.135  0.0476 -0.7210 -0.8293
  257MOL0     H33864   2.021   1.995   6.998 -2.8307  1.1806 -0.7204
  257MOL0     H33865   1.959   2.179   6.859 -1.2326  2.8713 -0.7154
  257MOL0     H33866   2.027   2.290   6.980  2.8741 -1.9729 -1.6121
  257MOL0     H33867   1.783   2.103   7.034 -1.4408  1.0011  2.9209
  257MOL0     H33868   1.870   2.206   7.151 -0.1413 -1.1526  1.0667
  257MOL0     H33869   1.656   2.289   6.945 -0.8300  0.6345 -0.0541
  257MOL0     H33870   1.800   2.388   6.974  3.5901 -1.2184  3.1960
  257MOL0     H33871   1.757   2.448   7.171  1.5711 -1.9223 -1.4146
  257MOL0     H33872   1.669   2.294   7.219 -2.5143  1.5862  2.3313
  257MOL0     H33873   1.526   2.493   7.043 -5.1231 -2.3515 -1.3879
  257MOL0     H33874   1.467   2.345   7.118  1.4783 -1.3872 -0.9786
  257MOL0     H33875   1.410   2.581   7.227  0.3477  0.2097  2.2800
  257MOL0     H33876   1.578   2.586   7.281  0.9124 -2.0547 -0.2786
  257MOL0     H33877   1.246   2.388   7.306 -0.0509 -1.2650  1.2457
  257MOL0     H33878   1.303   2.144   7.608 -0.9772 -1.9507  0.2646
  257MOL0     H33879   1.255   2.116   7.439  0.2859  2.7605 -1.7830
  257MOL0     H33880   1.076   2.272   7.458  1.6539  0.2593 -0.3972
  257MOL0     H33881   1.105   2.309   7.625  1.2364  0.0117 -0.6276
  257MOL0     H33882   1.012   2.033   7.531  1.2039  2.3385 -1.2436
  257MOL0     H33883   1.054   2.079   7.702  0.5110 -1.4178  0.0939
  257MOL0     H33884   0.819   2.190   7.547  1.2192  0.2555 -1.1422
  257MOL0     H33885   0.880   2.247   7.705  1.9905 -0.2357 -0.4939
  257MOL0     H33886   0.593   2.216   7.612  1.3467 -0.5394 -0.0674
  257MOL0     H33887   0.381   2.213   7.686 -1.4749  0.4320  2.5019
  257MOL0     H33888   0.191   1.980   8.220  0.4576  2.0649 -1.6027
  257MOL0     H33889  -0.028   1.970   8.336  0.0216  1.1378 -0.9249
  257MOL0     H33890  -0.389   1.901   8.077  0.3560 -1.6408  1.2786
  257MOL0     H33891  -0.337   2.073   8.116  1.3227 -1.7984  0.4348
  257MOL0     H33892  -0.462   2.028   8.349 -0.3922 -1.0231  1.2686
  257MOL0     H33893  -0.504   1.882   8.285 -0.6737 -0.9454 -0.4143
  257MOL0     H33894  -0.618   1.978   8.086  1.2368 -0.0594 -0.5192
  257MOL0     H33895  -0.544   2.140   8.131 -1.2711  1.9375  0.6077
  257MOL0     H33896  -0.756   1.951   8.246  2.4190 -1.3640  0.7414
  257MOL0     H33897  -0.697   2.090   8.355 -2.3850  2.7539 -0.7734
  257MOL0     H33898  -0.832   2.110   8.088  0.6986 -0.0019  0.1497
  257MOL0     H33899  -0.754   2.250   8.162  1.3830 -0.9858  0.2057
  257MOL0     H33900  -0.974   2.278   8.197 -1.3623 -1.9421  0.6041
  257MOL0     H33901  -0.899   2.249   8.351 -0.7073 -0.6364  0.4458
  257MOL0     H33902  -1.108   2.093   8.205  1.8350  2.2436 -1.9787
  257MOL0     H33903  -1.000   1.993   8.289  0.8639 -0.3223 -2.6738
  257MOL0     H33904  -1.062   2.100   8.497 -0.6938  3.1050  0.9695
  257MOL0     H33905  -1.221   2.065   8.408  0.5424 -3.1176 -0.7211
  257MOL0     H33906  -0.212   1.911   7.954 -4.2297 -0.3699  5.2823
  257MOL0     H33907   0.014   1.904   7.841  0.2707 -3.4719  0.6293
  257MOL0     H33908   0.468   1.871   7.946 -4.3828 -0.3773 -3.5986
  257MOL0     H33909   0.713   1.919   7.904  1.4082  1.0519  0.1233
  257MOL0     H33910   2.260   1.825   6.729 -1.2897 -0.4074  2.8945
  257MOL0     H33911   2.457   1.695   6.710 -0.7989 -0.1267 -0.5084
  257MOL0     H33912   2.838   1.525   6.806 -2.4145  1.0194 -2.9977
  257MOL0     H33913   3.063   1.399   6.771  0.1643  0.1634  1.4992
  257MOL0     H33914   3.316   1.561   6.428 -3.2622 -1.6147 -0.7634
  257MOL0     H33915   3.374   1.399   6.431  1.1297  0.0378  0.0430
  257MOL0     H33916   3.541   1.549   6.481 -0.2551  1.0788 -0.5997
  257MOL0     H33917   3.462   1.584   6.647 -2.7412 -3.0835  1.4240
  257MOL0     H33918   3.567   1.311   6.568 -1.3702 -1.3458 -0.1494
  257MOL0     H33919   3.463   1.341   6.702  0.9530 -0.4418  0.6334
  257MOL0     H33920   3.699   1.336   6.766 -0.6081  0.2447 -1.2338
  257MOL0     H33921   3.750   1.439   6.637 -0.8280 -4.0318 -2.2339
  257MOL0     H33922   3.659   1.728   6.934  2.2364  1.6736 -3.2191
  257MOL0     H33923   3.227   1.721   6.549  0.5103  2.0578  0.8722
  257MOL0     H33924   3.025   1.854   6.605 -0.4825  0.1802  2.1437
  258MOL0     O33925   1.877   5.336  10.166 -0.5545  0.3533  0.2476
  258MOL0     C33926   1.817   5.443  10.176 -0.1203  0.0245  0.0364
  258MOL0     O33927   1.706   5.473  10.254 -0.2779  0.7766  0.6159
  258MOL0     C33928   1.596   5.396  10.227  0.1924  0.2404  0.5206
  258MOL0     C33929   1.540   5.358  10.107 -0.2587 -0.3526  0.9961
  258MOL0     C33930   1.428   5.271  10.097  1.0113  0.5606 -0.9165
  258MOL0     C33931   1.361   5.231  10.212 -0.7843  0.3424 -0.0898
  258MOL0     O33932   1.258   5.138  10.209 -0.5739 -0.4719 -0.6981
  258MOL0     C33933   1.179   5.129  10.090  0.4377 -0.0156 -0.3026
  258MOL0     C33934   1.196   4.987  10.024  0.0041  0.9981  0.0052
  258MOL0     C33935   1.159   4.865  10.115 -0.7768  0.0868  0.6026
  258MOL0     C33936   1.184   4.729  10.048  0.5349 -1.3768  1.0105
  258MOL0     C33937   1.130   4.606  10.123  0.5194 -0.0559  0.2810
  258MOL0     C33938   1.082   4.494  10.026  0.3575 -0.0729  0.5781
  258MOL0     C33939   0.970   4.549   9.928 -0.0507 -0.0757  0.4426
  258MOL0     C33940   0.863   4.651   9.970 -0.1800 -0.1659 -1.0390
  258MOL0     N33941   0.766   4.579  10.049  0.9687  0.0014  0.5101
  258MOL0     C33942   0.648   4.549   9.989  0.6865 -0.0423  0.9029
  258MOL0     C33943   0.576   4.465  10.071  0.0331 -0.0195 -0.2386
  258MOL0     C33944   0.450   4.389  10.053  0.2631 -0.1932 -0.4835
  258MOL0     C33945   0.367   4.413  10.180 -0.7064  0.9381  0.5170
  258MOL0     C33946   0.247   4.331  10.170 -0.0928 -0.0618  0.7130
  258MOL0     C33947   0.184   4.295  10.306  0.8705 -0.0069  0.2652
  258MOL0     O33948   0.073   4.204  10.278  0.8340 -0.7919  0.1135
  258MOL0     C33949  -0.005   4.159  10.377 -0.9214  1.1839  0.4013
  258MOL0     C33950  -0.091   4.058  10.351 -0.7133 -0.5740  0.3796
  258MOL0     C33951  -0.174   4.016  10.455  0.5169  0.2081 -0.7129
  258MOL0     C33952  -0.183   4.077  10.587  0.5042 -0.2173 -0.6313
  258MOL0     C33953  -0.284   4.017  10.680  0.3594 -0.7860  0.2422
  258MOL0     O33954  -0.401   3.959  10.631 -0.9197  0.7086  0.6321
  258MOL0     C33955  -0.491   3.908  10.721  0.0544 -0.9247  0.0846
  258MOL0     C33956  -0.546   3.998  10.823 -0.8233  0.6343  0.7420
  258MOL0     C33957  -0.639   3.947  10.917 -0.1833  0.4122  0.0076
  258MOL0     C33958  -0.677   3.812  10.906 -0.1392 -0.6655  0.9353
  258MOL0     O33959  -0.763   3.744  10.990 -0.6278  0.7994  0.1563
  258MOL0     C33960  -0.884   3.819  11.023 -0.1156  0.3419 -0.4435
  258MOL0     C33961  -0.933   3.737  11.148  0.6617 -0.7517  0.8543
  258MOL0     C33962  -1.037   3.805  11.235 -0.3562 -0.7577  0.1373
  258MOL0     C33963  -1.160   3.839  11.149  0.2639  0.6251  0.2269
  258MOL0     C33964  -1.267   3.918  11.215 -1.0471  0.5717 -0.7660
  258MOL0     C33965  -1.390   3.927  11.116  0.3565  0.9728 -0.2917
  258MOL0     C33966  -1.467   4.059  11.161 -0.5164  0.4585 -0.0416
  258MOL0     C33967  -1.606   4.071  11.093 -0.3484  0.5146  0.3186
  258MOL0    Cl33968  -1.720   3.930  11.130  0.0625 -0.1442 -0.2252
  258MOL0     C33969  -0.615   3.729  10.806 -0.0150 -0.5248  0.1520
  258MOL0     C33970  -0.523   3.778  10.710 -0.3525 -0.1210 -0.3587
  258MOL0     O33971  -0.264   4.037  10.799  0.3036  0.5509 -1.0923
  258MOL0     C33972  -0.087   4.178  10.615 -0.2774  0.7956 -0.0820
  258MOL0     C33973  -0.003   4.216  10.502  0.2243  0.2404  0.6384
  258MOL0     N33974   0.657   4.460  10.196 -0.6593 -0.2931  0.5564
  258MOL0     N33975   0.766   4.524  10.172 -0.4525  0.3785  0.2096
  258MOL0     C33976   1.420   5.256  10.337 -0.2574 -0.9591 -0.2349
  258MOL0     C33977   1.537   5.343  10.343 -0.2260 -0.9416  0.2945
  258MOL0     C33978   1.891   5.568  10.125 -0.4981 -0.5318 -0.0521
  258MOL0     C33979   1.824   5.692  10.149  0.6472 -0.2012 -0.5100
  258MOL0     C33980   1.874   5.813  10.096 -0.0866  0.1137 -0.3336
  258MOL0     C33981   1.997   5.808  10.023  0.0495 -0.1852 -1.3363
  258MOL0     O33982   2.034   5.918   9.962 -0.3710 -0.5313  0.2463
  258MOL0     C33983   2.136   5.907   9.864 -0.6484 -0.1314  0.1572
  258MOL0     C33984   2.139   6.019   9.751  0.1119  0.0535 -0.6571
  258MOL0     C33985   2.185   6.150   9.820 -0.1839  1.1055 -0.0782
  258MOL0     C33986   2.161   6.276   9.735  0.3563  0.2849 -0.1895
  258MOL0     C33987   2.190   6.405   9.790 -0.3480 -0.6103  0.0736
  258MOL0     C33988   2.195   6.519   9.829  0.0364 -0.3886 -1.2803
  258MOL0     C33989   2.074   5.693  10.023  0.3326 -0.1744 -0.2220
  258MOL0     C33990   2.016   5.571  10.061 -0.3101 -0.9184 -0.3193
  258MOL0     H33991   1.580   5.394  10.012 -2.4463  1.6146  0.7177
  258MOL0     H33992   1.397   5.237   9.999  2.2451 -1.0147 -0.7945
  258MOL0     H33993   1.193   5.215  10.024 -0.5216  0.6538  0.3282
  258MOL0     H33994   1.073   5.134  10.119  1.0584  1.6372  1.9817
  258MOL0     H33995   1.303   4.976  10.007  0.4808  3.6763  0.8626
  258MOL0     H33996   1.140   4.987   9.929 -2.9936 -2.8163  1.5097
  258MOL0     H33997   1.052   4.882  10.129 -1.0580  0.0990 -1.3133
  258MOL0     H33998   1.211   4.870  10.211 -0.7984  1.2794  0.5710
  258MOL0     H33999   1.153   4.744   9.945  2.2641  1.2917  0.7975
  258MOL0     H34000   1.293   4.728  10.043  0.5070 -2.3775  0.2588
  258MOL0     H34001   1.045   4.625  10.188  1.6301 -1.0869  2.1089
  258MOL0     H34002   1.207   4.573  10.193  3.3778  1.5205 -1.8756
  258MOL0     H34003   1.042   4.417  10.093  1.2534  0.0149  1.2402
  258MOL0     H34004   1.163   4.460   9.961  3.6485  1.0674  3.7375
  258MOL0     H34005   1.023   4.590   9.841 -0.2992 -4.0202 -1.7956
  258MOL0     H34006   0.913   4.474   9.872 -1.8686  0.8714  0.9222
  258MOL0     H34007   0.817   4.706   9.887  0.3430  2.4104  0.2738
  258MOL0     H34008   0.903   4.742  10.015 -1.7654  0.1158 -0.1465
  258MOL0     H34009   0.621   4.559   9.884 -2.1400 -4.3018  0.9678
  258MOL0     H34010   0.484   4.286  10.045  0.5931  0.0442 -2.7288
  258MOL0     H34011   0.383   4.409   9.969 -0.6233 -1.0060  0.0085
  258MOL0     H34012   0.334   4.517  10.190  4.7549  2.9267  1.1389
  258MOL0     H34013   0.428   4.393  10.269  2.7697  1.9676 -1.4236
  258MOL0     H34014   0.171   4.361  10.097 -0.2828 -1.3125  0.3613
  258MOL0     H34015   0.280   4.236  10.127  3.7879  1.3774  0.0705
  258MOL0     H34016   0.156   4.389  10.355 -1.1467  0.5758 -1.8524
  258MOL0     H34017   0.251   4.250  10.380  2.3182  0.6090 -0.6110
  258MOL0     H34018  -0.089   4.004  10.256  2.1908  0.0368  0.0148
  258MOL0     H34019  -0.243   3.935  10.433  0.0687  0.2219  0.5502
  258MOL0     H34020  -0.508   4.099  10.827  2.5303 -0.4649 -0.0107
  258MOL0     H34021  -0.667   4.007  11.003 -1.5811  0.4685 -0.4581
  258MOL0     H34022  -0.959   3.833  10.945  0.7571 -1.1026 -1.5989
  258MOL0     H34023  -0.844   3.911  11.066  1.2790 -1.1184  1.6112
  258MOL0     H34024  -0.847   3.720  11.214  2.6473  1.8355 -0.8525
  258MOL0     H34025  -0.977   3.643  11.113  2.2461 -0.7744 -1.2968
  258MOL0     H34026  -1.003   3.906  11.264 -3.3115  0.2988  0.3209
  258MOL0     H34027  -1.057   3.737  11.319 -0.0819  0.1533  0.9709
  258MOL0     H34028  -1.132   3.895  11.059 -0.3270 -1.9749 -1.6897
  258MOL0     H34029  -1.200   3.743  11.114 -0.3374  0.8496  0.2905
  258MOL0     H34030  -1.225   4.013  11.251 -0.6501 -0.2023  0.8992
  258MOL0     H34031  -1.299   3.855  11.298 -0.1655 -2.3671 -2.5252
  258MOL0     H34032  -1.444   3.831  11.119  3.7423 -1.0669  1.1663
  258MOL0     H34033  -1.361   3.929  11.011 -0.8343  1.1594 -0.6298
  258MOL0     H34034  -1.492   4.057  11.268 -1.8265  3.4949 -0.1852
  258MOL0     H34035  -1.412   4.149  11.133  0.0374 -0.4650 -2.1068
  258MOL0     H34036  -1.588   4.077  10.985 -0.1535 -2.2228  0.1284
  258MOL0     H34037  -1.665   4.162  11.108 -1.3430 -0.2571  1.3131
  258MOL0     H34038  -0.638   3.623  10.800  0.9758 -0.9749  2.6214
  258MOL0     H34039  -0.487   3.703  10.641 -4.9459 -3.6181  0.4946
  258MOL0     H34040  -0.075   4.230  10.710  4.2967 -0.7331  0.4102
  258MOL0     H34041   0.075   4.290  10.515  0.9284 -0.3853  0.0981
  258MOL0     H34042   1.377   5.212  10.427 -2.2530  0.0074 -0.6537
  258MOL0     H34043   1.584   5.381  10.433  2.0576  1.0739 -1.6094
  258MOL0     H34044   1.731   5.700  10.204  0.6204 -1.6333 -0.3117
  258MOL0     H34045   1.820   5.907  10.105  2.0098  1.2968  0.5469
  258MOL0     H34046   2.117   5.812   9.814  0.6152 -0.7926  0.8569
  258MOL0     H34047   2.239   5.908   9.902 -0.6746  0.2797  0.2219
  258MOL0     H34048   2.218   6.009   9.675  1.4160  4.0996 -0.0489
  258MOL0     H34049   2.037   6.028   9.713 -1.2048 -1.0839  2.3202
  258MOL0     H34050   2.288   6.144   9.856 -0.6758 -2.8588  1.1674
  258MOL0     H34051   2.123   6.159   9.910 -1.6532 -3.1876 -0.4243
  258MOL0     H34052   2.230   6.273   9.650 -0.7351 -0.9465 -1.0714
  258MOL0     H34053   2.059   6.264   9.699  0.0191 -0.1691  0.8819
  258MOL0     H34054   2.228   6.617   9.856  1.0546 -0.1502 -3.2384
  258MOL0     H34055   2.175   5.688   9.985  1.4553  1.6018  2.2869
  258MOL0     H34056   2.065   5.475  10.052 -0.2192 -1.1942  2.3538
  259MOL0     O34057   3.734   3.500  10.773 -0.2189 -0.2249 -0.4223
  259MOL0     C34058   3.741   3.459  10.890  0.1110 -0.3978  0.1491
  259MOL0     O34059   3.640   3.452  10.982  0.8081  0.5534 -0.0493
  259MOL0     C34060   3.515   3.497  10.973  0.5506  0.0713  0.3856
  259MOL0     C34061   3.457   3.536  10.849 -0.0626  0.4291  0.4025
  259MOL0     C34062   3.333   3.598  10.856 -0.4463  0.2140 -0.1973
  259MOL0     C34063   3.260   3.623  10.978 -0.7544 -0.2156 -0.1721
  259MOL0     O34064   3.141   3.678  10.971 -0.1757 -0.1395 -0.1560
  259MOL0     C34065   3.050   3.652  11.083  0.1063  0.3466  0.6940
  259MOL0     C34066   2.919   3.716  11.043  0.2461 -0.5158 -0.6756
  259MOL0     C34067   2.782   3.640  11.069 -0.3650  0.0409  0.3219
  259MOL0     C34068   2.666   3.736  11.013 -0.5575  0.5058  1.3984
  259MOL0     C34069   2.528   3.695  11.066  0.2098  0.0929 -0.2909
  259MOL0     C34070   2.486   3.557  11.020 -0.0516 -0.0568  0.9408
  259MOL0     C34071   2.363   3.524  11.108  0.2243  0.1428  1.2789
  259MOL0     C34072   2.296   3.401  11.046  0.5345 -0.5442 -0.4638
  259MOL0     N34073   2.211   3.337  11.145  0.2595 -0.2469  0.0938
  259MOL0     C34074   2.095   3.376  11.205 -0.3372  0.6135  0.3358
  259MOL0     C34075   2.031   3.260  11.247 -0.2360  0.1344  0.0220
  259MOL0     C34076   1.883   3.256  11.286 -0.5193 -0.7085  0.3086
  259MOL0     C34077   1.817   3.157  11.200  0.2941 -0.2368 -0.0792
  259MOL0     C34078   1.819   3.199  11.054  0.0644 -0.1993 -0.4485
  259MOL0     C34079   1.700   3.167  10.970  0.5386  0.2977 -0.3774
  259MOL0     O34080   1.578   3.200  11.045 -0.3793 -0.6207 -0.1659
  259MOL0     C34081   1.453   3.196  10.996 -0.2065  1.0762 -0.1266
  259MOL0     C34082   1.431   3.128  10.876 -0.0719  0.5271 -0.4391
  259MOL0     C34083   1.294   3.117  10.827  0.5948 -0.4224  0.3977
  259MOL0     C34084   1.194   3.178  10.898  0.7116  0.5665 -0.9513
  259MOL0     C34085   1.057   3.168  10.844 -0.3556  0.2803  0.2830
  259MOL0     O34086   0.958   3.245  10.891  0.5330  0.3127  0.3706
  259MOL0     C34087   0.824   3.231  10.843  0.6513  0.1617  0.4639
  259MOL0     C34088   0.780   3.211  10.705  0.3856 -0.9403 -0.7784
  259MOL0     C34089   0.643   3.194  10.675 -1.0034 -1.0781 -0.2503
  259MOL0     C34090   0.543   3.186  10.779 -0.2986 -0.0196  0.7476
  259MOL0     O34091   0.408   3.151  10.777 -0.3745 -0.1768 -0.5284
  259MOL0     C34092   0.340   3.162  10.653  0.9584  0.2268 -0.2090
  259MOL0     C34093   0.216   3.067  10.663  0.5550 -0.2957  0.6068
  259MOL0     C34094   0.095   3.128  10.734 -0.1002 -0.1057 -0.0388
  259MOL0     C34095  -0.012   3.032  10.776 -1.1988  1.0661 -0.5029
  259MOL0     C34096  -0.130   3.088  10.858 -0.2344 -0.0496  0.8444
  259MOL0     C34097  -0.237   2.980  10.882  0.1063 -0.2440  0.0687
  259MOL0     C34098  -0.357   3.033  10.954 -0.8622 -0.7196  0.8415
  259MOL0     C34099  -0.477   2.932  10.949 -0.6597 -0.1388  0.5460
  259MOL0    Cl34100  -0.618   3.022  10.999 -0.3984  0.5425  0.3431
  259MOL0     C34101   0.595   3.206  10.904  0.4035  0.2468  1.2091
  259MOL0     C34102   0.725   3.226  10.939 -0.4813  0.4220 -0.4491
  259MOL0     O34103   1.042   3.089  10.755  0.5395  0.7587  0.6802
  259MOL0     C34104   1.215   3.248  11.018 -0.1478 -0.0738 -0.2824
  259MOL0     C34105   1.347   3.264  11.061  0.4629  0.0792 -0.2164
  259MOL0     N34106   2.121   3.160  11.237  0.1535  1.0164  0.1020
  259MOL0     N34107   2.225   3.199  11.170  1.1996 -0.7402  0.2969
  259MOL0     C34108   3.317   3.560  11.099 -0.5339 -0.4596  0.1722
  259MOL0     C34109   3.446   3.506  11.089  0.4115  0.6119  0.1718
  259MOL0     C34110   3.877   3.416  10.928  0.2989  0.2530  0.8611
  259MOL0     C34111   3.913   3.375  11.061 -0.2917 -0.4018 -0.0342
  259MOL0     C34112   4.048   3.358  11.095 -0.0148 -0.2704  0.4108
  259MOL0     C34113   4.150   3.374  11.004 -0.2820 -0.7780  0.4810
  259MOL0     O34114   4.283   3.344  11.030  0.1272  0.2536 -0.0462
  259MOL0     C34115   4.330   3.345  11.168 -0.4927  0.3702 -0.1680
  259MOL0     C34116   4.487   3.347  11.182  0.1094 -0.1686 -0.5188
  259MOL0     C34117   4.521   3.397  11.317 -0.3764 -0.2746 -0.6196
  259MOL0     C34118   4.555   3.548  11.312  0.4986 -0.6887 -0.0897
  259MOL0     C34119   4.528   3.609  11.443 -0.0186  0.7635  0.2871
  259MOL0     C34120   4.514   3.671  11.545  0.7119  0.5382 -0.4186
  259MOL0     C34121   4.119   3.419  10.875 -0.2799  0.3161  0.3215
  259MOL0     C34122   3.987   3.446  10.840 -0.1577 -0.5352  0.1898
  259MOL0     H34123   3.500   3.515  10.752 -1.1734 -0.1432  0.0114
  259MOL0     H34124   3.291   3.618  10.758 -2.6317 -2.9215 -0.0049
  259MOL0     H34125   3.095   3.687  11.176 -1.0274  1.5452  0.8089
  259MOL0     H34126   3.033   3.544  11.085  1.0266  0.2088  2.2464
  259MOL0     H34127   2.921   3.737  10.936 -1.8236 -0.3476 -0.7274
  259MOL0     H34128   2.916   3.817  11.084 -1.7147 -1.4859  1.8513
  259MOL0     H34129   2.767   3.620  11.176 -1.3050  0.7824  0.3445
  259MOL0     H34130   2.796   3.547  11.014  3.1913  0.3239  0.5277
  259MOL0     H34131   2.685   3.842  11.030  1.3265  1.3127 -3.8303
  259MOL0     H34132   2.663   3.731  10.904  1.2066  1.3981  1.2719
  259MOL0     H34133   2.451   3.759  11.023  0.1025 -0.2667 -0.6486
  259MOL0     H34134   2.538   3.704  11.174 -0.4339 -0.7148 -0.1511
  259MOL0     H34135   2.555   3.473  11.035  0.9823  0.2387 -1.7279
  259MOL0     H34136   2.455   3.568  10.916 -4.5464 -0.2419  2.0419
  259MOL0     H34137   2.396   3.506  11.211  1.2559 -2.5643  0.5514
  259MOL0     H34138   2.293   3.608  11.102 -1.0919 -0.7732  2.9301
  259MOL0     H34139   2.369   3.332  11.004  0.9289  0.9998 -2.4960
  259MOL0     H34140   2.247   3.431  10.952  3.9149 -1.3010 -2.6351
  259MOL0     H34141   2.052   3.476  11.209  2.3517  1.8314  1.5634
  259MOL0     H34142   1.842   3.357  11.275 -1.0605 -0.7337  1.8666
  259MOL0     H34143   1.859   3.236  11.390 -0.5044  3.4443  1.2890
  259MOL0     H34144   1.710   3.163  11.225  0.2752  5.2092 -0.1861
  259MOL0     H34145   1.865   3.060  11.211 -1.3771 -1.2280 -1.0199
  259MOL0     H34146   1.822   3.308  11.062 -1.8538 -0.1173 -0.4283
  259MOL0     H34147   1.916   3.162  11.019  1.8534  0.7362  3.0481
  259MOL0     H34148   1.697   3.060  10.946  1.0146 -0.7845  3.6784
  259MOL0     H34149   1.711   3.234  10.885  2.0181  1.4265  0.6565
  259MOL0     H34150   1.509   3.086  10.813 -0.6626  1.4202 -1.8116
  259MOL0     H34151   1.284   3.091  10.722  1.1928  1.5001 -0.1910
  259MOL0     H34152   0.861   3.213  10.632  2.0485 -2.3006  0.9439
  259MOL0     H34153   0.618   3.174  10.571 -1.4795 -1.1167 -0.1321
  259MOL0     H34154   0.394   3.146  10.560  0.3768 -0.1648 -0.4850
  259MOL0     H34155   0.296   3.262  10.654  1.2955  0.3756  0.3066
  259MOL0     H34156   0.235   2.970  10.711 -0.1278 -1.3481 -1.1603
  259MOL0     H34157   0.177   3.039  10.565  0.2938 -0.2319  0.6919
  259MOL0     H34158   0.048   3.208  10.675 -1.2585 -1.4201 -0.9644
  259MOL0     H34159   0.136   3.172  10.825 -1.8672 -3.0854  2.4040
  259MOL0     H34160  -0.060   2.991  10.687 -0.4943  2.0012 -1.3395
  259MOL0     H34161   0.043   2.950  10.823 -1.2612 -0.2593 -2.6249
  259MOL0     H34162  -0.159   3.182  10.811 -0.0937 -0.2736  0.3046
  259MOL0     H34163  -0.092   3.113  10.958  3.4221  1.0564 -0.6215
  259MOL0     H34164  -0.181   2.907  10.941  2.6851 -0.6755 -2.6722
  259MOL0     H34165  -0.278   2.932  10.793 -3.9429  0.6109  1.2517
  259MOL0     H34166  -0.333   3.047  11.059  2.9412 -0.4353  0.0941
  259MOL0     H34167  -0.390   3.127  10.910 -1.9510 -1.9669 -1.1550
  259MOL0     H34168  -0.456   2.859  11.028  1.4341  0.5637  0.7034
  259MOL0     H34169  -0.494   2.886  10.851  1.0380  1.9196 -0.7929
  259MOL0     H34170   0.527   3.188  10.987 -1.8015 -1.5611 -0.8228
  259MOL0     H34171   0.750   3.235  11.045 -1.6519  3.3634 -0.3403
  259MOL0     H34172   1.144   3.305  11.077 -0.3258 -1.2879  0.7241
  259MOL0     H34173   1.388   3.325  11.141 -1.3786  0.5328  0.4338
  259MOL0     H34174   3.269   3.561  11.196 -2.1359 -0.4470 -0.5823
  259MOL0     H34175   3.480   3.453  11.178 -1.2434 -0.8974 -0.0315
  259MOL0     H34176   3.831   3.359  11.131 -0.7111 -0.0891 -0.4424
  259MOL0     H34177   4.075   3.318  11.192  1.7807  0.1856  0.1388
  259MOL0     H34178   4.283   3.259  11.217 -2.4830  0.4639 -1.7960
  259MOL0     H34179   4.293   3.442  11.201  2.3493  1.9564 -1.3231
  259MOL0     H34180   4.525   3.245  11.166 -1.6855 -1.2355  1.3783
  259MOL0     H34181   4.527   3.414  11.106  2.3248  1.2565  1.7522
  259MOL0     H34182   4.613   3.347  11.348  1.3664  2.2485 -1.4189
  259MOL0     H34183   4.448   3.372  11.395  0.1031  0.9964  0.2770
  259MOL0     H34184   4.661   3.561  11.287  0.5108 -0.3222  0.1453
  259MOL0     H34185   4.496   3.598  11.235  1.3694 -1.9501 -1.6540
  259MOL0     H34186   4.499   3.733  11.631 -2.4981 -1.2459  0.4814
  259MOL0     H34187   4.204   3.425  10.808 -1.1284  1.7971 -0.6837
  259MOL0     H34188   3.963   3.497  10.747 -0.7975 -0.5503  0.3411
  260MOL0     O34189  10.454   6.783   0.135 -1.1615  0.1538 -0.4965
  260MOL0     C34190  10.458   6.892   0.083  0.0792  0.6467  0.2384
  260MOL0     O34191  10.376   6.987   0.112  0.0622  0.7009  0.5288
  260MOL0     C34192  10.284   6.967   0.205 -0.2816  0.0981 -0.7701
  260MOL0     C34193  10.147   6.969   0.166  0.3499  0.5488  0.2960
  260MOL0     C34194  10.051   6.943   0.265  0.2247 -0.0231 -0.1040
  260MOL0     C34195  10.084   6.935   0.402  0.8527  0.0040  0.3972
  260MOL0     O34196   9.997   6.945   0.512  0.2385  0.4367 -0.2317
  260MOL0     C34197   9.854   6.935   0.491 -0.6603  0.2398  0.0825
  260MOL0     C34198   9.798   6.957   0.638  0.5231 -0.0870 -0.6276
  260MOL0     C34199   9.796   6.829   0.721 -1.2676  0.3873 -0.5425
  260MOL0     C34200   9.745   6.840   0.867  0.4961  0.2566 -1.0440
  260MOL0     C34201   9.602   6.843   0.879  0.2162  0.0654 -0.8207
  260MOL0     C34202   9.537   6.706   0.870  0.9948  1.0922 -0.3785
  260MOL0     C34203   9.383   6.718   0.909 -0.6314  0.0151 -0.3302
  260MOL0     C34204   9.307   6.601   0.848  0.2056 -0.5210  0.2743
  260MOL0     N34205   9.170   6.587   0.902 -0.4510 -0.7046 -0.2602
  260MOL0     C34206   9.101   6.469   0.929 -0.3307  0.1642 -0.2605
  260MOL0     C34207   8.978   6.501   0.972 -0.2307  0.0602  0.4506
  260MOL0     C34208   8.872   6.408   1.025 -0.2878 -0.0082 -0.6469
  260MOL0     C34209   8.724   6.445   0.987  0.6125 -0.8720 -0.2688
  260MOL0     C34210   8.677   6.459   0.842 -0.4004  0.2579  0.6205
  260MOL0     C34211   8.709   6.329   0.762  0.0542  0.1889 -0.8113
  260MOL0     O34212   8.647   6.328   0.636 -0.5077  0.4382  0.4230
  260MOL0     C34213   8.511   6.323   0.612 -0.1178 -0.3991 -0.0448
  260MOL0     C34214   8.412   6.292   0.707 -1.2111 -0.1327 -0.8400
  260MOL0     C34215   8.274   6.293   0.670 -0.1516  1.2835 -0.1678
  260MOL0     C34216   8.233   6.304   0.539 -0.1351 -0.1933 -0.6238
  260MOL0     C34217   8.087   6.299   0.512 -0.6282  0.0499 -0.2167
  260MOL0     O34218   8.007   6.275   0.618 -0.0472  0.1033 -0.2949
  260MOL0     C34219   7.884   6.219   0.599  0.7090 -0.5224  1.7325
  260MOL0     C34220   7.835   6.162   0.478  0.3050 -0.3850 -0.6288
  260MOL0     C34221   7.702   6.110   0.477 -0.5010  0.2116  0.3584
  260MOL0     C34222   7.621   6.109   0.587 -0.4392 -0.6868 -0.8380
  260MOL0     O34223   7.484   6.060   0.596  0.2474  0.0296  0.3418
  260MOL0     C34224   7.401   6.041   0.476  0.3305 -0.2182 -0.1432
  260MOL0     C34225   7.247   6.065   0.487  0.3066 -0.6150  0.0032
  260MOL0     C34226   7.190   5.976   0.593 -0.5121  0.3354  0.1042
  260MOL0     C34227   7.173   5.832   0.572  0.2669 -0.2271  0.7689
  260MOL0     C34228   7.097   5.798   0.445  0.4744  0.3185 -0.0233
  260MOL0     C34229   7.044   5.655   0.419  1.0273  0.1986  0.2858
  260MOL0     C34230   7.158   5.555   0.428 -0.3989 -0.0675 -0.7964
  260MOL0     C34231   7.120   5.425   0.357  0.0879  0.2059 -0.2985
  260MOL0    Cl34232   7.254   5.308   0.378 -0.1414 -0.3754 -0.0364
  260MOL0     C34233   7.672   6.176   0.703  0.7314  0.9303  0.7016
  260MOL0     C34234   7.796   6.229   0.703 -0.4051 -0.6186  1.2628
  260MOL0     O34235   8.053   6.328   0.397  0.5103  0.6961 -0.3708
  260MOL0     C34236   8.332   6.324   0.443 -0.6150  0.6672 -0.1108
  260MOL0     C34237   8.468   6.338   0.477 -0.7780 -0.3480 -0.0475
  260MOL0     N34238   8.965   6.640   0.959 -0.5138  0.3560  0.7241
  260MOL0     N34239   9.074   6.689   0.910 -0.7045  0.5317  1.0568
  260MOL0     C34240  10.216   6.955   0.435 -0.2635  0.1630  0.1508
  260MOL0     C34241  10.314   6.951   0.342  0.4735  0.8638 -0.1205
  260MOL0     C34242  10.551   6.891  -0.033 -0.6809  0.0153  0.8823
  260MOL0     C34243  10.636   6.781  -0.052 -0.9486  0.8585 -0.4853
  260MOL0     C34244  10.740   6.775  -0.147 -0.1507  0.1515 -0.4323
  260MOL0     C34245  10.752   6.884  -0.243 -0.2140 -0.6442 -0.4831
  260MOL0     O34246  10.849   6.875  -0.335 -0.0895 -0.0341 -0.5026
  260MOL0     C34247  10.848   6.975  -0.447  0.0938  0.5899 -0.6246
  260MOL0     C34248  10.973   6.948  -0.538 -0.3463  0.7249 -1.2907
  260MOL0     C34249  10.949   6.832  -0.629  0.2459 -0.1052 -0.1937
  260MOL0     C34250  11.056   6.793  -0.726 -0.1933  0.0889 -0.5675
  260MOL0     C34251  11.065   6.893  -0.834 -0.1857  0.0554  0.7529
  260MOL0     C34252  11.082   6.966  -0.927 -0.1458 -0.6072 -0.3183
  260MOL0     C34253  10.651   6.986  -0.234 -0.4688  0.2445 -0.2083
  260MOL0     C34254  10.557   6.994  -0.128 -0.2541  0.2547  0.1009
  260MOL0     H34255  10.117   6.976   0.062  0.3264 -0.2897  0.2379
  260MOL0     H34256   9.950   6.934   0.226 -0.4152 -2.8444  1.9054
  260MOL0     H34257   9.828   6.832   0.465  0.2083 -0.0625  0.3688
  260MOL0     H34258   9.824   7.007   0.414 -1.6922  0.9019  1.0759
  260MOL0     H34259   9.694   6.986   0.629  0.3499 -0.9079 -1.4405
  260MOL0     H34260   9.852   7.035   0.692 -0.7384  1.7544 -1.9331
  260MOL0     H34261   9.903   6.811   0.740 -1.9801 -2.0645  1.7435
  260MOL0     H34262   9.758   6.749   0.657  2.8758 -0.5421 -2.1682
  260MOL0     H34263   9.784   6.756   0.925 -3.3345 -0.0133  1.5061
  260MOL0     H34264   9.780   6.936   0.906 -2.3656  0.6829  0.7952
  260MOL0     H34265   9.564   6.922   0.814 -0.6999  3.0834  3.0314
  260MOL0     H34266   9.580   6.880   0.980 -0.0014  3.0238 -1.8724
  260MOL0     H34267   9.583   6.648   0.950  2.4284  2.4326 -0.1673
  260MOL0     H34268   9.548   6.662   0.771  0.1975 -2.0200  0.7972
  260MOL0     H34269   9.379   6.715   1.018  1.7787  0.1834 -0.1863
  260MOL0     H34270   9.343   6.814   0.876 -0.0680  0.0853 -0.8316
  260MOL0     H34271   9.369   6.514   0.875  1.5751  0.4453  0.3781
  260MOL0     H34272   9.292   6.620   0.742 -2.6048 -0.8583  0.5365
  260MOL0     H34273   9.158   6.377   0.916  1.3596  1.2639 -0.9018
  260MOL0     H34274   8.887   6.418   1.133  0.2990 -1.9398 -0.5049
  260MOL0     H34275   8.908   6.308   1.000  3.2385  0.8143  0.5918
  260MOL0     H34276   8.702   6.542   1.032 -0.5195 -0.8270 -0.9047
  260MOL0     H34277   8.664   6.362   1.025 -0.1672 -1.8219 -3.2950
  260MOL0     H34278   8.571   6.486   0.843  0.1467  2.8006 -0.5419
  260MOL0     H34279   8.722   6.546   0.792 -1.6061  1.7941  2.0669
  260MOL0     H34280   8.676   6.238   0.814 -0.3036 -0.1994 -1.6901
  260MOL0     H34281   8.817   6.314   0.763 -0.1085 -1.7651  2.5364
  260MOL0     H34282   8.450   6.288   0.808  3.7099  0.4476 -2.4133
  260MOL0     H34283   8.209   6.275   0.755 -0.1052  1.6084 -0.0616
  260MOL0     H34284   7.894   6.149   0.388 -0.2524  2.1057 -1.4211
  260MOL0     H34285   7.675   6.064   0.383  0.9256 -2.1881  1.0335
  260MOL0     H34286   7.423   5.948   0.423  1.4281  0.2457 -0.5121
  260MOL0     H34287   7.439   6.118   0.409  2.0356 -0.1161  0.9010
  260MOL0     H34288   7.177   6.056   0.404 -2.8756 -0.9167  2.4907
  260MOL0     H34289   7.238   6.164   0.533 -1.2291 -2.0228  3.1031
  260MOL0     H34290   7.093   6.020   0.621 -0.1970  1.0576  0.0746
  260MOL0     H34291   7.248   5.976   0.686  0.6440 -0.3905 -0.6017
  260MOL0     H34292   7.278   5.805   0.562  0.2737  0.1222 -0.2521
  260MOL0     H34293   7.131   5.786   0.662  1.1867 -1.1086  0.7554
  260MOL0     H34294   7.172   5.821   0.369  1.1376 -1.3110  0.0991
  260MOL0     H34295   7.015   5.870   0.435  1.0247  0.9929  0.2373
  260MOL0     H34296   7.003   5.650   0.318  0.0904 -0.9119  0.6963
  260MOL0     H34297   6.960   5.636   0.487 -0.2689  1.3874 -0.9312
  260MOL0     H34298   7.245   5.599   0.380 -0.9619  0.5766 -1.2350
  260MOL0     H34299   7.195   5.539   0.530 -0.4575  0.0180 -0.7614
  260MOL0     H34300   7.107   5.446   0.250 -1.9523  2.1334  0.2617
  260MOL0     H34301   7.029   5.382   0.400  0.0062  2.0109  1.4379
  260MOL0     H34302   7.597   6.200   0.778  0.9948  1.7113  0.7229
  260MOL0     H34303   7.835   6.273   0.795  0.8106 -1.1811  1.0391
  260MOL0     H34304   8.300   6.320   0.339 -1.8607 -1.0072  0.2770
  260MOL0     H34305   8.543   6.349   0.398  0.1861  1.1067  1.0334
  260MOL0     H34306  10.250   6.959   0.538 -0.8895 -2.4903  0.5200
  260MOL0     H34307  10.422   6.950   0.359  0.6789 -0.9074 -1.2533
  260MOL0     H34308  10.624   6.688   0.002 -1.6116  0.8534 -0.6367
  260MOL0     H34309  10.813   6.695  -0.156  1.2598  1.5214 -1.7639
  260MOL0     H34310  10.843   7.080  -0.414  1.5568  0.3676  0.3865
  260MOL0     H34311  10.751   6.954  -0.494 -1.2024  0.0115  2.0759
  260MOL0     H34312  10.987   7.038  -0.599 -2.4969  3.5855  2.0531
  260MOL0     H34313  11.056   6.929  -0.470 -1.9104 -3.2386 -0.2275
  260MOL0     H34314  10.864   6.861  -0.691 -0.1166  0.9166  0.7236
  260MOL0     H34315  10.930   6.747  -0.563 -3.0470 -0.2208 -1.1588
  260MOL0     H34316  11.149   6.796  -0.669  0.5417  1.3738 -1.7475
  260MOL0     H34317  11.039   6.694  -0.769 -0.7577 -0.6941  1.3508
  260MOL0     H34318  11.102   7.033  -1.008 -0.7753 -0.3045 -0.2266
  260MOL0     H34319  10.630   7.057  -0.313  1.6437 -0.1142 -1.1593
  260MOL0     H34320  10.479   7.069  -0.125 -0.9744 -0.4400 -0.7122
  261MOL0     O34321   2.059   1.211  10.987 -0.0667 -0.1044 -0.7849
  261MOL0     C34322   1.962   1.163  11.053 -0.8055 -1.0666  0.9559
  261MOL0     O34323   1.923   1.033  11.061  0.5222 -0.0455  0.5895
  261MOL0     C34324   1.995   0.935  10.996  0.2864 -0.0825  0.0409
  261MOL0     C34325   2.131   0.934  10.950  0.3880 -1.0176  1.0171
  261MOL0     C34326   2.179   0.809  10.917  0.0396 -0.0865  1.1608
  261MOL0     C34327   2.106   0.689  10.904 -0.1869 -0.5063 -0.5241
  261MOL0     O34328   2.140   0.561  10.869 -0.2517 -0.4474  0.1286
  261MOL0     C34329   2.280   0.540  10.883  0.6752 -0.3148 -0.4564
  261MOL0     C34330   2.324   0.422  10.797  0.1338 -0.6083 -0.2497
  261MOL0     C34331   2.465   0.401  10.834  0.6901  0.3202  0.4796
  261MOL0     C34332   2.534   0.288  10.762 -0.3650  0.2088 -0.4544
  261MOL0     C34333   2.686   0.277  10.794  0.2501  0.6694 -0.3545
  261MOL0     C34334   2.761   0.212  10.680 -0.1470 -0.7170  0.2545
  261MOL0     C34335   2.915   0.236  10.710 -0.2009 -0.3684  0.0085
  261MOL0     C34336   2.992   0.180  10.592 -0.0779  0.0884 -0.3173
  261MOL0     N34337   2.989   0.032  10.594 -0.4787 -0.2843 -0.7217
  261MOL0     C34338   3.051  -0.050  10.682 -0.2937 -0.4302 -0.2866
  261MOL0     C34339   3.017  -0.178  10.637 -1.4527  0.4540  0.0588
  261MOL0     C34340   3.075  -0.313  10.685 -0.0523 -0.3131 -0.3754
  261MOL0     C34341   3.227  -0.310  10.655 -0.5799  0.0103 -0.3757
  261MOL0     C34342   3.272  -0.423  10.569  1.2499  0.3635  0.0905
  261MOL0     C34343   3.421  -0.419  10.546 -0.3719 -0.4425  0.9901
  261MOL0     O34344   3.455  -0.521  10.449 -0.3879 -0.0275 -0.4966
  261MOL0     C34345   3.580  -0.516  10.400 -0.1869 -0.4694 -0.6365
  261MOL0     C34346   3.697  -0.488  10.473 -0.1839 -0.0273 -0.4745
  261MOL0     C34347   3.818  -0.490  10.405 -0.8630 -0.2618 -0.4299
  261MOL0     C34348   3.831  -0.518  10.267  0.1521 -0.2785  0.5161
  261MOL0     C34349   3.964  -0.515  10.197 -1.3452  0.2951 -0.3982
  261MOL0     O34350   3.962  -0.549  10.062  0.3612  0.2556  0.4361
  261MOL0     C34351   4.080  -0.589   9.999  0.3796  0.3302 -0.3348
  261MOL0     C34352   4.085  -0.570   9.865  0.2032 -1.0266  0.3898
  261MOL0     C34353   4.202  -0.584   9.792  1.4232  0.3828 -0.3687
  261MOL0     C34354   4.317  -0.621   9.850  0.0031  0.5317 -0.4058
  261MOL0     O34355   4.437  -0.601   9.799 -0.2410  0.4363  0.0347
  261MOL0     C34356   4.465  -0.663   9.675  0.1657  0.3148  0.2512
  261MOL0     C34357   4.607  -0.704   9.661  0.8286 -0.0913 -0.4980
  261MOL0     C34358   4.635  -0.743   9.512  0.0475 -0.7847 -0.5271
  261MOL0     C34359   4.776  -0.815   9.503 -0.3583 -0.6009  0.7465
  261MOL0     C34360   4.833  -0.834   9.361 -0.0480  0.6610 -0.4175
  261MOL0     C34361   4.986  -0.847   9.378  0.6115 -0.0879  0.5241
  261MOL0     C34362   5.031  -0.991   9.419 -0.4158 -0.5185 -0.6550
  261MOL0     C34363   5.188  -0.980   9.446  0.1493  0.2486  0.4584
  261MOL0    Cl34364   5.284  -0.938   9.304 -0.0469  0.1922 -0.1161
  261MOL0     C34365   4.310  -0.661   9.984  0.5105  0.0810 -0.1571
  261MOL0     C34366   4.198  -0.650  10.057  0.2138 -0.4717  0.2305
  261MOL0     O34367   4.066  -0.486  10.264 -1.0587 -0.2736  0.0750
  261MOL0     C34368   3.709  -0.548  10.195 -0.2105  1.0690  0.0655
  261MOL0     C34369   3.586  -0.543  10.268  0.2161  0.5113  0.5998
  261MOL0     N34370   2.931  -0.172  10.530  0.8160 -0.0055 -0.2615
  261MOL0     N34371   2.915  -0.045  10.504  0.1242  0.0250  0.5576
  261MOL0     C34372   1.971   0.702  10.932 -0.1262  0.0016 -0.9928
  261MOL0     C34373   1.920   0.819  10.983 -0.4757  0.1381 -0.9494
  261MOL0     C34374   1.878   1.257  11.140 -0.0666  0.2086  0.0223
  261MOL0     C34375   1.927   1.382  11.174 -0.4329 -0.3874  0.5617
  261MOL0     C34376   1.866   1.479  11.260  0.0053  0.4079 -0.3317
  261MOL0     C34377   1.747   1.448  11.310  0.0597  0.3526  0.1658
  261MOL0     O34378   1.682   1.523  11.399 -0.0552 -0.7557 -0.0525
  261MOL0     C34379   1.738   1.640  11.462 -0.1814 -0.3433  0.5316
  261MOL0     C34380   1.657   1.650  11.594  0.6435 -0.6146  0.1591
  261MOL0     C34381   1.663   1.784  11.654  0.1193  0.1750 -0.7409
  261MOL0     C34382   1.672   1.768  11.808 -0.0182  0.2459 -0.0035
  261MOL0     C34383   1.657   1.894  11.877 -0.3230  1.1335  0.5233
  261MOL0     C34384   1.667   2.003  11.931  0.1066  0.4029 -0.1021
  261MOL0     C34385   1.687   1.324  11.281 -0.6611  0.2480  0.5792
  261MOL0     C34386   1.748   1.229  11.191  0.2257 -0.6025 -0.1669
  261MOL0     H34387   2.191   1.024  10.961  0.6548 -1.3834  2.8155
  261MOL0     H34388   2.282   0.799  10.884 -0.8193 -0.5917 -1.6513
  261MOL0     H34389   2.302   0.528  10.990 -2.0258  0.3099  0.2518
  261MOL0     H34390   2.339   0.625  10.849 -0.5047  0.9508  0.5505
  261MOL0     H34391   2.299   0.450  10.694  0.5953 -0.6018 -0.3620
  261MOL0     H34392   2.267   0.330  10.815 -1.6082  0.6292  0.8507
  261MOL0     H34393   2.481   0.401  10.942  2.0186 -1.0414  0.3147
  261MOL0     H34394   2.516   0.492  10.799  1.6731 -0.3649  0.0890
  261MOL0     H34395   2.481   0.195  10.788  2.7736 -2.1684 -1.8484
  261MOL0     H34396   2.523   0.293  10.654  1.2827 -1.5084 -0.7573
  261MOL0     H34397   2.707   0.221  10.886  0.7003  1.0974 -0.1952
  261MOL0     H34398   2.717   0.382  10.796 -0.7646  0.9797  1.9639
  261MOL0     H34399   2.746   0.255  10.580  1.0091 -0.0771  0.3463
  261MOL0     H34400   2.733   0.106  10.673 -0.9632 -0.4195 -4.1251
  261MOL0     H34401   2.932   0.343  10.694 -0.9169 -0.2069  0.3300
  261MOL0     H34402   2.955   0.191  10.801 -0.2185  1.1690  0.8163
  261MOL0     H34403   3.098   0.207  10.587 -0.1664  0.2612 -1.5396
  261MOL0     H34404   2.945   0.210  10.498 -0.7903  2.2321  0.6536
  261MOL0     H34405   3.123  -0.016  10.756 -1.1517  4.0332 -1.2264
  261MOL0     H34406   3.023  -0.401  10.646 -3.1898  1.3912 -0.3128
  261MOL0     H34407   3.061  -0.316  10.793 -0.3218 -1.6930 -0.4322
  261MOL0     H34408   3.283  -0.313  10.749 -0.0414  0.2688 -0.6859
  261MOL0     H34409   3.259  -0.218  10.606  0.1404 -0.4903 -0.8539
  261MOL0     H34410   3.252  -0.515  10.626 -1.4881  0.2237 -0.9621
  261MOL0     H34411   3.213  -0.429  10.478 -2.3881 -2.0499  2.3448
  261MOL0     H34412   3.468  -0.441  10.642  1.0244  0.2696  0.4925
  261MOL0     H34413   3.453  -0.318  10.518 -0.1381  0.2062  3.3799
  261MOL0     H34414   3.701  -0.472  10.580  0.7451 -1.6321 -0.2263
  261MOL0     H34415   3.907  -0.460  10.458 -0.9140 -3.2907  1.6202
  261MOL0     H34416   3.995  -0.539   9.814  1.3987  1.1862 -0.5104
  261MOL0     H34417   4.204  -0.580   9.683  0.8515 -0.1625 -0.4067
  261MOL0     H34418   4.435  -0.599   9.592 -0.7604 -2.1511 -1.4623
  261MOL0     H34419   4.402  -0.750   9.654 -0.4333  1.0237 -0.9656
  261MOL0     H34420   4.627  -0.791   9.725  0.1221  0.7954  1.0096
  261MOL0     H34421   4.672  -0.624   9.697 -0.4239  0.4425  0.6953
  261MOL0     H34422   4.637  -0.653   9.451 -0.2228 -0.1986  0.3142
  261MOL0     H34423   4.548  -0.805   9.488 -0.5590 -0.7655  1.4573
  261MOL0     H34424   4.853  -0.766   9.563 -0.6394 -3.0928  3.4057
  261MOL0     H34425   4.769  -0.916   9.545 -2.7484 -1.0347 -0.5013
  261MOL0     H34426   4.813  -0.746   9.299 -0.1202 -1.2130 -3.2149
  261MOL0     H34427   4.790  -0.923   9.314  0.5865 -1.7400  3.1484
  261MOL0     H34428   5.023  -0.756   9.426 -0.8549  0.6690  0.2776
  261MOL0     H34429   5.017  -0.832   9.274  0.4580 -3.5186 -0.1334
  261MOL0     H34430   4.971  -1.014   9.508 -2.0423  0.9341 -1.3059
  261MOL0     H34431   5.006  -1.066   9.344  0.0661 -0.3320 -1.0055
  261MOL0     H34432   5.236  -1.070   9.486  1.9498  0.9217 -0.0901
  261MOL0     H34433   5.212  -0.901   9.517  0.2864  2.1007 -1.5538
  261MOL0     H34434   4.391  -0.721  10.024  0.3878 -0.1292 -0.2246
  261MOL0     H34435   4.213  -0.682  10.159  0.0289  1.2074  0.8133
  261MOL0     H34436   3.708  -0.581  10.092 -0.8865  0.4653  0.2599
  261MOL0     H34437   3.490  -0.557  10.220  0.8335 -2.6304  0.0874
  261MOL0     H34438   1.893   0.627  10.917 -0.2154 -0.5163  1.5039
  261MOL0     H34439   1.816   0.819  11.012 -0.2333  2.0155  0.0487
  261MOL0     H34440   2.019   1.410  11.124 -1.1904 -0.7061 -1.0653
  261MOL0     H34441   1.916   1.573  11.282 -2.3683  1.1947  2.1916
  261MOL0     H34442   1.737   1.726  11.393  1.4811 -2.7946 -2.8368
  261MOL0     H34443   1.845   1.632  11.483  0.4621  3.1543 -0.7425
  261MOL0     H34444   1.556   1.620  11.565 -0.0009 -0.5906  2.2191
  261MOL0     H34445   1.699   1.580  11.667 -1.9516  0.8926  3.3921
  261MOL0     H34446   1.573   1.839  11.626 -0.1725 -0.5505 -1.2737
  261MOL0     H34447   1.745   1.837  11.605  1.3539 -1.7479 -0.8725
  261MOL0     H34448   1.606   1.693  11.854  1.9859 -2.8969 -1.8912
  261MOL0     H34449   1.774   1.734  11.827 -0.6723 -1.7707  0.1501
  261MOL0     H34450   1.679   2.102  11.970 -0.2326  1.5143 -2.6172
  261MOL0     H34451   1.587   1.320  11.323 -1.4759  1.9643 -1.0781
  261MOL0     H34452   1.699   1.136  11.164 -0.2374  0.4536 -3.3905
  262MOL0     O34453   8.483   8.356   7.006 -0.1394  0.5567  0.3819
  262MOL0     C34454   8.512   8.423   7.101 -0.0832  0.0425 -0.3874
  262MOL0     O34455   8.430   8.504   7.167 -0.3889  0.5363  0.7267
  262MOL0     C34456   8.317   8.552   7.115  0.5785 -0.5386  0.7758
  262MOL0     C34457   8.280   8.552   6.984 -0.5902 -0.0223  0.1261
  262MOL0     C34458   8.153   8.594   6.944 -0.6120  0.0881  0.2691
  262MOL0     C34459   8.059   8.639   7.039  0.6416 -0.3610  0.6599
  262MOL0     O34460   7.936   8.671   6.975  0.1575 -0.3849 -0.5811
  262MOL0     C34461   7.826   8.719   7.057 -0.4675 -0.4186  0.3304
  262MOL0     C34462   7.704   8.759   6.981  0.1972  0.7997  0.2636
  262MOL0     C34463   7.606   8.827   7.092  0.0198  0.6140 -0.0172
  262MOL0     C34464   7.488   8.897   7.018  0.3792 -0.2456  0.8857
  262MOL0     C34465   7.385   8.802   6.963  0.4688 -0.0976 -0.4352
  262MOL0     C34466   7.262   8.885   6.908 -0.5606  0.6341 -0.7617
  262MOL0     C34467   7.147   8.777   6.888 -0.1905  0.6936 -1.2656
  262MOL0     C34468   7.023   8.848   6.906  1.0580 -0.0196  0.1918
  262MOL0     N34469   6.997   8.944   6.798  0.7505  0.7090 -0.5019
  262MOL0     C34470   6.952   8.910   6.674  0.6142 -0.4872 -0.1261
  262MOL0     C34471   6.907   9.026   6.635 -0.1660  0.7910  0.1332
  262MOL0     C34472   6.826   9.056   6.507  0.1377 -0.2303  0.5965
  262MOL0     C34473   6.704   9.147   6.530  0.4204 -0.4395  0.3479
  262MOL0     C34474   6.631   9.179   6.395  0.1920  0.2238 -0.0630
  262MOL0     C34475   6.480   9.156   6.405  0.5874 -0.5272 -1.1190
  262MOL0     O34476   6.440   9.033   6.346 -0.2054  0.5820 -0.1518
  262MOL0     C34477   6.304   8.991   6.354 -0.5659 -1.3091  0.5426
  262MOL0     C34478   6.252   8.881   6.273 -0.2972 -0.2678 -1.1935
  262MOL0     C34479   6.118   8.837   6.278 -0.2953  0.6302 -0.0899
  262MOL0     C34480   6.022   8.893   6.356  0.4375 -0.3731  0.1750
  262MOL0     C34481   5.885   8.825   6.381 -0.1039 -0.0028  0.7791
  262MOL0     O34482   5.815   8.869   6.480  0.6389  0.5421  0.1544
  262MOL0     C34483   5.702   8.795   6.512 -0.0620  0.0175  0.3521
  262MOL0     C34484   5.585   8.802   6.436 -0.6219 -0.7240  0.2990
  262MOL0     C34485   5.469   8.730   6.480  0.2653  0.6533  0.1177
  262MOL0     C34486   5.481   8.639   6.586 -0.0509  0.3272 -0.2991
  262MOL0     O34487   5.371   8.563   6.616  1.0200  0.1644 -0.2880
  262MOL0     C34488   5.372   8.470   6.722 -0.2102 -0.6568  0.7350
  262MOL0     C34489   5.236   8.396   6.719 -0.4918  0.1621 -0.6091
  262MOL0     C34490   5.226   8.321   6.861  0.9768  1.2032  0.3381
  262MOL0     C34491   5.128   8.193   6.859 -0.0657 -0.6006  0.1136
  262MOL0     C34492   4.988   8.226   6.790 -0.8834 -0.0059 -0.3827
  262MOL0     C34493   4.910   8.330   6.877  0.4212  0.9208  0.4703
  262MOL0     C34494   4.889   8.288   7.015 -0.9912 -0.4081 -0.4315
  262MOL0     C34495   4.766   8.200   7.025  0.4546  0.4548 -0.1105
  262MOL0    Cl34496   4.825   8.024   7.034 -0.1550 -0.0804 -0.0719
  262MOL0     C34497   5.610   8.625   6.650 -0.6542 -0.7124 -1.1780
  262MOL0     C34498   5.710   8.710   6.615 -0.6081 -0.2464  0.7335
  262MOL0     O34499   5.858   8.724   6.309  0.4453 -0.7609  0.1464
  262MOL0     C34500   6.075   9.001   6.440  0.1679  0.4603  0.4066
  262MOL0     C34501   6.212   9.047   6.446  0.3988  0.4227  0.1021
  262MOL0     N34502   6.935   9.122   6.720  0.6738  0.0328 -0.8360
  262MOL0     N34503   6.991   9.080   6.821  0.3790  0.5775  0.3920
  262MOL0     C34504   8.097   8.652   7.172  0.7243  0.0234 -1.0018
  262MOL0     C34505   8.223   8.602   7.205  0.6226  1.1312 -0.6895
  262MOL0     C34506   8.658   8.418   7.160 -0.0280 -0.5987  0.6687
  262MOL0     C34507   8.754   8.338   7.098 -0.0080  0.3094 -0.2369
  262MOL0     C34508   8.892   8.343   7.134  0.4169 -0.1089  0.1388
  262MOL0     C34509   8.932   8.431   7.231 -0.0543  0.6023  0.4727
  262MOL0     O34510   9.065   8.444   7.263 -0.3752 -0.4049  0.2788
  262MOL0     C34511   9.129   8.323   7.291 -0.1574  0.7875 -0.1864
  262MOL0     C34512   9.259   8.335   7.379 -0.0354 -0.1257  0.4267
  262MOL0     C34513   9.237   8.397   7.514 -0.7501 -0.5249 -0.4330
  262MOL0     C34514   9.189   8.296   7.620  0.1527  0.7763  0.7415
  262MOL0     C34515   9.288   8.193   7.664  0.3945  0.7362  0.1567
  262MOL0     C34516   9.372   8.112   7.693 -0.4529  0.1686  0.0339
  262MOL0     C34517   8.834   8.512   7.293 -0.2544  1.1094 -0.7531
  262MOL0     C34518   8.698   8.496   7.264  0.2783 -0.6463 -0.4578
  262MOL0     H34519   8.325   8.518   6.892 -0.1595 -1.2878  0.7873
  262MOL0     H34520   8.136   8.591   6.837  1.2739 -1.7987 -0.0570
  262MOL0     H34521   7.858   8.800   7.123 -0.2748 -0.5948  0.4567
  262MOL0     H34522   7.799   8.641   7.129 -3.8178 -1.5227 -1.8732
  262MOL0     H34523   7.643   8.683   6.931  1.0962  1.8321 -2.5689
  262MOL0     H34524   7.738   8.835   6.911  0.2289  1.8957  1.4178
  262MOL0     H34525   7.657   8.913   7.137 -1.5115  3.9439 -4.0551
  262MOL0     H34526   7.561   8.755   7.161 -1.4506  2.6456  1.2970
  262MOL0     H34527   7.439   8.972   7.080 -0.8383 -0.1664 -0.1105
  262MOL0     H34528   7.530   8.959   6.938  1.0247  1.0435  2.1952
  262MOL0     H34529   7.356   8.729   7.039 -1.2768  0.8109 -0.1663
  262MOL0     H34530   7.428   8.741   6.883  0.4068  0.6772 -1.0699
  262MOL0     H34531   7.284   8.938   6.815  1.0299 -2.2566 -2.1806
  262MOL0     H34532   7.232   8.961   6.981 -0.5623  1.4769 -1.6228
  262MOL0     H34533   7.160   8.737   6.787 -2.8085  0.5837 -1.6042
  262MOL0     H34534   7.148   8.697   6.962  0.5229  0.4945 -1.4786
  262MOL0     H34535   7.020   8.914   6.993  2.0109 -0.1427  0.3328
  262MOL0     H34536   6.938   8.780   6.917  1.0629  0.3452  4.2239
  262MOL0     H34537   6.939   8.815   6.623 -0.4884 -0.5899  0.3021
  262MOL0     H34538   6.783   8.963   6.466  3.0475 -1.2531 -0.3845
  262MOL0     H34539   6.890   9.091   6.426  2.1469 -2.6672  1.0220
  262MOL0     H34540   6.744   9.239   6.574  2.6586 -2.1690  2.2113
  262MOL0     H34541   6.636   9.108   6.606  1.7625  0.5452  2.1414
  262MOL0     H34542   6.640   9.288   6.385 -2.1776  0.8083  2.6037
  262MOL0     H34543   6.665   9.115   6.313  0.2201 -0.0836  0.1848
  262MOL0     H34544   6.432   9.227   6.337 -3.1403 -2.7577 -1.0642
  262MOL0     H34545   6.446   9.167   6.508 -1.6311 -0.0407 -1.8584
  262MOL0     H34546   6.322   8.839   6.202 -0.1806  2.1036 -2.5818
  262MOL0     H34547   6.096   8.754   6.211  1.9648  0.0728 -0.2302
  262MOL0     H34548   5.580   8.861   6.345  1.8003 -1.8419 -0.6564
  262MOL0     H34549   5.372   8.751   6.437  0.6015 -0.6391 -1.3786
  262MOL0     H34550   5.386   8.526   6.815 -2.3804  1.5184 -0.1446
  262MOL0     H34551   5.443   8.387   6.712  0.7996  0.1582  0.9923
  262MOL0     H34552   5.221   8.334   6.631  1.1217 -1.1730  0.0105
  262MOL0     H34553   5.152   8.467   6.721  0.6029  1.4974  0.6642
  262MOL0     H34554   5.189   8.395   6.932 -1.6703  0.2779  0.0580
  262MOL0     H34555   5.323   8.282   6.892  0.1415 -0.0780  1.4813
  262MOL0     H34556   5.175   8.114   6.800 -1.0139  0.8382 -2.8038
  262MOL0     H34557   5.135   8.151   6.959  1.0268  1.4755  0.9662
  262MOL0     H34558   4.926   8.136   6.795 -1.0743  0.1625  0.6019
  262MOL0     H34559   4.995   8.270   6.690 -2.3119 -1.8200 -1.3259
  262MOL0     H34560   4.820   8.364   6.825  1.1121  3.6690  0.9172
  262MOL0     H34561   4.981   8.414   6.879  2.0502 -0.3980 -0.0186
  262MOL0     H34562   4.972   8.238   7.065  0.0297 -0.5315 -2.1717
  262MOL0     H34563   4.880   8.380   7.073 -0.2599 -1.8061  2.0033
  262MOL0     H34564   4.700   8.216   6.939  2.3082  0.2609 -1.6403
  262MOL0     H34565   4.706   8.233   7.110  1.7510  2.5767  0.0505
  262MOL0     H34566   5.634   8.564   6.737  1.1180  0.1037 -1.0498
  262MOL0     H34567   5.804   8.686   6.665 -0.6025 -5.5518 -1.1794
  262MOL0     H34568   5.997   9.035   6.508 -1.0451 -2.9379  0.9048
  262MOL0     H34569   6.229   9.132   6.511 -1.3279 -0.0774  1.2881
  262MOL0     H34570   8.019   8.681   7.242 -1.1457 -0.9810 -2.5958
  262MOL0     H34571   8.249   8.596   7.311  1.4695  0.6872 -0.9113
  262MOL0     H34572   8.727   8.268   7.020 -3.1814 -1.0242  1.8561
  262MOL0     H34573   8.956   8.286   7.068  1.2049  2.7268 -1.6825
  262MOL0     H34574   9.161   8.270   7.200  1.7190 -2.8345  2.3652
  262MOL0     H34575   9.063   8.248   7.334  0.7594 -0.3427 -0.7110
  262MOL0     H34576   9.295   8.233   7.397 -2.8519 -1.7302 -2.1042
  262MOL0     H34577   9.332   8.396   7.325  1.1072 -0.2218  1.7869
  262MOL0     H34578   9.155   8.466   7.496 -1.5707 -0.7086  2.1694
  262MOL0     H34579   9.331   8.443   7.545 -0.7744 -1.1727  0.6766
  262MOL0     H34580   9.148   8.345   7.709 -0.2332 -1.3387  1.8027
  262MOL0     H34581   9.106   8.239   7.577  0.9614  1.6173 -2.1519
  262MOL0     H34582   9.454   8.045   7.710  0.4561  1.5815  1.3459
  262MOL0     H34583   8.863   8.603   7.344  0.0992  0.6945 -0.2142
  262MOL0     H34584   8.632   8.569   7.310  1.4978 -0.9134  1.8589
  263MOL0     O34585   2.704   8.406   1.327  0.0103 -0.8071  0.4358
  263MOL0     C34586   2.672   8.366   1.440  0.4586 -1.1439  0.1042
  263MOL0     O34587   2.757   8.361   1.549  0.0887  0.1518 -0.5786
  263MOL0     C34588   2.894   8.398   1.536 -0.1178 -0.3619  0.2301
  263MOL0     C34589   2.932   8.532   1.523  0.2599  0.4016  0.6449
  263MOL0     C34590   3.066   8.574   1.530  0.7274  0.6060 -0.1999
  263MOL0     C34591   3.166   8.479   1.541 -0.6305  0.3195  0.6765
  263MOL0     O34592   3.296   8.530   1.547 -0.4411 -1.1639  0.3006
  263MOL0     C34593   3.330   8.643   1.630 -0.5250  0.2907  0.1486
  263MOL0     C34594   3.481   8.631   1.658 -0.3708 -0.2188 -0.0112
  263MOL0     C34595   3.573   8.633   1.531  0.8472 -0.2585  0.2696
  263MOL0     C34596   3.713   8.636   1.585  0.4206  0.1678  0.3263
  263MOL0     C34597   3.815   8.658   1.483  0.5732  0.2947 -1.4770
  263MOL0     C34598   3.957   8.609   1.536 -0.7385 -0.0300 -0.3464
  263MOL0     C34599   4.066   8.656   1.436 -0.4691 -0.5644 -0.4809
  263MOL0     C34600   4.107   8.799   1.452  0.5911 -2.2480  0.0946
  263MOL0     N34601   4.244   8.831   1.408  0.1576  0.5038 -0.6264
  263MOL0     C34602   4.346   8.869   1.486 -0.0747 -0.3015 -0.0266
  263MOL0     C34603   4.437   8.914   1.394 -1.5045 -0.2462  0.1454
  263MOL0     C34604   4.561   8.984   1.434 -0.1910  0.1677  0.2510
  263MOL0     C34605   4.679   8.886   1.429 -0.5065  0.5517 -0.0762
  263MOL0     C34606   4.824   8.942   1.454  0.1912  0.6615 -0.2867
  263MOL0     C34607   4.942   8.846   1.426 -0.7517  0.5479  0.2662
  263MOL0     O34608   4.952   8.718   1.503  0.0490 -0.7578 -0.1871
  263MOL0     C34609   5.058   8.642   1.478  0.4122 -0.2739 -0.4201
  263MOL0     C34610   5.161   8.678   1.387  0.0611 -0.3112  0.3990
  263MOL0     C34611   5.271   8.592   1.387  0.5585 -0.0385  0.4566
  263MOL0     C34612   5.266   8.466   1.444 -0.3584  0.8533  0.0491
  263MOL0     C34613   5.381   8.375   1.431  0.0681  0.2412  0.1819
  263MOL0     O34614   5.461   8.393   1.318  0.1347 -0.4204  0.6197
  263MOL0     C34615   5.592   8.362   1.301  0.1944 -0.6222 -0.3087
  263MOL0     C34616   5.653   8.359   1.172  0.1145 -0.5140  0.6167
  263MOL0     C34617   5.777   8.308   1.150 -0.8503  0.4058  0.1566
  263MOL0     C34618   5.861   8.284   1.255  0.0037  0.6400 -0.4106
  263MOL0     O34619   5.995   8.243   1.252  0.3543 -0.2266  0.1288
  263MOL0     C34620   6.065   8.269   1.128 -0.1407  0.3719  0.6414
  263MOL0     C34621   6.203   8.220   1.152 -0.7870 -0.0878 -0.2781
  263MOL0     C34622   6.211   8.067   1.138 -0.6530 -1.4029 -0.1170
  263MOL0     C34623   6.353   7.998   1.141  0.0784 -0.0206 -0.3840
  263MOL0     C34624   6.434   7.965   1.272  0.1812  0.5021  0.4475
  263MOL0     C34625   6.522   7.836   1.259  0.0832  0.4811  0.0141
  263MOL0     C34626   6.634   7.837   1.361 -0.4937 -0.0231 -0.8444
  263MOL0     C34627   6.676   7.694   1.411  0.3287  0.8845 -0.3769
  263MOL0    Cl34628   6.546   7.627   1.511 -0.0095  0.1371 -0.0005
  263MOL0     C34629   5.815   8.286   1.387 -0.7258  0.1925  0.7390
  263MOL0     C34630   5.680   8.323   1.406  0.0724  0.9999 -0.4265
  263MOL0     O34631   5.398   8.297   1.521  0.1452 -0.0991 -0.2069
  263MOL0     C34632   5.162   8.436   1.533 -0.1731  0.6631  1.4189
  263MOL0     C34633   5.057   8.523   1.552 -1.0150  0.7417  1.0104
  263MOL0     N34634   4.400   8.883   1.270 -0.1744 -0.3502 -0.3875
  263MOL0     N34635   4.284   8.837   1.281  0.2989 -0.0315  0.0365
  263MOL0     C34636   3.134   8.339   1.529 -1.1053 -0.7187  0.2387
  263MOL0     C34637   2.996   8.302   1.531  0.6246  0.9728 -0.1182
  263MOL0     C34638   2.532   8.324   1.461  0.5469 -0.9073 -0.1668
  263MOL0     C34639   2.510   8.260   1.582 -0.4365 -0.5828  0.3444
  263MOL0     C34640   2.379   8.228   1.608 -0.2997  0.1413 -1.1186
  263MOL0     C34641   2.267   8.237   1.521  0.3196 -0.5758  1.2755
  263MOL0     O34642   2.149   8.176   1.543 -0.5703 -0.8864  0.8880
  263MOL0     C34643   2.101   8.166   1.676  0.7941  0.4608  0.5404
  263MOL0     C34644   1.949   8.150   1.670 -0.1534  0.3732 -0.0231
  263MOL0     C34645   1.883   8.294   1.683 -0.9240  0.2230 -0.0579
  263MOL0     C34646   1.753   8.301   1.749  0.7482 -0.5177  0.1358
  263MOL0     C34647   1.758   8.274   1.888  0.4371  0.8779  0.2207
  263MOL0     C34648   1.754   8.271   2.007  0.2258 -1.3509 -0.5373
  263MOL0     C34649   2.290   8.295   1.395  0.6302  1.0099 -0.2887
  263MOL0     C34650   2.422   8.337   1.369 -0.0076 -0.0018  0.9403
  263MOL0     H34651   2.857   8.609   1.505  2.7233  2.2266 -3.3231
  263MOL0     H34652   3.090   8.678   1.516  2.0123  0.3726  0.1293
  263MOL0     H34653   3.278   8.639   1.726  0.2490  1.9539  0.6798
  263MOL0     H34654   3.299   8.740   1.591 -0.1338  1.1354  1.8437
  263MOL0     H34655   3.501   8.553   1.732 -0.4249  0.2567  0.5090
  263MOL0     H34656   3.506   8.720   1.716 -4.4391  1.4273 -0.4679
  263MOL0     H34657   3.557   8.727   1.476  0.0209 -1.8281 -2.3945
  263MOL0     H34658   3.547   8.548   1.467 -1.2323 -1.0406  2.0051
  263MOL0     H34659   3.731   8.717   1.655 -0.6033 -0.2671  1.1221
  263MOL0     H34660   3.739   8.545   1.640  0.2339 -0.5447 -0.7252
  263MOL0     H34661   3.815   8.767   1.470 -3.2116  0.4751 -1.0970
  263MOL0     H34662   3.798   8.603   1.390  1.4026 -1.0304 -0.8784
  263MOL0     H34663   3.960   8.500   1.529  1.4950  0.0074 -0.4549
  263MOL0     H34664   3.990   8.637   1.636  2.8004  1.7912 -1.8470
  263MOL0     H34665   4.154   8.595   1.459 -2.0982 -1.9200  2.7855
  263MOL0     H34666   4.034   8.632   1.335  2.4348 -1.5483 -1.2746
  263MOL0     H34667   4.096   8.842   1.552  0.0289  1.8675 -1.5087
  263MOL0     H34668   4.042   8.860   1.387  0.5324 -1.5898  0.7570
  263MOL0     H34669   4.349   8.871   1.594 -0.1222  2.6407 -0.0009
  263MOL0     H34670   4.559   9.038   1.529 -0.3877  0.6684 -0.0330
  263MOL0     H34671   4.584   9.062   1.361  0.3721 -0.8536 -0.6942
  263MOL0     H34672   4.700   8.845   1.330  0.3439  1.3635 -0.2457
  263MOL0     H34673   4.647   8.800   1.488  1.6189 -1.5935 -1.8426
  263MOL0     H34674   4.835   9.034   1.395 -0.4653  0.3911 -0.8416
  263MOL0     H34675   4.835   8.966   1.561 -0.9232 -1.6376  0.4103
  263MOL0     H34676   5.027   8.909   1.455 -0.2422  2.0092 -3.7984
  263MOL0     H34677   4.941   8.824   1.319 -2.8509 -0.5452  0.4533
  263MOL0     H34678   5.169   8.771   1.331  3.6812 -1.5992 -1.5643
  263MOL0     H34679   5.360   8.613   1.329  1.1016 -1.9067  0.5433
  263MOL0     H34680   5.584   8.388   1.093 -0.8451 -0.5313  1.4339
  263MOL0     H34681   5.808   8.267   1.054  1.4298  1.0858  0.5434
  263MOL0     H34682   6.066   8.378   1.116  1.0987  0.3970  0.8429
  263MOL0     H34683   6.033   8.214   1.039 -3.1004  1.6802  0.7778
  263MOL0     H34684   6.241   8.249   1.251 -1.2852 -1.2305  0.2658
  263MOL0     H34685   6.267   8.266   1.076  0.4003  1.4007  1.5309
  263MOL0     H34686   6.173   8.036   1.041  0.8762 -0.1080 -1.1851
  263MOL0     H34687   6.148   8.028   1.219  0.8597 -0.9059  1.3509
  263MOL0     H34688   6.338   7.907   1.082  0.1726 -0.6614  0.5650
  263MOL0     H34689   6.405   8.060   1.068  0.8087 -1.2666 -0.9632
  263MOL0     H34690   6.369   7.963   1.361  2.7160 -0.9147  2.4022
  263MOL0     H34691   6.502   8.050   1.289  2.0420 -0.5225 -1.4623
  263MOL0     H34692   6.576   7.825   1.165 -0.5395  0.9801 -0.4024
  263MOL0     H34693   6.453   7.753   1.276 -0.1240  0.7590  0.5668
  263MOL0     H34694   6.728   7.869   1.317  0.9612 -1.6064  0.9629
  263MOL0     H34695   6.617   7.902   1.447 -2.2610 -4.2181  2.3238
  263MOL0     H34696   6.768   7.691   1.470 -0.1040  0.1774  0.2823
  263MOL0     H34697   6.683   7.629   1.323 -0.1599  2.8443 -1.9236
  263MOL0     H34698   5.867   8.279   1.482  1.0947 -0.5315 -0.2674
  263MOL0     H34699   5.665   8.322   1.514  0.8877 -0.3712 -0.3006
  263MOL0     H34700   5.156   8.338   1.580  1.2238 -1.0526 -1.6650
  263MOL0     H34701   4.987   8.490   1.629 -2.1191 -2.0106 -1.0115
  263MOL0     H34702   3.217   8.270   1.537 -0.1581  0.4689  1.0294
  263MOL0     H34703   2.971   8.197   1.543  0.8245  0.5265 -2.8534
  263MOL0     H34704   2.581   8.251   1.664 -1.5507 -2.4332  1.1753
  263MOL0     H34705   2.370   8.172   1.701 -0.5081 -1.2013 -1.9188
  263MOL0     H34706   2.137   8.247   1.741 -1.8720  1.8254  0.4449
  263MOL0     H34707   2.140   8.073   1.718 -0.1333 -0.5305 -0.7247
  263MOL0     H34708   1.909   8.093   1.586  0.8803 -2.4051  1.2727
  263MOL0     H34709   1.906   8.095   1.753 -3.0208  1.9990 -0.2839
  263MOL0     H34710   1.867   8.335   1.582  0.4663  0.8548 -0.0521
  263MOL0     H34711   1.947   8.368   1.732 -0.6963 -0.7030  1.0599
  263MOL0     H34712   1.719   8.402   1.728 -0.8835 -0.7227  1.5757
  263MOL0     H34713   1.686   8.230   1.700  0.4862  0.1635 -0.5085
  263MOL0     H34714   1.763   8.289   2.112  1.7708 -0.3756 -0.8113
  263MOL0     H34715   2.208   8.301   1.324  0.1070 -1.7500  0.0013
  263MOL0     H34716   2.445   8.369   1.268 -0.3857 -0.5690  0.6706
  264MOL0     O34717   2.565   0.493   6.207  0.0314 -1.1064  0.0577
  264MOL0     C34718   2.606   0.411   6.124  0.4433  0.0119 -0.0952
  264MOL0     O34719   2.546   0.286   6.096  0.0887 -0.3911 -0.2582
  264MOL0     C34720   2.423   0.258   6.151 -0.2222  0.9040 -0.5523
  264MOL0     C34721   2.330   0.350   6.195  0.3899  0.4593 -0.3640
  264MOL0     C34722   2.198   0.309   6.237  0.1807 -0.3542  0.4794
  264MOL0     C34723   2.167   0.172   6.210 -0.1260 -0.1962 -1.1398
  264MOL0     O34724   2.050   0.117   6.256  0.1384  0.3486 -0.3160
  264MOL0     C34725   2.053   0.119   6.404 -1.7921 -0.4777 -0.1350
  264MOL0     C34726   2.053  -0.025   6.451  0.2033  0.6743 -0.8232
  264MOL0     C34727   1.909  -0.073   6.457  0.1850  0.8029 -0.1398
  264MOL0     C34728   1.901  -0.206   6.529 -1.0658  0.2933 -0.4310
  264MOL0     C34729   1.777  -0.281   6.550 -0.1160  0.0927  0.5329
  264MOL0     C34730   1.659  -0.192   6.593  0.1456 -0.2663  0.4063
  264MOL0     C34731   1.556  -0.270   6.652  0.1231  0.3157  0.2753
  264MOL0     C34732   1.430  -0.194   6.702 -0.0445 -1.5122 -0.0099
  264MOL0     N34733   1.313  -0.281   6.730  0.1269  0.7652 -0.0357
  264MOL0     C34734   1.186  -0.236   6.746 -0.2634 -1.1788 -0.4436
  264MOL0     C34735   1.109  -0.338   6.758 -0.2729 -0.1316 -0.4682
  264MOL0     C34736   0.960  -0.328   6.804 -0.2718 -0.0856 -0.1604
  264MOL0     C34737   0.864  -0.396   6.706  0.0366  0.4717  0.0427
  264MOL0     C34738   0.717  -0.384   6.758  0.1211 -0.7424  1.1741
  264MOL0     C34739   0.616  -0.346   6.655  0.0775 -0.6757  0.2428
  264MOL0     O34740   0.488  -0.384   6.708  0.3434  0.4968 -0.4291
  264MOL0     C34741   0.386  -0.301   6.685  0.0223  0.5367 -0.1381
  264MOL0     C34742   0.361  -0.235   6.568  0.3626 -1.2494 -0.2762
  264MOL0     C34743   0.250  -0.148   6.538 -0.8247  0.3325 -0.0430
  264MOL0     C34744   0.145  -0.137   6.628  0.5767  1.4284 -0.0046
  264MOL0     C34745   0.020  -0.059   6.612  0.3599  0.7698  1.3411
  264MOL0     O34746  -0.067  -0.066   6.717 -0.7618  0.0032  0.1836
  264MOL0     C34747  -0.195  -0.020   6.689  0.1803 -0.1231 -1.2589
  264MOL0     C34748  -0.242   0.093   6.768 -0.8507 -0.1041  0.2223
  264MOL0     C34749  -0.376   0.142   6.742 -0.1664 -0.5050 -0.1385
  264MOL0     C34750  -0.466   0.073   6.655  0.3950  0.7534 -0.4860
  264MOL0     O34751  -0.595   0.122   6.639 -0.4916 -0.5427 -0.0240
  264MOL0     C34752  -0.628   0.147   6.505 -1.1425  0.7830  0.4180
  264MOL0     C34753  -0.531   0.246   6.441 -0.3223  0.0812 -0.4061
  264MOL0     C34754  -0.574   0.382   6.471  0.3879 -0.5883 -0.0800
  264MOL0     C34755  -0.472   0.489   6.429  0.1640  0.3608 -0.2016
  264MOL0     C34756  -0.497   0.613   6.509  0.3824  0.2206 -0.7970
  264MOL0     C34757  -0.433   0.738   6.448  0.8021  0.6066  0.7820
  264MOL0     C34758  -0.504   0.860   6.517 -0.6926  1.0234  0.0570
  264MOL0     C34759  -0.492   0.982   6.433  0.6318 -0.2140 -0.6905
  264MOL0    Cl34760  -0.549   0.985   6.265 -0.0902  0.0605 -0.0276
  264MOL0     C34761  -0.423  -0.043   6.600 -0.0077 -0.6580  0.3090
  264MOL0     C34762  -0.287  -0.089   6.610  1.1226  0.0333 -1.7257
  264MOL0     O34763  -0.009  -0.031   6.495  0.1200 -0.3834  0.1002
  264MOL0     C34764   0.164  -0.219   6.745 -0.8915 -0.0439 -0.1774
  264MOL0     C34765   0.279  -0.295   6.776  0.0997 -0.8003 -0.6552
  264MOL0     N34766   1.191  -0.453   6.741 -0.3127  0.4845 -0.5305
  264MOL0     N34767   1.304  -0.417   6.718  0.1715  0.3734  0.2485
  264MOL0     C34768   2.264   0.083   6.165 -0.0102  0.4959 -0.4179
  264MOL0     C34769   2.391   0.124   6.142 -0.4524  0.3200  0.7445
  264MOL0     C34770   2.738   0.426   6.065  0.2198  0.6415  0.1795
  264MOL0     C34771   2.796   0.333   5.980  0.2086  0.7429 -0.9480
  264MOL0     C34772   2.924   0.348   5.934 -0.9518 -0.3466  0.4057
  264MOL0     C34773   3.005   0.457   5.972  0.0345 -0.1182 -0.4148
  264MOL0     O34774   3.142   0.467   5.931 -0.2622 -0.0650  0.8351
  264MOL0     C34775   3.228   0.564   5.987  0.3090  0.8635  0.5400
  264MOL0     C34776   3.366   0.511   5.978  1.0131  0.6416 -0.6161
  264MOL0     C34777   3.413   0.492   5.834  0.3093 -0.6116 -0.5577
  264MOL0     C34778   3.396   0.352   5.788 -0.6364 -0.1597  0.2386
  264MOL0     C34779   3.459   0.328   5.660 -0.3895 -0.1812  0.8485
  264MOL0     C34780   3.523   0.320   5.555 -0.3641 -0.7341  0.1648
  264MOL0     C34781   2.942   0.552   6.052 -0.4970 -0.3513 -1.0764
  264MOL0     C34782   2.813   0.539   6.099  0.5946 -0.8953 -1.0942
  264MOL0     H34783   2.338   0.458   6.189 -4.6019  1.0262 -3.0233
  264MOL0     H34784   2.126   0.373   6.287  1.1113  0.2356  1.0924
  264MOL0     H34785   1.972   0.183   6.442 -1.6130 -1.0909  1.3466
  264MOL0     H34786   2.144   0.165   6.442 -0.8143 -2.0348 -0.4898
  264MOL0     H34787   2.120  -0.049   6.534  1.1283  2.2779 -1.0606
  264MOL0     H34788   2.097  -0.083   6.370 -0.2212 -0.6821 -0.1036
  264MOL0     H34789   1.850  -0.079   6.365 -2.4427 -0.0418  1.4600
  264MOL0     H34790   1.855   0.003   6.514  1.2499  1.0957  0.5107
  264MOL0     H34791   1.976  -0.269   6.479 -0.9345 -0.0849  0.2296
  264MOL0     H34792   1.938  -0.182   6.630  0.7274 -1.5610 -0.5804
  264MOL0     H34793   1.790  -0.360   6.624 -1.0487 -0.5906 -0.0185
  264MOL0     H34794   1.758  -0.333   6.456  0.5113 -2.1323  1.5860
  264MOL0     H34795   1.621  -0.147   6.501  0.2425 -2.3682 -0.7288
  264MOL0     H34796   1.692  -0.116   6.665 -3.9728 -0.3898  2.7639
  264MOL0     H34797   1.529  -0.340   6.572  2.1770  1.3578 -1.4110
  264MOL0     H34798   1.607  -0.326   6.732  2.9278  2.3199  0.0613
  264MOL0     H34799   1.399  -0.130   6.618 -0.2123 -3.3813 -1.4461
  264MOL0     H34800   1.434  -0.147   6.800 -0.4608 -2.3312  0.4124
  264MOL0     H34801   1.159  -0.131   6.746  0.6402 -0.7335 -5.3256
  264MOL0     H34802   0.935  -0.223   6.819  2.5250  0.4954  1.0485
  264MOL0     H34803   0.940  -0.381   6.898 -2.1001 -0.5547 -0.7697
  264MOL0     H34804   0.896  -0.499   6.691  0.3318  0.9847 -3.9054
  264MOL0     H34805   0.883  -0.357   6.606  3.3089 -2.0110 -0.4584
  264MOL0     H34806   0.688  -0.485   6.787  0.7225 -2.4585 -3.4221
  264MOL0     H34807   0.706  -0.320   6.846  1.6289  1.0826  0.1204
  264MOL0     H34808   0.637  -0.415   6.572  2.2081 -0.1160  0.2508
  264MOL0     H34809   0.620  -0.240   6.629 -0.1911 -0.3362  1.5028
  264MOL0     H34810   0.431  -0.252   6.487  2.8497 -1.2057  1.7505
  264MOL0     H34811   0.248  -0.101   6.440  1.8606  1.8565  0.5396
  264MOL0     H34812  -0.182   0.154   6.834  1.7376  0.7395 -2.6366
  264MOL0     H34813  -0.393   0.236   6.794  1.8892 -0.5228  0.6766
  264MOL0     H34814  -0.732   0.180   6.506 -0.5891  2.6081  1.9183
  264MOL0     H34815  -0.633   0.050   6.455 -0.4540  1.1892 -0.4672
  264MOL0     H34816  -0.519   0.231   6.334 -0.1317 -0.7430 -0.2773
  264MOL0     H34817  -0.426   0.247   6.471 -0.7300 -0.8322  1.1995
  264MOL0     H34818  -0.597   0.387   6.578  1.7601 -1.2542  0.2646
  264MOL0     H34819  -0.664   0.407   6.414  1.3769  3.7540 -0.0490
  264MOL0     H34820  -0.369   0.456   6.443  0.4726  1.4629  0.2621
  264MOL0     H34821  -0.491   0.521   6.326  2.4508  0.1050 -0.7655
  264MOL0     H34822  -0.457   0.596   6.609 -2.7439 -0.0701  0.5138
  264MOL0     H34823  -0.605   0.621   6.522  0.0939 -1.7792 -1.5835
  264MOL0     H34824  -0.446   0.756   6.341 -2.2498  1.3780  1.2021
  264MOL0     H34825  -0.327   0.743   6.474  1.0152 -0.0044  0.0823
  264MOL0     H34826  -0.611   0.835   6.522 -0.9856  2.2216  0.0187
  264MOL0     H34827  -0.473   0.883   6.619 -5.1248 -1.7118  2.3936
  264MOL0     H34828  -0.385   1.004   6.423 -0.0273  2.2644 -3.6117
  264MOL0     H34829  -0.535   1.067   6.486 -2.9838 -1.8107 -0.8114
  264MOL0     H34830  -0.500  -0.104   6.553 -1.5016  1.2266  0.2007
  264MOL0     H34831  -0.246  -0.175   6.558  0.5462  0.3044 -2.6607
  264MOL0     H34832   0.088  -0.218   6.823 -0.6377 -0.1956  0.0756
  264MOL0     H34833   0.268  -0.357   6.865  1.6769  0.8945  0.7894
  264MOL0     H34834   2.248  -0.025   6.161 -0.4266  0.5832 -2.3319
  264MOL0     H34835   2.466   0.063   6.092 -0.3643 -0.1389  1.4322
  264MOL0     H34836   2.729   0.248   5.973 -0.9003  0.8797  3.9799
  264MOL0     H34837   2.972   0.269   5.876 -0.2239 -1.3322  2.2464
  264MOL0     H34838   3.198   0.589   6.090 -4.6430 -1.1742 -0.1477
  264MOL0     H34839   3.218   0.655   5.927 -4.2071  0.2410 -0.0024
  264MOL0     H34840   3.430   0.589   6.021  0.6898  0.7698 -0.3621
  264MOL0     H34841   3.371   0.424   6.044 -1.6275  0.9019  0.0438
  264MOL0     H34842   3.521   0.508   5.842  0.3860 -1.4727  0.3802
  264MOL0     H34843   3.374   0.563   5.761 -0.3922  0.3156  0.6667
  264MOL0     H34844   3.465   0.304   5.858  2.5952 -0.7006 -2.9896
  264MOL0     H34845   3.295   0.310   5.793 -0.6366 -0.0470  4.5390
  264MOL0     H34846   3.576   0.318   5.461  1.9666  1.3625  1.3331
  264MOL0     H34847   2.992   0.642   6.088  0.5405 -1.7887  1.2863
  264MOL0     H34848   2.769   0.619   6.159 -1.3257 -2.7201  0.0713
  265MOL0     O34849   8.813   3.086   0.446  0.3586 -0.5115  0.4390
  265MOL0     C34850   8.720   3.077   0.370  0.2316  0.3066 -0.5267
  265MOL0     O34851   8.638   3.174   0.328 -0.4111  0.2053  0.2637
  265MOL0     C34852   8.643   3.307   0.358  0.9662 -0.1878  0.0619
  265MOL0     C34853   8.537   3.384   0.301 -0.2690  0.3272 -0.1308
  265MOL0     C34854   8.510   3.514   0.351 -0.0798 -0.6116 -0.1302
  265MOL0     C34855   8.594   3.577   0.447  0.0018  1.3304  0.2203
  265MOL0     O34856   8.562   3.705   0.494 -0.2377  0.2421  0.5482
  265MOL0     C34857   8.592   3.749   0.626 -0.0341  0.0706  0.2831
  265MOL0     C34858   8.603   3.907   0.622  0.6089 -0.1940  0.3481
  265MOL0     C34859   8.470   3.970   0.555  0.4632 -0.6321  0.2230
  265MOL0     C34860   8.507   4.110   0.503 -0.3647  0.2906  0.0870
  265MOL0     C34861   8.394   4.202   0.441  0.0766  0.6483 -0.0097
  265MOL0     C34862   8.369   4.156   0.302 -0.1860  1.2981 -0.3255
  265MOL0     C34863   8.237   4.225   0.253  0.7941 -0.2948  0.1959
  265MOL0     C34864   8.264   4.373   0.207 -0.3825  0.0884  0.3111
  265MOL0     N34865   8.130   4.434   0.188 -0.7535 -0.7967  0.6137
  265MOL0     C34866   8.042   4.396   0.089  0.5236  0.6326 -0.9591
  265MOL0     C34867   7.935   4.479   0.109 -0.3387 -0.4439  0.2239
  265MOL0     C34868   7.801   4.487   0.053  0.8418 -0.3118  0.8912
  265MOL0     C34869   7.719   4.387   0.126  0.3489 -0.0954 -0.1774
  265MOL0     C34870   7.652   4.449   0.251  1.2806 -0.2844  0.6685
  265MOL0     C34871   7.521   4.372   0.285  1.0721  0.3529  0.2914
  265MOL0     O34872   7.415   4.397   0.195 -0.7782  0.2434  0.6792
  265MOL0     C34873   7.327   4.290   0.173 -0.1193  1.1674 -0.5950
  265MOL0     C34874   7.267   4.293   0.043 -0.5723  0.2935 -0.8520
  265MOL0     C34875   7.164   4.206   0.012  0.0711  0.7929  0.4322
  265MOL0     C34876   7.120   4.111   0.110 -1.0333 -1.0444  0.2067
  265MOL0     C34877   7.023   4.013   0.085  0.6532 -0.2247 -0.4319
  265MOL0     O34878   6.926   4.054  -0.002  0.5185  0.6918  0.1056
  265MOL0     C34879   6.809   3.984  -0.016 -0.6459  0.6884  0.6957
  265MOL0     C34880   6.751   3.903   0.074 -0.0802  0.0052  0.2741
  265MOL0     C34881   6.642   3.813   0.059  0.1925  0.2643 -0.5086
  265MOL0     C34882   6.567   3.834  -0.057 -0.4533 -0.0404  0.0288
  265MOL0     O34883   6.450   3.753  -0.068  0.0028 -0.5434 -0.2665
  265MOL0     C34884   6.396   3.733  -0.199  1.1923 -0.9552 -0.5312
  265MOL0     C34885   6.322   3.601  -0.192 -0.2751  0.1024 -0.4795
  265MOL0     C34886   6.188   3.602  -0.116  0.1170 -0.1304  0.5482
  265MOL0     C34887   6.086   3.710  -0.165  0.8602  0.0762  0.7424
  265MOL0     C34888   5.935   3.684  -0.132  0.1810  0.2637  0.5608
  265MOL0     C34889   5.833   3.704  -0.242 -0.9313  0.0101  0.7791
  265MOL0     C34890   5.705   3.632  -0.217  0.2567 -0.7359  0.3207
  265MOL0     C34891   5.604   3.652  -0.331 -0.9980 -0.7227  0.1610
  265MOL0    Cl34892   5.453   3.605  -0.273  0.0934 -0.1567  0.0473
  265MOL0     C34893   6.612   3.928  -0.149  0.8537  0.2512 -0.3367
  265MOL0     C34894   6.725   4.009  -0.127 -0.5446  0.3974 -0.8507
  265MOL0     O34895   7.038   3.898   0.129 -0.2439  0.7379 -0.4601
  265MOL0     C34896   7.187   4.109   0.237 -0.2927 -0.4972 -0.7095
  265MOL0     C34897   7.278   4.211   0.275  0.4707 -0.1012  0.2148
  265MOL0     N34898   7.971   4.572   0.204 -0.4796  0.2033  0.4251
  265MOL0     N34899   8.087   4.545   0.245 -0.0494  0.2216  0.9542
  265MOL0     C34900   8.710   3.504   0.488  0.4623  0.1957 -0.9973
  265MOL0     C34901   8.733   3.372   0.436 -0.0044 -0.2508  0.6617
  265MOL0     C34902   8.691   2.941   0.323 -0.1637  0.3493  0.1880
  265MOL0     C34903   8.785   2.842   0.346  0.6396  0.2941 -0.5107
  265MOL0     C34904   8.756   2.710   0.313  0.7251  0.1356  0.2879
  265MOL0     C34905   8.631   2.675   0.250  0.5597 -0.3790 -0.0825
  265MOL0     O34906   8.591   2.547   0.226  0.6853  0.3497 -0.2528
  265MOL0     C34907   8.675   2.434   0.261 -0.8255 -0.0810  0.1757
  265MOL0     C34908   8.666   2.309   0.178 -0.0823  0.0547 -0.8501
  265MOL0     C34909   8.545   2.226   0.202  0.5108 -0.1880  0.0859
  265MOL0     C34910   8.562   2.080   0.148 -0.4229 -0.5196  0.7095
  265MOL0     C34911   8.611   1.987   0.249 -0.2303 -0.0204 -0.8033
  265MOL0     C34912   8.639   1.920   0.347 -0.4212  0.5482  0.8397
  265MOL0     C34913   8.549   2.778   0.214 -0.2859  1.0576 -0.1930
  265MOL0     C34914   8.577   2.908   0.254 -0.3701  0.1213  0.5511
  265MOL0     H34915   8.477   3.336   0.224 -3.4639  2.3084  0.8826
  265MOL0     H34916   8.426   3.577   0.321  0.8051  0.7804  0.2465
  265MOL0     H34917   8.689   3.703   0.645 -0.6445 -0.3524  2.6490
  265MOL0     H34918   8.519   3.725   0.703  0.4414  1.2023  1.1047
  265MOL0     H34919   8.681   3.940   0.552 -0.6292 -0.8036 -1.3867
  265MOL0     H34920   8.615   3.952   0.721 -1.6649 -0.7595  0.9271
  265MOL0     H34921   8.388   3.970   0.628  0.9762 -1.5920  0.8236
  265MOL0     H34922   8.432   3.926   0.462  0.0324  1.3260 -0.5701
  265MOL0     H34923   8.548   4.156   0.593  0.5976 -2.1701  0.9811
  265MOL0     H34924   8.591   4.102   0.433 -0.2929  1.8586 -0.0471
  265MOL0     H34925   8.430   4.305   0.435  0.8047  0.3498 -1.2130
  265MOL0     H34926   8.307   4.180   0.503  0.6023 -6.5871 -0.9425
  265MOL0     H34927   8.364   4.048   0.288 -0.5656  1.6956 -4.4477
  265MOL0     H34928   8.456   4.178   0.239  1.4309 -1.3231  0.8133
  265MOL0     H34929   8.191   4.166   0.173  2.0719 -1.9272  0.6101
  265MOL0     H34930   8.163   4.236   0.333 -1.7268  0.6936 -2.1063
  265MOL0     H34931   8.321   4.376   0.114  0.9760 -1.5850  1.0319
  265MOL0     H34932   8.316   4.431   0.284 -1.1140 -0.9082  1.6054
  265MOL0     H34933   8.042   4.317   0.015 -2.7056 -1.4328  1.0331
  265MOL0     H34934   7.798   4.460  -0.053 -0.1273 -1.0832  1.0994
  265MOL0     H34935   7.769   4.592   0.061  1.0028 -0.2985  1.3882
  265MOL0     H34936   7.783   4.309   0.167  2.9462  2.0889  0.1857
  265MOL0     H34937   7.646   4.337   0.062  1.5885 -3.3020  0.7554
  265MOL0     H34938   7.718   4.453   0.338 -0.0544 -2.9354  1.9380
  265MOL0     H34939   7.623   4.553   0.240  2.3994 -0.1173 -1.1939
  265MOL0     H34940   7.496   4.404   0.387 -1.7188  1.0090 -0.5221
  265MOL0     H34941   7.546   4.265   0.285 -3.3790 -0.8988  1.6647
  265MOL0     H34942   7.291   4.372  -0.028  0.0538  0.4420 -0.4832
  265MOL0     H34943   7.113   4.215  -0.083  1.9142  0.1355 -0.6755
  265MOL0     H34944   6.801   3.890   0.170  0.2891 -0.8057 -0.0160
  265MOL0     H34945   6.624   3.738   0.136  0.5606 -1.3235 -1.9114
  265MOL0     H34946   6.477   3.738  -0.271  0.9883  3.2972 -0.7248
  265MOL0     H34947   6.340   3.826  -0.211  3.9777  0.9617  0.3522
  265MOL0     H34948   6.390   3.530  -0.143 -0.7408  1.5733  2.5905
  265MOL0     H34949   6.291   3.573  -0.293 -1.2410 -0.4022 -0.0593
  265MOL0     H34950   6.207   3.627  -0.011  2.7962 -2.2366  0.6455
  265MOL0     H34951   6.140   3.504  -0.119 -0.2651  0.0461 -2.3930
  265MOL0     H34952   6.132   3.805  -0.138 -2.3708  2.9725 -2.7936
  265MOL0     H34953   6.082   3.719  -0.274 -0.2570 -0.8508  0.6896
  265MOL0     H34954   5.914   3.742  -0.041 -1.4102 -2.8580  2.3344
  265MOL0     H34955   5.924   3.582  -0.096 -1.3087  0.5019  0.8715
  265MOL0     H34956   5.860   3.664  -0.341  1.7209 -1.9847  2.1841
  265MOL0     H34957   5.825   3.811  -0.263 -0.1378 -0.1143 -0.2709
  265MOL0     H34958   5.719   3.525  -0.203  1.1529 -0.4263  2.0554
  265MOL0     H34959   5.657   3.670  -0.127 -2.7137  0.9459 -1.8052
  265MOL0     H34960   5.643   3.576  -0.400 -1.1045 -1.5656  1.0152
  265MOL0     H34961   5.603   3.751  -0.377  2.2576 -0.6255  0.0847
  265MOL0     H34962   6.552   3.940  -0.238  0.6183  2.4200  0.0682
  265MOL0     H34963   6.755   4.065  -0.216 -1.4581 -0.8871 -1.9964
  265MOL0     H34964   7.143   4.036   0.304 -0.5888  0.7396  0.4897
  265MOL0     H34965   7.307   4.209   0.379 -4.1517 -1.1692  1.7146
  265MOL0     H34966   8.774   3.536   0.570 -1.1484 -1.7180  1.1275
  265MOL0     H34967   8.824   3.327   0.474  0.5734 -1.0718 -1.5069
  265MOL0     H34968   8.875   2.861   0.403  0.8460 -1.5179 -0.1898
  265MOL0     H34969   8.834   2.639   0.340 -0.3716 -0.7867  1.1277
  265MOL0     H34970   8.644   2.399   0.360 -1.9123  0.8041  0.1653
  265MOL0     H34971   8.782   2.456   0.255 -1.0436  0.7053 -1.4323
  265MOL0     H34972   8.666   2.338   0.072 -1.4976  1.9700 -0.3688
  265MOL0     H34973   8.751   2.244   0.203  1.3885  1.6198 -1.5429
  265MOL0     H34974   8.452   2.256   0.152  0.5412 -1.3813 -0.7416
  265MOL0     H34975   8.518   2.223   0.308 -1.1695  0.6228 -0.2763
  265MOL0     H34976   8.467   2.039   0.113  0.1175  0.8334 -2.6683
  265MOL0     H34977   8.622   2.083   0.057 -0.2119 -3.1373  0.6907
  265MOL0     H34978   8.653   1.873   0.442 -3.9068 -0.7175  0.8647
  265MOL0     H34979   8.466   2.747   0.151 -0.2522 -2.1855  1.1557
  265MOL0     H34980   8.512   2.987   0.218  0.6046 -0.4794 -2.9021
  266MOL0     O34981  11.161  10.977   7.721  0.1146  0.7464  0.2025
  266MOL0     C34982  11.103  11.075   7.659  0.0135  0.4957 -0.8567
  266MOL0     O34983  11.165  11.193   7.613  0.3291 -0.4770  0.4537
  266MOL0     C34984  11.300  11.224   7.631  0.3884 -0.1116 -0.1965
  266MOL0     C34985  11.373  11.197   7.752  0.1472  1.6335  0.5382
  266MOL0     C34986  11.506  11.242   7.756  0.4022  0.9171 -0.6115
  266MOL0     C34987  11.564  11.330   7.660  0.1446  0.1370 -0.0075
  266MOL0     O34988  11.690  11.379   7.655  0.1730 -0.6045 -0.0285
  266MOL0     C34989  11.786  11.286   7.684  0.3207 -0.9642  0.0184
  266MOL0     C34990  11.907  11.340   7.619  0.4904  0.8586 -0.1311
  266MOL0     C34991  12.017  11.234   7.622 -0.1204  0.1104 -0.2667
  266MOL0     C34992  12.138  11.261   7.541  0.2769  0.3545  0.3405
  266MOL0     C34993  12.252  11.174   7.594 -0.5806 -0.0487  0.1270
  266MOL0     C34994  12.396  11.219   7.539  0.2060  0.3316  0.2157
  266MOL0     C34995  12.501  11.130   7.601 -0.4036  0.1763  0.6119
  266MOL0     C34996  12.643  11.191   7.585 -0.0211 -0.3832  0.1322
  266MOL0     N34997  12.770  11.112   7.602  0.5464 -1.0159  0.4673
  266MOL0     C34998  12.770  10.980   7.644 -0.2699  0.3542  0.3341
  266MOL0     C34999  12.900  10.943   7.641 -0.4335 -0.2335 -0.7018
  266MOL0     C35000  12.964  10.812   7.696  1.1658 -0.8778 -0.5145
  266MOL0     C35001  13.017  10.848   7.834  0.1830 -0.0048  0.7345
  266MOL0     C35002  13.117  10.750   7.898 -0.1330  0.2703 -0.0370
  266MOL0     C35003  13.187  10.785   8.033  0.1761 -0.0371  0.2931
  266MOL0     O35004  13.240  10.917   8.038  0.0645 -0.3876 -0.4964
  266MOL0     C35005  13.373  10.949   8.007 -0.1826  0.6559 -0.8096
  266MOL0     C35006  13.469  10.855   7.973 -0.4087 -0.0041 -0.6703
  266MOL0     C35007  13.600  10.905   7.960  0.3334 -0.6173 -1.4115
  266MOL0     C35008  13.640  11.034   8.004  0.7251  0.0229 -0.9527
  266MOL0     C35009  13.785  11.074   7.997  0.7517 -0.1956 -0.1215
  266MOL0     O35010  13.866  10.983   7.933  0.0486 -0.3038  0.0778
  266MOL0     C35011  13.998  11.026   7.905 -0.6912  0.6951 -0.8756
  266MOL0     C35012  14.090  11.047   8.012  0.6342 -0.0167 -0.4897
  266MOL0     C35013  14.223  11.079   7.988 -0.8343  0.8266 -0.7623
  266MOL0     C35014  14.273  11.069   7.864  0.6883 -0.8913  0.4195
  266MOL0     O35015  14.406  11.094   7.854 -0.1405  0.4804 -0.1912
  266MOL0     C35016  14.465  11.046   7.729 -0.6233  0.3348 -0.4605
  266MOL0     C35017  14.616  11.063   7.744  0.2550  0.1486 -0.4840
  266MOL0     C35018  14.683  11.015   7.610 -0.6868  0.1959 -0.4651
  266MOL0     C35019  14.834  11.038   7.627  0.4865  0.2763  0.0789
  266MOL0     C35020  14.913  11.054   7.498 -0.1534 -0.2182  0.2711
  266MOL0     C35021  15.057  11.016   7.525 -0.4324  0.5394  0.0859
  266MOL0     C35022  15.152  11.070   7.413  0.2521  0.6870 -0.0241
  266MOL0     C35023  15.299  11.044   7.439  0.0557 -0.6787 -0.7726
  266MOL0    Cl35024  15.404  11.064   7.288  0.2337 -0.3656 -0.0362
  266MOL0     C35025  14.181  11.049   7.754  0.6704 -0.1269  0.0081
  266MOL0     C35026  14.046  11.027   7.770  0.8508  0.4417 -0.4426
  266MOL0     O35027  13.813  11.191   8.039  0.4175  0.4128 -0.2607
  266MOL0     C35028  13.543  11.119   8.051  0.3640  0.2081  0.3193
  266MOL0     C35029  13.410  11.082   8.042 -0.6703 -0.2573 -0.3782
  266MOL0     N35030  12.971  11.055   7.595 -0.2387 -0.3852  0.4606
  266MOL0     N35031  12.895  11.158   7.565  0.2858  0.2663 -1.0518
  266MOL0     C35032  11.485  11.358   7.550  0.1318  0.2316  0.6534
  266MOL0     C35033  11.359  11.306   7.535 -0.2071  0.2334  0.0854
  266MOL0     C35034  10.959  11.064   7.630 -0.2745 -0.7244  0.1108
  266MOL0     C35035  10.888  10.949   7.650  0.2964 -0.6937  0.0207
  266MOL0     C35036  10.756  10.931   7.605  0.0492  0.2377 -0.2205
  266MOL0     C35037  10.690  11.035   7.533 -0.4553  0.9021  0.4300
  266MOL0     O35038  10.573  11.018   7.461 -0.0169  0.6573 -0.4021
  266MOL0     C35039  10.517  10.887   7.445  0.0723  0.1249 -0.6976
  266MOL0     C35040  10.392  10.899   7.371 -0.3899 -0.1304  0.7728
  266MOL0     C35041  10.379  10.983   7.246  0.0570  1.0827  0.6398
  266MOL0     C35042  10.499  10.973   7.154 -0.7848 -0.0161  0.2379
  266MOL0     C35043  10.477  11.020   7.016 -0.0252  0.5243 -1.0484
  266MOL0     C35044  10.466  11.067   6.905 -0.4598  0.3397 -0.1347
  266MOL0     C35045  10.758  11.158   7.523  0.3160  0.3057  0.3417
  266MOL0     C35046  10.891  11.177   7.568 -0.3378  0.1720 -0.0662
  266MOL0     H35047  11.320  11.136   7.824  2.1548  2.1860  2.5831
  266MOL0     H35048  11.566  11.202   7.837 -0.8271  2.1849  0.9811
  266MOL0     H35049  11.759  11.190   7.638 -0.2536 -0.7963 -0.0006
  266MOL0     H35050  11.797  11.277   7.793 -2.1316 -1.0217  0.3261
  266MOL0     H35051  11.940  11.428   7.676  1.8547 -1.1393  2.3718
  266MOL0     H35052  11.876  11.368   7.518 -1.9065  2.3574  0.9372
  266MOL0     H35053  11.969  11.150   7.572  0.5888  1.0786 -2.7262
  266MOL0     H35054  12.036  11.199   7.724 -2.5809 -0.5408  0.0255
  266MOL0     H35055  12.119  11.238   7.436  4.0173 -0.4170 -0.3024
  266MOL0     H35056  12.164  11.368   7.538  1.8040  0.0060 -2.5577
  266MOL0     H35057  12.225  11.071   7.569 -0.2846  0.5349 -3.0660
  266MOL0     H35058  12.257  11.179   7.703 -1.6919 -1.4434  0.2663
  266MOL0     H35059  12.423  11.323   7.560  2.2796 -0.0855 -0.0967
  266MOL0     H35060  12.402  11.211   7.430  0.0072 -1.4195  0.3146
  266MOL0     H35061  12.470  11.112   7.705 -2.1084  1.3847  0.3419
  266MOL0     H35062  12.494  11.040   7.539  0.6948  2.9277 -3.9305
  266MOL0     H35063  12.645  11.270   7.661 -0.8647 -0.8292  0.6362
  266MOL0     H35064  12.655  11.248   7.492  2.1814 -0.3835  0.3785
  266MOL0     H35065  12.687  10.911   7.654  0.3916 -0.2771  1.5952
  266MOL0     H35066  13.045  10.793   7.625  4.6122  0.4199  2.6864
  266MOL0     H35067  12.888  10.734   7.697 -1.2460  1.3124 -1.1074
  266MOL0     H35068  12.930  10.859   7.901 -1.3125 -1.1687 -0.9339
  266MOL0     H35069  13.055  10.950   7.822 -1.7172  0.4898 -2.2786
  266MOL0     H35070  13.071  10.652   7.912  2.3065 -0.9363  0.1350
  266MOL0     H35071  13.201  10.735   7.829  2.7088 -0.5165  3.2725
  266MOL0     H35072  13.263  10.708   8.046  2.0511  0.9200 -3.5575
  266MOL0     H35073  13.114  10.780   8.114 -1.9073 -1.0618 -1.5265
  266MOL0     H35074  13.455  10.749   7.955 -1.9170  0.5490 -3.2724
  266MOL0     H35075  13.672  10.836   7.918  1.4400  0.5787 -1.5154
  266MOL0     H35076  14.066  11.056   8.118 -0.2584  1.1672 -0.7802
  266MOL0     H35077  14.284  11.092   8.076 -1.2931 -1.7932  0.0447
  266MOL0     H35078  14.425  11.110   7.649 -0.0691  0.8028 -0.3701
  266MOL0     H35079  14.449  10.940   7.707  1.9433 -0.7169  2.1591
  266MOL0     H35080  14.661  11.002   7.822 -1.3301  3.0577  3.0062
  266MOL0     H35081  14.644  11.168   7.757  1.3840  0.1033 -2.2884
  266MOL0     H35082  14.645  11.062   7.518  0.8096  0.7417 -0.8263
  266MOL0     H35083  14.662  10.907   7.609  0.5674 -0.2066  2.8672
  266MOL0     H35084  14.843  11.126   7.692  3.7767 -0.5951  0.9926
  266MOL0     H35085  14.874  10.956   7.687 -1.0182 -2.3658 -2.2918
  266MOL0     H35086  14.914  11.158   7.465  1.1380 -0.1503  0.4915
  266MOL0     H35087  14.878  10.992   7.415 -3.9602  0.0054  1.5104
  266MOL0     H35088  15.082  10.909   7.523  0.2139  0.6983 -1.0002
  266MOL0     H35089  15.097  11.051   7.621  2.0913  0.8958 -0.9989
  266MOL0     H35090  15.130  11.018   7.319 -2.1045 -1.3072  1.4980
  266MOL0     H35091  15.135  11.177   7.403 -0.4705  0.5588 -0.2525
  266MOL0     H35092  15.311  10.948   7.490 -1.8508 -1.1583 -1.1675
  266MOL0     H35093  15.340  11.118   7.509  0.2656 -1.2117 -0.3226
  266MOL0     H35094  14.217  11.065   7.652  0.6050  0.5078  0.0770
  266MOL0     H35095  13.977  11.023   7.686 -1.6742 -1.8524  1.5709
  266MOL0     H35096  13.557  11.219   8.091 -1.6655 -0.0400  1.7881
  266MOL0     H35097  13.343  11.160   8.077  2.2050  2.5318 -0.6710
  266MOL0     H35098  11.528  11.422   7.474  1.1405  0.2430  1.2154
  266MOL0     H35099  11.305  11.337   7.447 -0.1571 -2.0517 -0.8083
  266MOL0     H35100  10.939  10.865   7.697  0.3147  0.2396  1.7853
  266MOL0     H35101  10.719  10.829   7.612 -0.1691  0.3978  0.9937
  266MOL0     H35102  10.495  10.841   7.541  0.6243 -0.2072 -0.7237
  266MOL0     H35103  10.589  10.822   7.393 -0.3986 -0.0912 -1.0939
  266MOL0     H35104  10.354  10.799   7.345  0.3786  0.0172 -1.1077
  266MOL0     H35105  10.317  10.932   7.444 -0.3438  0.2136  0.6650
  266MOL0     H35106  10.362  11.088   7.271 -1.3722  1.5326 -1.9518
  266MOL0     H35107  10.286  10.949   7.201 -0.4176  0.6709  1.8808
  266MOL0     H35108  10.587  11.023   7.197 -2.6278  3.6555  0.1173
  266MOL0     H35109  10.533  10.870   7.143  2.5652  0.9583  0.1444
  266MOL0     H35110  10.439  11.105   6.809  0.9082  2.6875  0.3284
  266MOL0     H35111  10.722  11.251   7.479 -0.3342 -0.0160  0.1917
  266MOL0     H35112  10.935  11.276   7.577  1.4769 -0.7627  3.0059
  267MOL0     O35113   6.637   5.706   7.440  0.8858 -0.1555 -0.2322
  267MOL0     C35114   6.678   5.605   7.389  0.7189  0.5709 -0.0764
  267MOL0     O35115   6.613   5.484   7.384  0.0714 -0.3458 -0.0484
  267MOL0     C35116   6.487   5.482   7.429  0.0852  0.2808  0.9050
  267MOL0     C35117   6.377   5.464   7.342  0.8206  0.0383 -0.1917
  267MOL0     C35118   6.249   5.455   7.397  0.3979  0.3132 -0.0696
  267MOL0     C35119   6.222   5.449   7.535  1.4475 -0.0359  0.7782
  267MOL0     O35120   6.089   5.439   7.575  0.0001  0.1750  0.9459
  267MOL0     C35121   6.040   5.543   7.657  0.0044 -0.2131 -0.2103
  267MOL0     C35122   5.932   5.475   7.742  0.5914  0.0596 -1.1097
  267MOL0     C35123   6.000   5.406   7.867 -0.0378 -0.2297  0.1990
  267MOL0     C35124   5.933   5.277   7.891  0.7246  0.2775  1.0639
  267MOL0     C35125   5.981   5.220   8.028  0.7802  0.1829  0.0381
  267MOL0     C35126   5.927   5.073   8.041 -0.2766  0.2646 -0.9973
  267MOL0     C35127   5.935   5.020   8.189 -0.3670  0.0162 -0.0366
  267MOL0     C35128   5.862   4.882   8.217 -0.4440 -0.3978  0.3510
  267MOL0     N35129   5.721   4.889   8.239 -0.2005 -0.0996 -0.5765
  267MOL0     C35130   5.660   4.968   8.331 -0.2612 -0.1661  0.4159
  267MOL0     C35131   5.524   4.947   8.325 -0.7196  0.8290  0.0850
  267MOL0     C35132   5.412   5.020   8.389  0.2178  0.4679 -0.0302
  267MOL0     C35133   5.402   5.163   8.326  0.0495  0.5310 -0.4947
  267MOL0     C35134   5.305   5.257   8.402  0.1153  0.7375  0.6366
  267MOL0     C35135   5.354   5.403   8.387  0.1934  0.1901 -0.4654
  267MOL0     O35136   5.400   5.427   8.253  0.1896  0.6345  0.6159
  267MOL0     C35137   5.509   5.500   8.232 -0.3257  0.3494 -0.2904
  267MOL0     C35138   5.509   5.633   8.278  0.3571 -0.2943 -0.2025
  267MOL0     C35139   5.605   5.718   8.221  0.2380  0.2582  0.1030
  267MOL0     C35140   5.703   5.679   8.129 -0.1929 -0.2475 -0.4125
  267MOL0     C35141   5.785   5.787   8.072 -0.4748 -1.0424 -0.6831
  267MOL0     O35142   5.745   5.916   8.081 -0.0502  0.3534 -0.3274
  267MOL0     C35143   5.842   6.008   8.065  0.5692 -0.1662  0.2290
  267MOL0     C35144   5.821   6.115   7.971 -0.0610 -0.8126 -0.3761
  267MOL0     C35145   5.917   6.219   7.954  0.1490 -0.5979  0.0639
  267MOL0     C35146   6.028   6.228   8.040  0.2047 -0.1659 -0.3767
  267MOL0     O35147   6.117   6.335   8.028 -0.1418 -0.0971  1.2340
  267MOL0     C35148   6.216   6.354   8.130  0.1778  0.1871 -0.4001
  267MOL0     C35149   6.261   6.506   8.118  0.1818  0.7505 -0.2060
  267MOL0     C35150   6.373   6.531   8.214 -0.4812 -0.3853 -0.5624
  267MOL0     C35151   6.483   6.615   8.146 -0.9394  0.3280  0.1906
  267MOL0     C35152   6.601   6.637   8.242 -0.8827 -0.9630 -0.1695
  267MOL0     C35153   6.725   6.697   8.170  0.6627  0.1472 -0.0731
  267MOL0     C35154   6.833   6.702   8.275  0.5997 -0.2306  0.0177
  267MOL0     C35155   6.967   6.722   8.206  0.4614  0.1451  1.1401
  267MOL0    Cl35156   7.103   6.732   8.312  0.1626 -0.6572 -0.4257
  267MOL0     C35157   6.040   6.130   8.148 -0.3013 -0.2152  0.3501
  267MOL0     C35158   5.950   6.024   8.151 -0.1557  0.1237 -0.5451
  267MOL0     O35159   5.896   5.751   8.032  0.6438  0.3276  0.5290
  267MOL0     C35160   5.721   5.537   8.109 -0.1337 -0.1612  0.2954
  267MOL0     C35161   5.614   5.458   8.150 -0.8894  0.1137 -0.0350
  267MOL0     N35162   5.503   4.858   8.217 -0.4151  0.8212  0.4046
  267MOL0     N35163   5.622   4.817   8.174 -0.7127 -0.3450  0.6980
  267MOL0     C35164   6.332   5.470   7.617  0.3148 -0.2326  0.2183
  267MOL0     C35165   6.461   5.485   7.561 -0.1575  1.0002 -0.9405
  267MOL0     C35166   6.808   5.612   7.322 -0.5810  0.3137 -0.1768
  267MOL0     C35167   6.835   5.541   7.200  0.1006 -0.5563 -0.6649
  267MOL0     C35168   6.960   5.550   7.150 -0.7548 -0.5415  0.1076
  267MOL0     C35169   7.059   5.630   7.211  0.7019  0.4911  0.1312
  267MOL0     O35170   7.194   5.626   7.161 -0.0978  0.0026 -0.3350
  267MOL0     C35171   7.230   5.545   7.047 -0.0739 -0.1410 -0.1533
  267MOL0     C35172   7.387   5.554   7.019  0.5856  0.0267  0.8362
  267MOL0     C35173   7.428   5.504   6.880  0.6087  0.5902  0.3717
  267MOL0     C35174   7.559   5.443   6.826 -0.7089  0.0454 -0.3008
  267MOL0     C35175   7.675   5.527   6.857  0.0457  0.3729 -0.0986
  267MOL0     C35176   7.781   5.577   6.881 -0.9847  0.6230  0.5774
  267MOL0     C35177   7.030   5.706   7.323  0.2362 -1.4617 -0.6513
  267MOL0     C35178   6.901   5.699   7.377 -0.0824  0.6194 -0.6920
  267MOL0     H35179   6.385   5.436   7.237 -0.8295  0.8511 -0.5869
  267MOL0     H35180   6.166   5.455   7.327  3.0048 -0.3776 -3.4089
  267MOL0     H35181   5.983   5.622   7.606  0.3451  2.2520  2.9303
  267MOL0     H35182   6.114   5.597   7.716 -0.7729  0.6090  0.0381
  267MOL0     H35183   5.867   5.410   7.682  0.3697  1.0957 -2.0369
  267MOL0     H35184   5.863   5.553   7.775  0.2640 -0.6435 -0.1142
  267MOL0     H35185   6.007   5.467   7.957  0.5688  1.0297 -0.6681
  267MOL0     H35186   6.098   5.367   7.836 -0.4911 -1.7997  0.6635
  267MOL0     H35187   5.826   5.278   7.868  1.3217  1.4061 -2.0691
  267MOL0     H35188   5.966   5.203   7.817 -3.6327 -1.8115  0.8463
  267MOL0     H35189   5.944   5.265   8.121 -2.2015 -1.9191 -0.0130
  267MOL0     H35190   6.091   5.221   8.023  0.7771 -1.7023 -2.5247
  267MOL0     H35191   5.980   5.000   7.980  1.9565  1.4108 -0.5477
  267MOL0     H35192   5.827   5.062   7.998  0.0100 -1.6855 -1.2408
  267MOL0     H35193   6.041   5.010   8.217 -0.6753  1.6035  1.9241
  267MOL0     H35194   5.896   5.092   8.261  1.4092 -1.5693  2.7062
  267MOL0     H35195   5.893   4.842   8.314  0.4161  1.4532  0.8954
  267MOL0     H35196   5.896   4.816   8.138 -0.8771 -1.3370  0.9318
  267MOL0     H35197   5.700   5.046   8.396 -1.5595 -0.8265  2.0547
  267MOL0     H35198   5.449   5.034   8.491  0.9309  0.4246 -0.2753
  267MOL0     H35199   5.328   4.951   8.394  1.1038 -0.6672 -0.4084
  267MOL0     H35200   5.372   5.160   8.221  3.1043  1.6138 -1.4718
  267MOL0     H35201   5.502   5.204   8.339  1.1776 -2.3836  0.9215
  267MOL0     H35202   5.213   5.234   8.348  2.6408  0.2477 -3.9387
  267MOL0     H35203   5.299   5.239   8.510  0.9710  2.3206  0.9706
  267MOL0     H35204   5.434   5.422   8.459  0.2103  2.0467 -0.9377
  267MOL0     H35205   5.267   5.465   8.406 -1.7681 -2.5501  0.0455
  267MOL0     H35206   5.436   5.673   8.347 -1.7959  0.4552 -2.7475
  267MOL0     H35207   5.584   5.824   8.230 -0.7490  0.2057 -1.2211
  267MOL0     H35208   5.738   6.103   7.902 -0.0519  0.5106 -0.6358
  267MOL0     H35209   5.895   6.292   7.876 -1.3525 -0.8383  0.2359
  267MOL0     H35210   6.294   6.279   8.112 -1.8144 -2.4637  1.2350
  267MOL0     H35211   6.196   6.347   8.237 -0.3212  3.0241 -0.2486
  267MOL0     H35212   6.171   6.565   8.138 -0.1061 -0.1564  1.3119
  267MOL0     H35213   6.292   6.530   8.016 -2.6635  0.0429 -1.3441
  267MOL0     H35214   6.422   6.437   8.240  2.5148  0.9827 -0.7940
  267MOL0     H35215   6.333   6.580   8.304 -1.8280  0.3561 -1.5374
  267MOL0     H35216   6.518   6.561   8.057 -1.9855  1.7793 -1.1590
  267MOL0     H35217   6.444   6.709   8.106  0.6531  1.0707  0.2829
  267MOL0     H35218   6.641   6.538   8.265  1.2398 -0.7471 -2.5202
  267MOL0     H35219   6.578   6.708   8.322  2.3791  1.9721 -1.5853
  267MOL0     H35220   6.699   6.793   8.126 -1.0348  0.4696  1.4853
  267MOL0     H35221   6.749   6.625   8.091 -1.0602 -1.7206  0.9846
  267MOL0     H35222   6.815   6.794   8.332  1.2316 -0.7262  1.0423
  267MOL0     H35223   6.846   6.614   8.339 -1.7832 -0.9091 -0.3174
  267MOL0     H35224   6.958   6.816   8.152 -0.0811 -0.0020  0.9689
  267MOL0     H35225   6.982   6.640   8.135 -0.1621 -1.7929  3.1389
  267MOL0     H35226   6.113   6.132   8.228 -2.2880 -3.5658  2.4438
  267MOL0     H35227   5.958   5.945   8.225  1.3807  0.5151 -0.2459
  267MOL0     H35228   5.797   5.495   8.044  1.6196  0.5979  1.7775
  267MOL0     H35229   5.615   5.352   8.126 -0.9651 -0.3592  1.9129
  267MOL0     H35230   6.317   5.482   7.723 -3.1532 -2.1964  0.1090
  267MOL0     H35231   6.547   5.501   7.625 -0.0666 -1.5498 -0.2954
  267MOL0     H35232   6.760   5.479   7.151 -1.6789  0.9413  0.0354
  267MOL0     H35233   6.989   5.492   7.064 -0.2834  1.2818 -1.0217
  267MOL0     H35234   7.174   5.572   6.957 -1.7992 -2.5992  0.0542
  267MOL0     H35235   7.197   5.440   7.048 -1.0366  0.1462 -0.1253
  267MOL0     H35236   7.419   5.658   7.031  1.3777  0.1579 -1.8102
  267MOL0     H35237   7.439   5.493   7.094  0.5230  2.3775  2.9275
  267MOL0     H35238   7.409   5.585   6.809  3.2914 -1.4886 -3.0762
  267MOL0     H35239   7.358   5.425   6.852  1.2560  0.4164 -0.8349
  267MOL0     H35240   7.586   5.345   6.869  2.3574  0.8993 -0.0445
  267MOL0     H35241   7.540   5.434   6.719  1.2983  2.6358 -0.9662
  267MOL0     H35242   7.876   5.623   6.901  0.2021 -1.3280 -0.2888
  267MOL0     H35243   7.108   5.760   7.376  1.5047 -1.1710 -2.6906
  267MOL0     H35244   6.893   5.770   7.458  2.3418 -0.8462  0.9483
  268MOL0     O35245   0.658   8.126   3.384 -0.4474  0.2015  0.2167
  268MOL0     C35246   0.651   8.161   3.265  0.2499  0.1051 -0.9770
  268MOL0     O35247   0.540   8.148   3.183 -0.1046 -0.1224 -0.2337
  268MOL0     C35248   0.434   8.078   3.230 -0.0797  0.5145 -0.1453
  268MOL0     C35249   0.312   8.124   3.174  0.7962  0.2354  0.2830
  268MOL0     C35250   0.189   8.075   3.214  0.0157  0.0944  0.5654
  268MOL0     C35251   0.186   7.960   3.296  0.9396 -1.3540 -0.0220
  268MOL0     O35252   0.067   7.910   3.335  0.6597  0.4220 -0.6914
  268MOL0     C35253   0.064   7.795   3.412  0.4353 -0.5268 -0.4821
  268MOL0     C35254  -0.092   7.774   3.444 -0.1107  0.4476 -0.0991
  268MOL0     C35255  -0.176   7.872   3.523 -0.6802 -1.0674 -0.2772
  268MOL0     C35256  -0.124   7.875   3.663  0.1813 -0.2237  0.8679
  268MOL0     C35257  -0.187   7.996   3.735  0.6198 -0.0214 -0.4167
  268MOL0     C35258  -0.117   8.032   3.869 -0.1488 -0.4752  0.1618
  268MOL0     C35259   0.034   8.070   3.860 -0.5420  0.4691  0.1441
  268MOL0     C35260   0.081   8.130   3.997  1.1205  0.2535  0.0838
  268MOL0     N35261   0.207   8.202   3.983 -0.3979 -0.0273  0.3225
  268MOL0     C35262   0.315   8.163   3.909  0.1549  0.8239 -0.0057
  268MOL0     C35263   0.395   8.271   3.916  0.3507 -0.8937 -0.0960
  268MOL0     C35264   0.521   8.277   3.835 -0.0978 -0.4835 -0.6750
  268MOL0     C35265   0.503   8.389   3.736  0.2491  0.4295  0.7148
  268MOL0     C35266   0.585   8.383   3.605  1.0868  0.6009  0.4927
  268MOL0     C35267   0.739   8.376   3.616  0.7050 -0.6029 -0.8377
  268MOL0     O35268   0.786   8.488   3.702  0.3540 -0.3452  0.4779
  268MOL0     C35269   0.899   8.545   3.669  0.7142  0.5616 -1.0648
  268MOL0     C35270   0.922   8.681   3.689 -0.5877 -0.0772 -0.3477
  268MOL0     C35271   1.037   8.743   3.649  0.1048 -0.6351 -0.0907
  268MOL0     C35272   1.138   8.665   3.589 -0.9886  0.1960 -1.2472
  268MOL0     C35273   1.252   8.725   3.543  0.0883  0.2238 -0.8197
  268MOL0     O35274   1.248   8.863   3.519  0.7825 -0.6848 -0.6051
  268MOL0     C35275   1.355   8.945   3.488  0.4262 -0.1938 -0.0404
  268MOL0     C35276   1.482   8.916   3.512  0.0256 -0.0784 -1.4779
  268MOL0     C35277   1.587   9.013   3.480  0.8128 -0.4965 -0.3746
  268MOL0     C35278   1.563   9.132   3.408  0.4684  0.1114  0.5227
  268MOL0     O35279   1.654   9.229   3.383  0.6859 -0.4257 -0.1192
  268MOL0     C35280   1.772   9.172   3.319  0.0594  0.3184 -0.0601
  268MOL0     C35281   1.757   9.160   3.168 -0.6222 -0.1340 -0.3046
  268MOL0     C35282   1.887   9.111   3.114  0.1057  0.2003 -0.4300
  268MOL0     C35283   1.894   9.117   2.958 -0.2227 -0.7376  0.1117
  268MOL0     C35284   1.916   8.977   2.900 -0.4429  0.3767  0.6065
  268MOL0     C35285   2.063   8.931   2.891 -0.2732 -0.0357 -0.1135
  268MOL0     C35286   2.113   8.873   3.025 -0.4338 -0.4074  0.3169
  268MOL0     C35287   2.241   8.790   2.996  0.6860  0.2733  0.3220
  268MOL0    Cl35288   2.271   8.723   3.160 -0.6515 -0.4799  0.6226
  268MOL0     C35289   1.431   9.149   3.371  0.6736 -1.1811  0.3715
  268MOL0     C35290   1.329   9.062   3.414  0.5220  0.0818 -0.5754
  268MOL0     O35291   1.351   8.655   3.524  0.7928  0.3822  0.6612
  268MOL0     C35292   1.121   8.525   3.567  0.2205 -0.5719  0.3293
  268MOL0     C35293   1.005   8.469   3.610 -0.4985 -0.0816 -0.0032
  268MOL0     N35294   0.342   8.377   3.992 -0.3690 -0.1875  0.0040
  268MOL0     N35295   0.231   8.332   4.024 -0.5072 -0.4181 -0.0978
  268MOL0     C35296   0.309   7.905   3.338 -0.2286 -0.5273 -0.3789
  268MOL0     C35297   0.431   7.964   3.302 -0.1496  0.5438  0.7283
  268MOL0     C35298   0.757   8.226   3.205  0.2203  0.3765  0.4223
  268MOL0     C35299   0.758   8.264   3.063 -0.6686 -0.8915  0.2658
  268MOL0     C35300   0.879   8.317   3.021 -0.3440 -0.4229 -1.0908
  268MOL0     C35301   0.995   8.334   3.096 -0.3508 -0.0400 -0.9856
  268MOL0     O35302   1.094   8.422   3.061  0.1382  0.4038 -0.7733
  268MOL0     C35303   1.194   8.369   2.967 -0.0315 -0.5950 -0.2417
  268MOL0     C35304   1.306   8.290   3.040 -0.1222  0.1318  0.3008
  268MOL0     C35305   1.395   8.374   3.135  0.0322  0.2968  0.3623
  268MOL0     C35306   1.513   8.295   3.177 -1.3586  0.2773 -0.2225
  268MOL0     C35307   1.578   8.361   3.293  0.1631  0.5310  1.4252
  268MOL0     C35308   1.612   8.406   3.395 -0.2092  0.3482  0.6789
  268MOL0     C35309   0.986   8.296   3.231  0.2032  0.2221 -0.3560
  268MOL0     C35310   0.865   8.257   3.285 -0.5715  0.5077 -0.3613
  268MOL0     H35311   0.310   8.206   3.103 -1.6605 -1.3981 -1.7107
  268MOL0     H35312   0.094   8.106   3.172  0.7346 -0.8863 -1.9691
  268MOL0     H35313   0.115   7.804   3.509 -0.4135 -1.5970  0.0946
  268MOL0     H35314   0.096   7.708   3.354 -3.4444 -2.5527  0.0789
  268MOL0     H35315  -0.097   7.681   3.501  0.9117  1.6120  2.0386
  268MOL0     H35316  -0.140   7.762   3.346  0.2678  3.2435 -0.7021
  268MOL0     H35317  -0.280   7.839   3.533 -0.2982 -2.6175 -1.1967
  268MOL0     H35318  -0.176   7.969   3.473  1.0117  0.0162  1.6604
  268MOL0     H35319  -0.138   7.779   3.713  2.9087  0.3154  2.8918
  268MOL0     H35320  -0.016   7.893   3.665  0.3573 -1.2920  2.1587
  268MOL0     H35321  -0.292   7.978   3.762  0.0856  2.3144 -0.6964
  268MOL0     H35322  -0.174   8.085   3.673 -0.7234  1.7214  1.6332
  268MOL0     H35323  -0.109   7.943   3.932  5.6855 -0.1988  0.3272
  268MOL0     H35324  -0.165   8.115   3.923 -1.3061 -1.3766  0.5612
  268MOL0     H35325   0.089   7.976   3.847 -1.3410 -0.0124  0.1263
  268MOL0     H35326   0.053   8.141   3.779  3.3677 -0.3809  0.1316
  268MOL0     H35327   0.095   8.048   4.069  1.2146  0.7591  0.6549
  268MOL0     H35328   0.010   8.198   4.046 -1.0367 -2.8660  1.6460
  268MOL0     H35329   0.318   8.073   3.848 -3.0011 -0.8517  2.0395
  268MOL0     H35330   0.549   8.182   3.788  1.0424  0.4309 -1.9249
  268MOL0     H35331   0.612   8.295   3.892  0.2968 -0.1583 -1.4004
  268MOL0     H35332   0.524   8.484   3.787 -1.8680 -0.1382  2.7856
  268MOL0     H35333   0.397   8.392   3.711  0.2076  1.4159  0.9475
  268MOL0     H35334   0.536   8.302   3.549  0.9829  0.3073  1.0007
  268MOL0     H35335   0.568   8.476   3.551  0.9255  0.7775  0.8464
  268MOL0     H35336   0.777   8.390   3.514 -0.9605  4.5967 -1.0100
  268MOL0     H35337   0.768   8.277   3.653  0.2911 -0.9505 -1.4225
  268MOL0     H35338   0.846   8.747   3.730  0.6225  2.6943 -2.2908
  268MOL0     H35339   1.027   8.851   3.659 -1.2448 -0.6864 -0.6557
  268MOL0     H35340   1.506   8.820   3.555  1.9999 -0.0517 -2.4123
  268MOL0     H35341   1.688   8.982   3.504  2.0251  0.7950 -3.2966
  268MOL0     H35342   1.804   9.084   3.376 -0.0181  0.3313  0.0040
  268MOL0     H35343   1.845   9.252   3.337  0.4832 -0.0421 -0.1503
  268MOL0     H35344   1.734   9.261   3.134  1.0025  0.5344  0.5048
  268MOL0     H35345   1.678   9.090   3.137 -1.2005  0.5967 -0.5041
  268MOL0     H35346   1.917   9.011   3.148  0.0615 -0.8090 -3.1203
  268MOL0     H35347   1.959   9.180   3.159  0.0300 -0.5138  0.8351
  268MOL0     H35348   1.799   9.158   2.922 -2.0383 -0.0215  5.0247
  268MOL0     H35349   1.976   9.182   2.923  0.0588  0.1784  2.3214
  268MOL0     H35350   1.877   8.970   2.798 -1.2390  2.1617  0.7526
  268MOL0     H35351   1.860   8.903   2.959 -0.6371 -1.0328 -1.2363
  268MOL0     H35352   2.116   9.024   2.867  0.8780 -0.5216  0.4821
  268MOL0     H35353   2.059   8.848   2.820 -2.4809 -1.3873  1.4759
  268MOL0     H35354   2.124   8.960   3.090 -1.2438  0.5181 -0.7394
  268MOL0     H35355   2.036   8.804   3.062 -1.7076  0.5425 -0.4635
  268MOL0     H35356   2.329   8.841   2.956  1.3337 -1.3334 -0.3566
  268MOL0     H35357   2.233   8.711   2.921  0.4965  2.9173 -2.6514
  268MOL0     H35358   1.395   9.240   3.324 -2.4408 -2.2354  0.4619
  268MOL0     H35359   1.225   9.088   3.403 -0.8349 -4.1570  0.1534
  268MOL0     H35360   1.194   8.459   3.520  0.2097  0.9692 -2.0268
  268MOL0     H35361   0.987   8.363   3.593 -1.2763  0.3840 -2.4314
  268MOL0     H35362   0.329   7.815   3.394  1.8453 -1.3382 -2.2442
  268MOL0     H35363   0.519   7.903   3.322 -0.2717 -0.3469 -1.1715
  268MOL0     H35364   0.675   8.242   2.997 -4.0272 -3.0760  4.7333
  268MOL0     H35365   0.890   8.350   2.918 -1.8480 -0.4999 -1.3044
  268MOL0     H35366   1.240   8.446   2.904  0.7045 -2.7580 -2.4791
  268MOL0     H35367   1.154   8.300   2.892 -0.5689 -2.6857  1.8487
  268MOL0     H35368   1.272   8.200   3.092  2.0980  0.6379  2.8893
  268MOL0     H35369   1.380   8.267   2.963  0.1659  1.0031  0.3026
  268MOL0     H35370   1.329   8.410   3.214 -0.0300  0.5501  0.1946
  268MOL0     H35371   1.417   8.469   3.085 -0.1124  0.4154  0.5237
  268MOL0     H35372   1.482   8.195   3.206 -1.3077  0.7230  1.4893
  268MOL0     H35373   1.589   8.296   3.097 -0.5146  1.5070  0.5593
  268MOL0     H35374   1.654   8.451   3.483  0.7888 -0.2207  0.5098
  268MOL0     H35375   1.062   8.311   3.308 -1.5106  0.2496  1.4136
  268MOL0     H35376   0.879   8.231   3.389 -2.3268  3.0609  0.6167
  269MOL0     O35377   1.228   5.274   9.724 -0.0744 -1.0088 -0.6269
  269MOL0     C35378   1.205   5.385   9.769  0.1073 -0.0951  1.0147
  269MOL0     O35379   1.302   5.485   9.787  0.2256 -0.2890  0.1458
  269MOL0     C35380   1.433   5.477   9.757 -0.8626  0.0614 -0.5007
  269MOL0     C35381   1.508   5.581   9.817  0.3400  0.1067  0.2898
  269MOL0     C35382   1.646   5.586   9.781 -0.3053  0.2385 -1.0831
  269MOL0     C35383   1.712   5.487   9.709 -0.3393  0.2312  0.1267
  269MOL0     O35384   1.847   5.488   9.690  0.3106 -0.5290 -0.1781
  269MOL0     C35385   1.907   5.625   9.656  1.0959  0.6921 -0.7538
  269MOL0     C35386   2.003   5.601   9.543 -0.4567  0.2230 -0.4668
  269MOL0     C35387   2.066   5.731   9.482  0.4241  0.4945  0.6097
  269MOL0     C35388   2.177   5.701   9.384  0.5223  1.1066  1.1068
  269MOL0     C35389   2.237   5.839   9.329 -1.0966  1.1394  0.6331
  269MOL0     C35390   2.314   5.805   9.193 -0.2183  0.2371  0.0548
  269MOL0     C35391   2.371   5.926   9.110  0.2689 -0.2390  0.0799
  269MOL0     C35392   2.270   6.031   9.091 -0.3080  0.2559  0.1593
  269MOL0     N35393   2.319   6.140   9.008 -0.1484  0.1610  0.3428
  269MOL0     C35394   2.392   6.129   8.892 -0.8238 -0.3674  0.8014
  269MOL0     C35395   2.382   6.248   8.826 -0.0547  0.1110  0.4095
  269MOL0     C35396   2.456   6.285   8.701 -0.6291  1.0269  0.2057
  269MOL0     C35397   2.454   6.426   8.672 -0.3776  0.5526 -0.1725
  269MOL0     C35398   2.565   6.509   8.752 -0.1285 -0.0591 -0.5224
  269MOL0     C35399   2.709   6.458   8.735  0.7369  0.2817  0.1032
  269MOL0     O35400   2.730   6.363   8.840  0.6671 -0.3674 -0.4602
  269MOL0     C35401   2.765   6.391   8.969  0.2815 -1.0240  0.5030
  269MOL0     C35402   2.807   6.520   9.016 -0.3048 -0.3186 -0.3009
  269MOL0     C35403   2.821   6.550   9.152  0.2880  0.2967 -0.5229
  269MOL0     C35404   2.814   6.448   9.253  0.4424 -0.4939  0.2108
  269MOL0     C35405   2.838   6.482   9.394  0.6623  0.7335  0.3070
  269MOL0     O35406   2.867   6.366   9.469  0.2241 -1.5256  0.8351
  269MOL0     C35407   2.900   6.383   9.596 -0.2997 -0.7083  0.4135
  269MOL0     C35408   3.006   6.460   9.646 -0.3029 -0.7615  0.5429
  269MOL0     C35409   3.010   6.488   9.779  0.1192  0.4544  0.2554
  269MOL0     C35410   2.946   6.401   9.871  1.1382 -0.6809 -0.4149
  269MOL0     O35411   2.970   6.428  10.004  0.8599  0.5431  0.5818
  269MOL0     C35412   2.957   6.320  10.100 -0.0484  0.6609  0.1549
  269MOL0     C35413   3.020   6.367  10.234 -0.2425  0.2026 -0.0782
  269MOL0     C35414   2.964   6.276  10.345  0.4919 -0.6846 -0.6932
  269MOL0     C35415   2.945   6.376  10.465  0.0236  0.3782  0.4546
  269MOL0     C35416   2.849   6.313  10.576  0.1251 -1.1193 -0.7858
  269MOL0     C35417   2.878   6.365  10.713 -0.2303 -0.7923  0.9157
  269MOL0     C35418   2.765   6.310  10.801 -0.4444  0.2259  1.2214
  269MOL0     C35419   2.771   6.162  10.850  0.7472 -0.3546  0.4862
  269MOL0    Cl35420   2.905   6.143  10.948  0.0858 -0.1049  0.2917
  269MOL0     C35421   2.865   6.293   9.822  0.5777  0.2587 -0.0190
  269MOL0     C35422   2.845   6.293   9.688 -0.2592  0.0160  0.2966
  269MOL0     O35423   2.863   6.594   9.431  0.0297  0.0794  0.5493
  269MOL0     C35424   2.787   6.321   9.205  0.9681 -0.0071  0.6826
  269MOL0     C35425   2.758   6.290   9.070 -0.3840 -0.5228  0.2777
  269MOL0     N35426   2.300   6.331   8.902  0.3943  0.4672 -0.7513
  269MOL0     N35427   2.261   6.265   9.011 -0.3981  0.3979  0.6422
  269MOL0     C35428   1.644   5.379   9.666  0.1170  0.5321  0.0054
  269MOL0     C35429   1.505   5.379   9.689 -0.2126 -0.0894  0.2590
  269MOL0     C35430   1.056   5.408   9.776  0.4265 -0.4450 -0.0642
  269MOL0     C35431   0.960   5.311   9.742  0.7036 -0.6633 -0.3532
  269MOL0     C35432   0.821   5.332   9.760 -0.0296  0.0188 -0.6790
  269MOL0     C35433   0.768   5.454   9.811  0.4184 -0.1356 -0.4053
  269MOL0     O35434   0.630   5.460   9.830 -0.0985 -0.3343 -0.0198
  269MOL0     C35435   0.573   5.584   9.897  0.6648  0.6726  0.3380
  269MOL0     C35436   0.436   5.555   9.958  0.4450  1.2201  1.9995
  269MOL0     C35437   0.348   5.471   9.867 -0.2754  0.1964  0.4386
  269MOL0     C35438   0.229   5.422   9.949  1.0957  0.1294 -0.5844
  269MOL0     C35439   0.163   5.329   9.849  0.1344 -0.7356  0.3177
  269MOL0     C35440   0.093   5.251   9.795  0.6638  0.3229 -1.1722
  269MOL0     C35441   0.863   5.555   9.823  0.4272 -0.2689 -0.4920
  269MOL0     C35442   1.003   5.531   9.817  0.0459  0.0849 -0.1422
  269MOL0     H35443   1.470   5.664   9.876 -0.4734  2.4931 -3.2799
  269MOL0     H35444   1.699   5.675   9.815  0.1187 -0.6920  0.8257
  269MOL0     H35445   1.955   5.658   9.748  0.6977 -0.6095 -0.0651
  269MOL0     H35446   1.822   5.691   9.634  0.6722  0.8146  1.1148
  269MOL0     H35447   1.963   5.551   9.454  0.3226  0.5961 -1.0351
  269MOL0     H35448   2.079   5.537   9.590  0.7949  0.3131 -2.2671
  269MOL0     H35449   2.110   5.783   9.568  0.5843  0.4557  0.5505
  269MOL0     H35450   1.986   5.786   9.431 -0.0667 -0.5380  0.2465
  269MOL0     H35451   2.253   5.639   9.431 -0.5919 -2.6894 -1.6578
  269MOL0     H35452   2.139   5.648   9.296  1.2720  3.5833 -0.8282
  269MOL0     H35453   2.306   5.893   9.395  1.8739  0.8368 -1.9993
  269MOL0     H35454   2.151   5.903   9.307 -1.5334 -0.3716 -2.5978
  269MOL0     H35455   2.248   5.746   9.129 -0.3982  2.6026 -2.1137
  269MOL0     H35456   2.394   5.737   9.221  0.9639  1.8543  0.7676
  269MOL0     H35457   2.463   5.961   9.159  0.8489 -1.8509  0.1940
  269MOL0     H35458   2.392   5.881   9.012  1.0974  0.1464  0.0673
  269MOL0     H35459   2.236   6.086   9.180 -0.5748  2.1030 -1.0310
  269MOL0     H35460   2.186   5.976   9.048 -0.5204  0.5378  0.2084
  269MOL0     H35461   2.461   6.055   8.853 -2.5781 -0.5041 -2.3192
  269MOL0     H35462   2.397   6.230   8.626 -0.7440  1.3571  0.0494
  269MOL0     H35463   2.558   6.246   8.693 -0.7666  0.5857 -7.2811
  269MOL0     H35464   2.353   6.466   8.689 -1.1685 -0.3733 -2.2643
  269MOL0     H35465   2.483   6.439   8.567  0.9172  1.3271  0.2646
  269MOL0     H35466   2.560   6.605   8.700 -3.4649 -0.6680 -1.5823
  269MOL0     H35467   2.539   6.530   8.856 -1.2873  0.4610 -0.9029
  269MOL0     H35468   2.775   6.544   8.750 -0.7630  1.4416  0.2956
  269MOL0     H35469   2.712   6.414   8.634 -1.3674 -1.9190  0.9132
  269MOL0     H35470   2.835   6.599   8.947  0.2885 -0.5057 -0.2802
  269MOL0     H35471   2.844   6.651   9.186  3.2975 -0.8829  1.3889
  269MOL0     H35472   3.066   6.525   9.583  2.4357 -1.0080  2.6965
  269MOL0     H35473   3.081   6.559   9.821 -1.4091  1.6525  0.8909
  269MOL0     H35474   3.014   6.230  10.078 -1.5952 -0.5907  1.0422
  269MOL0     H35475   2.853   6.289  10.116  0.5888 -0.4395  2.6678
  269MOL0     H35476   2.990   6.471  10.249  0.4538  0.0718  2.9732
  269MOL0     H35477   3.129   6.371  10.237 -0.0659 -1.2022 -2.2711
  269MOL0     H35478   3.038   6.199  10.368  1.1619  0.2027  0.2202
  269MOL0     H35479   2.870   6.228  10.319  0.0608 -1.8278  2.5160
  269MOL0     H35480   3.041   6.405  10.508  0.0433  0.3694  0.4167
  269MOL0     H35481   2.903   6.474  10.439  0.4075  1.4521  3.5066
  269MOL0     H35482   2.854   6.204  10.575  0.7290 -1.0963 -1.0993
  269MOL0     H35483   2.752   6.360  10.558  2.1728  5.4670  2.1933
  269MOL0     H35484   2.883   6.473  10.699  0.9285 -0.8084  1.0591
  269MOL0     H35485   2.978   6.347  10.753 -0.1910 -0.2786  1.0618
  269MOL0     H35486   2.756   6.377  10.887  0.4339  1.1720  0.6106
  269MOL0     H35487   2.672   6.326  10.745  2.7948  2.0451 -4.4585
  269MOL0     H35488   2.762   6.090  10.769 -1.3031 -1.9535  1.9991
  269MOL0     H35489   2.683   6.154  10.915 -0.3019  2.9476 -0.3199
  269MOL0     H35490   2.816   6.220   9.885 -0.9589  1.3870  0.1565
  269MOL0     H35491   2.774   6.220   9.650  0.2138 -1.1144  1.4813
  269MOL0     H35492   2.760   6.239   9.270 -1.2093 -0.7766 -1.0723
  269MOL0     H35493   2.729   6.187   9.049  0.3431 -0.4549 -1.1370
  269MOL0     H35494   1.681   5.291   9.614  0.0024  0.5316 -0.0750
  269MOL0     H35495   1.444   5.306   9.636  0.1385  0.6589 -1.2379
  269MOL0     H35496   0.989   5.210   9.717  0.0168 -1.1422  0.7156
  269MOL0     H35497   0.759   5.247   9.736  0.2792  0.3400 -2.8441
  269MOL0     H35498   0.556   5.647   9.809 -0.5771  0.3291  0.3194
  269MOL0     H35499   0.630   5.634   9.976  1.9953 -0.3637  0.0741
  269MOL0     H35500   0.448   5.497  10.050 -0.2616 -2.3235  0.0290
  269MOL0     H35501   0.379   5.646   9.981 -2.5356  0.7232 -2.2224
  269MOL0     H35502   0.403   5.397   9.807 -0.7300  0.7782 -0.7240
  269MOL0     H35503   0.313   5.546   9.796 -1.5388 -0.1124  0.7233
  269MOL0     H35504   0.255   5.353  10.029  0.4742 -0.9559 -1.2928
  269MOL0     H35505   0.153   5.493   9.983  0.4059  0.6417 -2.9967
  269MOL0     H35506   0.040   5.166   9.756  0.6641  0.3476 -1.2266
  269MOL0     H35507   0.828   5.655   9.848 -2.8030 -1.3525 -0.3184
  269MOL0     H35508   1.073   5.611   9.836  0.8356 -0.2775 -1.4050
  270MOL0     O35509   9.497   8.572   4.007  0.3331  0.3671 -0.7069
  270MOL0     C35510   9.530   8.664   3.938 -0.0817 -1.3008  0.7804
  270MOL0     O35511   9.448   8.723   3.839 -0.5329  0.1764  0.5139
  270MOL0     C35512   9.318   8.675   3.840  0.1056 -1.3492  0.2109
  270MOL0     C35513   9.274   8.622   3.718 -0.1253  0.2513  1.0409
  270MOL0     C35514   9.146   8.573   3.697  0.1348 -1.6391 -0.5900
  270MOL0     C35515   9.052   8.576   3.806 -0.3954 -0.5500  0.5171
  270MOL0     O35516   8.920   8.536   3.798  1.0578 -0.3578  0.2106
  270MOL0     C35517   8.852   8.547   3.669 -0.0625 -1.3419 -0.7787
  270MOL0     C35518   8.702   8.537   3.693 -0.3264  0.7228  0.5841
  270MOL0     C35519   8.628   8.668   3.739  0.0587  0.5577  0.9894
  270MOL0     C35520   8.586   8.760   3.624  0.3647  0.0815 -0.4188
  270MOL0     C35521   8.511   8.880   3.670  0.4566  0.7238  0.3194
  270MOL0     C35522   8.381   8.845   3.738  0.3182 -0.0040  0.1207
  270MOL0     C35523   8.281   8.962   3.729  0.3371 -0.1441  0.2689
  270MOL0     C35524   8.313   9.086   3.807  0.1143 -0.5450  0.4758
  270MOL0     N35525   8.191   9.163   3.848 -0.7115 -0.0321 -0.5728
  270MOL0     C35526   8.172   9.213   3.984 -0.1989 -0.2399  0.6695
  270MOL0     C35527   8.048   9.257   3.981  0.1008 -0.0686  0.4645
  270MOL0     C35528   7.974   9.323   4.101  0.5145 -0.2856  0.7079
  270MOL0     C35529   7.844   9.262   4.154  1.0008 -0.1375  0.4641
  270MOL0     C35530   7.728   9.239   4.049 -0.3153  0.3021  0.3761
  270MOL0     C35531   7.705   9.346   3.956 -0.1504 -0.5972  0.5116
  270MOL0     O35532   7.667   9.463   4.029  0.7676 -0.1221 -0.1333
  270MOL0     C35533   7.540   9.510   4.043  0.0082  0.6824  0.0708
  270MOL0     C35534   7.432   9.482   3.955  0.7482 -1.4131  0.0572
  270MOL0     C35535   7.329   9.581   3.949  0.2510  0.4682 -0.0867
  270MOL0     C35536   7.309   9.691   4.035  0.5648 -0.9915  0.4979
  270MOL0     C35537   7.197   9.785   4.027  0.1528  0.9523  0.6362
  270MOL0     O35538   7.196   9.872   4.131 -0.1865  0.2462 -0.5823
  270MOL0     C35539   7.092   9.955   4.168  0.2155 -0.1053 -0.0463
  270MOL0     C35540   7.113  10.011   4.292  0.1024  0.0729  0.0973
  270MOL0     C35541   7.012  10.094   4.341 -0.5087  0.0837  0.3107
  270MOL0     C35542   6.882  10.117   4.279 -0.2376  0.5919 -0.4096
  270MOL0     O35543   6.801  10.207   4.336 -0.7064 -0.3225 -0.0138
  270MOL0     C35544   6.675  10.238   4.271 -0.3537 -0.1992 -0.1392
  270MOL0     C35545   6.600  10.363   4.333 -0.5470 -0.1512  0.4281
  270MOL0     C35546   6.450  10.341   4.340 -0.2611 -0.0533 -0.1016
  270MOL0     C35547   6.385  10.462   4.405  0.7678  0.4361  0.0571
  270MOL0     C35548   6.234  10.461   4.415 -0.3467  0.3112  0.2465
  270MOL0     C35549   6.192  10.581   4.503  0.0384 -0.1554 -0.1129
  270MOL0     C35550   6.041  10.582   4.509  0.2474  1.2556 -0.8148
  270MOL0     C35551   5.976  10.656   4.387 -0.0992  0.3673  0.6677
  270MOL0    Cl35552   5.798  10.637   4.381 -0.0748 -0.2607  0.4844
  270MOL0     C35553   6.871  10.056   4.156  0.8606  0.3087 -0.2740
  270MOL0     C35554   6.972   9.969   4.100  0.3324  0.0876 -0.5273
  270MOL0     O35555   7.116   9.781   3.932  0.8741 -0.7036 -1.0435
  270MOL0     C35556   7.413   9.698   4.138 -0.0688 -0.2858  1.1443
  270MOL0     C35557   7.520   9.613   4.136 -0.5977 -0.7135 -0.4007
  270MOL0     N35558   7.999   9.249   3.848  0.8785 -0.1879 -0.6501
  270MOL0     N35559   8.088   9.196   3.777 -0.4905  0.1087 -0.0605
  270MOL0     C35560   9.089   8.637   3.927  0.9478  0.1299 -0.0776
  270MOL0     C35561   9.214   8.693   3.937 -0.4007  0.6805 -0.2091
  270MOL0     C35562   9.672   8.708   3.952  0.2103 -0.3413 -0.4781
  270MOL0     C35563   9.743   8.675   4.069  0.3259 -0.4742 -0.7065
  270MOL0     C35564   9.878   8.712   4.082 -0.3738  0.7489 -0.2867
  270MOL0     C35565   9.941   8.793   3.981  0.2575 -0.5029 -0.4069
  270MOL0     O35566  10.072   8.821   4.008  0.3434  0.3206  0.2035
  270MOL0     C35567  10.135   8.939   3.955  0.4154 -0.4208 -0.0694
  270MOL0     C35568  10.282   8.933   3.988  0.2470 -0.3254 -0.2558
  270MOL0     C35569  10.360   8.865   3.874  0.1717 -0.8260  0.3861
  270MOL0     C35570  10.497   8.808   3.909 -0.2377 -0.0282  0.7541
  270MOL0     C35571  10.539   8.700   3.821  0.4963  0.1264  0.6792
  270MOL0     C35572  10.561   8.614   3.738 -0.4431  0.1600 -0.6269
  270MOL0     C35573   9.866   8.839   3.877 -0.4189 -0.0106  0.1940
  270MOL0     C35574   9.728   8.800   3.860  0.6253 -0.9295 -0.2629
  270MOL0     H35575   9.344   8.612   3.636  1.0743  0.7126  1.9805
  270MOL0     H35576   9.121   8.515   3.609 -0.2983 -3.3170  0.5824
  270MOL0     H35577   8.894   8.461   3.616  0.6446 -1.6237  0.2106
  270MOL0     H35578   8.887   8.644   3.630 -1.1054  0.9851  3.4363
  270MOL0     H35579   8.688   8.456   3.766 -1.9241 -0.4591 -0.9383
  270MOL0     H35580   8.642   8.506   3.606 -1.5492 -0.0169  1.6468
  270MOL0     H35581   8.681   8.724   3.816  0.4206 -0.1200  1.2457
  270MOL0     H35582   8.538   8.634   3.792  0.2637 -1.8805 -0.0657
  270MOL0     H35583   8.674   8.785   3.564 -0.2347  2.5952 -0.3288
  270MOL0     H35584   8.514   8.702   3.566  0.4242 -1.4038  0.9076
  270MOL0     H35585   8.477   8.933   3.581 -0.8576 -0.2145  0.2310
  270MOL0     H35586   8.571   8.949   3.730  1.6444  0.5331 -0.6243
  270MOL0     H35587   8.388   8.807   3.840  0.7159 -1.3648 -0.3955
  270MOL0     H35588   8.325   8.772   3.678 -2.7208  1.8119  0.5242
  270MOL0     H35589   8.262   8.998   3.627 -0.5795  0.4281  0.6343
  270MOL0     H35590   8.188   8.914   3.759 -0.4956  0.8751 -0.6091
  270MOL0     H35591   8.381   9.157   3.759 -0.5808 -1.3065 -1.7779
  270MOL0     H35592   8.366   9.063   3.899 -1.1332 -1.1271  1.0708
  270MOL0     H35593   8.228   9.215   4.078  1.6131 -0.2639 -0.3582
  270MOL0     H35594   7.950   9.422   4.061 -0.7366 -1.1610 -0.8398
  270MOL0     H35595   8.047   9.326   4.182 -0.6721  0.5927  1.7839
  270MOL0     H35596   7.803   9.330   4.229  0.4780 -1.4935  1.4590
  270MOL0     H35597   7.871   9.165   4.198  1.0883  0.9354  2.9783
  270MOL0     H35598   7.730   9.145   3.993 -1.3011  0.2922  0.3379
  270MOL0     H35599   7.637   9.225   4.107  0.6531 -0.1434  1.8374
  270MOL0     H35600   7.628   9.310   3.887  0.2945 -2.3700  0.8966
  270MOL0     H35601   7.795   9.370   3.899  0.3608 -1.1841  1.0599
  270MOL0     H35602   7.428   9.405   3.879  1.4570 -1.4923  0.0954
  270MOL0     H35603   7.249   9.567   3.876 -1.5297 -0.1396  1.8898
  270MOL0     H35604   7.202   9.998   4.353  1.6601 -1.4792 -2.3345
  270MOL0     H35605   7.027  10.146   4.434  2.7744 -2.6681  1.5626
  270MOL0     H35606   6.608  10.152   4.276  1.8051 -1.9769 -0.6575
  270MOL0     H35607   6.707  10.246   4.167  2.6731 -1.0848  0.6442
  270MOL0     H35608   6.627  10.451   4.273 -0.6243 -1.4652 -1.6187
  270MOL0     H35609   6.641  10.379   4.433 -0.7039  0.3931  0.4088
  270MOL0     H35610   6.428  10.254   4.403  0.0570  1.3020  2.0192
  270MOL0     H35611   6.417  10.345   4.236 -1.6901  2.9155  0.3530
  270MOL0     H35612   6.434  10.481   4.501  0.0718  2.6970  0.0129
  270MOL0     H35613   6.398  10.556   4.353 -1.6298  0.6211 -0.3220
  270MOL0     H35614   6.197  10.368   4.458 -0.4757  0.9118  1.4646
  270MOL0     H35615   6.190  10.459   4.315 -3.8538  2.9190  1.5355
  270MOL0     H35616   6.218  10.673   4.451 -0.8884  1.6974  2.5047
  270MOL0     H35617   6.246  10.589   4.598  0.1882 -1.5093 -0.0545
  270MOL0     H35618   6.008  10.478   4.518  2.6827  0.4453 -0.5729
  270MOL0     H35619   6.014  10.635   4.601  0.4949  0.9894 -0.5898
  270MOL0     H35620   6.011  10.614   4.292 -2.7202  0.6479 -0.5299
  270MOL0     H35621   6.011  10.760   4.395  3.2558 -0.5825 -0.0363
  270MOL0     H35622   6.785  10.077   4.092 -0.6925 -1.3532  1.1511
  270MOL0     H35623   6.956   9.934   3.999 -2.2421  0.9296 -0.4811
  270MOL0     H35624   7.421   9.785   4.203 -0.4748  0.3321  0.3972
  270MOL0     H35625   7.612   9.621   4.192  0.4291 -4.4032 -1.2533
  270MOL0     H35626   9.029   8.629   4.017  2.7026 -0.2925  1.1033
  270MOL0     H35627   9.235   8.727   4.038 -2.8761  0.0130  0.6209
  270MOL0     H35628   9.690   8.603   4.129 -1.7361  0.1577 -1.6900
  270MOL0     H35629   9.934   8.686   4.172 -4.4030  2.4280  3.0568
  270MOL0     H35630  10.089   9.018   4.016  1.6150 -1.2743  2.0461
  270MOL0     H35631  10.112   8.955   3.850 -1.3222  1.7024  0.5659
  270MOL0     H35632  10.325   9.032   4.007  3.3849 -1.4894 -0.7293
  270MOL0     H35633  10.289   8.883   4.084 -1.4277  2.3938  1.4075
  270MOL0     H35634  10.354   8.946   3.800 -1.8645  0.2469  1.6281
  270MOL0     H35635  10.298   8.791   3.822  0.2169 -0.1373 -0.6954
  270MOL0     H35636  10.568   8.891   3.899 -1.3812  0.6960 -2.7552
  270MOL0     H35637  10.498   8.768   4.011 -2.6057  0.0060  0.8502
  270MOL0     H35638  10.576   8.532   3.670 -0.2528 -0.0819 -0.2973
  270MOL0     H35639   9.899   8.916   3.809 -0.8266 -0.1819 -0.2099
  270MOL0     H35640   9.666   8.848   3.784  1.5512 -0.2683 -0.6182
  271MOL0     O35641   3.951   0.634   3.212 -0.0477 -0.4958 -0.6133
  271MOL0     C35642   3.993   0.542   3.143 -0.3430 -0.0681 -0.3211
  271MOL0     O35643   3.915   0.446   3.076 -0.3126 -0.2770  0.1374
  271MOL0     C35644   3.777   0.449   3.088  0.0112  0.3948 -1.4138
  271MOL0     C35645   3.700   0.429   3.202  0.9205 -0.4375 -0.3230
  271MOL0     C35646   3.560   0.465   3.208  0.0517  0.4348  0.5711
  271MOL0     C35647   3.503   0.508   3.084  0.5617 -0.5417 -0.3811
  271MOL0     O35648   3.369   0.548   3.100  0.6033  0.1186 -0.1370
  271MOL0     C35649   3.305   0.604   2.987  0.4356  0.0527 -0.5542
  271MOL0     C35650   3.146   0.595   3.013 -0.1476 -0.0133  0.8301
  271MOL0     C35651   3.069   0.678   2.911  0.3002 -1.1024  0.2238
  271MOL0     C35652   2.925   0.679   2.948 -0.0687  0.4926  0.7710
  271MOL0     C35653   2.857   0.777   2.857  0.7832 -0.2741 -0.3703
  271MOL0     C35654   2.718   0.729   2.817  0.2459 -0.7566  0.3926
  271MOL0     C35655   2.623   0.698   2.938 -0.9011  0.1051 -0.5943
  271MOL0     C35656   2.483   0.660   2.897  0.7981 -1.2263  0.2250
  271MOL0     N35657   2.418   0.777   2.835 -0.5948  0.2802  0.0429
  271MOL0     C35658   2.340   0.764   2.722  0.1427 -0.8372  0.5581
  271MOL0     C35659   2.297   0.893   2.702 -0.4349  0.4919  0.3631
  271MOL0     C35660   2.220   0.915   2.572  0.1600 -0.4170  0.1002
  271MOL0     C35661   2.089   0.981   2.599 -0.1627 -0.7169 -0.3823
  271MOL0     C35662   1.997   0.871   2.654  0.0639  0.0336 -0.1005
  271MOL0     C35663   1.843   0.905   2.657 -0.6483 -0.4843 -0.6186
  271MOL0     O35664   1.786   0.868   2.536  0.0740  0.0245  0.2008
  271MOL0     C35665   1.653   0.865   2.515 -0.9178  0.8544 -0.1070
  271MOL0     C35666   1.611   0.864   2.388  0.4791  0.1681  0.1209
  271MOL0     C35667   1.476   0.850   2.357  0.5423 -0.3107 -0.2747
  271MOL0     C35668   1.377   0.836   2.446 -0.9890 -0.3179 -0.7639
  271MOL0     C35669   1.237   0.814   2.411  0.4358 -0.8719  0.6655
  271MOL0     O35670   1.159   0.764   2.504  0.6755  0.3738  0.2116
  271MOL0     C35671   1.021   0.780   2.488 -0.1106  0.2044  0.3167
  271MOL0     C35672   0.966   0.864   2.578  0.0297 -0.7274 -0.3427
  271MOL0     C35673   0.833   0.862   2.589  0.4173  0.0360 -0.3634
  271MOL0     C35674   0.748   0.785   2.504  0.2069  0.4253 -0.7188
  271MOL0     O35675   0.603   0.795   2.511  0.2813 -0.8173 -0.5334
  271MOL0     C35676   0.516   0.688   2.464 -0.0862 -0.3964  0.6949
  271MOL0     C35677   0.503   0.569   2.568 -0.1020 -0.6004 -0.0786
  271MOL0     C35678   0.444   0.442   2.506  0.5140 -0.3499  0.6392
  271MOL0     C35679   0.540   0.386   2.402 -0.4535  0.0379  0.1421
  271MOL0     C35680   0.473   0.248   2.368  0.7005 -0.4541 -0.1437
  271MOL0     C35681   0.545   0.172   2.261 -0.2472  0.2638  0.4453
  271MOL0     C35682   0.488   0.032   2.247 -0.2981 -0.2693 -0.6692
  271MOL0     C35683   0.542  -0.051   2.125 -0.2293  0.5526  1.0649
  271MOL0    Cl35684   0.724  -0.083   2.140  0.2350 -0.5647 -0.6766
  271MOL0     C35685   0.807   0.704   2.406 -0.2729 -1.0154  1.2755
  271MOL0     C35686   0.949   0.705   2.398 -0.1564 -0.4557  0.2855
  271MOL0     O35687   1.198   0.838   2.294  0.1622 -0.5818 -0.1771
  271MOL0     C35688   1.420   0.831   2.582  0.8241  0.3450 -0.7997
  271MOL0     C35689   1.560   0.849   2.616  1.2277 -0.0150  1.2541
  271MOL0     N35690   2.346   0.984   2.797 -0.0737  0.0872  0.1868
  271MOL0     N35691   2.415   0.914   2.880 -0.4844  0.5677 -0.0063
  271MOL0     C35692   3.585   0.521   2.969 -0.0425 -0.6296  0.1484
  271MOL0     C35693   3.723   0.507   2.982  0.5851 -0.3550  0.1633
  271MOL0     C35694   4.140   0.536   3.125  0.4352 -0.3704  1.1462
  271MOL0     C35695   4.228   0.643   3.148  0.1884  0.4778  0.7308
  271MOL0     C35696   4.360   0.642   3.113 -0.1476 -0.3437 -0.2643
  271MOL0     C35697   4.416   0.530   3.056 -0.3354  0.6521 -0.8384
  271MOL0     O35698   4.559   0.513   3.034  0.3926 -0.8946  0.3100
  271MOL0     C35699   4.617   0.440   3.137 -0.4850 -0.0200 -0.5182
  271MOL0     C35700   4.763   0.420   3.117  0.3057  0.3815 -0.0438
  271MOL0     C35701   4.770   0.317   3.005  0.6001  0.8056 -1.2035
  271MOL0     C35702   4.915   0.278   2.975  0.3391  0.8410  0.6897
  271MOL0     C35703   4.998   0.382   2.910 -0.3416  0.1723  0.7065
  271MOL0     C35704   5.062   0.459   2.840 -0.1206  0.0400  0.1423
  271MOL0     C35705   4.326   0.427   3.021  0.0976  0.1555  0.8516
  271MOL0     C35706   4.193   0.419   3.058 -0.1203 -0.1754 -0.1497
  271MOL0     H35707   3.736   0.397   3.300  3.0064 -0.5120 -1.0557
  271MOL0     H35708   3.501   0.471   3.299  0.1075  0.7638  0.5863
  271MOL0     H35709   3.324   0.543   2.899 -0.0649  0.2032 -0.7689
  271MOL0     H35710   3.355   0.701   2.974  1.9873 -0.4681  1.0710
  271MOL0     H35711   3.117   0.630   3.112 -0.0195 -1.0600  1.2409
  271MOL0     H35712   3.116   0.491   3.000 -4.1478  1.2955 -3.3770
  271MOL0     H35713   3.093   0.631   2.815  2.8365 -0.7822  0.6450
  271MOL0     H35714   3.103   0.779   2.933 -1.5719 -0.4938  0.5340
  271MOL0     H35715   2.889   0.578   2.928 -4.5196  1.3557  3.1618
  271MOL0     H35716   2.902   0.696   3.053 -1.4834 -2.5340  1.0453
  271MOL0     H35717   2.903   0.799   2.760 -0.3854 -0.3069 -0.9467
  271MOL0     H35718   2.851   0.876   2.902  0.3110 -0.5958  0.2815
  271MOL0     H35719   2.717   0.636   2.760  0.2223 -1.0814  0.9141
  271MOL0     H35720   2.660   0.809   2.769 -2.8514 -3.1515 -0.1302
  271MOL0     H35721   2.669   0.615   2.992 -4.2703 -2.1683 -0.9281
  271MOL0     H35722   2.630   0.784   3.004 -0.2114 -0.2464 -0.2038
  271MOL0     H35723   2.423   0.626   2.982  0.6801  0.1502  0.7236
  271MOL0     H35724   2.487   0.574   2.829 -1.6620 -1.0640 -0.2147
  271MOL0     H35725   2.317   0.681   2.657 -1.4523 -2.2306  2.7590
  271MOL0     H35726   2.208   0.828   2.507  0.2242  0.1902 -0.7456
  271MOL0     H35727   2.281   0.985   2.515  0.9068 -2.5056 -1.8381
  271MOL0     H35728   2.052   1.027   2.507 -1.4127  2.9744  1.7612
  271MOL0     H35729   2.114   1.066   2.663  0.2146  0.7678 -2.4018
  271MOL0     H35730   2.017   0.773   2.610  3.7351  0.7637 -0.3611
  271MOL0     H35731   2.035   0.861   2.756 -1.8685 -2.9585  0.4618
  271MOL0     H35732   1.839   1.013   2.668  4.3563 -0.1746  0.8713
  271MOL0     H35733   1.809   0.842   2.739  2.3724 -4.0634 -1.7914
  271MOL0     H35734   1.682   0.873   2.306 -0.2283 -2.3174 -0.8516
  271MOL0     H35735   1.450   0.836   2.252 -1.4676  0.5927  0.0457
  271MOL0     H35736   1.013   0.932   2.648 -2.1733  1.4805 -0.8731
  271MOL0     H35737   0.792   0.914   2.675 -4.0587 -0.3743 -2.0162
  271MOL0     H35738   0.561   0.651   2.370  1.1961  0.2997  1.0153
  271MOL0     H35739   0.419   0.725   2.432  1.5748  2.5363 -1.4480
  271MOL0     H35740   0.443   0.604   2.652 -0.2627 -1.3842  0.1484
  271MOL0     H35741   0.602   0.544   2.607 -0.6412 -0.1794  1.6608
  271MOL0     H35742   0.345   0.455   2.460  0.4298 -0.2780  0.8414
  271MOL0     H35743   0.432   0.366   2.582  0.4324  2.4885  3.6902
  271MOL0     H35744   0.558   0.450   2.315 -2.9641  2.3326  1.1316
  271MOL0     H35745   0.633   0.367   2.455  0.7252 -2.2900 -2.4943
  271MOL0     H35746   0.374   0.269   2.328  0.7147  0.9033  0.4675
  271MOL0     H35747   0.461   0.184   2.456 -0.3853 -1.9780 -1.3584
  271MOL0     H35748   0.652   0.160   2.282 -0.4440 -1.0433  0.8142
  271MOL0     H35749   0.542   0.222   2.164 -0.0968 -2.8181 -1.2961
  271MOL0     H35750   0.506  -0.037   2.330 -0.1751 -0.2044 -0.6415
  271MOL0     H35751   0.379   0.029   2.249 -0.3244 -0.9742  2.6303
  271MOL0     H35752   0.534   0.016   2.039 -0.0399  1.4887  1.7582
  271MOL0     H35753   0.486  -0.144   2.111  3.5279 -1.6541 -1.0192
  271MOL0     H35754   0.760   0.629   2.343  0.4890 -0.5175  0.0701
  271MOL0     H35755   1.002   0.639   2.329  3.1385  0.6912  1.5158
  271MOL0     H35756   1.354   0.795   2.660 -0.8748  0.9355 -1.9082
  271MOL0     H35757   1.584   0.838   2.722  3.0967 -2.9068  0.6413
  271MOL0     H35758   3.545   0.550   2.872  1.9995 -2.5998 -1.3974
  271MOL0     H35759   3.785   0.517   2.893 -2.0584 -1.7556 -2.0050
  271MOL0     H35760   4.180   0.736   3.177  0.8552  2.0828 -2.7936
  271MOL0     H35761   4.422   0.728   3.136  0.4906 -0.7858 -0.3056
  271MOL0     H35762   4.569   0.345   3.163  1.9430 -0.5773  2.4563
  271MOL0     H35763   4.590   0.499   3.225 -3.9630  0.5336 -1.8002
  271MOL0     H35764   4.814   0.515   3.101 -1.2560  1.5426  1.5986
  271MOL0     H35765   4.799   0.382   3.213 -1.3368 -0.5619  0.2492
  271MOL0     H35766   4.718   0.349   2.915 -4.5024 -1.9727  0.3677
  271MOL0     H35767   4.708   0.233   3.038  1.8545  1.0322  2.1119
  271MOL0     H35768   4.976   0.251   3.062  1.9864 -0.2556 -0.7437
  271MOL0     H35769   4.908   0.182   2.923  1.7236  0.8876  0.3748
  271MOL0     H35770   5.110   0.532   2.778 -0.8531 -0.3678 -0.9380
  271MOL0     H35771   4.379   0.346   2.972 -0.6700 -1.5543  2.7374
  271MOL0     H35772   4.139   0.328   3.030  0.1159 -0.5977  0.7280
  272MOL0     O35773  11.001   2.983   8.817  0.1103 -0.8580 -0.7519
  272MOL0     C35774  11.101   3.014   8.879 -0.0737  0.6919  0.1679
  272MOL0     O35775  11.113   3.043   9.021 -0.3214 -0.4517  0.3950
  272MOL0     C35776  10.995   3.032   9.090  0.2772 -0.1269 -0.0117
  272MOL0     C35777  10.937   2.914   9.138 -0.1246 -0.0103  0.5942
  272MOL0     C35778  10.818   2.919   9.214 -0.4815  0.1172  0.6975
  272MOL0     C35779  10.755   3.037   9.253  0.1541  0.0745  0.3818
  272MOL0     O35780  10.654   3.034   9.342  0.5570 -0.1983 -0.5015
  272MOL0     C35781  10.565   3.143   9.314 -0.1571  0.0200 -0.5651
  272MOL0     C35782  10.425   3.124   9.381 -0.4302  0.1672 -0.3244
  272MOL0     C35783  10.350   3.008   9.307  0.1525  0.0358  0.0085
  272MOL0     C35784  10.205   3.014   9.341  1.4461  0.0019  0.2567
  272MOL0     C35785  10.130   2.903   9.265  0.1359 -0.2934 -0.1365
  272MOL0     C35786   9.980   2.916   9.280  0.4950  0.4421 -0.5336
  272MOL0     C35787   9.893   2.786   9.269  0.6972 -0.2413  0.9475
  272MOL0     C35788   9.894   2.737   9.122  0.6226  0.7608 -0.2356
  272MOL0     N35789   9.808   2.626   9.090 -0.7244 -0.2312 -0.0215
  272MOL0     C35790   9.666   2.630   9.099  0.7469 -0.0009 -0.2720
  272MOL0     C35791   9.627   2.507   9.065 -0.6975 -0.6159  0.7580
  272MOL0     C35792   9.489   2.449   9.060  0.0677  0.3436 -0.5114
  272MOL0     C35793   9.386   2.543   8.998  0.0591 -0.3197  1.6212
  272MOL0     C35794   9.234   2.512   9.019 -0.1532  0.3926 -0.6672
  272MOL0     C35795   9.191   2.548   9.163 -0.2613 -0.8207  0.9863
  272MOL0     O35796   9.184   2.690   9.187 -0.1412 -0.3194  0.4167
  272MOL0     C35797   9.068   2.763   9.161 -0.4324 -0.4069 -0.2611
  272MOL0     C35798   9.078   2.900   9.192  0.0632  0.2058 -0.3795
  272MOL0     C35799   8.975   2.984   9.170  0.1661 -0.8510 -0.0933
  272MOL0     C35800   8.855   2.931   9.112  0.2065 -0.9416  0.5141
  272MOL0     C35801   8.736   3.011   9.086 -0.3759 -0.4401 -0.2741
  272MOL0     O35802   8.745   3.139   9.045 -0.1120 -0.2908  0.5958
  272MOL0     C35803   8.642   3.227   9.075  0.3605  0.4759 -0.5765
  272MOL0     C35804   8.507   3.208   9.052  0.5042 -0.2927 -0.2664
  272MOL0     C35805   8.400   3.287   9.096  0.8176 -0.3762 -0.4838
  272MOL0     C35806   8.429   3.392   9.184  0.9359 -0.2483  0.0296
  272MOL0     O35807   8.318   3.467   9.234 -0.3696  0.0871  0.4136
  272MOL0     C35808   8.212   3.505   9.143 -0.8854  0.8421 -0.0353
  272MOL0     C35809   8.246   3.614   9.054 -0.8931  1.7132  0.0656
  272MOL0     C35810   8.163   3.635   8.929  0.8367  0.1369  0.4890
  272MOL0     C35811   8.138   3.517   8.820 -0.7733 -0.7454 -0.2468
  272MOL0     C35812   8.271   3.461   8.757  0.2639 -0.1413  0.6397
  272MOL0     C35813   8.331   3.560   8.659 -0.4597  0.3294 -0.0795
  272MOL0     C35814   8.420   3.477   8.560 -0.2999 -0.7103 -0.2590
  272MOL0     C35815   8.533   3.565   8.490 -0.0910  0.1838  0.3380
  272MOL0    Cl35816   8.566   3.480   8.336 -0.3239 -0.1503 -0.2864
  272MOL0     C35817   8.562   3.425   9.201  0.4505 -0.9682 -0.1707
  272MOL0     C35818   8.670   3.345   9.144  0.8265  0.6368 -0.5571
  272MOL0     O35819   8.634   2.956   9.109  0.4999 -0.2265  0.5961
  272MOL0     C35820   8.846   2.795   9.089 -0.4697  0.1366  0.5254
  272MOL0     C35821   8.952   2.712   9.106 -0.1738  0.2916 -0.1999
  272MOL0     N35822   9.746   2.440   9.024 -0.0078  0.3425  0.1644
  272MOL0     N35823   9.854   2.507   9.041 -0.0209 -0.1990 -0.0057
  272MOL0     C35824  10.823   3.150   9.214 -1.0661  0.2894 -0.8252
  272MOL0     C35825  10.937   3.147   9.133 -0.4323  0.3319 -0.3151
  272MOL0     C35826  11.221   3.029   8.787 -0.0718 -0.7382  0.0080
  272MOL0     C35827  11.352   3.047   8.835 -1.0624  0.6654 -1.1795
  272MOL0     C35828  11.459   3.084   8.753  0.1967 -0.3009 -0.7217
  272MOL0     C35829  11.447   3.104   8.621 -0.3348 -0.0252  0.8807
  272MOL0     O35830  11.533   3.166   8.526  0.4793  0.9283 -0.2209
  272MOL0     C35831  11.650   3.228   8.573 -0.9307  0.0715 -0.0684
  272MOL0     C35832  11.617   3.349   8.660  0.1975  0.2665 -0.0935
  272MOL0     C35833  11.744   3.434   8.689 -0.2498  0.6179  0.4046
  272MOL0     C35834  11.726   3.568   8.762  0.5489 -0.2858 -0.2544
  272MOL0     C35835  11.668   3.568   8.897 -0.0934  0.0917 -0.1107
  272MOL0     C35836  11.601   3.564   9.003  0.1186  0.0130  0.4278
  272MOL0     C35837  11.319   3.085   8.569  0.2403  0.4886  0.1102
  272MOL0     C35838  11.213   3.038   8.648  0.3941 -0.4133  0.4896
  272MOL0     H35839  10.994   2.823   9.118 -0.9262 -0.1317 -1.3151
  272MOL0     H35840  10.780   2.823   9.247 -0.3195 -0.5753 -1.0098
  272MOL0     H35841  10.540   3.166   9.210  0.1348  2.2760 -0.1707
  272MOL0     H35842  10.605   3.233   9.362  0.4471 -0.5124 -0.0475
  272MOL0     H35843  10.381   3.224   9.375  0.2847  0.4979 -0.1680
  272MOL0     H35844  10.446   3.114   9.488  0.9758  1.9264 -0.3771
  272MOL0     H35845  10.391   2.915   9.349  0.1465  0.6122  1.3564
  272MOL0     H35846  10.355   3.010   9.198  1.8887 -0.4173  0.0392
  272MOL0     H35847  10.193   2.988   9.447 -0.7632  3.1972  0.9318
  272MOL0     H35848  10.155   3.111   9.342 -0.8121 -1.0028  3.2707
  272MOL0     H35849  10.171   2.810   9.307  1.0044  1.4163  3.1198
  272MOL0     H35850  10.163   2.913   9.161  3.5727  1.5225  0.9842
  272MOL0     H35851   9.940   3.001   9.224  0.4142  2.1657  1.9647
  272MOL0     H35852   9.959   2.957   9.379  0.6311  2.4245 -1.2795
  272MOL0     H35853   9.929   2.706   9.335 -0.4497 -0.5626  1.2111
  272MOL0     H35854   9.789   2.809   9.294  0.4208 -0.8524  0.3944
  272MOL0     H35855   9.994   2.704   9.096 -0.2091 -0.1484 -2.4566
  272MOL0     H35856   9.871   2.823   9.058 -0.4353  1.8896  1.5497
  272MOL0     H35857   9.613   2.714   9.142  1.3063 -0.2444  0.9530
  272MOL0     H35858   9.469   2.433   9.166  3.2304  2.9658  0.6462
  272MOL0     H35859   9.493   2.356   9.002  1.6729  0.7177 -1.0383
  272MOL0     H35860   9.405   2.533   8.890 -1.0814 -1.7739  1.5131
  272MOL0     H35861   9.395   2.647   9.028 -1.5124  1.0961 -2.1681
  272MOL0     H35862   9.177   2.572   8.948  0.1604  1.0069 -0.4045
  272MOL0     H35863   9.218   2.404   9.009  0.5595  0.0271  1.4705
  272MOL0     H35864   9.263   2.513   9.238  2.8632  1.6360 -0.6001
  272MOL0     H35865   9.088   2.517   9.184 -0.3078 -0.4316  1.3590
  272MOL0     H35866   9.172   2.936   9.233  2.2291 -4.5449 -0.5607
  272MOL0     H35867   8.986   3.090   9.186  0.9938 -1.1633  1.5995
  272MOL0     H35868   8.482   3.121   8.992  2.1599 -1.6450  0.8794
  272MOL0     H35869   8.300   3.253   9.071  1.2079 -0.6359 -1.7704
  272MOL0     H35870   8.120   3.518   9.200 -0.1241  0.8734  1.2237
  272MOL0     H35871   8.189   3.416   9.084 -1.0666  2.0728 -1.9143
  272MOL0     H35872   8.343   3.583   9.015 -3.0258 -1.9667 -3.1091
  272MOL0     H35873   8.247   3.710   9.106 -4.9808  1.9478  0.0349
  272MOL0     H35874   8.215   3.717   8.879  1.6408 -0.4366  0.3613
  272MOL0     H35875   8.063   3.668   8.959 -0.0120 -0.9028 -1.0333
  272MOL0     H35876   8.089   3.440   8.880  1.8444 -1.0509  1.6926
  272MOL0     H35877   8.067   3.545   8.742 -1.1241 -0.1573  0.2670
  272MOL0     H35878   8.253   3.369   8.700  4.3778 -0.2917 -0.7443
  272MOL0     H35879   8.352   3.435   8.826  2.0795 -0.7049 -1.5849
  272MOL0     H35880   8.395   3.635   8.706  1.2155  1.1412 -3.3295
  272MOL0     H35881   8.256   3.619   8.605  1.3624  3.3273  0.4159
  272MOL0     H35882   8.477   3.405   8.619 -0.4672  0.8567  1.9345
  272MOL0     H35883   8.359   3.434   8.479 -1.2750  0.1444 -0.0109
  272MOL0     H35884   8.626   3.577   8.546  1.4821  2.1868 -2.4492
  272MOL0     H35885   8.497   3.664   8.463  0.7675  0.0769 -1.3570
  272MOL0     H35886   8.586   3.520   9.247  0.3630 -1.1098  0.1686
  272MOL0     H35887   8.775   3.365   9.155  1.2085 -0.6496 -1.5157
  272MOL0     H35888   8.760   2.742   9.050  3.1143 -2.8323 -4.5199
  272MOL0     H35889   8.946   2.606   9.084  1.3727  0.2033 -0.3351
  272MOL0     H35890  10.781   3.245   9.245 -0.4119  1.1516 -2.4673
  272MOL0     H35891  10.983   3.238   9.095 -0.2791  0.7417  0.8202
  272MOL0     H35892  11.368   3.043   8.943  4.1617  3.9775 -1.5210
  272MOL0     H35893  11.559   3.098   8.793  0.5092  0.1400 -1.6327
  272MOL0     H35894  11.717   3.244   8.488 -0.2992 -1.6337  0.0741
  272MOL0     H35895  11.699   3.163   8.646 -1.3652  2.0885  2.1382
  272MOL0     H35896  11.539   3.410   8.613 -0.9635 -1.2403 -0.2041
  272MOL0     H35897  11.581   3.309   8.755  4.5604 -2.8841  0.5454
  272MOL0     H35898  11.783   3.457   8.589 -2.8112 -0.1532 -0.8457
  272MOL0     H35899  11.808   3.371   8.751 -1.1600  0.0115  0.7408
  272MOL0     H35900  11.826   3.612   8.767  2.8363 -4.6477 -1.7146
  272MOL0     H35901  11.665   3.639   8.704 -2.7773 -0.0421  3.1713
  272MOL0     H35902  11.560   3.562   9.102 -0.9291 -2.4683  0.0328
  272MOL0     H35903  11.297   3.101   8.464  0.2045 -1.9957 -0.3243
  272MOL0     H35904  11.120   3.021   8.594  1.0647 -0.7835 -0.5774
  273MOL0     O35905  10.381   8.743   7.143 -0.1596 -0.2705 -0.4122
  273MOL0     C35906  10.329   8.654   7.206 -0.4481 -0.5849  0.9870
  273MOL0     O35907  10.225   8.673   7.277  1.0736 -0.0604 -0.3350
  273MOL0     C35908  10.138   8.780   7.272  0.4723 -0.3392 -0.3657
  273MOL0     C35909   9.998   8.755   7.305 -1.2102 -0.4345  0.4963
  273MOL0     C35910   9.900   8.859   7.296  0.3664  0.4128  0.4781
  273MOL0     C35911   9.936   8.985   7.240  1.2025  0.5652 -0.2985
  273MOL0     O35912   9.841   9.089   7.231  0.8951  0.4554 -0.6830
  273MOL0     C35913   9.876   9.218   7.193  0.4973  0.6981 -0.2115
  273MOL0     C35914   9.781   9.300   7.276  0.1223  0.3913  0.0559
  273MOL0     C35915   9.829   9.336   7.414 -0.7663  0.5080  0.0824
  273MOL0     C35916   9.712   9.395   7.509 -0.3612  1.2497  0.2422
  273MOL0     C35917   9.612   9.290   7.544 -0.7849  0.3170  0.5867
  273MOL0     C35918   9.500   9.352   7.630 -0.0645 -0.1615 -0.5625
  273MOL0     C35919   9.425   9.239   7.710 -0.3007 -0.5723  0.2655
  273MOL0     C35920   9.353   9.131   7.625 -0.4662 -0.1511 -0.3900
  273MOL0     N35921   9.232   9.176   7.567  0.3373 -0.8439  0.3865
  273MOL0     C35922   9.210   9.208   7.432 -0.7742 -0.5967  0.0519
  273MOL0     C35923   9.075   9.237   7.422  0.0367 -0.1051 -0.4447
  273MOL0     C35924   8.991   9.248   7.301  1.0373 -0.3305 -0.5045
  273MOL0     C35925   8.959   9.393   7.266  0.6885  0.2911  0.0702
  273MOL0     C35926   8.870   9.393   7.135 -0.3814  0.2661 -0.4510
  273MOL0     C35927   8.849   9.528   7.068  0.5403  0.6389  0.3242
  273MOL0     O35928   8.764   9.519   6.955  0.2937 -0.2808 -0.0077
  273MOL0     C35929   8.627   9.539   6.973 -0.6636  0.1941 -0.2762
  273MOL0     C35930   8.556   9.572   7.090 -0.5023  0.3823  0.0521
  273MOL0     C35931   8.414   9.571   7.088  0.0798 -0.3278  0.0344
  273MOL0     C35932   8.337   9.557   6.972 -0.9016  0.3899  0.1572
  273MOL0     C35933   8.189   9.576   6.956  0.4292 -0.5063  0.2645
  273MOL0     O35934   8.116   9.597   7.065  0.3548 -0.8409  0.0784
  273MOL0     C35935   7.981   9.593   7.069 -0.3990  0.3651  0.0536
  273MOL0     C35936   7.900   9.487   7.022  0.6358 -0.0401  0.1488
  273MOL0     C35937   7.764   9.493   7.039  0.7801  0.2653 -0.4122
  273MOL0     C35938   7.699   9.605   7.094  0.3550 -0.2685 -0.4222
  273MOL0     O35939   7.565   9.621   7.114  0.1795  0.4010 -1.0810
  273MOL0     C35940   7.478   9.525   7.060 -0.3797  1.1597  0.5994
  273MOL0     C35941   7.333   9.533   7.107  0.2445 -0.5995  0.1534
  273MOL0     C35942   7.311   9.648   7.206  0.7123  0.0167 -0.0424
  273MOL0     C35943   7.159   9.666   7.234  0.1942  0.0884 -0.7429
  273MOL0     C35944   7.124   9.759   7.355 -0.6082  1.0360  0.3577
  273MOL0     C35945   6.971   9.775   7.380  0.3341 -0.1664 -0.1330
  273MOL0     C35946   6.889   9.644   7.350  0.8682  0.0451 -0.4877
  273MOL0     C35947   6.739   9.647   7.410 -0.4977  0.4998  0.4767
  273MOL0    Cl35948   6.671   9.800   7.354  0.0440 -0.3565  0.0004
  273MOL0     C35949   7.782   9.704   7.148 -0.2716 -0.7613 -0.4012
  273MOL0     C35950   7.923   9.698   7.142  0.5862 -0.6677 -0.3539
  273MOL0     O35951   8.146   9.584   6.840 -0.5329 -0.2824 -0.2284
  273MOL0     C35952   8.410   9.524   6.869 -0.4398  0.3539 -0.6301
  273MOL0     C35953   8.547   9.519   6.863  0.5026 -0.3862  0.9316
  273MOL0     N35954   9.025   9.249   7.550 -0.6595  0.0275  0.9003
  273MOL0     N35955   9.116   9.188   7.631  0.7604 -0.0870 -0.3195
  273MOL0     C35956  10.072   9.006   7.223 -0.7864  0.0517  0.0062
  273MOL0     C35957  10.167   8.912   7.231 -0.4015  0.6053 -0.0968
  273MOL0     C35958  10.405   8.531   7.225 -0.0925 -0.2323  0.9043
  273MOL0     C35959  10.328   8.409   7.234 -0.9115  1.3439  0.0190
  273MOL0     C35960  10.395   8.290   7.265  0.3906 -0.2258 -0.2469
  273MOL0     C35961  10.535   8.292   7.298 -0.9642 -0.2891 -0.1540
  273MOL0     O35962  10.620   8.183   7.327  0.2584  0.2935 -0.0126
  273MOL0     C35963  10.542   8.069   7.364  0.3799 -0.2781  1.2510
  273MOL0     C35964  10.655   7.972   7.395  0.1328  0.1707 -0.6382
  273MOL0     C35965  10.594   7.841   7.455 -0.7031 -0.1834  0.0154
  273MOL0     C35966  10.692   7.716   7.430  0.5740  0.3954  0.2603
  273MOL0     C35967  10.648   7.630   7.320  0.3589 -0.9958  0.5603
  273MOL0     C35968  10.617   7.572   7.220 -0.6106  0.3079  0.5121
  273MOL0     C35969  10.606   8.409   7.283  0.4465  0.2441 -0.2545
  273MOL0     C35970  10.545   8.526   7.246  0.1495 -0.7951  0.8928
  273MOL0     H35971   9.960   8.657   7.331 -2.8462 -0.2940 -1.1207
  273MOL0     H35972   9.793   8.855   7.310 -0.2424  0.4407 -3.3313
  273MOL0     H35973   9.852   9.229   7.087  1.6799  1.3765 -0.4211
  273MOL0     H35974   9.977   9.254   7.213 -0.3597  2.4012  1.3242
  273MOL0     H35975   9.680   9.259   7.269  0.7147 -1.1317  0.1801
  273MOL0     H35976   9.755   9.401   7.242  1.7838  0.3077 -1.6130
  273MOL0     H35977   9.904   9.415   7.408  0.6743 -0.5278  2.6391
  273MOL0     H35978   9.870   9.242   7.453  0.5691  0.6089 -0.9799
  273MOL0     H35979   9.758   9.422   7.604 -2.0940 -0.2723  1.6111
  273MOL0     H35980   9.666   9.476   7.453  4.0972  2.4014 -2.1908
  273MOL0     H35981   9.657   9.209   7.603  2.7291  0.2368 -1.9139
  273MOL0     H35982   9.567   9.249   7.454 -0.0026 -1.4893  0.9778
  273MOL0     H35983   9.432   9.404   7.561 -0.1094  1.3451  0.5603
  273MOL0     H35984   9.529   9.435   7.694 -0.2444  0.7307 -1.5997
  273MOL0     H35985   9.506   9.199   7.773  1.6171  1.5566 -0.7080
  273MOL0     H35986   9.351   9.277   7.782  0.9777 -1.0506  1.9012
  273MOL0     H35987   9.341   9.054   7.702  1.4550  1.7575  2.0058
  273MOL0     H35988   9.422   9.088   7.551  2.4030 -0.0007  1.9909
  273MOL0     H35989   9.285   9.190   7.356 -1.1032  2.0138 -1.0123
  273MOL0     H35990   8.900   9.188   7.315  0.5687  0.2355 -1.0913
  273MOL0     H35991   9.050   9.204   7.220  0.3568 -0.6056 -0.8561
  273MOL0     H35992   9.053   9.446   7.247  0.5810 -0.5743 -3.4657
  273MOL0     H35993   8.903   9.442   7.346 -1.9665 -2.2845 -0.0602
  273MOL0     H35994   8.915   9.329   7.058 -0.2937  0.4725 -0.5739
  273MOL0     H35995   8.774   9.352   7.165  0.2529 -1.0619 -0.1363
  273MOL0     H35996   8.947   9.555   7.027 -0.4913  1.0923 -1.9889
  273MOL0     H35997   8.818   9.604   7.140  0.9215  1.7446 -0.6462
  273MOL0     H35998   8.610   9.584   7.183 -1.2561 -0.1406  0.5739
  273MOL0     H35999   8.347   9.601   7.168 -0.9374  3.2430 -1.9346
  273MOL0     H36000   7.926   9.398   6.967  0.1668  0.8954 -1.6512
  273MOL0     H36001   7.704   9.422   6.982 -0.3277 -0.6061  1.6950
  273MOL0     H36002   7.517   9.428   7.090  0.0213  0.5805 -1.5979
  273MOL0     H36003   7.482   9.510   6.951 -0.3625  0.7248  0.6605
  273MOL0     H36004   7.321   9.431   7.146  1.3883 -1.1674 -0.8898
  273MOL0     H36005   7.265   9.556   7.025 -0.1726  0.1605  0.7006
  273MOL0     H36006   7.359   9.741   7.175 -3.6068  3.0669  1.5655
  273MOL0     H36007   7.358   9.612   7.298  0.9754 -1.9965 -0.9045
  273MOL0     H36008   7.109   9.705   7.145  0.5872 -0.5955 -1.2714
  273MOL0     H36009   7.109   9.571   7.256 -0.1284 -0.1265 -2.3045
  273MOL0     H36010   7.167   9.860   7.354  1.1329  0.3399  0.7178
  273MOL0     H36011   7.167   9.716   7.446  0.4496  3.4592  1.0747
  273MOL0     H36012   6.937   9.849   7.307  5.4899  2.9558  0.1802
  273MOL0     H36013   6.960   9.811   7.483  2.6195  1.5946 -0.4266
  273MOL0     H36014   6.892   9.640   7.241 -1.5157  3.6280 -0.8622
  273MOL0     H36015   6.938   9.555   7.390  1.5712  0.2438 -0.9030
  273MOL0     H36016   6.753   9.647   7.518 -1.2036 -1.6587  0.6235
  273MOL0     H36017   6.689   9.553   7.386  1.9986 -1.2585  1.6854
  273MOL0     H36018   7.734   9.795   7.183  0.2039  0.2884 -2.3472
  273MOL0     H36019   7.981   9.778   7.188  1.7010 -0.8347 -1.4426
  273MOL0     H36020   8.357   9.508   6.775  2.3847 -1.7508 -2.0114
  273MOL0     H36021   8.600   9.503   6.770  1.5513  0.9496  1.2656
  273MOL0     H36022  10.107   9.099   7.180 -0.6412 -0.2801 -0.5970
  273MOL0     H36023  10.269   8.944   7.213 -0.2992  2.5286  2.9975
  273MOL0     H36024  10.221   8.394   7.222 -1.2330  2.4288  1.2608
  273MOL0     H36025  10.333   8.201   7.258 -1.5382  1.1767 -4.5840
  273MOL0     H36026  10.474   8.027   7.290 -2.3468  0.4117  3.2149
  273MOL0     H36027  10.481   8.084   7.454 -1.6173 -0.6278  0.0101
  273MOL0     H36028  10.694   7.943   7.297  3.0348  1.4142  0.0372
  273MOL0     H36029  10.739   8.008   7.455  0.9328  0.1494 -1.7163
  273MOL0     H36030  10.489   7.840   7.422 -1.2531  2.9251  1.3076
  273MOL0     H36031  10.592   7.853   7.564 -2.4703  0.2128 -0.0206
  273MOL0     H36032  10.785   7.765   7.401 -2.1151  4.2946 -2.8068
  273MOL0     H36033  10.699   7.648   7.516 -0.9161 -0.1127  0.0098
  273MOL0     H36034  10.602   7.497   7.145 -1.0078  0.1320  0.7664
  273MOL0     H36035  10.714   8.398   7.292  0.2863 -0.8088  0.6435
  273MOL0     H36036  10.608   8.613   7.231  1.1579 -2.0023 -3.0262
  274MOL0     O36037   2.802   2.515   5.064 -0.0145  0.0952  0.0266
  274MOL0     C36038   2.787   2.499   4.946 -0.0096  0.1435  0.8228
  274MOL0     O36039   2.666   2.523   4.881 -0.9655  0.5709 -0.3099
  274MOL0     C36040   2.568   2.588   4.952 -0.1175  0.7091 -0.0416
  274MOL0     C36041   2.439   2.568   4.902 -0.0422  0.7163  0.4216
  274MOL0     C36042   2.325   2.635   4.946  0.6013 -0.7404  0.7940
  274MOL0     C36043   2.342   2.731   5.046  0.8064 -0.1854 -0.5150
  274MOL0     O36044   2.242   2.815   5.096  0.4534  0.8124  0.1444
  274MOL0     C36045   2.120   2.743   5.126 -0.4082  0.3157 -0.1054
  274MOL0     C36046   2.044   2.827   5.231 -0.2032  0.1477 -0.2427
  274MOL0     C36047   1.896   2.798   5.239  1.0812 -0.3845  1.7430
  274MOL0     C36048   1.876   2.665   5.302  0.9115 -0.0379 -1.0860
  274MOL0     C36049   1.721   2.627   5.304 -0.0491  0.0353 -0.1336
  274MOL0     C36050   1.628   2.740   5.338  0.5732  1.0142 -0.3176
  274MOL0     C36051   1.480   2.695   5.334  0.1036  1.1185 -0.5074
  274MOL0     C36052   1.381   2.798   5.405  0.4198 -0.1178  0.1935
  274MOL0     N36053   1.243   2.743   5.411 -0.5187  0.3176  0.3385
  274MOL0     C36054   1.143   2.821   5.463 -2.0121 -0.4891 -0.3095
  274MOL0     C36055   1.028   2.749   5.441  0.4037 -0.3433 -0.8033
  274MOL0     C36056   0.891   2.803   5.477 -0.2365  0.3681 -0.5574
  274MOL0     C36057   0.796   2.673   5.468  0.2928  0.0376 -0.7723
  274MOL0     C36058   0.649   2.708   5.526 -0.4903 -0.8935 -0.8310
  274MOL0     C36059   0.576   2.800   5.422  0.2629 -0.0472 -0.6659
  274MOL0     O36060   0.458   2.852   5.493 -0.1950 -0.2993  0.0781
  274MOL0     C36061   0.336   2.859   5.429 -0.9202 -0.4785  0.7719
  274MOL0     C36062   0.246   2.960   5.461  0.3204 -0.3410 -0.7855
  274MOL0     C36063   0.105   2.946   5.438  0.5350 -0.2606  0.4748
  274MOL0     C36064   0.050   2.827   5.373  0.2169 -0.5468 -0.3896
  274MOL0     C36065  -0.094   2.806   5.368 -0.2703 -1.0817 -1.0271
  274MOL0     O36066  -0.173   2.920   5.417  0.0569  0.1931 -0.7506
  274MOL0     C36067  -0.292   2.899   5.477 -0.5395 -1.0893  0.2498
  274MOL0     C36068  -0.362   2.781   5.496 -0.2358 -0.3599 -0.0360
  274MOL0     C36069  -0.484   2.774   5.564 -0.9208  0.3088 -0.0843
  274MOL0     C36070  -0.540   2.896   5.623 -0.5939  0.2620 -0.1951
  274MOL0     O36071  -0.656   2.877   5.696  1.0242  0.4593 -0.0821
  274MOL0     C36072  -0.708   2.987   5.771  0.7247  0.5383  0.4041
  274MOL0     C36073  -0.804   2.924   5.870 -0.4365 -0.5450  0.7252
  274MOL0     C36074  -0.881   3.040   5.945  0.5895  0.0196 -0.6256
  274MOL0     C36075  -0.997   2.985   6.035  0.6534  0.0702 -0.0394
  274MOL0     C36076  -1.073   3.108   6.096 -0.0571  0.1607  0.1122
  274MOL0     C36077  -1.199   3.095   6.175  0.2042  0.2935  0.7661
  274MOL0     C36078  -1.302   3.032   6.067 -0.5406  0.1992 -0.5543
  274MOL0     C36079  -1.451   3.061   6.118  0.5806  0.0650  0.2862
  274MOL0    Cl36080  -1.482   2.986   6.279 -0.6904 -0.3537 -0.0869
  274MOL0     C36081  -0.475   3.020   5.603 -0.3375 -0.8995  0.0150
  274MOL0     C36082  -0.350   3.018   5.538 -1.0676  0.6091 -0.4214
  274MOL0     O36083  -0.136   2.692   5.333 -0.0015 -0.6682  0.8833
  274MOL0     C36084   0.151   2.737   5.327  0.3838  0.4732  1.3136
  274MOL0     C36085   0.285   2.755   5.353  0.3032 -0.5057  0.2217
  274MOL0     N36086   1.066   2.641   5.365  0.9175  0.1530  0.4743
  274MOL0     N36087   1.192   2.632   5.356  0.1157  0.1482  0.6823
  274MOL0     C36088   2.461   2.767   5.093 -0.2158  1.0160 -0.2491
  274MOL0     C36089   2.577   2.698   5.043 -0.2262 -0.4871  0.5337
  274MOL0     C36090   2.907   2.460   4.872  0.1944  0.6767  0.2791
  274MOL0     C36091   3.010   2.393   4.933  0.3342  0.1168  0.7145
  274MOL0     C36092   3.121   2.343   4.860 -0.3424 -0.5451  0.8749
  274MOL0     C36093   3.130   2.361   4.717 -0.0591 -0.0763 -0.1534
  274MOL0     O36094   3.227   2.303   4.641 -0.4217 -0.0970  0.1998
  274MOL0     C36095   3.285   2.170   4.680 -0.0963 -0.0094  0.1345
  274MOL0     C36096   3.200   2.057   4.629 -0.1646 -0.0973 -0.5800
  274MOL0     C36097   3.259   1.916   4.665 -0.4375  0.1136 -0.8343
  274MOL0     C36098   3.386   1.891   4.581  0.3907 -0.7325  0.7283
  274MOL0     C36099   3.404   1.747   4.584 -0.1518  0.0274 -0.0949
  274MOL0     C36100   3.418   1.626   4.593 -0.4757  0.1774 -0.1403
  274MOL0     C36101   3.028   2.437   4.660  0.0039 -0.8250  0.3787
  274MOL0     C36102   2.922   2.480   4.735  0.4661  0.3786 -0.3737
  274MOL0     H36103   2.420   2.492   4.827  0.0062  0.6159  0.5112
  274MOL0     H36104   2.225   2.615   4.908  0.9656 -1.0214 -0.0238
  274MOL0     H36105   2.146   2.646   5.171  6.0612  1.8665  0.4763
  274MOL0     H36106   2.059   2.725   5.038  2.4379 -0.5443 -2.0439
  274MOL0     H36107   2.045   2.931   5.198  1.6944  0.2214 -0.0503
  274MOL0     H36108   2.092   2.825   5.330 -2.2115  0.0864  0.7852
  274MOL0     H36109   1.847   2.805   5.141  0.7317 -0.8653  1.8837
  274MOL0     H36110   1.844   2.878   5.293  0.5845 -0.4752  1.4079
  274MOL0     H36111   1.926   2.593   5.237  0.6212 -1.8243  0.5791
  274MOL0     H36112   1.920   2.666   5.402  1.3432  3.9362 -1.1329
  274MOL0     H36113   1.699   2.549   5.377 -2.4539  1.3766  0.7015
  274MOL0     H36114   1.704   2.602   5.199  0.9877 -0.5014 -0.1855
  274MOL0     H36115   1.642   2.824   5.270  0.6656 -0.1914 -1.8470
  274MOL0     H36116   1.656   2.794   5.429  0.1227  1.1160 -0.2377
  274MOL0     H36117   1.432   2.662   5.241 -0.1086 -0.3528  0.0862
  274MOL0     H36118   1.474   2.604   5.394  2.3233  0.4695 -1.1741
  274MOL0     H36119   1.363   2.890   5.347  1.5105 -1.4629 -2.4169
  274MOL0     H36120   1.420   2.836   5.500  1.5074 -0.3886 -0.1333
  274MOL0     H36121   1.149   2.908   5.528 -1.1688  0.6334 -1.8191
  274MOL0     H36122   0.875   2.885   5.406  2.2552 -0.2332 -1.9166
  274MOL0     H36123   0.877   2.831   5.582 -4.7967 -4.7368  0.6723
  274MOL0     H36124   0.836   2.599   5.538 -1.3406 -1.5974 -1.5011
  274MOL0     H36125   0.785   2.631   5.368  0.1084  0.6117 -0.9953
  274MOL0     H36126   0.583   2.623   5.547 -2.8626  1.0152 -0.1137
  274MOL0     H36127   0.667   2.757   5.621  2.9156 -1.3484 -1.1285
  274MOL0     H36128   0.528   2.747   5.340 -2.1898  0.4854  0.3238
  274MOL0     H36129   0.640   2.879   5.381  0.3107 -0.2898 -1.0661
  274MOL0     H36130   0.287   3.040   5.521  1.1183  0.5946 -2.5017
  274MOL0     H36131   0.033   3.020   5.469  0.3871 -0.8060  1.4831
  274MOL0     H36132  -0.326   2.686   5.459  0.2949 -0.0161 -0.4029
  274MOL0     H36133  -0.530   2.676   5.572  1.0144 -0.8394 -2.0218
  274MOL0     H36134  -0.759   3.056   5.703  1.7649  0.0376 -0.9054
  274MOL0     H36135  -0.631   3.038   5.830  0.8614 -1.5942  2.1726
  274MOL0     H36136  -0.739   2.866   5.938 -0.9598 -2.0521 -0.0164
  274MOL0     H36137  -0.880   2.857   5.828 -0.5530  1.0309 -1.7553
  274MOL0     H36138  -0.926   3.093   5.860 -1.9241  1.0163  1.1911
  274MOL0     H36139  -0.815   3.102   6.006  0.5902  1.5821 -2.1311
  274MOL0     H36140  -1.070   2.927   5.978  1.1589 -0.3001 -0.3211
  274MOL0     H36141  -0.962   2.930   6.122 -1.7158  1.6540  2.0376
  274MOL0     H36142  -1.097   3.171   6.010  2.3125 -0.1979 -0.8744
  274MOL0     H36143  -1.000   3.150   6.166 -1.1340  2.7097 -0.1730
  274MOL0     H36144  -1.229   3.197   6.201 -0.5994 -0.4658  3.0489
  274MOL0     H36145  -1.182   3.029   6.260 -1.4047  0.5702  1.3264
  274MOL0     H36146  -1.299   3.093   5.975 -1.5481 -0.9111 -1.3524
  274MOL0     H36147  -1.296   2.925   6.048 -1.5270 -0.1113  0.7247
  274MOL0     H36148  -1.517   3.020   6.040  0.3452 -0.0308  0.5367
  274MOL0     H36149  -1.464   3.169   6.114  1.6071  0.1969  0.1787
  274MOL0     H36150  -0.538   3.103   5.633 -1.6929 -1.1689 -1.8758
  274MOL0     H36151  -0.300   3.114   5.530  1.2044 -0.3862  1.1018
  274MOL0     H36152   0.117   2.655   5.264  0.5187  0.3984  1.3381
  274MOL0     H36153   0.351   2.668   5.351  0.7707 -0.1733  0.9623
  274MOL0     H36154   2.452   2.842   5.171 -4.2898 -0.4798  0.9760
  274MOL0     H36155   2.674   2.729   5.078 -0.4742 -0.6890  1.4283
  274MOL0     H36156   3.017   2.376   5.040 -0.8278  1.0964  0.9679
  274MOL0     H36157   3.210   2.303   4.909 -0.2023  1.0011  1.9343
  274MOL0     H36158   3.298   2.159   4.788 -1.3125 -1.8179  0.1368
  274MOL0     H36159   3.384   2.156   4.636 -0.5567 -1.4348 -0.5204
  274MOL0     H36160   3.103   2.051   4.677 -0.5760 -3.1412 -1.6323
  274MOL0     H36161   3.184   2.070   4.522 -1.7149  1.0517 -0.2402
  274MOL0     H36162   3.182   1.842   4.643  0.1920 -1.8081  2.7968
  274MOL0     H36163   3.289   1.907   4.769  1.9792 -2.8249 -1.6432
  274MOL0     H36164   3.377   1.924   4.477 -3.6217 -1.2313  0.7515
  274MOL0     H36165   3.466   1.944   4.633  0.7002 -2.0509  1.6524
  274MOL0     H36166   3.444   1.523   4.606 -0.9265  0.0471 -0.2325
  274MOL0     H36167   3.038   2.444   4.552  3.2461  0.0500  0.6347
  274MOL0     H36168   2.845   2.536   4.683  1.2560  4.7762  2.5703
  275MOL0     O36169   1.467   5.564   6.706  0.1451  0.4134 -0.1430
  275MOL0     C36170   1.569   5.630   6.721  0.2537 -0.7281  0.1134
  275MOL0     O36171   1.588   5.754   6.666 -0.3772 -0.1682 -0.0650
  275MOL0     C36172   1.497   5.831   6.612  0.0194 -0.7274  0.0971
  275MOL0     C36173   1.361   5.823   6.647 -0.1351 -0.2101  0.5532
  275MOL0     C36174   1.256   5.898   6.581 -0.0784 -0.3788  0.0600
  275MOL0     C36175   1.291   5.971   6.462  1.3005 -0.7344 -0.3475
  275MOL0     O36176   1.188   6.011   6.372 -0.2062  0.1426  0.7218
  275MOL0     C36177   1.068   6.068   6.435  1.1560  0.1100  0.1809
  275MOL0     C36178   0.989   6.139   6.328  0.5010  0.2244 -0.2162
  275MOL0     C36179   0.852   6.178   6.377  0.0114 -0.6959  0.0300
  275MOL0     C36180   0.768   6.275   6.290 -0.9181 -0.1970  0.4425
  275MOL0     C36181   0.625   6.289   6.343 -0.4211  0.4227  0.0815
  275MOL0     C36182   0.554   6.397   6.260  0.6232 -0.1327 -0.4017
  275MOL0     C36183   0.429   6.446   6.317  0.4500 -0.0543 -0.4154
  275MOL0     C36184   0.334   6.513   6.217  0.9671 -0.9845  0.0674
  275MOL0     N36185   0.203   6.515   6.284 -0.5043  0.4864  0.3341
  275MOL0     C36186   0.084   6.498   6.220 -0.3847  0.7970 -0.1984
  275MOL0     C36187  -0.004   6.579   6.290 -0.4785  1.4053 -0.1051
  275MOL0     C36188  -0.150   6.561   6.251 -0.3901  0.2682  0.0420
  275MOL0     C36189  -0.215   6.692   6.192  0.5890 -0.1388 -0.4024
  275MOL0     C36190  -0.258   6.792   6.309 -0.1449  0.7532  0.3366
  275MOL0     C36191  -0.332   6.733   6.420  0.4899  0.5059  0.0552
  275MOL0     O36192  -0.421   6.625   6.392  0.3722  0.3723  1.4783
  275MOL0     C36193  -0.555   6.649   6.425  1.4901  0.3169 -0.1273
  275MOL0     C36194  -0.619   6.762   6.493  0.9930  0.1176  0.5725
  275MOL0     C36195  -0.759   6.772   6.497  0.2997  1.0501 -0.2353
  275MOL0     C36196  -0.839   6.664   6.454 -0.3691  0.4731  0.1849
  275MOL0     C36197  -0.987   6.661   6.467  0.4478  0.0601  0.4521
  275MOL0     O36198  -1.041   6.767   6.532  0.7383 -1.1881  0.5405
  275MOL0     C36199  -1.179   6.778   6.536  1.1090 -0.2111 -0.4397
  275MOL0     C36200  -1.257   6.785   6.420 -0.2935  0.0414  0.7566
  275MOL0     C36201  -1.396   6.800   6.436  0.6463 -0.0624  0.0400
  275MOL0     C36202  -1.466   6.807   6.563 -0.3109  1.2849  0.5067
  275MOL0     O36203  -1.597   6.816   6.591  0.6503  0.0321  0.1597
  275MOL0     C36204  -1.687   6.825   6.476  0.7436 -0.3820  0.0726
  275MOL0     C36205  -1.837   6.848   6.501  0.9699 -1.2166 -0.0760
  275MOL0     C36206  -1.883   6.952   6.604 -0.4571  0.2290 -0.7499
  275MOL0     C36207  -2.040   6.967   6.596  0.0784 -0.6013  0.5734
  275MOL0     C36208  -2.110   6.843   6.631  1.2400 -0.2527  0.0794
  275MOL0     C36209  -2.092   6.791   6.770  0.7104  0.0105  0.1041
  275MOL0     C36210  -2.150   6.636   6.776  0.4528  0.0381 -0.0091
  275MOL0     C36211  -2.303   6.621   6.815 -0.3327  0.0213  0.0393
  275MOL0    Cl36212  -2.360   6.454   6.801  0.2338 -0.1083 -0.2240
  275MOL0     C36213  -1.384   6.797   6.674  0.5659  0.3329  0.4687
  275MOL0     C36214  -1.241   6.780   6.664 -0.4018 -0.5752  0.4788
  275MOL0     O36215  -1.046   6.555   6.432  0.1516 -0.5838  0.0336
  275MOL0     C36216  -0.777   6.539   6.401 -0.3345 -0.3173  0.3202
  275MOL0     C36217  -0.642   6.537   6.389 -0.0890 -0.4757 -0.8256
  275MOL0     N36218   0.064   6.633   6.393  0.3071  0.6320  0.2015
  275MOL0     N36219   0.187   6.606   6.388 -0.7201  0.3933  0.5030
  275MOL0     C36220   1.434   5.991   6.444 -0.2299  1.0348 -0.4038
  275MOL0     C36221   1.536   5.929   6.524  0.1742  0.5529  0.8286
  275MOL0     C36222   1.675   5.564   6.798 -1.1185  0.8183 -0.8667
  275MOL0     C36223   1.642   5.449   6.883  0.2182 -1.2221 -0.5302
  275MOL0     C36224   1.728   5.382   6.968 -0.3294  0.1779 -0.9042
  275MOL0     C36225   1.869   5.411   6.960 -0.1181  0.6463  1.1915
  275MOL0     O36226   1.954   5.343   7.045  0.5343  0.2397  0.5117
  275MOL0     C36227   2.091   5.379   7.058  0.7310 -0.7192 -0.2819
  275MOL0     C36228   2.186   5.289   7.122  0.5855 -0.2362  0.9050
  275MOL0     C36229   2.335   5.340   7.108 -0.3429  0.6328  0.5557
  275MOL0     C36230   2.364   5.467   7.195 -0.1729 -0.8753 -0.1474
  275MOL0     C36231   2.503   5.488   7.222  0.1059  0.7686 -0.4522
  275MOL0     C36232   2.617   5.528   7.232  0.9070  0.5263 -0.5007
  275MOL0     C36233   1.908   5.507   6.866  0.0359  0.1657  0.0619
  275MOL0     C36234   1.814   5.583   6.791 -0.1464  0.1690  0.1455
  275MOL0     H36235   1.334   5.764   6.734 -2.9756 -2.0304 -1.3821
  275MOL0     H36236   1.151   5.898   6.612 -0.4440  1.1586 -1.0345
  275MOL0     H36237   1.093   6.129   6.522 -2.4189 -2.7946  3.6531
  275MOL0     H36238   1.021   5.976   6.473  0.6880  0.8232  1.3860
  275MOL0     H36239   0.981   6.075   6.239  0.8713  0.2919 -0.3007
  275MOL0     H36240   1.040   6.232   6.301  2.3271 -1.1622 -1.8080
  275MOL0     H36241   0.862   6.239   6.468  1.5350  0.3973 -0.8142
  275MOL0     H36242   0.805   6.082   6.398  1.6146 -1.2352  1.4424
  275MOL0     H36243   0.825   6.368   6.285 -0.9438 -0.2320 -0.8043
  275MOL0     H36244   0.772   6.219   6.195  0.4989  1.8914 -0.8111
  275MOL0     H36245   0.626   6.316   6.449  2.0012  0.7022  0.0493
  275MOL0     H36246   0.579   6.190   6.335 -1.8346  1.0955 -0.4522
  275MOL0     H36247   0.537   6.359   6.159 -1.7903 -0.1692 -0.0324
  275MOL0     H36248   0.625   6.479   6.243 -1.4596  1.2904 -3.0515
  275MOL0     H36249   0.372   6.358   6.346  0.5273  0.2372  0.7047
  275MOL0     H36250   0.449   6.501   6.410  1.4546  0.2762 -0.8151
  275MOL0     H36251   0.320   6.462   6.121  1.2313 -1.2725  0.1770
  275MOL0     H36252   0.372   6.614   6.204 -0.5747 -0.4473 -0.4646
  275MOL0     H36253   0.067   6.427   6.140  1.9475 -0.4098  0.3039
  275MOL0     H36254  -0.217   6.533   6.332 -1.4513  1.1189 -0.5046
  275MOL0     H36255  -0.142   6.485   6.173  0.9056 -0.6210  1.0257
  275MOL0     H36256  -0.301   6.674   6.127  1.2889  2.0632 -2.0894
  275MOL0     H36257  -0.148   6.743   6.122 -0.0698  2.5807  0.8403
  275MOL0     H36258  -0.167   6.837   6.351  0.4447  0.7922 -0.9262
  275MOL0     H36259  -0.314   6.867   6.253  1.5786 -0.2561 -3.0295
  275MOL0     H36260  -0.373   6.817   6.477  1.7023 -1.5428  4.3690
  275MOL0     H36261  -0.256   6.696   6.490  1.0590  0.2402 -0.6903
  275MOL0     H36262  -0.569   6.850   6.534 -0.9740  4.1952 -4.6513
  275MOL0     H36263  -0.801   6.863   6.539  3.0286  1.5158  1.7861
  275MOL0     H36264  -1.217   6.767   6.321 -1.9441 -1.2846  0.2812
  275MOL0     H36265  -1.450   6.800   6.341 -1.1518 -0.6778  1.0047
  275MOL0     H36266  -1.683   6.745   6.401 -2.7673  0.1451 -0.8596
  275MOL0     H36267  -1.650   6.919   6.433  3.7007 -0.8531  1.3539
  275MOL0     H36268  -1.873   6.750   6.534  1.4361 -1.3174  0.1401
  275MOL0     H36269  -1.887   6.867   6.406  0.6403 -4.7141 -0.7478
  275MOL0     H36270  -1.843   7.052   6.585  0.2922  0.2803  0.9225
  275MOL0     H36271  -1.846   6.925   6.704  1.4346 -1.9351 -1.9301
  275MOL0     H36272  -2.069   7.043   6.669  0.5232 -1.1707  1.3526
  275MOL0     H36273  -2.059   7.001   6.494  2.1279 -0.6611  0.1471
  275MOL0     H36274  -2.107   6.762   6.557 -1.7808 -1.6315  1.2657
  275MOL0     H36275  -2.216   6.871   6.629  1.3402  0.2807  1.4452
  275MOL0     H36276  -2.142   6.867   6.831 -0.9654 -0.6014 -0.4539
  275MOL0     H36277  -1.989   6.810   6.801  0.5659  1.8408 -0.3963
  275MOL0     H36278  -2.132   6.587   6.679  0.6017 -0.8695  0.4675
  275MOL0     H36279  -2.085   6.581   6.844 -1.8386 -1.2496  1.2358
  275MOL0     H36280  -2.371   6.691   6.766  0.8635  1.1701 -0.0428
  275MOL0     H36281  -2.302   6.643   6.922  0.5108  1.9869 -0.3288
  275MOL0     H36282  -1.434   6.802   6.770  0.5133 -1.3207  0.5472
  275MOL0     H36283  -1.166   6.763   6.740  1.0080 -1.3861 -1.0397
  275MOL0     H36284  -0.839   6.454   6.374 -1.2412  0.6093 -0.6032
  275MOL0     H36285  -0.596   6.448   6.348  1.0091 -0.7629  0.9542
  275MOL0     H36286   1.465   6.030   6.348 -1.4267 -3.1720 -2.7893
  275MOL0     H36287   1.637   5.950   6.491  0.3789  0.2751  1.2607
  275MOL0     H36288   1.536   5.426   6.891 -0.5629  1.0106 -2.8270
  275MOL0     H36289   1.697   5.299   7.030 -0.1422  3.0736  3.5546
  275MOL0     H36290   2.098   5.467   7.123  3.1488 -1.4579  0.5523
  275MOL0     H36291   2.133   5.394   6.958 -0.7699  0.4117 -0.7710
  275MOL0     H36292   2.158   5.278   7.227 -2.1101  2.6763  0.6122
  275MOL0     H36293   2.174   5.192   7.073  0.2037 -1.3422  3.0759
  275MOL0     H36294   2.362   5.360   7.004  1.5591 -1.4356  0.5876
  275MOL0     H36295   2.396   5.258   7.148  1.9850  3.0969  2.4819
  275MOL0     H36296   2.341   5.550   7.127 -0.3094  0.4117  1.4219
  275MOL0     H36297   2.308   5.475   7.288  0.2442  0.4413  0.0102
  275MOL0     H36298   2.717   5.567   7.234  1.9600 -1.9156 -1.4536
  275MOL0     H36299   2.012   5.537   6.859 -0.4621  1.8211 -1.1837
  275MOL0     H36300   1.851   5.676   6.749  0.0623  0.8594  1.7887
  276MOL0     O36301   5.902   3.541   7.093 -0.0349  0.0801 -0.5492
  276MOL0     C36302   5.915   3.668   7.086 -0.0500  0.1629 -0.0366
  276MOL0     O36303   5.832   3.747   7.007  0.6420  0.5637 -0.3394
  276MOL0     C36304   5.735   3.689   6.926 -0.5947 -0.5069  0.3969
  276MOL0     C36305   5.742   3.583   6.840 -0.5769 -0.1965  0.5659
  276MOL0     C36306   5.639   3.549   6.748 -0.3100 -0.5187 -0.1635
  276MOL0     C36307   5.512   3.613   6.768 -0.0271 -1.0248 -0.1764
  276MOL0     O36308   5.397   3.585   6.711  0.1812  0.6699  0.2515
  276MOL0     C36309   5.403   3.485   6.604 -0.1064  0.2423  1.3043
  276MOL0     C36310   5.266   3.491   6.531  0.5268 -0.3843 -0.3339
  276MOL0     C36311   5.149   3.500   6.621 -0.4780 -0.4927 -0.2163
  276MOL0     C36312   5.014   3.480   6.554 -0.7459  0.8581 -0.3581
  276MOL0     C36313   4.903   3.485   6.653  0.6568  0.4861 -0.7532
  276MOL0     C36314   4.766   3.454   6.602  0.3381  0.0330  0.4158
  276MOL0     C36315   4.659   3.497   6.701 -0.5372 -0.1099 -0.3694
  276MOL0     C36316   4.672   3.449   6.847 -0.5033  1.3449 -0.5814
  276MOL0     N36317   4.578   3.339   6.900  0.2337  0.4822 -0.0806
  276MOL0     C36318   4.450   3.354   6.961  0.2181  0.5423  0.2455
  276MOL0     C36319   4.404   3.227   6.971  0.0759  0.4485  0.4144
  276MOL0     C36320   4.277   3.198   7.056  0.0901  0.5032 -0.5677
  276MOL0     C36321   4.320   3.206   7.206  0.1393 -0.5599 -0.7126
  276MOL0     C36322   4.197   3.226   7.307  0.0468  0.0390 -0.1483
  276MOL0     C36323   4.088   3.113   7.308 -0.5143 -1.1127 -0.0220
  276MOL0     O36324   4.036   3.068   7.437  0.2665 -0.3029 -0.3524
  276MOL0     C36325   3.898   3.070   7.451 -0.0175 -0.0121 -0.2514
  276MOL0     C36326   3.810   3.029   7.349 -0.8491 -1.0638 -0.3091
  276MOL0     C36327   3.671   3.030   7.375 -0.1070 -0.4047 -0.3686
  276MOL0     C36328   3.617   3.063   7.495 -0.1172  1.0416 -0.3957
  276MOL0     C36329   3.478   3.068   7.515  0.4542  0.6205 -0.2476
  276MOL0     O36330   3.393   3.004   7.419  0.1919 -0.6499 -0.6695
  276MOL0     C36331   3.263   3.042   7.423 -0.1575 -0.3233 -0.0104
  276MOL0     C36332   3.207   3.177   7.428 -0.4682  0.6249 -0.4646
  276MOL0     C36333   3.076   3.205   7.429  1.0103 -0.7619 -0.1213
  276MOL0     C36334   2.978   3.104   7.409  0.2083  0.6666 -0.0029
  276MOL0     O36335   2.845   3.130   7.411  0.3630  0.1764 -0.4478
  276MOL0     C36336   2.791   3.148   7.544  0.0385  1.6001 -1.1952
  276MOL0     C36337   2.666   3.059   7.563  0.4164  0.5310 -1.3070
  276MOL0     C36338   2.596   3.098   7.689  0.3726 -0.3375 -0.7185
  276MOL0     C36339   2.472   3.004   7.736 -0.9907 -0.1203  0.4030
  276MOL0     C36340   2.401   2.949   7.616 -0.4600  0.1007 -0.9365
  276MOL0     C36341   2.260   2.893   7.654 -0.6620 -0.1989 -0.6508
  276MOL0     C36342   2.138   2.983   7.622  1.3782 -0.6489  0.2959
  276MOL0     C36343   2.042   2.947   7.503  0.3389  0.6498  0.7400
  276MOL0    Cl36344   1.940   2.798   7.554 -0.3638  0.1129  0.2904
  276MOL0     C36345   3.024   2.972   7.401 -0.2511  0.5930 -0.0995
  276MOL0     C36346   3.169   2.937   7.411  0.2524  0.2423  0.0660
  276MOL0     O36347   3.435   3.104   7.624  0.6387  0.1011  0.5055
  276MOL0     C36348   3.708   3.093   7.598  0.1806  0.1305  0.0675
  276MOL0     C36349   3.845   3.098   7.574  0.2088 -0.2906  1.5275
  276MOL0     N36350   4.487   3.145   6.893 -0.0135 -0.1852  0.2331
  276MOL0     N36351   4.588   3.216   6.856  0.0555 -0.3967 -0.3550
  276MOL0     C36352   5.503   3.717   6.859 -0.8790 -0.1539  0.1678
  276MOL0     C36353   5.610   3.760   6.931 -1.2800  0.0941  0.0803
  276MOL0     C36354   5.997   3.731   7.195  0.7106  1.2668 -0.2813
  276MOL0     C36355   6.037   3.665   7.301 -0.4227  0.0792 -0.4374
  276MOL0     C36356   6.116   3.730   7.392  0.7734  0.2802 -0.5614
  276MOL0     C36357   6.131   3.868   7.395 -0.1305 -0.0524  0.0311
  276MOL0     O36358   6.190   3.948   7.491 -0.3064  0.4313 -0.3769
  276MOL0     C36359   6.275   3.893   7.595 -0.0929  1.0078  0.5369
  276MOL0     C36360   6.421   3.872   7.538  0.0357 -0.1142  0.9714
  276MOL0     C36361   6.476   3.993   7.464 -0.8078 -0.3699 -0.5637
  276MOL0     C36362   6.628   3.994   7.463  0.7214 -1.0635 -0.6534
  276MOL0     C36363   6.676   3.871   7.387  0.1288  0.2417  0.1877
  276MOL0     C36364   6.700   3.763   7.336  0.0894  0.1629  0.5437
  276MOL0     C36365   6.095   3.936   7.284  1.0506 -1.1033  0.5195
  276MOL0     C36366   6.031   3.868   7.179 -0.2270 -0.0775 -0.1975
  276MOL0     H36367   5.838   3.531   6.841 -1.0596 -1.0891  1.2945
  276MOL0     H36368   5.648   3.462   6.684 -0.9769  0.1324 -1.1678
  276MOL0     H36369   5.425   3.386   6.645  1.3727 -0.7032 -1.5517
  276MOL0     H36370   5.474   3.521   6.529 -2.0753 -0.6934 -1.1331
  276MOL0     H36371   5.251   3.403   6.468  2.1579 -1.4772  0.7148
  276MOL0     H36372   5.271   3.571   6.457 -1.0861  0.3939  0.3492
  276MOL0     H36373   5.166   3.596   6.671  0.6314 -0.4965 -0.5772
  276MOL0     H36374   5.155   3.417   6.692  0.5339 -1.2012 -1.1087
  276MOL0     H36375   4.990   3.554   6.477  0.9777 -0.4613 -2.2705
  276MOL0     H36376   5.022   3.376   6.522  1.1306 -0.6240  4.1963
  276MOL0     H36377   4.898   3.583   6.701 -0.8908  0.1884 -0.2417
  276MOL0     H36378   4.928   3.414   6.732  1.6875  2.7470  1.0737
  276MOL0     H36379   4.749   3.347   6.585  1.2833  0.0565 -0.7992
  276MOL0     H36380   4.754   3.508   6.509  0.0150  0.8987  0.9532
  276MOL0     H36381   4.657   3.607   6.703  2.2126  0.1325 -2.7827
  276MOL0     H36382   4.567   3.455   6.661 -1.7388  1.6681  0.3831
  276MOL0     H36383   4.648   3.522   6.924 -0.2740 -0.0101  0.8170
  276MOL0     H36384   4.775   3.420   6.868  0.7635  4.2644 -2.2288
  276MOL0     H36385   4.418   3.438   7.021  3.9242  1.4774  1.2258
  276MOL0     H36386   4.242   3.099   7.025 -0.7288  0.6734 -0.2113
  276MOL0     H36387   4.196   3.267   7.031 -1.0736  0.1414  1.8403
  276MOL0     H36388   4.378   3.298   7.213 -0.4378 -0.3124  1.8567
  276MOL0     H36389   4.382   3.125   7.247 -1.1681  0.1285  3.0051
  276MOL0     H36390   4.254   3.227   7.401 -0.1048  0.9977 -0.0534
  276MOL0     H36391   4.152   3.324   7.288 -1.6821 -0.5451  0.6560
  276MOL0     H36392   4.131   3.020   7.269  0.7935  0.0313 -1.3968
  276MOL0     H36393   4.010   3.153   7.243  0.9314 -1.7892 -2.2885
  276MOL0     H36394   3.843   3.016   7.246  0.8363  2.4035 -0.3373
  276MOL0     H36395   3.614   3.013   7.283  0.4696  3.0519 -1.5118
  276MOL0     H36396   3.286   3.251   7.424  2.1073 -1.5376  3.2288
  276MOL0     H36397   3.041   3.307   7.443 -0.3796 -1.0225 -1.4646
  276MOL0     H36398   2.761   3.253   7.549  1.5221  2.1791 -3.0608
  276MOL0     H36399   2.865   3.135   7.624 -3.0189  0.0671  1.6061
  276MOL0     H36400   2.696   2.954   7.561  1.4144  0.7257  1.0794
  276MOL0     H36401   2.589   3.070   7.485 -2.5778 -0.4323  1.3239
  276MOL0     H36402   2.561   3.201   7.687  3.9817  1.2123  2.7152
  276MOL0     H36403   2.670   3.098   7.770  1.5595  3.6821 -1.6065
  276MOL0     H36404   2.512   2.917   7.789  1.8772 -0.9688 -2.7744
  276MOL0     H36405   2.396   3.063   7.787  0.1845  2.2593 -0.4537
  276MOL0     H36406   2.460   2.868   7.572 -1.2717 -2.5264  2.4527
  276MOL0     H36407   2.387   3.033   7.547 -0.7166  0.2178 -0.7426
  276MOL0     H36408   2.255   2.870   7.761  0.4896  2.5074  0.0541
  276MOL0     H36409   2.244   2.796   7.605 -3.4659  0.8320 -1.9523
  276MOL0     H36410   2.078   2.981   7.714  0.9898  0.9439  0.1056
  276MOL0     H36411   2.166   3.088   7.628 -0.1783 -0.1347 -0.8445
  276MOL0     H36412   2.103   2.932   7.414 -0.5444 -0.0228  0.2269
  276MOL0     H36413   1.964   3.023   7.508  2.3106  2.7530  1.3125
  276MOL0     H36414   2.949   2.893   7.392  1.5931 -1.0897 -1.9664
  276MOL0     H36415   3.207   2.835   7.415  3.7370  1.3985 -0.1697
  276MOL0     H36416   3.680   3.119   7.700 -0.9422  0.0848 -0.2118
  276MOL0     H36417   3.918   3.125   7.650 -1.0997 -0.9145  3.0650
  276MOL0     H36418   5.417   3.776   6.888  1.8321  3.0964  2.3295
  276MOL0     H36419   5.616   3.849   6.993  0.7267  0.8929 -1.1876
  276MOL0     H36420   6.012   3.561   7.321  2.1335 -0.2393  1.5781
  276MOL0     H36421   6.146   3.670   7.478  1.4961 -1.4460 -1.9311
  276MOL0     H36422   6.228   3.803   7.636  1.6552 -0.0897  0.1903
  276MOL0     H36423   6.269   3.964   7.678 -5.3520  0.0118  1.3566
  276MOL0     H36424   6.497   3.846   7.612  0.0420 -0.4487  0.8500
  276MOL0     H36425   6.420   3.788   7.468 -0.2191 -1.3950  2.4372
  276MOL0     H36426   6.439   4.085   7.510  0.4229 -0.0051 -0.2844
  276MOL0     H36427   6.439   3.981   7.361 -1.2114 -1.0971 -0.3443
  276MOL0     H36428   6.658   4.089   7.416  1.0136  0.9463  3.1992
  276MOL0     H36429   6.667   3.999   7.565  0.3612 -2.8241 -0.4011
  276MOL0     H36430   6.707   3.668   7.287 -0.9194  0.0005  0.6889
  276MOL0     H36431   6.109   4.044   7.283  3.2504 -1.3381  1.5486
  276MOL0     H36432   6.000   3.923   7.091 -1.5137  0.5768  0.6232
  277MOL0     O36433   8.120   7.850   8.708 -0.2700 -0.0357 -0.3986
  277MOL0     C36434   8.084   7.761   8.635 -0.4261 -0.1079 -1.2161
  277MOL0     O36435   8.167   7.665   8.587  0.5683  0.1582  0.4231
  277MOL0     C36436   8.304   7.675   8.597  0.6165 -0.6383  1.0676
  277MOL0     C36437   8.379   7.559   8.611 -0.1098  1.0931  0.5259
  277MOL0     C36438   8.524   7.555   8.622  0.4624  0.0803 -0.5046
  277MOL0     C36439   8.591   7.682   8.602  0.0823  0.8037  0.6076
  277MOL0     O36440   8.730   7.697   8.601  0.3774 -0.0122 -0.2630
  277MOL0     C36441   8.827   7.597   8.619  0.1573  0.1570  0.2273
  277MOL0     C36442   8.967   7.656   8.649 -0.0971 -0.1917  0.1085
  277MOL0     C36443   9.029   7.716   8.518  0.3967  0.6977 -0.0211
  277MOL0     C36444   9.162   7.790   8.532  0.3815  0.0081  0.8266
  277MOL0     C36445   9.227   7.873   8.421 -1.3700 -0.3660 -0.2049
  277MOL0     C36446   9.341   7.957   8.469  0.5640  0.3854  0.1873
  277MOL0     C36447   9.468   7.867   8.472 -0.0847 -0.7184 -0.8004
  277MOL0     C36448   9.575   7.934   8.560  0.0779 -0.4214 -0.4109
  277MOL0     N36449   9.703   7.867   8.573 -0.1494 -0.8487  0.6058
  277MOL0     C36450   9.778   7.844   8.690  0.4604 -0.3523  0.4189
  277MOL0     C36451   9.903   7.798   8.649  0.5429  0.0152  0.2093
  277MOL0     C36452  10.019   7.761   8.737  0.0916  0.5522 -0.5788
  277MOL0     C36453  10.125   7.865   8.729 -0.4840 -0.7523  0.2344
  277MOL0     C36454  10.250   7.838   8.810 -0.6532 -0.3895 -0.4004
  277MOL0     C36455  10.358   7.940   8.767 -0.0617  0.5893  0.1744
  277MOL0     O36456  10.382   7.956   8.628 -0.4913  0.0308 -0.5258
  277MOL0     C36457  10.490   7.875   8.583  0.9120  0.2918  0.8172
  277MOL0     C36458  10.596   7.940   8.530 -1.0683  0.1191  0.0869
  277MOL0     C36459  10.716   7.874   8.485 -1.0450  0.9169 -0.7643
  277MOL0     C36460  10.723   7.735   8.478  0.0891  0.4863  0.5220
  277MOL0     C36461  10.853   7.670   8.441  0.8780  0.7139  0.0437
  277MOL0     O36462  10.967   7.746   8.459  0.5607 -0.4776  0.7816
  277MOL0     C36463  11.091   7.676   8.463  1.0001  0.8798 -0.3879
  277MOL0     C36464  11.156   7.618   8.354  0.9781  0.3625 -0.4452
  277MOL0     C36465  11.284   7.564   8.371 -0.1633  0.3887 -0.6771
  277MOL0     C36466  11.343   7.556   8.500  0.0267 -0.7004  0.0468
  277MOL0     O36467  11.470   7.507   8.520  0.2412  0.8789  0.2337
  277MOL0     C36468  11.541   7.465   8.395  0.1628 -0.3861 -0.4256
  277MOL0     C36469  11.670   7.404   8.431  0.2427 -0.1062 -0.4896
  277MOL0     C36470  11.771   7.386   8.313 -0.4424 -0.0937 -0.9649
  277MOL0     C36471  11.904   7.319   8.362 -1.1687 -0.3490 -0.3521
  277MOL0     C36472  11.988   7.414   8.446  0.5078  0.0530  0.2903
  277MOL0     C36473  12.133   7.392   8.484  0.1901 -0.0099  0.5610
  277MOL0     C36474  12.161   7.259   8.567 -0.0795  0.1968 -0.5379
  277MOL0     C36475  12.294   7.257   8.642  0.7411 -0.3160  0.1425
  277MOL0    Cl36476  12.322   7.094   8.707 -0.2503  0.1622 -0.3591
  277MOL0     C36477  11.277   7.622   8.607 -0.0436  0.2917  0.5662
  277MOL0     C36478  11.152   7.672   8.590 -0.2819 -0.8016  0.1533
  277MOL0     O36479  10.849   7.554   8.398  0.0808 -0.3884  0.5238
  277MOL0     C36480  10.611   7.664   8.529 -0.0724  0.0005  0.7324
  277MOL0     C36481  10.494   7.731   8.585  0.4026 -0.6627  0.0119
  277MOL0     N36482   9.899   7.800   8.512  0.5510 -0.2759  0.6299
  277MOL0     N36483   9.781   7.839   8.465 -0.4391 -0.5444 -0.3270
  277MOL0     C36484   8.518   7.799   8.570  0.3309 -0.7971 -0.4503
  277MOL0     C36485   8.375   7.801   8.576  1.4755 -0.7165  0.2656
  277MOL0     C36486   7.946   7.760   8.590  0.1417 -0.0302  0.0361
  277MOL0     C36487   7.851   7.845   8.650 -0.3094  0.0444 -0.1069
  277MOL0     C36488   7.716   7.835   8.631  0.3531  0.5450 -0.1256
  277MOL0     C36489   7.673   7.740   8.530 -0.6093 -0.3653  0.4030
  277MOL0     O36490   7.537   7.732   8.515 -0.2657 -0.0285  0.5303
  277MOL0     C36491   7.482   7.640   8.419 -0.3969  0.7190 -0.3826
  277MOL0     C36492   7.324   7.647   8.415  0.0776 -0.5856  0.3974
  277MOL0     C36493   7.279   7.797   8.418 -0.4107  0.7932 -0.0359
  277MOL0     C36494   7.123   7.817   8.412  0.1743 -0.4268 -0.6777
  277MOL0     C36495   7.058   7.756   8.534 -0.8769 -0.8276  0.8820
  277MOL0     C36496   6.992   7.715   8.623 -0.6972  0.5268  0.0650
  277MOL0     C36497   7.769   7.652   8.470 -0.1657  0.2473 -0.0573
  277MOL0     C36498   7.904   7.662   8.502 -0.2100 -0.5575  0.1339
  277MOL0     H36499   8.320   7.468   8.621 -1.2200  1.5941 -1.0473
  277MOL0     H36500   8.573   7.469   8.668 -0.0392  1.0855  2.0562
  277MOL0     H36501   8.849   7.533   8.533  2.1852 -0.7189  1.3414
  277MOL0     H36502   8.782   7.543   8.703 -0.2467  3.0279  1.9934
  277MOL0     H36503   9.038   7.586   8.694  0.5082  0.6502  0.4786
  277MOL0     H36504   8.961   7.731   8.729 -2.0034  2.0820 -2.0007
  277MOL0     H36505   8.952   7.781   8.477 -2.9438 -2.3332  0.8940
  277MOL0     H36506   9.038   7.636   8.443 -1.4760 -2.0293  2.4296
  277MOL0     H36507   9.151   7.866   8.609 -1.1429  1.1347 -0.4406
  277MOL0     H36508   9.235   7.714   8.562  0.3115  0.3642  1.9135
  277MOL0     H36509   9.147   7.932   8.375 -0.1777 -0.5556 -2.7106
  277MOL0     H36510   9.271   7.814   8.340  0.3441 -0.4813  0.7713
  277MOL0     H36511   9.314   8.007   8.563 -1.3414  1.7191 -0.9963
  277MOL0     H36512   9.352   8.037   8.396  0.2358 -1.1211 -1.5643
  277MOL0     H36513   9.441   7.769   8.512  0.7944 -0.4513  0.5315
  277MOL0     H36514   9.498   7.851   8.368  1.8755 -3.6244  0.0689
  277MOL0     H36515   9.543   7.958   8.662  2.8091  1.1215  0.1749
  277MOL0     H36516   9.600   8.030   8.515  2.1148  0.5193  2.4661
  277MOL0     H36517   9.739   7.854   8.791 -3.4680 -1.6952 -0.7803
  277MOL0     H36518  10.064   7.664   8.711  0.5218 -0.0367  2.1010
  277MOL0     H36519   9.974   7.738   8.834  0.0089  0.0562 -0.7323
  277MOL0     H36520  10.075   7.959   8.756 -2.9759 -1.0526 -2.7260
  277MOL0     H36521  10.144   7.880   8.622 -2.4381  2.3475  0.1991
  277MOL0     H36522  10.236   7.860   8.916 -0.2894 -0.3167 -0.3666
  277MOL0     H36523  10.290   7.737   8.799 -1.4936 -0.5244 -2.8035
  277MOL0     H36524  10.451   7.926   8.823  0.5129 -1.9931 -1.2986
  277MOL0     H36525  10.314   8.034   8.804 -2.4619  0.2557 -1.5676
  277MOL0     H36526  10.572   8.045   8.534 -0.6876  0.2772 -1.2652
  277MOL0     H36527  10.803   7.925   8.446  0.5170 -1.1463 -0.0832
  277MOL0     H36528  11.102   7.614   8.260  1.9002 -0.4168 -0.9511
  277MOL0     H36529  11.330   7.520   8.284 -0.0048  1.4160 -1.1338
  277MOL0     H36530  11.569   7.550   8.332  0.6500 -0.4983 -0.3657
  277MOL0     H36531  11.479   7.389   8.345  0.8137 -2.8191  2.2211
  277MOL0     H36532  11.660   7.318   8.498 -0.2688  0.2241 -0.1311
  277MOL0     H36533  11.716   7.487   8.487 -2.6263  3.0614 -2.4509
  277MOL0     H36534  11.783   7.484   8.267 -0.0218 -0.7317 -2.2793
  277MOL0     H36535  11.725   7.321   8.238  0.2937 -1.6412 -0.1393
  277MOL0     H36536  11.874   7.236   8.428 -1.6820 -0.1452 -0.3228
  277MOL0     H36537  11.970   7.281   8.283  2.5475  0.4565  2.1088
  277MOL0     H36538  11.937   7.423   8.543 -0.6480  0.3114 -0.3283
  277MOL0     H36539  11.982   7.510   8.395  2.6716 -0.1226 -0.3954
  277MOL0     H36540  12.177   7.475   8.541  4.5001 -2.1363  0.6802
  277MOL0     H36541  12.193   7.377   8.394 -0.1375 -1.2321  0.5337
  277MOL0     H36542  12.089   7.255   8.650  0.4301  2.1409  0.0618
  277MOL0     H36543  12.152   7.172   8.502 -0.8189  1.4398 -2.1658
  277MOL0     H36544  12.282   7.332   8.721 -1.2845  2.1799 -2.2957
  277MOL0     H36545  12.378   7.278   8.575  2.1262  0.5599  2.0648
  277MOL0     H36546  11.342   7.628   8.694 -0.9639 -1.3339  1.4236
  277MOL0     H36547  11.095   7.705   8.677  1.6801  0.9688  0.8559
  277MOL0     H36548  10.623   7.556   8.530 -0.6265 -0.0612  2.4327
  277MOL0     H36549  10.407   7.672   8.615  0.0065 -0.1652 -0.1502
  277MOL0     H36550   8.565   7.895   8.548 -1.2224 -0.1604 -1.1312
  277MOL0     H36551   8.329   7.898   8.561 -0.1652 -1.5320 -0.1368
  277MOL0     H36552   7.888   7.929   8.709 -1.9669  0.6759  0.1005
  277MOL0     H36553   7.639   7.884   8.690 -1.0634  0.5853 -1.8927
  277MOL0     H36554   7.499   7.535   8.444  0.7796  1.2314  1.1067
  277MOL0     H36555   7.544   7.642   8.328  1.7662  1.3848  1.0294
  277MOL0     H36556   7.286   7.607   8.320  0.6842 -2.8601  1.0499
  277MOL0     H36557   7.285   7.583   8.494 -0.3896 -1.5455 -0.5799
  277MOL0     H36558   7.327   7.842   8.331  2.2515  1.4465  1.6737
  277MOL0     H36559   7.311   7.845   8.511 -2.4919  1.9782  0.1322
  277MOL0     H36560   7.114   7.925   8.427  3.5730 -0.0831 -0.1670
  277MOL0     H36561   7.078   7.780   8.319 -1.5481  2.7387 -1.2445
  277MOL0     H36562   6.952   7.654   8.701 -0.0306  0.6330  0.4982
  277MOL0     H36563   7.741   7.566   8.410 -1.8441  0.5461  0.2575
  277MOL0     H36564   7.979   7.599   8.455  2.2242  1.3112  1.2508
  278MOL0     O36565   5.160   1.783   8.925  0.0812  0.2299  0.0259
  278MOL0     C36566   5.076   1.823   9.011  0.6625  0.4927 -0.0054
  278MOL0     O36567   5.084   1.806   9.150  0.1543 -0.3915  0.1595
  278MOL0     C36568   5.207   1.763   9.192  0.5738 -0.4649  0.8291
  278MOL0     C36569   5.326   1.829   9.177 -0.1629 -0.5877  0.8277
  278MOL0     C36570   5.444   1.770   9.219  0.4370 -0.0934  0.3100
  278MOL0     C36571   5.456   1.644   9.269  0.4405  0.7117 -1.1985
  278MOL0     O36572   5.570   1.577   9.293  0.3047 -0.0576  0.7799
  278MOL0     C36573   5.697   1.645   9.291 -0.7378 -0.2889 -0.0149
  278MOL0     C36574   5.805   1.543   9.352 -0.5045  0.1757  0.2049
  278MOL0     C36575   5.938   1.573   9.289 -0.2659  0.0616 -0.0355
  278MOL0     C36576   6.042   1.484   9.357  0.5984 -0.0995 -0.3661
  278MOL0     C36577   6.183   1.491   9.289  0.1538 -0.2597 -0.2667
  278MOL0     C36578   6.289   1.435   9.380 -0.3112 -0.0640  0.2038
  278MOL0     C36579   6.429   1.460   9.320  0.4118 -0.6956 -0.3692
  278MOL0     C36580   6.528   1.467   9.433  0.3059 -0.4770 -0.1038
  278MOL0     N36581   6.530   1.601   9.503 -0.0320 -0.3599  0.5354
  278MOL0     C36582   6.508   1.718   9.446 -0.3635 -0.7186  0.1720
  278MOL0     C36583   6.474   1.799   9.546 -0.0861  0.6393  0.3600
  278MOL0     C36584   6.460   1.940   9.524  0.3945  0.2970  0.3011
  278MOL0     C36585   6.327   1.984   9.586  0.3147 -0.0059 -0.1414
  278MOL0     C36586   6.198   1.897   9.565 -1.0657  0.0164  0.9794
  278MOL0     C36587   6.078   1.937   9.644  0.0006  0.1557  0.6053
  278MOL0     O36588   6.009   2.041   9.578  0.9533  0.8322  0.2448
  278MOL0     C36589   5.872   2.054   9.603  0.0072  0.6390 -0.2424
  278MOL0     C36590   5.829   2.180   9.593 -0.4382 -0.1059  0.2922
  278MOL0     C36591   5.695   2.206   9.593  0.4667  0.1020 -0.6606
  278MOL0     C36592   5.606   2.100   9.598  0.7773  1.1293  0.8379
  278MOL0     C36593   5.459   2.121   9.588 -0.5544 -0.4315  0.4582
  278MOL0     O36594   5.376   2.007   9.587 -0.8982  0.4026  0.1158
  278MOL0     C36595   5.238   2.025   9.581  0.1453 -0.2539 -0.4985
  278MOL0     C36596   5.181   2.090   9.680 -0.3669 -0.3735  0.0848
  278MOL0     C36597   5.035   2.107   9.686  0.1837  0.1914  0.8596
  278MOL0     C36598   4.961   2.061   9.577 -1.0101 -1.1986 -0.4239
  278MOL0     O36599   4.827   2.084   9.548 -0.4057 -0.3568 -0.1845
  278MOL0     C36600   4.743   2.091   9.665  0.2189 -0.5258  0.5064
  278MOL0     C36601   4.602   2.057   9.618  0.9856  0.2262  0.5209
  278MOL0     C36602   4.564   1.909   9.603 -0.3472  0.5060  0.2183
  278MOL0     C36603   4.414   1.887   9.539 -1.4605  1.1214 -0.1833
  278MOL0     C36604   4.412   1.736   9.501  1.0784 -0.2922 -0.1089
  278MOL0     C36605   4.286   1.705   9.419 -0.8558  0.0342 -0.7341
  278MOL0     C36606   4.262   1.551   9.411  0.1025 -0.2164 -0.5678
  278MOL0     C36607   4.109   1.519   9.414 -0.2250 -1.0615 -0.6725
  278MOL0    Cl36608   3.999   1.638   9.319  0.3753 -0.1378  0.0825
  278MOL0     C36609   5.028   1.991   9.481 -0.3771 -0.2157  0.0825
  278MOL0     C36610   5.167   1.970   9.479  0.8297 -0.2625 -0.2737
  278MOL0     O36611   5.420   2.235   9.600 -0.0468 -0.1903  0.5302
  278MOL0     C36612   5.657   1.970   9.597 -0.0003 -0.5174  0.0689
  278MOL0     C36613   5.799   1.941   9.597 -0.0535 -0.7524 -1.0373
  278MOL0     N36614   6.501   1.734   9.669  0.4256  0.4008 -0.1068
  278MOL0     N36615   6.533   1.609   9.638  0.2926 -0.2482 -1.0238
  278MOL0     C36616   5.331   1.582   9.298 -0.5086  0.7930  0.1082
  278MOL0     C36617   5.210   1.637   9.253 -0.4097 -0.6449  0.1139
  278MOL0     C36618   4.951   1.890   8.964 -0.6696 -0.6263  0.3641
  278MOL0     C36619   4.919   1.908   8.832 -0.2315 -0.2061 -0.0482
  278MOL0     C36620   4.813   1.986   8.786 -0.2795  0.5182  0.0536
  278MOL0     C36621   4.717   2.045   8.882 -0.8219  0.9466  0.3853
  278MOL0     O36622   4.604   2.119   8.847  0.3317  0.3844 -0.1417
  278MOL0     C36623   4.590   2.139   8.703 -0.4963  0.0186  0.1415
  278MOL0     C36624   4.669   2.265   8.656  0.6997  1.2207  0.4077
  278MOL0     C36625   4.791   2.309   8.729 -1.1981 -0.3653  0.6210
  278MOL0     C36626   4.839   2.452   8.680 -0.2371 -0.0212  0.3960
  278MOL0     C36627   4.940   2.501   8.771 -0.1879  0.1144 -0.4090
  278MOL0     C36628   5.030   2.527   8.846 -0.2889 -0.3230  0.3454
  278MOL0     C36629   4.748   2.023   9.017 -0.2678  1.1100  0.0940
  278MOL0     C36630   4.866   1.948   9.050  0.0111 -0.0564 -0.8788
  278MOL0     H36631   5.326   1.923   9.123  0.1257 -0.4115  1.1391
  278MOL0     H36632   5.533   1.831   9.206  0.6433  0.1642  2.5149
  278MOL0     H36633   5.703   1.742   9.341  4.3015  1.2571 -2.8446
  278MOL0     H36634   5.726   1.654   9.186  3.1282  0.8759  0.9870
  278MOL0     H36635   5.771   1.440   9.340 -1.6541  0.5496  0.1521
  278MOL0     H36636   5.822   1.544   9.460  0.5413 -0.5253  0.0613
  278MOL0     H36637   5.975   1.676   9.292  0.5973 -0.2405  2.2702
  278MOL0     H36638   5.930   1.549   9.183  1.3821  0.9990 -0.4077
  278MOL0     H36639   6.047   1.499   9.465  3.7260 -1.0649 -0.2860
  278MOL0     H36640   6.014   1.378   9.349 -0.9076  0.0348  2.1258
  278MOL0     H36641   6.218   1.594   9.285  1.2537 -0.6272 -0.3957
  278MOL0     H36642   6.177   1.447   9.189 -1.0521  0.2055 -0.4203
  278MOL0     H36643   6.259   1.331   9.396 -1.0328  0.1909  0.5467
  278MOL0     H36644   6.279   1.483   9.477  1.7629  3.5321 -1.1584
  278MOL0     H36645   6.441   1.373   9.255 -0.8058 -0.5845 -0.7714
  278MOL0     H36646   6.418   1.555   9.265 -1.8783 -1.4698 -1.3880
  278MOL0     H36647   6.627   1.446   9.392  0.0604 -0.7203 -0.5722
  278MOL0     H36648   6.509   1.385   9.503 -1.9641 -1.7169 -2.0475
  278MOL0     H36649   6.521   1.750   9.344  1.4632 -2.5273 -0.2357
  278MOL0     H36650   6.471   1.974   9.421  2.6009 -1.7615 -0.2176
  278MOL0     H36651   6.528   1.981   9.599 -1.8802  0.5954  2.3395
  278MOL0     H36652   6.299   2.083   9.550  1.5100  0.3130 -0.2343
  278MOL0     H36653   6.344   2.001   9.693 -2.3460  1.1934  0.1734
  278MOL0     H36654   6.171   1.907   9.460  2.7923  1.6315 -0.0350
  278MOL0     H36655   6.224   1.792   9.580  1.3171  0.0282 -2.1438
  278MOL0     H36656   6.115   1.975   9.740  0.1489  2.5697 -0.3322
  278MOL0     H36657   6.017   1.852   9.676 -0.4627  1.6442  4.0734
  278MOL0     H36658   5.896   2.265   9.599 -0.1568 -0.2575 -0.6241
  278MOL0     H36659   5.670   2.312   9.596  1.5783  0.5809 -4.1412
  278MOL0     H36660   5.248   2.122   9.759  1.1646  2.9573 -2.3357
  278MOL0     H36661   4.998   2.172   9.765  1.1182  0.8074  0.8000
  278MOL0     H36662   4.728   2.196   9.693 -0.0814 -0.6292  0.7412
  278MOL0     H36663   4.775   2.031   9.750 -0.0477 -0.1764  0.8620
  278MOL0     H36664   4.583   2.102   9.520 -1.4195  0.5868  1.0937
  278MOL0     H36665   4.530   2.110   9.680 -0.9626 -0.9292 -0.6696
  278MOL0     H36666   4.554   1.857   9.699 -0.9042 -0.4686 -0.3455
  278MOL0     H36667   4.630   1.853   9.536 -2.4650 -0.5922 -1.0674
  278MOL0     H36668   4.341   1.914   9.615  0.1465 -1.2171  2.3672
  278MOL0     H36669   4.393   1.953   9.454  0.4265  2.9644  0.7038
  278MOL0     H36670   4.390   1.681   9.593  0.7039 -2.8189 -1.6330
  278MOL0     H36671   4.508   1.711   9.457  1.5844  1.7600 -0.2906
  278MOL0     H36672   4.312   1.742   9.320  2.0481 -1.1521 -0.5158
  278MOL0     H36673   4.198   1.757   9.459 -0.4654 -0.6461  1.1062
  278MOL0     H36674   4.307   1.510   9.320 -0.7203  0.5374 -1.3290
  278MOL0     H36675   4.310   1.498   9.495  0.0702  0.9646  0.2172
  278MOL0     H36676   4.090   1.538   9.520  4.4116  2.0641 -0.0934
  278MOL0     H36677   4.103   1.410   9.405  1.7410 -1.2552 -0.0768
  278MOL0     H36678   4.967   1.963   9.396 -0.2607  0.0714 -0.0979
  278MOL0     H36679   5.215   1.918   9.397  0.0623 -2.4166  0.5715
  278MOL0     H36680   5.589   1.885   9.594 -1.6508  0.7564 -0.2760
  278MOL0     H36681   5.834   1.839   9.594 -0.4617 -0.8783 -1.6227
  278MOL0     H36682   5.337   1.483   9.343  0.6906  1.3932  1.3319
  278MOL0     H36683   5.114   1.589   9.268  0.0148 -0.9392  2.2886
  278MOL0     H36684   4.975   1.860   8.752 -0.9922  1.2205 -1.4969
  278MOL0     H36685   4.807   2.012   8.681 -2.2196  0.0482 -0.0075
  278MOL0     H36686   4.483   2.156   8.684 -0.3586  0.6047 -0.1470
  278MOL0     H36687   4.603   2.054   8.636 -0.0585 -0.7242  1.1480
  278MOL0     H36688   4.709   2.243   8.557  1.5664 -1.1143  1.1975
  278MOL0     H36689   4.590   2.340   8.644 -2.6204 -2.1218 -1.0332
  278MOL0     H36690   4.880   2.248   8.709 -1.9724 -1.1215 -0.6408
  278MOL0     H36691   4.773   2.319   8.837 -3.4647  1.9820  0.1135
  278MOL0     H36692   4.888   2.453   8.583  2.9523  0.2972  1.8766
  278MOL0     H36693   4.750   2.515   8.689 -0.3598 -0.3956  2.4957
  278MOL0     H36694   5.127   2.538   8.890  1.1851 -3.0573 -1.8848
  278MOL0     H36695   4.692   2.070   9.097  0.1803 -2.5972  2.8456
  278MOL0     H36696   4.894   1.954   9.155  2.2472  3.7035 -1.5072
  279MOL0     O36697   2.797   0.434   0.993 -0.3284 -0.0867 -0.7078
  279MOL0     C36698   2.819   0.362   1.088  1.1875 -0.4119 -0.5561
  279MOL0     O36699   2.728   0.305   1.170 -0.1043  0.1449  0.4104
  279MOL0     C36700   2.591   0.329   1.140  0.3924  0.7843 -0.2712
  279MOL0     C36701   2.494   0.348   1.244  0.2054  0.4067 -0.6446
  279MOL0     C36702   2.356   0.354   1.212  0.0468  0.4119 -0.6718
  279MOL0     C36703   2.307   0.336   1.081  0.1747 -0.0993  0.1660
  279MOL0     O36704   2.175   0.330   1.034 -1.1412  0.0571  0.1968
  279MOL0     C36705   2.114   0.452   1.047 -0.4960 -0.0550  0.0594
  279MOL0     C36706   1.967   0.435   0.996 -0.0644 -0.2399 -0.2509
  279MOL0     C36707   1.870   0.559   0.995 -0.3081 -0.0046  0.1316
  279MOL0     C36708   1.738   0.521   0.939 -0.3021  0.2511  0.4420
  279MOL0     C36709   1.629   0.627   0.936  0.1533 -0.0370  0.5633
  279MOL0     C36710   1.655   0.759   0.872  0.7201 -0.7114  0.9073
  279MOL0     C36711   1.528   0.854   0.865 -0.7126 -0.4447  1.4631
  279MOL0     C36712   1.576   0.988   0.802 -0.0821  0.1303 -0.3115
  279MOL0     N36713   1.489   1.097   0.853 -0.2745 -0.0289  0.4141
  279MOL0     C36714   1.501   1.168   0.970 -0.2824 -1.0439  0.3401
  279MOL0     C36715   1.393   1.253   0.975 -0.1584  0.2550  0.6211
  279MOL0     C36716   1.348   1.366   1.060 -0.2474  1.0377 -0.6242
  279MOL0     C36717   1.245   1.316   1.158  0.3130 -0.5956  0.3271
  279MOL0     C36718   1.198   1.439   1.235  1.2899 -0.3352 -0.1176
  279MOL0     C36719   1.095   1.385   1.336  0.1713 -0.0520  0.7407
  279MOL0     O36720   1.006   1.494   1.374  0.1311  0.6927 -0.2553
  279MOL0     C36721   0.910   1.485   1.472  0.1827 -0.2468  0.6840
  279MOL0     C36722   0.825   1.598   1.482 -0.2395 -0.0779 -1.1729
  279MOL0     C36723   0.729   1.586   1.581  0.1238  0.5732  0.1495
  279MOL0     C36724   0.709   1.475   1.669 -0.0357  0.3208 -0.5423
  279MOL0     C36725   0.593   1.485   1.765  0.3073  0.1022  0.5164
  279MOL0     O36726   0.505   1.595   1.756  0.4346 -0.8108  0.4861
  279MOL0     C36727   0.397   1.610   1.837 -0.6076  0.6690 -0.6622
  279MOL0     C36728   0.286   1.527   1.842  0.7010 -0.6563  0.2287
  279MOL0     C36729   0.170   1.559   1.911 -0.2972 -0.0702 -1.1551
  279MOL0     C36730   0.166   1.668   2.000 -0.4199 -0.0401 -0.0852
  279MOL0     O36731   0.057   1.702   2.073  0.0381  0.0769  0.0728
  279MOL0     C36732  -0.030   1.598   2.114  0.2738 -0.7468  0.4382
  279MOL0     C36733  -0.121   1.630   2.223 -0.4113  0.0146  0.2242
  279MOL0     C36734  -0.050   1.698   2.340 -0.7550 -0.1551 -0.5391
  279MOL0     C36735   0.076   1.621   2.390 -0.5795  1.6579 -0.9668
  279MOL0     C36736   0.143   1.685   2.514 -0.0641  0.0399  0.3787
  279MOL0     C36737   0.194   1.823   2.468  0.2799 -0.1710  1.0229
  279MOL0     C36738   0.322   1.861   2.550 -0.0459  0.3758  0.0991
  279MOL0     C36739   0.442   1.762   2.538  0.2691 -0.2255 -0.6223
  279MOL0    Cl36740   0.437   1.687   2.368 -0.1261  0.2783  0.2157
  279MOL0     C36741   0.291   1.732   2.029  0.0403  0.3354  0.3561
  279MOL0     C36742   0.406   1.715   1.937  0.1491 -0.3084 -0.8917
  279MOL0     O36743   0.592   1.398   1.848 -0.1372  0.5688  0.2182
  279MOL0     C36744   0.792   1.364   1.648 -0.8058  0.8964  0.3469
  279MOL0     C36745   0.890   1.371   1.549 -0.7195 -0.5183  0.8911
  279MOL0     N36746   1.313   1.223   0.862 -1.5346  0.0535 -0.8318
  279MOL0     N36747   1.375   1.132   0.793  0.3056  0.3421 -0.2929
  279MOL0     C36748   2.407   0.317   0.991  0.1285  0.7213  0.1659
  279MOL0     C36749   2.544   0.306   1.008  1.0566  0.1186 -0.1669
  279MOL0     C36750   2.962   0.334   1.124  0.3260 -0.5105 -0.3848
  279MOL0     C36751   3.056   0.426   1.076 -0.2728 -1.1491 -0.7817
  279MOL0     C36752   3.192   0.414   1.102 -1.1627 -0.2451 -0.5980
  279MOL0     C36753   3.233   0.304   1.177 -0.5341  0.0547  0.8606
  279MOL0     O36754   3.368   0.289   1.219 -0.0040  0.5162  0.6461
  279MOL0     C36755   3.463   0.354   1.145 -0.7834 -0.5898 -0.2767
  279MOL0     C36756   3.601   0.287   1.153  1.5195  0.9131 -0.4756
  279MOL0     C36757   3.583   0.144   1.074 -0.4823 -0.7748  0.4997
  279MOL0     C36758   3.701   0.056   1.104 -0.3603  1.2953  0.7729
  279MOL0     C36759   3.712   0.018   1.248 -0.0019 -1.0095 -0.6083
  279MOL0     C36760   3.734  -0.021   1.353  0.1403 -0.2814 -0.3880
  279MOL0     C36761   3.142   0.218   1.232  0.8202  0.1206 -1.0738
  279MOL0     C36762   3.005   0.241   1.218 -0.5045  0.4893  0.0504
  279MOL0     H36763   2.533   0.363   1.344  0.0131 -1.5223 -0.2348
  279MOL0     H36764   2.297   0.388   1.296  1.2880 -2.0227  1.3443
  279MOL0     H36765   2.169   0.517   0.978 -0.6310  0.1969  0.1872
  279MOL0     H36766   2.114   0.499   1.145  1.2849  1.4093 -0.5941
  279MOL0     H36767   1.920   0.367   1.068  1.4986 -0.0156  1.0418
  279MOL0     H36768   1.967   0.394   0.894 -0.4881 -1.5112  0.2361
  279MOL0     H36769   1.919   0.634   0.932 -1.0121 -1.0748 -1.7938
  279MOL0     H36770   1.866   0.605   1.094  1.0843 -1.9553  1.1696
  279MOL0     H36771   1.751   0.491   0.835  1.0005  0.4107  0.5406
  279MOL0     H36772   1.694   0.436   0.992  1.6610 -0.1716  1.4986
  279MOL0     H36773   1.609   0.636   1.043  4.2663 -1.6799  1.6385
  279MOL0     H36774   1.533   0.599   0.891 -0.4399  1.7527  0.6365
  279MOL0     H36775   1.702   0.750   0.774  2.6095  1.7154  1.5076
  279MOL0     H36776   1.728   0.814   0.932  0.6479 -0.5544  0.8516
  279MOL0     H36777   1.451   0.800   0.808 -2.7759  1.1090  2.6418
  279MOL0     H36778   1.482   0.878   0.961 -1.2438  1.5006  0.7694
  279MOL0     H36779   1.570   0.978   0.693  2.5938 -1.2802 -0.4019
  279MOL0     H36780   1.680   1.007   0.827 -0.5531  2.0556  0.3457
  279MOL0     H36781   1.582   1.169   1.042 -2.4442 -2.6345  3.0398
  279MOL0     H36782   1.310   1.452   1.004  2.5990  3.2620  0.5959
  279MOL0     H36783   1.444   1.397   1.102  0.1082 -1.3326  0.4599
  279MOL0     H36784   1.290   1.242   1.225  0.9270 -0.5437 -0.0198
  279MOL0     H36785   1.152   1.287   1.107 -0.3333  1.1149  0.4778
  279MOL0     H36786   1.279   1.485   1.293  0.4068  0.4639  0.5235
  279MOL0     H36787   1.142   1.506   1.169 -3.7257 -4.8163 -1.0646
  279MOL0     H36788   1.146   1.351   1.427  1.5178 -2.5993 -0.8674
  279MOL0     H36789   1.035   1.299   1.303  1.9956 -2.1909  2.6512
  279MOL0     H36790   0.842   1.686   1.420 -0.0269 -0.4409 -1.6405
  279MOL0     H36791   0.663   1.670   1.598 -0.4672 -0.2967  2.6320
  279MOL0     H36792   0.286   1.434   1.786  2.3359 -2.7050  3.3344
  279MOL0     H36793   0.087   1.490   1.900 -0.5937  0.1408 -0.3104
  279MOL0     H36794   0.029   1.521   2.164  0.4849 -1.8242 -1.3666
  279MOL0     H36795  -0.088   1.563   2.028  0.4389 -2.2656  0.9282
  279MOL0     H36796  -0.157   1.534   2.261 -0.6125  1.0618  2.8363
  279MOL0     H36797  -0.201   1.692   2.180  1.1121 -0.4966 -3.8308
  279MOL0     H36798  -0.121   1.704   2.423  0.6445 -4.0375  1.2013
  279MOL0     H36799  -0.016   1.797   2.310 -2.1291  0.2644 -0.7726
  279MOL0     H36800   0.043   1.521   2.419 -4.0421  2.2071 -2.5154
  279MOL0     H36801   0.149   1.614   2.309 -0.0193 -0.3490 -0.3410
  279MOL0     H36802   0.217   1.614   2.552 -1.4781 -1.8404 -0.2515
  279MOL0     H36803   0.077   1.704   2.600  0.5443 -0.2669  0.9272
  279MOL0     H36804   0.116   1.897   2.485 -0.8861 -1.5094  1.6607
  279MOL0     H36805   0.224   1.827   2.363  1.8635  0.8291  1.4798
  279MOL0     H36806   0.351   1.957   2.505 -0.3036  0.2775 -0.2846
  279MOL0     H36807   0.288   1.865   2.654 -0.6117 -4.8048  0.3867
  279MOL0     H36808   0.429   1.682   2.611  1.0818  0.5346  0.3850
  279MOL0     H36809   0.533   1.814   2.568  0.7744 -2.1151  1.2940
  279MOL0     H36810   0.293   1.793   2.119 -1.0689  0.6678  0.1611
  279MOL0     H36811   0.492   1.780   1.955  0.7557 -0.2687 -3.4438
  279MOL0     H36812   0.782   1.272   1.705 -3.2273  0.3594 -0.8021
  279MOL0     H36813   0.959   1.287   1.542  0.5145  0.4929 -5.0397
  279MOL0     H36814   2.363   0.304   0.893  1.3035 -0.2725 -0.2564
  279MOL0     H36815   2.609   0.277   0.926  1.7824 -0.2904  0.5459
  279MOL0     H36816   3.015   0.502   1.012 -0.7117  0.1696  0.9911
  279MOL0     H36817   3.263   0.489   1.069  2.6810 -1.5923  3.5335
  279MOL0     H36818   3.480   0.457   1.178 -2.3521 -0.6107  0.6495
  279MOL0     H36819   3.431   0.365   1.041 -1.0843 -2.2475 -0.3919
  279MOL0     H36820   3.676   0.344   1.099  1.4247  0.0791 -1.5156
  279MOL0     H36821   3.641   0.295   1.254  0.8145 -2.5947  0.2225
  279MOL0     H36822   3.583   0.156   0.965  0.9419 -1.0022  0.4451
  279MOL0     H36823   3.486   0.099   1.096 -2.0268  2.4832  0.9518
  279MOL0     H36824   3.696  -0.031   1.038 -0.9102  3.1285 -1.7635
  279MOL0     H36825   3.795   0.108   1.086  1.0632 -0.2480  3.1550
  279MOL0     H36826   3.765  -0.070   1.444 -1.2412 -0.8877 -0.2131
  279MOL0     H36827   3.169   0.128   1.285  0.8542 -0.6407 -2.3334
  279MOL0     H36828   2.931   0.179   1.269 -1.9959  0.8561 -1.5585
  280MOL0     O36829   0.144   5.475   1.921 -0.6261 -0.7981  0.2522
  280MOL0     C36830   0.160   5.577   1.983 -0.1623  0.0058 -0.4189
  280MOL0     O36831   0.068   5.665   2.040  0.1083  0.4417 -0.3280
  280MOL0     C36832  -0.061   5.632   2.009  0.2445  0.4300  0.1022
  280MOL0     C36833  -0.143   5.574   2.111  0.0104  0.3579 -0.8244
  280MOL0     C36834  -0.281   5.557   2.093 -0.0023  0.5817 -0.2372
  280MOL0     C36835  -0.338   5.594   1.969 -0.3130 -0.7355 -0.1716
  280MOL0     O36836  -0.474   5.568   1.954  0.5985  0.0541  0.3144
  280MOL0     C36837  -0.556   5.648   1.863 -0.6125  0.6557 -0.1658
  280MOL0     C36838  -0.683   5.582   1.862  0.5279 -0.3722 -0.2970
  280MOL0     C36839  -0.781   5.662   1.783  0.1034 -0.1144 -0.6363
  280MOL0     C36840  -0.924   5.606   1.810 -0.6142 -0.2193  0.1936
  280MOL0     C36841  -1.031   5.698   1.743 -0.4409  0.7000  0.3501
  280MOL0     C36842  -1.148   5.617   1.687  0.1398 -0.0750  0.0550
  280MOL0     C36843  -1.283   5.689   1.652 -0.2893 -0.2119 -0.7455
  280MOL0     C36844  -1.379   5.596   1.562 -0.4805 -0.2241 -0.7979
  280MOL0     N36845  -1.522   5.626   1.585 -0.2257 -0.5271  0.8484
  280MOL0     C36846  -1.617   5.532   1.619 -0.7908 -0.0829  0.0380
  280MOL0     C36847  -1.738   5.592   1.602 -0.3672 -0.1734  0.3950
  280MOL0     C36848  -1.878   5.522   1.592  0.5511  0.0606 -0.5399
  280MOL0     C36849  -1.974   5.594   1.502  0.3225 -0.9756 -0.0613
  280MOL0     C36850  -2.093   5.513   1.450  0.5182 -0.0302  0.1300
  280MOL0     C36851  -2.182   5.456   1.567  0.0696 -0.3566  0.1232
  280MOL0     O36852  -2.269   5.561   1.603 -0.2231 -0.8312 -0.3163
  280MOL0     C36853  -2.380   5.526   1.686 -1.2936  0.2325 -0.1095
  280MOL0     C36854  -2.398   5.407   1.758 -0.4182 -0.1392 -0.2626
  280MOL0     C36855  -2.507   5.379   1.846 -0.4363  0.2663 -0.1333
  280MOL0     C36856  -2.604   5.484   1.860 -0.8704  0.5489 -0.7525
  280MOL0     C36857  -2.713   5.469   1.957 -0.3970 -0.0250  0.2566
  280MOL0     O36858  -2.717   5.358   2.044  0.1731  0.0658  0.3096
  280MOL0     C36859  -2.824   5.342   2.128 -0.6384 -0.7900 -0.3134
  280MOL0     C36860  -2.788   5.348   2.265 -0.4749  0.2124  0.3469
  280MOL0     C36861  -2.893   5.336   2.355  0.2317  0.0619 -0.1649
  280MOL0     C36862  -3.033   5.310   2.333  0.5968 -0.1975 -0.4084
  280MOL0     O36863  -3.135   5.293   2.438  0.3737 -0.0322  0.1554
  280MOL0     C36864  -3.267   5.338   2.410 -1.1571  0.0327  0.2181
  280MOL0     C36865  -3.363   5.225   2.452 -0.1738  0.5477  0.1532
  280MOL0     C36866  -3.505   5.235   2.403  1.1026  0.4540  0.9270
  280MOL0     C36867  -3.567   5.369   2.446  0.1784 -1.0900 -1.1019
  280MOL0     C36868  -3.714   5.353   2.446  0.6161 -0.3457  0.0667
  280MOL0     C36869  -3.781   5.480   2.456 -0.4241 -1.1139  0.3409
  280MOL0     C36870  -3.921   5.481   2.525  0.1540 -0.5644 -0.3477
  280MOL0     C36871  -4.000   5.608   2.491 -0.2915  0.3637  0.9164
  280MOL0    Cl36872  -3.926   5.758   2.567 -0.4918 -0.0964 -0.1492
  280MOL0     C36873  -3.061   5.312   2.198  0.2605 -0.5286 -0.5089
  280MOL0     C36874  -2.963   5.315   2.100 -0.3465 -0.1827  0.4153
  280MOL0     O36875  -2.807   5.550   1.952 -0.4733 -0.6534  0.1127
  280MOL0     C36876  -2.588   5.602   1.792 -0.4489 -0.0383  0.3628
  280MOL0     C36877  -2.480   5.630   1.703 -0.9091 -1.1215 -0.3024
  280MOL0     N36878  -1.720   5.724   1.567 -0.6303  0.1000  0.7042
  280MOL0     N36879  -1.591   5.740   1.556 -0.2339 -0.0235  0.3898
  280MOL0     C36880  -0.254   5.652   1.875 -0.2009  0.6042  0.6354
  280MOL0     C36881  -0.114   5.668   1.891  0.1741 -1.0996  0.2925
  280MOL0     C36882   0.301   5.612   2.002  0.0616  0.8911 -0.0351
  280MOL0     C36883   0.406   5.536   1.931  0.1024  0.1453 -0.2471
  280MOL0     C36884   0.541   5.566   1.959  0.5751  0.0495 -0.1781
  280MOL0     C36885   0.579   5.682   2.036  0.1501 -0.6803  0.2778
  280MOL0     O36886   0.710   5.725   2.026  0.5120 -0.4832 -0.4618
  280MOL0     C36887   0.773   5.701   2.155 -0.0914  0.1258 -0.8864
  280MOL0     C36888   0.852   5.576   2.133  0.6344  0.1245 -0.0863
  280MOL0     C36889   0.952   5.530   2.253  0.2344 -0.1809 -0.3908
  280MOL0     C36890   0.896   5.549   2.393  0.6329 -0.2203  0.6749
  280MOL0     C36891   0.793   5.446   2.409 -1.2242  0.2872  0.0762
  280MOL0     C36892   0.719   5.353   2.416  0.2075  0.2454 -0.2833
  280MOL0     C36893   0.469   5.741   2.105 -0.1483  0.1551  0.4702
  280MOL0     C36894   0.339   5.706   2.092  0.2101  0.6831 -0.6372
  280MOL0     H36895  -0.093   5.534   2.199 -0.3478 -2.4355 -1.7777
  280MOL0     H36896  -0.343   5.510   2.168 -2.9158  1.6827 -1.7750
  280MOL0     H36897  -0.507   5.656   1.765 -0.9580  3.5334 -0.2119
  280MOL0     H36898  -0.557   5.741   1.921  2.0246  0.9241 -0.3881
  280MOL0     H36899  -0.726   5.567   1.961  0.6804 -0.9279 -0.3113
  280MOL0     H36900  -0.669   5.484   1.816 -0.3765 -0.5352 -0.2357
  280MOL0     H36901  -0.759   5.652   1.677 -0.1065 -0.1992 -0.6737
  280MOL0     H36902  -0.782   5.769   1.807 -0.6021 -0.1034 -0.6907
  280MOL0     H36903  -0.936   5.507   1.765 -1.0115 -1.0694  2.0820
  280MOL0     H36904  -0.941   5.587   1.916 -0.0503 -0.8330  0.1798
  280MOL0     H36905  -0.992   5.771   1.672 -0.1893 -1.2358 -1.6110
  280MOL0     H36906  -1.068   5.766   1.820  2.1259  2.4381  0.1624
  280MOL0     H36907  -1.173   5.539   1.759  3.0626 -2.9506 -1.7348
  280MOL0     H36908  -1.122   5.567   1.593  0.6084  2.9752 -1.5633
  280MOL0     H36909  -1.332   5.699   1.749 -2.1342 -0.9996 -1.5259
  280MOL0     H36910  -1.267   5.785   1.602  0.0635 -1.2487 -2.7378
  280MOL0     H36911  -1.355   5.494   1.596  3.0879  0.9834  0.7507
  280MOL0     H36912  -1.351   5.613   1.458  1.0741 -3.3510 -1.0234
  280MOL0     H36913  -1.593   5.429   1.642  1.4083  0.1784 -0.8702
  280MOL0     H36914  -1.916   5.519   1.695 -3.2370  2.0089 -1.6888
  280MOL0     H36915  -1.870   5.426   1.541  0.7254  0.8400 -2.0280
  280MOL0     H36916  -1.927   5.634   1.412 -1.3058  0.5520 -0.2761
  280MOL0     H36917  -2.010   5.681   1.557  1.3137 -0.0380 -0.8507
  280MOL0     H36918  -2.148   5.585   1.388 -0.6899 -0.7585  0.3232
  280MOL0     H36919  -2.068   5.428   1.386  1.5980 -0.3955  1.0167
  280MOL0     H36920  -2.116   5.415   1.644 -0.7676 -2.8079 -0.3638
  280MOL0     H36921  -2.225   5.366   1.521 -0.6429 -0.9512  1.8651
  280MOL0     H36922  -2.332   5.322   1.748 -3.0064 -2.3824  0.6204
  280MOL0     H36923  -2.520   5.279   1.886 -1.5544 -0.2668 -1.7422
  280MOL0     H36924  -2.684   5.362   2.293 -0.6254  0.8444  0.6144
  280MOL0     H36925  -2.871   5.344   2.461  1.8603 -1.9918 -0.2939
  280MOL0     H36926  -3.284   5.347   2.302  0.6254 -4.0970 -0.5726
  280MOL0     H36927  -3.280   5.430   2.468  3.4022  0.9856  0.1523
  280MOL0     H36928  -3.356   5.230   2.561  1.1901  3.3459  0.0495
  280MOL0     H36929  -3.331   5.128   2.413  0.4533  1.2168 -1.0562
  280MOL0     H36930  -3.569   5.157   2.445 -2.7679  2.3725 -0.9066
  280MOL0     H36931  -3.499   5.226   2.294 -1.1218  0.2473  0.7684
  280MOL0     H36932  -3.536   5.395   2.547 -0.4956  1.4784 -1.5089
  280MOL0     H36933  -3.532   5.457   2.391  1.1990 -0.9694 -0.2952
  280MOL0     H36934  -3.739   5.292   2.533  2.2897  0.3578  1.0929
  280MOL0     H36935  -3.741   5.306   2.351  0.7731  0.0989 -0.2015
  280MOL0     H36936  -3.796   5.523   2.356 -1.8225 -2.7684 -0.2156
  280MOL0     H36937  -3.711   5.548   2.506  0.0095 -0.5771 -0.9512
  280MOL0     H36938  -3.983   5.400   2.487 -1.0216  0.6384 -1.1151
  280MOL0     H36939  -3.922   5.481   2.635  0.2335  1.6316 -0.3007
  280MOL0     H36940  -4.103   5.603   2.526 -0.6753  0.2737 -0.1945
  280MOL0     H36941  -4.009   5.630   2.384 -1.0022  0.1844  0.9365
  280MOL0     H36942  -3.155   5.288   2.150 -1.9444  0.2938  2.9973
  280MOL0     H36943  -3.000   5.296   2.000 -0.2167  2.9750 -0.3365
  280MOL0     H36944  -2.653   5.687   1.808 -1.9534 -1.1737  0.5088
  280MOL0     H36945  -2.474   5.713   1.634  0.9116 -1.4676 -0.6201
  280MOL0     H36946  -0.292   5.677   1.777 -1.9695 -2.3132  0.4443
  280MOL0     H36947  -0.054   5.711   1.811  0.3146  0.7600  1.3418
  280MOL0     H36948   0.371   5.457   1.865  0.6419  0.1665 -0.5663
  280MOL0     H36949   0.625   5.509   1.920  2.6432  2.6207  0.2097
  280MOL0     H36950   0.697   5.679   2.231 -1.8260  0.7420 -2.3548
  280MOL0     H36951   0.846   5.775   2.186  1.1094 -0.9030 -1.1759
  280MOL0     H36952   0.779   5.496   2.113  0.3370  0.9725 -2.7512
  280MOL0     H36953   0.914   5.595   2.045  2.0294  2.9829  1.3860
  280MOL0     H36954   1.041   5.593   2.250 -1.2311  2.0102 -0.7320
  280MOL0     H36955   0.980   5.429   2.225  3.3222  0.7750 -1.0966
  280MOL0     H36956   0.970   5.545   2.474  3.1374 -0.2328 -1.4734
  280MOL0     H36957   0.844   5.642   2.414 -1.6823 -1.6999  1.9731
  280MOL0     H36958   0.651   5.274   2.441  1.0159 -0.0614  1.0224
  280MOL0     H36959   0.480   5.821   2.179 -0.7711  0.3001  0.4086
  280MOL0     H36960   0.269   5.765   2.150 -0.9409  0.4934 -1.7811
  281MOL0     O36961   8.968   9.267   9.235  0.5714 -0.0512  0.3135
  281MOL0     C36962   9.034   9.232   9.137 -0.5178 -0.9407  0.3439
  281MOL0     O36963   8.989   9.188   9.021 -0.3284 -0.5623  0.7613
  281MOL0     C36964   8.862   9.210   8.974 -0.2965  0.5550 -1.0393
  281MOL0     C36965   8.849   9.286   8.863 -0.5021  0.5174 -0.6608
  281MOL0     C36966   8.721   9.341   8.821 -0.5854 -0.7597  0.5199
  281MOL0     C36967   8.611   9.316   8.900 -0.4698  0.8026  0.6742
  281MOL0     O36968   8.494   9.368   8.853 -0.1041 -0.5246 -0.5651
  281MOL0     C36969   8.379   9.292   8.860  0.1706  0.1720  0.3456
  281MOL0     C36970   8.280   9.381   8.775  0.0093 -0.5217 -1.1444
  281MOL0     C36971   8.147   9.317   8.760 -0.1006  0.0780 -0.2990
  281MOL0     C36972   8.060   9.379   8.658  0.4973 -0.6444 -0.0906
  281MOL0     C36973   7.928   9.296   8.635  0.1567  0.4143  0.5455
  281MOL0     C36974   7.852   9.265   8.759  0.0418 -0.6595  0.1710
  281MOL0     C36975   7.709   9.224   8.722  0.3562 -0.2440  0.0930
  281MOL0     C36976   7.700   9.097   8.635  0.2693  1.2022  0.6528
  281MOL0     N36977   7.559   9.042   8.624 -0.6112  0.0397  0.0243
  281MOL0     C36978   7.477   9.022   8.734 -0.9881  0.6516 -0.0632
  281MOL0     C36979   7.370   8.955   8.672  0.4325  0.7541 -0.3384
  281MOL0     C36980   7.244   8.901   8.737  1.1141 -0.7823  0.2926
  281MOL0     C36981   7.106   8.964   8.706  0.3159 -0.0563  0.0661
  281MOL0     C36982   7.101   9.111   8.760  0.0957  0.4848  0.5601
  281MOL0     C36983   6.962   9.167   8.745 -0.9564 -0.0103  0.4627
  281MOL0     O36984   6.876   9.098   8.833 -0.8154  0.6878  0.3154
  281MOL0     C36985   6.735   9.103   8.833  0.3109 -0.3169 -0.1219
  281MOL0     C36986   6.674   9.004   8.904 -0.4090 -0.8418 -0.1206
  281MOL0     C36987   6.535   8.990   8.920  0.2421 -0.6502  0.8035
  281MOL0     C36988   6.454   9.081   8.840 -0.2859 -0.1008  1.2331
  281MOL0     C36989   6.310   9.060   8.823  0.4777  0.3929  0.0935
  281MOL0     O36990   6.251   8.960   8.893 -0.3900  0.2044  0.4645
  281MOL0     C36991   6.134   8.913   8.855 -1.1992 -0.0305 -0.0480
  281MOL0     C36992   6.134   8.809   8.761  0.2561  0.6331  0.6566
  281MOL0     C36993   6.009   8.733   8.742  0.1335  0.6299 -0.1378
  281MOL0     C36994   5.888   8.787   8.792 -1.1826  1.1443 -0.5259
  281MOL0     O36995   5.769   8.724   8.750  0.2246 -0.6470 -0.1961
  281MOL0     C36996   5.651   8.768   8.807 -0.3335  0.2522 -0.4576
  281MOL0     C36997   5.549   8.659   8.786  0.6712 -0.2526  0.3757
  281MOL0     C36998   5.586   8.529   8.853 -0.0169 -0.9173  0.5802
  281MOL0     C36999   5.499   8.508   8.988  0.4835 -0.2239 -0.8021
  281MOL0     C37000   5.540   8.373   9.054  0.4179 -0.3211  0.7843
  281MOL0     C37001   5.505   8.349   9.205  0.0887  0.8400  0.2809
  281MOL0     C37002   5.385   8.264   9.235  0.0601 -0.5383 -0.3483
  281MOL0     C37003   5.394   8.227   9.387 -0.2865 -0.2129 -0.5451
  281MOL0    Cl37004   5.421   8.379   9.488 -0.3291  0.3365 -0.1751
  281MOL0     C37005   5.893   8.901   8.870  0.3890 -0.5266 -0.2478
  281MOL0     C37006   6.017   8.961   8.905 -0.8980 -0.2934 -0.4917
  281MOL0     O37007   6.250   9.130   8.749  0.1596 -0.5003 -0.2334
  281MOL0     C37008   6.515   9.190   8.778 -0.3150  0.4313 -0.0372
  281MOL0     C37009   6.654   9.201   8.770  0.1081 -0.8261 -0.1073
  281MOL0     N37010   7.393   8.955   8.535  0.9432 -0.5001 -1.3068
  281MOL0     N37011   7.496   9.015   8.514  0.4182  0.0029 -0.1932
  281MOL0     C37012   8.619   9.233   9.014  0.4231 -0.9142  0.1735
  281MOL0     C37013   8.744   9.190   9.051  0.0677  0.3534 -0.2437
  281MOL0     C37014   9.183   9.222   9.171 -0.4303 -0.4263  0.5642
  281MOL0     C37015   9.220   9.215   9.306 -1.4311  0.8722  0.0719
  281MOL0     C37016   9.354   9.218   9.337 -0.6827 -0.3271  0.4058
  281MOL0     C37017   9.455   9.224   9.244  0.0434  0.9197 -0.7945
  281MOL0     O37018   9.578   9.242   9.295  0.8677 -0.5580  0.3804
  281MOL0     C37019   9.688   9.188   9.226  0.1624  0.1727  0.0578
  281MOL0     C37020   9.754   9.291   9.128  0.6662 -0.1323 -0.9153
  281MOL0     C37021   9.868   9.224   9.048 -0.2949 -0.1086  0.6621
  281MOL0     C37022   9.942   9.338   8.965 -0.0815 -0.7625 -0.9524
  281MOL0     C37023   9.997   9.277   8.840 -0.2056 -0.2900  0.5966
  281MOL0     C37024  10.056   9.229   8.740  1.4922  0.1128 -0.3569
  281MOL0     C37025   9.415   9.230   9.110 -0.2698 -0.4217  0.6746
  281MOL0     C37026   9.282   9.225   9.074 -0.3117  0.6912 -0.0447
  281MOL0     H37027   8.939   9.311   8.807  0.2770  1.3834  0.8966
  281MOL0     H37028   8.711   9.407   8.736 -3.3196 -1.3650  0.2581
  281MOL0     H37029   8.342   9.279   8.962 -0.8779 -3.8073 -0.3682
  281MOL0     H37030   8.382   9.190   8.822 -0.4876 -0.4660  1.8989
  281MOL0     H37031   8.338   9.407   8.686  0.3552  2.6736 -0.1113
  281MOL0     H37032   8.263   9.474   8.831 -0.9911 -1.7845  0.7623
  281MOL0     H37033   8.101   9.335   8.857 -0.8930  1.2948 -0.8688
  281MOL0     H37034   8.153   9.210   8.738  0.5345  0.2345 -0.9424
  281MOL0     H37035   8.030   9.481   8.682 -2.1190 -1.2800 -0.3579
  281MOL0     H37036   8.117   9.391   8.565  1.6048  0.7440  0.7325
  281MOL0     H37037   7.950   9.200   8.586  0.9635  0.7240  0.2743
  281MOL0     H37038   7.881   9.360   8.560  1.5035 -1.3177 -1.9485
  281MOL0     H37039   7.852   9.355   8.821  0.1202 -1.1961  0.9721
  281MOL0     H37040   7.909   9.184   8.805  1.8897 -1.2562 -2.8838
  281MOL0     H37041   7.641   9.220   8.807  0.9951 -3.2941  0.5956
  281MOL0     H37042   7.677   9.310   8.662  5.4443  1.8178 -0.1904
  281MOL0     H37043   7.773   9.025   8.672  1.3801  0.3730 -2.7595
  281MOL0     H37044   7.732   9.127   8.535 -2.3850  0.2166 -0.5996
  281MOL0     H37045   7.506   9.031   8.838 -0.7545  2.0097 -0.2305
  281MOL0     H37046   7.242   8.890   8.845 -1.7370 -1.0621  0.2722
  281MOL0     H37047   7.235   8.800   8.698  1.4631 -0.3945 -0.8415
  281MOL0     H37048   7.021   8.902   8.735  1.7951 -3.1728 -1.7957
  281MOL0     H37049   7.093   8.978   8.599 -1.3762 -1.0412  0.1054
  281MOL0     H37050   7.116   9.122   8.868  0.0401 -0.1829  0.6404
  281MOL0     H37051   7.172   9.173   8.705 -0.2199 -0.0442 -0.4722
  281MOL0     H37052   6.936   9.140   8.642  3.2292  1.0630 -1.0624
  281MOL0     H37053   6.965   9.274   8.764 -1.9617 -0.2985  2.4317
  281MOL0     H37054   6.742   8.928   8.942 -0.9340 -0.3857  1.8467
  281MOL0     H37055   6.490   8.904   8.969  2.6081 -2.8266 -0.5987
  281MOL0     H37056   6.229   8.774   8.721 -0.6695 -0.4092 -0.7051
  281MOL0     H37057   6.018   8.637   8.690  1.1587  0.7559 -0.2133
  281MOL0     H37058   5.635   8.866   8.762  0.6695  0.1989 -0.9706
  281MOL0     H37059   5.671   8.781   8.914  1.4602  0.9675 -0.8399
  281MOL0     H37060   5.536   8.645   8.678  1.7326  2.0622 -0.1287
  281MOL0     H37061   5.459   8.706   8.827  0.6376 -0.2364  0.2839
  281MOL0     H37062   5.693   8.526   8.872  0.2573  1.7011 -0.2017
  281MOL0     H37063   5.555   8.445   8.790 -1.5049 -0.0811  0.1467
  281MOL0     H37064   5.524   8.595   9.048 -2.8600 -0.6605  1.5536
  281MOL0     H37065   5.390   8.507   8.972  0.5122 -0.1690 -1.0059
  281MOL0     H37066   5.649   8.377   9.049  0.4509 -1.5041 -0.0405
  281MOL0     H37067   5.497   8.287   9.001 -0.0671 -0.3177  1.1759
  281MOL0     H37068   5.506   8.451   9.245 -0.0422  1.7988 -1.9904
  281MOL0     H37069   5.590   8.287   9.236 -0.7600 -1.0398 -0.9269
  281MOL0     H37070   5.289   8.314   9.220 -0.2661 -1.2928 -0.8671
  281MOL0     H37071   5.378   8.172   9.176 -3.0251  0.4081 -1.6460
  281MOL0     H37072   5.475   8.154   9.400  0.2183 -0.1600 -2.9804
  281MOL0     H37073   5.298   8.190   9.422  0.5138 -1.2557  0.6262
  281MOL0     H37074   5.816   8.962   8.916  0.5320  0.0664 -0.7741
  281MOL0     H37075   6.022   9.056   8.957  1.8451 -0.5959 -0.0578
  281MOL0     H37076   6.449   9.246   8.711 -1.8926  0.3370  1.3622
  281MOL0     H37077   6.701   9.277   8.708  1.3976  0.9441  2.8651
  281MOL0     H37078   8.528   9.217   9.070 -1.0594  1.6033 -1.3280
  281MOL0     H37079   8.754   9.143   9.148 -0.6621  2.7544  1.0715
  281MOL0     H37080   9.138   9.221   9.377 -1.1474 -0.5271  0.5547
  281MOL0     H37081   9.392   9.219   9.439 -0.4214 -2.6128  0.3769
  281MOL0     H37082   9.661   9.108   9.156  0.0965 -1.3511  1.7446
  281MOL0     H37083   9.745   9.143   9.308 -1.1415  1.5859  1.8189
  281MOL0     H37084   9.676   9.332   9.063 -0.0234  0.6476  0.3768
  281MOL0     H37085   9.795   9.365   9.197 -0.6561 -0.7708  0.6163
  281MOL0     H37086   9.800   9.169   8.982 -2.2457  1.0298  1.5986
  281MOL0     H37087   9.919   9.149   9.110 -0.2056  0.1983  0.9655
  281MOL0     H37088   9.875   9.425   8.961 -1.4928 -1.5260  2.3565
  281MOL0     H37089  10.024   9.378   9.025 -0.5269 -1.1496 -0.0684
  281MOL0     H37090  10.103   9.185   8.654  1.8190  1.8288 -1.1125
  281MOL0     H37091   9.492   9.234   9.033  0.5671  0.2383  1.5250
  281MOL0     H37092   9.254   9.247   8.971 -1.6061  1.6408  0.4868
  282MOL0     O37093   2.157   8.605   7.325 -0.2887 -0.3721  0.1854
  282MOL0     C37094   2.140   8.533   7.425  1.1973  0.1390  0.4851
  282MOL0     O37095   2.220   8.435   7.456  0.3953  0.9262 -0.6725
  282MOL0     C37096   2.333   8.405   7.393 -0.2793  0.2773  1.6195
  282MOL0     C37097   2.346   8.265   7.371 -0.8729 -0.8546  0.2406
  282MOL0     C37098   2.476   8.223   7.334  0.3690  0.4446  0.4571
  282MOL0     C37099   2.586   8.316   7.317  1.1528  0.3610 -0.5634
  282MOL0     O37100   2.708   8.272   7.277  0.2857 -0.0140 -0.0048
  282MOL0     C37101   2.745   8.137   7.313  0.2425  0.0975  0.7404
  282MOL0     C37102   2.894   8.099   7.302 -0.4271  0.0070 -0.9428
  282MOL0     C37103   2.978   8.142   7.422 -0.3143 -0.4834 -0.3000
  282MOL0     C37104   2.971   8.053   7.544 -1.2001  0.5690 -0.6059
  282MOL0     C37105   3.062   8.096   7.660 -0.2809 -0.7114 -0.4118
  282MOL0     C37106   3.212   8.114   7.628  0.0420  1.0860 -0.2963
  282MOL0     C37107   3.284   8.126   7.760  0.1164  0.7943 -0.0278
  282MOL0     C37108   3.423   8.047   7.752 -0.0710 -0.3108 -0.7410
  282MOL0     N37109   3.512   8.065   7.867  0.2101 -0.3154  0.2972
  282MOL0     C37110   3.515   8.167   7.960 -0.6433 -0.0882  0.6479
  282MOL0     C37111   3.629   8.144   8.032 -0.3364 -0.0900 -0.6086
  282MOL0     C37112   3.683   8.218   8.151 -0.5113 -0.2648 -0.5768
  282MOL0     C37113   3.632   8.172   8.292  0.0352 -0.1406 -0.2747
  282MOL0     C37114   3.488   8.188   8.309  0.0947 -0.0432 -0.0552
  282MOL0     C37115   3.451   8.321   8.367  0.2572 -0.4933  0.6459
  282MOL0     O37116   3.465   8.419   8.260  0.0396  0.3334  0.0004
  282MOL0     C37117   3.402   8.540   8.267 -0.4743 -0.1871  0.2190
  282MOL0     C37118   3.335   8.591   8.376  0.7262 -0.9430  0.4442
  282MOL0     C37119   3.275   8.722   8.374  0.9251 -0.3680  0.9940
  282MOL0     C37120   3.301   8.812   8.265  0.2519  0.4107 -0.5375
  282MOL0     C37121   3.243   8.948   8.240  1.1725  0.5463 -0.7113
  282MOL0     O37122   3.291   9.023   8.148  0.9856  0.7217 -0.7374
  282MOL0     C37123   3.234   9.149   8.148  0.4264  0.3585 -0.7701
  282MOL0     C37124   3.159   9.188   8.037 -0.7203 -0.8219 -0.1478
  282MOL0     C37125   3.083   9.307   8.034 -1.1818  0.1351  0.6652
  282MOL0     C37126   3.119   9.403   8.143 -0.4026  0.7043 -0.2119
  282MOL0     O37127   3.068   9.529   8.131 -0.0750  0.2567  0.2288
  282MOL0     C37128   3.129   9.615   8.032 -0.3617  0.1784  0.3886
  282MOL0     C37129   3.033   9.716   7.978  0.4394 -0.8701  0.0422
  282MOL0     C37130   2.957   9.642   7.860 -0.0100 -0.2721 -0.1235
  282MOL0     C37131   2.819   9.703   7.820  0.2737  0.1536  0.9244
  282MOL0     C37132   2.781   9.631   7.682  1.1970 -0.1317 -0.0783
  282MOL0     C37133   2.827   9.685   7.553 -0.1148  0.3570 -0.1631
  282MOL0     C37134   2.792   9.614   7.421  0.7863 -0.6346 -0.5048
  282MOL0     C37135   2.822   9.703   7.297  0.1439  0.5033 -0.2634
  282MOL0    Cl37136   2.985   9.777   7.307 -0.0155  0.1726  0.0508
  282MOL0     C37137   3.197   9.360   8.246 -0.2880 -0.1796 -0.1700
  282MOL0     C37138   3.262   9.238   8.248 -0.0084  0.5014 -0.0189
  282MOL0     O37139   3.157   8.981   8.325  0.3082  0.3550  0.5259
  282MOL0     C37140   3.386   8.758   8.168  0.1814  0.6828  0.4706
  282MOL0     C37141   3.440   8.631   8.173 -1.2986 -0.2353  0.3759
  282MOL0     N37142   3.687   8.026   7.989  0.1517 -0.0677  0.0100
  282MOL0     N37143   3.618   7.979   7.891 -0.0835 -0.2845 -0.0559
  282MOL0     C37144   2.569   8.450   7.346 -0.6945  0.3166  0.1077
  282MOL0     C37145   2.438   8.496   7.378 -0.9110 -0.1383 -0.5678
  282MOL0     C37146   2.018   8.551   7.506  0.5397  0.5964 -0.2865
  282MOL0     C37147   1.914   8.622   7.450  0.5357  0.2960 -1.0372
  282MOL0     C37148   1.800   8.644   7.525 -1.0193 -0.1661  0.2021
  282MOL0     C37149   1.804   8.620   7.664 -0.1498  0.2679  0.0177
  282MOL0     O37150   1.699   8.632   7.741 -0.1086 -0.1916 -0.1699
  282MOL0     C37151   1.611   8.736   7.711  0.3012 -0.2281 -0.2416
  282MOL0     C37152   1.646   8.855   7.805 -0.2052  0.1001 -0.0104
  282MOL0     C37153   1.696   8.978   7.726  0.1667  0.0735 -0.1845
  282MOL0     C37154   1.835   8.953   7.678  0.3241 -0.3104  0.8954
  282MOL0     C37155   1.900   9.088   7.663  0.5021 -0.3037 -1.3727
  282MOL0     C37156   1.968   9.192   7.662 -0.0928  0.8926 -0.0779
  282MOL0     C37157   1.912   8.547   7.723  0.2192 -0.3996  0.2233
  282MOL0     C37158   2.010   8.496   7.636 -0.0553  0.1813  0.5860
  282MOL0     H37159   2.265   8.201   7.403  0.4627 -1.6450  2.2911
  282MOL0     H37160   2.495   8.118   7.318  1.2062  0.5410  0.7803
  282MOL0     H37161   2.688   8.073   7.245  0.6849  1.6599 -1.2125
  282MOL0     H37162   2.730   8.101   7.415  1.7342  3.5780  2.3503
  282MOL0     H37163   2.930   8.152   7.213 -0.7149  1.7368 -0.0770
  282MOL0     H37164   2.917   7.993   7.303  1.5271  0.3748  0.8010
  282MOL0     H37165   2.946   8.239   7.460 -1.5621 -1.8805  2.5899
  282MOL0     H37166   3.078   8.162   7.384 -0.1539  1.0701  0.8350
  282MOL0     H37167   2.868   8.057   7.582 -1.4767 -1.2106 -1.0650
  282MOL0     H37168   2.993   7.949   7.517  0.5369  0.7843 -0.0896
  282MOL0     H37169   3.043   8.030   7.745 -1.2861  1.5482  1.2011
  282MOL0     H37170   3.018   8.189   7.698  0.9502 -0.1257 -0.3983
  282MOL0     H37171   3.241   8.191   7.556  0.1907  2.2704  0.9854
  282MOL0     H37172   3.238   8.022   7.574 -3.0083  1.1766 -2.1623
  282MOL0     H37173   3.295   8.233   7.779 -4.5101  1.3580  0.5151
  282MOL0     H37174   3.232   8.068   7.837  1.9806  0.7164  1.2266
  282MOL0     H37175   3.476   8.077   7.660  2.4156  3.6747  1.6604
  282MOL0     H37176   3.400   7.941   7.750 -1.0640 -0.1150 -0.0086
  282MOL0     H37177   3.452   8.255   7.973  0.5862  0.4923  3.4473
  282MOL0     H37178   3.669   8.322   8.120  0.7164 -0.3493 -1.4907
  282MOL0     H37179   3.791   8.200   8.161 -0.2453  0.7310 -1.5057
  282MOL0     H37180   3.691   8.234   8.359  0.5510 -0.2130 -0.6601
  282MOL0     H37181   3.656   8.066   8.303  4.1384  0.5002 -1.4069
  282MOL0     H37182   3.448   8.163   8.210  0.1510  0.3882 -0.1907
  282MOL0     H37183   3.446   8.112   8.375 -1.1202  1.0947  0.5350
  282MOL0     H37184   3.509   8.342   8.457  0.7238  1.4143 -0.0509
  282MOL0     H37185   3.350   8.316   8.407 -1.8781  2.2418 -3.6280
  282MOL0     H37186   3.340   8.532   8.466 -0.6955 -0.9168  0.5675
  282MOL0     H37187   3.209   8.754   8.454 -0.1877  0.4609 -0.2049
  282MOL0     H37188   3.146   9.119   7.954 -0.1925  1.1822 -1.9862
  282MOL0     H37189   3.011   9.340   7.960 -0.1158  0.1364 -0.4018
  282MOL0     H37190   3.178   9.563   7.950 -1.6981 -1.3478  0.5042
  282MOL0     H37191   3.206   9.666   8.091  0.6422  1.1703 -1.6959
  282MOL0     H37192   3.078   9.807   7.937  0.2262 -0.5727  0.4628
  282MOL0     H37193   2.977   9.750   8.065 -0.1030 -0.1150 -0.5921
  282MOL0     H37194   2.942   9.539   7.892 -0.0982 -0.7267 -1.5557
  282MOL0     H37195   3.026   9.639   7.775  0.9485  0.8539  0.5848
  282MOL0     H37196   2.740   9.671   7.888 -0.5472 -0.5204 -0.3281
  282MOL0     H37197   2.820   9.812   7.817  1.8417  0.1497  0.4672
  282MOL0     H37198   2.674   9.655   7.673  1.2597  0.6193  1.0700
  282MOL0     H37199   2.795   9.523   7.691  0.2724 -0.1132  2.0749
  282MOL0     H37200   2.936   9.691   7.560  0.0998  0.0639 -2.3778
  282MOL0     H37201   2.787   9.787   7.550 -2.2135 -0.3496  1.3206
  282MOL0     H37202   2.846   9.520   7.410  2.1585  0.2555 -1.7169
  282MOL0     H37203   2.684   9.598   7.425  0.4820  0.7137 -2.1623
  282MOL0     H37204   2.736   9.770   7.285  2.6438  3.7017 -1.7775
  282MOL0     H37205   2.811   9.657   7.199 -1.4312  1.8634 -0.7699
  282MOL0     H37206   3.203   9.421   8.336  0.0173  0.3730 -0.5638
  282MOL0     H37207   3.316   9.220   8.340 -1.3574  0.9659  0.8881
  282MOL0     H37208   3.411   8.823   8.085 -2.3798 -0.7840 -1.6035
  282MOL0     H37209   3.504   8.605   8.090 -2.7024 -0.7916 -0.5604
  282MOL0     H37210   2.659   8.511   7.339 -1.9701  2.3591  0.3859
  282MOL0     H37211   2.423   8.600   7.407 -0.5117 -0.2274 -0.0215
  282MOL0     H37212   1.930   8.669   7.353  0.5981  0.3285 -1.0110
  282MOL0     H37213   1.724   8.697   7.469 -0.2145 -0.3480 -1.1324
  282MOL0     H37214   1.507   8.704   7.728  0.1889 -0.9015 -2.0038
  282MOL0     H37215   1.599   8.767   7.607 -2.8785  0.2747  0.1772
  282MOL0     H37216   1.556   8.874   7.865  0.2191 -2.8522  1.7742
  282MOL0     H37217   1.721   8.827   7.879  1.0882  0.5475 -1.1145
  282MOL0     H37218   1.691   9.060   7.798  2.4755 -1.0316  1.3510
  282MOL0     H37219   1.630   9.001   7.643  0.4590  0.5964 -0.2789
  282MOL0     H37220   1.889   8.883   7.741 -2.1385 -0.1368  3.4029
  282MOL0     H37221   1.809   8.910   7.581 -2.5247  0.7242  1.0850
  282MOL0     H37222   2.027   9.274   7.697  1.1333 -0.1062  0.2821
  282MOL0     H37223   1.930   8.521   7.827 -1.2762  2.2115  1.2314
  282MOL0     H37224   2.099   8.441   7.662  0.4231 -0.0458 -1.4000
  283MOL0     O37225   9.978   0.755   2.065 -0.3597 -0.5778 -0.3311
  283MOL0     C37226   9.880   0.826   2.081  0.0889 -0.9473 -0.7159
  283MOL0     O37227   9.837   0.924   1.997 -0.5821  0.0216 -0.4233
  283MOL0     C37228   9.889   0.957   1.868  0.1589  0.0454 -0.2057
  283MOL0     C37229  10.012   0.917   1.813  0.0993  0.0466 -1.2136
  283MOL0     C37230  10.051   0.969   1.690 -0.4081 -0.0215  0.7062
  283MOL0     C37231   9.970   1.061   1.628  0.4277 -0.2672  1.1559
  283MOL0     O37232  10.005   1.116   1.507  0.7788  0.0449  0.6883
  283MOL0     C37233  10.083   1.236   1.509  0.1631  0.5690 -0.0397
  283MOL0     C37234  10.031   1.320   1.379  0.3558  0.0839 -0.8289
  283MOL0     C37235   9.893   1.370   1.402  0.0240 -0.6171 -0.0035
  283MOL0     C37236   9.776   1.271   1.368 -0.0467 -0.9843  0.9687
  283MOL0     C37237   9.631   1.314   1.386  0.1674  0.1031  0.9420
  283MOL0     C37238   9.596   1.439   1.297 -0.8595  0.3285 -0.5001
  283MOL0     C37239   9.444   1.471   1.316  0.2219  0.1503  0.4325
  283MOL0     C37240   9.400   1.587   1.222  0.1543  0.0222 -0.2493
  283MOL0     N37241   9.422   1.541   1.083  0.0342  0.0711 -0.1434
  283MOL0     C37242   9.327   1.468   1.011 -0.3176 -0.3607 -0.4341
  283MOL0     C37243   9.376   1.462   0.884  0.4266  0.9652  0.4125
  283MOL0     C37244   9.305   1.403   0.761 -0.3249 -0.4882 -0.8073
  283MOL0     C37245   9.388   1.391   0.637 -0.0038  0.7559 -0.7706
  283MOL0     C37246   9.351   1.270   0.559  0.3466  0.6687 -0.0092
  283MOL0     C37247   9.219   1.273   0.479 -0.6242  0.9359  0.2059
  283MOL0     O37248   9.215   1.187   0.363 -0.0641  0.4896 -0.1870
  283MOL0     C37249   9.098   1.156   0.302 -0.1635 -0.1352 -0.5275
  283MOL0     C37250   8.983   1.231   0.315  0.1091 -0.1432 -0.0488
  283MOL0     C37251   8.861   1.192   0.248 -0.5098 -0.4009 -1.0781
  283MOL0     C37252   8.856   1.075   0.177  0.3762 -0.3023  0.3589
  283MOL0     C37253   8.728   1.048   0.119  0.1279  0.0019  1.0327
  283MOL0     O37254   8.611   1.052   0.188 -0.2398  0.4671  0.5324
  283MOL0     C37255   8.492   1.008   0.129  0.6001 -0.2905 -0.0572
  283MOL0     C37256   8.477   0.904   0.040 -0.4900  0.7579  0.0309
  283MOL0     C37257   8.350   0.859   0.006 -0.0426 -0.2552 -0.9270
  283MOL0     C37258   8.240   0.912   0.064 -0.3045  1.5116  0.1280
  283MOL0     O37259   8.118   0.855   0.056  0.0958  0.1253 -0.0945
  283MOL0     C37260   8.093   0.714   0.026  0.9858 -1.0390 -0.5425
  283MOL0     C37261   7.948   0.679   0.079 -0.3546  0.2359  0.1693
  283MOL0     C37262   7.946   0.677   0.235  0.1644 -0.0645  0.3700
  283MOL0     C37263   7.807   0.673   0.290  0.7787 -0.0839  0.0209
  283MOL0     C37264   7.705   0.570   0.229 -0.0700  0.1730  0.1349
  283MOL0     C37265   7.723   0.408   0.260 -0.8827 -0.2810 -0.3975
  283MOL0     C37266   7.634   0.321   0.162  0.7016  0.0678  0.6004
  283MOL0     C37267   7.703   0.286   0.040  0.2469 -0.0840  0.0776
  283MOL0    Cl37268   7.723   0.416  -0.063 -0.3734  0.2937 -0.1053
  283MOL0     C37269   8.249   1.021   0.146  0.8325 -0.2257 -1.2121
  283MOL0     C37270   8.371   1.066   0.179  0.2744 -1.0831  0.4578
  283MOL0     O37271   8.743   1.005   0.002 -0.6150 -0.2707  0.0623
  283MOL0     C37272   8.973   1.000   0.165  1.0683 -0.9442  0.0908
  283MOL0     C37273   9.093   1.039   0.231 -0.5137  0.2955  0.3167
  283MOL0     N37274   9.492   1.539   0.878  0.4789 -0.9139  0.0863
  283MOL0     N37275   9.519   1.585   0.995  0.3844 -1.1398 -0.0257
  283MOL0     C37276   9.853   1.119   1.687 -0.2018 -0.4185  0.0907
  283MOL0     C37277   9.815   1.060   1.798  0.3354  0.3119  0.0762
  283MOL0     C37278   9.800   0.808   2.205  1.0149 -0.3604 -0.8068
  283MOL0     C37279   9.798   0.684   2.267  0.5259  0.0169 -0.3072
  283MOL0     C37280   9.731   0.667   2.388  0.4093  0.3039  0.1848
  283MOL0     C37281   9.649   0.773   2.433  0.0849 -0.2418  0.0925
  283MOL0     O37282   9.562   0.765   2.535 -0.1885  0.6107 -0.0966
  283MOL0     C37283   9.455   0.660   2.528  0.0677  0.1812  0.4002
  283MOL0     C37284   9.382   0.644   2.398  1.1903  0.5068 -0.6417
  283MOL0     C37285   9.302   0.772   2.357 -0.1965 -0.7615  0.5367
  283MOL0     C37286   9.196   0.742   2.261  0.2498  0.2404  0.4557
  283MOL0     C37287   9.119   0.865   2.239 -0.7510  0.2760 -0.6331
  283MOL0     C37288   9.042   0.958   2.216 -1.1526  0.0295 -0.0041
  283MOL0     C37289   9.651   0.894   2.363  0.0974 -0.4141  0.3555
  283MOL0     C37290   9.733   0.914   2.254  0.6588  0.4711  0.4716
  283MOL0     H37291  10.081   0.857   1.871  1.1260  0.6648 -1.7679
  283MOL0     H37292  10.145   0.952   1.638 -3.2284 -1.3091 -4.7032
  283MOL0     H37293  10.188   1.212   1.493  0.0023 -0.5683  0.5559
  283MOL0     H37294  10.062   1.303   1.593 -0.8335  1.3518 -0.8776
  283MOL0     H37295  10.026   1.251   1.293 -2.5542 -1.2010  0.2473
  283MOL0     H37296  10.094   1.409   1.369  1.0168 -0.2710  0.0476
  283MOL0     H37297   9.882   1.461   1.343  0.2708 -1.2686 -1.0804
  283MOL0     H37298   9.881   1.403   1.506 -2.4619  2.6281 -1.1547
  283MOL0     H37299   9.787   1.259   1.260 -0.2684  0.6232  0.7416
  283MOL0     H37300   9.797   1.178   1.421  1.2890 -0.2660  1.7451
  283MOL0     H37301   9.619   1.335   1.493  0.7602  1.1540  0.8222
  283MOL0     H37302   9.564   1.232   1.359 -1.9494  1.8585  0.5720
  283MOL0     H37303   9.608   1.423   1.189 -4.2649 -2.3544 -0.6555
  283MOL0     H37304   9.657   1.527   1.321 -0.2401 -0.4848  1.1312
  283MOL0     H37305   9.380   1.385   1.295  2.8438 -1.3568 -2.0527
  283MOL0     H37306   9.426   1.508   1.418  1.1600  0.9358  0.3219
  283MOL0     H37307   9.465   1.672   1.245 -1.7150  2.2496 -2.6092
  283MOL0     H37308   9.302   1.633   1.237 -0.4018 -1.8771  2.8798
  283MOL0     H37309   9.238   1.420   1.050  0.0142 -0.3955  0.3129
  283MOL0     H37310   9.231   1.481   0.738  2.2041  2.4952  0.4921
  283MOL0     H37311   9.259   1.305   0.779  0.2645 -0.3548  1.8260
  283MOL0     H37312   9.498   1.386   0.635 -0.0691 -2.5820 -1.7896
  283MOL0     H37313   9.370   1.481   0.576 -0.3372  1.3719  0.2147
  283MOL0     H37314   9.439   1.275   0.494  1.0628  2.7329  1.0320
  283MOL0     H37315   9.363   1.180   0.620  2.1603  2.3193  2.2558
  283MOL0     H37316   9.200   1.374   0.441  0.0938  1.5691  1.4618
  283MOL0     H37317   9.142   1.252   0.553  0.3169 -0.3384  0.8549
  283MOL0     H37318   8.986   1.326   0.368  2.0185 -1.7627  3.0699
  283MOL0     H37319   8.770   1.245   0.276 -1.2674 -3.4653  3.2691
  283MOL0     H37320   8.559   0.857  -0.014  1.0711  1.0397  1.9991
  283MOL0     H37321   8.331   0.776  -0.061 -1.3032 -1.6104  0.9827
  283MOL0     H37322   8.163   0.647   0.077 -0.0448  0.7323  3.6268
  283MOL0     H37323   8.086   0.686  -0.080 -2.1826 -1.8705 -0.1978
  283MOL0     H37324   7.905   0.585   0.041  0.8679  0.4919 -2.0131
  283MOL0     H37325   7.877   0.747   0.032 -0.3051  0.2349  0.0918
  283MOL0     H37326   7.969   0.773   0.281 -3.6040  1.2819 -0.2053
  283MOL0     H37327   8.005   0.593   0.273 -0.2436  0.3624  2.0401
  283MOL0     H37328   7.815   0.655   0.398 -1.8642 -0.7289  0.1664
  283MOL0     H37329   7.763   0.770   0.266 -0.5056 -1.0108 -1.5601
  283MOL0     H37330   7.689   0.594   0.123 -3.2970 -0.0882  0.4707
  283MOL0     H37331   7.605   0.598   0.263 -0.4164 -0.2984 -0.4669
  283MOL0     H37332   7.675   0.400   0.357  1.3689  2.2450  1.0714
  283MOL0     H37333   7.830   0.392   0.270 -0.7110  0.8366 -0.2583
  283MOL0     H37334   7.602   0.236   0.224  1.4265 -0.1358  0.6980
  283MOL0     H37335   7.541   0.374   0.136 -1.0599 -3.3033 -0.5232
  283MOL0     H37336   7.668   0.195  -0.009 -1.6782 -0.8425  2.6800
  283MOL0     H37337   7.804   0.259   0.074 -0.1257 -2.1720 -0.3092
  283MOL0     H37338   8.162   1.065   0.194  2.2484 -0.8063  2.1519
  283MOL0     H37339   8.372   1.150   0.247 -1.0607 -1.8311  1.4448
  283MOL0     H37340   8.960   0.919   0.094 -4.2804  1.1084 -1.7585
  283MOL0     H37341   9.188   0.988   0.218 -0.3253  0.6974  0.1093
  283MOL0     H37342   9.796   1.202   1.647 -0.9716 -0.6988  0.5931
  283MOL0     H37343   9.723   1.091   1.846  2.0990  0.3231  3.7235
  283MOL0     H37344   9.848   0.603   2.217  0.2131  0.0317 -0.6489
  283MOL0     H37345   9.730   0.572   2.441  0.6531  0.0101 -0.3308
  283MOL0     H37346   9.381   0.685   2.605 -1.7596 -0.4562 -1.0756
  283MOL0     H37347   9.498   0.564   2.559 -0.6758 -0.0697  0.6725
  283MOL0     H37348   9.453   0.614   2.321  0.0017  0.7985 -1.8794
  283MOL0     H37349   9.306   0.566   2.410 -0.4675  2.2302  0.5806
  283MOL0     H37350   9.367   0.851   2.320 -2.5225  0.5371 -0.9826
  283MOL0     H37351   9.270   0.812   2.454  0.0147 -0.8331  0.6366
  283MOL0     H37352   9.235   0.701   2.168 -0.0098  0.1418  0.3872
  283MOL0     H37353   9.121   0.666   2.286 -3.4600  2.1514 -3.4348
  283MOL0     H37354   8.981   1.045   2.212 -0.1754  0.9269  2.6457
  283MOL0     H37355   9.583   0.974   2.392 -1.0959 -1.2141 -0.1690
  283MOL0     H37356   9.729   1.008   2.199 -2.6598 -0.7699 -1.6856
  284MOL0     O37357   3.406   1.534  10.763 -0.7629  0.7293 -1.2689
  284MOL0     C37358   3.417   1.557  10.888 -0.8683  0.0848  1.4171
  284MOL0     O37359   3.512   1.510  10.970  0.0933 -1.3728  0.0852
  284MOL0     C37360   3.627   1.472  10.922 -0.6016  0.1160 -0.3258
  284MOL0     C37361   3.633   1.344  10.861 -0.6436 -0.5109 -0.3510
  284MOL0     C37362   3.752   1.299  10.810 -0.6784  0.4882  0.0180
  284MOL0     C37363   3.859   1.386  10.802 -0.9693  0.3766  0.1636
  284MOL0     O37364   3.983   1.348  10.753  0.2133 -0.2733  0.1243
  284MOL0     C37365   3.980   1.253  10.636 -0.1817 -0.2632 -0.1687
  284MOL0     C37366   4.131   1.223  10.606  0.5053  0.0147 -0.7859
  284MOL0     C37367   4.143   1.088  10.546  0.5122 -0.7320  0.1303
  284MOL0     C37368   4.101   1.077  10.398 -0.6650 -0.0831 -0.2414
  284MOL0     C37369   4.106   0.941  10.332 -0.7207  0.0226  0.1597
  284MOL0     C37370   3.968   0.864  10.342  0.3643  0.7230  0.9504
  284MOL0     C37371   4.000   0.716  10.369  0.0684  0.0463  0.4951
  284MOL0     C37372   4.040   0.664  10.512 -1.1285  1.4139  0.1642
  284MOL0     N37373   4.124   0.546  10.482 -0.8432  0.2699  0.1967
  284MOL0     C37374   4.255   0.560  10.475 -0.0862 -0.2396  0.7722
  284MOL0     C37375   4.302   0.451  10.410  0.3243  1.0177 -0.4243
  284MOL0     C37376   4.443   0.436  10.388 -0.5502  0.0766  0.3222
  284MOL0     C37377   4.483   0.377  10.258  0.0350  0.1114 -0.0736
  284MOL0     C37378   4.634   0.342  10.283  0.2079  0.9939  0.6618
  284MOL0     C37379   4.695   0.285  10.154  0.7375 -0.1546 -0.4821
  284MOL0     O37380   4.622   0.183  10.090  0.2721  0.8387 -0.5801
  284MOL0     C37381   4.627   0.054  10.144  0.0367  0.0440  0.0283
  284MOL0     C37382   4.713   0.003  10.251 -0.2903 -0.4018 -0.6932
  284MOL0     C37383   4.728  -0.136  10.274 -0.4926 -0.0828 -0.9469
  284MOL0     C37384   4.637  -0.228  10.218  0.8404  1.4455 -0.8485
  284MOL0     C37385   4.637  -0.366  10.270  0.3242  0.0359  1.1836
  284MOL0     O37386   4.562  -0.453  10.191  0.3106  0.0288  0.1764
  284MOL0     C37387   4.571  -0.584  10.213  0.0509  1.3453 -0.1796
  284MOL0     C37388   4.503  -0.662  10.307 -0.6667 -0.4249  0.4628
  284MOL0     C37389   4.546  -0.794  10.333  0.8581  0.0243 -0.3180
  284MOL0     C37390   4.654  -0.851  10.256 -0.9370 -0.4298 -0.5114
  284MOL0     O37391   4.715  -0.975  10.265 -1.0569  0.4180  0.1528
  284MOL0     C37392   4.651  -1.070  10.353 -0.8825 -0.4465 -1.3022
  284MOL0     C37393   4.691  -1.058  10.499 -0.0293  0.4655  0.2267
  284MOL0     C37394   4.619  -1.181  10.576 -0.2337  0.5955  0.1110
  284MOL0     C37395   4.469  -1.173  10.581  0.7358 -0.3736  0.5455
  284MOL0     C37396   4.411  -1.288  10.675  0.5986 -1.1794 -1.1909
  284MOL0     C37397   4.251  -1.275  10.680  0.6847 -0.3688  0.1594
  284MOL0     C37398   4.197  -1.156  10.743  0.0020 -0.4714 -0.2086
  284MOL0     C37399   4.233  -1.149  10.891 -0.7384 -0.2160 -0.1801
  284MOL0    Cl37400   4.143  -1.254  10.992 -0.1968 -0.4490  0.1327
  284MOL0     C37401   4.700  -0.786  10.155 -0.4222  0.2200 -0.0785
  284MOL0     C37402   4.656  -0.651  10.126  0.6002  0.0560  0.0664
  284MOL0     O37403   4.708  -0.391  10.368 -0.9986  0.0828  0.5429
  284MOL0     C37404   4.568  -0.185  10.107 -0.1853 -0.7575 -0.2708
  284MOL0     C37405   4.562  -0.044  10.069  0.3083  1.1874 -1.7557
  284MOL0     N37406   4.202   0.357  10.403 -0.1007 -0.0163 -0.5337
  284MOL0     N37407   4.093   0.420  10.441 -0.2625  0.1911  0.0530
  284MOL0     C37408   3.854   1.515  10.862  0.3756  0.2015  0.6312
  284MOL0     C37409   3.737   1.554  10.930  0.3347  0.0042  0.7055
  284MOL0     C37410   3.319   1.655  10.941 -0.3211 -0.6565 -0.8923
  284MOL0     C37411   3.350   1.711  11.070 -0.0928  0.1997 -0.4995
  284MOL0     C37412   3.258   1.790  11.132  0.0259  0.0426  0.0350
  284MOL0     C37413   3.132   1.813  11.080 -0.7122  0.3279 -0.0698
  284MOL0     O37414   3.039   1.900  11.137  0.5314 -0.0054 -0.1649
  284MOL0     C37415   2.928   1.966  11.062  0.1743 -0.3741 -0.2023
  284MOL0     C37416   2.901   2.102  11.123  0.1884 -1.0009 -0.2856
  284MOL0     C37417   2.777   2.182  11.096 -0.0377  0.4021  0.7102
  284MOL0     C37418   2.774   2.224  10.944 -0.1069 -0.0932  0.2945
  284MOL0     C37419   2.640   2.283  10.906  1.3198 -0.4549  0.2647
  284MOL0     C37420   2.530   2.325  10.888 -0.0400 -0.5524  0.0782
  284MOL0     C37421   3.112   1.772  10.947 -0.2708 -0.2059  1.0002
  284MOL0     C37422   3.199   1.692  10.873  0.2402 -0.6295 -1.0134
  284MOL0     H37423   3.554   1.272  10.847 -0.2043 -1.1795  0.5698
  284MOL0     H37424   3.749   1.195  10.779 -2.8993  0.7895 -1.0078
  284MOL0     H37425   3.928   1.302  10.554  1.4152  1.0457 -0.4568
  284MOL0     H37426   3.918   1.166  10.663 -0.6311  0.0454 -0.1970
  284MOL0     H37427   4.196   1.231  10.694  0.0020  0.6987 -0.4718
  284MOL0     H37428   4.173   1.292  10.531 -0.2536 -0.8972 -2.0838
  284MOL0     H37429   4.083   1.022  10.609  0.1802  1.2721  2.0151
  284MOL0     H37430   4.248   1.065  10.563  0.9974  0.8962 -0.4348
  284MOL0     H37431   3.997   1.111  10.391 -0.8738 -0.9314 -1.8469
  284MOL0     H37432   4.173   1.141  10.346 -0.6437 -0.2575 -0.4335
  284MOL0     H37433   4.172   0.874  10.386 -3.9008 -2.8047  0.8510
  284MOL0     H37434   4.143   0.950  10.229  1.0326 -3.2255  0.3946
  284MOL0     H37435   3.915   0.866  10.246  0.8789 -0.6500  0.6024
  284MOL0     H37436   3.899   0.906  10.416  0.4573 -0.3202  1.6546
  284MOL0     H37437   3.912   0.654  10.348  1.4083 -1.6735 -0.3243
  284MOL0     H37438   4.076   0.686  10.296 -1.0901  0.6407 -1.0106
  284MOL0     H37439   3.956   0.632  10.575  1.9200 -1.2953  3.2790
  284MOL0     H37440   4.099   0.731  10.574 -0.4577 -0.0895  1.2128
  284MOL0     H37441   4.314   0.651  10.472 -0.6579  0.1127 -0.5395
  284MOL0     H37442   4.473   0.366  10.467 -0.5451  0.6702  0.8512
  284MOL0     H37443   4.491   0.532  10.404  1.6235 -1.3295  3.2206
  284MOL0     H37444   4.460   0.447  10.178  0.2146 -0.8153 -0.9494
  284MOL0     H37445   4.419   0.289  10.246 -1.3154  1.0055  0.4513
  284MOL0     H37446   4.699   0.414  10.334  2.6972  0.3841 -1.4389
  284MOL0     H37447   4.616   0.257  10.349 -2.4119  1.0968  0.1837
  284MOL0     H37448   4.796   0.257  10.186  1.2016  0.6888 -1.1813
  284MOL0     H37449   4.710   0.369  10.086 -2.7003  0.9546 -0.0411
  284MOL0     H37450   4.762   0.080  10.310 -1.5888  1.1616 -1.5668
  284MOL0     H37451   4.796  -0.158  10.356  1.7923  1.6186 -2.2586
  284MOL0     H37452   4.428  -0.615  10.370  0.1783 -2.0868  2.8428
  284MOL0     H37453   4.503  -0.849  10.416  1.2759 -0.0078 -0.1162
  284MOL0     H37454   4.666  -1.176  10.330 -2.9930 -1.0525 -0.2303
  284MOL0     H37455   4.543  -1.063  10.337 -1.1155 -2.4389 -0.9297
  284MOL0     H37456   4.651  -0.962  10.531 -0.7800 -0.0934  1.0346
  284MOL0     H37457   4.799  -1.042  10.502  0.2752  0.4899 -4.3137
  284MOL0     H37458   4.653  -1.177  10.680  0.0999  0.0093  0.0261
  284MOL0     H37459   4.650  -1.276  10.532 -2.0702  0.0958 -0.2057
  284MOL0     H37460   4.451  -1.076  10.628  0.5708  0.3449 -0.9390
  284MOL0     H37461   4.419  -1.181  10.484  0.6129 -1.5766  0.6896
  284MOL0     H37462   4.461  -1.273  10.771 -0.7793  1.5888 -0.8116
  284MOL0     H37463   4.434  -1.391  10.647  1.6934 -1.0682 -0.7520
  284MOL0     H37464   4.203  -1.358  10.734  0.8525  0.5340  1.7583
  284MOL0     H37465   4.219  -1.277  10.576  1.2980 -2.2278 -0.0288
  284MOL0     H37466   4.227  -1.060  10.700 -3.2602  1.4171  1.3422
  284MOL0     H37467   4.089  -1.159  10.726 -0.1002 -0.9853  0.5082
  284MOL0     H37468   4.208  -1.049  10.927 -0.2553 -0.3830  0.6522
  284MOL0     H37469   4.341  -1.144  10.911 -0.9278 -0.2074  0.9191
  284MOL0     H37470   4.773  -0.833  10.090 -1.6928  2.7079 -3.5924
  284MOL0     H37471   4.707  -0.591  10.051  1.3296  2.5173  2.3817
  284MOL0     H37472   4.496  -0.247  10.055  0.0327 -0.4191 -1.0020
  284MOL0     H37473   4.497  -0.016   9.988 -0.7443  0.0140 -1.3464
  284MOL0     H37474   3.940   1.580  10.846  0.7089 -0.8433 -2.4892
  284MOL0     H37475   3.722   1.653  10.972  0.9118  0.0802  0.7388
  284MOL0     H37476   3.448   1.689  11.113  0.7832 -2.1804 -3.3444
  284MOL0     H37477   3.286   1.831  11.229 -1.3744 -2.4217  1.5933
  284MOL0     H37478   2.841   1.901  11.075  1.0745 -1.7912 -1.0896
  284MOL0     H37479   2.948   1.984  10.956  3.4139 -0.2343  0.3285
  284MOL0     H37480   2.903   2.090  11.232 -0.4800  1.2353  0.0229
  284MOL0     H37481   2.987   2.165  11.100 -2.0089  2.9629  1.3957
  284MOL0     H37482   2.767   2.256  11.175 -0.2638  0.9407  0.1836
  284MOL0     H37483   2.702   2.104  11.109  0.8072 -0.2278  2.1253
  284MOL0     H37484   2.849   2.302  10.926 -1.7571  0.6629 -5.0487
  284MOL0     H37485   2.793   2.139  10.878 -2.1896  0.8413 -1.6395
  284MOL0     H37486   2.433   2.371  10.879  0.4979  0.6662  0.3441
  284MOL0     H37487   3.018   1.804  10.902 -0.0841 -0.3237  0.5220
  284MOL0     H37488   3.172   1.663  10.772  1.7262 -0.2917 -1.5319
  285MOL0     O37489   2.832   8.348   5.095  0.1026  0.5821 -0.2169
  285MOL0     C37490   2.836   8.337   5.221 -0.0342  0.5533 -0.4256
  285MOL0     O37491   2.947   8.346   5.296  0.2833 -0.6769 -0.0396
  285MOL0     C37492   3.068   8.357   5.234 -0.6358  0.7173  0.0207
  285MOL0     C37493   3.152   8.459   5.265 -0.1046  0.4133  0.1471
  285MOL0     C37494   3.278   8.459   5.208  0.9925 -0.4312  1.2476
  285MOL0     C37495   3.323   8.361   5.108  0.3438 -1.0617  0.6020
  285MOL0     O37496   3.446   8.368   5.038  0.2209 -0.3593 -0.3212
  285MOL0     C37497   3.557   8.420   5.116 -0.6793  0.2304 -0.0312
  285MOL0     C37498   3.671   8.444   5.017 -1.2254 -0.7845 -0.3526
  285MOL0     C37499   3.798   8.463   5.097  0.2435  0.1638  0.0843
  285MOL0     C37500   3.911   8.475   4.998  0.1888  0.0529  0.5528
  285MOL0     C37501   4.040   8.482   5.087 -0.3459  0.1404 -0.6034
  285MOL0     C37502   4.161   8.527   5.018  0.1827  0.2960  0.1042
  285MOL0     C37503   4.207   8.423   4.918 -0.2753  0.8829 -0.8117
  285MOL0     C37504   4.309   8.460   4.816 -0.6084 -0.0604  0.4610
  285MOL0     N37505   4.398   8.349   4.773 -0.0019 -0.2275 -0.0819
  285MOL0     C37506   4.355   8.249   4.689 -0.7096 -0.1535  0.4750
  285MOL0     C37507   4.468   8.191   4.661 -0.5246  1.2393 -0.2750
  285MOL0     C37508   4.482   8.067   4.577  0.1281  0.7759 -0.4057
  285MOL0     C37509   4.617   8.058   4.513 -0.3272  0.9545  0.3246
  285MOL0     C37510   4.631   7.929   4.432 -0.3566  0.8190 -0.4854
  285MOL0     C37511   4.770   7.899   4.388 -0.1560  0.1378 -0.2383
  285MOL0     O37512   4.779   7.762   4.350 -0.4085  0.2624 -0.2747
  285MOL0     C37513   4.896   7.716   4.302 -0.5496  0.1372 -0.0961
  285MOL0     C37514   4.902   7.594   4.242 -0.9553  0.5602 -0.2372
  285MOL0     C37515   5.023   7.545   4.200  0.0234 -0.2713 -0.1447
  285MOL0     C37516   5.148   7.594   4.243 -0.1812  0.3413 -0.1612
  285MOL0     C37517   5.282   7.526   4.223 -0.7344  0.0484 -0.2216
  285MOL0     O37518   5.397   7.556   4.295  0.3786 -0.4572  0.4506
  285MOL0     C37519   5.513   7.479   4.285  0.3317 -0.2759 -0.6822
  285MOL0     C37520   5.568   7.427   4.168 -0.5865 -0.1386  0.4538
  285MOL0     C37521   5.699   7.366   4.167  0.0328  0.0363 -0.1889
  285MOL0     C37522   5.767   7.354   4.286  0.1726  0.0715  0.9949
  285MOL0     O37523   5.895   7.288   4.267  0.2745  0.5482 -0.3027
  285MOL0     C37524   5.993   7.290   4.372  0.1369 -0.8977 -0.0639
  285MOL0     C37525   6.128   7.247   4.315  0.2457 -0.2670  0.7626
  285MOL0     C37526   6.161   7.105   4.372  0.2466 -0.8417 -0.1154
  285MOL0     C37527   6.297   7.057   4.327 -0.6546 -1.2192  0.2628
  285MOL0     C37528   6.342   6.934   4.383 -0.2699 -0.6374  1.1597
  285MOL0     C37529   6.487   6.891   4.333  1.3455  0.3747  0.1663
  285MOL0     C37530   6.599   6.991   4.370 -0.5262 -0.7308  0.6954
  285MOL0     C37531   6.736   6.927   4.415 -0.7472  0.7743  0.3396
  285MOL0    Cl37532   6.850   6.888   4.270  0.2397  0.0267 -0.3297
  285MOL0     C37533   5.714   7.395   4.408 -0.2936  0.5835 -0.3013
  285MOL0     C37534   5.587   7.457   4.406 -0.3990  0.1863  0.2770
  285MOL0     O37535   5.275   7.427   4.147 -0.1673 -0.0407  0.1159
  285MOL0     C37536   5.138   7.721   4.292  0.1044 -0.8490 -0.3087
  285MOL0     C37537   5.016   7.788   4.311 -0.0347 -0.2791  0.6524
  285MOL0     N37538   4.576   8.241   4.723  0.2567 -0.1636  0.0330
  285MOL0     N37539   4.527   8.339   4.795 -0.4038 -0.4933  0.2210
  285MOL0     C37540   3.228   8.266   5.078 -0.8176 -0.2589 -0.2397
  285MOL0     C37541   3.106   8.265   5.138  0.5081  0.0665 -0.4096
  285MOL0     C37542   2.717   8.321   5.289  0.3404  0.6018  0.3794
  285MOL0     C37543   2.708   8.320   5.423  0.1190 -0.3746 -0.5085
  285MOL0     C37544   2.590   8.289   5.487 -0.1431  0.9865  0.6744
  285MOL0     C37545   2.471   8.260   5.419  0.6167 -0.2363  0.0364
  285MOL0     O37546   2.358   8.256   5.493  0.1021  0.3367 -1.0689
  285MOL0     C37547   2.239   8.202   5.446 -0.0523  1.0207  0.0291
  285MOL0     C37548   2.253   8.053   5.419 -0.4004  0.7528 -0.2316
  285MOL0     C37549   2.278   7.956   5.536  0.8599  0.3424  0.5372
  285MOL0     C37550   2.158   7.936   5.631 -0.8958 -0.2066  0.3161
  285MOL0     C37551   2.059   7.851   5.573  0.1400 -0.2975  0.2556
  285MOL0     C37552   1.975   7.774   5.529  0.6836  0.5252 -0.4270
  285MOL0     C37553   2.478   8.257   5.277  0.1384  0.1432  0.1252
  285MOL0     C37554   2.597   8.277   5.213  0.4994 -0.0077  0.4623
  285MOL0     H37555   3.130   8.531   5.343 -2.7962  0.6634 -0.7467
  285MOL0     H37556   3.343   8.545   5.224  1.2015 -0.1338 -0.8598
  285MOL0     H37557   3.581   8.357   5.202 -2.4013  2.4337  2.2102
  285MOL0     H37558   3.527   8.513   5.166  0.4957  1.9458 -2.3396
  285MOL0     H37559   3.639   8.533   4.962  1.2070  1.0687  1.0176
  285MOL0     H37560   3.678   8.364   4.943 -1.9093  1.4676 -3.0189
  285MOL0     H37561   3.807   8.375   5.161 -1.5035  0.5590  0.9276
  285MOL0     H37562   3.787   8.552   5.160  1.3894  0.1836  0.2816
  285MOL0     H37563   3.922   8.401   4.917 -0.9609  0.7187 -0.2450
  285MOL0     H37564   3.899   8.572   4.950 -0.7133 -0.8323 -1.0986
  285MOL0     H37565   4.056   8.393   5.149  1.3659  0.6268 -0.3184
  285MOL0     H37566   4.036   8.559   5.164  1.0700  0.7805 -1.1418
  285MOL0     H37567   4.242   8.549   5.089  1.0250  1.0150 -1.0455
  285MOL0     H37568   4.143   8.619   4.961  2.6379  0.2539 -0.8603
  285MOL0     H37569   4.245   8.334   4.970  0.3362  1.7999  0.3564
  285MOL0     H37570   4.119   8.401   4.857 -1.8557  1.4207  1.1473
  285MOL0     H37571   4.371   8.541   4.855 -0.6985  1.1146 -1.7153
  285MOL0     H37572   4.272   8.499   4.720 -0.0919 -2.4542 -0.7777
  285MOL0     H37573   4.253   8.232   4.654 -0.5750 -0.7804  0.3723
  285MOL0     H37574   4.396   8.067   4.509 -1.6434 -1.4300  1.6730
  285MOL0     H37575   4.462   7.975   4.633  2.4794  0.6911  0.3761
  285MOL0     H37576   4.684   8.044   4.598  0.1971  0.7323 -0.1210
  285MOL0     H37577   4.652   8.147   4.460  1.4410  0.0281 -0.1164
  285MOL0     H37578   4.594   7.845   4.492 -0.9759  3.0078  2.4279
  285MOL0     H37579   4.566   7.937   4.345  1.6933 -0.5022 -2.2383
  285MOL0     H37580   4.847   7.911   4.465  3.0875 -0.6083 -3.1032
  285MOL0     H37581   4.801   7.972   4.313  2.6886  2.8309  3.1545
  285MOL0     H37582   4.808   7.541   4.226  0.6209 -2.1743 -1.1182
  285MOL0     H37583   5.023   7.442   4.167 -0.1856 -1.0988  2.2642
  285MOL0     H37584   5.518   7.447   4.075 -0.3419  0.4490  0.4471
  285MOL0     H37585   5.739   7.319   4.077 -0.4336  0.8705 -0.8485
  285MOL0     H37586   5.965   7.226   4.456  0.3076  0.6936  1.2771
  285MOL0     H37587   6.012   7.388   4.418  1.4391 -1.4073  0.5455
  285MOL0     H37588   6.215   7.310   4.336  2.1423 -1.8520 -1.7776
  285MOL0     H37589   6.125   7.242   4.206 -2.4320 -1.3671  0.7942
  285MOL0     H37590   6.086   7.034   4.337  0.5352  0.1629 -2.9690
  285MOL0     H37591   6.158   7.110   4.482  3.2686  0.3269 -0.0014
  285MOL0     H37592   6.280   7.041   4.220  0.8909  1.3360 -0.4579
  285MOL0     H37593   6.373   7.135   4.342  0.3328 -1.7628 -1.5873
  285MOL0     H37594   6.277   6.849   4.360 -1.3498  0.6845 -1.0145
  285MOL0     H37595   6.350   6.941   4.492  0.8686  1.3049  1.0000
  285MOL0     H37596   6.489   6.862   4.228 -0.2828 -2.0748  0.7274
  285MOL0     H37597   6.505   6.794   4.382  1.5475 -0.2086 -1.0346
  285MOL0     H37598   6.615   7.058   4.285  1.1870  2.3980  3.2655
  285MOL0     H37599   6.567   7.052   4.455 -1.2866 -0.0415 -0.0601
  285MOL0     H37600   6.724   6.833   4.470  0.3083  2.7437  4.3101
  285MOL0     H37601   6.794   6.998   4.474  1.8002 -0.9428  0.0725
  285MOL0     H37602   5.769   7.382   4.501  1.1657 -1.3995 -1.3648
  285MOL0     H37603   5.546   7.500   4.497  4.1702  3.4162  1.1620
  285MOL0     H37604   5.228   7.776   4.317  2.0216 -2.5523 -2.9180
  285MOL0     H37605   5.016   7.885   4.358 -1.9599 -0.8764  2.0175
  285MOL0     H37606   3.255   8.189   5.006  0.1160 -0.2691  0.1063
  285MOL0     H37607   3.032   8.199   5.095 -0.6682  0.2875  1.1895
  285MOL0     H37608   2.790   8.348   5.489  0.0734 -0.8528 -0.2462
  285MOL0     H37609   2.597   8.285   5.595 -0.6854  0.0232  0.6827
  285MOL0     H37610   2.209   8.258   5.357 -1.6978  1.0660  0.5696
  285MOL0     H37611   2.165   8.232   5.521  0.4548  1.4169  0.3748
  285MOL0     H37612   2.173   8.016   5.355  0.2848 -1.5440  0.1357
  285MOL0     H37613   2.342   8.039   5.356  1.1513 -2.4353  2.3780
  285MOL0     H37614   2.363   7.995   5.594  1.1156 -0.4347  0.6922
  285MOL0     H37615   2.316   7.859   5.502 -0.4047  0.2536 -0.7246
  285MOL0     H37616   2.196   7.884   5.720  0.1220  1.1355  0.6965
  285MOL0     H37617   2.120   8.034   5.662 -2.1214 -0.9458  1.2517
  285MOL0     H37618   1.890   7.714   5.504  1.0061 -1.6715  3.0238
  285MOL0     H37619   2.394   8.231   5.212  2.0902  0.6748 -2.7861
  285MOL0     H37620   2.612   8.262   5.107 -0.7591 -2.0884  0.5188
  286MOL0     O37621   5.249   4.244   0.807 -0.2116 -0.2860 -0.7842
  286MOL0     C37622   5.359   4.280   0.785 -0.1699  0.5479 -0.4085
  286MOL0     O37623   5.414   4.311   0.663 -0.1267 -0.3732 -0.1378
  286MOL0     C37624   5.329   4.284   0.560 -0.5003 -0.0080 -0.6140
  286MOL0     C37625   5.398   4.203   0.471  0.0073  0.9236 -0.4335
  286MOL0     C37626   5.336   4.149   0.360  0.9924  0.1699 -0.2891
  286MOL0     C37627   5.206   4.189   0.326  0.1585 -1.1332  0.9120
  286MOL0     O37628   5.144   4.109   0.230  0.4199 -0.0150  0.1582
  286MOL0     C37629   4.999   4.129   0.203  0.5934  0.3785 -0.4386
  286MOL0     C37630   4.920   4.070   0.317  0.5574 -0.2481 -0.4818
  286MOL0     C37631   4.769   4.090   0.302  0.3746 -0.2799  0.5021
  286MOL0     C37632   4.697   4.050   0.431  0.3313 -0.3959 -0.6583
  286MOL0     C37633   4.540   4.043   0.429  0.2957 -0.7198  0.8249
  286MOL0     C37634   4.491   4.020   0.578 -0.4910 -0.0944  1.4304
  286MOL0     C37635   4.349   3.973   0.580 -0.7612  0.4621  0.7556
  286MOL0     C37636   4.258   4.084   0.565 -0.5848 -0.5318  0.1105
  286MOL0     N37637   4.122   4.036   0.598  0.0536  0.3330  0.5835
  286MOL0     C37638   4.043   4.069   0.705 -0.0356  0.2911 -0.2434
  286MOL0     C37639   3.952   3.969   0.705  0.4435 -0.5657 -1.1039
  286MOL0     C37640   3.853   3.953   0.823  0.3705 -1.0936  0.0201
  286MOL0     C37641   3.843   3.809   0.875  0.5153 -0.2480 -0.6220
  286MOL0     C37642   3.708   3.788   0.954  0.0083 -0.3099  0.4202
  286MOL0     C37643   3.678   3.875   1.075  0.4206  0.3647 -0.0035
  286MOL0     O37644   3.575   3.984   1.048 -1.1858  0.2700 -0.9478
  286MOL0     C37645   3.450   3.953   1.085  0.0667 -0.4714  0.4761
  286MOL0     C37646   3.404   3.838   1.157  0.4672  0.4305  0.0173
  286MOL0     C37647   3.276   3.823   1.202  0.9131  0.2477  0.1879
  286MOL0     C37648   3.179   3.918   1.159 -1.2896  0.6639  0.3630
  286MOL0     C37649   3.037   3.901   1.191 -0.1127  0.8484 -0.6401
  286MOL0     O37650   2.987   3.775   1.235  0.8413 -0.0134  0.6466
  286MOL0     C37651   2.852   3.770   1.242  0.3717  0.1584 -0.5179
  286MOL0     C37652   2.779   3.730   1.131  0.4958 -0.8212  0.3450
  286MOL0     C37653   2.638   3.708   1.141 -0.0404  0.0075  0.3828
  286MOL0     C37654   2.578   3.701   1.263  0.8866 -0.9062 -1.2001
  286MOL0     O37655   2.449   3.679   1.296  0.2988 -0.3452 -0.4051
  286MOL0     C37656   2.373   3.591   1.219  0.1563  0.2271  0.1417
  286MOL0     C37657   2.227   3.564   1.272  0.1439 -0.3150  0.3098
  286MOL0     C37658   2.141   3.467   1.184  0.0582 -0.5894  0.2416
  286MOL0     C37659   2.017   3.426   1.277  0.1252  0.6802  0.2071
  286MOL0     C37660   1.922   3.331   1.202  0.0101  0.0500  0.4536
  286MOL0     C37661   1.821   3.261   1.297  0.4371  0.2844 -0.9372
  286MOL0     C37662   1.699   3.201   1.231  0.5208 -0.5891  0.4758
  286MOL0     C37663   1.702   3.047   1.233  0.8254  0.6597 -0.1864
  286MOL0    Cl37664   1.850   2.982   1.151  0.4047  0.0761  0.2568
  286MOL0     C37665   2.655   3.726   1.374  0.6461 -0.5497 -0.5417
  286MOL0     C37666   2.786   3.763   1.370  0.5498  0.7600  0.3526
  286MOL0     O37667   2.969   3.998   1.177  0.1861  0.0541  0.6211
  286MOL0     C37668   3.215   4.025   1.071  0.4547  0.1512  0.1563
  286MOL0     C37669   3.349   4.044   1.040  0.4465 -0.8614  0.5512
  286MOL0     N37670   3.961   3.902   0.582 -0.5331 -0.4518 -0.0961
  286MOL0     N37671   4.071   3.926   0.530  0.4482  0.3986  0.5816
  286MOL0     C37672   5.139   4.285   0.407  0.3196  0.3351 -0.6988
  286MOL0     C37673   5.203   4.336   0.527 -0.3571  0.2834  0.6826
  286MOL0     C37674   5.438   4.314   0.902  0.1007  0.7105 -0.1012
  286MOL0     C37675   5.384   4.356   1.019 -0.1933  0.4562 -0.4610
  286MOL0     C37676   5.453   4.385   1.128 -0.4998 -0.9038  0.3618
  286MOL0     C37677   5.593   4.380   1.133 -0.0546  0.1779 -0.0255
  286MOL0     O37678   5.662   4.421   1.244 -0.7888 -0.2026 -0.4883
  286MOL0     C37679   5.599   4.437   1.373 -0.0101  0.5689 -0.5842
  286MOL0     C37680   5.725   4.462   1.454  0.2309 -0.9006  0.4949
  286MOL0     C37681   5.826   4.344   1.442  0.1519 -0.7486  0.4859
  286MOL0     C37682   5.913   4.328   1.572 -1.0432 -1.1221  0.2766
  286MOL0     C37683   6.025   4.231   1.576  0.5136  0.3883  0.1338
  286MOL0     C37684   6.128   4.159   1.568  0.1691 -0.2243 -0.4748
  286MOL0     C37685   5.649   4.343   1.013 -0.1819 -0.1572 -0.5404
  286MOL0     C37686   5.579   4.301   0.903  1.2956  0.2100 -0.1739
  286MOL0     H37687   5.498   4.167   0.496 -0.8188 -1.1081  0.1116
  286MOL0     H37688   5.389   4.079   0.296  0.9911  0.5074 -0.6656
  286MOL0     H37689   4.972   4.062   0.121 -0.0771  0.0579  0.0380
  286MOL0     H37690   4.974   4.231   0.171 -1.3933  0.5578  1.4454
  286MOL0     H37691   4.949   4.116   0.411 -1.9015  1.1675 -0.3397
  286MOL0     H37692   4.946   3.963   0.317  1.1904 -0.1009 -1.1325
  286MOL0     H37693   4.732   4.032   0.217  1.0971  0.2191 -0.1647
  286MOL0     H37694   4.749   4.197   0.299  0.7635 -0.0964  2.6785
  286MOL0     H37695   4.745   3.963   0.477  2.1016  1.5447  1.4083
  286MOL0     H37696   4.712   4.125   0.510 -0.7179 -0.4870 -0.3526
  286MOL0     H37697   4.516   3.958   0.363  1.2659 -1.1787  1.0528
  286MOL0     H37698   4.508   4.140   0.390 -0.3061 -1.2395 -0.0314
  286MOL0     H37699   4.505   4.113   0.633 -0.1498  2.6346 -2.7821
  286MOL0     H37700   4.551   3.937   0.617  2.1219  0.4195 -1.1538
  286MOL0     H37701   4.331   3.896   0.505 -1.7281 -0.3380  1.7726
  286MOL0     H37702   4.319   3.919   0.671 -0.7282  0.5671  0.8296
  286MOL0     H37703   4.255   4.131   0.466 -0.2209  1.4003  0.9607
  286MOL0     H37704   4.291   4.159   0.638  0.4285 -0.6372 -0.2298
  286MOL0     H37705   4.066   4.144   0.780  3.0454 -1.5307  0.8589
  286MOL0     H37706   3.753   3.981   0.787  0.0933 -0.0664  1.4844
  286MOL0     H37707   3.885   4.018   0.905  3.3078 -1.1086 -1.0141
  286MOL0     H37708   3.923   3.799   0.949 -1.3019 -1.4317  1.3128
  286MOL0     H37709   3.852   3.732   0.798  2.6972  1.1901 -1.9253
  286MOL0     H37710   3.634   3.783   0.874 -0.1166  1.8045  0.3539
  286MOL0     H37711   3.700   3.685   0.992 -3.6325 -1.2244 -2.2526
  286MOL0     H37712   3.769   3.928   1.106 -0.4013  1.3204  0.8739
  286MOL0     H37713   3.659   3.816   1.165  1.0275  0.5763  0.2649
  286MOL0     H37714   3.476   3.764   1.189 -2.4836 -2.6674 -0.0014
  286MOL0     H37715   3.243   3.735   1.256  1.4546 -0.4731 -0.6302
  286MOL0     H37716   2.837   3.717   1.039 -0.1262 -0.5163 -0.0969
  286MOL0     H37717   2.590   3.691   1.045 -0.8893 -1.1232  0.9788
  286MOL0     H37718   2.434   3.501   1.209 -1.5433 -0.7977 -1.7141
  286MOL0     H37719   2.365   3.641   1.122  0.3603  2.8159  1.3680
  286MOL0     H37720   2.176   3.661   1.276 -0.0333 -0.3366 -0.9724
  286MOL0     H37721   2.231   3.531   1.376 -2.3442 -0.5592  0.3972
  286MOL0     H37722   2.187   3.372   1.157 -0.2798 -1.2074  1.7360
  286MOL0     H37723   2.118   3.519   1.091  2.2535 -1.6127 -0.9516
  286MOL0     H37724   2.054   3.364   1.359  3.2096 -0.7298 -2.0068
  286MOL0     H37725   1.958   3.513   1.307 -3.8270 -0.8535 -2.2580
  286MOL0     H37726   1.980   3.259   1.145  1.8983  1.1500  0.9034
  286MOL0     H37727   1.859   3.386   1.132 -0.4218 -2.3820 -1.1995
  286MOL0     H37728   1.786   3.330   1.375  2.9890 -0.2153  0.7983
  286MOL0     H37729   1.880   3.182   1.345  0.2874 -0.0587 -1.3190
  286MOL0     H37730   1.607   3.245   1.271  0.1306 -0.4755 -0.5122
  286MOL0     H37731   1.696   3.232   1.126  0.6368  1.2845  0.9920
  286MOL0     H37732   1.615   3.014   1.174  2.9423 -1.8127 -2.2230
  286MOL0     H37733   1.704   3.014   1.337  0.7491  2.5067  0.4290
  286MOL0     H37734   2.602   3.739   1.468  3.5438 -1.3494  1.3553
  286MOL0     H37735   2.829   3.793   1.465 -1.6954  2.1536  1.0112
  286MOL0     H37736   3.138   4.095   1.041 -0.2030 -1.4685 -2.1978
  286MOL0     H37737   3.383   4.139   0.999  2.4475 -1.7357  0.0516
  286MOL0     H37738   5.038   4.316   0.384  0.6760  1.3055 -1.0159
  286MOL0     H37739   5.144   4.392   0.599 -0.4558  1.8703 -0.5812
  286MOL0     H37740   5.277   4.365   1.032 -0.0131  1.5068  0.4205
  286MOL0     H37741   5.399   4.405   1.220 -1.9988 -2.5178 -0.1205
  286MOL0     H37742   5.557   4.339   1.399  0.5968  0.2937 -0.6107
  286MOL0     H37743   5.526   4.518   1.380 -1.1771 -0.5664  1.3508
  286MOL0     H37744   5.775   4.553   1.418 -0.5750 -0.8425 -0.5296
  286MOL0     H37745   5.690   4.479   1.557 -1.2920 -0.9803  0.0199
  286MOL0     H37746   5.891   4.351   1.354  0.6106 -1.2176  0.7855
  286MOL0     H37747   5.768   4.253   1.421 -2.1925  0.4278  1.4285
  286MOL0     H37748   5.959   4.426   1.587  0.3735 -1.3721 -1.9150
  286MOL0     H37749   5.846   4.306   1.655  1.7338  1.8752  3.6146
  286MOL0     H37750   6.212   4.093   1.561  1.9337  1.7774  0.8941
  286MOL0     H37751   5.757   4.329   1.009 -0.1863 -0.1338 -0.7791
  286MOL0     H37752   5.638   4.261   0.821  0.8599  0.0758 -0.4247
  287MOL0     O37753   3.638   9.665   0.757  1.1360  0.7054 -1.0623
  287MOL0     C37754   3.601   9.674   0.639 -0.1916  0.5174 -0.0810
  287MOL0     O37755   3.512   9.758   0.586 -0.0856 -0.0010 -0.6262
  287MOL0     C37756   3.456   9.857   0.666  0.1681  0.0505 -0.0760
  287MOL0     C37757   3.325   9.847   0.701 -0.0743  0.1917  0.5443
  287MOL0     C37758   3.269   9.954   0.775  0.4328 -0.2681  1.0336
  287MOL0     C37759   3.341  10.064   0.821  0.5208 -0.1136 -0.8133
  287MOL0     O37760   3.261  10.169   0.878 -0.7741  0.2058  0.3127
  287MOL0     C37761   3.296  10.304   0.881  0.5803  0.8896 -0.8032
  287MOL0     C37762   3.301  10.384   0.750 -0.3826 -0.4295  0.5957
  287MOL0     C37763   3.268  10.532   0.780 -0.6391  0.0134 -0.2113
  287MOL0     C37764   3.314  10.612   0.651 -0.6206  0.3776 -0.2311
  287MOL0     C37765   3.320  10.760   0.683 -0.2762  0.4423 -1.0932
  287MOL0     C37766   3.378  10.843   0.565  0.0193  0.2537 -0.8564
  287MOL0     C37767   3.400  10.994   0.576  0.0930  0.6142 -0.8781
  287MOL0     C37768   3.284  11.087   0.619 -0.6632  0.9126  0.1732
  287MOL0     N37769   3.148  11.042   0.579 -0.1909  0.1645  0.0884
  287MOL0     C37770   3.111  11.013   0.451  0.1327  0.4495 -0.4394
  287MOL0     C37771   2.984  10.957   0.472  0.5280 -0.6353 -0.4288
  287MOL0     C37772   2.888  10.905   0.377 -0.3123  0.7976 -0.4570
  287MOL0     C37773   2.943  10.789   0.290  0.5877  0.0435 -0.1978
  287MOL0     C37774   2.991  10.679   0.378 -0.1721  0.4583  0.6225
  287MOL0     C37775   2.997  10.555   0.294 -0.6327 -0.3470 -1.2106
  287MOL0     O37776   3.030  10.454   0.384  0.2547  0.1821  0.8600
  287MOL0     C37777   3.026  10.321   0.339 -0.4866  0.8098  0.4481
  287MOL0     C37778   3.071  10.224   0.428 -0.7587 -1.2661  1.0106
  287MOL0     C37779   3.105  10.100   0.399  0.3583 -0.6236  0.1636
  287MOL0     C37780   3.081  10.049   0.275 -0.3287 -0.8449  0.0557
  287MOL0     C37781   3.121   9.904   0.238  0.2317  0.0209  0.1546
  287MOL0     O37782   3.196   9.846   0.327  0.3136  0.7446  0.1285
  287MOL0     C37783   3.260   9.722   0.292  0.2712 -0.3658 -0.1918
  287MOL0     C37784   3.273   9.628   0.400 -1.6387 -1.0729 -0.5942
  287MOL0     C37785   3.335   9.507   0.381 -0.0435 -0.8246 -0.4690
  287MOL0     C37786   3.391   9.482   0.256  0.4643  0.0066 -0.5138
  287MOL0     O37787   3.439   9.359   0.213  0.8046 -0.4629 -0.0292
  287MOL0     C37788   3.418   9.243   0.305 -0.3383 -0.6871 -0.6414
  287MOL0     C37789   3.281   9.165   0.308 -0.1378  0.8829 -0.3591
  287MOL0     C37790   3.280   9.029   0.232  0.4299 -0.4328 -0.4672
  287MOL0     C37791   3.140   8.959   0.224 -0.2797  0.0804 -0.1887
  287MOL0     C37792   3.134   8.842   0.119 -0.1772 -0.0669  0.9772
  287MOL0     C37793   2.985   8.807   0.098 -0.4884 -0.2885  0.1289
  287MOL0     C37794   2.964   8.683   0.011 -0.1312  0.0225 -0.3787
  287MOL0     C37795   2.822   8.630   0.001  0.4137  0.1205  0.5244
  287MOL0    Cl37796   2.724   8.757  -0.091  0.0381 -0.0259  0.0187
  287MOL0     C37797   3.388   9.578   0.157  0.4909  0.9335 -0.2104
  287MOL0     C37798   3.320   9.693   0.168 -0.4133  0.7658  0.4377
  287MOL0     O37799   3.081   9.861   0.135 -0.1162  0.0007 -0.7541
  287MOL0     C37800   3.025  10.137   0.172 -0.5261 -0.2419  0.2142
  287MOL0     C37801   3.005  10.278   0.201  0.3039  0.4011 -0.9512
  287MOL0     N37802   2.939  10.967   0.610  0.6169 -0.1415  0.3765
  287MOL0     N37803   3.045  11.013   0.673 -0.6409 -0.2937 -0.0087
  287MOL0     C37804   3.476  10.065   0.787 -0.4422  0.0931 -0.0693
  287MOL0     C37805   3.538   9.964   0.710  0.6399  0.5551 -0.2961
  287MOL0     C37806   3.670   9.583   0.545  0.0104 -0.6655  0.2914
  287MOL0     C37807   3.756   9.483   0.597  0.4720 -0.2639  0.5555
  287MOL0     C37808   3.823   9.390   0.512 -0.3266 -1.0631  1.1241
  287MOL0     C37809   3.790   9.385   0.372  1.0724 -0.2157 -1.0630
  287MOL0     O37810   3.863   9.308   0.288  0.3812 -0.2734  0.2482
  287MOL0     C37811   3.856   9.164   0.309 -0.4732  0.2703 -0.1736
  287MOL0     C37812   3.998   9.099   0.291  1.0877 -0.1901  0.1699
  287MOL0     C37813   3.975   8.953   0.267  0.1680 -0.2315  0.4743
  287MOL0     C37814   4.105   8.871   0.275 -0.2552 -0.3996 -0.0524
  287MOL0     C37815   4.086   8.727   0.282  0.3794 -0.4655 -0.4398
  287MOL0     C37816   4.064   8.609   0.280 -0.5170 -0.5564 -0.5661
  287MOL0     C37817   3.707   9.489   0.325 -0.0493  0.4965  0.0201
  287MOL0     C37818   3.654   9.591   0.410 -0.1378 -0.8297 -0.0077
  287MOL0     H37819   3.263   9.761   0.681 -0.0467  0.1499  0.6392
  287MOL0     H37820   3.162   9.954   0.795  0.2400 -2.1744  0.1787
  287MOL0     H37821   3.391  10.319   0.933 -0.1555 -1.4599  1.4597
  287MOL0     H37822   3.213  10.339   0.944 -0.8883 -3.3142 -0.0935
  287MOL0     H37823   3.225  10.343   0.683 -1.8172  3.8465 -0.7064
  287MOL0     H37824   3.403  10.377   0.709 -0.9961 -1.3879 -0.8461
  287MOL0     H37825   3.313  10.561   0.875  0.2497  2.8183 -1.3943
  287MOL0     H37826   3.163  10.555   0.799 -0.5329  1.7234 -1.4868
  287MOL0     H37827   3.420  10.586   0.639  0.1899  1.9868  2.5142
  287MOL0     H37828   3.252  10.589   0.565 -1.5249  1.4544  0.1089
  287MOL0     H37829   3.381  10.783   0.771  0.6802 -0.1577 -1.5864
  287MOL0     H37830   3.219  10.801   0.694 -0.5727  0.0562 -2.2632
  287MOL0     H37831   3.315  10.812   0.481 -1.6890 -0.4596  0.5980
  287MOL0     H37832   3.478  10.803   0.548 -0.3094 -1.6986  1.2373
  287MOL0     H37833   3.467  11.005   0.662 -2.3417 -1.7230  1.5263
  287MOL0     H37834   3.446  11.034   0.485  3.5982 -0.7972  0.0950
  287MOL0     H37835   3.312  11.187   0.585  0.4465 -0.0921 -2.1938
  287MOL0     H37836   3.277  11.090   0.728  0.6102 -3.4220  0.5952
  287MOL0     H37837   3.161  11.030   0.357 -2.5040  1.7013 -1.7175
  287MOL0     H37838   2.858  10.990   0.315 -1.9654  1.2530  0.9071
  287MOL0     H37839   2.813  10.856   0.440  1.2648 -0.1662  0.7816
  287MOL0     H37840   3.017  10.827   0.220 -1.4659  1.8547 -1.5365
  287MOL0     H37841   2.857  10.746   0.238 -0.3165  0.4736  0.8776
  287MOL0     H37842   3.097  10.695   0.402  0.4212  2.6804 -2.7045
  287MOL0     H37843   2.929  10.666   0.467  1.0235 -0.2033  1.3818
  287MOL0     H37844   3.075  10.567   0.217  1.1112  2.1175  0.7905
  287MOL0     H37845   2.900  10.530   0.251 -1.3394  1.9102 -1.0168
  287MOL0     H37846   3.081  10.247   0.533  1.0230 -3.1962  1.3264
  287MOL0     H37847   3.143  10.032   0.474  3.2698 -0.1355 -0.7515
  287MOL0     H37848   3.228   9.662   0.492  0.1884 -1.0493  0.3250
  287MOL0     H37849   3.335   9.439   0.465  0.7456  1.3502  1.3792
  287MOL0     H37850   3.456   9.256   0.407 -1.3152  2.2591 -0.5468
  287MOL0     H37851   3.494   9.178   0.262  0.5763  0.6780 -1.1479
  287MOL0     H37852   3.211   9.236   0.262  1.2093  0.4979 -3.2360
  287MOL0     H37853   3.255   9.147   0.413 -0.7493  1.8894 -0.3213
  287MOL0     H37854   3.358   8.972   0.283  0.7867  1.1915  0.8733
  287MOL0     H37855   3.315   9.037   0.128  0.8896 -2.9547 -0.5573
  287MOL0     H37856   3.124   8.918   0.324  4.1203  0.7069  0.9751
  287MOL0     H37857   3.065   9.031   0.189  2.4749  1.2442 -4.5761
  287MOL0     H37858   3.199   8.759   0.148  1.3080  1.0684  1.0078
  287MOL0     H37859   3.165   8.875   0.020  0.6265  1.1860  1.6272
  287MOL0     H37860   2.943   8.893   0.045  0.1570 -0.0582 -0.0140
  287MOL0     H37861   2.937   8.796   0.196  0.2053  1.1622  0.6619
  287MOL0     H37862   3.003   8.702  -0.090 -1.1750  1.3569 -0.5554
  287MOL0     H37863   3.031   8.606   0.050  0.9595 -0.0377 -2.2486
  287MOL0     H37864   2.786   8.614   0.103  1.7550 -1.8692  0.7391
  287MOL0     H37865   2.822   8.537  -0.057 -2.4871  0.1554  0.3144
  287MOL0     H37866   3.415   9.557   0.054 -1.3624  1.4737 -0.8494
  287MOL0     H37867   3.311   9.753   0.079  0.0846  0.6855  0.3317
  287MOL0     H37868   3.014  10.097   0.072  3.0352 -1.3345  0.1228
  287MOL0     H37869   2.959  10.340   0.125 -0.1719 -1.2820 -2.0871
  287MOL0     H37870   3.542  10.145   0.821 -0.2689  1.0536 -2.4590
  287MOL0     H37871   3.645   9.955   0.699  0.2843 -1.7232 -2.8427
  287MOL0     H37872   3.766   9.474   0.705  1.9182 -4.8350  0.2718
  287MOL0     H37873   3.897   9.323   0.554  2.2512  0.4725 -0.6582
  287MOL0     H37874   3.793   9.133   0.226  0.9468 -2.8308 -0.2406
  287MOL0     H37875   3.817   9.130   0.406 -3.1744 -1.3137 -1.6816
  287MOL0     H37876   4.055   9.153   0.215  1.1975  0.9837  1.0535
  287MOL0     H37877   4.046   9.115   0.388  0.2502  2.3414  0.2408
  287MOL0     H37878   3.928   8.936   0.169  0.2329 -2.3030  0.7619
  287MOL0     H37879   3.914   8.914   0.349  1.9943 -1.5368  1.2945
  287MOL0     H37880   4.171   8.888   0.189  1.0618  0.6309  1.1219
  287MOL0     H37881   4.171   8.896   0.358  2.5509 -0.8369 -1.9958
  287MOL0     H37882   4.032   8.508   0.265  0.8214 -1.1792  0.6471
  287MOL0     H37883   3.681   9.486   0.220  2.8261  2.0204 -0.8407
  287MOL0     H37884   3.573   9.652   0.371  0.2412  1.2990  2.2807
  288MOL0     O37885   9.265   2.665  10.550  0.1684  0.1812 -0.0272
  288MOL0     C37886   9.215   2.610  10.450 -0.4500 -0.0453 -0.0556
  288MOL0     O37887   9.281   2.520  10.378 -0.4842  0.0006 -0.1717
  288MOL0     C37888   9.415   2.508  10.399 -0.8100 -0.2739  0.1567
  288MOL0     C37889   9.500   2.625  10.389 -0.1006 -0.5439  0.2976
  288MOL0     C37890   9.631   2.603  10.423 -0.4926 -0.0487 -0.2342
  288MOL0     C37891   9.688   2.480  10.446 -0.0546  0.4717  0.1400
  288MOL0     O37892   9.829   2.469  10.461  0.3525  0.3331  2.0916
  288MOL0     C37893   9.893   2.351  10.415  0.2717  1.1157  0.0975
  288MOL0     C37894  10.037   2.367  10.345  0.9851  0.7348  0.1723
  288MOL0     C37895  10.146   2.416  10.430  0.0688  0.1220 -0.0369
  288MOL0     C37896  10.133   2.560  10.460  0.1051  0.2849 -0.4780
  288MOL0     C37897  10.245   2.601  10.556  0.5553  0.8408  0.0191
  288MOL0     C37898  10.246   2.732  10.630  0.1097 -0.3657  0.0112
  288MOL0     C37899  10.382   2.765  10.705 -0.3341  0.4380  0.3900
  288MOL0     C37900  10.401   2.704  10.844 -0.8865  0.3784  0.2464
  288MOL0     N37901  10.345   2.793  10.948  0.0333  0.6309 -0.1431
  288MOL0     C37902  10.366   2.923  10.978 -0.7191 -0.1708  0.7289
  288MOL0     C37903  10.277   2.964  11.061  0.9119  0.5583  0.2761
  288MOL0     C37904  10.272   3.100  11.115 -0.2619  0.4034  0.1715
  288MOL0     C37905  10.226   3.211  11.008  0.0875  0.2608  0.3060
  288MOL0     C37906  10.088   3.187  10.949  0.0046 -0.2904 -0.0114
  288MOL0     C37907   9.978   3.209  11.056  0.3575  1.0597 -0.5905
  288MOL0     O37908   9.943   3.348  11.057  0.2839 -0.4456 -0.3941
  288MOL0     C37909   9.832   3.389  10.992  1.3332  0.4285  0.1869
  288MOL0     C37910   9.780   3.509  11.031 -0.6958 -0.8009  0.4637
  288MOL0     C37911   9.660   3.548  10.979  0.2320 -0.9545 -1.2369
  288MOL0     C37912   9.593   3.475  10.884 -0.3990 -0.2331  0.8648
  288MOL0     C37913   9.458   3.529  10.837  0.2005 -0.0351  0.5838
  288MOL0     O37914   9.378   3.438  10.773 -0.2638  0.3161 -0.1805
  288MOL0     C37915   9.287   3.495  10.685  0.0199 -0.6083 -1.0703
  288MOL0     C37916   9.345   3.539  10.567 -0.3908  0.1636 -0.1864
  288MOL0     C37917   9.276   3.580  10.457 -0.0950 -1.2296  0.1959
  288MOL0     C37918   9.140   3.591  10.464 -0.3957 -0.0088 -0.0938
  288MOL0     O37919   9.069   3.644  10.356 -0.9288  0.2386 -0.9202
  288MOL0     C37920   8.974   3.746  10.387  0.0903 -0.5376  0.5756
  288MOL0     C37921   8.959   3.841  10.264 -0.1969  0.4627  0.8753
  288MOL0     C37922   8.847   3.942  10.252 -0.9875  0.7064  0.0603
  288MOL0     C37923   8.889   4.066  10.167  0.0118  0.1650  0.3136
  288MOL0     C37924   8.771   4.164  10.132 -0.1343  0.6082  0.6594
  288MOL0     C37925   8.804   4.261  10.018 -0.0668 -0.0479 -0.6630
  288MOL0     C37926   8.779   4.193   9.884 -0.4619 -0.4976  0.7664
  288MOL0     C37927   8.776   4.286   9.766 -0.3537 -0.0210 -0.2871
  288MOL0    Cl37928   8.953   4.318   9.736 -0.0003  0.2897 -0.3131
  288MOL0     C37929   9.075   3.544  10.582 -1.5635 -0.4733 -0.2320
  288MOL0     C37930   9.148   3.489  10.689 -0.2203  0.4927  0.4266
  288MOL0     O37931   9.429   3.652  10.856  0.3059 -0.7831  0.0373
  288MOL0     C37932   9.646   3.355  10.838 -0.7879  0.6068  0.1518
  288MOL0     C37933   9.771   3.311  10.890 -0.4281  0.3430 -0.2304
  288MOL0     N37934  10.198   2.853  11.096  0.3335 -0.5189  0.6875
  288MOL0     N37935  10.235   2.755  11.019  0.5984 -0.0694 -0.0456
  288MOL0     C37936   9.600   2.370  10.458 -0.3053 -0.4228 -0.3446
  288MOL0     C37937   9.464   2.383  10.439  0.3643 -0.6077 -0.3714
  288MOL0     C37938   9.071   2.644  10.423  0.1127  0.5471 -0.2667
  288MOL0     C37939   9.002   2.580  10.320  0.3732  0.6695 -0.1961
  288MOL0     C37940   8.867   2.618  10.307 -0.7066  1.0095  0.7727
  288MOL0     C37941   8.805   2.715  10.385  0.0344  0.1853  0.3256
  288MOL0     O37942   8.681   2.760  10.357  0.1536 -0.8398  0.5551
  288MOL0     C37943   8.592   2.668  10.282 -0.3910 -1.0875  0.1908
  288MOL0     C37944   8.446   2.725  10.289 -0.1022  0.6690 -0.0275
  288MOL0     C37945   8.353   2.629  10.220 -0.7664 -0.5534 -0.3881
  288MOL0     C37946   8.213   2.691  10.191 -0.4345  0.4527  0.0206
  288MOL0     C37947   8.111   2.679  10.293  0.2672  0.5442  0.5307
  288MOL0     C37948   8.035   2.675  10.386  0.2163  0.3972 -0.8095
  288MOL0     C37949   8.881   2.782  10.486  0.3138 -0.3445 -0.0238
  288MOL0     C37950   9.012   2.737  10.507  0.7875  0.9944 -0.7468
  288MOL0     H37951   9.471   2.729  10.386  3.1508  0.5388  2.1136
  288MOL0     H37952   9.703   2.685  10.430  1.2973 -1.6066  0.2632
  288MOL0     H37953   9.836   2.301  10.336 -0.3209  3.3513 -0.9856
  288MOL0     H37954   9.892   2.288  10.505  1.9224  2.2426  0.9620
  288MOL0     H37955  10.024   2.438  10.263  1.0046  0.3244 -0.1911
  288MOL0     H37956  10.067   2.271  10.302  0.0329  0.1273  0.8232
  288MOL0     H37957  10.244   2.411  10.382  0.7936 -2.8409  1.4833
  288MOL0     H37958  10.151   2.365  10.527 -0.9994 -0.7050 -0.3958
  288MOL0     H37959  10.133   2.622  10.370  1.3471 -0.7279 -1.2061
  288MOL0     H37960  10.052   2.561  10.534  0.8113 -1.7560  0.4170
  288MOL0     H37961  10.329   2.603  10.486 -0.3156 -1.1629 -1.1823
  288MOL0     H37962  10.260   2.519  10.628 -1.1753 -0.7220 -1.3057
  288MOL0     H37963  10.163   2.734  10.701 -2.0882  0.8588 -2.4580
  288MOL0     H37964  10.238   2.818  10.562  1.9140  1.8924  2.4343
  288MOL0     H37965  10.461   2.722  10.642 -0.1514  1.2881  0.0277
  288MOL0     H37966  10.403   2.872  10.703 -0.9152  0.5630  0.7882
  288MOL0     H37967  10.504   2.688  10.875 -0.9072 -1.5229 -0.4949
  288MOL0     H37968  10.364   2.601  10.843  1.4512 -0.5385 -2.1066
  288MOL0     H37969  10.460   2.973  10.953 -1.4434  0.4756 -0.8809
  288MOL0     H37970  10.370   3.117  11.160 -0.6850  1.1657  0.8470
  288MOL0     H37971  10.201   3.098  11.198 -1.6422  0.1800 -0.9761
  288MOL0     H37972  10.290   3.210  10.919 -0.3756  2.6968 -0.1226
  288MOL0     H37973  10.226   3.311  11.051 -1.1106  1.1791 -1.6945
  288MOL0     H37974  10.072   3.248  10.860 -2.5416 -2.2338 -0.9967
  288MOL0     H37975  10.081   3.083  10.917 -1.7533 -1.4223  3.5309
  288MOL0     H37976  10.007   3.185  11.159  0.9790  2.2258 -0.4840
  288MOL0     H37977   9.891   3.144  11.045  1.0895 -0.2645  0.9696
  288MOL0     H37978   9.818   3.571  11.111 -2.7278  0.7339  0.3221
  288MOL0     H37979   9.618   3.640  11.017 -1.7405 -1.3883 -2.2439
  288MOL0     H37980   9.450   3.560  10.553 -1.1134  3.0853 -2.0779
  288MOL0     H37981   9.319   3.631  10.371 -2.1507 -0.7737 -0.6256
  288MOL0     H37982   9.009   3.805  10.472 -0.6452 -0.4397  0.8212
  288MOL0     H37983   8.873   3.716  10.415  0.6482 -1.1493  2.0236
  288MOL0     H37984   8.942   3.788  10.170 -0.7492  0.2624  1.0824
  288MOL0     H37985   9.054   3.894  10.256  0.6829 -1.0790  0.8205
  288MOL0     H37986   8.813   3.975  10.351  3.8598 -1.4417  2.8666
  288MOL0     H37987   8.756   3.900  10.210  0.0516  0.1273 -1.7250
  288MOL0     H37988   8.958   4.130  10.223 -3.4412  2.9326  1.8194
  288MOL0     H37989   8.943   4.040  10.075 -0.1297 -3.7470  1.1598
  288MOL0     H37990   8.735   4.228  10.213 -1.0906  0.7452  0.1432
  288MOL0     H37991   8.685   4.104  10.102  0.5551 -2.3325  3.9658
  288MOL0     H37992   8.906   4.300  10.026 -0.1596  0.7190 -2.5283
  288MOL0     H37993   8.729   4.338  10.037  1.2633  0.5519  2.8916
  288MOL0     H37994   8.856   4.118   9.863 -0.2734  0.1445 -1.0608
  288MOL0     H37995   8.680   4.147   9.883  0.4766 -2.6535 -0.0535
  288MOL0     H37996   8.722   4.374   9.803  1.2350  0.6693  0.4775
  288MOL0     H37997   8.726   4.245   9.678 -0.4789  0.5429 -0.4813
  288MOL0     H37998   8.969   3.557  10.599 -1.4947  0.4519 -0.4763
  288MOL0     H37999   9.098   3.452  10.777 -1.4546  2.9152  0.8280
  288MOL0     H38000   9.600   3.288  10.766 -0.2639  1.3825 -0.9140
  288MOL0     H38001   9.811   3.213  10.867 -1.7246 -0.2228 -0.1770
  288MOL0     H38002   9.633   2.271  10.488 -2.2393 -0.5000  1.7905
  288MOL0     H38003   9.403   2.301  10.474  1.1067  0.5512  4.4814
  288MOL0     H38004   9.044   2.502  10.257 -0.0199  0.3807 -0.1002
  288MOL0     H38005   8.826   2.560  10.225  3.8874  0.9373 -1.8085
  288MOL0     H38006   8.610   2.563  10.303  3.4610 -0.3761  1.3400
  288MOL0     H38007   8.622   2.675  10.177  1.9975 -2.4470  0.7216
  288MOL0     H38008   8.415   2.739  10.393  0.1491 -0.4226  0.2067
  288MOL0     H38009   8.441   2.822  10.237  0.4370  0.6670 -0.0892
  288MOL0     H38010   8.340   2.546  10.290  0.5370 -1.2484 -0.9309
  288MOL0     H38011   8.385   2.596  10.121 -0.6502 -0.7978 -0.2690
  288MOL0     H38012   8.216   2.798  10.171 -1.4808  1.2614  3.5575
  288MOL0     H38013   8.185   2.635  10.101 -1.1277  2.9356 -1.3943
  288MOL0     H38014   7.970   2.658  10.469 -0.7342 -1.3422 -1.8598
  288MOL0     H38015   8.843   2.874  10.530 -0.4469  0.9220 -3.1068
  288MOL0     H38016   9.064   2.802  10.577 -2.1698  2.5331  0.1928
  289MOL0     O38017   5.276   7.856   8.848 -0.4023  0.5169  0.6637
  289MOL0     C38018   5.359   7.763   8.837 -0.7933  0.8513  0.1188
  289MOL0     O38019   5.336   7.634   8.784  0.1125 -0.3690 -0.2230
  289MOL0     C38020   5.212   7.599   8.735  0.2383  0.4542 -0.0931
  289MOL0     C38021   5.201   7.513   8.623 -0.4675  0.4192  0.4290
  289MOL0     C38022   5.079   7.453   8.582  0.1932 -0.2947 -0.1995
  289MOL0     C38023   4.967   7.463   8.664 -0.3275  0.4096 -0.7912
  289MOL0     O38024   4.843   7.409   8.630  0.1027 -0.1037  0.4532
  289MOL0     C38025   4.841   7.282   8.555 -0.5159  0.3666 -0.2769
  289MOL0     C38026   4.691   7.259   8.526  0.3443 -0.6035 -0.1395
  289MOL0     C38027   4.661   7.120   8.508 -0.0004 -0.6269 -0.6515
  289MOL0     C38028   4.512   7.097   8.501  0.1283  0.4438 -0.0148
  289MOL0     C38029   4.492   6.953   8.513  0.2152  0.8743  0.4396
  289MOL0     C38030   4.347   6.890   8.522  0.3842 -1.4249  1.0868
  289MOL0     C38031   4.335   6.739   8.547 -0.8859  0.2255  1.1504
  289MOL0     C38032   4.353   6.660   8.419  0.3474  0.2222 -0.3198
  289MOL0     N38033   4.349   6.512   8.436 -0.7002 -1.1351  0.0938
  289MOL0     C38034   4.347   6.423   8.336 -0.7861  0.1807  0.5700
  289MOL0     C38035   4.341   6.299   8.397  0.0432 -0.3456  0.0173
  289MOL0     C38036   4.339   6.165   8.315  0.5384  0.0059 -0.1964
  289MOL0     C38037   4.214   6.152   8.240  0.8401  0.0059 -0.2179
  289MOL0     C38038   4.220   6.020   8.159  0.0457 -0.3458 -0.7215
  289MOL0     C38039   4.080   5.984   8.108  0.7630  0.2514  0.4176
  289MOL0     O38040   4.074   5.842   8.096  0.7174 -0.2375  1.2760
  289MOL0     C38041   3.985   5.780   8.166 -0.3057 -0.2764 -0.3179
  289MOL0     C38042   3.989   5.773   8.311 -0.4882  0.3474 -0.1175
  289MOL0     C38043   3.883   5.716   8.383 -0.4794 -0.3111  0.7197
  289MOL0     C38044   3.772   5.656   8.320 -0.4706 -0.3720 -0.6886
  289MOL0     C38045   3.661   5.607   8.397  0.0484  0.3937  0.0475
  289MOL0     O38046   3.684   5.599   8.531  0.0176  0.3146  0.0345
  289MOL0     C38047   3.578   5.557   8.608 -1.0722  0.1065  0.2555
  289MOL0     C38048   3.581   5.615   8.735 -1.0857 -1.0496 -0.0457
  289MOL0     C38049   3.473   5.587   8.823  0.0603 -0.5863  0.0537
  289MOL0     C38050   3.375   5.486   8.802 -0.0131 -0.3532 -0.4143
  289MOL0     O38051   3.291   5.433   8.895 -0.1326 -0.1698 -0.3441
  289MOL0     C38052   3.326   5.431   9.035 -1.1026 -0.6297  0.0142
  289MOL0     C38053   3.455   5.338   9.057 -0.4501  0.4763 -0.0348
  289MOL0     C38054   3.433   5.194   9.009 -0.3890  0.6508 -0.2950
  289MOL0     C38055   3.348   5.108   9.116 -0.0978  0.9804  0.7405
  289MOL0     C38056   3.330   4.970   9.044  0.6662  0.0782 -0.8285
  289MOL0     C38057   3.450   4.875   9.041  0.0032  0.9384 -0.4528
  289MOL0     C38058   3.394   4.729   9.022 -0.0077 -0.0314 -0.2295
  289MOL0     C38059   3.510   4.639   8.998  0.2151 -0.6482  0.2031
  289MOL0    Cl38060   3.539   4.599   8.830 -0.2216 -0.0267  0.2462
  289MOL0     C38061   3.387   5.416   8.682  0.2696  0.4964  0.3383
  289MOL0     C38062   3.480   5.464   8.587  0.1527  0.0802  0.0475
  289MOL0     O38063   3.556   5.581   8.333 -0.0202  0.0203  0.3965
  289MOL0     C38064   3.772   5.649   8.184 -0.3892 -0.4341  0.9277
  289MOL0     C38065   3.882   5.704   8.104 -0.5487 -0.3905 -0.4262
  289MOL0     N38066   4.341   6.316   8.534 -0.7783  0.5590  0.6611
  289MOL0     N38067   4.348   6.444   8.549  0.2919 -0.9058  0.2011
  289MOL0     C38068   4.972   7.544   8.774 -0.1218  0.3490  0.0248
  289MOL0     C38069   5.094   7.599   8.811 -0.1613 -0.2228  0.3712
  289MOL0     C38070   5.503   7.783   8.865  0.6856 -0.1574  0.6156
  289MOL0     C38071   5.553   7.909   8.909 -0.1076  0.7212 -0.0976
  289MOL0     C38072   5.691   7.925   8.930 -0.9532 -0.3123 -0.2079
  289MOL0     C38073   5.781   7.831   8.877  0.2681  0.2547 -1.1468
  289MOL0     O38074   5.917   7.840   8.880  0.1085  0.3006 -1.3821
  289MOL0     C38075   5.969   7.949   8.810 -0.3898 -0.7709  0.1033
  289MOL0     C38076   5.963   7.943   8.658  0.0252  0.2580  0.6965
  289MOL0     C38077   6.052   8.058   8.596  0.6400  0.2658 -1.1018
  289MOL0     C38078   6.005   8.209   8.638 -0.3317 -0.2405  1.0460
  289MOL0     C38079   5.860   8.235   8.667 -0.1180  0.5539  0.4913
  289MOL0     C38080   5.742   8.247   8.701 -0.1493 -0.7434 -0.5400
  289MOL0     C38081   5.734   7.711   8.828 -0.2832  0.6461  0.2167
  289MOL0     C38082   5.603   7.689   8.835  0.4441  0.4222 -0.2012
  289MOL0     H38083   5.285   7.491   8.558 -1.5252  0.8643 -1.1418
  289MOL0     H38084   5.072   7.417   8.480  1.2650 -1.2317  0.0444
  289MOL0     H38085   4.876   7.206   8.626  2.0683  0.0902 -1.7171
  289MOL0     H38086   4.890   7.286   8.457  1.1386  4.3189  0.4965
  289MOL0     H38087   4.656   7.315   8.439  2.3724 -2.7603 -2.5034
  289MOL0     H38088   4.634   7.298   8.611  1.9610  0.0722  0.6782
  289MOL0     H38089   4.702   7.073   8.597 -2.1867 -0.2615  0.6425
  289MOL0     H38090   4.705   7.078   8.417 -4.0105 -1.9718 -2.2363
  289MOL0     H38091   4.448   7.144   8.576 -0.7273 -0.3203 -0.2510
  289MOL0     H38092   4.472   7.129   8.404 -0.6504  4.0500  1.3197
  289MOL0     H38093   4.549   6.919   8.600 -0.6197  1.3868  1.2021
  289MOL0     H38094   4.526   6.904   8.421 -1.3751  1.2107 -0.3508
  289MOL0     H38095   4.286   6.926   8.438 -2.5744 -0.8537  3.3061
  289MOL0     H38096   4.296   6.945   8.601  2.3466 -0.6871  1.9036
  289MOL0     H38097   4.411   6.715   8.622  0.0442  0.6956  0.3705
  289MOL0     H38098   4.238   6.714   8.592 -1.4354 -1.0243 -0.6212
  289MOL0     H38099   4.448   6.689   8.373  0.3362  1.9644  0.6460
  289MOL0     H38100   4.275   6.693   8.350  1.0881  5.1361  0.7739
  289MOL0     H38101   4.356   6.443   8.230 -2.0168 -0.9430  0.2196
  289MOL0     H38102   4.350   6.080   8.383 -2.7016  1.2979  2.2206
  289MOL0     H38103   4.432   6.154   8.257  1.2561 -1.6271  1.1723
  289MOL0     H38104   4.188   6.228   8.166 -0.0340 -1.2544 -1.2696
  289MOL0     H38105   4.129   6.162   8.307  1.9703  1.8423  1.0378
  289MOL0     H38106   4.287   6.026   8.073  2.8996 -0.5889  1.3551
  289MOL0     H38107   4.258   5.936   8.218  2.0345  1.1090  0.1888
  289MOL0     H38108   4.052   6.045   8.022 -1.1874  0.5163  1.2085
  289MOL0     H38109   4.006   6.021   8.178 -1.0723  1.6182 -2.1010
  289MOL0     H38110   4.073   5.809   8.370  1.0522 -1.1298 -1.2940
  289MOL0     H38111   3.883   5.724   8.491  0.1460 -1.0912  0.7945
  289MOL0     H38112   3.661   5.685   8.757 -0.5799 -1.8740  0.8446
  289MOL0     H38113   3.478   5.648   8.913 -1.0590  0.8629 -0.8307
  289MOL0     H38114   3.240   5.401   9.096 -0.0629  1.1200  2.4850
  289MOL0     H38115   3.345   5.535   9.064 -2.1548  0.3074 -2.3571
  289MOL0     H38116   3.475   5.336   9.164  0.5092 -1.2590 -0.2174
  289MOL0     H38117   3.542   5.384   9.008 -1.5556  1.8349 -0.8005
  289MOL0     H38118   3.529   5.153   8.975 -1.0477  0.1993 -1.6723
  289MOL0     H38119   3.385   5.187   8.911 -0.6869 -3.2553 -0.0053
  289MOL0     H38120   3.392   5.112   9.216 -1.6673  3.3122  1.4065
  289MOL0     H38121   3.248   5.152   9.123  0.3963  2.4655 -0.6874
  289MOL0     H38122   3.284   4.985   8.946 -0.7052  0.0522 -0.2083
  289MOL0     H38123   3.249   4.921   9.098 -0.3160  1.6087 -0.8630
  289MOL0     H38124   3.505   4.883   9.135 -3.0440  1.2576  1.4271
  289MOL0     H38125   3.507   4.922   8.960 -0.2324  1.5178 -0.2889
  289MOL0     H38126   3.356   4.696   9.120 -0.7664 -3.5685 -1.5640
  289MOL0     H38127   3.317   4.713   8.947  1.0886 -2.8945 -0.8717
  289MOL0     H38128   3.493   4.539   9.040 -0.3010 -1.4890 -1.8632
  289MOL0     H38129   3.605   4.669   9.043  0.9727 -0.6316 -1.3354
  289MOL0     H38130   3.312   5.341   8.658  1.1329  0.1071 -1.3121
  289MOL0     H38131   3.493   5.398   8.502  4.9131  0.2759  0.3648
  289MOL0     H38132   3.688   5.611   8.127  0.4654  0.0596 -0.7144
  289MOL0     H38133   3.865   5.678   8.000 -2.6360 -0.3528 -0.1382
  289MOL0     H38134   4.885   7.553   8.838 -0.3152  0.4072 -0.2498
  289MOL0     H38135   5.102   7.645   8.909  3.0832 -3.1876  1.7119
  289MOL0     H38136   5.492   7.995   8.934 -1.4409  0.9880 -3.7407
  289MOL0     H38137   5.728   8.016   8.977 -1.1847  0.3446 -1.2510
  289MOL0     H38138   6.073   7.957   8.843 -1.0118  1.1768  1.7825
  289MOL0     H38139   5.931   8.047   8.842 -2.8678 -1.3108 -0.9896
  289MOL0     H38140   5.995   7.844   8.625  2.2058  1.4577 -1.0877
  289MOL0     H38141   5.857   7.955   8.633 -0.2204 -3.6233 -0.9351
  289MOL0     H38142   6.055   8.048   8.487  1.5567 -2.1796 -0.9073
  289MOL0     H38143   6.156   8.037   8.623 -0.5129 -2.8563  1.5255
  289MOL0     H38144   6.059   8.234   8.729  0.1434 -1.8834  1.2512
  289MOL0     H38145   6.044   8.282   8.566  1.2663  0.2610  2.3633
  289MOL0     H38146   5.643   8.246   8.742  0.9638 -1.8618  2.4412
  289MOL0     H38147   5.813   7.645   8.793  0.3323  1.2524  0.4490
  289MOL0     H38148   5.571   7.589   8.807  0.9720 -0.2228  1.3958
  290MOL0     O38149   8.619   9.213   2.597 -0.3019 -0.1169 -0.0611
  290MOL0     C38150   8.678   9.239   2.705 -0.1462 -0.1735 -0.0979
  290MOL0     O38151   8.606   9.271   2.821 -0.5812 -0.4167  0.2034
  290MOL0     C38152   8.472   9.307   2.801 -0.2536 -0.3553 -0.0685
  290MOL0     C38153   8.385   9.204   2.807 -0.2930 -0.6861 -0.6285
  290MOL0     C38154   8.247   9.231   2.795 -0.1744 -0.2726 -1.1967
  290MOL0     C38155   8.190   9.361   2.785 -0.2286  0.2734 -0.7823
  290MOL0     O38156   8.055   9.379   2.772  0.0984 -0.0206  0.0549
  290MOL0     C38157   7.951   9.314   2.858  0.0906 -0.1981 -0.2199
  290MOL0     C38158   7.843   9.411   2.904 -0.5752  0.5023 -0.6425
  290MOL0     C38159   7.770   9.480   2.793 -0.2192  0.5019 -0.1016
  290MOL0     C38160   7.669   9.588   2.855  0.3876  0.0753  0.3576
  290MOL0     C38161   7.574   9.657   2.753 -0.1874 -0.8261 -0.0117
  290MOL0     C38162   7.669   9.751   2.660 -0.2069  0.2159  0.5719
  290MOL0     C38163   7.572   9.839   2.577 -0.3962 -0.4976  0.5067
  290MOL0     C38164   7.638   9.949   2.504 -0.3687 -0.2548 -0.2154
  290MOL0     N38165   7.682  10.057   2.597 -0.7362 -0.5618 -0.7628
  290MOL0     C38166   7.602  10.154   2.622 -0.0447 -0.3537  0.9767
  290MOL0     C38167   7.654  10.218   2.737 -0.4296  0.3009  0.5291
  290MOL0     C38168   7.620  10.341   2.808  0.1198 -0.5321 -1.4500
  290MOL0     C38169   7.594  10.460   2.713  0.2144  0.0206 -0.4586
  290MOL0     C38170   7.541  10.593   2.792  0.7217  0.1072 -0.0623
  290MOL0     C38171   7.396  10.577   2.855  0.5831  0.1351  0.4141
  290MOL0     O38172   7.341  10.709   2.887 -0.9050 -0.1384 -0.0905
  290MOL0     C38173   7.214  10.715   2.937  0.1921  0.1538  0.5220
  290MOL0     C38174   7.141  10.841   2.925  0.3686  0.1645  0.0956
  290MOL0     C38175   7.006  10.844   2.965 -0.4979  1.2227 -0.3396
  290MOL0     C38176   6.944  10.727   2.991  0.5602  0.0822  0.1863
  290MOL0     C38177   6.796  10.733   3.027  0.4369 -0.2830 -1.0123
  290MOL0     O38178   6.729  10.852   3.013  0.5161 -0.0008  0.0527
  290MOL0     C38179   6.590  10.862   3.026 -0.0238 -0.4448 -0.2614
  290MOL0     C38180   6.546  10.983   3.091 -0.2630 -0.5947 -0.1315
  290MOL0     C38181   6.415  11.009   3.102  0.3668  0.8050  0.2586
  290MOL0     C38182   6.317  10.915   3.049  0.7450 -0.4943  0.4447
  290MOL0     O38183   6.185  10.959   3.054  0.5426 -0.8029 -0.7932
  290MOL0     C38184   6.081  10.857   3.031 -0.1691  0.4100 -1.1237
  290MOL0     C38185   5.947  10.927   3.015  0.5994 -0.2941 -0.9980
  290MOL0     C38186   5.916  11.028   3.137 -0.1028 -0.2830  0.4294
  290MOL0     C38187   5.783  11.103   3.118  0.2407 -0.3007 -0.1653
  290MOL0     C38188   5.657  11.035   3.178 -0.9535  0.0690 -0.0314
  290MOL0     C38189   5.535  11.121   3.153 -0.8199  1.0016  0.2901
  290MOL0     C38190   5.462  11.111   3.015 -0.0514 -0.9657 -0.5860
  290MOL0     C38191   5.360  11.226   3.003 -0.6253  0.2850  0.1748
  290MOL0    Cl38192   5.235  11.214   3.125  0.0473  0.1127  0.5391
  290MOL0     C38193   6.369  10.796   2.994  0.1317  0.4764  0.4854
  290MOL0     C38194   6.499  10.766   2.977 -0.4951 -0.6758 -0.3526
  290MOL0     O38195   6.756  10.635   3.091  0.4025 -0.4454 -0.2692
  290MOL0     C38196   7.011  10.604   2.994  0.3651  0.1390 -1.1386
  290MOL0     C38197   7.145  10.597   2.974  0.7203 -0.6146 -0.2798
  290MOL0     N38198   7.775  10.156   2.763  1.0170 -0.6081 -0.2461
  290MOL0     N38199   7.789  10.064   2.679 -0.2658 -0.3466 -0.1835
  290MOL0     C38200   8.286   9.463   2.762 -0.3689 -0.9979 -0.8837
  290MOL0     C38201   8.425   9.440   2.768 -0.4279 -0.1283 -0.6387
  290MOL0     C38202   8.827   9.228   2.719  0.3731  0.7583  0.3763
  290MOL0     C38203   8.903   9.216   2.600  0.0839 -0.3811 -0.6864
  290MOL0     C38204   9.042   9.200   2.610 -0.6095 -0.3923  0.0849
  290MOL0     C38205   9.109   9.192   2.732 -0.3564 -0.5041 -0.6770
  290MOL0     O38206   9.237   9.179   2.749 -0.2906  0.8137  0.5453
  290MOL0     C38207   9.270   9.037   2.736 -0.6068  0.2104  0.4214
  290MOL0     C38208   9.422   9.033   2.723  0.5982 -0.8839 -0.2999
  290MOL0     C38209   9.494   9.088   2.844 -0.0095 -0.3727 -0.7670
  290MOL0     C38210   9.647   9.061   2.815 -0.4819 -0.9071 -0.3626
  290MOL0     C38211   9.715   9.165   2.889  0.0520 -0.5520 -0.0609
  290MOL0     C38212   9.774   9.257   2.949  0.4655  0.0584 -0.0304
  290MOL0     C38213   9.031   9.217   2.852 -0.7209 -0.1847 -0.9163
  290MOL0     C38214   8.890   9.227   2.844 -0.7118 -0.1356  0.0892
  290MOL0     H38215   8.418   9.105   2.836 -0.5351 -0.7234 -0.4656
  290MOL0     H38216   8.182   9.147   2.815 -1.5196  1.5979  3.8838
  290MOL0     H38217   8.004   9.268   2.942  1.0783  2.2577  0.5984
  290MOL0     H38218   7.912   9.224   2.809 -1.1965  0.7389 -0.9564
  290MOL0     H38219   7.890   9.480   2.975  1.2401 -1.5670  0.3083
  290MOL0     H38220   7.767   9.359   2.964  0.2280  2.7955  2.6470
  290MOL0     H38221   7.705   9.413   2.737  0.7820  0.0925 -0.8016
  290MOL0     H38222   7.836   9.531   2.722 -0.0241 -0.6976 -0.8064
  290MOL0     H38223   7.607   9.543   2.934  2.3837  1.1970  2.6988
  290MOL0     H38224   7.726   9.661   2.913  0.3042 -0.8373  1.6477
  290MOL0     H38225   7.509   9.720   2.812 -2.6032 -3.0047 -0.1740
  290MOL0     H38226   7.515   9.584   2.697 -0.0986  0.4465 -1.8349
  290MOL0     H38227   7.734   9.700   2.588  1.0579  1.7994  0.5197
  290MOL0     H38228   7.734   9.805   2.729  1.1235  0.4480 -0.8141
  290MOL0     H38229   7.536   9.767   2.502  0.0794 -0.1850 -0.0297
  290MOL0     H38230   7.495   9.882   2.641 -0.6193 -0.7489  0.4107
  290MOL0     H38231   7.568   9.987   2.429 -0.7892  1.3688  0.9433
  290MOL0     H38232   7.727   9.911   2.453  0.0740 -4.1281  2.9383
  290MOL0     H38233   7.506  10.171   2.575 -0.7084  0.5112  2.5477
  290MOL0     H38234   7.694  10.376   2.880 -2.9220  1.3893  0.9811
  290MOL0     H38235   7.541  10.317   2.879  1.7868 -2.2150 -0.0478
  290MOL0     H38236   7.527  10.422   2.636  1.0226  1.8337 -2.1430
  290MOL0     H38237   7.687  10.491   2.664  0.0806  0.8643 -0.2006
  290MOL0     H38238   7.610  10.636   2.865  0.5955  0.5694 -0.2120
  290MOL0     H38239   7.529  10.663   2.709  0.4847 -0.6261 -0.6570
  290MOL0     H38240   7.399  10.500   2.933  0.2061 -0.9147 -0.5739
  290MOL0     H38241   7.341  10.523   2.777 -0.3694 -1.3189  2.0288
  290MOL0     H38242   7.186  10.933   2.888  1.4597 -1.2021 -2.2459
  290MOL0     H38243   6.951  10.936   2.951  2.2307  3.2936  1.5035
  290MOL0     H38244   6.616  11.059   3.125 -0.9646  0.5397 -1.1286
  290MOL0     H38245   6.385  11.106   3.140 -0.0205  2.2201 -3.2528
  290MOL0     H38246   6.077  10.779   3.108 -1.5541 -1.0050 -2.5455
  290MOL0     H38247   6.100  10.804   2.937 -2.8369 -1.2421 -0.8533
  290MOL0     H38248   5.867  10.853   3.010  1.1798 -0.9452 -0.7206
  290MOL0     H38249   5.950  10.987   2.923 -1.5741  1.8749  0.2305
  290MOL0     H38250   5.988  11.110   3.145 -0.8088  0.2620  1.5941
  290MOL0     H38251   5.905  10.984   3.237 -6.8100  1.0380  0.7664
  290MOL0     H38252   5.784  11.206   3.154  0.8594 -0.0486 -0.8652
  290MOL0     H38253   5.771  11.117   3.010 -0.8432  0.6738  0.0608
  290MOL0     H38254   5.665  11.027   3.287 -1.8437  0.5387  0.0782
  290MOL0     H38255   5.638  10.936   3.135  2.3922 -0.3432 -0.7961
  290MOL0     H38256   5.556  11.227   3.170 -1.3681  0.6576  3.9150
  290MOL0     H38257   5.459  11.081   3.221 -0.8571 -0.1823 -0.4240
  290MOL0     H38258   5.540  11.113   2.938  0.3766 -0.8406 -0.1539
  290MOL0     H38259   5.417  11.014   2.993 -2.7838  0.5690 -2.3257
  290MOL0     H38260   5.309  11.226   2.907 -1.7739 -0.7082  0.7580
  290MOL0     H38261   5.408  11.324   3.019  2.7029 -1.2433  0.3190
  290MOL0     H38262   6.313  10.711   2.959  1.3797 -0.3277  0.3705
  290MOL0     H38263   6.529  10.676   2.926  1.6896 -0.7486  0.9438
  290MOL0     H38264   6.963  10.512   3.027 -2.1199  1.4659 -0.8614
  290MOL0     H38265   7.182  10.496   2.961  0.9986 -0.2898 -2.5473
  290MOL0     H38266   8.258   9.566   2.741  2.4660  0.3682  1.2355
  290MOL0     H38267   8.494   9.521   2.746  1.3075 -2.5060 -5.2445
  290MOL0     H38268   8.868   9.228   2.498  0.8189  0.2988 -0.8726
  290MOL0     H38269   9.103   9.199   2.520 -1.7682  3.5144 -0.9295
  290MOL0     H38270   9.219   9.003   2.646  2.4399 -1.1045 -0.9591
  290MOL0     H38271   9.232   8.979   2.820 -0.4556  0.0318  0.3695
  290MOL0     H38272   9.446   8.929   2.701  3.1627 -0.7561  1.5591
  290MOL0     H38273   9.449   9.090   2.634  0.0251  1.4957  0.9664
  290MOL0     H38274   9.464   9.035   2.935  3.0575 -1.3213 -0.1853
  290MOL0     H38275   9.468   9.194   2.852 -0.5108 -0.5677  0.2787
  290MOL0     H38276   9.679   8.961   2.846  0.5804 -0.4867 -0.0482
  290MOL0     H38277   9.663   9.080   2.708  1.3266 -0.4433 -0.0399
  290MOL0     H38278   9.826   9.344   2.983  0.4224 -0.6547  1.9912
  290MOL0     H38279   9.085   9.223   2.946  0.5787  3.5108 -1.6998
  290MOL0     H38280   8.833   9.235   2.936 -1.2258 -1.6430 -0.0740
  291MOL0     O38281   1.645   3.850   4.359  0.0677  0.0370  0.8903
  291MOL0     C38282   1.665   3.959   4.415  0.3022 -0.1044 -0.5003
  291MOL0     O38283   1.582   4.007   4.520 -0.0155  0.2575  0.5819
  291MOL0     C38284   1.456   3.949   4.512 -0.6396 -0.0441  0.0911
  291MOL0     C38285   1.403   3.901   4.627  0.6513 -0.1165 -0.6013
  291MOL0     C38286   1.272   3.844   4.629 -0.6857  0.1866  0.1264
  291MOL0     C38287   1.200   3.822   4.511  0.2160  0.2785  1.2295
  291MOL0     O38288   1.066   3.764   4.518  0.5375  0.4320  0.3853
  291MOL0     C38289   0.955   3.833   4.443 -0.0684 -0.2307  0.6320
  291MOL0     C38290   0.835   3.770   4.493  0.3787 -0.4604  0.8779
  291MOL0     C38291   0.708   3.802   4.403 -0.7160  0.5709  0.2162
  291MOL0     C38292   0.594   3.721   4.455 -0.3115  0.5575 -0.2185
  291MOL0     C38293   0.456   3.744   4.387 -0.2879  0.7688  0.4041
  291MOL0     C38294   0.359   3.622   4.414  0.5713 -0.6977 -0.6557
  291MOL0     C38295   0.216   3.659   4.425 -0.7838 -0.1729 -1.0823
  291MOL0     C38296   0.135   3.533   4.445  0.6894  0.2377 -1.4113
  291MOL0     N38297  -0.010   3.568   4.471 -0.1823 -0.3161 -0.4030
  291MOL0     C38298  -0.105   3.537   4.372  0.0456 -0.2234  0.4034
  291MOL0     C38299  -0.220   3.563   4.419  0.4214 -0.4951  0.2259
  291MOL0     C38300  -0.347   3.541   4.336  0.5465 -1.1236 -0.5938
  291MOL0     C38301  -0.468   3.586   4.410  0.2955  1.2485 -0.4321
  291MOL0     C38302  -0.598   3.514   4.353 -0.5646 -0.0451  0.2912
  291MOL0     C38303  -0.726   3.553   4.430 -0.1188 -0.5061  0.0878
  291MOL0     O38304  -0.843   3.489   4.387  0.0039 -0.0225  0.5404
  291MOL0     C38305  -0.921   3.449   4.490  0.1783  0.6128  0.0499
  291MOL0     C38306  -1.029   3.531   4.530  0.3522  0.3276  0.6393
  291MOL0     C38307  -1.125   3.483   4.622  0.2780 -0.0676  0.1253
  291MOL0     C38308  -1.117   3.355   4.683 -0.9076  0.8666  0.6561
  291MOL0     C38309  -1.229   3.300   4.763 -0.1278  0.0959  0.5528
  291MOL0     O38310  -1.344   3.376   4.761 -0.7743 -0.1515  0.3134
  291MOL0     C38311  -1.454   3.325   4.827  0.0414 -0.1484  0.5256
  291MOL0     C38312  -1.523   3.400   4.916 -0.3103 -0.1858  0.2669
  291MOL0     C38313  -1.642   3.352   4.977  0.5225 -0.6369  0.0101
  291MOL0     C38314  -1.702   3.233   4.939  0.1018 -0.6127  0.3253
  291MOL0     O38315  -1.811   3.179   4.996  0.4844 -0.2227  0.2915
  291MOL0     C38316  -1.821   3.188   5.138  0.1644 -0.2265 -0.3374
  291MOL0     C38317  -1.896   3.066   5.178 -0.9523 -0.1892 -0.0332
  291MOL0     C38318  -2.040   3.074   5.138 -0.5654  0.2088  0.1411
  291MOL0     C38319  -2.125   2.961   5.198 -0.6148 -0.9831  1.1360
  291MOL0     C38320  -2.111   2.808   5.156  0.5125 -0.0472  0.4022
  291MOL0     C38321  -2.200   2.735   5.057  0.5228  0.0198  0.1696
  291MOL0     C38322  -2.227   2.818   4.926 -0.1278  0.8801 -0.6139
  291MOL0     C38323  -2.110   2.794   4.832 -0.2187  0.2396  0.2121
  291MOL0    Cl38324  -2.087   2.929   4.716  0.2743 -0.1500 -0.4358
  291MOL0     C38325  -1.635   3.158   4.841 -0.0706  0.1701  0.2470
  291MOL0     C38326  -1.508   3.204   4.787  1.2129  0.4165  0.4468
  291MOL0     O38327  -1.213   3.194   4.821 -0.4896 -0.7048  0.0846
  291MOL0     C38328  -0.998   3.281   4.646  0.6959 -0.0804  0.0019
  291MOL0     C38329  -0.906   3.322   4.549  0.3087 -0.1970  0.2773
  291MOL0     N38330  -0.199   3.615   4.552  0.3207  0.5175 -0.5346
  291MOL0     N38331  -0.070   3.619   4.576  0.3155  0.6084 -0.0748
  291MOL0     C38332   1.246   3.881   4.393 -0.7923  0.2308  0.5127
  291MOL0     C38333   1.374   3.952   4.398  0.4050  1.3021 -1.0717
  291MOL0     C38334   1.791   4.039   4.374  0.0694 -0.1216  0.1932
  291MOL0     C38335   1.848   4.034   4.247  0.0370 -0.5538  0.5508
  291MOL0     C38336   1.963   4.105   4.225 -0.4182  0.2396  0.0931
  291MOL0     C38337   2.027   4.178   4.328  0.3636  0.7273 -0.0903
  291MOL0     O38338   2.143   4.240   4.335  0.3369  0.1650  0.1677
  291MOL0     C38339   2.211   4.247   4.207  0.2692 -0.0136  0.9182
  291MOL0     C38340   2.347   4.322   4.219  0.2138 -0.0642 -0.0748
  291MOL0     C38341   2.423   4.327   4.078 -0.0544 -0.3037 -0.7895
  291MOL0     C38342   2.555   4.414   4.087 -0.0792 -0.3043 -0.8520
  291MOL0     C38343   2.652   4.348   4.184 -0.8765  0.4296 -0.2408
  291MOL0     C38344   2.736   4.293   4.247 -0.1797 -1.3329 -1.4158
  291MOL0     C38345   1.967   4.175   4.451 -0.5876  0.2836 -0.4166
  291MOL0     C38346   1.847   4.110   4.474  0.0086 -0.4396 -0.1340
  291MOL0     H38347   1.448   3.920   4.724  0.4674  2.0805 -0.8932
  291MOL0     H38348   1.225   3.809   4.721  1.7949 -3.4048  0.2222
  291MOL0     H38349   0.960   3.803   4.338 -0.9679 -1.1333  0.8338
  291MOL0     H38350   0.969   3.941   4.457  0.0210 -0.2014  0.3110
  291MOL0     H38351   0.798   3.814   4.585 -3.1937  1.0502 -1.0811
  291MOL0     H38352   0.856   3.662   4.495  1.2837 -0.3958 -1.4656
  291MOL0     H38353   0.736   3.775   4.300 -0.0544 -1.1365  0.8146
  291MOL0     H38354   0.686   3.909   4.413 -0.0543  0.5230  2.9764
  291MOL0     H38355   0.624   3.616   4.439 -1.9379 -0.1177  0.8849
  291MOL0     H38356   0.597   3.729   4.564  0.2591 -0.9154 -0.0880
  291MOL0     H38357   0.475   3.765   4.282  0.2029 -4.0907 -0.7138
  291MOL0     H38358   0.402   3.828   4.432 -0.1076 -0.5222  3.3316
  291MOL0     H38359   0.388   3.593   4.516 -0.1226 -0.0686 -0.2640
  291MOL0     H38360   0.379   3.545   4.340 -0.1730 -0.7416 -0.8236
  291MOL0     H38361   0.210   3.730   4.508 -1.9714 -1.7461  0.2437
  291MOL0     H38362   0.181   3.720   4.341  0.4797 -0.3478 -1.7585
  291MOL0     H38363   0.174   3.466   4.522  0.8057 -1.8358 -3.1822
  291MOL0     H38364   0.135   3.471   4.354  1.7858 -0.8330 -0.7153
  291MOL0     H38365  -0.096   3.514   4.267 -0.0008  1.1592  0.0674
  291MOL0     H38366  -0.353   3.433   4.322  1.0889 -1.0666 -1.3659
  291MOL0     H38367  -0.339   3.586   4.236  0.5448  2.1895  0.7596
  291MOL0     H38368  -0.467   3.695   4.413 -0.4429  1.2587 -0.0064
  291MOL0     H38369  -0.453   3.550   4.513  1.0176  1.5245 -0.4371
  291MOL0     H38370  -0.599   3.540   4.247  1.2322 -0.1966  0.1948
  291MOL0     H38371  -0.590   3.405   4.360  2.7436 -0.2670 -3.3256
  291MOL0     H38372  -0.740   3.661   4.428  1.2710 -0.3139 -0.4398
  291MOL0     H38373  -0.692   3.525   4.531  3.0146 -0.3807 -0.8266
  291MOL0     H38374  -1.053   3.625   4.480  0.4039 -0.0537 -0.1222
  291MOL0     H38375  -1.218   3.536   4.640 -0.3790 -0.9353 -0.6890
  291MOL0     H38376  -1.484   3.495   4.951 -1.6236  1.5211 -2.5389
  291MOL0     H38377  -1.692   3.401   5.060  1.7091 -0.0529  0.4034
  291MOL0     H38378  -1.883   3.274   5.166 -1.0139 -1.3344  0.5920
  291MOL0     H38379  -1.727   3.189   5.193  0.1723 -1.3989 -0.3040
  291MOL0     H38380  -1.887   3.061   5.287  0.6859  1.5321 -0.0358
  291MOL0     H38381  -1.843   2.985   5.128  1.5629  1.5673 -0.4247
  291MOL0     H38382  -2.045   3.082   5.029 -0.6666 -1.1842  0.0307
  291MOL0     H38383  -2.084   3.171   5.165 -1.4429  0.5209 -2.1719
  291MOL0     H38384  -2.106   2.952   5.306  2.7339 -3.7372  0.4811
  291MOL0     H38385  -2.228   2.987   5.173 -0.1467  0.5276  0.6698
  291MOL0     H38386  -2.125   2.757   5.251 -2.3574  0.5513  0.3709
  291MOL0     H38387  -2.008   2.796   5.120 -0.2403 -1.3167 -1.5063
  291MOL0     H38388  -2.299   2.717   5.099  0.7305  0.1103  0.7098
  291MOL0     H38389  -2.156   2.638   5.030  0.7671  0.3508 -0.6498
  291MOL0     H38390  -2.319   2.807   4.868 -0.0718 -2.8018 -0.2256
  291MOL0     H38391  -2.210   2.923   4.952 -0.7953  0.7648  0.3673
  291MOL0     H38392  -2.112   2.704   4.770 -0.9364  0.0069  0.5675
  291MOL0     H38393  -2.025   2.795   4.901 -1.9378  2.5144  2.5164
  291MOL0     H38394  -1.673   3.063   4.805 -1.6060  1.6561 -2.3449
  291MOL0     H38395  -1.455   3.144   4.713 -0.4195 -1.1186  0.4549
  291MOL0     H38396  -0.985   3.181   4.685  0.1213  0.2134  0.9855
  291MOL0     H38397  -0.830   3.256   4.511  2.7966  3.3088 -1.3357
  291MOL0     H38398   1.185   3.869   4.305 -1.2081  2.2146  0.4819
  291MOL0     H38399   1.413   4.003   4.311 -0.7553  0.1747 -2.2814
  291MOL0     H38400   1.795   3.987   4.165  1.0462  1.1158 -1.1192
  291MOL0     H38401   2.003   4.110   4.125 -0.3475  0.5886  0.1387
  291MOL0     H38402   2.145   4.295   4.134  2.2138  0.4443 -0.6476
  291MOL0     H38403   2.237   4.149   4.167 -2.2824  0.7891 -3.2485
  291MOL0     H38404   2.328   4.426   4.245 -0.9004 -0.3249  0.1815
  291MOL0     H38405   2.404   4.269   4.296 -0.4276  0.8017  1.0161
  291MOL0     H38406   2.349   4.371   4.011 -0.7627  0.3177  0.3633
  291MOL0     H38407   2.463   4.229   4.048  2.6365 -0.5194  2.8119
  291MOL0     H38408   2.608   4.430   3.993  1.8991 -2.8582 -0.2751
  291MOL0     H38409   2.524   4.508   4.134 -0.3481 -1.1621  0.7594
  291MOL0     H38410   2.817   4.255   4.307  1.7257  2.2834 -1.3783
  291MOL0     H38411   2.024   4.224   4.529 -0.0627  0.5580 -0.9671
  291MOL0     H38412   1.800   4.116   4.572 -4.0303 -1.7661 -1.7866
  292MOL0     O38413   6.857   2.481   8.667 -0.8523 -1.0161 -0.7784
  292MOL0     C38414   6.856   2.364   8.711  0.4069  0.6397  0.0419
  292MOL0     O38415   6.756   2.271   8.712 -0.0739 -0.2465  0.1626
  292MOL0     C38416   6.636   2.305   8.654  0.5714  0.0109  0.4429
  292MOL0     C38417   6.521   2.252   8.702  0.7123  0.3849 -0.5899
  292MOL0     C38418   6.394   2.272   8.638  0.4129  0.1388  0.1704
  292MOL0     C38419   6.371   2.346   8.523  0.3368  0.5317  0.6951
  292MOL0     O38420   6.241   2.345   8.476 -0.5571  0.0250  0.1624
  292MOL0     C38421   6.187   2.467   8.431  0.3863 -0.1785  0.5240
  292MOL0     C38422   6.077   2.464   8.319  0.1534  0.3448 -0.2543
  292MOL0     C38423   6.007   2.332   8.315 -0.3411  0.2299  0.1246
  292MOL0     C38424   5.883   2.341   8.229 -0.2538  0.0736  0.3135
  292MOL0     C38425   5.817   2.210   8.183  0.4998 -1.0855 -0.8791
  292MOL0     C38426   5.767   2.129   8.291  0.0751  0.6334 -0.0843
  292MOL0     C38427   5.663   2.189   8.393 -1.4882  0.0758 -0.0088
  292MOL0     C38428   5.517   2.152   8.375  0.2350 -0.3924 -0.6774
  292MOL0     N38429   5.454   2.208   8.250 -0.4498  0.5119 -0.2544
  292MOL0     C38430   5.469   2.158   8.121  1.1388  0.2251  0.6356
  292MOL0     C38431   5.372   2.218   8.049  0.0433  0.0421  0.9021
  292MOL0     C38432   5.336   2.204   7.904  0.8273  0.8076 -1.0109
  292MOL0     C38433   5.369   2.329   7.833  0.3833 -0.4825  0.2935
  292MOL0     C38434   5.521   2.371   7.862  0.6295  0.8450  0.9298
  292MOL0     C38435   5.569   2.483   7.769  0.3285  0.2694  0.3143
  292MOL0     O38436   5.670   2.566   7.818 -0.1683  0.3524 -0.1324
  292MOL0     C38437   5.800   2.521   7.826 -0.2833 -0.5735  0.0931
  292MOL0     C38438   5.868   2.440   7.728 -0.2426  0.5380 -1.5158
  292MOL0     C38439   6.012   2.429   7.729 -0.1329 -0.0994  0.5351
  292MOL0     C38440   6.088   2.484   7.834  0.4162 -0.2807 -0.0792
  292MOL0     C38441   6.233   2.465   7.857 -0.2901 -0.0942  0.6544
  292MOL0     O38442   6.304   2.533   7.964  1.0591 -0.3818 -0.1241
  292MOL0     C38443   6.417   2.484   8.011  1.2117 -0.6796 -0.3680
  292MOL0     C38444   6.432   2.348   8.037 -0.1011 -0.5819 -0.1619
  292MOL0     C38445   6.551   2.299   8.086  0.4961 -0.9732  0.2017
  292MOL0     C38446   6.652   2.391   8.128 -0.6096 -0.4242  0.3399
  292MOL0     O38447   6.765   2.337   8.191  0.3062  0.4604  0.3800
  292MOL0     C38448   6.873   2.423   8.216 -0.1311 -0.0951 -0.1660
  292MOL0     C38449   6.979   2.336   8.269 -0.6330 -0.6323  0.4433
  292MOL0     C38450   7.112   2.409   8.290 -0.2081  0.5919 -0.2400
  292MOL0     C38451   7.240   2.338   8.319  0.6693 -0.2380 -0.7801
  292MOL0     C38452   7.305   2.255   8.208  0.4460 -0.9605 -0.1022
  292MOL0     C38453   7.452   2.264   8.204 -0.4521 -0.8709  0.1535
  292MOL0     C38454   7.531   2.197   8.320 -0.6020 -0.8461  0.1308
  292MOL0     C38455   7.668   2.162   8.279 -0.0530  0.0981 -0.8562
  292MOL0    Cl38456   7.775   2.128   8.418  0.2377  0.0510  0.1752
  292MOL0     C38457   6.637   2.526   8.104 -0.4576 -0.4919 -0.5558
  292MOL0     C38458   6.514   2.578   8.056  0.0742 -0.2614  0.0030
  292MOL0     O38459   6.279   2.386   7.777  0.2503 -0.6816  0.4174
  292MOL0     C38460   6.018   2.559   7.930 -0.6066 -0.5968 -0.4165
  292MOL0     C38461   5.877   2.578   7.923 -0.0869  0.2577  0.3173
  292MOL0     N38462   5.292   2.287   8.132  1.2952 -0.2698  0.2188
  292MOL0     N38463   5.354   2.297   8.247 -0.2546  0.5900 -0.3993
  292MOL0     C38464   6.486   2.409   8.466  0.2371  0.1664  0.5346
  292MOL0     C38465   6.613   2.388   8.528  0.0577  0.1143 -0.3339
  292MOL0     C38466   6.985   2.309   8.755  0.4538  0.2708 -0.5756
  292MOL0     C38467   6.984   2.199   8.845 -0.4513  0.4052 -0.0624
  292MOL0     C38468   7.101   2.146   8.897 -0.5487 -0.8820 -0.7721
  292MOL0     C38469   7.223   2.213   8.871  1.0373 -0.0440  0.8208
  292MOL0     O38470   7.332   2.159   8.933  0.7317  0.6957  0.8000
  292MOL0     C38471   7.454   2.201   8.863  0.6736 -0.2152 -0.1921
  292MOL0     C38472   7.575   2.129   8.930 -0.2324  0.0723  0.0601
  292MOL0     C38473   7.592   2.180   9.063  1.0584 -0.4698 -0.4729
  292MOL0     C38474   7.693   2.096   9.146  1.2370  0.0595 -0.3149
  292MOL0     C38475   7.697   2.136   9.289 -0.3775 -0.8350 -0.4742
  292MOL0     C38476   7.709   2.166   9.405 -0.4775 -0.0481 -0.4022
  292MOL0     C38477   7.223   2.326   8.786 -0.3980 -0.6898  0.0938
  292MOL0     C38478   7.103   2.373   8.731  0.4919 -0.2269  0.0446
  292MOL0     H38479   6.536   2.194   8.793  3.7823  3.1331  0.8693
  292MOL0     H38480   6.317   2.226   8.700  1.5726 -1.1338  0.7199
  292MOL0     H38481   6.268   2.534   8.400  0.5124  0.9260  2.9982
  292MOL0     H38482   6.144   2.524   8.514  0.2876 -1.5059  1.4129
  292MOL0     H38483   6.109   2.492   8.218  0.8858  2.4961  0.5121
  292MOL0     H38484   6.015   2.551   8.345  2.2627  2.2912 -1.3730
  292MOL0     H38485   5.979   2.299   8.416  0.8450 -2.5222 -0.3691
  292MOL0     H38486   6.077   2.257   8.278  1.0535 -0.0457  3.0837
  292MOL0     H38487   5.818   2.416   8.274  2.0252  1.8515  0.8208
  292MOL0     H38488   5.908   2.394   8.136 -3.9652  0.7866 -0.4477
  292MOL0     H38489   5.888   2.150   8.126 -1.8950 -2.2819 -2.7801
  292MOL0     H38490   5.732   2.243   8.121  2.2311  2.8703 -1.4562
  292MOL0     H38491   5.850   2.091   8.351 -0.6465 -2.6834 -1.0060
  292MOL0     H38492   5.739   2.034   8.246 -0.9738 -0.7293  3.2220
  292MOL0     H38493   5.703   2.155   8.489 -2.8742 -2.2598 -0.1729
  292MOL0     H38494   5.682   2.296   8.407 -0.1633 -0.4658  3.4833
  292MOL0     H38495   5.466   2.190   8.463  0.5211  1.9699 -1.4519
  292MOL0     H38496   5.515   2.043   8.366  0.6514 -0.3547 -1.3591
  292MOL0     H38497   5.547   2.094   8.081  1.1227  1.2205 -1.1138
  292MOL0     H38498   5.229   2.185   7.888  1.1049  1.0629 -3.5562
  292MOL0     H38499   5.386   2.114   7.868  3.1680  2.3065 -1.7477
  292MOL0     H38500   5.318   2.412   7.882  0.7502  0.5450 -1.0047
  292MOL0     H38501   5.329   2.331   7.731 -0.7349 -0.4970  0.7263
  292MOL0     H38502   5.520   2.410   7.965 -1.1468 -1.0337  1.7043
  292MOL0     H38503   5.579   2.280   7.874  2.3040  1.7046 -0.3243
  292MOL0     H38504   5.486   2.549   7.745  0.7726  0.5339 -0.5341
  292MOL0     H38505   5.600   2.433   7.677  0.5263  1.7229 -0.4376
  292MOL0     H38506   5.820   2.376   7.655 -0.1170  1.4165 -2.3981
  292MOL0     H38507   6.064   2.362   7.661  0.8300 -0.1428  1.2919
  292MOL0     H38508   6.350   2.281   8.012  0.0930 -0.7144 -0.4505
  292MOL0     H38509   6.562   2.196   8.117  0.1755 -0.4475  2.2522
  292MOL0     H38510   6.849   2.499   8.291  2.7529 -0.6361  1.4870
  292MOL0     H38511   6.903   2.468   8.121 -0.5297 -0.0481 -0.2672
  292MOL0     H38512   7.002   2.254   8.200 -0.1303 -1.3140  1.3826
  292MOL0     H38513   6.942   2.291   8.362 -1.5815 -0.1632  0.3031
  292MOL0     H38514   7.092   2.477   8.373  0.7948 -1.1048  1.4724
  292MOL0     H38515   7.140   2.473   8.206  1.2616  1.2331  0.6936
  292MOL0     H38516   7.316   2.405   8.361 -0.5880  0.7965 -0.1149
  292MOL0     H38517   7.211   2.274   8.403 -1.8646  0.8942 -0.7141
  292MOL0     H38518   7.261   2.284   8.112  0.5614  2.3775  0.7468
  292MOL0     H38519   7.294   2.149   8.232  2.6945 -0.9478  1.2929
  292MOL0     H38520   7.495   2.362   8.179  2.5076 -1.2700  2.9865
  292MOL0     H38521   7.473   2.200   8.118 -3.4483 -1.4440 -0.2641
  292MOL0     H38522   7.532   2.270   8.402 -1.4600 -2.2590  1.4704
  292MOL0     H38523   7.473   2.115   8.365 -1.7982  0.0489  0.2653
  292MOL0     H38524   7.699   2.255   8.231  1.1269  0.9273  1.3840
  292MOL0     H38525   7.675   2.077   8.210  1.4299 -0.2351 -0.3322
  292MOL0     H38526   6.722   2.591   8.120 -0.0640 -1.5298  2.0407
  292MOL0     H38527   6.504   2.686   8.047 -0.2926 -0.2368  0.6463
  292MOL0     H38528   6.063   2.603   8.019  1.3039 -1.1367 -1.0576
  292MOL0     H38529   5.836   2.631   8.008 -2.3015  1.1269 -1.2124
  292MOL0     H38530   6.493   2.472   8.378 -1.6393  0.6216  0.6557
  292MOL0     H38531   6.711   2.414   8.488 -0.8219  1.3601 -1.7734
  292MOL0     H38532   6.899   2.137   8.872  0.3805  0.6128  3.3997
  292MOL0     H38533   7.089   2.063   8.966  2.4569 -0.1801  0.7832
  292MOL0     H38534   7.476   2.308   8.865  0.5182 -0.1947  0.5911
  292MOL0     H38535   7.453   2.168   8.758 -2.0333 -3.7935  0.7405
  292MOL0     H38536   7.559   2.023   8.953  0.9963  0.4507  3.0657
  292MOL0     H38537   7.672   2.143   8.881  0.1215 -0.8217  0.4872
  292MOL0     H38538   7.496   2.181   9.116  1.3836 -2.8710  0.3034
  292MOL0     H38539   7.628   2.283   9.053  0.5651  0.0891  2.5216
  292MOL0     H38540   7.666   1.990   9.147  1.1637  0.0766 -0.4640
  292MOL0     H38541   7.791   2.103   9.098 -0.3604  0.5992 -3.7685
  292MOL0     H38542   7.732   2.175   9.510  0.0215 -1.3169 -0.3894
  292MOL0     H38543   7.309   2.386   8.760 -1.1488  0.3878  0.0106
  292MOL0     H38544   7.100   2.465   8.673 -1.4074 -0.1776  0.1563
  293MOL0     O38545   3.419   4.215   8.092 -0.0473  0.0905  0.0476
  293MOL0     C38546   3.339   4.127   8.050 -0.5878  0.7101  0.2947
  293MOL0     O38547   3.369   4.036   7.959 -0.9972  0.1678  0.1256
  293MOL0     C38548   3.498   3.998   7.927  0.5885  0.5359 -0.2445
  293MOL0     C38549   3.508   3.901   7.830  0.4796 -0.8045  0.1278
  293MOL0     C38550   3.624   3.860   7.776 -0.3571 -0.9397 -0.2700
  293MOL0     C38551   3.746   3.922   7.816 -0.4085  0.6620  0.9937
  293MOL0     O38552   3.856   3.877   7.754 -0.2251 -0.0047  0.3158
  293MOL0     C38553   3.973   3.966   7.745 -0.8732 -0.0767 -0.1781
  293MOL0     C38554   4.087   3.913   7.653 -0.2729  0.5860 -0.3582
  293MOL0     C38555   4.209   4.001   7.656  0.1461  0.1483  0.9170
  293MOL0     C38556   4.287   3.972   7.770  0.6069  0.7924 -0.5011
  293MOL0     C38557   4.405   4.079   7.798 -0.5406  0.1294  0.0953
  293MOL0     C38558   4.524   4.039   7.711 -0.1390  0.4223 -0.4363
  293MOL0     C38559   4.655   4.118   7.716  0.7228  0.0239  0.0414
  293MOL0     C38560   4.737   4.096   7.848 -0.2067  0.8729 -0.3441
  293MOL0     N38561   4.860   4.169   7.840  0.2606  0.5907 -0.5537
  293MOL0     C38562   4.874   4.304   7.858  0.4434  0.6315  0.0279
  293MOL0     C38563   5.004   4.335   7.866 -0.1464  0.3141  0.5044
  293MOL0     C38564   5.059   4.477   7.868  0.3465 -0.2798 -0.4115
  293MOL0     C38565   5.062   4.561   7.745  0.5167 -0.6938 -0.3299
  293MOL0     C38566   5.105   4.708   7.789 -1.0927  0.6558 -0.7331
  293MOL0     C38567   5.098   4.797   7.660  0.8563  1.5187  0.0200
  293MOL0     O38568   4.965   4.859   7.651 -0.1077  0.7003  0.6541
  293MOL0     C38569   4.948   4.945   7.554  0.0219 -0.2390  0.8147
  293MOL0     C38570   4.838   5.026   7.555  0.4646 -0.9813  0.4895
  293MOL0     C38571   4.828   5.135   7.460 -0.3336  0.6419  0.9441
  293MOL0     C38572   4.918   5.154   7.357  0.0659 -0.4835 -0.6084
  293MOL0     C38573   4.897   5.258   7.247 -0.1987  0.5088  0.5147
  293MOL0     O38574   4.996   5.274   7.161 -0.2981 -0.3168 -0.0303
  293MOL0     C38575   4.965   5.333   7.041 -0.2707  0.9630 -0.0827
  293MOL0     C38576   4.859   5.296   6.961  0.1556 -0.1319  0.2067
  293MOL0     C38577   4.822   5.373   6.852  0.5573  0.5806 -0.1346
  293MOL0     C38578   4.893   5.483   6.814 -0.1310  0.2944 -0.8361
  293MOL0     O38579   4.860   5.547   6.701  0.3982  0.2955 -0.4884
  293MOL0     C38580   4.927   5.663   6.669  0.0440 -0.4816 -0.3552
  293MOL0     C38581   4.875   5.698   6.529  0.0624 -0.5899  0.2096
  293MOL0     C38582   4.932   5.604   6.416  1.2434 -0.3162 -0.2094
  293MOL0     C38583   5.079   5.623   6.387  1.1052  0.1070  0.1770
  293MOL0     C38584   5.114   5.657   6.250  0.5591  0.4794 -0.1147
  293MOL0     C38585   5.265   5.654   6.224 -0.5263 -0.3946  0.0751
  293MOL0     C38586   5.273   5.715   6.086 -0.2859  0.4376 -0.6442
  293MOL0     C38587   5.408   5.704   6.035 -0.3525 -0.4937 -0.1863
  293MOL0    Cl38588   5.521   5.782   6.144  0.1305 -0.0663 -0.1806
  293MOL0     C38589   5.010   5.507   6.887 -0.8648  0.1248  0.5747
  293MOL0     C38590   5.049   5.429   6.994 -0.4654  0.1158  0.7871
  293MOL0     O38591   4.796   5.325   7.249 -0.0628  0.0304  0.1608
  293MOL0     C38592   5.033   5.072   7.352  0.2805  1.3007 -0.6579
  293MOL0     C38593   5.045   4.961   7.442  0.1847 -0.1445 -0.5717
  293MOL0     N38594   5.079   4.216   7.860  0.0215 -0.1744  0.6613
  293MOL0     N38595   4.992   4.116   7.854 -0.1998 -0.2136  0.7188
  293MOL0     C38596   3.748   4.008   7.927 -0.0864  0.3298 -0.3254
  293MOL0     C38597   3.620   4.043   7.988  0.0431  0.3117  0.2958
  293MOL0     C38598   3.201   4.136   8.101 -0.2093 -0.0864 -0.0349
  293MOL0     C38599   3.098   4.059   8.051  0.0810  0.3035  0.4113
  293MOL0     C38600   2.965   4.073   8.077 -0.0739 -0.3725 -0.3374
  293MOL0     C38601   2.930   4.172   8.162  0.7320  0.6230  0.7528
  293MOL0     O38602   2.799   4.214   8.185 -0.5377 -0.4517 -0.5944
  293MOL0     C38603   2.714   4.117   8.247 -0.0850  0.2888 -0.5270
  293MOL0     C38604   2.591   4.079   8.176  0.5833  0.7634  0.0035
  293MOL0     C38605   2.530   3.952   8.241  0.7941 -0.3598  0.7047
  293MOL0     C38606   2.385   3.947   8.211  1.1571  0.4757  0.5035
  293MOL0     C38607   2.313   4.022   8.308  0.2660 -1.2355  0.5101
  293MOL0     C38608   2.254   4.096   8.387 -0.1642  0.4184 -0.3351
  293MOL0     C38609   3.028   4.256   8.210 -0.3185  0.3179  0.1553
  293MOL0     C38610   3.164   4.238   8.184 -0.7347  0.8313  0.4188
  293MOL0     H38611   3.423   3.867   7.771  1.5510  0.9201 -2.5752
  293MOL0     H38612   3.613   3.787   7.697 -2.0008 -1.2028  0.1608
  293MOL0     H38613   4.015   3.965   7.846  0.9322 -1.8777 -0.8585
  293MOL0     H38614   3.949   4.069   7.718 -2.8089 -0.4195  0.1372
  293MOL0     H38615   4.048   3.925   7.551 -1.7914  2.9542  0.4164
  293MOL0     H38616   4.115   3.808   7.665  0.3955  0.7693 -0.2951
  293MOL0     H38617   4.182   4.107   7.652  2.3418  0.7172 -1.1377
  293MOL0     H38618   4.263   3.983   7.563 -1.7756 -2.7239  0.2308
  293MOL0     H38619   4.221   3.974   7.858  2.3607  0.3718  0.8900
  293MOL0     H38620   4.323   3.869   7.768  1.1092  0.9431 -3.9401
  293MOL0     H38621   4.435   4.086   7.903  0.6369  1.2763 -0.2898
  293MOL0     H38622   4.368   4.178   7.767  1.2081  1.3708  1.7267
  293MOL0     H38623   4.487   4.044   7.608  1.1331 -0.3163 -0.9514
  293MOL0     H38624   4.542   3.931   7.714  1.4948  0.6970  0.5390
  293MOL0     H38625   4.717   4.089   7.631  0.1739 -2.3200  0.3870
  293MOL0     H38626   4.638   4.226   7.704  2.2998  0.1705 -1.2055
  293MOL0     H38627   4.772   3.992   7.851  2.7978  1.7432  4.1130
  293MOL0     H38628   4.690   4.129   7.941  0.2637 -2.3116  1.1825
  293MOL0     H38629   4.794   4.377   7.860 -0.8646 -0.7573  1.6899
  293MOL0     H38630   5.156   4.461   7.914 -0.1997 -0.5272  0.6895
  293MOL0     H38631   5.006   4.535   7.944  2.5112  0.2190  0.7936
  293MOL0     H38632   4.968   4.571   7.688  0.2391 -2.5300 -0.2442
  293MOL0     H38633   5.142   4.515   7.687  0.7674 -2.1057  1.0718
  293MOL0     H38634   5.038   4.754   7.862 -0.0857 -0.1377  0.7380
  293MOL0     H38635   5.208   4.712   7.826 -1.5573  0.8130  0.6008
  293MOL0     H38636   5.117   4.733   7.574 -2.8353  0.0773  0.0671
  293MOL0     H38637   5.177   4.870   7.674  1.9966  0.1958  0.7784
  293MOL0     H38638   4.770   5.030   7.639 -0.9124 -1.8098 -0.5482
  293MOL0     H38639   4.736   5.192   7.448  0.3575  1.3731 -1.6759
  293MOL0     H38640   4.781   5.226   6.990  0.0114 -0.3054 -0.5519
  293MOL0     H38641   4.738   5.333   6.795  1.9865 -1.2200 -1.0761
  293MOL0     H38642   5.034   5.641   6.678 -0.2667 -1.3847  1.8569
  293MOL0     H38643   4.910   5.743   6.742 -3.1830 -2.6480  1.5632
  293MOL0     H38644   4.911   5.796   6.499  1.1171 -1.0687 -0.1346
  293MOL0     H38645   4.766   5.687   6.524  0.0158  0.4206 -2.7337
  293MOL0     H38646   4.880   5.631   6.324  1.8304  0.6994 -0.2653
  293MOL0     H38647   4.919   5.498   6.440  2.1632 -0.3233  0.2817
  293MOL0     H38648   5.112   5.702   6.455 -0.5731 -1.1593  2.6421
  293MOL0     H38649   5.134   5.532   6.413  0.4674 -0.7787 -1.4436
  293MOL0     H38650   5.067   5.751   6.219  0.9912  0.3719 -1.1235
  293MOL0     H38651   5.060   5.587   6.186 -2.4185  2.5142 -0.0344
  293MOL0     H38652   5.301   5.552   6.203 -1.1915 -0.2710 -1.9366
  293MOL0     H38653   5.322   5.707   6.300 -1.4760  2.2234 -0.9266
  293MOL0     H38654   5.222   5.658   6.007  4.2302 -2.8686 -1.5838
  293MOL0     H38655   5.238   5.819   6.086 -0.2995  0.4655 -2.2780
  293MOL0     H38656   5.423   5.768   5.948  5.2139 -0.6449  0.2609
  293MOL0     H38657   5.430   5.600   6.006 -2.2926 -1.3441  1.1322
  293MOL0     H38658   5.078   5.582   6.848 -0.6451 -1.3656 -2.2374
  293MOL0     H38659   5.136   5.443   7.057  0.6458 -3.0716  0.1420
  293MOL0     H38660   5.099   5.066   7.266 -1.2817  2.2768 -1.9749
  293MOL0     H38661   5.132   4.896   7.441 -0.5194 -1.1073 -2.1009
  293MOL0     H38662   3.834   4.064   7.961  0.9072 -2.1331  1.4691
  293MOL0     H38663   3.622   4.104   8.078  0.2331  0.6425  0.0682
  293MOL0     H38664   3.114   3.987   7.972 -1.9890  0.9213 -0.6488
  293MOL0     H38665   2.887   4.021   8.023  0.0041 -0.4466 -0.3796
  293MOL0     H38666   2.683   4.168   8.339 -1.4117  2.0244 -1.8661
  293MOL0     H38667   2.770   4.027   8.271 -1.3961 -0.3420  0.2852
  293MOL0     H38668   2.515   4.157   8.175 -2.7874 -2.2172 -2.2500
  293MOL0     H38669   2.618   4.070   8.070  1.3497  0.8910  0.1822
  293MOL0     H38670   2.548   3.949   8.349  0.1043  0.5626  0.8676
  293MOL0     H38671   2.576   3.866   8.193 -2.5724 -0.4558 -2.8926
  293MOL0     H38672   2.362   3.982   8.110 -0.7659 -1.0453  0.3504
  293MOL0     H38673   2.347   3.845   8.220 -1.4244  1.2090 -1.0341
  293MOL0     H38674   2.232   4.161   8.470  3.3800 -2.5421  3.3476
  293MOL0     H38675   3.002   4.337   8.278 -0.6117  1.0880 -0.8517
  293MOL0     H38676   3.227   4.318   8.222 -1.7198  2.8563 -1.9109
  294MOL0     O38677   1.120   9.210  10.152  0.9590 -1.0500  0.1456
  294MOL0     C38678   1.140   9.221  10.033  0.1930  0.3208 -0.6042
  294MOL0     O38679   1.047   9.208   9.935  0.7563 -1.4305 -0.1742
  294MOL0     C38680   0.912   9.226   9.964  0.2813  0.1586  0.3962
  294MOL0     C38681   0.841   9.154  10.063 -0.8680 -0.0181  0.5143
  294MOL0     C38682   0.704   9.161  10.074 -0.0850 -0.8709 -0.3709
  294MOL0     C38683   0.626   9.241   9.989 -0.4153  0.2213 -0.0788
  294MOL0     O38684   0.493   9.247  10.001  0.7903 -0.1438  0.3400
  294MOL0     C38685   0.415   9.318   9.903  0.0556  0.6587 -0.4759
  294MOL0     C38686   0.264   9.292   9.922 -0.0455  0.0052 -0.9802
  294MOL0     C38687   0.185   9.324   9.790 -0.3283  0.5132 -0.1718
  294MOL0     C38688   0.037   9.336   9.828  0.2948  0.1384 -0.3655
  294MOL0     C38689  -0.060   9.367   9.706 -0.3428  0.0053  0.9849
  294MOL0     C38690  -0.210   9.321   9.705 -0.0383  1.5266 -0.9439
  294MOL0     C38691  -0.243   9.170   9.712 -0.2187 -0.9867 -0.1863
  294MOL0     C38692  -0.211   9.108   9.571 -0.2776 -1.0872  0.0703
  294MOL0     N38693  -0.066   9.076   9.560  0.5603  0.8881  0.7413
  294MOL0     C38694   0.015   9.007   9.644  1.4284 -0.2776 -0.2458
  294MOL0     C38695   0.138   9.010   9.590  0.2839 -0.2522  0.1187
  294MOL0     C38696   0.258   8.952   9.660 -0.3462  0.7461  0.3039
  294MOL0     C38697   0.394   9.011   9.613  0.6534 -0.0978 -1.0151
  294MOL0     C38698   0.434   8.964   9.477  0.9080  0.0774  0.3049
  294MOL0     C38699   0.582   8.936   9.458  1.2248  1.0336 -0.1559
  294MOL0     O38700   0.649   9.060   9.495 -0.5528  0.5230 -0.5265
  294MOL0     C38701   0.787   9.044   9.496 -0.4191  0.2945 -0.0924
  294MOL0     C38702   0.860   8.932   9.451  0.0709 -0.4449  0.1553
  294MOL0     C38703   0.995   8.916   9.467 -0.1348  0.7113  0.3029
  294MOL0     C38704   1.068   9.013   9.536 -1.4423  0.1495 -0.2023
  294MOL0     C38705   1.219   9.000   9.540 -0.6644 -0.6198  0.3384
  294MOL0     O38706   1.289   9.121   9.557 -0.7204  0.2646  0.4405
  294MOL0     C38707   1.425   9.120   9.550  0.1808  0.4857 -1.1343
  294MOL0     C38708   1.516   9.087   9.660 -0.4512  0.6615  0.2979
  294MOL0     C38709   1.651   9.088   9.647 -0.5042 -0.0131 -0.4121
  294MOL0     C38710   1.711   9.153   9.533  0.4196  0.9025 -0.8216
  294MOL0     O38711   1.845   9.160   9.542 -0.7840 -0.4085 -0.1188
  294MOL0     C38712   1.905   9.206   9.425 -0.4449 -0.4780  0.1738
  294MOL0     C38713   2.048   9.243   9.479 -0.3306 -0.1254 -0.0295
  294MOL0     C38714   2.113   9.299   9.360 -0.5182 -0.5830  0.0199
  294MOL0     C38715   2.156   9.192   9.261 -1.1120  1.3981 -0.7557
  294MOL0     C38716   2.249   9.256   9.164 -0.9352  0.1659  0.9248
  294MOL0     C38717   2.291   9.152   9.066 -0.4377  0.0418 -0.2199
  294MOL0     C38718   2.350   9.213   8.935 -0.8063  1.0499  0.5956
  294MOL0     C38719   2.497   9.233   8.960 -0.1855 -0.9780 -0.1013
  294MOL0    Cl38720   2.575   9.275   8.814 -0.4986  0.1640  0.2474
  294MOL0     C38721   1.626   9.178   9.431 -0.9638  0.2305 -0.3182
  294MOL0     C38722   1.482   9.161   9.433 -1.0749  0.1499  0.2190
  294MOL0     O38723   1.268   8.891   9.528 -0.2170  0.1728 -0.0878
  294MOL0     C38724   0.999   9.119   9.588  0.4008  0.3248 -0.5937
  294MOL0     C38725   0.862   9.138   9.565  0.1848  0.0994 -0.2505
  294MOL0     N38726   0.135   9.099   9.481 -0.3005  0.0149 -0.2659
  294MOL0     N38727   0.010   9.124   9.453  0.1925  0.5062 -0.6486
  294MOL0     C38728   0.695   9.309   9.889  0.1477 -0.2380  0.3723
  294MOL0     C38729   0.838   9.307   9.885 -0.2821 -0.4937 -0.2054
  294MOL0     C38730   1.277   9.259   9.994  0.9569  0.8563  0.1667
  294MOL0     C38731   1.383   9.249  10.090 -0.2375  0.1503  0.8883
  294MOL0     C38732   1.509   9.293  10.069 -0.6833 -0.2242 -0.4152
  294MOL0     C38733   1.539   9.351   9.950  0.0529 -1.0691 -0.0143
  294MOL0     O38734   1.662   9.404   9.951 -0.0526 -0.0670  0.0822
  294MOL0     C38735   1.727   9.410   9.816  0.9630  0.1343 -0.7140
  294MOL0     C38736   1.861   9.470   9.847 -1.2904  0.5392 -0.1774
  294MOL0     C38737   1.951   9.375   9.935  0.0249 -0.2436  0.3572
  294MOL0     C38738   2.053   9.301   9.850  0.1703 -0.3139  0.3587
  294MOL0     C38739   2.139   9.226   9.943 -0.5362 -0.1247  0.7375
  294MOL0     C38740   2.217   9.157  10.006  0.2512 -0.7828  0.3979
  294MOL0     C38741   1.439   9.357   9.853  0.0410  0.3178  0.2014
  294MOL0     C38742   1.308   9.317   9.873 -0.6454  0.3126 -0.2752
  294MOL0     H38743   0.890   9.077  10.121 -1.3230  0.1881  1.1932
  294MOL0     H38744   0.668   9.090  10.148 -2.0798  1.8491  1.4766
  294MOL0     H38745   0.444   9.275   9.807  0.8921  0.7919 -0.2834
  294MOL0     H38746   0.436   9.425   9.901  5.6179  0.1151  4.0581
  294MOL0     H38747   0.232   9.360  10.001  1.9945  0.8303 -0.7833
  294MOL0     H38748   0.254   9.185   9.940  1.8047 -1.2397 -5.6365
  294MOL0     H38749   0.199   9.236   9.727 -1.9701 -2.8680  3.6655
  294MOL0     H38750   0.249   9.400   9.744 -0.2660 -0.8291 -2.4548
  294MOL0     H38751   0.008   9.235   9.858 -1.3138 -0.0783 -2.4508
  294MOL0     H38752   0.031   9.407   9.911 -1.5902  1.9601 -1.9615
  294MOL0     H38753  -0.014   9.335   9.612  3.5213 -1.0636  3.0150
  294MOL0     H38754  -0.056   9.472   9.676  0.5912 -0.7130 -1.6724
  294MOL0     H38755  -0.262   9.366   9.621  0.4198  1.2645 -1.3714
  294MOL0     H38756  -0.269   9.363   9.788 -0.1105  0.9193 -0.6841
  294MOL0     H38757  -0.187   9.120   9.791 -0.3510 -0.5786  0.1689
  294MOL0     H38758  -0.349   9.165   9.739 -0.7206  3.2375 -0.6752
  294MOL0     H38759  -0.235   9.184   9.496  4.3479  1.1314  0.5328
  294MOL0     H38760  -0.265   9.015   9.548  1.9125 -2.4712  0.2059
  294MOL0     H38761  -0.010   8.967   9.742  0.1299  0.4179 -0.2676
  294MOL0     H38762   0.257   8.846   9.636  1.2823  1.1801 -1.8605
  294MOL0     H38763   0.247   8.948   9.769 -1.3534 -3.0484  0.2044
  294MOL0     H38764   0.469   8.979   9.685 -1.3064 -2.7330  0.0120
  294MOL0     H38765   0.394   9.121   9.613  0.4123 -0.0954 -0.3024
  294MOL0     H38766   0.380   8.874   9.446 -2.5551  3.0563 -3.5734
  294MOL0     H38767   0.407   9.035   9.398  1.0513  0.9532  1.0247
  294MOL0     H38768   0.603   8.892   9.360  1.2660  1.0102 -0.1369
  294MOL0     H38769   0.616   8.861   9.530  0.3502 -1.3178 -2.0528
  294MOL0     H38770   0.811   8.847   9.404 -1.7724  0.4107  0.4469
  294MOL0     H38771   1.036   8.823   9.429 -0.8289 -0.2252  1.7784
  294MOL0     H38772   1.471   9.061   9.755  0.8699 -0.3681  0.6740
  294MOL0     H38773   1.719   9.063   9.728 -1.0486  1.1776  0.4362
  294MOL0     H38774   1.864   9.298   9.382  3.8712  1.9563  0.6517
  294MOL0     H38775   1.914   9.135   9.342 -1.0006  0.2915 -0.5568
  294MOL0     H38776   2.106   9.162   9.523 -0.0441  0.6160  0.9901
  294MOL0     H38777   2.025   9.320   9.554  0.9374  0.7241 -0.4848
  294MOL0     H38778   2.202   9.351   9.398  1.0746 -1.9068 -1.6739
  294MOL0     H38779   2.051   9.361   9.295  0.5164 -1.1158 -1.5312
  294MOL0     H38780   2.206   9.110   9.314  0.1082  1.7679 -1.3088
  294MOL0     H38781   2.068   9.158   9.205 -0.4734  2.3249 -2.3987
  294MOL0     H38782   2.341   9.292   9.210 -1.4490  1.5868  0.8671
  294MOL0     H38783   2.196   9.337   9.113  1.9013  3.3883  2.6883
  294MOL0     H38784   2.210   9.087   9.030  0.3888  0.0734 -2.3030
  294MOL0     H38785   2.364   9.082   9.107 -0.3529  1.8508  2.9896
  294MOL0     H38786   2.345   9.144   8.850 -0.9896  1.5381  0.2087
  294MOL0     H38787   2.293   9.301   8.906  0.0930  1.3235 -0.3991
  294MOL0     H38788   2.553   9.158   9.016 -2.8418 -2.1616  1.1495
  294MOL0     H38789   2.500   9.325   9.020 -0.7034 -1.3472  0.4958
  294MOL0     H38790   1.645   9.217   9.332 -2.0472  1.2321 -0.1542
  294MOL0     H38791   1.419   9.159   9.344 -0.5008 -1.0823 -0.1879
  294MOL0     H38792   1.047   9.195   9.649  1.5922 -3.4034  3.7097
  294MOL0     H38793   0.813   9.219   9.618 -2.1485 -0.9210 -0.6798
  294MOL0     H38794   0.639   9.378   9.826 -0.3576  0.5013  1.5919
  294MOL0     H38795   0.890   9.372   9.815  0.9090 -0.0155  1.0930
  294MOL0     H38796   1.376   9.219  10.194 -0.7243 -1.0982  0.5198
  294MOL0     H38797   1.577   9.290  10.153 -3.5122 -2.0140  2.0304
  294MOL0     H38798   1.673   9.477   9.749 -1.4774  0.9760  1.9103
  294MOL0     H38799   1.736   9.313   9.766 -2.6648 -1.0258  0.5455
  294MOL0     H38800   1.927   9.489   9.761  0.4323  3.9097  1.6801
  294MOL0     H38801   1.844   9.570   9.887  1.6663  0.5794  1.2278
  294MOL0     H38802   1.896   9.296   9.987  1.7488 -0.2231  2.3919
  294MOL0     H38803   2.003   9.436  10.011 -1.9307 -0.6859  2.1470
  294MOL0     H38804   2.009   9.226   9.783 -0.2015 -1.1763  1.5274
  294MOL0     H38805   2.112   9.369   9.788 -1.2591 -1.6528 -2.6534
  294MOL0     H38806   2.266   9.098  10.080 -0.7477 -1.3021  0.6597
  294MOL0     H38807   1.458   9.389   9.751  0.4772 -1.1487 -0.2165
  294MOL0     H38808   1.232   9.324   9.795 -2.9971  0.9864  1.9303
  295MOL0     O38809   8.644   0.022   8.427  0.4602 -0.0065  0.4258
  295MOL0     C38810   8.708  -0.056   8.493 -0.0488 -0.9357 -0.2028
  295MOL0     O38811   8.658  -0.133   8.593  0.4815 -0.2085  0.6876
  295MOL0     C38812   8.525  -0.132   8.630  0.0134 -0.8068  0.2821
  295MOL0     C38813   8.416  -0.062   8.561 -0.3341 -0.1028 -0.5180
  295MOL0     C38814   8.285  -0.072   8.603  0.1299 -0.4508  0.5229
  295MOL0     C38815   8.247  -0.133   8.723 -0.7098 -0.3908 -1.1755
  295MOL0     O38816   8.112  -0.145   8.769  0.0695  0.2466  0.6162
  295MOL0     C38817   8.077  -0.271   8.829  0.9388 -0.0490 -1.0421
  295MOL0     C38818   7.991  -0.226   8.945 -0.3559  0.1378  0.2326
  295MOL0     C38819   7.866  -0.144   8.926  0.8947 -0.2237  0.4349
  295MOL0     C38820   7.752  -0.139   9.034 -0.5952  0.0472  0.5697
  295MOL0     C38821   7.644  -0.035   8.994  0.3945  0.2617  0.4778
  295MOL0     C38822   7.550  -0.055   8.875  0.0274  1.0661  0.5559
  295MOL0     C38823   7.446   0.050   8.866  0.3886  0.2933  0.0128
  295MOL0     C38824   7.344   0.012   8.755  0.5117 -1.0185  0.2425
  295MOL0     N38825   7.263  -0.115   8.778  0.5792 -0.7603  0.6467
  295MOL0     C38826   7.230  -0.177   8.891 -0.4192  0.0755 -0.3035
  295MOL0     C38827   7.212  -0.305   8.870  0.3114 -0.5910  0.1697
  295MOL0     C38828   7.206  -0.407   8.980  0.5464  1.1840  0.4325
  295MOL0     C38829   7.089  -0.382   9.086  0.3865 -0.6611  0.6792
  295MOL0     C38830   7.082  -0.496   9.186  0.9861  0.1779  0.4593
  295MOL0     C38831   7.204  -0.532   9.266 -0.1588  0.1722 -0.5734
  295MOL0     O38832   7.270  -0.408   9.308 -0.3175  0.3784  0.3805
  295MOL0     C38833   7.409  -0.412   9.298  1.4255 -0.1941 -0.0992
  295MOL0     C38834   7.492  -0.298   9.288  0.4982 -0.5898  0.0834
  295MOL0     C38835   7.628  -0.309   9.311 -0.1899 -0.2176 -0.7241
  295MOL0     C38836   7.697  -0.427   9.332 -0.1767  0.0533 -0.7086
  295MOL0     C38837   7.848  -0.428   9.344 -0.2294  0.2427  0.6203
  295MOL0     O38838   7.919  -0.545   9.354  0.1049 -0.1691  0.2409
  295MOL0     C38839   8.045  -0.541   9.418  0.7117  0.5105  0.0222
  295MOL0     C38840   8.114  -0.656   9.390 -0.2716 -0.7376  0.1040
  295MOL0     C38841   8.241  -0.676   9.446 -0.7599  0.5369 -0.5884
  295MOL0     C38842   8.294  -0.591   9.546  0.0945 -0.8086  0.9271
  295MOL0     O38843   8.412  -0.621   9.609  0.1873 -0.2180 -0.0070
  295MOL0     C38844   8.469  -0.546   9.717  0.9613 -0.4781  0.4320
  295MOL0     C38845   8.620  -0.528   9.714 -0.9191  0.5183 -0.0173
  295MOL0     C38846   8.655  -0.427   9.602  0.1651  0.0913 -0.0728
  295MOL0     C38847   8.805  -0.403   9.602 -0.5860  0.1299  0.0163
  295MOL0     C38848   8.852  -0.333   9.480 -0.0111  0.1911  0.7064
  295MOL0     C38849   9.003  -0.327   9.473 -0.6111  0.2335  0.1260
  295MOL0     C38850   9.099  -0.455   9.476  0.3008  0.2470  0.0774
  295MOL0     C38851   9.237  -0.414   9.473 -0.8760 -0.0424  0.2605
  295MOL0    Cl38852   9.272  -0.398   9.302  0.0173  0.0681  0.1273
  295MOL0     C38853   8.217  -0.473   9.572 -0.3928 -0.3526 -0.4631
  295MOL0     C38854   8.101  -0.441   9.499 -0.0939 -1.2325 -0.2289
  295MOL0     O38855   7.898  -0.312   9.336  0.0008  0.1310  0.4482
  295MOL0     C38856   7.614  -0.545   9.341  0.6657 -0.3640 -0.4642
  295MOL0     C38857   7.474  -0.531   9.334  1.0021  0.2677 -0.1601
  295MOL0     N38858   7.220  -0.321   8.733  0.4193  1.0420  0.0552
  295MOL0     N38859   7.251  -0.213   8.675 -0.3390 -1.4082  0.0952
  295MOL0     C38860   8.356  -0.182   8.800 -0.7458  0.0141  0.8269
  295MOL0     C38861   8.490  -0.182   8.746  0.1852  0.1525 -0.8059
  295MOL0     C38862   8.850  -0.063   8.459 -0.0201 -0.3251 -0.9224
  295MOL0     C38863   8.902   0.036   8.381 -0.3012 -0.0804 -0.1979
  295MOL0     C38864   9.036   0.038   8.337 -0.1867  0.1585 -0.0422
  295MOL0     C38865   9.128  -0.053   8.406 -0.1198 -0.2435  0.3144
  295MOL0     O38866   9.265  -0.048   8.387  0.3641  0.2035 -0.0787
  295MOL0     C38867   9.307   0.018   8.267  0.1516 -0.5668 -0.7221
  295MOL0     C38868   9.456   0.019   8.280 -0.0335 -0.0307  0.8685
  295MOL0     C38869   9.524   0.117   8.179  0.1594  0.0928  0.1411
  295MOL0     C38870   9.667   0.140   8.200  0.2489  0.3332  0.4925
  295MOL0     C38871   9.751   0.028   8.161  0.3440 -0.0772 -0.1811
  295MOL0     C38872   9.817  -0.073   8.131 -0.3757 -0.2611 -0.2339
  295MOL0     C38873   9.072  -0.142   8.496 -1.0271 -0.0714 -0.7026
  295MOL0     C38874   8.935  -0.148   8.531 -0.8004 -0.2552 -0.4894
  295MOL0     H38875   8.415  -0.027   8.458  0.8994 -2.8779 -1.5770
  295MOL0     H38876   8.210  -0.024   8.542 -0.6932  0.3306  2.0705
  295MOL0     H38877   8.160  -0.328   8.873 -0.9681 -0.6116  2.1042
  295MOL0     H38878   8.019  -0.334   8.761  0.5869  1.5934 -2.3115
  295MOL0     H38879   8.058  -0.160   9.000 -1.0687  2.1015 -1.1422
  295MOL0     H38880   7.966  -0.318   8.999  0.9104 -0.2922  0.1127
  295MOL0     H38881   7.808  -0.178   8.840 -2.8211  1.8550  1.9014
  295MOL0     H38882   7.888  -0.039   8.901 -0.0564 -0.3182 -0.8857
  295MOL0     H38883   7.705  -0.237   9.045 -0.4579 -0.0701  0.1434
  295MOL0     H38884   7.798  -0.104   9.127 -3.1465  1.6216  1.3463
  295MOL0     H38885   7.690   0.063   8.981  0.7167  0.2366  1.3535
  295MOL0     H38886   7.573  -0.032   9.078  0.8340 -3.7481  1.2170
  295MOL0     H38887   7.502  -0.151   8.895  0.9659  0.7855  1.5916
  295MOL0     H38888   7.605  -0.045   8.781  0.6117 -1.2067  0.5892
  295MOL0     H38889   7.401   0.050   8.965  1.2716  0.4653  0.4211
  295MOL0     H38890   7.497   0.140   8.832  2.5610 -0.5641  0.8176
  295MOL0     H38891   7.404  -0.013   8.667  1.2706 -4.7882  1.6432
  295MOL0     H38892   7.274   0.092   8.731 -0.4371 -1.4389  1.5149
  295MOL0     H38893   7.241  -0.125   8.986  1.0594 -2.1530  0.8600
  295MOL0     H38894   7.295  -0.428   9.039  1.4288 -0.6315 -1.4526
  295MOL0     H38895   7.182  -0.492   8.916  0.4457  0.7759  1.0028
  295MOL0     H38896   6.993  -0.366   9.036  0.4457 -4.2357 -0.8832
  295MOL0     H38897   7.104  -0.286   9.135 -1.0563 -0.2230  0.3134
  295MOL0     H38898   6.997  -0.477   9.252 -2.3634 -2.0221 -2.7797
  295MOL0     H38899   7.055  -0.587   9.131 -0.5395 -0.1747  1.7172
  295MOL0     H38900   7.275  -0.596   9.214  0.6139  0.8877 -0.4156
  295MOL0     H38901   7.178  -0.598   9.350  0.8915 -2.0671 -1.9087
  295MOL0     H38902   7.462  -0.198   9.258 -0.5314  0.1454  3.1815
  295MOL0     H38903   7.691  -0.222   9.293 -0.5996 -0.2873 -2.7832
  295MOL0     H38904   8.079  -0.731   9.320  2.4809 -3.1948  1.1293
  295MOL0     H38905   8.293  -0.765   9.413  0.0457  1.6655 -2.5419
  295MOL0     H38906   8.451  -0.583   9.818  0.9216 -1.8259 -0.0545
  295MOL0     H38907   8.423  -0.446   9.723 -1.6574 -1.5147 -0.6391
  295MOL0     H38908   8.675  -0.623   9.716 -1.3380  0.2089  3.4767
  295MOL0     H38909   8.647  -0.483   9.810 -0.4743 -2.9935  1.6746
  295MOL0     H38910   8.604  -0.335   9.631 -0.2183  0.1637 -0.9260
  295MOL0     H38911   8.607  -0.450   9.506 -1.9422  0.1020  0.9167
  295MOL0     H38912   8.830  -0.340   9.687 -0.1887 -0.5972  0.4529
  295MOL0     H38913   8.871  -0.490   9.601  1.6585  1.7434 -1.3006
  295MOL0     H38914   8.810  -0.232   9.475 -0.1681  0.1364  0.8909
  295MOL0     H38915   8.814  -0.378   9.387  0.2559 -0.6857  1.0214
  295MOL0     H38916   9.035  -0.264   9.557  0.9261 -1.5982  0.9934
  295MOL0     H38917   9.020  -0.263   9.387 -1.5211 -0.1341 -0.3408
  295MOL0     H38918   9.082  -0.513   9.567 -2.1326  0.5098 -0.1390
  295MOL0     H38919   9.080  -0.524   9.393 -0.3188  0.1508  0.2968
  295MOL0     H38920   9.283  -0.500   9.521 -0.9830 -0.5903 -0.6024
  295MOL0     H38921   9.254  -0.317   9.522 -0.6541  1.5115 -2.6497
  295MOL0     H38922   8.254  -0.410   9.653  1.0012 -2.3989  0.5678
  295MOL0     H38923   8.051  -0.347   9.519  2.7188  0.3734 -0.2041
  295MOL0     H38924   7.664  -0.639   9.365 -0.3302 -0.8881 -0.3998
  295MOL0     H38925   7.429  -0.627   9.359  0.7411 -0.0093 -1.5981
  295MOL0     H38926   8.339  -0.218   8.901  0.6354 -4.0498 -0.2121
  295MOL0     H38927   8.571  -0.225   8.804 -1.0761 -0.4794  0.5542
  295MOL0     H38928   8.842   0.113   8.334  2.0626  2.0459  0.0248
  295MOL0     H38929   9.062   0.117   8.267  0.4927 -2.0251 -2.4478
  295MOL0     H38930   9.271   0.121   8.269  3.4506  0.6967  0.7855
  295MOL0     H38931   9.264  -0.031   8.179 -3.4451  0.1199  0.4858
  295MOL0     H38932   9.481   0.045   8.384  1.9826  2.1724 -0.0853
  295MOL0     H38933   9.493  -0.083   8.269  3.6513  1.1691  0.7135
  295MOL0     H38934   9.479   0.217   8.187  0.6905  0.3937 -0.5198
  295MOL0     H38935   9.511   0.066   8.084 -0.7942 -2.8484  1.7356
  295MOL0     H38936   9.701   0.226   8.141  1.0881 -0.7183 -0.6041
  295MOL0     H38937   9.694   0.160   8.304  1.7115 -0.9073  0.3993
  295MOL0     H38938   9.880  -0.156   8.104 -1.7365 -0.8070 -1.9303
  295MOL0     H38939   9.145  -0.199   8.552  0.3496  0.2899 -2.0641
  295MOL0     H38940   8.895  -0.215   8.606 -0.9983  1.0262  0.5975
  296MOL0     O38941   7.678   6.414   9.507 -0.2725 -0.4274 -0.0461
  296MOL0     C38942   7.755   6.479   9.433  0.7574 -0.0892  0.0844
  296MOL0     O38943   7.718   6.553   9.327  0.1142  0.2420 -0.6756
  296MOL0     C38944   7.593   6.603   9.307  0.2995 -0.6275  0.3950
  296MOL0     C38945   7.511   6.632   9.414 -0.1748  0.2564 -0.4215
  296MOL0     C38946   7.378   6.656   9.390 -0.2194  0.9538 -0.0673
  296MOL0     C38947   7.323   6.675   9.260  0.5212 -0.6947  0.3259
  296MOL0     O38948   7.192   6.718   9.232 -0.0907  0.5860 -0.2647
  296MOL0     C38949   7.089   6.692   9.336  0.7272  0.8425  0.3403
  296MOL0     C38950   7.058   6.542   9.363  0.0609 -0.6995 -0.0193
  296MOL0     C38951   6.902   6.513   9.395 -0.7654  1.1496  0.3762
  296MOL0     C38952   6.857   6.361   9.375  0.1188 -0.1082 -0.3911
  296MOL0     C38953   6.718   6.342   9.444 -0.3732  0.0362  0.3863
  296MOL0     C38954   6.598   6.385   9.346  0.0243 -0.7031 -0.4137
  296MOL0     C38955   6.460   6.358   9.398  0.3043  0.4568 -0.5093
  296MOL0     C38956   6.345   6.365   9.296  0.7869  0.9247  0.3701
  296MOL0     N38957   6.209   6.318   9.339 -0.1929 -0.0584 -0.6017
  296MOL0     C38958   6.091   6.374   9.302  0.2318  0.2111  0.3519
  296MOL0     C38959   5.996   6.332   9.389  0.3764  0.1846  0.9771
  296MOL0     C38960   5.854   6.376   9.385  0.9170 -0.7694  0.1184
  296MOL0     C38961   5.821   6.468   9.505  0.3304  0.1147  0.7370
  296MOL0     C38962   5.686   6.543   9.488 -0.2795  0.2036 -0.0784
  296MOL0     C38963   5.643   6.626   9.604 -0.8513  0.4026  0.1827
  296MOL0     O38964   5.612   6.765   9.558  0.2135  0.7124  0.1244
  296MOL0     C38965   5.485   6.799   9.506  0.9836  0.0578 -0.3552
  296MOL0     C38966   5.375   6.714   9.492 -0.0313 -0.2302 -0.5751
  296MOL0     C38967   5.252   6.753   9.437 -0.3253 -0.0041 -0.2533
  296MOL0     C38968   5.233   6.883   9.387 -0.4226 -0.2895 -0.2883
  296MOL0     C38969   5.098   6.936   9.324  0.0065  0.0999 -0.7373
  296MOL0     O38970   5.003   6.841   9.303  0.0506 -0.3984  0.3142
  296MOL0     C38971   4.882   6.894   9.314  0.2925  0.4202  0.0985
  296MOL0     C38972   4.827   6.897   9.444 -0.4347  0.7847  0.1311
  296MOL0     C38973   4.705   6.965   9.467 -0.5786  0.1237  0.2033
  296MOL0     C38974   4.629   7.015   9.360  0.1043 -0.2383  0.0645
  296MOL0     O38975   4.509   7.069   9.388 -0.3258 -0.6134  0.2686
  296MOL0     C38976   4.416   7.104   9.280 -0.0891 -0.7203  0.4690
  296MOL0     C38977   4.282   7.137   9.341  0.8362  1.2748  0.2574
  296MOL0     C38978   4.235   7.010   9.410  0.3567  1.0323  0.8457
  296MOL0     C38979   4.093   7.023   9.469 -0.3473  0.8048 -0.2349
  296MOL0     C38980   4.047   6.886   9.505  0.7065  0.2508 -0.4770
  296MOL0     C38981   3.901   6.885   9.544  0.4439  0.1200 -0.6654
  296MOL0     C38982   3.813   6.934   9.423  1.0236 -0.8818  0.3884
  296MOL0     C38983   3.669   6.917   9.475 -0.6005  0.5282  0.3359
  296MOL0    Cl38984   3.620   6.748   9.463 -0.2667  0.1555  0.5562
  296MOL0     C38985   4.688   7.007   9.230  0.4692  0.0746  0.1810
  296MOL0     C38986   4.812   6.949   9.208 -0.0846  0.9096 -0.5775
  296MOL0     O38987   5.079   7.055   9.315 -0.1459 -0.0406 -0.2693
  296MOL0     C38988   5.347   6.964   9.396  0.2545  1.1128  0.7517
  296MOL0     C38989   5.464   6.928   9.459 -0.5568 -0.2694  0.1040
  296MOL0     N38990   6.061   6.261   9.491  0.4235 -0.4590 -0.0116
  296MOL0     N38991   6.186   6.251   9.462 -0.0205 -0.8201  0.6364
  296MOL0     C38992   7.423   6.675   9.155 -0.1512  0.2981 -0.4190
  296MOL0     C38993   7.552   6.632   9.173 -0.4568 -1.4081 -0.1115
  296MOL0     C38994   7.897   6.465   9.456  0.1687  0.5514 -0.0061
  296MOL0     C38995   7.954   6.414   9.573  1.0187 -0.1096 -0.0617
  296MOL0     C38996   8.088   6.399   9.599  0.5479  0.9786  0.4414
  296MOL0     C38997   8.182   6.427   9.499  0.8865 -1.0020  0.5818
  296MOL0     O38998   8.319   6.420   9.499 -0.1650  0.7287 -0.0248
  296MOL0     C38999   8.384   6.374   9.609  0.7251 -0.0888  0.1413
  296MOL0     C39000   8.443   6.484   9.701  0.4286 -0.3453 -0.4318
  296MOL0     C39001   8.564   6.556   9.647 -0.5551 -0.0566 -0.8550
  296MOL0     C39002   8.585   6.685   9.731  0.1752  1.2575 -0.1042
  296MOL0     C39003   8.695   6.757   9.679 -0.1240 -0.0683 -0.2488
  296MOL0     C39004   8.788   6.822   9.639  0.7013  0.1044  0.6129
  296MOL0     C39005   8.124   6.473   9.377 -0.5987  0.0840  0.0983
  296MOL0     C39006   7.989   6.487   9.363 -0.2079  0.0333  0.6442
  296MOL0     H39007   7.554   6.616   9.512 -1.9976 -1.1164  0.2256
  296MOL0     H39008   7.322   6.663   9.482  0.4810  0.8941  0.3757
  296MOL0     H39009   6.999   6.740   9.297 -0.9734 -0.8587  1.9593
  296MOL0     H39010   7.116   6.741   9.430  1.4504 -1.2623  1.2974
  296MOL0     H39011   7.118   6.499   9.444  1.8450  3.2275  0.9903
  296MOL0     H39012   7.082   6.491   9.269 -4.0580 -0.6459 -1.3116
  296MOL0     H39013   6.836   6.577   9.336 -0.9603 -1.4862 -2.5157
  296MOL0     H39014   6.894   6.544   9.500 -0.0811  1.9340  0.2052
  296MOL0     H39015   6.842   6.326   9.272 -1.7830  1.2803 -0.6370
  296MOL0     H39016   6.930   6.294   9.422  0.8174  1.5731  1.0167
  296MOL0     H39017   6.711   6.399   9.537  2.8490  1.7597 -0.2806
  296MOL0     H39018   6.702   6.239   9.477 -3.3374  0.4423  0.4852
  296MOL0     H39019   6.608   6.338   9.248  0.0215 -0.4990 -0.5117
  296MOL0     H39020   6.620   6.492   9.344  4.1579 -1.3662  0.5788
  296MOL0     H39021   6.457   6.253   9.429 -1.0866  0.1652 -1.5077
  296MOL0     H39022   6.435   6.421   9.484 -1.2040 -0.9203  0.1174
  296MOL0     H39023   6.363   6.302   9.209 -0.7068 -1.2321  1.5124
  296MOL0     H39024   6.330   6.468   9.265 -0.7625  0.9391  1.0335
  296MOL0     H39025   6.063   6.430   9.213 -2.2147  0.3399  1.1439
  296MOL0     H39026   5.788   6.289   9.395  0.7549 -0.3541  4.6929
  296MOL0     H39027   5.850   6.434   9.292  2.7701 -1.6140 -0.5306
  296MOL0     H39028   5.902   6.539   9.526 -0.8313  1.6394  0.2041
  296MOL0     H39029   5.804   6.393   9.582  1.9181 -1.2327 -0.1448
  296MOL0     H39030   5.700   6.606   9.400  1.3763  0.6228  0.4367
  296MOL0     H39031   5.607   6.473   9.458 -0.4850 -0.2254  1.3613
  296MOL0     H39032   5.712   6.627   9.689 -2.3103  0.1216  1.4323
  296MOL0     H39033   5.553   6.578   9.644  1.3994 -0.8650  4.3003
  296MOL0     H39034   5.375   6.611   9.527 -1.5196  0.4705  1.7058
  296MOL0     H39035   5.169   6.683   9.443 -0.7099  0.4131 -0.6532
  296MOL0     H39036   4.885   6.850   9.523  3.8340 -0.2283 -3.2052
  296MOL0     H39037   4.656   6.988   9.561 -3.7809 -0.6256 -1.1356
  296MOL0     H39038   4.400   7.024   9.208 -2.6063 -0.5601  0.7616
  296MOL0     H39039   4.446   7.189   9.219  2.0881 -1.3213  0.6000
  296MOL0     H39040   4.220   7.168   9.256  2.3266 -1.8300 -2.1389
  296MOL0     H39041   4.290   7.225   9.406  2.4211 -0.0741  1.9830
  296MOL0     H39042   4.300   6.971   9.489  1.3663 -2.6387 -1.5689
  296MOL0     H39043   4.237   6.934   9.331  1.1840  0.3084  1.5401
  296MOL0     H39044   4.083   7.089   9.555  0.3320  1.3546 -0.5642
  296MOL0     H39045   4.041   7.079   9.391 -2.3348 -0.3314  0.1917
  296MOL0     H39046   4.110   6.844   9.584  0.0064  0.5926  0.2835
  296MOL0     H39047   4.063   6.818   9.421  2.0230  0.7860 -0.6806
  296MOL0     H39048   3.883   6.950   9.630 -1.3631 -0.1376 -0.8087
  296MOL0     H39049   3.859   6.787   9.568  2.3871 -1.4325 -3.1302
  296MOL0     H39050   3.825   7.042   9.413 -0.8179 -0.5121  1.6281
  296MOL0     H39051   3.831   6.872   9.335 -0.8688 -0.7054 -0.1586
  296MOL0     H39052   3.605   6.983   9.415  0.2804  0.8883 -0.2131
  296MOL0     H39053   3.667   6.965   9.574  0.5436  1.8479 -0.2466
  296MOL0     H39054   4.640   7.057   9.147 -1.0636 -0.3913  0.7425
  296MOL0     H39055   4.858   6.938   9.110  0.8931  0.6025 -0.1014
  296MOL0     H39056   5.336   7.059   9.344  0.8922 -0.4453 -2.5213
  296MOL0     H39057   5.533   7.010   9.474  3.4156 -3.5875  1.6565
  296MOL0     H39058   7.383   6.704   9.059 -0.8426 -2.9921 -1.2517
  296MOL0     H39059   7.628   6.623   9.096 -0.0469 -2.3747  0.3865
  296MOL0     H39060   7.889   6.406   9.660 -0.7937 -0.8239 -1.4147
  296MOL0     H39061   8.120   6.372   9.699 -0.8791 -1.0042  0.4311
  296MOL0     H39062   8.470   6.315   9.575  0.0538 -0.1714 -1.4881
  296MOL0     H39063   8.317   6.304   9.660  0.6855 -0.8749 -0.9584
  296MOL0     H39064   8.361   6.556   9.714  1.5168  0.6672  1.1925
  296MOL0     H39065   8.457   6.443   9.802  0.9893 -0.3191 -0.4932
  296MOL0     H39066   8.545   6.582   9.542  0.6066 -0.7414 -1.2522
  296MOL0     H39067   8.656   6.500   9.662  1.0302  2.6977  0.4574
  296MOL0     H39068   8.498   6.750   9.718 -1.1787 -0.5476 -0.5582
  296MOL0     H39069   8.597   6.662   9.837 -1.3823  0.5613 -0.0570
  296MOL0     H39070   8.859   6.880   9.584 -1.0997  0.9705 -0.9372
  296MOL0     H39071   8.193   6.484   9.294  1.0769 -0.7124  1.3273
  296MOL0     H39072   7.946   6.515   9.267 -0.3236 -0.2126  0.6222
  297MOL0     O39073   1.679   0.835  10.063 -0.8664 -0.0251  0.5999
  297MOL0     C39074   1.633   0.948  10.086 -0.2997  0.5329 -0.8846
  297MOL0     O39075   1.709   1.052  10.126  0.0150  0.1866 -0.3033
  297MOL0     C39076   1.844   1.041  10.101 -0.2597 -0.4905 -1.5604
  297MOL0     C39077   1.912   1.139  10.029 -0.0294  0.8101 -0.7207
  297MOL0     C39078   2.052   1.138  10.033  0.0584 -0.7871  0.4674
  297MOL0     C39079   2.126   1.065  10.120  0.1964 -0.6210  0.4603
  297MOL0     O39080   2.262   1.073  10.138 -0.6306  0.0117 -0.1501
  297MOL0     C39081   2.354   1.094  10.032 -0.3820 -0.3209 -0.2172
  297MOL0     C39082   2.492   1.112  10.094 -0.6579 -0.4017 -0.5252
  297MOL0     C39083   2.595   1.095   9.986  0.5668  0.4999 -0.9366
  297MOL0     C39084   2.577   1.184   9.858 -0.0852 -0.5243  0.0898
  297MOL0     C39085   2.567   1.336   9.899 -0.6617  0.3859 -0.5667
  297MOL0     C39086   2.615   1.435   9.790  0.2798 -0.5170 -0.9191
  297MOL0     C39087   2.542   1.417   9.656  0.0075 -0.3543 -0.1485
  297MOL0     C39088   2.590   1.308   9.558 -0.2156  0.5811 -0.3922
  297MOL0     N39089   2.728   1.323   9.516 -0.1388  0.7643 -0.1198
  297MOL0     C39090   2.839   1.253   9.557 -0.0338  0.3938 -0.9332
  297MOL0     C39091   2.942   1.285   9.475  0.2431 -0.0022 -0.0675
  297MOL0     C39092   3.081   1.239   9.477  0.3750 -0.2115 -0.6138
  297MOL0     C39093   3.113   1.120   9.380  0.3727  0.1858 -0.8196
  297MOL0     C39094   3.076   0.978   9.428 -0.0873  0.3364 -0.7454
  297MOL0     C39095   3.069   0.910   9.294  0.3580 -0.2399 -0.0166
  297MOL0     O39096   2.978   0.969   9.203  0.3737 -0.5528 -0.3552
  297MOL0     C39097   2.844   0.977   9.232 -0.1924  0.6390 -0.3218
  297MOL0     C39098   2.756   0.874   9.289  0.5502 -0.6422  0.7813
  297MOL0     C39099   2.617   0.901   9.316 -0.0944 -0.2777  0.1789
  297MOL0     C39100   2.557   1.024   9.280 -0.3630 -0.4009 -0.2013
  297MOL0     C39101   2.406   1.032   9.274  0.2178  0.3837  0.5371
  297MOL0     O39102   2.368   1.140   9.192  0.0664  0.3281 -0.9933
  297MOL0     C39103   2.229   1.147   9.166 -0.7920 -0.3458  0.3589
  297MOL0     C39104   2.169   1.267   9.159 -0.6935 -1.0444 -0.2446
  297MOL0     C39105   2.037   1.283   9.105  0.3560 -0.6770  1.4681
  297MOL0     C39106   1.964   1.164   9.073 -0.0294 -0.4035  1.2271
  297MOL0     O39107   1.829   1.162   9.031 -0.3533  0.6781 -0.0802
  297MOL0     C39108   1.808   1.123   8.899  0.0938  0.6732  0.1830
  297MOL0     C39109   1.657   1.088   8.896 -0.6804 -0.5422 -0.6870
  297MOL0     C39110   1.586   1.097   8.757 -0.0418 -0.3159 -0.2851
  297MOL0     C39111   1.447   1.024   8.779  0.7814  0.2490 -0.3140
  297MOL0     C39112   1.342   1.085   8.862 -0.6490 -0.0221 -0.7709
  297MOL0     C39113   1.202   1.028   8.837 -0.2256 -1.5020 -0.2822
  297MOL0     C39114   1.101   1.111   8.917 -0.6591  0.0386 -0.9200
  297MOL0     C39115   0.965   1.052   8.909  1.2453 -0.6053  0.8421
  297MOL0    Cl39116   0.961   0.890   8.966  0.0460 -0.0039 -0.0734
  297MOL0     C39117   2.028   1.045   9.082  0.5555  0.0639  0.0396
  297MOL0     C39118   2.162   1.029   9.119  0.2066 -0.3051  0.0897
  297MOL0     O39119   2.330   0.949   9.323 -0.0406 -0.5944  0.2134
  297MOL0     C39120   2.636   1.130   9.230 -0.0872  0.1576  0.0255
  297MOL0     C39121   2.777   1.102   9.213  0.9850  0.0658  0.4966
  297MOL0     N39122   2.893   1.365   9.378  0.4330  0.0960 -0.0335
  297MOL0     N39123   2.764   1.382   9.399 -0.4297  0.1985 -0.4327
  297MOL0     C39124   2.055   0.963  10.193 -0.5038 -0.1072  0.1197
  297MOL0     C39125   1.919   0.950  10.184  0.0899 -0.3415 -0.5973
  297MOL0     C39126   1.481   0.960  10.094 -1.1999  0.8065  0.2293
  297MOL0     C39127   1.421   1.073  10.158  0.4012  0.1741  0.0910
  297MOL0     C39128   1.277   1.073  10.183 -0.0312  0.3122 -0.2184
  297MOL0     C39129   1.195   0.969  10.134  0.5492  0.4960 -0.3751
  297MOL0     O39130   1.055   0.966  10.157 -0.2428  0.0612 -0.2566
  297MOL0     C39131   0.977   1.080  10.198 -0.3486  0.1578  0.3277
  297MOL0     C39132   0.828   1.049  10.190  0.5519 -0.0992  0.1608
  297MOL0     C39133   0.744   1.175  10.164 -0.5234  0.4224  0.2389
  297MOL0     C39134   0.705   1.244  10.286  0.0009  0.1183 -0.2536
  297MOL0     C39135   0.813   1.332  10.344  0.1473 -0.2247 -0.0706
  297MOL0     C39136   0.904   1.402  10.389  0.3281 -0.1337  0.6845
  297MOL0     C39137   1.260   0.865  10.069 -0.1367  0.6940  0.5251
  297MOL0     C39138   1.400   0.858  10.050 -0.4314  0.2241  0.4600
  297MOL0     H39139   1.862   1.216   9.971  1.3416  2.0810 -0.2860
  297MOL0     H39140   2.100   1.213   9.972  1.0303 -0.9318  1.0274
  297MOL0     H39141   2.329   1.188   9.980  1.4008  0.2445 -0.1101
  297MOL0     H39142   2.366   1.018   9.955  0.7266 -0.2654 -0.1082
  297MOL0     H39143   2.501   1.040  10.176 -2.0620  1.7801  1.6827
  297MOL0     H39144   2.501   1.210  10.143 -0.5784 -0.9912  0.6771
  297MOL0     H39145   2.588   0.990   9.958  2.0719  0.1355 -0.0605
  297MOL0     H39146   2.696   1.109  10.026 -0.0891 -3.4397  2.7451
  297MOL0     H39147   2.679   1.180   9.821  1.3814  1.4382  3.4268
  297MOL0     H39148   2.498   1.157   9.787 -1.2579 -1.5563  1.7089
  297MOL0     H39149   2.632   1.350   9.987  2.0084 -0.7421 -2.2318
  297MOL0     H39150   2.463   1.348   9.928 -0.6211  0.0316 -0.2610
  297MOL0     H39151   2.723   1.420   9.785  0.9778  2.7632  1.2749
  297MOL0     H39152   2.604   1.539   9.823  1.2975 -0.4603 -0.7289
  297MOL0     H39153   2.434   1.436   9.666  0.4151  3.3754 -1.2608
  297MOL0     H39154   2.564   1.507   9.598  1.0458 -1.4277 -1.4675
  297MOL0     H39155   2.526   1.339   9.475  1.2966  2.6550 -0.8849
  297MOL0     H39156   2.575   1.208   9.599 -3.9564 -0.4471 -3.6717
  297MOL0     H39157   2.845   1.187   9.643 -0.2586 -3.0518 -3.3845
  297MOL0     H39158   3.113   1.193   9.571 -0.3722 -2.4129 -1.3905
  297MOL0     H39159   3.160   1.314   9.463 -0.4727  0.6707 -0.7851
  297MOL0     H39160   3.222   1.110   9.376  0.1664 -2.3842 -1.9737
  297MOL0     H39161   3.090   1.143   9.276 -0.1230  2.2423 -0.3012
  297MOL0     H39162   3.148   0.930   9.495  0.8275 -2.4593 -3.4775
  297MOL0     H39163   2.973   0.967   9.464 -0.4193  0.5298 -1.6134
  297MOL0     H39164   3.040   0.806   9.309  1.7449 -0.7340 -0.5812
  297MOL0     H39165   3.170   0.909   9.251 -0.1680 -1.0016 -1.2837
  297MOL0     H39166   2.793   0.773   9.304 -1.6238 -1.7077 -0.4537
  297MOL0     H39167   2.556   0.832   9.373 -0.5824  0.9715  1.2406
  297MOL0     H39168   2.228   1.358   9.166 -0.1277 -1.4762  0.7810
  297MOL0     H39169   1.997   1.383   9.097  2.6463  0.1634 -0.7766
  297MOL0     H39170   1.866   1.037   8.865 -1.7157 -0.3139 -0.5424
  297MOL0     H39171   1.822   1.203   8.825 -0.9000 -1.3764 -2.3511
  297MOL0     H39172   1.604   1.157   8.962 -1.8281 -1.9065 -0.1335
  297MOL0     H39173   1.635   0.995   8.948 -2.5454  0.3484  0.2063
  297MOL0     H39174   1.648   1.038   8.690  3.3996  0.8760  1.6018
  297MOL0     H39175   1.576   1.199   8.718  3.8196  0.5090  0.4987
  297MOL0     H39176   1.409   1.011   8.678  1.4749  2.1450 -0.8456
  297MOL0     H39177   1.472   0.931   8.832  1.9501  1.3203  1.0904
  297MOL0     H39178   1.356   1.191   8.838  0.5868 -0.0744 -0.3438
  297MOL0     H39179   1.372   1.077   8.966  2.0050 -0.1591 -1.4882
  297MOL0     H39180   1.206   0.921   8.858  2.3872 -1.5646 -0.8155
  297MOL0     H39181   1.180   1.052   8.732 -2.7946  3.3842  1.0336
  297MOL0     H39182   1.133   1.099   9.021 -2.5995 -1.9214 -0.4711
  297MOL0     H39183   1.093   1.218   8.894 -1.0738  0.2420  0.1049
  297MOL0     H39184   0.944   1.059   8.802  4.3644  2.1587  0.2483
  297MOL0     H39185   0.888   1.104   8.966 -0.7840  1.8478 -3.6607
  297MOL0     H39186   1.979   0.951   9.060  4.1550 -1.5783 -1.9635
  297MOL0     H39187   2.210   0.931   9.116  1.5707  0.3465 -2.6406
  297MOL0     H39188   2.588   1.226   9.217 -4.6889 -1.9677 -0.7889
  297MOL0     H39189   2.833   1.194   9.197  0.9582  0.7556  3.8074
  297MOL0     H39190   2.113   0.900  10.259  2.0908  2.5879  0.6211
  297MOL0     H39191   1.867   0.876  10.243 -0.1120  1.5619  1.7930
  297MOL0     H39192   1.476   1.160  10.191  0.5854  1.1634 -2.5826
  297MOL0     H39193   1.243   1.156  10.245 -1.6812 -0.8947  0.5768
  297MOL0     H39194   1.007   1.171  10.144  2.6193 -1.1994 -0.4908
  297MOL0     H39195   0.991   1.096  10.305  1.6779  5.1293 -0.3687
  297MOL0     H39196   0.813   0.982  10.105 -1.6490 -0.0737  0.4648
  297MOL0     H39197   0.788   0.983  10.268 -1.7617 -0.7344 -1.4713
  297MOL0     H39198   0.664   1.133  10.102  1.6457 -2.9266 -0.5890
  297MOL0     H39199   0.795   1.244  10.096 -0.2393 -0.2830 -0.2827
  297MOL0     H39200   0.621   1.304  10.249 -0.1323 -1.4681 -2.7168
  297MOL0     H39201   0.677   1.181  10.371  0.2171  0.4509  0.0675
  297MOL0     H39202   0.964   1.471  10.444  1.2264 -0.3134 -0.0407
  297MOL0     H39203   1.203   0.795  10.009 -0.7564  1.8708 -0.3169
  297MOL0     H39204   1.434   0.773   9.992 -0.9542 -0.7454  1.5242
  298MOL0     O39205  10.728   1.984   4.545  0.3653 -0.3015 -0.2843
  298MOL0     C39206  10.611   2.018   4.549  0.5878 -1.1935  0.6655
  298MOL0     O39207  10.534   2.011   4.661 -0.2502  0.1191  0.1644
  298MOL0     C39208  10.578   1.965   4.781 -0.7730  0.1432  0.4391
  298MOL0     C39209  10.557   1.833   4.817 -0.1329 -0.5915 -0.1005
  298MOL0     C39210  10.588   1.797   4.949  0.7961 -0.8176  1.0373
  298MOL0     C39211  10.658   1.882   5.038  0.3265  0.0807  0.2803
  298MOL0     O39212  10.705   1.840   5.165 -0.1351 -0.1515 -0.6309
  298MOL0     C39213  10.676   1.702   5.205 -0.8093 -0.4226  0.5611
  298MOL0     C39214  10.759   1.597   5.120 -0.4451 -0.6424 -0.1394
  298MOL0     C39215  10.890   1.590   5.190  0.2108 -0.1404 -0.4021
  298MOL0     C39216  10.993   1.489   5.133  0.1389 -0.9916 -0.1159
  298MOL0     C39217  11.129   1.488   5.214  0.5914 -0.6933 -1.1965
  298MOL0     C39218  11.225   1.380   5.163  0.4946 -0.0392  0.2617
  298MOL0     C39219  11.177   1.241   5.180 -0.3907 -0.7322 -0.0435
  298MOL0     C39220  11.270   1.142   5.117 -0.9586 -0.5086 -0.1410
  298MOL0     N39221  11.285   1.009   5.185 -0.6549  0.2568 -0.5879
  298MOL0     C39222  11.319   0.980   5.320  0.4516  0.1421 -0.1794
  298MOL0     C39223  11.289   0.849   5.339 -0.4934 -0.7105  0.2734
  298MOL0     C39224  11.312   0.780   5.468  0.4576  0.1501 -0.1721
  298MOL0     C39225  11.180   0.753   5.541  0.4057  0.1775 -0.2423
  298MOL0     C39226  11.107   0.630   5.476  0.2126  0.2640 -0.1641
  298MOL0     C39227  10.954   0.614   5.506  0.6205  0.2633  0.5236
  298MOL0     O39228  10.890   0.531   5.408 -0.2605  0.2419  0.6058
  298MOL0     C39229  10.761   0.502   5.426  0.4785  0.1736  0.2783
  298MOL0     C39230  10.709   0.383   5.379  0.6272 -0.3638  0.8294
  298MOL0     C39231  10.579   0.348   5.411 -0.6284  0.4229 -0.3198
  298MOL0     C39232  10.495   0.424   5.489 -0.1566 -0.2139  0.2139
  298MOL0     C39233  10.372   0.366   5.548  0.4828 -0.5361  0.4023
  298MOL0     O39234  10.337   0.239   5.535  0.3997 -1.0406 -1.2951
  298MOL0     C39235  10.224   0.197   5.605 -0.8608 -0.3994 -0.8282
  298MOL0     C39236  10.121   0.130   5.540 -0.5229 -0.6088  0.7348
  298MOL0     C39237  10.013   0.078   5.602  0.2294  0.8042 -0.9296
  298MOL0     C39238  10.013   0.068   5.740 -0.1343  0.4232 -0.8211
  298MOL0     O39239   9.896   0.044   5.803 -0.0132 -0.0740  0.4613
  298MOL0     C39240   9.890   0.033   5.941  0.3829  0.5875 -0.9060
  298MOL0     C39241   9.760  -0.051   5.979  0.3155  0.3173 -0.4451
  298MOL0     C39242   9.626   0.020   5.951  0.4594 -0.2700  0.2308
  298MOL0     C39243   9.512  -0.036   6.040  0.1175 -0.1179 -0.5670
  298MOL0     C39244   9.502  -0.192   6.040 -0.1282 -0.6914 -0.3831
  298MOL0     C39245   9.358  -0.242   6.059  0.0733 -0.1442 -0.5222
  298MOL0     C39246   9.349  -0.394   6.036  0.7036  0.1957 -0.4103
  298MOL0     C39247   9.395  -0.470   6.160  0.2447  0.5548  0.8640
  298MOL0    Cl39248   9.321  -0.628   6.183 -0.1966  0.0057 -0.1955
  298MOL0     C39249  10.124   0.124   5.815  0.7747  1.2435  0.4692
  298MOL0     C39250  10.224   0.189   5.750  0.4988 -0.1056  0.6103
  298MOL0     O39251  10.303   0.457   5.597  0.9025  0.0153  0.0956
  298MOL0     C39252  10.547   0.546   5.533  0.0741  0.1656  0.0336
  298MOL0     C39253  10.678   0.589   5.503  0.0994  0.2050  0.9285
  298MOL0     N39254  11.241   0.802   5.217  0.6334 -0.2413  0.2305
  298MOL0     N39255  11.228   0.901   5.136  0.0545  0.8790  0.3350
  298MOL0     C39256  10.681   2.011   4.990  0.6642 -0.1007 -0.2232
  298MOL0     C39257  10.635   2.049   4.868 -0.0648  0.3208  0.2519
  298MOL0     C39258  10.562   2.109   4.441  0.2595  0.0553 -0.4414
  298MOL0     C39259  10.643   2.128   4.326  0.3506 -0.1629  0.1787
  298MOL0     C39260  10.597   2.214   4.222  0.0664  0.1957 -0.2717
  298MOL0     C39261  10.464   2.262   4.219 -0.9396  0.5459  0.7488
  298MOL0     O39262  10.412   2.341   4.123 -1.0390  0.9248  1.3246
  298MOL0     C39263  10.475   2.350   3.991  0.4107  0.9495  0.7509
  298MOL0     C39264  10.389   2.409   3.877  0.3747 -0.6306 -0.4420
  298MOL0     C39265  10.266   2.316   3.848  0.4109  0.4015 -0.8291
  298MOL0     C39266  10.217   2.311   3.697  0.1563  0.0988 -0.5500
  298MOL0     C39267  10.194   2.448   3.647 -0.0547 -0.2197 -0.6387
  298MOL0     C39268  10.180   2.557   3.598 -0.8898  0.0540 -0.3312
  298MOL0     C39269  10.381   2.244   4.327 -0.9011  0.8306  0.3712
  298MOL0     C39270  10.426   2.176   4.447 -0.9747  0.3481  1.0262
  298MOL0     H39271  10.517   1.760   4.748 -0.3643 -0.7817  0.2355
  298MOL0     H39272  10.549   1.703   4.987  0.0511 -0.1596  1.9293
  298MOL0     H39273  10.571   1.677   5.187 -1.1674  2.7045 -3.4425
  298MOL0     H39274  10.692   1.696   5.313  1.9796  0.1613  0.2640
  298MOL0     H39275  10.776   1.636   5.019 -1.4019  4.1924  1.3031
  298MOL0     H39276  10.734   1.491   5.116  1.8726 -1.2905  0.8337
  298MOL0     H39277  10.878   1.566   5.296  1.4325 -1.6383 -0.5518
  298MOL0     H39278  10.948   1.682   5.189 -1.2176  0.7853 -0.5482
  298MOL0     H39279  10.937   1.396   5.131 -2.5188  0.4777 -3.6915
  298MOL0     H39280  11.025   1.508   5.030 -2.1265  1.6067 -0.4536
  298MOL0     H39281  11.103   1.464   5.318 -2.0601  1.5863 -1.2110
  298MOL0     H39282  11.176   1.586   5.214 -0.4616 -0.0046  2.7055
  298MOL0     H39283  11.311   1.397   5.229  0.4824  2.0034 -0.1685
  298MOL0     H39284  11.258   1.412   5.063  3.3545  0.8402  1.3868
  298MOL0     H39285  11.176   1.226   5.289 -1.0897 -1.5521 -0.1552
  298MOL0     H39286  11.076   1.223   5.141 -0.3314 -3.5268  0.8990
  298MOL0     H39287  11.374   1.174   5.110 -0.1842 -2.8384 -0.1190
  298MOL0     H39288  11.250   1.127   5.010 -0.4882 -0.7991 -0.1907
  298MOL0     H39289  11.363   1.042   5.398 -1.1960 -1.9511  2.5984
  298MOL0     H39290  11.365   0.843   5.540 -0.3504 -0.2857  0.8246
  298MOL0     H39291  11.366   0.687   5.445  1.1616 -0.1101  2.2466
  298MOL0     H39292  11.125   0.847   5.537 -0.9157 -0.5832 -0.6466
  298MOL0     H39293  11.202   0.722   5.644  3.5322 -0.5641 -1.0374
  298MOL0     H39294  11.103   0.640   5.367  1.2272 -0.6110 -0.2972
  298MOL0     H39295  11.157   0.536   5.502  0.4355  0.2216 -0.7337
  298MOL0     H39296  10.913   0.715   5.509  0.6202  0.2827  0.0327
  298MOL0     H39297  10.932   0.563   5.600 -1.0600 -3.9083 -1.8459
  298MOL0     H39298  10.780   0.324   5.323 -3.0296 -2.1913 -2.4063
  298MOL0     H39299  10.549   0.247   5.382  1.6528  0.0771 -1.6931
  298MOL0     H39300  10.143   0.124   5.434  1.3093  0.6908  0.9893
  298MOL0     H39301   9.930   0.046   5.540  1.0129 -1.9708 -0.7009
  298MOL0     H39302   9.886   0.132   5.988  1.0062  0.2651 -0.1474
  298MOL0     H39303   9.970  -0.026   5.987 -0.9384 -2.5705 -2.3590
  298MOL0     H39304   9.761  -0.075   6.085 -1.3856 -0.2495 -0.5300
  298MOL0     H39305   9.755  -0.147   5.927  0.6330  0.5865 -0.9801
  298MOL0     H39306   9.591   0.009   5.848  1.0143 -1.4917  0.1577
  298MOL0     H39307   9.636   0.129   5.958  2.6954 -0.0713 -3.3262
  298MOL0     H39308   9.518   0.002   6.142  1.8330  2.3160 -1.4891
  298MOL0     H39309   9.423   0.001   5.988  1.0610  0.2726 -1.9494
  298MOL0     H39310   9.568  -0.234   6.117  2.4204  0.6646 -1.7028
  298MOL0     H39311   9.543  -0.225   5.945 -0.6589 -2.3678 -0.0561
  298MOL0     H39312   9.295  -0.182   5.993  0.7125  1.3728  0.1966
  298MOL0     H39313   9.331  -0.209   6.159 -0.5206 -1.3443 -0.2634
  298MOL0     H39314   9.243  -0.414   6.018  0.9481  1.0551 -3.2827
  298MOL0     H39315   9.398  -0.432   5.945  2.3847  4.3275 -1.4391
  298MOL0     H39316   9.351  -0.425   6.250 -2.8145 -1.7161  0.6581
  298MOL0     H39317   9.504  -0.481   6.165  0.3827 -0.2608 -2.0169
  298MOL0     H39318  10.132   0.121   5.923  1.0424  0.3778  0.4325
  298MOL0     H39319  10.310   0.231   5.800  2.2344 -2.9458  0.1815
  298MOL0     H39320  10.494   0.608   5.605 -5.0880 -1.3985 -1.9793
  298MOL0     H39321  10.720   0.677   5.549 -2.3865  0.8705  2.0583
  298MOL0     H39322  10.709   2.083   5.067  0.8670 -0.6572  0.2250
  298MOL0     H39323  10.641   2.154   4.840 -0.4225  0.1748 -0.3966
  298MOL0     H39324  10.740   2.082   4.315  1.5842  1.9021  1.7028
  298MOL0     H39325  10.663   2.241   4.140 -0.6876 -1.1670 -1.3657
  298MOL0     H39326  10.500   2.252   3.949  5.0010  2.3579 -0.3628
  298MOL0     H39327  10.572   2.401   3.993 -0.3814  2.7696 -2.0514
  298MOL0     H39328  10.353   2.508   3.908  2.4122  0.4207 -1.2289
  298MOL0     H39329  10.453   2.432   3.791 -0.6259  0.3832 -0.9311
  298MOL0     H39330  10.185   2.346   3.915  1.7529 -3.0879  2.7710
  298MOL0     H39331  10.299   2.213   3.865  1.0366  0.8105  0.5477
  298MOL0     H39332  10.295   2.266   3.635 -2.3964 -0.5855 -3.4833
  298MOL0     H39333  10.130   2.247   3.679  0.2654 -0.5704  1.0986
  298MOL0     H39334  10.167   2.652   3.550  1.6409  1.1273  0.9551
  298MOL0     H39335  10.281   2.286   4.326 -0.1602  2.6774  0.5209
  298MOL0     H39336  10.364   2.163   4.535 -0.6177  0.1066  1.2493
  299MOL0     O39337   9.548   6.043   4.242 -0.4841  0.3699 -0.1204
  299MOL0     C39338   9.641   5.962   4.240 -0.8137 -0.1694 -0.4300
  299MOL0     O39339   9.633   5.831   4.255  0.3204 -0.4623  1.0539
  299MOL0     C39340   9.511   5.788   4.296  0.9086 -0.2793  0.0285
  299MOL0     C39341   9.397   5.799   4.212 -0.4251  0.2156  1.4017
  299MOL0     C39342   9.270   5.762   4.251  0.3129  0.8592 -0.0183
  299MOL0     C39343   9.245   5.714   4.378 -0.0484 -0.0915 -0.2760
  299MOL0     O39344   9.116   5.704   4.425 -0.2145 -0.5348  0.1937
  299MOL0     C39345   9.092   5.626   4.544 -0.1522  0.8304  0.2876
  299MOL0     C39346   8.960   5.555   4.537  0.6633  0.1460 -0.3407
  299MOL0     C39347   8.935   5.497   4.400  0.0875  0.1298 -0.8953
  299MOL0     C39348   8.803   5.425   4.384 -0.2924 -0.0516 -0.1583
  299MOL0     C39349   8.683   5.528   4.382  0.1317  0.0353  0.4184
  299MOL0     C39350   8.546   5.466   4.341 -0.3453 -0.1300 -0.4928
  299MOL0     C39351   8.491   5.352   4.431 -0.2970  0.6919  0.5103
  299MOL0     C39352   8.474   5.382   4.587 -0.9500  0.1671 -0.0708
  299MOL0     N39353   8.329   5.413   4.614 -0.1553  0.1785 -1.0597
  299MOL0     C39354   8.239   5.472   4.531 -0.0805  1.0857  0.1461
  299MOL0     C39355   8.130   5.490   4.607  0.4014 -0.3689  0.1676
  299MOL0     C39356   8.000   5.563   4.549 -0.0502 -0.9758 -0.1126
  299MOL0     C39357   7.895   5.458   4.535  0.1496  0.0680 -0.6698
  299MOL0     C39358   7.836   5.401   4.663  0.4216 -0.4140  0.6450
  299MOL0     C39359   7.711   5.299   4.640  0.2888 -0.1371 -0.4189
  299MOL0     O39360   7.620   5.373   4.564 -0.3754  0.3702  0.3504
  299MOL0     C39361   7.498   5.322   4.521 -0.6163 -0.9246  0.4768
  299MOL0     C39362   7.407   5.414   4.471 -1.2341  0.2751  0.5499
  299MOL0     C39363   7.284   5.368   4.421  0.5681  0.3115  0.3054
  299MOL0     C39364   7.249   5.231   4.429  0.2820 -0.8595 -0.3336
  299MOL0     C39365   7.117   5.172   4.395  0.8708 -0.1403  0.4820
  299MOL0     O39366   7.103   5.034   4.398 -1.0847 -0.2341  0.1052
  299MOL0     C39367   6.984   4.973   4.382  0.3116  0.8188 -0.3126
  299MOL0     C39368   6.922   4.900   4.488  0.2530  0.1383  0.5921
  299MOL0     C39369   6.800   4.833   4.459  0.6787  0.1594  0.6607
  299MOL0     C39370   6.743   4.832   4.332 -0.1788  0.4695 -0.2874
  299MOL0     O39371   6.624   4.768   4.295 -0.0839 -0.2424  0.3956
  299MOL0     C39372   6.534   4.712   4.389  0.5640 -0.0640  0.8474
  299MOL0     C39373   6.418   4.809   4.411 -0.4716  0.5939 -0.2918
  299MOL0     C39374   6.304   4.801   4.301  0.1908 -0.9804 -0.8544
  299MOL0     C39375   6.203   4.924   4.329 -0.1435  0.6155  0.1619
  299MOL0     C39376   6.081   4.911   4.228  1.0351 -0.7060  0.4839
  299MOL0     C39377   5.977   5.024   4.252 -0.4852 -0.0538  0.2278
  299MOL0     C39378   5.850   4.997   4.173 -0.3519 -0.2275  0.5006
  299MOL0     C39379   5.744   5.105   4.150  0.2703 -0.0484  0.5057
  299MOL0    Cl39380   5.816   5.249   4.060  0.1576  0.0294  0.4173
  299MOL0     C39381   6.800   4.908   4.225 -0.0790  0.9919 -0.1338
  299MOL0     C39382   6.916   4.995   4.262  0.4488  0.3796 -0.1062
  299MOL0     O39383   7.029   5.250   4.395  0.7553  0.1877  0.6252
  299MOL0     C39384   7.346   5.143   4.484  0.0885 -0.0412 -0.2504
  299MOL0     C39385   7.463   5.190   4.536  0.2303  0.1560 -0.4162
  299MOL0     N39386   8.160   5.460   4.740  0.2117  0.4994  0.2462
  299MOL0     N39387   8.274   5.410   4.740 -0.0464  1.0333 -0.4148
  299MOL0     C39388   9.358   5.696   4.462 -0.6289 -0.0018 -0.6237
  299MOL0     C39389   9.493   5.723   4.423  0.5914  0.3640 -0.9191
  299MOL0     C39390   9.782   6.014   4.219  0.6578 -1.3349 -0.2241
  299MOL0     C39391   9.807   6.145   4.184 -0.9369 -0.1601  0.2787
  299MOL0     C39392   9.946   6.188   4.174 -0.0802 -0.4297 -0.1707
  299MOL0     C39393  10.056   6.104   4.205  0.4813  0.3369 -0.7442
  299MOL0     O39394  10.184   6.142   4.197 -0.0168 -0.4606  0.9525
  299MOL0     C39395  10.208   6.279   4.214 -0.2318 -0.2814  0.1428
  299MOL0     C39396  10.354   6.291   4.260 -0.9847  0.1696  0.0566
  299MOL0     C39397  10.392   6.236   4.397 -0.3685 -1.0863 -0.2704
  299MOL0     C39398  10.545   6.225   4.407  0.2791 -0.1195 -0.2574
  299MOL0     C39399  10.579   6.154   4.536  0.7044 -0.1262  0.6155
  299MOL0     C39400  10.602   6.095   4.642 -0.3196  0.3614  0.0919
  299MOL0     C39401  10.020   5.977   4.259  0.8285 -0.0731  0.3474
  299MOL0     C39402   9.886   5.933   4.267  0.2946  0.5402  1.1460
  299MOL0     H39403   9.414   5.850   4.118  0.0637 -1.0307  0.7864
  299MOL0     H39404   9.185   5.778   4.185  1.9606 -0.6732 -2.7275
  299MOL0     H39405   9.089   5.690   4.633 -2.7490 -1.6306  2.1327
  299MOL0     H39406   9.172   5.553   4.560 -1.6373 -0.6937  1.0152
  299MOL0     H39407   8.886   5.633   4.556  2.1026  1.9698 -1.7478
  299MOL0     H39408   8.949   5.496   4.628  2.1932 -0.7804 -0.7147
  299MOL0     H39409   9.011   5.423   4.377  0.6241  0.7321 -1.1013
  299MOL0     H39410   8.942   5.580   4.329  0.7193 -0.7074 -1.8399
  299MOL0     H39411   8.815   5.376   4.287  1.0327 -3.3202  1.4910
  299MOL0     H39412   8.789   5.346   4.459 -6.3352  0.6088 -0.1035
  299MOL0     H39413   8.706   5.610   4.314 -1.5674  1.6981  1.7591
  299MOL0     H39414   8.662   5.568   4.481 -3.4861 -4.3742  1.7986
  299MOL0     H39415   8.565   5.427   4.240  2.2994  0.7108 -0.3928
  299MOL0     H39416   8.471   5.545   4.335  0.3452  0.6058  0.3250
  299MOL0     H39417   8.393   5.327   4.389  0.4558 -0.8649 -0.3959
  299MOL0     H39418   8.555   5.266   4.411  0.6567  2.0140 -3.0539
  299MOL0     H39419   8.542   5.463   4.614  0.7887 -0.5209 -2.0949
  299MOL0     H39420   8.499   5.288   4.637  0.3532 -0.5706 -1.9995
  299MOL0     H39421   8.242   5.492   4.424  0.6851 -2.0449 -0.5342
  299MOL0     H39422   8.011   5.621   4.457  1.5923  1.2077  1.3660
  299MOL0     H39423   7.979   5.644   4.620  1.3111 -0.1610 -0.5933
  299MOL0     H39424   7.930   5.375   4.473 -3.4053 -0.8194 -1.6936
  299MOL0     H39425   7.814   5.504   4.478  0.5166  0.0445 -1.2180
  299MOL0     H39426   7.921   5.347   4.707  1.0691  1.0161  1.2321
  299MOL0     H39427   7.816   5.484   4.730  1.7987 -0.2030  0.8374
  299MOL0     H39428   7.661   5.281   4.736 -0.0694  1.0948 -0.3523
  299MOL0     H39429   7.741   5.204   4.597  0.5620  0.4132 -1.4746
  299MOL0     H39430   7.437   5.518   4.468  2.3465 -0.5759  1.8571
  299MOL0     H39431   7.215   5.445   4.389 -2.2376 -3.1838 -3.0251
  299MOL0     H39432   6.959   4.889   4.589  2.0217 -2.2994 -0.2263
  299MOL0     H39433   6.755   4.779   4.542 -0.1393  0.2641  0.2945
  299MOL0     H39434   6.587   4.680   4.479 -1.4727 -0.0480  2.0964
  299MOL0     H39435   6.500   4.619   4.343  0.2929  0.0070  0.9052
  299MOL0     H39436   6.460   4.911   4.411  0.8356  0.0781 -0.9418
  299MOL0     H39437   6.385   4.795   4.515  0.5574 -1.3046 -0.1839
  299MOL0     H39438   6.242   4.711   4.316 -1.7575  0.4861  0.3735
  299MOL0     H39439   6.353   4.808   4.204  3.8974  1.0374  0.9492
  299MOL0     H39440   6.168   4.907   4.431  0.0539  0.2647  0.1738
  299MOL0     H39441   6.245   5.024   4.318 -0.2343  0.5208 -1.2926
  299MOL0     H39442   6.028   4.816   4.231 -0.6561  0.2095  0.8986
  299MOL0     H39443   6.118   4.927   4.126 -0.3680  1.7088  0.2837
  299MOL0     H39444   6.030   5.105   4.201 -0.4377 -1.7508 -2.6156
  299MOL0     H39445   5.954   5.046   4.357  1.2251  0.7362  0.4798
  299MOL0     H39446   5.880   4.958   4.075 -0.6553  2.2905 -0.6748
  299MOL0     H39447   5.791   4.922   4.226 -1.9870  0.4244 -0.3162
  299MOL0     H39448   5.706   5.145   4.244 -0.4628 -1.0243  0.6389
  299MOL0     H39449   5.658   5.060   4.099 -0.9671 -0.1129  2.5170
  299MOL0     H39450   6.740   4.914   4.134 -0.2487 -0.2756 -0.1276
  299MOL0     H39451   6.946   5.060   4.181  2.6910 -1.9385 -1.3162
  299MOL0     H39452   7.314   5.040   4.495 -1.1619  0.1680 -1.5696
  299MOL0     H39453   7.530   5.121   4.586  0.2977 -0.8458 -1.8415
  299MOL0     H39454   9.351   5.665   4.566  2.4064  0.8817 -0.0735
  299MOL0     H39455   9.570   5.717   4.499 -0.3881 -3.1515 -0.0340
  299MOL0     H39456   9.727   6.216   4.167 -0.2321  1.2155  2.2739
  299MOL0     H39457   9.955   6.289   4.136 -0.2160 -0.1588  0.5018
  299MOL0     H39458  10.146   6.318   4.296  1.0957 -0.4765  1.2894
  299MOL0     H39459  10.198   6.327   4.116  2.3262 -2.5499 -1.3662
  299MOL0     H39460  10.417   6.246   4.182  2.6627 -2.5448  4.1337
  299MOL0     H39461  10.377   6.397   4.277  0.8779 -0.6002  2.9099
  299MOL0     H39462  10.338   6.142   4.412  1.3017 -1.8882  0.9817
  299MOL0     H39463  10.351   6.304   4.472 -0.0513 -1.1430 -0.0454
  299MOL0     H39464  10.601   6.175   4.328  2.0172  2.2838 -0.6743
  299MOL0     H39465  10.575   6.330   4.412  1.9961 -0.5177 -1.2354
  299MOL0     H39466  10.654   6.068   4.731 -0.4110  1.4928  0.5016
  299MOL0     H39467  10.105   5.924   4.299  2.5501  3.4385  1.8092
  299MOL0     H39468   9.862   5.836   4.309 -0.5143  0.0246 -0.4379
  300MOL0     O39469   1.629   6.249   0.176  0.2142 -0.5059  0.0599
  300MOL0     C39470   1.589   6.279   0.066  0.6007 -0.6367  0.3289
  300MOL0     O39471   1.665   6.291  -0.048 -0.2108 -0.2790  0.1726
  300MOL0     C39472   1.799   6.248  -0.038  0.5586 -0.1870 -0.2111
  300MOL0     C39473   1.905   6.337  -0.056  0.3847 -1.1762  0.4075
  300MOL0     C39474   2.032   6.294  -0.063  0.3337 -0.5979 -0.0965
  300MOL0     C39475   2.057   6.152  -0.050 -0.0167  0.2981  0.6646
  300MOL0     O39476   2.189   6.101  -0.038  0.5950  0.5160 -0.1993
  300MOL0     C39477   2.294   6.186  -0.073 -0.4137 -0.7400  1.0771
  300MOL0     C39478   2.425   6.116  -0.050 -0.1010  0.5580 -0.8079
  300MOL0     C39479   2.546   6.215  -0.030 -0.6019  0.2139  1.1442
  300MOL0     C39480   2.572   6.317  -0.136  0.2389  0.8375  0.1606
  300MOL0     C39481   2.710   6.374  -0.140 -0.0073 -0.5653 -0.3991
  300MOL0     C39482   2.784   6.420  -0.012 -1.3285 -0.0156  0.4914
  300MOL0     C39483   2.717   6.532   0.066  0.1997 -0.9196 -0.6587
  300MOL0     C39484   2.700   6.655  -0.011 -0.0509 -0.1063  0.0236
  300MOL0     N39485   2.648   6.754   0.089 -0.0914 -0.1769 -0.7003
  300MOL0     C39486   2.732   6.855   0.138  0.0277  1.2368  0.2017
  300MOL0     C39487   2.648   6.940   0.203  0.5869 -0.3474 -0.4092
  300MOL0     C39488   2.692   7.070   0.262 -0.3357 -0.8761  1.0914
  300MOL0     C39489   2.634   7.179   0.178 -0.3749 -0.5280  0.1621
  300MOL0     C39490   2.720   7.314   0.199  0.2878  0.8244  0.4389
  300MOL0     C39491   2.711   7.352   0.343 -0.6054 -0.3354  0.5322
  300MOL0     O39492   2.574   7.368   0.386 -0.5053 -0.9269 -0.4349
  300MOL0     C39493   2.548   7.460   0.490 -0.9545 -0.1266 -0.2694
  300MOL0     C39494   2.413   7.473   0.519  1.4572 -0.6297  0.1679
  300MOL0     C39495   2.368   7.556   0.624  0.6599 -0.3848 -0.2063
  300MOL0     C39496   2.458   7.640   0.686  0.0093 -0.4885 -0.8436
  300MOL0     C39497   2.419   7.721   0.804  0.0120 -0.2167 -0.5291
  300MOL0     O39498   2.518   7.805   0.850 -0.0317 -0.4581  0.4063
  300MOL0     C39499   2.488   7.940   0.877  0.3089  0.2191  1.0767
  300MOL0     C39500   2.359   8.000   0.855 -0.6289 -0.2559  0.0525
  300MOL0     C39501   2.350   8.133   0.888 -0.2701 -0.1985 -0.1397
  300MOL0     C39502   2.458   8.208   0.931  0.8664  0.3933 -0.5239
  300MOL0     O39503   2.426   8.336   0.977 -0.5340 -0.1141  0.9176
  300MOL0     C39504   2.465   8.432   0.882 -1.0775 -0.5121  0.7542
  300MOL0     C39505   2.435   8.564   0.948  0.1522 -0.4895  0.6111
  300MOL0     C39506   2.280   8.587   0.974  0.6155 -0.3321 -0.4013
  300MOL0     C39507   2.209   8.512   1.084 -0.5019 -0.3304 -0.3264
  300MOL0     C39508   2.056   8.543   1.114 -0.0739  0.1528 -0.8746
  300MOL0     C39509   1.971   8.552   0.992  1.1794 -1.6914 -0.2783
  300MOL0     C39510   1.818   8.582   1.039  0.5518  0.4681  0.1669
  300MOL0     C39511   1.716   8.563   0.930 -0.7905 -0.4635  0.5938
  300MOL0    Cl39512   1.545   8.559   0.987 -0.3239  0.0658 -0.0659
  300MOL0     C39513   2.578   8.155   0.943  1.2812  0.7492 -0.0994
  300MOL0     C39514   2.594   8.015   0.924 -1.4302 -0.3795  0.2907
  300MOL0     O39515   2.303   7.716   0.851  0.0392  0.7402  0.2668
  300MOL0     C39516   2.595   7.630   0.659  0.3012  0.3823 -0.1200
  300MOL0     C39517   2.638   7.543   0.559 -1.0034  0.4814 -0.2325
  300MOL0     N39518   2.522   6.884   0.209  0.6624  0.0779  0.0553
  300MOL0     N39519   2.518   6.784   0.120 -0.7251 -0.1728  0.0260
  300MOL0     C39520   1.954   6.068  -0.020 -0.4897  0.6196  0.1812
  300MOL0     C39521   1.826   6.117  -0.016  0.6121 -0.0181 -0.3749
  300MOL0     C39522   1.451   6.327   0.053 -0.0384 -0.9034  1.2395
  300MOL0     C39523   1.420   6.434  -0.026 -0.2953 -0.4824  0.0176
  300MOL0     C39524   1.294   6.466  -0.072  0.5975  0.0644 -0.2594
  300MOL0     C39525   1.183   6.405  -0.006  0.3603  0.0044  0.1130
  300MOL0     O39526   1.059   6.463  -0.028 -0.0009  0.8013  0.3522
  300MOL0     C39527   0.976   6.388  -0.118  0.5471 -0.3610  0.0811
  300MOL0     C39528   0.823   6.423  -0.080 -0.5796  0.5818 -0.4960
  300MOL0     C39529   0.799   6.568  -0.120 -0.8500  0.0324  0.7491
  300MOL0     C39530   0.660   6.595  -0.064  0.0365  0.7823  0.0738
  300MOL0     C39531   0.621   6.733  -0.085  0.0099  0.4511  0.6701
  300MOL0     C39532   0.596   6.846  -0.119 -0.2171 -0.3638  0.1032
  300MOL0     C39533   1.205   6.302   0.091  0.2116 -0.9484 -0.3297
  300MOL0     C39534   1.342   6.260   0.116  0.2738 -0.2225 -0.1566
  300MOL0     H39535   1.871   6.439  -0.074 -1.7504 -2.3435 -2.9983
  300MOL0     H39536   2.107   6.367  -0.092 -0.4182 -0.1312 -0.8941
  300MOL0     H39537   2.286   6.274  -0.009  1.9234  1.5516 -1.5221
  300MOL0     H39538   2.298   6.215  -0.178 -1.3607 -1.5627  0.8001
  300MOL0     H39539   2.455   6.048  -0.130  4.1162  0.6171  0.4995
  300MOL0     H39540   2.411   6.044   0.031 -0.5026  0.9510 -0.5248
  300MOL0     H39541   2.639   6.160  -0.018 -0.7971  0.1330  2.4152
  300MOL0     H39542   2.530   6.268   0.064  1.0432 -1.2122  2.2817
  300MOL0     H39543   2.568   6.259  -0.229 -0.4994  0.2243  0.5585
  300MOL0     H39544   2.488   6.388  -0.137  0.4059  1.3508  4.3782
  300MOL0     H39545   2.707   6.458  -0.211  2.7545 -0.9211 -1.0358
  300MOL0     H39546   2.773   6.297  -0.186 -1.2048 -1.9527  0.2101
  300MOL0     H39547   2.886   6.448  -0.043 -1.7432 -2.1562 -3.5740
  300MOL0     H39548   2.790   6.337   0.059 -0.4318  1.3152  2.0190
  300MOL0     H39549   2.619   6.503   0.104 -0.2094  2.1196  0.9176
  300MOL0     H39550   2.771   6.558   0.157 -0.8579  0.2429 -0.3420
  300MOL0     H39551   2.631   6.633  -0.093 -0.0828 -0.4900  0.1481
  300MOL0     H39552   2.797   6.689  -0.047 -0.0207 -0.9692 -0.7442
  300MOL0     H39553   2.839   6.860   0.123  0.3808 -3.7628 -1.0032
  300MOL0     H39554   2.801   7.079   0.250 -0.4335 -0.6935  0.2540
  300MOL0     H39555   2.665   7.075   0.367  0.5187 -0.2121  1.2934
  300MOL0     H39556   2.536   7.189   0.226  0.2853 -0.2546  1.5027
  300MOL0     H39557   2.625   7.156   0.071 -0.1273 -0.3191  0.0950
  300MOL0     H39558   2.823   7.294   0.168 -0.3912 -4.0807  0.5048
  300MOL0     H39559   2.674   7.385   0.130  0.7445  0.5388 -0.1690
  300MOL0     H39560   2.763   7.448   0.340 -0.0783 -0.6327  0.1285
  300MOL0     H39561   2.767   7.286   0.411  2.6109 -1.5208 -2.9140
  300MOL0     H39562   2.336   7.420   0.464  0.2022  1.1225  0.1390
  300MOL0     H39563   2.264   7.554   0.656  1.0046 -0.5302  0.9328
  300MOL0     H39564   2.272   7.945   0.822 -0.6359 -0.2664  0.0890
  300MOL0     H39565   2.256   8.184   0.906  0.8126  1.6488  0.7018
  300MOL0     H39566   2.416   8.425   0.785  3.2082 -1.3192 -1.6039
  300MOL0     H39567   2.573   8.431   0.865 -0.8361  2.8179  1.3712
  300MOL0     H39568   2.464   8.645   0.881  0.2264 -2.5176 -1.9398
  300MOL0     H39569   2.501   8.573   1.035 -1.3969 -1.2264  1.9338
  300MOL0     H39570   2.236   8.565   0.876  1.6609 -1.1632 -0.6985
  300MOL0     H39571   2.268   8.695   0.989 -0.0777 -0.5878  0.9941
  300MOL0     H39572   2.220   8.403   1.075 -1.2534 -0.6327  1.8938
  300MOL0     H39573   2.265   8.520   1.178  0.0665  0.5538 -0.7305
  300MOL0     H39574   2.048   8.639   1.165 -3.2158 -0.3775 -0.1432
  300MOL0     H39575   2.020   8.473   1.191 -1.6597  2.1154  0.2888
  300MOL0     H39576   1.969   8.452   0.949  1.1941 -2.0407  0.5154
  300MOL0     H39577   1.995   8.629   0.918 -1.3371 -1.2194 -0.7101
  300MOL0     H39578   1.797   8.514   1.123  1.7131 -0.3625 -0.1831
  300MOL0     H39579   1.817   8.687   1.070  0.6611  1.1356 -1.9531
  300MOL0     H39580   1.741   8.470   0.879 -0.0211  0.5821 -1.0272
  300MOL0     H39581   1.730   8.636   0.849 -2.3705 -0.6559  0.1329
  300MOL0     H39582   2.667   8.213   0.964 -1.3846  4.7130  1.3209
  300MOL0     H39583   2.692   7.969   0.919 -0.8456  0.7672  0.9311
  300MOL0     H39584   2.671   7.690   0.708  1.2199 -2.9995  3.0984
  300MOL0     H39585   2.744   7.546   0.535 -0.5479  0.1394  1.5719
  300MOL0     H39586   1.963   5.961  -0.006 -1.3614  0.5327  0.1025
  300MOL0     H39587   1.748   6.042  -0.003  2.1714 -1.5207  0.6320
  300MOL0     H39588   1.502   6.492  -0.067  1.4044 -1.8735  1.2659
  300MOL0     H39589   1.263   6.549  -0.134 -3.0423 -0.2960  0.8560
  300MOL0     H39590   0.992   6.282  -0.093  2.7712  0.3985  2.3429
  300MOL0     H39591   0.998   6.408  -0.223  0.2151  0.4688  0.1638
  300MOL0     H39592   0.766   6.343  -0.128 -0.5508 -0.3959  1.0397
  300MOL0     H39593   0.808   6.400   0.026 -2.7978 -1.2415 -1.1373
  300MOL0     H39594   0.800   6.582  -0.229  0.3841  0.3310  0.7800
  300MOL0     H39595   0.883   6.628  -0.084  1.0977 -1.5439 -0.9132
  300MOL0     H39596   0.590   6.517  -0.096  0.1001  0.4265  0.7909
  300MOL0     H39597   0.662   6.576   0.044 -2.2562  0.3520  0.0819
  300MOL0     H39598   0.562   6.945  -0.143  1.1119  0.7977  2.6798
  300MOL0     H39599   1.122   6.257   0.144  0.9444 -0.4258  1.3521
  300MOL0     H39600   1.356   6.191   0.199 -0.3634  0.5195  0.5883
  301MOL0     O39601   8.463  10.889   4.172  0.2152  0.2316  0.6040
  301MOL0     C39602   8.499  10.917   4.053  0.1978 -0.2786 -0.4885
  301MOL0     O39603   8.424  10.995   3.966  0.6617  0.2631  0.5218
  301MOL0     C39604   8.284  11.025   3.991  0.4429  0.4488  0.1483
  301MOL0     C39605   8.199  10.919   4.029  0.5450  0.2428  1.0439
  301MOL0     C39606   8.066  10.950   4.050  0.3632  1.1414 -0.0398
  301MOL0     C39607   8.013  11.077   4.042  0.0057  0.1715  0.2448
  301MOL0     O39608   7.873  11.083   4.054 -0.0667  0.1961 -0.1202
  301MOL0     C39609   7.810  11.205   4.010 -0.2255 -1.3741  0.1081
  301MOL0     C39610   7.665  11.196   4.031 -0.3418  0.0944  0.8539
  301MOL0     C39611   7.584  11.330   4.017 -0.3293 -0.9684 -0.7393
  301MOL0     C39612   7.435  11.305   4.023 -0.3268  0.0984 -0.7885
  301MOL0     C39613   7.370  11.417   3.940 -0.2161  0.7201 -0.1751
  301MOL0     C39614   7.339  11.538   4.035  0.6156 -0.1805 -0.1328
  301MOL0     C39615   7.280  11.653   3.955  1.0335 -0.4739  0.4065
  301MOL0     C39616   7.250  11.773   4.054  0.0793  0.2464  0.0894
  301MOL0     N39617   7.186  11.882   3.978  0.0710 -0.2762 -0.2611
  301MOL0     C39618   7.096  11.984   4.028 -0.2771  0.6458  0.5557
  301MOL0     C39619   7.081  12.071   3.920 -0.0265  0.3078  0.7491
  301MOL0     C39620   7.003  12.203   3.906  0.2391 -0.2934 -0.5346
  301MOL0     C39621   6.887  12.204   3.805 -0.6603  0.6733  1.7108
  301MOL0     C39622   6.783  12.101   3.835  0.2177 -0.7705  0.2792
  301MOL0     C39623   6.651  12.108   3.763  0.0250  0.1763 -0.2243
  301MOL0     O39624   6.557  12.203   3.829 -0.1769  0.1127  0.0319
  301MOL0     C39625   6.430  12.179   3.822  0.3151  0.8148  0.7283
  301MOL0     C39626   6.356  12.260   3.909  0.3133 -0.1322  0.6409
  301MOL0     C39627   6.218  12.265   3.899  0.3634 -0.7341 -0.9411
  301MOL0     C39628   6.148  12.201   3.796  0.0618 -0.0236 -0.5745
  301MOL0     C39629   6.007  12.221   3.765  0.3506 -0.4153 -0.6790
  301MOL0     O39630   5.945  12.328   3.814 -0.1982 -1.0207 -0.5263
  301MOL0     C39631   5.809  12.339   3.807 -0.3414 -0.5324  0.1083
  301MOL0     C39632   5.754  12.390   3.694  0.8939  0.6640  0.5117
  301MOL0     C39633   5.617  12.440   3.682 -0.5374 -0.0487  0.8455
  301MOL0     C39634   5.532  12.421   3.789  0.0250 -1.3211 -0.1631
  301MOL0     O39635   5.400  12.471   3.777 -0.4476  1.1300 -0.3854
  301MOL0     C39636   5.328  12.509   3.896 -0.6963 -0.5984 -0.2416
  301MOL0     C39637   5.231  12.608   3.845 -0.2212 -0.2106  0.9637
  301MOL0     C39638   5.177  12.687   3.956  0.6321 -0.6834 -0.3058
  301MOL0     C39639   5.094  12.630   4.071 -0.6075  0.3250  0.4590
  301MOL0     C39640   4.971  12.573   4.003  0.4417  0.5238 -0.0629
  301MOL0     C39641   4.887  12.520   4.121  0.1676  1.1431  0.2810
  301MOL0     C39642   4.740  12.487   4.083 -1.2103 -0.3623  0.5032
  301MOL0     C39643   4.655  12.450   4.211  0.6909 -0.0171  0.0014
  301MOL0    Cl39644   4.643  12.577   4.327 -0.3492 -0.2770  0.0532
  301MOL0     C39645   5.587  12.370   3.900 -0.2537  0.5545 -1.2430
  301MOL0     C39646   5.727  12.336   3.918 -0.4505  0.1971 -1.0822
  301MOL0     O39647   5.953  12.134   3.698 -1.1410  0.7278  0.1234
  301MOL0     C39648   6.226  12.122   3.707 -0.6089  0.8215 -0.4054
  301MOL0     C39649   6.367  12.107   3.718  0.3685 -0.9701 -0.2721
  301MOL0     N39650   7.158  12.018   3.816  1.2903  0.0754  0.0716
  301MOL0     N39651   7.199  11.903   3.845  0.0318 -0.2814 -0.4984
  301MOL0     C39652   8.096  11.180   4.010 -0.7877 -0.0387 -0.2491
  301MOL0     C39653   8.237  11.152   3.995  0.1289  0.2061  0.0716
  301MOL0     C39654   8.631  10.878   4.006  0.0103  0.2450 -0.4805
  301MOL0     C39655   8.664  10.893   3.866 -0.6485  0.1775  0.0673
  301MOL0     C39656   8.795  10.843   3.824 -0.7906  0.1792  0.1124
  301MOL0     C39657   8.884  10.790   3.916 -1.0571 -0.6356  0.2016
  301MOL0     O39658   9.011  10.772   3.860  1.1901  0.2747 -0.2481
  301MOL0     C39659   9.098  10.675   3.909 -0.2962 -0.3323  0.2038
  301MOL0     C39660   9.203  10.669   3.810 -0.6696  0.7617 -0.1399
  301MOL0     C39661   9.331  10.730   3.859  0.1581 -0.1986  0.4649
  301MOL0     C39662   9.428  10.742   3.742  0.2941 -0.4842  0.6503
  301MOL0     C39663   9.470  10.602   3.720 -0.1488 -0.4871  0.3725
  301MOL0     C39664   9.501  10.483   3.695  0.1298 -0.2752 -0.3960
  301MOL0     C39665   8.843  10.762   4.047  0.1655 -0.4192 -0.6780
  301MOL0     C39666   8.718  10.814   4.091 -0.4457 -0.3196 -0.2732
  301MOL0     H39667   8.226  10.814   4.035 -1.5904 -0.5205 -0.9263
  301MOL0     H39668   7.992  10.872   4.068  0.1688  1.1868 -0.6127
  301MOL0     H39669   7.842  11.221   3.907  3.4281  3.0483  1.5789
  301MOL0     H39670   7.854  11.285   4.071 -3.6687 -1.6002  3.2397
  301MOL0     H39671   7.647  11.138   4.122  2.5472 -3.0310 -0.3269
  301MOL0     H39672   7.632  11.133   3.948 -0.8467  1.2188  0.1805
  301MOL0     H39673   7.615  11.369   3.919 -1.3880  0.0913 -0.6714
  301MOL0     H39674   7.618  11.402   4.091 -0.1467 -2.2976  0.5101
  301MOL0     H39675   7.413  11.209   3.976 -1.2046  1.7163 -3.9953
  301MOL0     H39676   7.411  11.298   4.130  0.6227 -0.6093 -0.6047
  301MOL0     H39677   7.282  11.366   3.900  0.7068 -1.6552  0.6394
  301MOL0     H39678   7.428  11.450   3.852  0.7428  0.1795  0.2306
  301MOL0     H39679   7.427  11.569   4.093  1.1987 -1.0246 -0.5466
  301MOL0     H39680   7.259  11.513   4.106 -1.1513 -1.4601 -2.4634
  301MOL0     H39681   7.353  11.679   3.878  0.9120  3.6692  1.4740
  301MOL0     H39682   7.181  11.627   3.915  2.5609 -1.0319 -3.4572
  301MOL0     H39683   7.347  11.798   4.098  1.1037 -4.3819  1.0248
  301MOL0     H39684   7.196  11.736   4.142  1.4321  2.8639  2.1574
  301MOL0     H39685   7.050  11.987   4.126  0.2700 -0.0792  0.8432
  301MOL0     H39686   7.074  12.286   3.894  0.5075 -0.4479 -0.0696
  301MOL0     H39687   6.964  12.232   4.004  1.5545  3.0437 -0.8733
  301MOL0     H39688   6.937  12.183   3.710  0.5436 -0.6107  2.5838
  301MOL0     H39689   6.836  12.300   3.794 -1.6513  0.2659  2.5716
  301MOL0     H39690   6.813  11.998   3.816 -2.3963 -1.5519 -0.0180
  301MOL0     H39691   6.752  12.105   3.940 -1.1249 -0.6989 -0.0920
  301MOL0     H39692   6.601  12.010   3.758  1.6477 -0.7341  0.5702
  301MOL0     H39693   6.677  12.142   3.662  0.1471 -1.8428 -0.9311
  301MOL0     H39694   6.395  12.309   3.997  1.4832  1.2524 -0.6028
  301MOL0     H39695   6.166  12.325   3.972 -1.3919  0.8687 -3.3790
  301MOL0     H39696   5.822  12.398   3.610  2.4122 -5.3006  0.6653
  301MOL0     H39697   5.584  12.469   3.582  1.0538 -0.3475  0.2035
  301MOL0     H39698   5.385  12.553   3.978  0.0887  1.3225 -1.7368
  301MOL0     H39699   5.274  12.421   3.934 -0.6022 -0.2210  0.7949
  301MOL0     H39700   5.154  12.550   3.794  2.7733 -3.5708 -0.1325
  301MOL0     H39701   5.269  12.678   3.770 -2.7327 -0.3469 -0.5418
  301MOL0     H39702   5.123  12.760   3.896  1.3898 -0.2956 -0.5277
  301MOL0     H39703   5.258  12.743   4.004  0.4404  0.2105 -1.0038
  301MOL0     H39704   5.147  12.560   4.136 -0.0228  1.6771  1.4895
  301MOL0     H39705   5.069  12.696   4.155 -0.2714 -0.5253  1.2465
  301MOL0     H39706   4.978  12.505   3.917 -1.4590  0.8143 -0.5062
  301MOL0     H39707   4.919  12.658   3.957 -1.3410 -1.6154 -2.2781
  301MOL0     H39708   4.894  12.588   4.206  3.0897  0.3320  0.7909
  301MOL0     H39709   4.928  12.427   4.162 -2.8198  0.1327  1.2513
  301MOL0     H39710   4.686  12.568   4.033 -3.7362 -1.8881  0.5729
  301MOL0     H39711   4.741  12.412   4.003  1.2382 -0.0869  0.1868
  301MOL0     H39712   4.713  12.367   4.254 -0.1423 -1.5673 -1.7173
  301MOL0     H39713   4.557  12.407   4.189  0.7622 -0.5195  0.6274
  301MOL0     H39714   5.514  12.338   3.974  0.0878 -0.9265 -1.5100
  301MOL0     H39715   5.773  12.313   4.014 -1.6647 -0.6469 -0.6896
  301MOL0     H39716   6.188  12.064   3.624  2.5814  1.3005 -2.3727
  301MOL0     H39717   6.416  12.057   3.635 -0.0170 -1.4162 -0.2341
  301MOL0     H39718   8.069  11.284   4.029 -0.3403 -0.5283  4.1886
  301MOL0     H39719   8.304  11.236   3.976  0.4764 -0.9281 -5.3770
  301MOL0     H39720   8.592  10.931   3.794 -1.3933 -2.4456 -0.6789
  301MOL0     H39721   8.832  10.866   3.725  2.9691 -1.6761  0.9050
  301MOL0     H39722   9.040  10.582   3.917  0.3004 -0.6014  1.6950
  301MOL0     H39723   9.145  10.702   4.004 -5.1210  3.0412  2.0396
  301MOL0     H39724   9.223  10.565   3.782 -0.1101  0.8310 -0.0079
  301MOL0     H39725   9.176  10.723   3.719  0.8428 -0.0354 -1.1163
  301MOL0     H39726   9.377  10.679   3.945  2.3342 -1.5987 -1.4092
  301MOL0     H39727   9.303  10.830   3.893  1.7012 -0.0726  1.4867
  301MOL0     H39728   9.393  10.790   3.651  3.1451  0.6811  0.0598
  301MOL0     H39729   9.514  10.804   3.767  0.3006  0.6795 -1.9617
  301MOL0     H39730   9.519  10.381   3.666  1.1185  0.0301 -0.8854
  301MOL0     H39731   8.908  10.713   4.120  0.5881  2.2244  0.8479
  301MOL0     H39732   8.699  10.800   4.196 -1.9434  0.0594 -0.4778
  302MOL0     O39733   4.277   6.089  11.268 -0.4523 -0.2486 -0.3914
  302MOL0     C39734   4.307   5.977  11.231 -0.1404 -0.6194 -1.0118
  302MOL0     O39735   4.268   5.921  11.117 -1.0043  0.0392  0.5600
  302MOL0     C39736   4.160   5.972  11.058  0.1025 -1.1825  0.8705
  302MOL0     C39737   4.131   6.102  11.015  0.2896  0.2693  0.5145
  302MOL0     C39738   4.010   6.137  10.942  0.4645  0.1993  0.4102
  302MOL0     C39739   3.912   6.035  10.922  0.0117 -0.4135 -0.4580
  302MOL0     O39740   3.800   6.058  10.848  0.4888  0.9100 -0.7126
  302MOL0     C39741   3.712   6.171  10.875  0.2958 -0.4681  0.5155
  302MOL0     C39742   3.569   6.130  10.885  0.5469 -0.1973 -0.0298
  302MOL0     C39743   3.491   6.241  10.951  0.1143  0.4172  0.8325
  302MOL0     C39744   3.344   6.196  10.998 -0.3088  0.6150  0.0459
  302MOL0     C39745   3.237   6.301  11.017 -0.3464  0.5676  0.3030
  302MOL0     C39746   3.282   6.395  11.124 -0.3286 -0.5791 -0.5978
  302MOL0     C39747   3.185   6.508  11.127  1.0101  0.5021  0.4542
  302MOL0     C39748   3.185   6.589  10.982 -0.3786 -0.2306  0.2179
  302MOL0     N39749   3.124   6.721  11.004 -0.0153  0.9024 -0.8382
  302MOL0     C39750   3.171   6.821  11.079 -0.7244  0.7552 -0.0517
  302MOL0     C39751   3.071   6.899  11.100 -0.8286  0.1321  0.2580
  302MOL0     C39752   3.071   7.020  11.192  0.5029 -0.6183 -0.1592
  302MOL0     C39753   3.085   7.155  11.108 -1.3206  0.6270 -0.9427
  302MOL0     C39754   3.074   7.279  11.199  0.6172 -0.4933 -0.3011
  302MOL0     C39755   3.196   7.295  11.283  1.0844 -1.0803  0.3299
  302MOL0     O39756   3.202   7.430  11.326 -0.9711 -0.1095 -0.0227
  302MOL0     C39757   3.249   7.519  11.232  0.4305 -0.3125  0.8788
  302MOL0     C39758   3.381   7.519  11.187  0.2270  0.0099  0.1566
  302MOL0     C39759   3.427   7.616  11.094  0.1361 -0.4193 -0.2953
  302MOL0     C39760   3.345   7.713  11.039 -0.2374 -0.0912 -0.1534
  302MOL0     C39761   3.406   7.816  10.952  0.1255 -0.2243  0.1048
  302MOL0     O39762   3.314   7.914  10.909  0.3430  0.5737 -0.2067
  302MOL0     C39763   3.343   8.020  10.830 -0.4645 -1.1494 -0.4691
  302MOL0     C39764   3.401   8.008  10.704 -0.3011  0.1956  0.2335
  302MOL0     C39765   3.422   8.115  10.618 -0.5864  0.1259  0.2658
  302MOL0     C39766   3.388   8.242  10.667 -0.2349  0.3266 -0.4876
  302MOL0     O39767   3.402   8.356  10.600 -0.1457  0.0963  0.5980
  302MOL0     C39768   3.383   8.356  10.457 -0.0786  0.3232 -1.3708
  302MOL0     C39769   3.333   8.489  10.410 -0.2727 -0.8862 -0.0598
  302MOL0     C39770   3.457   8.583  10.411 -0.9529  1.0395 -0.6295
  302MOL0     C39771   3.430   8.726  10.352  0.0842 -0.5032 -0.3990
  302MOL0     C39772   3.555   8.809  10.356 -0.7546  1.0414 -1.2591
  302MOL0     C39773   3.672   8.766  10.270  0.0677  0.5156 -1.3053
  302MOL0     C39774   3.620   8.759  10.119  0.8188  1.1819 -0.6834
  302MOL0     C39775   3.724   8.801  10.017  0.1166  0.6471 -0.2024
  302MOL0    Cl39776   3.673   8.780   9.852  0.3073  0.1116 -0.3751
  302MOL0     C39777   3.339   8.266  10.797  0.3542 -0.1574  1.2610
  302MOL0     C39778   3.304   8.150  10.874  0.9251  0.7307 -0.5427
  302MOL0     O39779   3.522   7.801  10.918  0.1817  0.7431 -0.2516
  302MOL0     C39780   3.209   7.708  11.077 -0.4601 -0.2607  0.9810
  302MOL0     C39781   3.161   7.607  11.172 -0.2604 -0.3209 -0.2391
  302MOL0     N39782   2.968   6.867  11.014 -0.5751  0.2653  0.5051
  302MOL0     N39783   3.001   6.751  10.953  0.1538  0.2982 -0.2644
  302MOL0     C39784   3.951   5.909  10.949  0.1835  0.1342  0.3728
  302MOL0     C39785   4.065   5.882  11.024  0.3465  0.5573  0.1848
  302MOL0     C39786   4.407   5.906  11.312 -0.4365  0.1459 -0.3343
  302MOL0     C39787   4.444   5.776  11.268 -0.5644  0.3276  0.4455
  302MOL0     C39788   4.551   5.706  11.340  0.4459 -0.5228 -0.3881
  302MOL0     C39789   4.611   5.756  11.464  0.1791  0.6020 -0.5607
  302MOL0     O39790   4.721   5.691  11.522 -0.6762 -0.9539  0.4379
  302MOL0     C39791   4.806   5.619  11.429  0.3825 -0.1811 -0.2525
  302MOL0     C39792   4.944   5.577  11.493 -0.0596  0.1914 -0.5821
  302MOL0     C39793   4.944   5.434  11.542  0.0993  0.1891  0.0324
  302MOL0     C39794   5.023   5.407  11.675  0.5984  0.5564  0.1545
  302MOL0     C39795   5.170   5.420  11.666  0.3200 -0.5025 -0.2835
  302MOL0     C39796   5.290   5.436  11.665 -0.6652 -0.4305  0.1797
  302MOL0     C39797   4.575   5.879  11.511  0.2759 -0.9038 -0.5436
  302MOL0     C39798   4.477   5.955  11.431 -0.2291  0.2612 -0.2843
  302MOL0     H39799   4.211   6.174  11.027  0.3772  0.4266 -0.8202
  302MOL0     H39800   3.991   6.236  10.901 -0.6596  0.4224  1.4098
  302MOL0     H39801   3.711   6.244  10.794 -1.5595 -0.6888  0.3076
  302MOL0     H39802   3.748   6.215  10.969  0.8267  1.8562 -0.7125
  302MOL0     H39803   3.538   6.039  10.937  1.4969 -1.5727 -1.7768
  302MOL0     H39804   3.528   6.100  10.789 -0.9329  1.6551 -0.0253
  302MOL0     H39805   3.483   6.328  10.885 -0.2291  0.1167  0.4728
  302MOL0     H39806   3.547   6.284  11.035  1.2639 -1.7308  1.2445
  302MOL0     H39807   3.307   6.127  10.922  0.2025  1.1885 -0.7367
  302MOL0     H39808   3.352   6.147  11.095 -0.4517  1.4262  0.4779
  302MOL0     H39809   3.139   6.258  11.038  0.0920 -0.4255  0.3343
  302MOL0     H39810   3.246   6.347  10.918  0.7427 -1.0078 -0.3696
  302MOL0     H39811   3.386   6.425  11.115  0.5336 -3.1113  0.1352
  302MOL0     H39812   3.272   6.338  11.217  4.2994 -1.5644 -0.4860
  302MOL0     H39813   3.084   6.466  11.135  1.4582 -0.6346  0.2264
  302MOL0     H39814   3.197   6.567  11.219 -0.8078  0.8019  0.5350
  302MOL0     H39815   3.136   6.540  10.897  0.7942  0.0398 -0.6354
  302MOL0     H39816   3.290   6.608  10.961 -0.2080  1.5371  2.3555
  302MOL0     H39817   3.262   6.829  11.137 -1.8732  0.1789  1.8988
  302MOL0     H39818   3.149   7.010  11.267 -1.8835 -0.9050  2.4584
  302MOL0     H39819   2.977   7.019  11.248 -0.5501 -1.0999 -1.8621
  302MOL0     H39820   2.996   7.166  11.045 -3.1340  1.9407  1.6476
  302MOL0     H39821   3.182   7.158  11.058  0.5971  2.5405  2.4757
  302MOL0     H39822   3.054   7.364  11.133  2.8650  0.6528  0.3914
  302MOL0     H39823   2.991   7.270  11.271  0.0176  2.0418 -0.5652
  302MOL0     H39824   3.283   7.275  11.219  1.3237 -3.2995  1.2549
  302MOL0     H39825   3.194   7.221  11.363  0.3854  0.1261  1.4549
  302MOL0     H39826   3.449   7.451  11.236 -1.1945 -1.0634  0.7153
  302MOL0     H39827   3.532   7.606  11.070  0.0155 -2.4720 -0.1718
  302MOL0     H39828   3.430   7.906  10.682  0.5047  0.7263 -1.3084
  302MOL0     H39829   3.472   8.097  10.523  1.5618  0.3636  1.3150
  302MOL0     H39830   3.323   8.275  10.415  0.2362 -1.1661  0.9020
  302MOL0     H39831   3.481   8.328  10.417 -1.0820 -3.2959 -1.6208
  302MOL0     H39832   3.255   8.523  10.479 -4.4276 -2.1693 -3.6964
  302MOL0     H39833   3.285   8.471  10.314  0.2114 -1.6001 -0.1788
  302MOL0     H39834   3.527   8.531  10.345 -0.5098  0.6659  0.1188
  302MOL0     H39835   3.507   8.597  10.507  3.7332 -1.6448 -2.3504
  302MOL0     H39836   3.384   8.726  10.253 -1.1287 -3.5235  0.0620
  302MOL0     H39837   3.359   8.763  10.427  1.6611  0.2449  0.7928
  302MOL0     H39838   3.586   8.817  10.461 -1.5426  1.4206 -1.0473
  302MOL0     H39839   3.530   8.911  10.325 -0.5727  1.5565  0.1906
  302MOL0     H39840   3.722   8.675  10.303  0.1067  0.7546 -0.6722
  302MOL0     H39841   3.752   8.840  10.279  0.0654  0.6812 -2.4859
  302MOL0     H39842   3.596   8.652  10.112 -1.0695  1.4238  0.9511
  302MOL0     H39843   3.528   8.817  10.107 -1.1952 -1.4960  0.6089
  302MOL0     H39844   3.810   8.738  10.041  0.2041  1.0917  0.7072
  302MOL0     H39845   3.748   8.907  10.030  1.6586  0.5696 -2.0110
  302MOL0     H39846   3.314   8.362  10.841  0.9102 -1.1548  3.9344
  302MOL0     H39847   3.252   8.162  10.969 -1.8295 -1.5456 -1.6324
  302MOL0     H39848   3.143   7.785  11.039  2.1623  0.1138 -3.5121
  302MOL0     H39849   3.059   7.602  11.207 -0.3750  0.3909 -0.4508
  302MOL0     H39850   3.890   5.829  10.908 -0.6046  1.5770 -1.3910
  302MOL0     H39851   4.090   5.781  11.054  1.9808  0.9019  0.0880
  302MOL0     H39852   4.398   5.729  11.182  0.3732  1.0928 -0.4991
  302MOL0     H39853   4.583   5.607  11.312 -0.0591 -1.0025  0.6572
  302MOL0     H39854   4.828   5.665  11.332  2.4586  0.2825  0.3826
  302MOL0     H39855   4.744   5.537  11.391 -0.6559  0.8653 -0.8600
  302MOL0     H39856   5.029   5.598  11.427 -0.2291 -0.0682 -0.8879
  302MOL0     H39857   4.961   5.639  11.581 -0.5453  1.1365 -1.1259
  302MOL0     H39858   4.980   5.366  11.464  1.8938  1.7223 -0.5506
  302MOL0     H39859   4.841   5.402  11.563 -1.1583  2.5726 -1.9784
  302MOL0     H39860   4.983   5.476  11.750 -0.3110 -0.0270  0.2123
  302MOL0     H39861   4.998   5.304  11.703 -1.2461  0.6911 -0.8586
  302MOL0     H39862   5.395   5.450  11.677 -0.4432  0.7696 -2.4321
  302MOL0     H39863   4.612   5.916  11.607  1.0849  4.0248 -2.4306
  302MOL0     H39864   4.443   6.051  11.466  2.5941  1.5145 -0.7173
  303MOL0     O39865   3.647   4.332   6.483 -0.3192  0.2726 -0.3423
  303MOL0     C39866   3.671   4.319   6.600  1.4614 -0.2402  0.5319
  303MOL0     O39867   3.579   4.272   6.687  0.7822 -0.4625  0.6475
  303MOL0     C39868   3.447   4.286   6.661 -0.0922  0.1581 -0.2012
  303MOL0     C39869   3.395   4.402   6.605  0.1572 -0.5739 -0.6090
  303MOL0     C39870   3.256   4.415   6.595 -0.2061 -0.0737 -0.2988
  303MOL0     C39871   3.167   4.315   6.633 -0.1450 -0.6356  0.0863
  303MOL0     O39872   3.039   4.343   6.617  0.1091  0.1096  0.0506
  303MOL0     C39873   2.967   4.264   6.521 -0.3146 -0.4177  0.7265
  303MOL0     C39874   2.921   4.351   6.403 -0.0717 -0.4277 -0.7350
  303MOL0     C39875   2.782   4.295   6.348 -0.7340  0.0692 -0.1629
  303MOL0     C39876   2.777   4.326   6.201  0.1600 -0.6940 -0.1080
  303MOL0     C39877   2.765   4.469   6.163 -0.6333 -0.4241  0.8568
  303MOL0     C39878   2.624   4.515   6.188  0.0023 -0.3194  0.4479
  303MOL0     C39879   2.603   4.655   6.133 -0.0304 -0.4796 -0.4758
  303MOL0     C39880   2.474   4.711   6.193  0.0855  0.8811  0.1534
  303MOL0     N39881   2.459   4.856   6.171 -0.4327 -0.6162 -0.0201
  303MOL0     C39882   2.410   4.902   6.053  0.4611 -0.8691  0.5609
  303MOL0     C39883   2.399   5.039   6.081  0.2520  0.2910  0.5446
  303MOL0     C39884   2.352   5.147   5.988  0.0978  0.3665 -0.7643
  303MOL0     C39885   2.203   5.128   5.964  0.8006  0.2739  0.4467
  303MOL0     C39886   2.159   5.225   5.852 -0.3401 -0.0214 -0.0409
  303MOL0     C39887   2.005   5.225   5.829 -0.3380 -0.0014  0.3930
  303MOL0     O39888   1.950   5.291   5.937  1.0445 -0.4195 -0.1705
  303MOL0     C39889   1.822   5.257   5.973 -0.2788 -0.5206 -0.0405
  303MOL0     C39890   1.791   5.134   6.037 -0.2985  0.1286 -0.5314
  303MOL0     C39891   1.653   5.105   6.062  0.5211  0.1859  0.3733
  303MOL0     C39892   1.547   5.200   6.028 -0.0535  0.7307  0.9275
  303MOL0     C39893   1.412   5.167   6.059 -0.3510  1.7137 -0.9185
  303MOL0     O39894   1.329   5.268   6.068 -1.0712 -0.5040  0.6802
  303MOL0     C39895   1.200   5.228   6.081  0.8553 -0.5625 -0.1312
  303MOL0     C39896   1.118   5.209   5.961 -0.8775  0.0988 -0.8791
  303MOL0     C39897   0.987   5.167   5.971  0.2874 -1.0643 -0.3394
  303MOL0     C39898   0.939   5.133   6.094  0.8069  0.1784 -0.2935
  303MOL0     O39899   0.807   5.088   6.096  0.6231  0.0982 -0.0472
  303MOL0     C39900   0.717   5.139   6.196  0.1050  0.8142 -0.3609
  303MOL0     C39901   0.625   5.027   6.254  0.2176 -0.1296  0.8869
  303MOL0     C39902   0.524   5.087   6.355  0.2276  1.3073  0.5030
  303MOL0     C39903   0.431   4.975   6.404  0.3363 -0.5959  0.2320
  303MOL0     C39904   0.343   5.017   6.514 -0.8350 -0.5098 -0.0031
  303MOL0     C39905   0.410   5.102   6.633  1.1128  0.2101  1.0321
  303MOL0     C39906   0.309   5.109   6.754 -0.0115 -0.6440  1.0909
  303MOL0     C39907   0.171   5.165   6.714 -0.2070 -0.1891 -0.5717
  303MOL0    Cl39908   0.057   5.164   6.850  0.1106 -0.0274  0.1007
  303MOL0     C39909   1.015   5.146   6.216 -0.6497 -0.0895  0.4418
  303MOL0     C39910   1.147   5.195   6.207 -0.0100 -0.1731  0.2118
  303MOL0     O39911   1.378   5.046   6.077 -0.2021 -0.0432  0.0988
  303MOL0     C39912   1.585   5.323   5.962 -0.4280 -0.2247 -0.3630
  303MOL0     C39913   1.721   5.352   5.931  0.3886  0.2383 -0.0833
  303MOL0     N39914   2.466   5.070   6.196  0.4051 -0.2752  0.0621
  303MOL0     N39915   2.507   4.961   6.252 -0.7454 -0.1606  0.3405
  303MOL0     C39916   3.218   4.193   6.702  0.3037 -0.2124 -0.0190
  303MOL0     C39917   3.358   4.184   6.716  0.4686 -0.2560 -0.8222
  303MOL0     C39918   3.809   4.348   6.648 -0.3865 -0.8306 -0.3096
  303MOL0     C39919   3.915   4.398   6.567 -0.1279  0.1412  0.7270
  303MOL0     C39920   4.047   4.401   6.610  0.1450 -0.0304  0.6422
  303MOL0     C39921   4.078   4.364   6.740  0.3168 -0.3533  0.1503
  303MOL0     O39922   4.207   4.384   6.769 -0.0072  0.1100 -0.7728
  303MOL0     C39923   4.244   4.427   6.896 -0.5271 -0.2969 -0.6834
  303MOL0     C39924   4.316   4.319   6.970 -0.0687  0.2084 -0.2163
  303MOL0     C39925   4.469   4.295   6.932 -0.5289 -0.5112  0.2069
  303MOL0     C39926   4.478   4.170   6.828 -0.0128  0.6856 -0.4030
  303MOL0     C39927   4.443   4.026   6.877  0.8367 -0.6876  0.8967
  303MOL0     C39928   4.425   3.917   6.915  0.3118  0.4170  0.0624
  303MOL0     C39929   3.983   4.321   6.831 -1.4728 -1.0459  0.8390
  303MOL0     C39930   3.848   4.322   6.786  0.3995  1.4611 -0.0680
  303MOL0     H39931   3.463   4.471   6.557  3.1745 -1.1082  2.4825
  303MOL0     H39932   3.207   4.499   6.548 -0.8700 -0.8410 -1.0178
  303MOL0     H39933   2.874   4.228   6.565 -0.6986 -0.6947 -0.2979
  303MOL0     H39934   3.011   4.176   6.473  2.0213  0.6629  0.7558
  303MOL0     H39935   3.006   4.374   6.337  0.1993  0.2550 -0.1580
  303MOL0     H39936   2.900   4.447   6.452 -2.1260 -0.2585 -1.8198
  303MOL0     H39937   2.694   4.325   6.406 -0.8875 -0.3198 -0.1891
  303MOL0     H39938   2.781   4.186   6.355 -4.2382  0.0067  0.1298
  303MOL0     H39939   2.872   4.287   6.163  0.5269 -1.5297  1.5553
  303MOL0     H39940   2.700   4.267   6.152  0.7481 -1.5008 -0.0895
  303MOL0     H39941   2.801   4.478   6.060  0.0681 -2.3562  0.9062
  303MOL0     H39942   2.840   4.524   6.221  1.4287 -1.4683 -0.6910
  303MOL0     H39943   2.627   4.520   6.297  2.2106 -0.5061  0.4543
  303MOL0     H39944   2.546   4.444   6.159 -2.9052  1.8887  2.2943
  303MOL0     H39945   2.699   4.704   6.154  1.0163 -2.5801 -0.0099
  303MOL0     H39946   2.599   4.659   6.024  1.1957 -2.2788 -0.6409
  303MOL0     H39947   2.465   4.682   6.298 -0.7257  0.6533  0.0270
  303MOL0     H39948   2.389   4.660   6.146  2.1852 -3.2126  0.3938
  303MOL0     H39949   2.372   4.860   5.961  0.6783  1.9340 -0.9231
  303MOL0     H39950   2.409   5.130   5.897 -2.9073  1.2601 -2.9757
  303MOL0     H39951   2.369   5.248   6.027 -1.1654  0.3785 -0.1813
  303MOL0     H39952   2.137   5.134   6.051 -0.7104 -1.2053 -0.5452
  303MOL0     H39953   2.183   5.026   5.930  0.3832  0.0488  1.3359
  303MOL0     H39954   2.190   5.325   5.886 -1.6772  0.4800 -0.2347
  303MOL0     H39955   2.209   5.207   5.757 -1.5483  4.6691 -1.8547
  303MOL0     H39956   1.983   5.118   5.826  1.3045 -0.3655  0.5110
  303MOL0     H39957   1.969   5.266   5.735 -1.9007 -0.4431  0.7571
  303MOL0     H39958   1.858   5.053   6.063 -0.5761 -0.7980 -2.5080
  303MOL0     H39959   1.625   5.017   6.120  1.5086 -2.0829 -2.3892
  303MOL0     H39960   1.175   5.241   5.875 -0.4838  2.7825  0.2958
  303MOL0     H39961   0.929   5.167   5.879  3.8583 -2.4167 -2.8253
  303MOL0     H39962   0.651   5.212   6.147 -0.2592 -0.9745 -2.7337
  303MOL0     H39963   0.780   5.188   6.271 -0.3384 -1.3813  1.5378
  303MOL0     H39964   0.681   4.952   6.310 -1.0922 -1.8761 -0.0564
  303MOL0     H39965   0.563   4.997   6.169 -0.0543  0.6306  0.8061
  303MOL0     H39966   0.467   5.165   6.304  0.2155  1.2073  0.3642
  303MOL0     H39967   0.589   5.132   6.431  2.6675 -1.1475  0.0412
  303MOL0     H39968   0.379   4.928   6.320 -1.0720  1.0170  0.1203
  303MOL0     H39969   0.489   4.903   6.461  1.4167 -0.0313 -0.1289
  303MOL0     H39970   0.296   4.930   6.560 -3.6674  1.6221  1.4421
  303MOL0     H39971   0.262   5.075   6.469 -2.4765 -1.7597  1.2203
  303MOL0     H39972   0.428   5.201   6.591 -1.6997  0.1121 -0.6896
  303MOL0     H39973   0.502   5.052   6.664  1.3790  0.0669  0.0178
  303MOL0     H39974   0.300   5.010   6.799 -0.8814  0.0110  2.4040
  303MOL0     H39975   0.355   5.177   6.827 -0.1754 -0.0710  0.6718
  303MOL0     H39976   0.122   5.118   6.628  0.4540  1.0803 -1.6770
  303MOL0     H39977   0.190   5.269   6.687 -0.7560  0.2500  0.6861
  303MOL0     H39978   0.978   5.109   6.311  0.1582 -1.9404  0.0774
  303MOL0     H39979   1.221   5.189   6.286 -0.9793 -0.2367  1.1307
  303MOL0     H39980   1.509   5.399   5.945 -1.6587 -1.1445  0.7785
  303MOL0     H39981   1.744   5.442   5.873  0.5280  1.0544  1.1946
  303MOL0     H39982   3.149   4.126   6.752  1.3164 -0.4442  1.0975
  303MOL0     H39983   3.406   4.115   6.785  0.0932  2.8138  2.8135
  303MOL0     H39984   3.889   4.437   6.469 -1.4986 -1.4027  0.4392
  303MOL0     H39985   4.133   4.425   6.548  0.2138 -3.4536 -0.8012
  303MOL0     H39986   4.161   4.467   6.955  0.5319  0.5587  0.2609
  303MOL0     H39987   4.312   4.512   6.891 -0.7030  0.3124  3.5506
  303MOL0     H39988   4.303   4.341   7.076  0.9514  2.8361 -0.5536
  303MOL0     H39989   4.259   4.226   6.958 -0.5656  0.3738  0.7948
  303MOL0     H39990   4.520   4.262   7.023  0.7603 -0.1232 -0.3437
  303MOL0     H39991   4.519   4.382   6.888 -1.3315 -0.3073 -0.3045
  303MOL0     H39992   4.414   4.206   6.747 -2.0750 -1.5073  0.1413
  303MOL0     H39993   4.576   4.173   6.780 -0.6867 -1.1925 -2.0436
  303MOL0     H39994   4.420   3.826   6.971 -1.8272  1.8428  2.3732
  303MOL0     H39995   4.009   4.294   6.933 -1.6041  0.1886  1.2195
  303MOL0     H39996   3.773   4.281   6.854  0.2213  1.5802 -0.1908
  304MOL0     O39997   6.218   2.752   6.713  0.6355 -0.2037  0.0677
  304MOL0     C39998   6.224   2.654   6.793 -0.3469  1.1216 -0.1165
  304MOL0     O39999   6.145   2.543   6.794 -0.1027  0.2351  0.5624
  304MOL0     C40000   6.014   2.549   6.743 -1.0060 -0.3493  0.3658
  304MOL0     C40001   5.982   2.437   6.666 -0.1951 -0.1780  0.6804
  304MOL0     C40002   5.857   2.420   6.610 -0.0133 -0.7602  0.1051
  304MOL0     C40003   5.758   2.516   6.627 -0.4129 -0.1357  0.1282
  304MOL0     O40004   5.637   2.518   6.564  0.1001  0.6732  0.0155
  304MOL0     C40005   5.580   2.393   6.519  0.1288 -0.2980 -0.4797
  304MOL0     C40006   5.444   2.421   6.450 -0.0344 -0.4088 -0.5666
  304MOL0     C40007   5.452   2.467   6.305 -0.0079 -0.1252 -0.9860
  304MOL0     C40008   5.306   2.503   6.267  0.2113 -0.5047  0.3844
  304MOL0     C40009   5.296   2.610   6.157  0.2140  0.1021 -0.8808
  304MOL0     C40010   5.155   2.644   6.130  1.4785  0.2044 -0.0543
  304MOL0     C40011   5.075   2.733   6.227  0.0413  0.3403 -0.2924
  304MOL0     C40012   4.940   2.660   6.257 -0.9878  0.3644 -1.2340
  304MOL0     N40013   4.853   2.614   6.146 -0.5626 -0.3716  0.3408
  304MOL0     C40014   4.785   2.698   6.066  0.3686  0.3732 -0.4872
  304MOL0     C40015   4.696   2.615   6.011  0.2862  0.0789 -0.0014
  304MOL0     C40016   4.605   2.664   5.900 -0.7614 -0.5657  0.0142
  304MOL0     C40017   4.461   2.697   5.935 -0.3446 -0.4224 -0.2902
  304MOL0     C40018   4.380   2.570   5.980 -0.1657 -0.0879  0.1572
  304MOL0     C40019   4.236   2.620   6.004 -0.0378 -0.1217  1.0453
  304MOL0     O40020   4.161   2.589   5.882  0.2329 -0.3038  0.2343
  304MOL0     C40021   4.032   2.642   5.880  0.7093 -0.3319  0.0027
  304MOL0     C40022   3.959   2.606   5.773  1.1664 -0.2206  0.0062
  304MOL0     C40023   3.823   2.642   5.762  0.0447 -0.6842  0.2162
  304MOL0     C40024   3.761   2.703   5.876  0.6477 -0.8858  0.7132
  304MOL0     C40025   3.613   2.724   5.898 -0.7790 -0.8229 -0.0270
  304MOL0     O40026   3.566   2.797   6.014 -0.4505 -0.1673  0.8616
  304MOL0     C40027   3.432   2.822   6.034 -0.5770 -0.1084  0.7929
  304MOL0     C40028   3.354   2.911   5.955  0.7045 -0.3359  0.2701
  304MOL0     C40029   3.217   2.929   5.991 -0.0197  0.3177  0.1480
  304MOL0     C40030   3.166   2.869   6.097 -0.5408 -0.7175 -0.1193
  304MOL0     O40031   3.042   2.892   6.142 -0.0888 -0.6757 -0.5377
  304MOL0     C40032   2.939   2.919   6.049 -0.3703 -0.0587 -0.8045
  304MOL0     C40033   2.807   2.905   6.120  0.4971 -0.8643 -0.7838
  304MOL0     C40034   2.790   2.765   6.171 -0.5342 -0.3839  0.1940
  304MOL0     C40035   2.644   2.742   6.199  0.3455  0.2399  0.3792
  304MOL0     C40036   2.592   2.814   6.322  0.2640  0.6769 -0.7687
  304MOL0     C40037   2.667   2.780   6.446  0.0544 -0.0817 -0.7677
  304MOL0     C40038   2.594   2.858   6.563  0.8585  0.6713 -0.3055
  304MOL0     C40039   2.668   2.836   6.696  0.5835  0.0983 -0.6537
  304MOL0    Cl40040   2.560   2.869   6.840 -0.2478  0.6538 -0.2396
  304MOL0     C40041   3.246   2.783   6.175  0.4650  0.1360  0.0859
  304MOL0     C40042   3.376   2.755   6.145  0.2256  0.0671 -0.0216
  304MOL0     O40043   3.546   2.683   5.809  0.3064 -0.5854  0.0731
  304MOL0     C40044   3.836   2.748   5.977  0.3272  0.1339  0.6239
  304MOL0     C40045   3.977   2.726   5.981  0.2657 -0.2573  0.1402
  304MOL0     N40046   4.733   2.487   6.020 -1.2199  0.3331 -0.0367
  304MOL0     N40047   4.830   2.487   6.110 -0.2017  0.3094  0.1210
  304MOL0     C40048   5.790   2.630   6.701  0.1495  0.3766  0.6941
  304MOL0     C40049   5.918   2.649   6.763  0.7947 -0.2493  0.3227
  304MOL0     C40050   6.343   2.651   6.880 -0.1999 -0.1546 -0.3018
  304MOL0     C40051   6.428   2.765   6.893  0.4863 -0.0479  1.1215
  304MOL0     C40052   6.531   2.759   6.989  1.1308 -1.0944  1.2863
  304MOL0     C40053   6.570   2.641   7.057 -0.2939  0.5491 -1.3101
  304MOL0     O40054   6.687   2.642   7.136 -0.0404 -0.0097  0.7569
  304MOL0     C40055   6.769   2.524   7.141  0.9188  0.1312 -0.0311
  304MOL0     C40056   6.884   2.571   7.239  0.5105  0.6237  0.5014
  304MOL0     C40057   6.989   2.659   7.165 -0.4813  0.4522  0.4879
  304MOL0     C40058   7.093   2.732   7.259 -0.8072  0.1595 -0.3169
  304MOL0     C40059   7.179   2.630   7.318 -1.1284 -0.6838 -0.1360
  304MOL0     C40060   7.261   2.562   7.372  0.9563  0.5566  0.0850
  304MOL0     C40061   6.493   2.526   7.030  1.4091 -0.0267 -0.8823
  304MOL0     C40062   6.377   2.533   6.947  0.0334 -0.4151 -1.1133
  304MOL0     H40063   6.047   2.351   6.652 -3.1933 -2.1314 -3.6809
  304MOL0     H40064   5.816   2.332   6.562 -1.7831  0.6076 -1.0697
  304MOL0     H40065   5.563   2.338   6.612  1.8298  0.8648  0.5657
  304MOL0     H40066   5.649   2.347   6.448  1.1123  0.7818 -0.2442
  304MOL0     H40067   5.390   2.498   6.506 -0.0046 -2.4490  2.5156
  304MOL0     H40068   5.391   2.326   6.436 -0.9588  0.5442 -4.8995
  304MOL0     H40069   5.500   2.393   6.241 -1.1171 -1.2839 -0.5295
  304MOL0     H40070   5.515   2.555   6.321 -1.1949  0.6292 -0.3605
  304MOL0     H40071   5.255   2.413   6.231 -1.3455  0.6057 -0.2810
  304MOL0     H40072   5.256   2.539   6.358 -2.0729 -1.6635 -0.3507
  304MOL0     H40073   5.333   2.564   6.066  0.5252 -1.8698  0.1792
  304MOL0     H40074   5.352   2.703   6.170 -0.3300  0.2847  0.3815
  304MOL0     H40075   5.100   2.552   6.106 -0.9355  1.7936 -1.0474
  304MOL0     H40076   5.151   2.692   6.032  1.9646  3.9436  1.6046
  304MOL0     H40077   5.133   2.751   6.318  0.0963  1.1168 -0.4731
  304MOL0     H40078   5.056   2.831   6.182  1.8605  0.5052 -0.8076
  304MOL0     H40079   4.868   2.708   6.324 -0.4305 -1.8211  1.0882
  304MOL0     H40080   4.968   2.571   6.313 -1.4811  1.0333  0.1136
  304MOL0     H40081   4.804   2.805   6.060  0.8686  0.4698  1.7768
  304MOL0     H40082   4.615   2.585   5.826 -1.3682 -1.2850  0.6771
  304MOL0     H40083   4.652   2.756   5.864  1.3086 -0.3578  2.8760
  304MOL0     H40084   4.410   2.746   5.852 -0.2904  0.2432  0.0607
  304MOL0     H40085   4.464   2.762   6.023  1.3182 -1.7724  0.7158
  304MOL0     H40086   4.389   2.492   5.904  0.2856 -0.7899  0.9098
  304MOL0     H40087   4.421   2.522   6.070  0.4892 -2.3170 -1.2284
  304MOL0     H40088   4.235   2.728   6.021 -2.8342  0.3195 -1.1949
  304MOL0     H40089   4.192   2.572   6.091 -1.8346  2.7487  1.8725
  304MOL0     H40090   3.998   2.546   5.691  0.4408 -0.1870 -0.3766
  304MOL0     H40091   3.767   2.633   5.669  0.5714 -1.3769 -0.0456
  304MOL0     H40092   3.387   2.972   5.872 -1.6307  0.5964 -0.0530
  304MOL0     H40093   3.152   2.987   5.926  0.5443  2.1995  1.1727
  304MOL0     H40094   2.954   2.838   5.976  3.7455  0.4835 -0.8097
  304MOL0     H40095   2.945   3.021   6.009  0.6997 -1.3842 -4.5269
  304MOL0     H40096   2.736   2.946   6.047 -0.8385  0.6579  1.2723
  304MOL0     H40097   2.803   2.974   6.204 -1.5063  0.1952 -1.6988
  304MOL0     H40098   2.855   2.775   6.259 -1.4773 -1.0637  0.9913
  304MOL0     H40099   2.830   2.696   6.097  0.0110  0.1786 -0.0444
  304MOL0     H40100   2.577   2.760   6.114 -1.2425 -2.1580  1.0055
  304MOL0     H40101   2.642   2.634   6.211 -2.0188 -0.1773 -2.5390
  304MOL0     H40102   2.488   2.784   6.339  0.9512 -2.3479 -1.3341
  304MOL0     H40103   2.600   2.923   6.316  0.3009  0.7832  0.7997
  304MOL0     H40104   2.769   2.819   6.445  0.5096 -1.1224  1.4302
  304MOL0     H40105   2.670   2.671   6.456 -1.9834  0.0305  2.1911
  304MOL0     H40106   2.582   2.965   6.541 -0.8529  0.6786  0.4989
  304MOL0     H40107   2.495   2.812   6.574  2.0147 -1.8989 -0.0243
  304MOL0     H40108   2.753   2.904   6.688  0.9826 -0.1498  0.9887
  304MOL0     H40109   2.715   2.737   6.698 -0.5358 -0.5459 -3.0881
  304MOL0     H40110   3.212   2.734   6.266 -0.3672  1.5530  0.5708
  304MOL0     H40111   3.439   2.679   6.191 -1.2943 -1.6022 -0.5762
  304MOL0     H40112   3.790   2.796   6.063 -1.4416 -0.7205  0.1943
  304MOL0     H40113   4.034   2.753   6.069 -0.4466  1.4679  0.1019
  304MOL0     H40114   5.725   2.714   6.722 -1.1588 -0.8425  1.7957
  304MOL0     H40115   5.931   2.737   6.826 -4.1247  2.7255 -2.2500
  304MOL0     H40116   6.433   2.859   6.837  1.8926  0.1095  1.4724
  304MOL0     H40117   6.603   2.841   6.989 -1.2270  1.2308 -1.7722
  304MOL0     H40118   6.803   2.486   7.044 -2.0221 -0.6024 -0.8701
  304MOL0     H40119   6.707   2.443   7.181  2.6700 -1.9903 -1.3843
  304MOL0     H40120   6.833   2.630   7.316  0.3552  1.2880 -0.1038
  304MOL0     H40121   6.921   2.480   7.287  0.8750 -0.5696 -1.8954
  304MOL0     H40122   6.935   2.732   7.104  0.6761  1.4609  0.6415
  304MOL0     H40123   7.047   2.591   7.102 -3.2084 -0.8249 -0.8366
  304MOL0     H40124   7.164   2.804   7.217 -0.3504  0.8844  1.5979
  304MOL0     H40125   7.039   2.798   7.327  0.4849 -0.3656  1.2935
  304MOL0     H40126   7.328   2.488   7.410  2.8788  1.7030 -0.8946
  304MOL0     H40127   6.523   2.437   7.083 -0.8886  0.7721  2.0759
  304MOL0     H40128   6.324   2.439   6.933 -0.0963 -0.4981 -0.1269
  305MOL0     O40129   2.475   9.894   1.881  0.3092  0.9019 -0.0291
  305MOL0     C40130   2.426   9.779   1.858  0.7248 -0.0559  0.0508
  305MOL0     O40131   2.484   9.684   1.776  0.2515 -0.0307 -0.5171
  305MOL0     C40132   2.614   9.719   1.738  0.3839 -0.7383  0.2500
  305MOL0     C40133   2.720   9.722   1.834  0.1146  0.2682  0.2148
  305MOL0     C40134   2.851   9.741   1.785 -0.0218 -0.5957  0.9227
  305MOL0     C40135   2.886   9.757   1.653 -0.6323 -0.2814  0.9374
  305MOL0     O40136   3.021   9.771   1.626  0.2928 -0.7969  0.3494
  305MOL0     C40137   3.122   9.708   1.698 -0.0117  0.5385 -0.2676
  305MOL0     C40138   3.235   9.667   1.598 -0.0666 -0.1099 -0.1620
  305MOL0     C40139   3.175   9.614   1.466  0.8992  0.0744 -0.6574
  305MOL0     C40140   3.272   9.616   1.344  0.5288  0.3697 -0.3258
  305MOL0     C40141   3.233   9.508   1.242  0.9900 -0.0428 -0.3640
  305MOL0     C40142   3.092   9.519   1.190 -0.3474 -0.4030 -0.7341
  305MOL0     C40143   3.082   9.468   1.051  0.6001  0.4613 -0.6718
  305MOL0     C40144   3.170   9.529   0.936  0.3687 -0.2562 -0.4116
  305MOL0     N40145   3.133   9.468   0.802 -0.6552 -0.7848  0.0371
  305MOL0     C40146   3.018   9.459   0.735  0.0102  0.6019 -0.1463
  305MOL0     C40147   3.044   9.383   0.623  0.1871  0.5485 -0.2770
  305MOL0     C40148   2.942   9.320   0.538 -0.4410 -0.9070  0.1844
  305MOL0     C40149   2.874   9.420   0.444  0.3668  0.4586  0.0558
  305MOL0     C40150   2.967   9.494   0.341  0.0831 -0.8454  0.0480
  305MOL0     C40151   2.889   9.555   0.226 -0.0356 -0.9787 -0.8383
  305MOL0     O40152   2.780   9.639   0.267  0.2029 -0.6256 -0.3626
  305MOL0     C40153   2.671   9.649   0.190  1.0413  0.0008 -0.2227
  305MOL0     C40154   2.551   9.699   0.247  0.0434 -0.0922 -0.6402
  305MOL0     C40155   2.430   9.707   0.180  0.3948 -0.6750  0.3543
  305MOL0     C40156   2.424   9.660   0.043  0.2734  0.1982 -0.7031
  305MOL0     C40157   2.289   9.669  -0.030 -0.4181 -0.3451  0.3064
  305MOL0     O40158   2.178   9.680   0.051 -0.0808 -0.5753  0.4500
  305MOL0     C40159   2.052   9.634   0.027  1.0110 -0.7230 -1.0491
  305MOL0     C40160   1.962   9.695   0.112  0.9929 -0.3552  0.0239
  305MOL0     C40161   1.828   9.664   0.105  0.4199 -0.4616 -0.7202
  305MOL0     C40162   1.782   9.564   0.021 -0.2293 -0.2125 -0.8791
  305MOL0     O40163   1.651   9.521   0.016 -0.0647  0.1678  0.3448
  305MOL0     C40164   1.577   9.541   0.134  0.4645 -0.5530 -0.2653
  305MOL0     C40165   1.431   9.516   0.094 -0.5969 -0.4118  0.1376
  305MOL0     C40166   1.376   9.628   0.014 -0.1921  0.8051 -0.4114
  305MOL0     C40167   1.319   9.743   0.103  0.4689  0.3698  0.2291
  305MOL0     C40168   1.170   9.723   0.112  0.9296 -0.8171 -0.7284
  305MOL0     C40169   1.122   9.605   0.203 -0.0622 -0.1114  0.0485
  305MOL0     C40170   0.984   9.636   0.272 -0.1662  0.6926  0.7565
  305MOL0     C40171   0.916   9.510   0.321 -0.3617 -0.2292 -0.6685
  305MOL0    Cl40172   1.028   9.440   0.447 -0.2951 -0.0484  0.3915
  305MOL0     C40173   1.879   9.504  -0.058  0.6872  0.3411 -0.2296
  305MOL0     C40174   2.013   9.531  -0.052 -0.7121  1.0989 -0.6847
  305MOL0     O40175   2.276   9.648  -0.150 -0.1972  0.7381 -0.1510
  305MOL0     C40176   2.540   9.618  -0.017  0.5514  0.1352  0.3123
  305MOL0     C40177   2.662   9.615   0.052  0.0808 -0.1079 -0.5520
  305MOL0     N40178   3.179   9.358   0.617  0.0033 -0.3977 -0.4707
  305MOL0     N40179   3.234   9.400   0.723 -0.4217 -0.5265  0.6051
  305MOL0     C40180   2.778   9.773   1.559 -0.2110 -0.6176 -0.4682
  305MOL0     C40181   2.645   9.747   1.598  0.1841  0.9884 -1.3030
  305MOL0     C40182   2.293   9.774   1.928 -0.2093 -0.8244 -0.1779
  305MOL0     C40183   2.217   9.672   1.902  0.6590  0.0310 -0.2778
  305MOL0     C40184   2.090   9.642   1.967  0.5443 -0.8867 -0.0282
  305MOL0     C40185   2.037   9.744   2.045  0.4698 -1.3156  0.6708
  305MOL0     O40186   1.920   9.708   2.107 -0.0785 -0.2358 -0.5599
  305MOL0     C40187   1.831   9.806   2.165  0.3961  0.6951  0.7119
  305MOL0     C40188   1.706   9.743   2.227 -0.1523  0.2886  0.5870
  305MOL0     C40189   1.626   9.659   2.125 -0.3168 -0.3596 -0.3056
  305MOL0     C40190   1.569   9.524   2.179 -0.1816 -0.0405 -0.4991
  305MOL0     C40191   1.450   9.541   2.272  0.3691 -0.7239  0.5379
  305MOL0     C40192   1.361   9.562   2.348 -0.7324 -0.0825 -1.0324
  305MOL0     C40193   2.114   9.860   2.066  0.6692  0.1680 -0.5719
  305MOL0     C40194   2.237   9.866   2.015  0.8171 -0.4366  0.6355
  305MOL0     H40195   2.696   9.698   1.937  3.3505 -2.6960  0.4619
  305MOL0     H40196   2.923   9.720   1.863  2.6710 -0.9005 -1.4852
  305MOL0     H40197   3.085   9.613   1.738  0.2619  1.0846  1.3974
  305MOL0     H40198   3.162   9.772   1.777  0.3636  1.9817 -1.5940
  305MOL0     H40199   3.305   9.603   1.653  0.7636  0.8122 -0.1213
  305MOL0     H40200   3.277   9.761   1.562 -0.2995 -0.2027 -0.6841
  305MOL0     H40201   3.083   9.663   1.435  1.4822  2.9276  1.7190
  305MOL0     H40202   3.144   9.509   1.476 -1.2896  0.5492 -1.8602
  305MOL0     H40203   3.285   9.716   1.303  0.8364  0.1905 -0.6647
  305MOL0     H40204   3.369   9.578   1.376  0.7017  1.0337 -0.0336
  305MOL0     H40205   3.244   9.411   1.292 -0.4572 -0.3426 -0.5818
  305MOL0     H40206   3.316   9.516   1.171  0.2061  0.8245 -1.2242
  305MOL0     H40207   3.075   9.627   1.186  3.8129  0.3754 -2.2042
  305MOL0     H40208   3.010   9.479   1.251 -0.7921 -0.2469 -1.2153
  305MOL0     H40209   3.083   9.359   1.065  0.1377  0.6698  1.4774
  305MOL0     H40210   2.977   9.481   1.021 -0.3375 -4.1982 -0.2269
  305MOL0     H40211   3.278   9.520   0.946  0.1994 -0.2346  2.0373
  305MOL0     H40212   3.146   9.635   0.923 -0.1503 -0.4133 -0.7503
  305MOL0     H40213   2.921   9.450   0.782  0.7058 -3.3043  0.9193
  305MOL0     H40214   2.866   9.280   0.605  0.3811  1.1925  2.5283
  305MOL0     H40215   2.984   9.236   0.483 -1.5588  0.6787 -3.3471
  305MOL0     H40216   2.831   9.500   0.505  1.3050  1.1621 -0.1869
  305MOL0     H40217   2.796   9.359   0.396 -0.0422  0.2836  0.9138
  305MOL0     H40218   3.016   9.580   0.388 -1.6622  0.3385 -0.1983
  305MOL0     H40219   3.060   9.445   0.311  2.8745  3.3710  0.8978
  305MOL0     H40220   2.843   9.467   0.178 -1.2700 -2.2714  2.4163
  305MOL0     H40221   2.961   9.607   0.162  1.7359 -0.4944  1.4405
  305MOL0     H40222   2.548   9.719   0.354  0.1974 -0.2605 -0.6024
  305MOL0     H40223   2.335   9.742   0.221  0.8537  0.5598  0.3986
  305MOL0     H40224   1.995   9.762   0.191  0.0925 -1.3201  1.2689
  305MOL0     H40225   1.765   9.713   0.179  2.5167 -0.7111  1.3627
  305MOL0     H40226   1.578   9.646   0.165 -1.1536 -0.4241 -0.5721
  305MOL0     H40227   1.607   9.470   0.212  3.7876 -0.6530 -1.4769
  305MOL0     H40228   1.368   9.495   0.180 -2.3193 -0.7067 -1.1460
  305MOL0     H40229   1.411   9.425   0.037 -1.8160 -2.0710  3.0015
  305MOL0     H40230   1.286   9.598  -0.041 -0.9586  0.2258  1.0836
  305MOL0     H40231   1.458   9.665  -0.048  0.1587  0.6937 -0.0204
  305MOL0     H40232   1.361   9.732   0.204  4.4745 -1.1014 -1.3885
  305MOL0     H40233   1.342   9.836   0.050  0.2415  2.1494  3.0394
  305MOL0     H40234   1.116   9.703   0.019 -1.5856 -0.3904  0.5437
  305MOL0     H40235   1.127   9.818   0.147  0.3237 -1.0535 -0.8155
  305MOL0     H40236   1.190   9.578   0.284 -3.7743 -2.1469  2.8293
  305MOL0     H40237   1.103   9.515   0.143  0.1340  0.1549 -0.4135
  305MOL0     H40238   0.995   9.715   0.347 -1.4473  3.7618 -2.0262
  305MOL0     H40239   0.917   9.675   0.195  1.1103 -1.7656 -1.7522
  305MOL0     H40240   0.893   9.437   0.243  0.9770 -0.0813 -1.2194
  305MOL0     H40241   0.822   9.537   0.372 -0.6806  1.6218 -2.1336
  305MOL0     H40242   1.839   9.423  -0.119 -0.1737  1.1165 -0.7364
  305MOL0     H40243   2.082   9.480  -0.120 -1.2431  0.2122 -0.5806
  305MOL0     H40244   2.536   9.580  -0.118 -2.5917  0.6971  0.1100
  305MOL0     H40245   2.751   9.584  -0.000  0.5906 -0.3877  0.4594
  305MOL0     H40246   2.807   9.811   1.462 -1.2440  1.8635  0.1162
  305MOL0     H40247   2.557   9.751   1.536 -0.4707  0.1368 -0.4617
  305MOL0     H40248   2.263   9.595   1.841  1.0558  1.5849 -2.0730
  305MOL0     H40249   2.025   9.556   1.951  0.4409 -0.8762  0.3265
  305MOL0     H40250   1.801   9.865   2.078  0.9877  2.0080  1.3611
  305MOL0     H40251   1.877   9.877   2.235  1.3615  0.5148  0.2778
  305MOL0     H40252   1.737   9.678   2.308 -1.4681 -1.6973 -0.4349
  305MOL0     H40253   1.635   9.818   2.263 -2.7478 -1.2487 -1.0494
  305MOL0     H40254   1.700   9.640   2.046  3.2700 -0.1475  2.7173
  305MOL0     H40255   1.548   9.721   2.081  2.0297  1.8072 -1.6995
  305MOL0     H40256   1.529   9.472   2.091  0.7548 -0.6381 -0.5882
  305MOL0     H40257   1.642   9.462   2.231  1.1501 -0.8902 -3.2065
  305MOL0     H40258   1.289   9.584   2.424  2.4763  1.6409  1.8038
  305MOL0     H40259   2.075   9.939   2.129 -0.6864 -1.0550  0.1976
  305MOL0     H40260   2.295   9.955   2.038  0.0605  0.2129  0.1337
  306MOL0     O40261   3.655   0.641   0.374 -0.0410  0.0958  0.4427
  306MOL0     C40262   3.605   0.754   0.385  0.3247  0.1277  0.0627
  306MOL0     O40263   3.477   0.783   0.417 -0.8167 -0.4236 -0.6946
  306MOL0     C40264   3.393   0.673   0.434 -0.1115 -0.5254  0.1324
  306MOL0     C40265   3.273   0.675   0.363 -0.6789 -0.4215 -0.6394
  306MOL0     C40266   3.191   0.563   0.378 -0.0551  0.0337  0.3472
  306MOL0     C40267   3.220   0.450   0.457  0.6129 -0.6325  0.8540
  306MOL0     O40268   3.147   0.342   0.473 -0.2030 -0.1803 -0.4315
  306MOL0     C40269   3.028   0.317   0.406 -0.3177  0.8798  0.2579
  306MOL0     C40270   2.911   0.289   0.505 -0.0441  0.3544 -0.1528
  306MOL0     C40271   2.879   0.417   0.594 -0.3572  0.6300  0.6726
  306MOL0     C40272   2.840   0.549   0.521 -0.1836  0.4071 -0.7812
  306MOL0     C40273   2.711   0.542   0.443  0.7555 -0.5432  0.4606
  306MOL0     C40274   2.669   0.671   0.377 -1.0045 -0.6101 -0.1903
  306MOL0     C40275   2.611   0.642   0.239 -0.0115  0.9852  0.1487
  306MOL0     C40276   2.706   0.561   0.138 -0.4759 -0.7815 -0.1922
  306MOL0     N40277   2.825   0.643   0.102 -0.4926 -0.0372  0.3816
  306MOL0     C40278   2.841   0.696  -0.022  0.4301 -0.1899  0.4423
  306MOL0     C40279   2.963   0.759  -0.019  0.7685 -0.3536 -0.5179
  306MOL0     C40280   3.018   0.833  -0.120  0.7021 -0.3152 -0.6182
  306MOL0     C40281   2.976   0.979  -0.137  0.5474 -0.6747  0.3312
  306MOL0     C40282   2.846   0.995  -0.211 -0.2166  0.1943  0.5484
  306MOL0     C40283   2.798   1.133  -0.164  0.4734  0.8961  0.2458
  306MOL0     O40284   2.695   1.194  -0.241  1.1129 -0.5720  0.2647
  306MOL0     C40285   2.638   1.311  -0.191 -0.2131  0.3992  0.4090
  306MOL0     C40286   2.534   1.360  -0.262 -0.4088  0.3925 -0.4218
  306MOL0     C40287   2.448   1.462  -0.206  0.0113 -0.4293  0.2078
  306MOL0     C40288   2.477   1.514  -0.083 -0.4560 -0.3986 -0.1399
  306MOL0     C40289   2.379   1.608  -0.012  0.2272 -0.5291 -0.1552
  306MOL0     O40290   2.417   1.656   0.115  0.1619 -0.4497 -0.3958
  306MOL0     C40291   2.341   1.724   0.211 -0.2833  0.4975 -0.9959
  306MOL0     C40292   2.194   1.716   0.215 -0.1561 -0.4022 -0.0007
  306MOL0     C40293   2.125   1.782   0.320  0.0613 -0.8695  0.6499
  306MOL0     C40294   2.197   1.841   0.420 -0.5257  0.3359 -0.4582
  306MOL0     O40295   2.125   1.890   0.528  0.6775  0.0854  0.5296
  306MOL0     C40296   2.174   2.001   0.608 -0.9536  0.5721 -0.1105
  306MOL0     C40297   2.074   2.084   0.674 -0.7651  1.3022 -0.5483
  306MOL0     C40298   1.981   1.995   0.758  0.5112 -0.0015 -0.3474
  306MOL0     C40299   1.898   2.074   0.859 -0.7174 -0.4473  0.4309
  306MOL0     C40300   1.802   1.983   0.933  0.4347  0.0517 -0.0585
  306MOL0     C40301   1.666   2.036   0.963 -0.0508  0.0056 -0.6878
  306MOL0     C40302   1.665   2.160   1.058 -0.2062  0.3407 -0.3914
  306MOL0     C40303   1.750   2.123   1.179 -0.2237 -0.1486  0.7878
  306MOL0    Cl40304   1.693   2.233   1.321 -0.3082  0.1148 -0.2099
  306MOL0     C40305   2.338   1.827   0.425 -0.8305 -0.2669  0.4174
  306MOL0     C40306   2.411   1.785   0.315 -0.5099 -0.1610  0.7666
  306MOL0     O40307   2.270   1.621  -0.067 -0.0580  0.7325 -0.2723
  306MOL0     C40308   2.591   1.478  -0.015  0.6917  0.4235 -0.1546
  306MOL0     C40309   2.678   1.378  -0.072  0.4596  0.2809  0.4986
  306MOL0     N40310   3.019   0.730   0.106 -0.6530  0.6927 -0.4103
  306MOL0     N40311   2.934   0.673   0.179 -0.2772 -0.0511 -0.2460
  306MOL0     C40312   3.343   0.450   0.524  0.4220 -0.2169 -0.1236
  306MOL0     C40313   3.423   0.563   0.520  1.4503  0.1631  0.7161
  306MOL0     C40314   3.692   0.879   0.382 -0.7993  0.6641  0.5290
  306MOL0     C40315   3.833   0.871   0.381  0.3661  0.0111 -0.2133
  306MOL0     C40316   3.913   0.984   0.407 -0.4173  0.1280 -0.8823
  306MOL0     C40317   3.855   1.113   0.419  0.5167 -0.4323  0.3179
  306MOL0     O40318   3.942   1.217   0.437  0.7374  0.5629 -0.8342
  306MOL0     C40319   3.905   1.353   0.395 -0.7774  0.3829 -0.0632
  306MOL0     C40320   3.999   1.421   0.289 -0.5562  0.1148 -0.3787
  306MOL0     C40321   4.154   1.429   0.340 -1.1744  0.2570 -0.2902
  306MOL0     C40322   4.184   1.514   0.459 -0.3628  0.3847 -0.0663
  306MOL0     C40323   4.179   1.657   0.418  0.0786  0.1867  0.4296
  306MOL0     C40324   4.186   1.766   0.384  0.4602  0.0165  0.5647
  306MOL0     C40325   3.717   1.122   0.403 -1.0172 -0.0631  0.0755
  306MOL0     C40326   3.634   1.010   0.387  0.1635 -0.7051  0.1997
  306MOL0     H40327   3.247   0.766   0.310  3.0555 -0.1482 -2.3254
  306MOL0     H40328   3.095   0.570   0.328  0.1516  0.5065  0.0044
  306MOL0     H40329   3.040   0.237   0.333  0.1983  1.8067 -0.7029
  306MOL0     H40330   2.992   0.403   0.348 -1.8248  1.5641  2.0975
  306MOL0     H40331   2.947   0.214   0.577  0.3919  2.6896  2.2192
  306MOL0     H40332   2.819   0.253   0.457 -2.1525  3.7438  0.9941
  306MOL0     H40333   2.959   0.432   0.668 -0.2567 -0.7057  0.8536
  306MOL0     H40334   2.797   0.379   0.657  0.6065 -2.7774  0.0853
  306MOL0     H40335   2.819   0.631   0.591 -3.7024  0.4427 -1.7263
  306MOL0     H40336   2.924   0.602   0.473 -0.7029  2.7542  0.6975
  306MOL0     H40337   2.623   0.526   0.506 -2.1033  1.3879 -2.7033
  306MOL0     H40338   2.720   0.459   0.372 -0.3556  0.4005 -0.8435
  306MOL0     H40339   2.763   0.724   0.362 -0.6316 -1.0250  0.6190
  306MOL0     H40340   2.602   0.728   0.442 -0.8347 -1.5666  0.8498
  306MOL0     H40341   2.511   0.597   0.242  0.5408 -0.4540 -1.2263
  306MOL0     H40342   2.600   0.737   0.186  0.8462 -0.3562 -2.5987
  306MOL0     H40343   2.643   0.540   0.051  2.0413  1.8272 -2.9164
  306MOL0     H40344   2.749   0.468   0.175 -0.3610 -0.9705 -0.7800
  306MOL0     H40345   2.769   0.686  -0.103 -3.2405  0.8030  3.3012
  306MOL0     H40346   3.019   0.795  -0.222 -0.5960  1.7334 -1.4655
  306MOL0     H40347   3.123   0.833  -0.090  0.0230 -1.6909  2.1360
  306MOL0     H40348   3.044   1.051  -0.184 -1.1449  1.4990  1.0785
  306MOL0     H40349   2.974   1.027  -0.039 -0.2621  0.9547 -0.4489
  306MOL0     H40350   2.861   0.986  -0.319 -2.0773  2.5168  0.0249
  306MOL0     H40351   2.770   0.918  -0.191 -0.4581  0.2797 -0.0137
  306MOL0     H40352   2.875   1.211  -0.165 -0.4898  1.8951  1.4079
  306MOL0     H40353   2.778   1.115  -0.058  2.0804  0.9529  0.5907
  306MOL0     H40354   2.509   1.299  -0.349  0.4287 -1.4139  0.5411
  306MOL0     H40355   2.365   1.502  -0.264 -1.5631 -0.9163  2.0224
  306MOL0     H40356   2.131   1.665   0.143 -1.2824  0.2777  0.4645
  306MOL0     H40357   2.018   1.763   0.320 -0.0102 -1.8953 -4.7448
  306MOL0     H40358   2.231   2.058   0.534 -1.8393  3.2597  1.1666
  306MOL0     H40359   2.244   1.949   0.674 -1.1691  0.3063 -0.0881
  306MOL0     H40360   2.013   2.146   0.606 -1.4036  0.8469 -0.3989
  306MOL0     H40361   2.141   2.148   0.732  3.7745 -0.7408 -3.0206
  306MOL0     H40362   2.047   1.925   0.811  0.9274 -0.2296 -1.1477
  306MOL0     H40363   1.922   1.934   0.690  2.3611  0.0950 -2.1315
  306MOL0     H40364   1.960   2.128   0.931  0.1417 -0.2804 -0.4045
  306MOL0     H40365   1.836   2.154   0.819  0.0429 -0.3822 -0.6707
  306MOL0     H40366   1.856   1.947   1.021 -0.3753  1.7818  1.2053
  306MOL0     H40367   1.787   1.899   0.865  0.0725  0.6737 -0.7567
  306MOL0     H40368   1.615   1.954   1.013 -1.4871  2.3535  2.0360
  306MOL0     H40369   1.609   2.064   0.874  1.1534  3.2628 -0.5762
  306MOL0     H40370   1.689   2.254   1.008 -0.2925 -1.0126 -3.1626
  306MOL0     H40371   1.563   2.177   1.095 -0.7793 -1.3900 -1.0670
  306MOL0     H40372   1.850   2.154   1.150 -0.7845  0.7298 -0.2929
  306MOL0     H40373   1.751   2.016   1.201 -0.8838 -0.4087 -0.3766
  306MOL0     H40374   2.399   1.858   0.509  3.3278 -6.1411  0.1449
  306MOL0     H40375   2.519   1.797   0.317 -0.3069 -1.3625 -0.8529
  306MOL0     H40376   2.607   1.514   0.086 -1.2345 -0.3331  0.4652
  306MOL0     H40377   2.767   1.369  -0.010  0.1679 -2.4462  0.6280
  306MOL0     H40378   3.381   0.364   0.579 -0.9634 -2.2378 -2.1763
  306MOL0     H40379   3.510   0.572   0.585  2.8373  3.8133 -1.3721
  306MOL0     H40380   3.870   0.771   0.362  1.9693  0.3276  0.9973
  306MOL0     H40381   4.018   0.966   0.428 -0.9917 -1.3875  0.9172
  306MOL0     H40382   3.894   1.410   0.487 -0.3070  2.7376 -1.3921
  306MOL0     H40383   3.807   1.359   0.346 -1.3201 -2.8056  0.4199
  306MOL0     H40384   3.989   1.363   0.197  1.0735  1.6905 -1.6165
  306MOL0     H40385   3.958   1.520   0.264  2.9602  2.3279  1.7336
  306MOL0     H40386   4.217   1.464   0.258 -1.9079 -0.0008 -0.9789
  306MOL0     H40387   4.189   1.328   0.364 -0.1257  0.3026 -1.4880
  306MOL0     H40388   4.118   1.492   0.544 -0.3582 -1.9323 -0.5835
  306MOL0     H40389   4.283   1.487   0.497  0.2803 -2.1276 -3.1443
  306MOL0     H40390   4.181   1.872   0.369 -2.4664 -0.0206  0.7071
  306MOL0     H40391   3.652   1.209   0.403  1.7452  2.3886 -3.9386
  306MOL0     H40392   3.526   1.019   0.379 -0.1003 -1.3795  2.3643
  307MOL0     O40393   2.102   2.811   2.896 -0.7602 -0.6338 -0.5480
  307MOL0     C40394   2.156   2.837   2.788  0.1054 -0.1124 -0.0742
  307MOL0     O40395   2.082   2.881   2.682  0.0112 -0.3725 -0.0196
  307MOL0     C40396   1.945   2.898   2.691 -1.0761  1.0055  0.4010
  307MOL0     C40397   1.873   2.801   2.624 -0.0923 -0.0208 -0.0472
  307MOL0     C40398   1.736   2.789   2.629 -0.1109 -0.0307 -0.6582
  307MOL0     C40399   1.662   2.890   2.690 -0.7040 -0.6530 -0.4586
  307MOL0     O40400   1.528   2.872   2.688 -0.0997 -0.1114  0.2446
  307MOL0     C40401   1.441   2.949   2.771 -0.8970 -0.3652 -0.6726
  307MOL0     C40402   1.302   2.889   2.774  0.0940 -0.3888 -0.3109
  307MOL0     C40403   1.234   2.895   2.639  0.4860 -0.0244 -0.3147
  307MOL0     C40404   1.079   2.892   2.640  0.5210  0.1476  0.6162
  307MOL0     C40405   1.025   2.894   2.495  0.8689  0.2152 -0.4207
  307MOL0     C40406   0.908   2.988   2.488  0.1738  0.6111  1.2935
  307MOL0     C40407   0.777   2.941   2.550 -0.4303 -0.2645  0.4631
  307MOL0     C40408   0.668   3.052   2.570 -0.3661 -0.1293  0.3109
  307MOL0     N40409   0.604   3.063   2.440  0.2938  0.7591  0.0374
  307MOL0     C40410   0.660   3.133   2.336  0.4909 -1.2728 -0.0133
  307MOL0     C40411   0.574   3.097   2.234  0.3175 -0.6833 -0.0018
  307MOL0     C40412   0.585   3.155   2.085  0.0034  1.0302 -0.1592
  307MOL0     C40413   0.461   3.234   2.055  0.1203  0.2274 -0.2594
  307MOL0     C40414   0.445   3.272   1.904  0.6504  0.1213 -0.1859
  307MOL0     C40415   0.317   3.356   1.888 -0.1857 -0.0074  0.6146
  307MOL0     O40416   0.206   3.277   1.895 -0.0075  0.4845  0.3829
  307MOL0     C40417   0.089   3.342   1.886  0.0230  0.2731  0.4662
  307MOL0     C40418   0.011   3.354   1.999 -0.4664  0.1953  0.4593
  307MOL0     C40419  -0.117   3.416   1.986 -0.0007 -0.2129  0.2557
  307MOL0     C40420  -0.175   3.457   1.863 -0.2687 -0.1230  0.2188
  307MOL0     C40421  -0.310   3.522   1.865  0.5429  0.2416  0.3546
  307MOL0     O40422  -0.394   3.505   1.761 -0.1899 -0.6029 -0.4364
  307MOL0     C40423  -0.510   3.570   1.772 -0.3101 -0.3198  0.0513
  307MOL0     C40424  -0.526   3.708   1.738 -0.7201  1.4888 -1.2066
  307MOL0     C40425  -0.642   3.776   1.759  0.6806 -0.1828 -0.1800
  307MOL0     C40426  -0.753   3.717   1.812  0.4775 -0.1372  0.9097
  307MOL0     O40427  -0.872   3.783   1.804  0.0820 -0.5582  0.4521
  307MOL0     C40428  -0.988   3.743   1.890 -0.0003  0.3225  0.4155
  307MOL0     C40429  -1.061   3.624   1.827  0.0409 -0.2887 -0.4141
  307MOL0     C40430  -1.198   3.661   1.764 -0.4029  0.5479 -0.3838
  307MOL0     C40431  -1.319   3.667   1.862  0.6788  0.4483  0.0425
  307MOL0     C40432  -1.449   3.655   1.783 -0.6264 -0.7158 -0.3193
  307MOL0     C40433  -1.562   3.721   1.860  1.0117 -0.1095  0.3046
  307MOL0     C40434  -1.579   3.868   1.839  0.0547  0.4040  0.3434
  307MOL0     C40435  -1.703   3.939   1.891  1.0795  0.8765  0.2333
  307MOL0    Cl40436  -1.827   3.893   1.771  0.6024 -0.3770  0.1647
  307MOL0     C40437  -0.741   3.585   1.856  0.3010  0.3882 -0.7111
  307MOL0     C40438  -0.619   3.509   1.834  0.7743 -0.9862  0.3271
  307MOL0     O40439  -0.333   3.581   1.969  0.4059  0.1039  0.9331
  307MOL0     C40440  -0.099   3.431   1.751  0.2238 -0.3812 -0.2527
  307MOL0     C40441   0.034   3.384   1.764 -0.0963  0.1377  0.2421
  307MOL0     N40442   0.472   3.020   2.281 -0.6377 -0.0337  0.8274
  307MOL0     N40443   0.497   2.995   2.403 -0.0463  0.0219 -0.5241
  307MOL0     C40444   1.737   3.002   2.747  0.2883 -0.0648  1.0003
  307MOL0     C40445   1.879   3.009   2.743 -0.2139  0.5527 -0.1839
  307MOL0     C40446   2.300   2.836   2.772  0.1693  0.4107  0.5272
  307MOL0     C40447   2.382   2.807   2.877 -0.3405  0.0812 -0.5237
  307MOL0     C40448   2.522   2.821   2.869  0.6803  0.7886 -0.1774
  307MOL0     C40449   2.589   2.859   2.753  0.0902  1.0279  0.4189
  307MOL0     O40450   2.722   2.880   2.773 -0.6143 -0.2918  0.8005
  307MOL0     C40451   2.797   2.921   2.661 -1.1006 -0.1056 -0.4097
  307MOL0     C40452   2.876   3.049   2.700 -0.6491 -0.0112  0.0470
  307MOL0     C40453   3.022   3.014   2.733 -0.6667 -1.3345 -0.4187
  307MOL0     C40454   3.110   2.965   2.622 -0.2466 -0.2304  0.8537
  307MOL0     C40455   3.143   3.066   2.523  0.1310  0.2837  0.3959
  307MOL0     C40456   3.171   3.145   2.433  0.1599 -0.3307 -0.7819
  307MOL0     C40457   2.505   2.872   2.636 -0.3298 -0.3451  0.0007
  307MOL0     C40458   2.368   2.867   2.649  0.4953  0.5006 -0.6608
  307MOL0     H40459   1.924   2.722   2.570 -0.5551 -1.4878  1.5701
  307MOL0     H40460   1.681   2.714   2.572 -2.4348  3.1201 -2.9148
  307MOL0     H40461   1.448   3.053   2.739  2.4754 -0.0797  0.4975
  307MOL0     H40462   1.481   2.944   2.873 -1.1013  1.7382 -0.4376
  307MOL0     H40463   1.237   2.945   2.842 -2.4094  0.6752 -3.3368
  307MOL0     H40464   1.305   2.786   2.811  4.9718  0.0049  1.0028
  307MOL0     H40465   1.264   2.814   2.571  1.8815 -0.0196  0.2517
  307MOL0     H40466   1.255   2.992   2.593  0.1613  1.1405  1.8679
  307MOL0     H40467   1.042   2.804   2.693 -0.6502 -0.3262 -0.9155
  307MOL0     H40468   1.040   2.979   2.695  0.9364 -0.1835  1.4613
  307MOL0     H40469   1.005   2.788   2.475 -0.7917  0.4924 -0.3655
  307MOL0     H40470   1.106   2.927   2.429  3.6134 -3.9222  0.4948
  307MOL0     H40471   0.884   2.990   2.381  1.6925 -0.3169  0.9155
  307MOL0     H40472   0.927   3.094   2.504 -2.0654  1.3141 -0.2078
  307MOL0     H40473   0.741   2.863   2.482 -0.5522 -0.4644  0.7505
  307MOL0     H40474   0.791   2.896   2.649  0.2965 -1.8606 -0.3234
  307MOL0     H40475   0.710   3.146   2.606  0.1516 -1.1406  2.5194
  307MOL0     H40476   0.594   3.015   2.641  0.2467 -0.1202  0.9596
  307MOL0     H40477   0.743   3.203   2.329 -0.5801  0.0618  0.1583
  307MOL0     H40478   0.610   3.069   2.022  1.6630  2.0806 -1.0215
  307MOL0     H40479   0.685   3.199   2.085 -0.2197  1.5443  0.1591
  307MOL0     H40480   0.473   3.327   2.112 -1.6130  0.4693 -0.2337
  307MOL0     H40481   0.368   3.191   2.094  0.0193  0.8473  0.1904
  307MOL0     H40482   0.535   3.323   1.869 -0.0550  1.0019 -0.7606
  307MOL0     H40483   0.424   3.185   1.841  0.8018 -1.5184  1.9054
  307MOL0     H40484   0.318   3.414   1.795  1.9803 -1.5450 -0.3932
  307MOL0     H40485   0.318   3.423   1.974 -1.1186  0.4563  0.2772
  307MOL0     H40486   0.053   3.330   2.097  0.1203 -2.9707 -0.4638
  307MOL0     H40487  -0.169   3.428   2.080  2.5167 -2.1472  2.0197
  307MOL0     H40488  -0.444   3.751   1.681 -0.5228  0.8587 -1.4158
  307MOL0     H40489  -0.629   3.878   1.723  0.9223 -0.9840 -2.5372
  307MOL0     H40490  -1.057   3.825   1.914 -0.6012  0.8240 -2.5992
  307MOL0     H40491  -0.955   3.694   1.982  0.7956  0.0141 -0.0267
  307MOL0     H40492  -1.096   3.552   1.903 -0.6826 -0.4771 -0.9111
  307MOL0     H40493  -0.998   3.572   1.755  3.9805  0.6381  2.0793
  307MOL0     H40494  -1.225   3.585   1.690 -2.1363  1.4814 -0.7710
  307MOL0     H40495  -1.190   3.764   1.728  0.1698  1.1190  1.2641
  307MOL0     H40496  -1.321   3.583   1.932 -2.7724  1.1187  0.9106
  307MOL0     H40497  -1.318   3.762   1.914  5.7396 -0.1141  1.4765
  307MOL0     H40498  -1.483   3.556   1.752 -2.3057  0.7923 -3.7505
  307MOL0     H40499  -1.422   3.707   1.691  1.5020 -1.9064 -0.4351
  307MOL0     H40500  -1.589   3.688   1.961 -3.0300 -1.0806 -0.8871
  307MOL0     H40501  -1.652   3.682   1.811  1.2063 -2.0219  1.4081
  307MOL0     H40502  -1.491   3.912   1.887 -0.0993  0.0952  0.9149
  307MOL0     H40503  -1.575   3.885   1.731 -1.8222 -1.7102 -0.1408
  307MOL0     H40504  -1.697   4.048   1.880 -0.2286  0.7487 -2.3391
  307MOL0     H40505  -1.723   3.902   1.992  1.2332 -0.8916 -0.3452
  307MOL0     H40506  -0.811   3.523   1.911  0.7490  1.3812  1.0510
  307MOL0     H40507  -0.609   3.405   1.860  3.0076 -0.3995  2.1384
  307MOL0     H40508  -0.133   3.445   1.649  0.9620 -0.2455 -0.4803
  307MOL0     H40509   0.107   3.366   1.687  1.1037 -2.9023  1.9461
  307MOL0     H40510   1.688   3.094   2.777 -0.9688 -1.3492  3.1446
  307MOL0     H40511   1.942   3.090   2.781 -0.3239  1.2667 -1.4592
  307MOL0     H40512   2.340   2.762   2.966 -0.5576  0.6295 -0.3458
  307MOL0     H40513   2.574   2.806   2.963 -3.2033  1.9046  2.3689
  307MOL0     H40514   2.751   2.943   2.564  2.2889  1.1751 -1.8931
  307MOL0     H40515   2.866   2.841   2.631  1.2349 -0.8340  5.4980
  307MOL0     H40516   2.881   3.106   2.607  2.3870  1.6594  1.0742
  307MOL0     H40517   2.842   3.111   2.784 -0.0242 -0.2594  0.4898
  307MOL0     H40518   3.037   2.959   2.826  1.6275  1.6504  1.1427
  307MOL0     H40519   3.074   3.104   2.766 -0.6547 -2.2112  2.2042
  307MOL0     H40520   3.202   2.925   2.665 -0.3809  0.9401  2.3162
  307MOL0     H40521   3.059   2.889   2.563  1.8924 -0.0289 -1.4003
  307MOL0     H40522   3.172   3.206   2.345 -0.3690 -0.6127 -0.9903
  307MOL0     H40523   2.540   2.901   2.538  2.0769  0.8696  1.1309
  307MOL0     H40524   2.324   2.888   2.552  2.7523 -2.5126 -2.4979
  308MOL0     O40525   9.878   3.520   7.210 -0.6436  0.8710 -0.2893
  308MOL0     C40526   9.763   3.548   7.225 -0.0266  0.0567 -0.5830
  308MOL0     O40527   9.699   3.574   7.348 -0.7000  0.7701 -0.1506
  308MOL0     C40528   9.777   3.557   7.461  0.0040 -0.2411  0.4114
  308MOL0     C40529   9.765   3.445   7.537  0.1004 -0.3032 -0.1202
  308MOL0     C40530   9.849   3.415   7.649  0.3752  0.3203  0.0808
  308MOL0     C40531   9.948   3.507   7.685  0.1571  0.4662 -0.6528
  308MOL0     O40532  10.018   3.488   7.800  0.3973 -0.1001 -0.2632
  308MOL0     C40533   9.948   3.428   7.907 -0.1339 -0.3584  0.8926
  308MOL0     C40534  10.028   3.450   8.032 -0.6100 -0.1680  0.2758
  308MOL0     C40535  10.019   3.593   8.096  0.1769  0.2072  1.0138
  308MOL0     C40536  10.117   3.599   8.210 -0.4174  0.1006  0.5571
  308MOL0     C40537  10.124   3.735   8.282  0.3539 -0.8626 -0.3025
  308MOL0     C40538  10.009   3.764   8.381  0.2060  0.8191  0.5262
  308MOL0     C40539  10.028   3.902   8.448  0.2251  0.1067 -0.3357
  308MOL0     C40540   9.905   3.918   8.532 -0.1079 -0.5362 -0.8027
  308MOL0     N40541   9.907   4.031   8.627  0.2888  0.1689  0.1741
  308MOL0     C40542  10.007   4.125   8.657 -0.7461  0.7655  0.3962
  308MOL0     C40543   9.961   4.187   8.770 -0.2544  0.1229  1.2152
  308MOL0     C40544  10.028   4.299   8.847 -0.6652  0.2326  0.2544
  308MOL0     C40545  10.115   4.238   8.956 -0.1038  0.4491  0.3841
  308MOL0     C40546  10.032   4.166   9.061  0.0844  0.3842  0.9276
  308MOL0     C40547  10.117   4.123   9.172 -0.0886  1.0638  0.1222
  308MOL0     O40548  10.171   4.230   9.251 -0.8573  0.1791  0.2588
  308MOL0     C40549  10.095   4.323   9.312 -0.0486 -0.1835  0.1676
  308MOL0     C40550  10.144   4.453   9.315  0.6816  0.4636 -0.3039
  308MOL0     C40551  10.063   4.562   9.364 -0.0757  0.3584  0.1371
  308MOL0     C40552   9.932   4.532   9.410  0.0262 -1.0614 -0.0569
  308MOL0     C40553   9.848   4.645   9.441  0.0862 -0.1914  0.4679
  308MOL0     O40554   9.717   4.615   9.427 -0.6120 -0.1598  0.0881
  308MOL0     C40555   9.623   4.676   9.506 -0.3736 -0.1606 -0.6464
  308MOL0     C40556   9.640   4.679   9.645  0.9800  0.3279  0.5588
  308MOL0     C40557   9.539   4.721   9.733  0.0893  0.4080  0.2503
  308MOL0     C40558   9.425   4.787   9.679 -0.6732 -0.6065 -0.8611
  308MOL0     O40559   9.335   4.850   9.758 -0.0088 -0.1128 -0.5195
  308MOL0     C40560   9.270   4.762   9.842  0.4462 -0.3865 -1.0233
  308MOL0     C40561   9.170   4.663   9.763  0.2472 -0.5371  0.1298
  308MOL0     C40562   9.067   4.740   9.678 -1.0008 -0.2707  0.3517
  308MOL0     C40563   8.970   4.654   9.607  0.0271 -0.2370 -0.3085
  308MOL0     C40564   9.016   4.585   9.475 -0.3492 -0.3742 -0.5053
  308MOL0     C40565   9.056   4.688   9.360 -0.0466  0.8298 -0.0429
  308MOL0     C40566   9.099   4.592   9.251  0.3917  0.4252 -0.2743
  308MOL0     C40567   9.249   4.545   9.271  0.4625 -0.6595 -0.5421
  308MOL0    Cl40568   9.298   4.433   9.138 -0.0427 -0.2583 -0.5025
  308MOL0     C40569   9.408   4.794   9.542 -0.4785 -0.3692  0.2725
  308MOL0     C40570   9.501   4.737   9.454  0.9325  0.0774 -0.2688
  308MOL0     O40571   9.893   4.749   9.492  0.1441  0.4091  0.0666
  308MOL0     C40572   9.893   4.402   9.427  0.6929 -0.5495 -0.4174
  308MOL0     C40573   9.963   4.304   9.365  1.0519 -0.2096  0.4140
  308MOL0     N40574   9.842   4.132   8.807 -0.4555 -0.5703 -0.2260
  308MOL0     N40575   9.811   4.046   8.721  0.3215 -0.3229  0.2540
  308MOL0     C40576   9.942   3.633   7.620 -0.3127 -0.6311  0.1208
  308MOL0     C40577   9.860   3.653   7.505 -0.4680 -0.1675  0.1542
  308MOL0     C40578   9.683   3.569   7.104 -0.0332 -0.4033 -0.7981
  308MOL0     C40579   9.737   3.527   6.977  0.6433 -0.2956  0.3718
  308MOL0     C40580   9.660   3.561   6.864 -1.4306  0.1090 -0.2491
  308MOL0     C40581   9.535   3.617   6.871  0.0228 -0.5377  0.9341
  308MOL0     O40582   9.460   3.643   6.758  0.2899  0.3550 -0.1496
  308MOL0     C40583   9.491   3.597   6.621  0.6293 -0.7001 -0.7367
  308MOL0     C40584   9.485   3.449   6.601 -0.2997  0.4211 -0.1264
  308MOL0     C40585   9.364   3.407   6.523  0.3522 -0.3283 -0.6456
  308MOL0     C40586   9.341   3.254   6.508  0.0526 -0.5574 -0.0248
  308MOL0     C40587   9.416   3.193   6.401  0.1261  0.0741 -0.2535
  308MOL0     C40588   9.454   3.128   6.303 -0.6110 -0.5906  0.3983
  308MOL0     C40589   9.483   3.643   6.990  0.2739 -1.2508 -0.1386
  308MOL0     C40590   9.560   3.632   7.109 -0.4801 -1.1015  0.1274
  308MOL0     H40591   9.677   3.383   7.521 -0.9243  0.2814  2.5907
  308MOL0     H40592   9.834   3.319   7.697  0.8971  0.0259 -0.3359
  308MOL0     H40593   9.935   3.322   7.882 -0.7201  0.0239 -0.4958
  308MOL0     H40594   9.844   3.459   7.918 -0.0351  0.3688 -0.1059
  308MOL0     H40595  10.132   3.434   8.001  0.3933 -1.2386  3.7034
  308MOL0     H40596  10.005   3.368   8.101  3.8241 -1.5334  0.4897
  308MOL0     H40597   9.923   3.616   8.143 -0.5772  0.5411 -0.6034
  308MOL0     H40598  10.046   3.669   8.021  1.6041 -1.1352  0.0857
  308MOL0     H40599  10.081   3.523   8.280 -0.2336 -1.5830 -1.1075
  308MOL0     H40600  10.216   3.570   8.175 -0.1071  0.8216  0.8216
  308MOL0     H40601  10.127   3.813   8.205 -1.0185 -2.3417 -1.9125
  308MOL0     H40602  10.217   3.747   8.339 -0.9442  3.3862  1.2861
  308MOL0     H40603   9.999   3.690   8.461 -0.1536  1.4747  1.0939
  308MOL0     H40604   9.920   3.757   8.319  1.9165 -4.4362 -1.9222
  308MOL0     H40605  10.117   3.920   8.510  0.2050 -2.0607  0.3841
  308MOL0     H40606  10.021   3.969   8.361  0.9894 -1.6648 -1.8263
  308MOL0     H40607   9.886   3.829   8.592 -1.8255  2.7863  4.1240
  308MOL0     H40608   9.818   3.942   8.469 -1.3478  0.6857  1.2685
  308MOL0     H40609  10.105   4.140   8.613  1.0240 -5.3722  1.3563
  308MOL0     H40610   9.952   4.361   8.895 -0.1586  0.8490  0.2710
  308MOL0     H40611  10.084   4.367   8.782 -0.2199  0.7743  1.1963
  308MOL0     H40612  10.159   4.327   9.002  0.5032 -0.6145  1.9357
  308MOL0     H40613  10.191   4.174   8.910 -0.3351  0.2675  0.2551
  308MOL0     H40614   9.944   4.216   9.101 -0.2903 -2.0012  3.3384
  308MOL0     H40615  10.004   4.073   9.010  0.3159  0.6093  0.3712
  308MOL0     H40616  10.202   4.062   9.142 -0.5337  0.1606  0.6253
  308MOL0     H40617  10.064   4.048   9.232  0.5964 -0.8949 -1.6328
  308MOL0     H40618  10.251   4.473   9.304  0.4729  1.2408 -1.0055
  308MOL0     H40619  10.086   4.668   9.365  1.2958  0.1200  3.1106
  308MOL0     H40620   9.721   4.623   9.690 -1.1395 -1.6648  2.1182
  308MOL0     H40621   9.560   4.726   9.840 -1.4974 -1.2203  0.6836
  308MOL0     H40622   9.210   4.823   9.910 -3.4651 -3.2774 -1.5136
  308MOL0     H40623   9.324   4.700   9.915 -1.5831  1.0088  1.8691
  308MOL0     H40624   9.127   4.600   9.841  2.5638  1.1743  3.0639
  308MOL0     H40625   9.241   4.608   9.702  1.8444  2.1613 -0.6061
  308MOL0     H40626   9.126   4.798   9.607  2.1711  0.1190  3.0297
  308MOL0     H40627   9.015   4.815   9.739  0.1097  0.1993  0.7409
  308MOL0     H40628   8.927   4.586   9.681 -0.9861  2.4336  1.7375
  308MOL0     H40629   8.885   4.719   9.580  0.4067  1.7317  2.7403
  308MOL0     H40630   8.930   4.523   9.446  1.1979 -2.0075 -1.8457
  308MOL0     H40631   9.087   4.506   9.498  0.8010  0.1898 -1.9529
  308MOL0     H40632   9.141   4.750   9.388  1.2909 -2.4260  4.0990
  308MOL0     H40633   8.979   4.757   9.324  1.8888  1.9464 -2.3508
  308MOL0     H40634   9.023   4.517   9.227 -0.2400  1.5315 -1.8657
  308MOL0     H40635   9.098   4.649   9.158 -0.1848 -0.8299 -1.0670
  308MOL0     H40636   9.270   4.498   9.367  0.3744 -0.8782 -0.6287
  308MOL0     H40637   9.320   4.626   9.257 -0.2651  0.2108  0.6477
  308MOL0     H40638   9.336   4.864   9.501 -1.4257 -0.1641  2.1650
  308MOL0     H40639   9.496   4.746   9.346 -1.9572  0.9004 -0.1428
  308MOL0     H40640   9.793   4.384   9.466 -0.0247  1.3187 -1.2522
  308MOL0     H40641   9.913   4.208   9.364  0.8385 -0.1205  1.6212
  308MOL0     H40642  10.018   3.701   7.658  3.4165 -3.4027 -1.7379
  308MOL0     H40643   9.879   3.745   7.451  0.3718 -0.0904  0.5511
  308MOL0     H40644   9.841   3.498   6.969 -0.0003 -3.0266  0.9678
  308MOL0     H40645   9.697   3.525   6.769  1.9482 -1.1527  1.3992
  308MOL0     H40646   9.590   3.640   6.598 -0.1664 -0.0534 -3.2238
  308MOL0     H40647   9.423   3.647   6.553 -0.1351 -0.1466  0.3967
  308MOL0     H40648   9.571   3.420   6.540 -0.3764 -1.2458  0.5025
  308MOL0     H40649   9.496   3.399   6.698  1.7440  4.0232  1.6663
  308MOL0     H40650   9.379   3.448   6.422 -0.7203  1.3140 -0.1788
  308MOL0     H40651   9.280   3.457   6.572  1.3439 -0.7634  1.5904
  308MOL0     H40652   9.362   3.216   6.608 -2.0242 -0.8609  0.3353
  308MOL0     H40653   9.237   3.228   6.485 -0.4161 -2.7603  3.7554
  308MOL0     H40654   9.478   3.065   6.220  0.9269  0.7494 -0.2280
  308MOL0     H40655   9.386   3.688   7.010  1.1223  1.1759 -1.0315
  308MOL0     H40656   9.509   3.654   7.202 -0.4463  0.1285 -0.1275
  309MOL0     O40657   4.313   3.457   4.713 -0.2427 -0.4691  0.2589
  309MOL0     C40658   4.381   3.546   4.673  0.3161  0.2327 -0.4870
  309MOL0     O40659   4.337   3.642   4.585 -0.0006 -0.0974 -0.5126
  309MOL0     C40660   4.209   3.645   4.536  0.1102 -0.1246 -1.3912
  309MOL0     C40661   4.192   3.597   4.399  0.5825 -0.0725 -0.2907
  309MOL0     C40662   4.060   3.598   4.348  0.7707 -1.1239  0.5904
  309MOL0     C40663   3.956   3.642   4.410  1.0669 -0.8033  0.2436
  309MOL0     O40664   3.839   3.647   4.333 -1.4390 -0.0313 -0.3439
  309MOL0     C40665   3.722   3.685   4.397  0.0004 -0.2501  0.1001
  309MOL0     C40666   3.614   3.681   4.295  0.3813 -0.4799 -0.7715
  309MOL0     C40667   3.620   3.795   4.192 -0.4584 -0.7831 -0.0709
  309MOL0     C40668   3.521   3.777   4.079 -0.8313 -0.8741 -0.2641
  309MOL0     C40669   3.516   3.888   3.979 -0.4208  1.3861  0.5128
  309MOL0     C40670   3.518   4.024   4.034  0.6973 -0.2944  0.5009
  309MOL0     C40671   3.392   4.078   4.096  1.2076  0.1210 -0.0890
  309MOL0     C40672   3.423   4.188   4.186  0.8105 -0.0598 -0.0266
  309MOL0     N40673   3.303   4.279   4.173 -0.1706 -0.2197 -0.3953
  309MOL0     C40674   3.252   4.354   4.070 -0.0705 -0.3833 -0.1456
  309MOL0     C40675   3.134   4.392   4.115 -0.0507  0.4718 -1.3169
  309MOL0     C40676   3.034   4.474   4.043  0.0605 -0.2636  0.0950
  309MOL0     C40677   3.000   4.411   3.907 -0.5133  0.2594  0.2125
  309MOL0     C40678   2.897   4.489   3.831  0.2269 -0.8400 -0.0068
  309MOL0     C40679   2.810   4.388   3.748 -0.5217  0.4423 -0.0679
  309MOL0     O40680   2.697   4.454   3.699 -0.1911 -0.8545 -0.5074
  309MOL0     C40681   2.574   4.390   3.704  0.6545 -0.5697  0.1165
  309MOL0     C40682   2.480   4.474   3.653 -0.1352  0.8546 -0.6818
  309MOL0     C40683   2.345   4.439   3.648 -0.1632 -0.2097 -1.0929
  309MOL0     C40684   2.302   4.313   3.710  0.7478 -0.2194 -0.8957
  309MOL0     C40685   2.165   4.251   3.708  0.4439  0.5192  0.5228
  309MOL0     O40686   2.143   4.121   3.727 -0.0334  0.4010 -0.3625
  309MOL0     C40687   2.025   4.058   3.697  0.0673 -0.0065 -0.2094
  309MOL0     C40688   1.994   3.932   3.760 -0.1065 -0.8214  0.0399
  309MOL0     C40689   1.907   3.843   3.698  1.3106  0.1269 -0.2751
  309MOL0     C40690   1.821   3.873   3.589 -0.4770 -0.4210 -0.3259
  309MOL0     O40691   1.731   3.797   3.528 -0.2360 -0.9213 -0.2926
  309MOL0     C40692   1.684   3.684   3.594 -1.2089  0.2420  0.0727
  309MOL0     C40693   1.540   3.651   3.547  0.4094  0.4441  0.0601
  309MOL0     C40694   1.443   3.762   3.609 -0.9081 -0.3198  0.9692
  309MOL0     C40695   1.296   3.722   3.585 -0.1478 -0.0141 -0.4323
  309MOL0     C40696   1.259   3.592   3.647 -0.2120  0.1619 -0.6236
  309MOL0     C40697   1.116   3.568   3.664  0.4452  0.7515 -0.6216
  309MOL0     C40698   1.093   3.432   3.721  0.1997  0.1694  0.3031
  309MOL0     C40699   0.949   3.407   3.742 -0.0331  0.2352 -0.1109
  309MOL0    Cl40700   0.915   3.307   3.889 -0.0532  0.7822 -0.0809
  309MOL0     C40701   1.836   4.007   3.545 -0.6663  1.1148  0.1798
  309MOL0     C40702   1.943   4.092   3.585 -0.1557 -0.0659 -0.3830
  309MOL0     O40703   2.079   4.333   3.679 -0.0168 -0.2015 -0.4269
  309MOL0     C40704   2.403   4.230   3.739  1.2142  0.5667 -0.3779
  309MOL0     C40705   2.542   4.261   3.736 -0.5936 -0.0656 -0.2545
  309MOL0     N40706   3.111   4.357   4.249 -1.4630 -0.5208 -0.5111
  309MOL0     N40707   3.224   4.287   4.280 -0.1242  0.1772  0.7286
  309MOL0     C40708   3.972   3.693   4.543  0.6288  0.2410  0.1539
  309MOL0     C40709   4.100   3.699   4.604  0.1375 -0.8052  1.0138
  309MOL0     C40710   4.527   3.540   4.706  0.5133  0.2276  0.2004
  309MOL0     C40711   4.564   3.495   4.829  0.3372 -0.0615 -0.2111
  309MOL0     C40712   4.696   3.481   4.865  0.3348 -0.8675 -0.5718
  309MOL0     C40713   4.801   3.520   4.776  0.2743 -0.3687 -0.0494
  309MOL0     O40714   4.932   3.515   4.813 -0.7519  0.0939  0.9836
  309MOL0     C40715   4.986   3.445   4.928  0.3137  0.1904  0.2349
  309MOL0     C40716   5.137   3.468   4.908 -0.0600 -0.0441 -0.4887
  309MOL0     C40717   5.174   3.593   4.977  1.1426  0.3605 -0.0051
  309MOL0     C40718   5.142   3.720   4.880 -0.0417  0.1226 -0.0465
  309MOL0     C40719   5.185   3.835   4.956  0.1440  0.0770 -0.3130
  309MOL0     C40720   5.213   3.930   5.025  0.4840  1.1025 -0.7847
  309MOL0     C40721   4.761   3.572   4.646 -0.2743  0.1478  0.1662
  309MOL0     C40722   4.626   3.587   4.612 -0.4396  0.3271 -0.0442
  309MOL0     H40723   4.278   3.566   4.341  2.1432  3.4292 -0.0861
  309MOL0     H40724   4.054   3.562   4.246  3.4280 -0.2307  0.0464
  309MOL0     H40725   3.726   3.791   4.426 -2.3799  0.5244 -1.9922
  309MOL0     H40726   3.695   3.623   4.482 -1.6289 -0.1608 -0.3281
  309MOL0     H40727   3.514   3.678   4.339 -0.3970  0.8296 -2.3574
  309MOL0     H40728   3.625   3.581   4.252  3.6003 -1.2404  1.4153
  309MOL0     H40729   3.717   3.794   4.141 -0.2295  1.3201  0.2145
  309MOL0     H40730   3.610   3.888   4.249 -1.4994 -0.5032 -0.6944
  309MOL0     H40731   3.548   3.687   4.023 -2.1990 -0.8067 -1.0801
  309MOL0     H40732   3.415   3.759   4.103 -1.3191  2.4280  0.4427
  309MOL0     H40733   3.426   3.881   3.917 -1.6377  0.3355  2.3118
  309MOL0     H40734   3.603   3.874   3.915  1.6127 -2.3230  3.6723
  309MOL0     H40735   3.534   4.096   3.953 -0.2789  1.6175  1.9336
  309MOL0     H40736   3.602   4.031   4.103  1.2506 -3.2456  0.2522
  309MOL0     H40737   3.319   4.107   4.020  1.3941 -0.5092 -0.5200
  309MOL0     H40738   3.330   3.998   4.137 -2.2457  1.3871 -2.4279
  309MOL0     H40739   3.519   4.232   4.160 -0.5071  2.6299 -0.7352
  309MOL0     H40740   3.424   4.154   4.290 -3.2566 -0.2832  0.1320
  309MOL0     H40741   3.292   4.373   3.971 -2.2756  0.5607 -0.9183
  309MOL0     H40742   3.077   4.574   4.031 -1.5385  0.4431  0.0848
  309MOL0     H40743   2.934   4.484   4.087 -1.9899 -1.4045 -3.8941
  309MOL0     H40744   2.953   4.317   3.936 -6.6675  3.2292  1.3714
  309MOL0     H40745   3.086   4.403   3.838  0.1543  2.9995  0.6118
  309MOL0     H40746   2.827   4.541   3.898  0.0995  1.5191 -1.8490
  309MOL0     H40747   2.948   4.556   3.762 -1.7805  0.3497 -0.4190
  309MOL0     H40748   2.773   4.317   3.822 -3.1307  1.9601  0.1888
  309MOL0     H40749   2.871   4.333   3.676 -2.0261 -0.0343 -1.0255
  309MOL0     H40750   2.502   4.574   3.616 -0.1057  0.3784 -1.9988
  309MOL0     H40751   2.262   4.499   3.613 -3.0039 -2.6888  0.9174
  309MOL0     H40752   2.039   3.908   3.856 -1.0390 -0.5250  0.5590
  309MOL0     H40753   1.904   3.747   3.748  0.6178 -0.4582 -1.3924
  309MOL0     H40754   1.694   3.708   3.700 -0.9568  4.9179 -0.8211
  309MOL0     H40755   1.749   3.603   3.559 -0.0703 -0.3227  3.1221
  309MOL0     H40756   1.522   3.546   3.571 -0.6194  0.1311 -1.9156
  309MOL0     H40757   1.531   3.657   3.439  1.0593  1.7815  0.0665
  309MOL0     H40758   1.457   3.855   3.554 -0.4503 -2.2184 -2.4460
  309MOL0     H40759   1.455   3.775   3.717 -1.8927 -2.7290  1.4380
  309MOL0     H40760   1.234   3.800   3.630  0.4085  1.4436 -2.0852
  309MOL0     H40761   1.259   3.702   3.484 -0.6720  1.9481 -0.6780
  309MOL0     H40762   1.297   3.591   3.749 -0.9759  0.8785 -0.3149
  309MOL0     H40763   1.303   3.511   3.589  3.1833 -0.9082  2.9756
  309MOL0     H40764   1.074   3.563   3.563  2.4891  1.3667 -1.5357
  309MOL0     H40765   1.069   3.649   3.721 -1.0995  0.4607 -1.4122
  309MOL0     H40766   1.126   3.356   3.649  1.6241  0.5337  0.5442
  309MOL0     H40767   1.150   3.410   3.812  0.1887  2.6596  0.9672
  309MOL0     H40768   0.886   3.380   3.657  0.4157 -0.5853 -0.1867
  309MOL0     H40769   0.907   3.504   3.772  1.9533  0.9569  0.5385
  309MOL0     H40770   1.777   4.048   3.464  3.8095  3.0829 -2.4651
  309MOL0     H40771   1.963   4.172   3.514  0.1996 -2.2633 -2.9097
  309MOL0     H40772   2.386   4.127   3.770  0.0219  1.1777  1.1005
  309MOL0     H40773   2.621   4.189   3.753 -1.9131 -1.0925  2.0607
  309MOL0     H40774   3.890   3.741   4.596 -0.2022 -0.6883 -0.2499
  309MOL0     H40775   4.112   3.740   4.704 -1.9757 -1.4754  1.5975
  309MOL0     H40776   4.484   3.461   4.893  0.0806  1.2859  0.2111
  309MOL0     H40777   4.724   3.440   4.962  3.5380 -0.2049 -1.1162
  309MOL0     H40778   4.955   3.340   4.935 -0.1758 -0.0022 -3.1701
  309MOL0     H40779   4.956   3.490   5.023 -0.9800 -0.5723  0.2136
  309MOL0     H40780   5.201   3.394   4.957 -2.2339 -1.4780  0.3142
  309MOL0     H40781   5.163   3.469   4.801  0.3853 -0.2820 -0.3824
  309MOL0     H40782   5.280   3.581   5.003  1.5979 -1.1002 -2.1989
  309MOL0     H40783   5.116   3.608   5.068 -1.7453 -3.9958 -0.8281
  309MOL0     H40784   5.197   3.703   4.787  0.6993  1.4969  0.0996
  309MOL0     H40785   5.036   3.724   4.854  0.3656 -0.5471 -1.9451
  309MOL0     H40786   5.236   4.019   5.080  2.6699  0.2910 -0.2812
  309MOL0     H40787   4.822   3.604   4.562  0.0801 -1.7043 -0.3199
  309MOL0     H40788   4.595   3.624   4.516 -2.6849 -0.0337  0.4980
  310MOL0     O40789   1.825   9.760   8.712  0.7054  0.0144  0.5836
  310MOL0     C40790   1.731   9.698   8.649 -0.0529 -0.7142 -0.2063
  310MOL0     O40791   1.716   9.688   8.510 -0.0425 -0.4633  0.9091
  310MOL0     C40792   1.815   9.746   8.429  1.0910 -0.5233 -0.6637
  310MOL0     C40793   1.773   9.785   8.305  0.0607 -0.5063 -0.3590
  310MOL0     C40794   1.864   9.821   8.205  0.0374 -0.0156  0.2985
  310MOL0     C40795   2.001   9.812   8.219 -0.1251  0.3580 -0.5833
  310MOL0     O40796   2.083   9.871   8.132 -0.7840  0.2558  0.1654
  310MOL0     C40797   2.223   9.830   8.118  0.0073  0.1437  0.1430
  310MOL0     C40798   2.238   9.680   8.095 -0.9482 -0.6120 -0.4712
  310MOL0     C40799   2.370   9.630   8.164  1.4177 -0.5546  0.2865
  310MOL0     C40800   2.502   9.658   8.096 -0.6656  0.0415 -0.0698
  310MOL0     C40801   2.620   9.617   8.184 -0.2952 -0.5064 -0.1586
  310MOL0     C40802   2.622   9.463   8.188  0.1068 -1.8080  0.4486
  310MOL0     C40803   2.731   9.429   8.292 -0.2582 -0.3021  0.1233
  310MOL0     C40804   2.796   9.306   8.258  0.1842  0.1926 -0.2716
  310MOL0     N40805   2.710   9.193   8.270 -0.0314  0.2464  0.3479
  310MOL0     C40806   2.687   9.122   8.388  0.0586 -0.3068 -0.3015
  310MOL0     C40807   2.560   9.064   8.375  0.3872 -0.4787  0.3750
  310MOL0     C40808   2.485   9.000   8.490  0.4644  0.5036 -0.6930
  310MOL0     C40809   2.437   8.870   8.439  0.1264  0.1280 -0.6761
  310MOL0     C40810   2.550   8.783   8.384  0.8284 -0.4250  0.2663
  310MOL0     C40811   2.490   8.638   8.361 -0.3112  0.0297 -0.2652
  310MOL0     O40812   2.427   8.622   8.233  0.0827 -0.2402  0.0567
  310MOL0     C40813   2.347   8.516   8.200  0.3899  0.2561  0.2588
  310MOL0     C40814   2.319   8.408   8.286 -0.2533  0.7537  1.3875
  310MOL0     C40815   2.236   8.299   8.260  0.1443  0.1974 -0.2460
  310MOL0     C40816   2.177   8.297   8.132  1.0238  0.0432 -0.0509
  310MOL0     C40817   2.087   8.192   8.085  0.3483  0.3270 -0.5097
  310MOL0     O40818   2.037   8.189   7.962 -0.1285 -0.5189 -0.7603
  310MOL0     C40819   1.910   8.229   7.940  0.3865  0.9351 -0.7346
  310MOL0     C40820   1.864   8.236   7.808  0.2474  0.4200  0.5529
  310MOL0     C40821   1.733   8.272   7.773 -0.7649  0.6356 -0.3831
  310MOL0     C40822   1.635   8.272   7.867  0.6865  0.3428  0.4646
  310MOL0     O40823   1.502   8.298   7.828  0.2353 -0.0471  0.4613
  310MOL0     C40824   1.393   8.267   7.914  0.0265 -0.1727  0.8754
  310MOL0     C40825   1.361   8.392   7.997 -0.5838  0.8596 -0.2107
  310MOL0     C40826   1.332   8.507   7.901  0.1439 -0.4924  0.1600
  310MOL0     C40827   1.263   8.612   7.981  0.6256 -0.1110  0.1076
  310MOL0     C40828   1.217   8.729   7.891  0.6012 -0.9856 -0.1188
  310MOL0     C40829   1.139   8.832   7.982 -0.0132  1.4175  0.2652
  310MOL0     C40830   1.104   8.956   7.897  0.2979  0.8109  0.0678
  310MOL0     C40831   1.022   9.059   7.968  0.4386 -0.3645  0.7668
  310MOL0    Cl40832   0.862   8.997   8.020  0.2249  0.0164 -0.2058
  310MOL0     C40833   1.679   8.262   8.002  0.4093 -0.8238  0.3679
  310MOL0     C40834   1.812   8.242   8.043 -0.0549  0.9374  0.3139
  310MOL0     O40835   2.060   8.103   8.163  0.2513  0.3967 -0.1834
  310MOL0     C40836   2.206   8.402   8.041  0.1138 -0.5442  0.2515
  310MOL0     C40837   2.287   8.507   8.073 -0.1449  0.1356  0.0413
  310MOL0     N40838   2.504   9.097   8.259  0.1767 -0.3694  0.7454
  310MOL0     N40839   2.593   9.173   8.196  0.2980  0.4566 -0.0621
  310MOL0     C40840   2.046   9.758   8.342  0.9854 -0.2704 -0.3669
  310MOL0     C40841   1.955   9.727   8.448 -0.2704 -0.0014 -0.8026
  310MOL0     C40842   1.614   9.651   8.718 -0.6609 -0.6504 -0.2823
  310MOL0     C40843   1.505   9.591   8.650 -0.1796  0.7100 -0.4732
  310MOL0     C40844   1.393   9.554   8.731  0.3027 -0.0188 -0.6857
  310MOL0     C40845   1.383   9.574   8.866  0.6041 -0.0024 -0.0840
  310MOL0     O40846   1.263   9.544   8.920  0.6748 -0.1753 -0.5380
  310MOL0     C40847   1.279   9.469   9.038 -0.1550 -0.2724  0.1760
  310MOL0     C40848   1.187   9.344   9.036  0.0245 -0.1556 -0.5910
  310MOL0     C40849   1.067   9.364   9.123  0.9268  0.0927  0.1361
  310MOL0     C40850   0.994   9.238   9.133  0.3694  0.3250  0.7031
  310MOL0     C40851   0.873   9.252   9.201 -0.2481 -0.7512 -0.9630
  310MOL0     C40852   0.766   9.260   9.259 -0.4156 -0.2182  0.4071
  310MOL0     C40853   1.495   9.631   8.928 -0.2836 -0.1741 -0.4086
  310MOL0     C40854   1.616   9.674   8.857  0.4663 -0.0592  0.0554
  310MOL0     H40855   1.670   9.806   8.277  0.7351  3.5157 -0.3916
  310MOL0     H40856   1.826   9.862   8.112  2.0742  1.4168  0.0238
  310MOL0     H40857   2.282   9.855   8.206  0.3024  2.6066 -0.6654
  310MOL0     H40858   2.264   9.878   8.028  2.7695 -2.0457  0.0826
  310MOL0     H40859   2.245   9.663   7.987  0.1692 -0.7123 -0.3936
  310MOL0     H40860   2.152   9.623   8.132 -1.6573  2.5317  3.4331
  310MOL0     H40861   2.356   9.524   8.186 -0.9219 -0.3855 -0.0891
  310MOL0     H40862   2.379   9.680   8.261  0.3865  0.5777 -0.1642
  310MOL0     H40863   2.493   9.609   7.998  3.8459 -0.9022 -0.2471
  310MOL0     H40864   2.522   9.759   8.059  0.6229 -0.7431 -1.6666
  310MOL0     H40865   2.617   9.666   8.282 -0.8076  0.3647 -0.5907
  310MOL0     H40866   2.712   9.650   8.135 -0.9467 -0.5423 -1.4589
  310MOL0     H40867   2.637   9.437   8.083 -0.6922  1.7143 -0.7026
  310MOL0     H40868   2.523   9.425   8.216 -1.9892  0.2052 -3.3682
  310MOL0     H40869   2.816   9.498   8.294 -1.1992  1.3127 -4.0619
  310MOL0     H40870   2.691   9.419   8.393  3.3387  0.4599  1.7591
  310MOL0     H40871   2.880   9.282   8.324  0.7200 -1.2460 -1.4169
  310MOL0     H40872   2.835   9.310   8.156  1.6850  1.6723  0.3063
  310MOL0     H40873   2.756   9.112   8.471  1.1433 -2.5594 -1.4051
  310MOL0     H40874   2.396   9.053   8.527 -0.1678 -1.2091  0.3601
  310MOL0     H40875   2.549   8.993   8.579  1.1930 -2.4021 -1.3479
  310MOL0     H40876   2.359   8.871   8.362 -0.3835 -3.5845 -0.3668
  310MOL0     H40877   2.390   8.821   8.524 -0.1531 -0.2050 -1.0181
  310MOL0     H40878   2.590   8.826   8.292  0.7525 -1.8589 -0.4797
  310MOL0     H40879   2.630   8.787   8.458 -1.7893  0.2213  3.3087
  310MOL0     H40880   2.417   8.618   8.440 -2.8148  0.4127 -2.3254
  310MOL0     H40881   2.559   8.555   8.374 -3.8674 -3.5198 -2.0240
  310MOL0     H40882   2.361   8.423   8.385  1.3559  3.1507  0.4351
  310MOL0     H40883   2.203   8.238   8.344  0.6569 -1.0704 -0.9469
  310MOL0     H40884   1.940   8.222   7.732 -1.6055 -0.0620 -1.3070
  310MOL0     H40885   1.709   8.287   7.669 -3.1131  0.5444  0.0964
  310MOL0     H40886   1.410   8.184   7.984 -2.2333 -2.2203 -0.8533
  310MOL0     H40887   1.304   8.247   7.854  1.5464 -1.3030 -1.1502
  310MOL0     H40888   1.446   8.421   8.059 -0.9476 -1.4908  1.5199
  310MOL0     H40889   1.271   8.379   8.058  1.8110  2.0426  3.9562
  310MOL0     H40890   1.257   8.463   7.834 -1.7956 -3.1309  3.7348
  310MOL0     H40891   1.424   8.530   7.846  0.0804 -1.6967 -0.4930
  310MOL0     H40892   1.179   8.573   8.038  0.3991  0.7191  0.3612
  310MOL0     H40893   1.330   8.652   8.057  2.1354 -2.1020 -0.0966
  310MOL0     H40894   1.142   8.696   7.818 -1.7695  0.7307  1.4111
  310MOL0     H40895   1.283   8.796   7.837 -1.4672  3.3834  2.2911
  310MOL0     H40896   1.199   8.860   8.069  0.3993 -1.6483  1.0927
  310MOL0     H40897   1.049   8.779   8.016  0.0062  1.5659  0.5475
  310MOL0     H40898   1.201   8.991   7.860  2.0422 -2.4648  1.1331
  310MOL0     H40899   1.046   8.922   7.811 -0.4079  2.1270 -0.0057
  310MOL0     H40900   1.023   9.147   7.904  3.3661 -0.2326  0.8498
  310MOL0     H40901   1.074   9.096   8.057 -0.8381  1.3115  0.8637
  310MOL0     H40902   1.607   8.273   8.083  2.7372 -0.3291  2.5060
  310MOL0     H40903   1.824   8.231   8.150 -1.0356  2.5715  0.6401
  310MOL0     H40904   2.164   8.408   7.941  0.0914  0.1982  0.3021
  310MOL0     H40905   2.311   8.589   8.005  1.1819 -0.7839 -0.6416
  310MOL0     H40906   2.153   9.745   8.356  0.6088 -2.5608  0.9633
  310MOL0     H40907   1.983   9.681   8.542 -4.5572  2.8571  2.2295
  310MOL0     H40908   1.492   9.567   8.545  2.5266  4.5632 -1.9205
  310MOL0     H40909   1.304   9.522   8.678 -0.0095  2.6897 -1.9492
  310MOL0     H40910   1.276   9.534   9.126  0.9002 -1.5586  1.1980
  310MOL0     H40911   1.380   9.426   9.044  0.5540  1.3498  0.6383
  310MOL0     H40912   1.150   9.328   8.934 -3.5856  1.0511  0.3574
  310MOL0     H40913   1.237   9.251   9.065  0.3510 -0.8284 -3.1349
  310MOL0     H40914   0.994   9.434   9.081 -0.8179 -0.5493  1.9433
  310MOL0     H40915   1.103   9.394   9.221  1.0925 -2.0015  0.7577
  310MOL0     H40916   0.970   9.195   9.035 -1.2507  0.8402  0.8602
  310MOL0     H40917   1.072   9.177   9.181  0.8845 -0.9026 -1.5291
  310MOL0     H40918   0.674   9.271   9.313 -0.1885 -0.0562  0.7704
  310MOL0     H40919   1.483   9.653   9.033  1.8011 -1.7435  0.2384
  310MOL0     H40920   1.693   9.731   8.908  2.4397 -2.8990  0.5004
  311MOL0     O40921   5.306   1.128   1.195 -0.0654 -0.0744 -0.2251
  311MOL0     C40922   5.266   1.185   1.303 -0.0497  0.1261  0.2105
  311MOL0     O40923   5.343   1.254   1.389  0.0377 -0.2406  0.5532
  311MOL0     C40924   5.472   1.268   1.371 -0.4585 -0.1049  0.2088
  311MOL0     C40925   5.568   1.170   1.351 -0.0685  0.2217  0.3189
  311MOL0     C40926   5.704   1.200   1.336  0.4599 -0.0754  0.9905
  311MOL0     C40927   5.739   1.340   1.351  0.4147  1.2258 -0.7432
  311MOL0     O40928   5.868   1.383   1.360 -0.0291 -0.1864  0.1233
  311MOL0     C40929   5.984   1.306   1.321  0.3638  0.3230  0.2140
  311MOL0     C40930   6.115   1.378   1.357 -0.2242  0.3056  0.2345
  311MOL0     C40931   6.232   1.287   1.315  0.1500  0.4007 -0.3014
  311MOL0     C40932   6.373   1.355   1.320  0.0334 -0.6446 -0.7985
  311MOL0     C40933   6.481   1.253   1.296 -0.8020 -0.8236 -0.9450
  311MOL0     C40934   6.628   1.305   1.335  0.5708 -0.6504 -0.5260
  311MOL0     C40935   6.725   1.212   1.413  0.2667  0.2565 -0.1356
  311MOL0     C40936   6.870   1.268   1.426  0.6555  0.6919  0.2843
  311MOL0     N40937   6.951   1.188   1.513 -0.1589  0.6291  0.4051
  311MOL0     C40938   6.933   1.191   1.644  0.0058  0.6435 -0.7803
  311MOL0     C40939   7.030   1.098   1.692  0.2399  0.3430  1.0246
  311MOL0     C40940   7.055   1.051   1.836 -0.6962  0.0281  0.0744
  311MOL0     C40941   6.975   0.912   1.840 -0.3754  0.1902 -0.4907
  311MOL0     C40942   6.825   0.930   1.805  0.1068 -0.6642 -0.2429
  311MOL0     C40943   6.732   0.813   1.827  0.2787 -0.1556 -0.0684
  311MOL0     O40944   6.601   0.824   1.758  0.6446  0.0898 -0.2790
  311MOL0     C40945   6.531   0.935   1.785 -0.7569  0.7332  0.8920
  311MOL0     C40946   6.476   1.007   1.685 -0.0864  0.0637 -0.8231
  311MOL0     C40947   6.410   1.123   1.696  0.0740  0.3057 -0.0711
  311MOL0     C40948   6.378   1.169   1.823  0.8337 -0.6107  0.7079
  311MOL0     C40949   6.285   1.280   1.837  0.4113  0.2418  0.2059
  311MOL0     O40950   6.242   1.317   1.965 -0.0786 -0.0028  0.4057
  311MOL0     C40951   6.155   1.422   1.984  0.3286  0.1399  0.9090
  311MOL0     C40952   6.181   1.543   1.929  0.2436  0.3949 -0.3608
  311MOL0     C40953   6.085   1.647   1.936 -0.5397  0.3236  0.5233
  311MOL0     C40954   5.971   1.642   2.017 -0.4528  0.1530 -0.4074
  311MOL0     O40955   5.886   1.756   2.023  0.1529  0.2670 -0.5011
  311MOL0     C40956   5.837   1.792   2.153  0.4266  1.0984  0.8595
  311MOL0     C40957   5.756   1.912   2.146 -0.2702  0.4914 -0.4888
  311MOL0     C40958   5.696   1.948   2.283  0.2166  0.8355 -0.2957
  311MOL0     C40959   5.625   2.083   2.289 -0.4553 -0.8976 -0.1697
  311MOL0     C40960   5.541   2.121   2.410  0.8421 -0.9213 -0.0529
  311MOL0     C40961   5.624   2.116   2.542 -0.9348  0.7539 -0.0996
  311MOL0     C40962   5.538   2.129   2.677 -0.3338  1.0481  0.0413
  311MOL0     C40963   5.629   2.110   2.800 -0.5583 -0.4462 -0.8657
  311MOL0    Cl40964   5.537   2.164   2.941  0.0193 -0.3300  0.3844
  311MOL0     C40965   5.945   1.517   2.069 -0.3246  0.7466  0.8283
  311MOL0     C40966   6.034   1.409   2.053 -0.2964  0.3982  0.8850
  311MOL0     O40967   6.240   1.327   1.731  0.6150 -0.6014 -1.1275
  311MOL0     C40968   6.439   1.106   1.932  0.0635 -0.1343 -0.6124
  311MOL0     C40969   6.511   0.986   1.911  0.0302  0.1227 -0.5219
  311MOL0     N40970   7.108   1.054   1.584  0.9568  0.8286  0.1708
  311MOL0     N40971   7.052   1.098   1.477 -0.6385 -0.6336 -0.2434
  311MOL0     C40972   5.644   1.435   1.368  0.1112  0.5562 -0.4231
  311MOL0     C40973   5.507   1.399   1.379 -0.4364 -0.2011 -0.3821
  311MOL0     C40974   5.119   1.180   1.330  0.0740  0.0855 -0.7176
  311MOL0     C40975   5.070   1.243   1.441  0.5693 -0.4371  0.1492
  311MOL0     C40976   4.932   1.270   1.450 -0.3827 -0.3089  0.2573
  311MOL0     C40977   4.839   1.217   1.357 -0.9295 -0.5514 -0.2017
  311MOL0     O40978   4.711   1.248   1.382  0.2705 -0.4417 -0.2234
  311MOL0     C40979   4.629   1.239   1.268  0.5765  0.1041 -0.3231
  311MOL0     C40980   4.499   1.302   1.296  0.0830  0.1692  0.7293
  311MOL0     C40981   4.517   1.457   1.301  0.0827 -0.1951  0.7104
  311MOL0     C40982   4.370   1.517   1.321 -0.4551 -1.1541  0.7335
  311MOL0     C40983   4.379   1.659   1.330  0.8274  0.3486 -0.8025
  311MOL0     C40984   4.373   1.784   1.337 -0.2694  0.5540 -0.5368
  311MOL0     C40985   4.895   1.138   1.253  0.7443 -0.0958 -0.3052
  311MOL0     C40986   5.031   1.121   1.240 -0.0020 -0.3750  0.2577
  311MOL0     H40987   5.538   1.067   1.366  1.0063 -0.3178 -0.9590
  311MOL0     H40988   5.777   1.121   1.330 -1.9622 -2.3638 -1.7473
  311MOL0     H40989   5.982   1.291   1.212  0.6260  3.5151 -0.3200
  311MOL0     H40990   5.982   1.207   1.367  1.3504  0.2471  0.1174
  311MOL0     H40991   6.120   1.381   1.466 -2.8440 -0.9606  0.4756
  311MOL0     H40992   6.134   1.478   1.317  2.0317 -0.7296 -1.5375
  311MOL0     H40993   6.211   1.238   1.220 -4.2550 -0.8632  1.1054
  311MOL0     H40994   6.213   1.209   1.390  0.6683  1.9455  1.5247
  311MOL0     H40995   6.367   1.436   1.247 -1.7651 -0.3680 -0.3885
  311MOL0     H40996   6.395   1.382   1.423 -0.1871 -4.0289  0.2668
  311MOL0     H40997   6.467   1.223   1.191  0.9915 -1.6868 -0.9790
  311MOL0     H40998   6.459   1.167   1.360  2.0903 -0.1935  1.0552
  311MOL0     H40999   6.616   1.395   1.397 -2.3994  0.8475 -2.9918
  311MOL0     H41000   6.679   1.353   1.251  0.0891  1.5459  0.3427
  311MOL0     H41001   6.688   1.189   1.513  0.8292  1.4342  0.3676
  311MOL0     H41002   6.725   1.113   1.366 -2.0488  0.1327  0.0262
  311MOL0     H41003   6.847   1.367   1.468 -0.9729  1.4308 -2.1255
  311MOL0     H41004   6.908   1.280   1.325 -1.3332 -0.2020 -0.6256
  311MOL0     H41005   6.851   1.230   1.703  2.2166  3.4397  0.7003
  311MOL0     H41006   7.026   1.127   1.908  2.1241  3.7208 -2.3325
  311MOL0     H41007   7.161   1.028   1.853 -1.3314 -2.6082  1.0663
  311MOL0     H41008   6.984   0.881   1.944  0.1855 -0.6272 -0.7747
  311MOL0     H41009   7.025   0.838   1.776 -0.5754  0.0927 -0.5333
  311MOL0     H41010   6.792   1.015   1.866  0.4764 -2.7092  3.0570
  311MOL0     H41011   6.812   0.960   1.701  4.1363 -0.4801 -0.8634
  311MOL0     H41012   6.723   0.795   1.934 -0.0703  0.5499  0.0298
  311MOL0     H41013   6.784   0.727   1.783 -0.4997 -2.1322  2.6223
  311MOL0     H41014   6.484   0.958   1.589 -1.6895 -1.1970 -0.3637
  311MOL0     H41015   6.399   1.185   1.608 -0.6369 -1.2528 -1.1083
  311MOL0     H41016   6.267   1.555   1.864  0.8581 -1.5031  0.0408
  311MOL0     H41017   6.108   1.742   1.889  1.9665 -0.7660 -0.6714
  311MOL0     H41018   5.921   1.817   2.219  0.7585 -0.4032  1.0534
  311MOL0     H41019   5.780   1.707   2.193  3.2045 -1.0945  0.4914
  311MOL0     H41020   5.668   1.892   2.083 -2.8205  0.9571  2.6413
  311MOL0     H41021   5.813   1.998   2.111 -1.8430  1.8930  0.2306
  311MOL0     H41022   5.778   1.953   2.355 -0.3100  1.1423  0.2889
  311MOL0     H41023   5.616   1.882   2.317  0.3422 -0.1224 -1.7918
  311MOL0     H41024   5.705   2.156   2.275  1.5210 -2.9120 -0.0109
  311MOL0     H41025   5.565   2.093   2.199  3.0272  0.7057 -2.5300
  311MOL0     H41026   5.453   2.056   2.411  0.8990 -1.0400  2.1647
  311MOL0     H41027   5.523   2.229   2.400  4.7091 -0.3335 -4.3330
  311MOL0     H41028   5.700   2.194   2.540  1.2447 -1.1748  1.7035
  311MOL0     H41029   5.673   2.018   2.548  1.9935  2.2011  2.0389
  311MOL0     H41030   5.523   2.238   2.683  1.5909  1.3167  1.0723
  311MOL0     H41031   5.450   2.065   2.684  0.8627 -0.8161 -1.3096
  311MOL0     H41032   5.716   2.176   2.794 -0.5365 -0.3926 -0.0584
  311MOL0     H41033   5.666   2.009   2.816  1.1552  0.3471  0.5916
  311MOL0     H41034   5.846   1.502   2.110  0.2709 -0.2418  1.9820
  311MOL0     H41035   6.005   1.310   2.088 -3.1548  1.3013  1.3543
  311MOL0     H41036   6.429   1.135   2.036  2.7905 -3.1206  0.6737
  311MOL0     H41037   6.555   0.946   2.002 -0.5592  0.7185  0.0381
  311MOL0     H41038   5.671   1.539   1.386  1.0781  0.5543 -1.7919
  311MOL0     H41039   5.437   1.481   1.392 -1.7761 -0.9824 -2.1993
  311MOL0     H41040   5.139   1.280   1.516 -1.4503  2.6699  0.6537
  311MOL0     H41041   4.896   1.345   1.520  2.2025  0.3353  0.9994
  311MOL0     H41042   4.606   1.136   1.242 -2.3941  0.9194 -1.3384
  311MOL0     H41043   4.682   1.281   1.182  2.5216  1.6222  1.5105
  311MOL0     H41044   4.433   1.266   1.217 -1.2031 -1.4161  2.4355
  311MOL0     H41045   4.455   1.270   1.391  2.6390 -1.7192  1.3579
  311MOL0     H41046   4.560   1.498   1.210  0.3386 -0.4357  0.7221
  311MOL0     H41047   4.587   1.482   1.381  3.7213 -2.7114 -1.4223
  311MOL0     H41048   4.316   1.488   1.230 -0.5644 -0.3586  0.5397
  311MOL0     H41049   4.314   1.478   1.406  1.1997 -1.4114  1.7593
  311MOL0     H41050   4.351   1.888   1.353 -1.7316 -0.1410  2.8912
  311MOL0     H41051   4.823   1.094   1.184 -1.0703  1.9163  0.1868
  311MOL0     H41052   5.069   1.062   1.157 -0.8006 -0.2149 -0.2295
  312MOL0     O41053   4.599   1.560   2.157  0.5255 -0.5922 -0.6551
  312MOL0     C41054   4.656   1.503   2.252 -0.0272  0.0719 -0.2506
  312MOL0     O41055   4.594   1.457   2.363 -0.1901 -0.1694 -0.0072
  312MOL0     C41056   4.463   1.436   2.378 -0.3189 -0.6965 -0.1065
  312MOL0     C41057   4.356   1.441   2.285 -1.4694  1.0343  0.1305
  312MOL0     C41058   4.229   1.408   2.322  0.0886 -0.0853 -0.2441
  312MOL0     C41059   4.198   1.395   2.462  0.4116  0.4708  0.2988
  312MOL0     O41060   4.066   1.374   2.490  0.4802  0.3230 -0.3883
  312MOL0     C41061   4.034   1.311   2.629  0.1636 -0.5074  0.8535
  312MOL0     C41062   3.890   1.258   2.617  0.4590  0.1803 -0.3124
  312MOL0     C41063   3.789   1.367   2.584 -0.3535 -0.2436  0.6096
  312MOL0     C41064   3.650   1.303   2.585  0.2866 -0.1619 -0.0858
  312MOL0     C41065   3.542   1.409   2.623  0.5379  0.4231  0.6419
  312MOL0     C41066   3.405   1.372   2.563 -1.0316  0.0321 -0.3300
  312MOL0     C41067   3.288   1.466   2.594  1.2536  0.0418 -0.5685
  312MOL0     C41068   3.265   1.479   2.748 -0.8673 -0.0502  1.5279
  312MOL0     N41069   3.158   1.566   2.789  0.0171 -0.4473  0.1526
  312MOL0     C41070   3.117   1.677   2.727  0.0639 -0.0413  0.2780
  312MOL0     C41071   3.003   1.717   2.785 -0.4487 -0.4970 -0.7260
  312MOL0     C41072   2.917   1.832   2.741 -0.2681  0.1348  0.1221
  312MOL0     C41073   2.815   1.861   2.845  0.3752 -1.4288  0.2932
  312MOL0     C41074   2.739   2.001   2.827  0.8564  0.4409 -0.9049
  312MOL0     C41075   2.630   2.005   2.715 -0.5189 -0.8906 -0.2233
  312MOL0     O41076   2.531   1.899   2.721  0.5145 -0.0006 -0.7082
  312MOL0     C41077   2.409   1.915   2.671  0.2771 -0.0096 -1.1146
  312MOL0     C41078   2.323   2.017   2.700 -0.4157 -0.1139  0.3766
  312MOL0     C41079   2.181   2.021   2.659  1.0304 -0.3906 -0.7818
  312MOL0     C41080   2.126   1.915   2.591  0.1047  0.1393 -0.1723
  312MOL0     C41081   1.982   1.930   2.542 -0.7274  0.1283 -0.3850
  312MOL0     O41082   1.912   1.818   2.516 -1.3376  1.0993  0.1646
  312MOL0     C41083   1.783   1.797   2.526  0.4079 -0.4181 -0.9057
  312MOL0     C41084   1.687   1.882   2.590  0.1641 -0.2682  0.4502
  312MOL0     C41085   1.558   1.837   2.603  0.8297 -0.3289  0.2104
  312MOL0     C41086   1.514   1.715   2.551  0.5089  0.6378 -0.2185
  312MOL0     O41087   1.385   1.664   2.564  0.0473  0.1607  0.3720
  312MOL0     C41088   1.295   1.745   2.651 -0.3494  0.6240  0.2301
  312MOL0     C41089   1.159   1.684   2.672  1.0705  0.7801 -0.2821
  312MOL0     C41090   1.055   1.695   2.557  0.1551  0.8177  0.1242
  312MOL0     C41091   1.015   1.840   2.516 -0.1826  0.4406 -1.0114
  312MOL0     C41092   0.881   1.851   2.438 -0.6835 -0.1369  0.9481
  312MOL0     C41093   0.867   1.999   2.376  0.2509  0.6870  0.5456
  312MOL0     C41094   0.740   2.033   2.287 -1.2190 -0.0849 -0.6044
  312MOL0     C41095   0.624   1.948   2.325 -0.2526 -0.1530 -0.6402
  312MOL0    Cl41096   0.505   1.966   2.209  0.0765  0.2933 -0.4484
  312MOL0     C41097   1.604   1.632   2.485 -0.0389 -0.6509  1.1409
  312MOL0     C41098   1.738   1.678   2.467 -0.3283 -0.1034 -1.0598
  312MOL0     O41099   1.940   2.046   2.536  0.9835  0.7405  0.0338
  312MOL0     C41100   2.212   1.814   2.556  0.3590  0.3147  0.3670
  312MOL0     C41101   2.341   1.811   2.600 -0.6326 -0.1588 -0.4481
  312MOL0     N41102   2.975   1.624   2.891 -0.1372  0.3834  0.4658
  312MOL0     N41103   3.071   1.535   2.886 -0.2843  0.9385 -0.1874
  312MOL0     C41104   4.302   1.410   2.551 -0.8441  0.8736 -0.6674
  312MOL0     C41105   4.430   1.426   2.512  0.9542 -0.5545  0.0801
  312MOL0     C41106   4.797   1.492   2.255  0.4655  1.0284  0.7306
  312MOL0     C41107   4.877   1.569   2.171  0.9395 -0.2038 -0.2809
  312MOL0     C41108   5.015   1.563   2.176 -0.5418  0.1614 -0.2995
  312MOL0     C41109   5.083   1.479   2.263  0.1832  1.2966  0.8504
  312MOL0     O41110   5.214   1.468   2.283 -0.0200 -0.4472  0.8081
  312MOL0     C41111   5.315   1.548   2.201  0.1515  0.5804 -0.9618
  312MOL0     C41112   5.381   1.452   2.098  0.3139 -0.0325 -0.3141
  312MOL0     C41113   5.474   1.345   2.170  0.6240  0.3705  0.2143
  312MOL0     C41114   5.576   1.270   2.074 -0.2426 -0.9099 -0.5884
  312MOL0     C41115   5.518   1.153   2.002 -0.7579  0.3480 -0.2097
  312MOL0     C41116   5.471   1.052   1.955 -0.5018 -0.2545 -0.0478
  312MOL0     C41117   4.998   1.399   2.350 -0.0630  0.7545 -0.1379
  312MOL0     C41118   4.863   1.408   2.338 -0.3612 -0.7379  0.0536
  312MOL0     H41119   4.378   1.481   2.187  0.8090  1.6957  0.8634
  312MOL0     H41120   4.152   1.403   2.245  0.6529  1.1265 -0.9044
  312MOL0     H41121   4.033   1.390   2.705  1.4565  0.5590 -0.1993
  312MOL0     H41122   4.096   1.226   2.658  1.0218 -1.6637 -3.6362
  312MOL0     H41123   3.860   1.207   2.710  1.5495  1.2500  0.6604
  312MOL0     H41124   3.873   1.189   2.534 -1.5233 -1.2705  1.2094
  312MOL0     H41125   3.809   1.408   2.485  2.8859  0.5362  1.4800
  312MOL0     H41126   3.799   1.450   2.655  0.0380 -1.2145  1.7244
  312MOL0     H41127   3.630   1.263   2.485 -1.8538 -1.5187  0.8189
  312MOL0     H41128   3.640   1.215   2.648 -0.2047 -0.4871 -0.6098
  312MOL0     H41129   3.579   1.505   2.585  1.9725  0.0921  1.1418
  312MOL0     H41130   3.531   1.408   2.732  0.2811  1.6012  0.6457
  312MOL0     H41131   3.371   1.281   2.615 -1.5382  1.0369  1.1803
  312MOL0     H41132   3.423   1.363   2.456  2.0480 -0.8466  0.1667
  312MOL0     H41133   3.306   1.561   2.544  1.1446 -0.3933 -1.4440
  312MOL0     H41134   3.194   1.423   2.559  0.8664  0.4079 -0.0061
  312MOL0     H41135   3.360   1.519   2.785  1.3328 -2.2935 -1.2772
  312MOL0     H41136   3.257   1.377   2.785 -1.1176 -1.1326 -1.3087
  312MOL0     H41137   3.150   1.737   2.643 -1.2019 -2.7876 -2.3739
  312MOL0     H41138   2.857   1.813   2.651 -1.6412 -2.1291  1.4435
  312MOL0     H41139   2.970   1.927   2.723 -2.1416  1.3450  0.7179
  312MOL0     H41140   2.872   1.878   2.937  1.8611  1.9919 -1.0889
  312MOL0     H41141   2.749   1.775   2.859 -1.0076 -0.7577 -1.6881
  312MOL0     H41142   2.685   2.003   2.922 -1.5262 -0.2996 -2.1661
  312MOL0     H41143   2.803   2.089   2.825 -1.1316  1.9610 -0.7233
  312MOL0     H41144   2.678   2.017   2.618  2.5073  0.9362  1.3567
  312MOL0     H41145   2.576   2.099   2.730  0.8790  0.5827 -3.5118
  312MOL0     H41146   2.340   2.102   2.765 -4.2552  0.7594  0.4562
  312MOL0     H41147   2.106   2.092   2.693  0.1459 -1.4893 -0.3887
  312MOL0     H41148   1.713   1.977   2.636 -0.0897  1.1341 -2.0941
  312MOL0     H41149   1.486   1.905   2.648  0.4348  0.8666 -2.0584
  312MOL0     H41150   1.286   1.848   2.614  0.7658  1.4207  2.0628
  312MOL0     H41151   1.333   1.757   2.752  0.2514  1.9788 -0.1286
  312MOL0     H41152   1.106   1.725   2.758 -2.6730 -0.9886 -1.4915
  312MOL0     H41153   1.168   1.577   2.695 -1.9847 -0.2585 -3.0758
  312MOL0     H41154   0.963   1.651   2.598  0.2189 -0.4708 -1.0572
  312MOL0     H41155   1.092   1.636   2.473 -1.7850 -2.6346  1.4678
  312MOL0     H41156   1.006   1.902   2.606  0.3072 -0.2476 -0.4769
  312MOL0     H41157   1.091   1.888   2.453  2.3302  0.8264  2.0821
  312MOL0     H41158   0.799   1.831   2.508  0.2089  1.3415  2.4779
  312MOL0     H41159   0.891   1.783   2.352  1.2372  0.7032  0.4511
  312MOL0     H41160   0.945   2.030   2.306 -2.4191  4.2827 -1.1793
  312MOL0     H41161   0.873   2.078   2.452  0.8835  2.4101 -1.1917
  312MOL0     H41162   0.738   2.142   2.287  0.3060  0.1515  3.6944
  312MOL0     H41163   0.763   1.996   2.187 -3.0073  0.8255 -1.4047
  312MOL0     H41164   0.593   1.994   2.419  3.6873  3.2842 -0.7314
  312MOL0     H41165   0.658   1.845   2.334  1.2841  0.4633  1.6385
  312MOL0     H41166   1.571   1.533   2.456 -2.1955 -0.1862  1.8309
  312MOL0     H41167   1.799   1.615   2.403  0.3478  0.5081 -1.0308
  312MOL0     H41168   2.183   1.723   2.504 -3.1945  1.8502 -0.6481
  312MOL0     H41169   2.388   1.725   2.552  1.9194  0.4614  0.7445
  312MOL0     H41170   4.287   1.396   2.658 -0.8488 -2.9205 -1.0283
  312MOL0     H41171   4.496   1.444   2.595 -2.2923 -0.8560  2.9373
  312MOL0     H41172   4.830   1.643   2.107  1.2078  0.9777  0.8387
  312MOL0     H41173   5.056   1.628   2.099  1.2044 -2.8495 -2.1231
  312MOL0     H41174   5.376   1.581   2.285 -2.7377 -1.8662  2.3650
  312MOL0     H41175   5.271   1.637   2.154  0.8756  0.9966 -0.8625
  312MOL0     H41176   5.295   1.409   2.046 -0.5799  1.0420  0.2154
  312MOL0     H41177   5.443   1.504   2.024  0.1204  2.0296  0.8676
  312MOL0     H41178   5.408   1.266   2.206  0.2312 -0.3427 -1.9159
  312MOL0     H41179   5.529   1.390   2.253  1.3358  0.8201 -0.4816
  312MOL0     H41180   5.623   1.338   2.002 -0.1834  0.0844  0.3718
  312MOL0     H41181   5.659   1.234   2.135 -1.6696 -1.2551  1.2174
  312MOL0     H41182   5.443   0.959   1.909 -0.9846  0.0989 -0.4795
  312MOL0     H41183   5.052   1.333   2.416  2.4746  0.3558 -2.4524
  312MOL0     H41184   4.807   1.361   2.418  1.4238  0.2152  1.9691
  313MOL0     O41185   4.798   3.008   6.375 -0.4666 -0.5721 -0.7407
  313MOL0     C41186   4.725   3.019   6.469 -0.2581  0.0965 -0.3454
  313MOL0     O41187   4.757   2.999   6.598  0.8267 -0.9736 -0.6337
  313MOL0     C41188   4.885   3.004   6.643  0.6020 -0.2252 -0.5034
  313MOL0     C41189   4.911   3.102   6.742  0.3054 -0.3701 -0.8084
  313MOL0     C41190   5.034   3.101   6.805 -0.2355  1.3057 -0.1536
  313MOL0     C41191   5.125   3.001   6.771 -0.1040 -0.5717 -0.0529
  313MOL0     O41192   5.254   2.988   6.826 -0.6738 -0.4952  0.2568
  313MOL0     C41193   5.308   3.076   6.924 -0.1554 -0.1297 -0.1305
  313MOL0     C41194   5.458   3.073   6.911  0.0718 -0.6914 -0.1680
  313MOL0     C41195   5.537   3.119   7.028 -0.5963 -0.3797 -0.2103
  313MOL0     C41196   5.502   3.042   7.159  0.9186 -0.6826  1.6101
  313MOL0     C41197   5.607   3.076   7.265 -0.2894  0.1051  0.9236
  313MOL0     C41198   5.755   3.083   7.227  0.6992 -0.3321 -0.3890
  313MOL0     C41199   5.852   3.098   7.343 -0.5497  0.0837 -0.3914
  313MOL0     C41200   5.882   3.253   7.365  0.7702 -0.3506  0.1558
  313MOL0     N41201   5.958   3.287   7.491 -0.3783  1.3508 -0.6534
  313MOL0     C41202   6.077   3.237   7.533  0.2166 -1.1785 -0.8907
  313MOL0     C41203   6.132   3.349   7.586  0.8529  0.6006  0.4968
  313MOL0     C41204   6.274   3.359   7.633  0.2438  0.5872 -0.6924
  313MOL0     C41205   6.368   3.341   7.514  0.3308 -0.4512 -0.2309
  313MOL0     C41206   6.514   3.342   7.556 -0.1780 -0.3368  0.1136
  313MOL0     C41207   6.555   3.491   7.597  0.4373  0.1844  0.2386
  313MOL0     O41208   6.694   3.522   7.615 -0.0165  0.0467 -0.2822
  313MOL0     C41209   6.778   3.468   7.711 -0.4293 -0.7977 -0.1294
  313MOL0     C41210   6.755   3.360   7.792 -0.2701  0.1896 -0.5064
  313MOL0     C41211   6.851   3.304   7.874 -0.2294 -0.5795 -0.9365
  313MOL0     C41212   6.979   3.366   7.894  0.5286 -0.5374 -0.3961
  313MOL0     C41213   7.084   3.310   7.983  0.4508 -0.1993  0.6072
  313MOL0     O41214   7.058   3.195   8.057  0.2563 -0.1102 -0.2777
  313MOL0     C41215   7.161   3.142   8.126 -1.1780  0.4744  0.9972
  313MOL0     C41216   7.174   3.148   8.261 -0.9531 -0.6672 -0.7884
  313MOL0     C41217   7.284   3.089   8.331 -0.4164 -0.0757 -0.4649
  313MOL0     C41218   7.393   3.031   8.262 -0.1228  0.6535  0.4341
  313MOL0     O41219   7.512   3.004   8.323 -0.4195  0.2305  0.0751
  313MOL0     C41220   7.532   2.988   8.458  0.0369  0.3586  0.3288
  313MOL0     C41221   7.561   3.122   8.529 -0.0902 -0.1088  0.8561
  313MOL0     C41222   7.711   3.168   8.508  0.4216  0.4855 -0.3580
  313MOL0     C41223   7.745   3.267   8.615  1.2198 -0.2170 -0.4955
  313MOL0     C41224   7.666   3.400   8.609 -0.0512 -0.4669  0.4129
  313MOL0     C41225   7.751   3.509   8.686 -0.7054 -0.0287 -0.2760
  313MOL0     C41226   7.674   3.634   8.728 -0.0921  0.3207  0.7666
  313MOL0     C41227   7.765   3.727   8.794  0.1628 -0.7457  0.5122
  313MOL0    Cl41228   7.914   3.771   8.704 -0.3182  0.2783  0.3752
  313MOL0     C41229   7.380   3.025   8.123 -0.4196  0.0695 -0.3287
  313MOL0     C41230   7.267   3.077   8.054  0.1501  0.3801  0.8490
  313MOL0     O41231   7.190   3.376   7.992 -0.2911  0.3486 -0.6334
  313MOL0     C41232   6.990   3.492   7.830  0.2527 -0.0882  0.4260
  313MOL0     C41233   6.897   3.534   7.730 -0.3890 -1.0614 -0.6867
  313MOL0     N41234   6.046   3.455   7.582 -0.5471 -1.0878  0.6992
  313MOL0     N41235   5.941   3.420   7.525 -0.1896  0.3450  0.0421
  313MOL0     C41236   5.103   2.921   6.662  0.4178 -0.2550  0.0153
  313MOL0     C41237   4.979   2.930   6.589  0.0958  0.2092 -0.0240
  313MOL0     C41238   4.583   3.047   6.434  0.5219 -0.5388 -0.0922
  313MOL0     C41239   4.500   3.101   6.541 -0.4872 -0.0215  0.2928
  313MOL0     C41240   4.364   3.134   6.512  0.0322  0.2625  0.5550
  313MOL0     C41241   4.316   3.120   6.382  0.4609  0.1667 -0.8028
  313MOL0     O41242   4.182   3.151   6.361  0.0013  0.1883  0.7804
  313MOL0     C41243   4.127   3.125   6.229 -0.6751 -0.9793  0.4490
  313MOL0     C41244   3.975   3.153   6.230  1.0080  0.6145  0.2700
  313MOL0     C41245   3.896   3.116   6.109  0.2816 -0.0457  0.0668
  313MOL0     C41246   3.741   3.114   6.126 -0.0303  0.2584  0.7402
  313MOL0     C41247   3.680   3.025   6.232 -0.8457 -0.1647  0.1518
  313MOL0     C41248   3.635   2.945   6.312 -0.0898 -0.5425  0.3460
  313MOL0     C41249   4.401   3.079   6.283  0.2658 -0.5482 -1.6796
  313MOL0     C41250   4.537   3.050   6.308  0.8800  0.3772 -0.1628
  313MOL0     H41251   4.834   3.170   6.776  1.5848  1.3228 -1.1802
  313MOL0     H41252   5.048   3.168   6.889 -0.7067  2.5928 -1.0681
  313MOL0     H41253   5.280   3.052   7.027 -2.7049  2.9148  0.0715
  313MOL0     H41254   5.266   3.173   6.897 -1.5805 -0.9146 -0.8397
  313MOL0     H41255   5.487   3.133   6.824 -3.3710  1.8448  0.2103
  313MOL0     H41256   5.491   2.969   6.904  4.2886  0.1122  3.1434
  313MOL0     H41257   5.536   3.227   7.044 -0.6582 -0.4872  0.5404
  313MOL0     H41258   5.637   3.088   6.997 -0.2937 -1.4016  1.6161
  313MOL0     H41259   5.406   3.073   7.202  0.8955  0.2795  0.8878
  313MOL0     H41260   5.486   2.934   7.151  2.1146 -0.7281 -1.5296
  313MOL0     H41261   5.595   3.005   7.347 -0.1623  0.0315  0.8795
  313MOL0     H41262   5.579   3.173   7.305  1.4581  1.0642 -0.0596
  313MOL0     H41263   5.763   3.169   7.160  0.8767 -0.7155 -0.8692
  313MOL0     H41264   5.778   2.996   7.165 -2.4063 -0.0274 -2.1389
  313MOL0     H41265   5.822   3.058   7.440  1.8466  0.9615  0.7854
  313MOL0     H41266   5.943   3.045   7.316 -1.8123 -2.5368  0.0847
  313MOL0     H41267   5.781   3.293   7.374  1.3148  0.5915  3.5870
  313MOL0     H41268   5.942   3.288   7.280  1.2998 -3.2885 -0.8021
  313MOL0     H41269   6.129   3.142   7.529  1.7654 -0.3684 -0.7316
  313MOL0     H41270   6.291   3.281   7.708 -1.6120 -1.3707 -2.1775
  313MOL0     H41271   6.303   3.455   7.676  0.0130  0.6195 -0.6069
  313MOL0     H41272   6.345   3.425   7.448 -3.4786  0.8480  2.3932
  313MOL0     H41273   6.336   3.251   7.461  0.0701  0.6493 -2.0149
  313MOL0     H41274   6.525   3.269   7.637 -3.4603  0.4161  1.4001
  313MOL0     H41275   6.576   3.311   7.472 -2.7562 -1.8980 -1.3432
  313MOL0     H41276   6.493   3.529   7.679 -3.2257  1.0593 -2.6861
  313MOL0     H41277   6.530   3.549   7.508 -1.5471 -0.0036  0.6430
  313MOL0     H41278   6.659   3.311   7.802 -0.2093  0.0791 -0.4727
  313MOL0     H41279   6.820   3.232   7.949 -0.1522  1.7187  1.4518
  313MOL0     H41280   7.087   3.184   8.314 -1.8403  0.4261 -2.8540
  313MOL0     H41281   7.283   3.096   8.439 -1.6475  0.5385 -0.5114
  313MOL0     H41282   7.622   2.925   8.464  0.7792  1.1668 -1.4906
  313MOL0     H41283   7.447   2.935   8.500 -0.0155 -1.9776 -2.4015
  313MOL0     H41284   7.540   3.118   8.636 -2.5104 -0.2512  0.4468
  313MOL0     H41285   7.496   3.198   8.485 -0.0108 -3.1172 -5.6343
  313MOL0     H41286   7.722   3.227   8.417  1.0860  1.6553  0.4440
  313MOL0     H41287   7.774   3.079   8.509 -0.8486 -0.4408 -0.0709
  313MOL0     H41288   7.738   3.228   8.717  2.4701 -2.9394 -1.3404
  313MOL0     H41289   7.852   3.290   8.613  1.6327 -1.4332  2.4787
  313MOL0     H41290   7.570   3.396   8.661  0.8684  0.0537  2.2296
  313MOL0     H41291   7.661   3.444   8.508 -0.4307 -1.5472 -0.0537
  313MOL0     H41292   7.835   3.529   8.619 -0.3701  1.0389  0.4360
  313MOL0     H41293   7.801   3.468   8.774  0.0989  1.4036 -0.0436
  313MOL0     H41294   7.647   3.680   8.633  1.0858  0.0066  0.2560
  313MOL0     H41295   7.588   3.615   8.792  0.3985 -1.6969  0.8869
  313MOL0     H41296   7.797   3.695   8.894  2.2750 -0.6881 -0.1000
  313MOL0     H41297   7.711   3.821   8.804 -0.3855 -0.8790 -0.9271
  313MOL0     H41298   7.465   2.984   8.070  1.5671  4.4785 -0.9652
  313MOL0     H41299   7.262   3.075   7.946 -2.0570 -1.0070  0.9060
  313MOL0     H41300   7.077   3.544   7.869  2.3216 -2.0316 -1.2608
  313MOL0     H41301   6.932   3.620   7.674 -1.7992  3.1800  4.1579
  313MOL0     H41302   5.191   2.871   6.624 -1.5989 -1.8679 -2.9230
  313MOL0     H41303   4.951   2.867   6.506 -2.3371  1.6360 -0.3685
  313MOL0     H41304   4.535   3.110   6.644  0.8476  3.3186 -0.3264
  313MOL0     H41305   4.296   3.173   6.587 -0.4488 -0.3678  0.4519
  313MOL0     H41306   4.146   3.019   6.205  2.0694 -0.8414  1.6230
  313MOL0     H41307   4.164   3.184   6.145 -1.9376 -2.2083 -1.0143
  313MOL0     H41308   3.929   3.096   6.311  0.8633  2.9634  1.9697
  313MOL0     H41309   3.948   3.257   6.253 -1.3112 -0.0235  0.7407
  313MOL0     H41310   3.933   3.029   6.052 -3.4098  0.1832 -3.0827
  313MOL0     H41311   3.911   3.199   6.040  0.7402  0.4730  0.7679
  313MOL0     H41312   3.721   3.220   6.146 -0.5202  0.4441 -0.6369
  313MOL0     H41313   3.695   3.106   6.027 -3.7542  0.5060  2.2510
  313MOL0     H41314   3.583   2.881   6.380  0.0145  0.8968  1.8421
  313MOL0     H41315   4.375   3.076   6.178  1.2728  1.0551 -2.0217
  313MOL0     H41316   4.594   3.024   6.220 -2.1396 -1.0208 -1.8667
  314MOL0     O41317   9.707   3.657   9.713 -0.8737 -0.6302  0.4901
  314MOL0     C41318   9.685   3.556   9.775  0.1805 -0.6611 -0.4109
  314MOL0     O41319   9.614   3.444   9.734  0.2978 -0.0036 -0.1108
  314MOL0     C41320   9.557   3.438   9.607 -0.5160 -0.3044 -0.5319
  314MOL0     C41321   9.420   3.396   9.605  0.5946  0.4181 -0.0624
  314MOL0     C41322   9.347   3.394   9.484 -0.1979  0.4844 -0.8987
  314MOL0     C41323   9.413   3.424   9.367 -1.7724  0.5942 -0.0917
  314MOL0     O41324   9.342   3.417   9.250  0.2800 -0.1145 -0.2241
  314MOL0     C41325   9.272   3.290   9.233  0.3004  0.9660 -0.3610
  314MOL0     C41326   9.231   3.294   9.078 -0.2080 -0.5973 -0.1727
  314MOL0     C41327   9.121   3.388   9.026 -0.3620 -0.8946  0.5442
  314MOL0     C41328   9.097   3.371   8.876  0.1236  0.6121 -0.8507
  314MOL0     C41329   9.035   3.237   8.836  0.1248 -0.5775  0.5738
  314MOL0     C41330   9.002   3.251   8.686 -0.2665  0.1970  0.3305
  314MOL0     C41331   8.880   3.164   8.635 -0.7304 -0.0013  0.0697
  314MOL0     C41332   8.740   3.222   8.674 -0.0584  0.4578 -0.0910
  314MOL0     N41333   8.627   3.159   8.602 -0.2021 -0.1277  0.3221
  314MOL0     C41334   8.608   3.163   8.462  0.5798 -0.6266 -0.2603
  314MOL0     C41335   8.479   3.112   8.454 -0.5514 -0.3874 -0.9046
  314MOL0     C41336   8.392   3.096   8.337 -0.4688  0.5059 -0.3209
  314MOL0     C41337   8.448   2.985   8.246  0.8929 -0.3376  0.0471
  314MOL0     C41338   8.362   2.969   8.124  0.3543  0.6974  0.3069
  314MOL0     C41339   8.411   2.862   8.039 -0.5018  0.1660 -0.0003
  314MOL0     O41340   8.323   2.828   7.929  0.2518  0.1882  0.6977
  314MOL0     C41341   8.215   2.735   7.945 -0.5583 -0.6833 -1.3463
  314MOL0     C41342   8.136   2.708   7.833 -0.4447 -0.8469  0.2190
  314MOL0     C41343   8.027   2.634   7.827  0.7303 -0.0329  0.7092
  314MOL0     C41344   7.963   2.590   7.944 -0.4659 -0.4650 -0.6566
  314MOL0     C41345   7.836   2.517   7.947 -0.5347 -0.2289 -0.5571
  314MOL0     O41346   7.756   2.514   7.826  0.1756 -0.0108 -0.3740
  314MOL0     C41347   7.618   2.515   7.819  0.1267 -0.0941  0.0581
  314MOL0     C41348   7.529   2.557   7.920 -0.1547  1.1429  0.4662
  314MOL0     C41349   7.397   2.533   7.906 -0.3081  0.8540 -0.8977
  314MOL0     C41350   7.341   2.495   7.780  0.3289 -0.8742 -0.1059
  314MOL0     O41351   7.209   2.491   7.751 -0.0656 -0.0330 -0.2730
  314MOL0     C41352   7.121   2.453   7.848 -0.0569  0.1716 -0.3651
  314MOL0     C41353   7.009   2.385   7.778  0.3769 -0.5511 -0.1067
  314MOL0     C41354   6.895   2.487   7.780  0.4201 -0.1083 -0.0445
  314MOL0     C41355   6.766   2.442   7.705  0.3911 -0.2403 -0.2062
  314MOL0     C41356   6.677   2.564   7.655 -0.1795 -0.1933 -0.0972
  314MOL0     C41357   6.545   2.517   7.592 -0.5832 -0.3572  0.7649
  314MOL0     C41358   6.500   2.615   7.484  0.2417  0.0689  0.5827
  314MOL0     C41359   6.416   2.555   7.371  0.0774  0.0672  0.0461
  314MOL0    Cl41360   6.267   2.481   7.452 -0.9972 -0.3309 -0.4864
  314MOL0     C41361   7.428   2.470   7.677  0.5229  0.2295  0.2609
  314MOL0     C41362   7.564   2.476   7.699  0.8747 -0.2912 -0.4020
  314MOL0     O41363   7.799   2.471   8.059 -0.2729 -0.1642  0.6409
  314MOL0     C41364   8.037   2.603   8.064  0.0479 -0.8573 -0.0685
  314MOL0     C41365   8.157   2.682   8.065  0.0660 -0.0461 -0.5293
  314MOL0     N41366   8.435   3.073   8.578  0.1558 -0.1643 -0.2232
  314MOL0     N41367   8.525   3.091   8.662 -0.2052 -0.4181 -0.4214
  314MOL0     C41368   9.548   3.473   9.368 -0.2945  0.3408 -0.1392
  314MOL0     C41369   9.619   3.485   9.484 -0.6336  0.8810 -0.9161
  314MOL0     C41370   9.713   3.581   9.920  0.1032 -0.3173 -0.1012
  314MOL0     C41371   9.746   3.707   9.977 -0.5948  0.3671 -0.2345
  314MOL0     C41372   9.762   3.720  10.112  0.3422  0.1835  0.2855
  314MOL0     C41373   9.741   3.613  10.200  0.4636 -0.3021 -0.1073
  314MOL0     O41374   9.752   3.616  10.336  0.1131  0.1696 -0.5026
  314MOL0     C41375   9.768   3.740  10.402  0.1645  0.3066  0.0667
  314MOL0     C41376   9.801   3.723  10.547 -0.1252 -0.1608  0.7832
  314MOL0     C41377   9.829   3.845  10.634 -0.0301 -0.0632  0.0123
  314MOL0     C41378   9.820   3.815  10.790 -0.5511  0.1999 -0.9342
  314MOL0     C41379   9.927   3.728  10.845  0.0211  0.5731  1.0884
  314MOL0     C41380  10.012   3.666  10.901 -0.1634  0.2743  0.2486
  314MOL0     C41381   9.710   3.489  10.143 -0.7808  0.0751 -0.2780
  314MOL0     C41382   9.705   3.470  10.001  0.3218  0.3093 -0.6381
  314MOL0     H41383   9.379   3.358   9.698 -0.7855 -1.3660 -1.3190
  314MOL0     H41384   9.240   3.375   9.486 -0.7725  3.1793 -1.2132
  314MOL0     H41385   9.180   3.285   9.292  0.2633 -3.3563 -0.5246
  314MOL0     H41386   9.329   3.199   9.253 -1.9067 -0.3259  0.4619
  314MOL0     H41387   9.191   3.196   9.049 -0.1058 -0.3430 -1.2095
  314MOL0     H41388   9.320   3.300   9.016  0.2840  0.8349  0.6298
  314MOL0     H41389   9.160   3.489   9.044 -0.6037 -0.8212  0.6621
  314MOL0     H41390   9.036   3.370   9.092  1.0350 -3.8641  1.7388
  314MOL0     H41391   9.045   3.458   8.836  2.7109  2.3082 -0.7679
  314MOL0     H41392   9.193   3.379   8.824 -0.8297  2.0045 -2.4988
  314MOL0     H41393   8.945   3.211   8.893 -0.6687 -0.1722 -0.4804
  314MOL0     H41394   9.100   3.154   8.865  1.3018 -1.0928 -3.0655
  314MOL0     H41395   9.089   3.232   8.622  0.1245  3.0087 -0.0819
  314MOL0     H41396   8.981   3.354   8.657  2.0129  0.6043 -0.1008
  314MOL0     H41397   8.873   3.160   8.525 -1.4823  2.4237 -0.0301
  314MOL0     H41398   8.889   3.067   8.685  2.1114  0.8935  1.4486
  314MOL0     H41399   8.741   3.329   8.649 -0.6034  0.3835 -0.4637
  314MOL0     H41400   8.729   3.217   8.783  0.3760 -3.8233 -0.0905
  314MOL0     H41401   8.679   3.201   8.389  1.1208  0.0553  0.6063
  314MOL0     H41402   8.402   3.184   8.273  1.2072 -0.6709 -1.7869
  314MOL0     H41403   8.297   3.070   8.384 -1.0028  1.2414 -0.9696
  314MOL0     H41404   8.475   2.889   8.291  2.1093 -0.0739 -0.0840
  314MOL0     H41405   8.546   3.021   8.213  1.3535 -2.0252 -0.5552
  314MOL0     H41406   8.261   2.945   8.159 -0.0334  0.3655 -0.9729
  314MOL0     H41407   8.337   3.061   8.071  0.5750  0.4897 -0.1712
  314MOL0     H41408   8.434   2.773   8.098 -4.9386  0.0355  1.9595
  314MOL0     H41409   8.503   2.896   7.991  0.9980 -0.6288  2.1927
  314MOL0     H41410   8.171   2.747   7.738  1.8052  2.0324  2.0495
  314MOL0     H41411   7.989   2.626   7.726 -0.0353  1.6874  0.8322
  314MOL0     H41412   7.566   2.569   8.021 -3.2459 -0.0274  1.8580
  314MOL0     H41413   7.331   2.558   7.988  0.2469 -1.0239  0.1685
  314MOL0     H41414   7.086   2.526   7.922  0.7516 -1.8056  2.1406
  314MOL0     H41415   7.170   2.372   7.903  1.6834  1.6946  0.4491
  314MOL0     H41416   6.969   2.298   7.831 -2.1658  1.0330  0.7081
  314MOL0     H41417   7.041   2.356   7.677  1.7929  3.5329 -1.0131
  314MOL0     H41418   6.935   2.579   7.737 -0.0767  0.8896  1.5539
  314MOL0     H41419   6.860   2.528   7.876  0.5945 -2.8986  1.3206
  314MOL0     H41420   6.799   2.370   7.630  3.7915 -1.1498  1.9351
  314MOL0     H41421   6.700   2.385   7.771  0.9101 -0.7681 -0.1426
  314MOL0     H41422   6.734   2.620   7.580 -1.8934  0.8263 -0.6767
  314MOL0     H41423   6.664   2.630   7.741  0.7836  1.3122 -1.0760
  314MOL0     H41424   6.467   2.504   7.668 -2.4715 -0.0397 -1.0357
  314MOL0     H41425   6.559   2.422   7.539  0.0760 -0.3679  0.9447
  314MOL0     H41426   6.433   2.683   7.539 -2.0356 -3.0443  1.9540
  314MOL0     H41427   6.586   2.663   7.437 -0.6709  1.0113 -0.1809
  314MOL0     H41428   6.470   2.481   7.310  0.0690  2.1433 -2.6172
  314MOL0     H41429   6.387   2.629   7.297 -1.4938 -2.0066 -1.5299
  314MOL0     H41430   7.400   2.424   7.582  1.1431  1.9621 -0.8056
  314MOL0     H41431   7.629   2.424   7.630  0.7129 -2.4631  1.0091
  314MOL0     H41432   8.000   2.555   8.155  0.7156 -0.3228  0.4985
  314MOL0     H41433   8.213   2.684   8.158 -0.5249 -4.3455  0.1334
  314MOL0     H41434   9.588   3.505   9.272  4.4449 -0.0465  1.4100
  314MOL0     H41435   9.723   3.513   9.496 -1.0290  2.7771 -1.5288
  314MOL0     H41436   9.752   3.795   9.914 -1.8030 -1.8438 -3.7366
  314MOL0     H41437   9.787   3.813  10.162  2.4500 -0.9873  1.5782
  314MOL0     H41438   9.672   3.791  10.392  0.8738  1.4505 -1.3366
  314MOL0     H41439   9.850   3.801  10.363  1.6279 -1.4665  0.2386
  314MOL0     H41440   9.706   3.681  10.580 -0.7158 -0.4532 -1.1450
  314MOL0     H41441   9.885   3.654  10.553  0.2905  0.4365  2.0354
  314MOL0     H41442   9.745   3.913  10.614 -2.4229 -3.3006 -1.8792
  314MOL0     H41443   9.925   3.890  10.608  1.8984 -3.0840  1.3871
  314MOL0     H41444   9.834   3.911  10.839 -0.7140 -1.0295  1.6706
  314MOL0     H41445   9.719   3.783  10.818  0.4353 -0.2775  2.5007
  314MOL0     H41446  10.084   3.606  10.954  0.5557 -1.2653 -2.2859
  314MOL0     H41447   9.693   3.399  10.202 -1.4899  0.4734  0.1418
  314MOL0     H41448   9.686   3.372   9.957 -2.7951  0.1573  0.7147
  315MOL0     O41449   3.302   1.963   2.656  0.2014  0.7633  0.4450
  315MOL0     C41450   3.394   1.927   2.729  0.1255  0.6319 -0.3790
  315MOL0     O41451   3.388   1.902   2.864  0.1387  0.2544  0.2819
  315MOL0     C41452   3.290   1.975   2.924 -0.2477  0.2012  0.0369
  315MOL0     C41453   3.202   1.925   3.021  0.2861 -0.2939 -1.2606
  315MOL0     C41454   3.114   2.010   3.084  1.6583  0.5156  0.1902
  315MOL0     C41455   3.103   2.147   3.057 -0.6414  0.1197  0.0208
  315MOL0     O41456   3.025   2.226   3.133 -0.4566  0.3862 -0.3874
  315MOL0     C41457   2.917   2.296   3.068 -0.2882  0.8347  0.0939
  315MOL0     C41458   2.807   2.331   3.179 -0.1362  0.3235  0.6138
  315MOL0     C41459   2.678   2.356   3.110  0.3344  0.0774  0.1346
  315MOL0     C41460   2.576   2.401   3.212  0.2993  0.4002 -0.3075
  315MOL0     C41461   2.439   2.411   3.136 -0.3146 -0.1108 -0.0651
  315MOL0     C41462   2.323   2.474   3.221  0.2517  0.3437  0.7550
  315MOL0     C41463   2.190   2.466   3.142  0.0166  0.2044 -1.1137
  315MOL0     C41464   2.079   2.521   3.221  0.3707 -1.0114 -0.6706
  315MOL0     N41465   1.946   2.494   3.155  0.7392  0.3195  0.3543
  315MOL0     C41466   1.908   2.586   3.052  0.6936  0.1591  0.4559
  315MOL0     C41467   1.779   2.554   3.027 -0.6747 -0.8900  0.4406
  315MOL0     C41468   1.696   2.616   2.915  0.2976  0.1893  0.1025
  315MOL0     C41469   1.584   2.527   2.861 -1.3402  0.9007  0.0259
  315MOL0     C41470   1.472   2.518   2.960  0.1729 -0.0830 -0.6161
  315MOL0     C41471   1.352   2.443   2.909  0.1989 -0.4394 -0.1299
  315MOL0     O41472   1.291   2.506   2.792  0.5499  0.0149 -0.2924
  315MOL0     C41473   1.165   2.458   2.767 -1.0712  0.0045 -0.1441
  315MOL0     C41474   1.073   2.479   2.865 -0.2627 -0.2062 -0.6680
  315MOL0     C41475   0.944   2.432   2.845  0.0846  0.4285  0.1822
  315MOL0     C41476   0.911   2.349   2.730  0.0587  0.2689 -0.9026
  315MOL0     C41477   0.769   2.307   2.694  0.5490  1.3446  0.8961
  315MOL0     O41478   0.661   2.367   2.757 -0.7628 -0.1211 -0.1365
  315MOL0     C41479   0.526   2.346   2.744 -0.1254  1.0086 -0.0709
  315MOL0     C41480   0.468   2.248   2.655  0.2453  0.3070 -0.1415
  315MOL0     C41481   0.329   2.234   2.634 -0.5284  0.0009 -0.0822
  315MOL0     C41482   0.247   2.315   2.706  0.9496 -0.0161  0.4938
  315MOL0     O41483   0.112   2.290   2.704  0.4749  0.5598  0.7029
  315MOL0     C41484   0.068   2.160   2.764 -0.0747 -0.2352 -0.5557
  315MOL0     C41485  -0.044   2.092   2.682  0.9186 -1.0427  0.4153
  315MOL0     C41486  -0.082   1.965   2.762  0.7486  0.3912  0.2973
  315MOL0     C41487  -0.212   1.900   2.708 -1.5123 -0.2147  0.7555
  315MOL0     C41488  -0.240   1.770   2.780  0.5709 -0.0309 -0.3339
  315MOL0     C41489  -0.376   1.710   2.746  0.0371  0.3695  0.7724
  315MOL0     C41490  -0.373   1.671   2.595 -0.0486 -0.1036 -0.0304
  315MOL0     C41491  -0.463   1.772   2.521 -0.7294 -0.3077  0.8756
  315MOL0    Cl41492  -0.618   1.759   2.581  0.1216 -0.4933 -0.4932
  315MOL0     C41493   0.300   2.401   2.799  0.4335 -0.5458 -0.8765
  315MOL0     C41494   0.436   2.418   2.824 -0.0270  0.1728 -0.0554
  315MOL0     O41495   0.757   2.227   2.605 -0.0301  0.0712  0.5140
  315MOL0     C41496   1.005   2.335   2.631 -0.4187  0.0419 -0.7744
  315MOL0     C41497   1.129   2.396   2.648  0.1996  0.0070  1.1916
  315MOL0     N41498   1.743   2.456   3.106 -0.6792 -0.4501 -0.1596
  315MOL0     N41499   1.839   2.415   3.187 -0.2836  0.2965  0.0522
  315MOL0     C41500   3.201   2.205   2.984  0.2253  0.3866  0.1298
  315MOL0     C41501   3.293   2.117   2.922 -0.1667 -0.6536  0.0486
  315MOL0     C41502   3.515   1.877   2.657  0.0033  0.4579 -0.3479
  315MOL0     C41503   3.531   1.909   2.515 -0.2528 -0.2643  0.0020
  315MOL0     C41504   3.645   1.881   2.457 -0.0843 -0.2939  0.4592
  315MOL0     C41505   3.753   1.813   2.519  0.0677  0.1776  0.5030
  315MOL0     O41506   3.855   1.762   2.436 -0.2152  0.3151  0.7744
  315MOL0     C41507   3.982   1.700   2.482  0.6957 -0.4195 -0.7260
  315MOL0     C41508   4.119   1.775   2.452  0.8577  0.9577 -0.2719
  315MOL0     C41509   4.134   1.811   2.303  0.5015 -0.5538 -0.7314
  315MOL0     C41510   4.251   1.900   2.266  0.6717 -0.2508 -0.3599
  315MOL0     C41511   4.246   2.016   2.350  1.1308 -0.2561 -0.5307
  315MOL0     C41512   4.245   2.116   2.415 -0.4529 -0.5217  0.3215
  315MOL0     C41513   3.739   1.785   2.649  0.3390 -0.0705 -0.6897
  315MOL0     C41514   3.622   1.817   2.722  0.4433 -0.3248  0.4790
  315MOL0     H41515   3.210   1.819   3.042  1.4505 -0.5554 -2.8530
  315MOL0     H41516   3.058   1.964   3.165 -1.6424  1.7004 -1.2417
  315MOL0     H41517   2.868   2.230   2.996 -2.0943  1.8168  0.3736
  315MOL0     H41518   2.950   2.389   3.021  3.1741 -0.1818  0.2139
  315MOL0     H41519   2.848   2.419   3.229  3.2889  0.5454 -2.1578
  315MOL0     H41520   2.800   2.245   3.246  0.1078 -0.5841 -0.4808
  315MOL0     H41521   2.640   2.263   3.067 -0.8357  1.1914 -1.3655
  315MOL0     H41522   2.689   2.421   3.023  0.7254 -0.7706 -0.4699
  315MOL0     H41523   2.573   2.338   3.301 -2.1137  3.1620  1.7646
  315MOL0     H41524   2.608   2.497   3.255  0.5228 -0.0173  0.4647
  315MOL0     H41525   2.404   2.311   3.109  1.3295 -0.5585 -0.6765
  315MOL0     H41526   2.455   2.453   3.036  2.1396  0.4929  0.5218
  315MOL0     H41527   2.345   2.577   3.249 -0.3561  0.3705  1.1618
  315MOL0     H41528   2.311   2.415   3.313 -0.4273  1.0521  1.1313
  315MOL0     H41529   2.200   2.520   3.047  0.0434  2.0647 -0.1004
  315MOL0     H41530   2.166   2.362   3.121  1.7032 -0.1534 -1.3653
  315MOL0     H41531   2.084   2.630   3.234  0.1451 -0.9006 -1.4762
  315MOL0     H41532   2.075   2.494   3.327 -0.8593  1.6644  0.0650
  315MOL0     H41533   1.983   2.650   3.007  4.2572 -2.7236  1.7492
  315MOL0     H41534   1.760   2.640   2.830 -1.1066  0.6224 -0.8662
  315MOL0     H41535   1.661   2.712   2.953 -1.8697 -0.8823  1.0228
  315MOL0     H41536   1.638   2.433   2.847  0.0690  1.3363  2.0466
  315MOL0     H41537   1.558   2.570   2.764  1.1405  0.4115 -0.9293
  315MOL0     H41538   1.502   2.469   3.054  1.3244  2.5624  0.5308
  315MOL0     H41539   1.433   2.612   3.001 -1.9519 -2.4914  3.5730
  315MOL0     H41540   1.279   2.432   2.989  1.5323  2.0822  1.5812
  315MOL0     H41541   1.389   2.341   2.900 -0.8664 -1.1573  2.7377
  315MOL0     H41542   1.098   2.526   2.959  1.1277 -2.9943  0.4579
  315MOL0     H41543   0.868   2.452   2.920 -2.7260  0.2251 -2.4155
  315MOL0     H41544   0.518   2.174   2.592  1.0773  1.0229 -0.3412
  315MOL0     H41545   0.293   2.153   2.572  1.2199 -0.7199 -0.1940
  315MOL0     H41546   0.025   2.182   2.862  1.2859 -0.7296  0.1701
  315MOL0     H41547   0.150   2.088   2.770  0.7127  0.7219  0.7768
  315MOL0     H41548  -0.030   2.080   2.575 -5.3833  0.2351 -0.9947
  315MOL0     H41549  -0.140   2.144   2.688 -0.3253 -3.2276  0.3864
  315MOL0     H41550  -0.097   1.988   2.868 -0.9963  0.5750  0.0405
  315MOL0     H41551  -0.004   1.892   2.743  0.3776  0.3764 -1.3197
  315MOL0     H41552  -0.300   1.965   2.718 -1.1201  0.7125 -1.2326
  315MOL0     H41553  -0.195   1.880   2.601 -3.5570  1.1753  0.1013
  315MOL0     H41554  -0.247   1.786   2.888 -2.5946 -1.0269 -0.2831
  315MOL0     H41555  -0.157   1.705   2.753  0.9386  0.8637 -1.4376
  315MOL0     H41556  -0.447   1.790   2.772  0.3850  0.6182  0.9722
  315MOL0     H41557  -0.407   1.633   2.817 -1.2768  1.6232  1.6104
  315MOL0     H41558  -0.272   1.688   2.557 -1.3950  4.2333 -2.3318
  315MOL0     H41559  -0.414   1.573   2.568 -0.8492  0.1337  0.2943
  315MOL0     H41560  -0.463   1.767   2.411 -1.0082  0.1695  0.8478
  315MOL0     H41561  -0.428   1.872   2.547  2.5890 -0.7270 -1.3559
  315MOL0     H41562   0.221   2.459   2.846  0.1545 -0.8943 -0.9160
  315MOL0     H41563   0.481   2.490   2.893  1.0563  0.4570 -1.0226
  315MOL0     H41564   0.968   2.291   2.539 -1.3779  0.0728 -0.4165
  315MOL0     H41565   1.200   2.385   2.566  0.7273  1.4165  1.4313
  315MOL0     H41566   3.210   2.310   2.959 -3.0604  0.4425 -1.3598
  315MOL0     H41567   3.354   2.172   2.850 -3.2029  2.0104 -0.6966
  315MOL0     H41568   3.457   1.956   2.451 -2.0340 -0.0555  2.0879
  315MOL0     H41569   3.655   1.901   2.351 -2.2206  0.0690  0.2905
  315MOL0     H41570   3.981   1.603   2.430 -1.0711  0.2969 -2.1311
  315MOL0     H41571   3.975   1.680   2.589 -1.9438 -0.2532 -0.7928
  315MOL0     H41572   4.140   1.853   2.525 -3.3099  3.2748 -1.2655
  315MOL0     H41573   4.199   1.705   2.481 -0.9648 -1.0842  0.1362
  315MOL0     H41574   4.046   1.860   2.260 -0.2019  2.1984  3.3202
  315MOL0     H41575   4.141   1.715   2.250  1.5406  0.0794 -1.8014
  315MOL0     H41576   4.350   1.855   2.281  0.1534 -0.8658  1.4511
  315MOL0     H41577   4.248   1.934   2.162 -0.7809 -1.3002 -0.6819
  315MOL0     H41578   4.249   2.199   2.483  0.7302 -1.9271  2.0357
  315MOL0     H41579   3.809   1.722   2.703 -0.7150  0.3194  1.2529
  315MOL0     H41580   3.607   1.789   2.826 -2.8270  1.2270  0.5288
  316MOL0     O41581   2.338   9.638   3.990  0.5200  0.4141 -0.9214
  316MOL0     C41582   2.423   9.723   3.977  0.7416  0.1716  0.8454
  316MOL0     O41583   2.401   9.832   3.889 -0.9089 -0.5885 -0.3946
  316MOL0     C41584   2.275   9.845   3.830 -0.6371 -0.1795  0.4601
  316MOL0     C41585   2.258   9.811   3.695 -0.4466  0.2236 -0.2702
  316MOL0     C41586   2.130   9.825   3.644 -0.6944 -0.2788  0.8063
  316MOL0     C41587   2.018   9.879   3.719 -0.0093 -0.1748  0.8608
  316MOL0     O41588   1.894   9.888   3.656  0.3644 -0.4291 -0.3443
  316MOL0     C41589   1.782   9.971   3.706  0.8530  0.6118  0.0337
  316MOL0     C41590   1.670   9.867   3.738 -0.7511 -0.7435  0.5818
  316MOL0     C41591   1.549   9.957   3.744  0.0694  0.7387 -0.0566
  316MOL0     C41592   1.424   9.877   3.788 -2.1133 -0.6731 -0.6309
  316MOL0     C41593   1.304   9.969   3.791 -0.2508  0.1009  0.2837
  316MOL0     C41594   1.175   9.895   3.830  0.4330  0.0443 -0.1173
  316MOL0     C41595   1.049   9.971   3.786 -0.0664 -1.1200 -0.5886
  316MOL0     C41596   0.931   9.883   3.804  0.4500 -0.1421 -0.0707
  316MOL0     N41597   0.821   9.952   3.746  0.2016 -0.7339  0.1367
  316MOL0     C41598   0.736  10.043   3.814 -0.1222  0.4181  0.5008
  316MOL0     C41599   0.654  10.088   3.720  0.6691  0.3660 -0.2612
  316MOL0     C41600   0.549  10.197   3.751 -0.9767  0.2274 -0.3415
  316MOL0     C41601   0.409  10.158   3.694 -0.3517 -0.1378  0.1206
  316MOL0     C41602   0.328  10.286   3.690  0.3048  0.9375  0.1604
  316MOL0     C41603   0.185  10.281   3.619 -0.5570  0.8524 -0.1602
  316MOL0     O41604   0.194  10.251   3.483  0.4535 -0.6998  0.0392
  316MOL0     C41605   0.073  10.239   3.417  0.1329 -0.7992 -0.9239
  316MOL0     C41606   0.084  10.223   3.283 -0.0697  0.0508 -0.0509
  316MOL0     C41607  -0.030  10.204   3.203 -0.3624 -0.0522  0.1041
  316MOL0     C41608  -0.157  10.195   3.254  0.6699 -0.2889 -0.4419
  316MOL0     C41609  -0.274  10.171   3.175 -0.5674 -0.6446 -0.3363
  316MOL0     O41610  -0.266  10.231   3.053 -0.4898 -0.2554 -0.2562
  316MOL0     C41611  -0.371  10.219   2.971 -0.0197 -0.2369  0.2179
  316MOL0     C41612  -0.405  10.331   2.901  0.4698 -0.1220  0.5385
  316MOL0     C41613  -0.515  10.331   2.815 -0.0437 -0.2752  0.5417
  316MOL0     C41614  -0.574  10.213   2.768 -0.0534 -0.6297 -0.1230
  316MOL0     O41615  -0.679  10.216   2.680 -0.0394  0.0988  0.5659
  316MOL0     C41616  -0.806  10.210   2.741  0.1437 -0.0504 -0.2439
  316MOL0     C41617  -0.916  10.192   2.642 -0.8617 -0.0101  0.4993
  316MOL0     C41618  -0.926  10.043   2.605 -0.1108 -0.2623 -0.1166
  316MOL0     C41619  -1.049  10.009   2.530  0.0511 -0.2061  0.9012
  316MOL0     C41620  -1.075   9.857   2.504  0.4846  0.4209 -0.8657
  316MOL0     C41621  -1.194   9.843   2.411  0.1208  0.6115  0.3924
  316MOL0     C41622  -1.333   9.891   2.463  0.5701 -0.3571  0.4146
  316MOL0     C41623  -1.441   9.852   2.358  0.4622 -0.2542  1.4617
  316MOL0    Cl41624  -1.445   9.679   2.323  0.0946  0.3158 -0.4079
  316MOL0     C41625  -0.550  10.102   2.843 -0.7254 -0.2218 -0.4424
  316MOL0     C41626  -0.449  10.101   2.942  0.5642  0.1094  0.4087
  316MOL0     O41627  -0.369  10.117   3.227  0.4577 -1.2533 -0.2764
  316MOL0     C41628  -0.166  10.209   3.403  0.0446  0.5539  0.6695
  316MOL0     C41629  -0.052  10.240   3.476 -0.2383 -0.1580 -0.1465
  316MOL0     N41630   0.671  10.015   3.602 -0.1402  0.5701  0.4959
  316MOL0     N41631   0.778   9.931   3.620 -0.1810 -0.1025 -0.0367
  316MOL0     C41632   2.045   9.918   3.855 -0.4331  0.2896 -0.3299
  316MOL0     C41633   2.172   9.915   3.899 -0.6564  0.2128 -0.4139
  316MOL0     C41634   2.546   9.714   4.046  1.1461 -0.8295 -0.2289
  316MOL0     C41635   2.565   9.615   4.132 -0.0807  0.6132 -0.4679
  316MOL0     C41636   2.688   9.610   4.200 -0.2146  0.6742  0.1934
  316MOL0     C41637   2.794   9.695   4.174 -0.5754  0.0005  0.2927
  316MOL0     O41638   2.921   9.705   4.233  0.9504  0.6182 -0.7078
  316MOL0     C41639   2.933   9.627   4.361 -0.4295 -0.2862 -0.0135
  316MOL0     C41640   3.084   9.649   4.393 -0.0428  0.1232  0.3223
  316MOL0     C41641   3.174   9.607   4.276  0.0647  0.4489 -0.1535
  316MOL0     C41642   3.164   9.465   4.226  0.0916 -0.1331  0.5077
  316MOL0     C41643   3.291   9.403   4.172  0.5963 -0.3340 -1.5554
  316MOL0     C41644   3.392   9.358   4.115 -0.9949 -0.0048 -1.0622
  316MOL0     C41645   2.769   9.804   4.093 -0.3431 -0.1141 -0.3464
  316MOL0     C41646   2.644   9.812   4.021  0.2583  0.1698 -0.5938
  316MOL0     H41647   2.339   9.771   3.634 -0.3117 -1.3747  0.8759
  316MOL0     H41648   2.116   9.794   3.541 -0.0419 -1.0566  0.9428
  316MOL0     H41649   1.762  10.041   3.625  2.2478  3.7639  2.2222
  316MOL0     H41650   1.807  10.025   3.798  0.0441  2.8830 -1.0210
  316MOL0     H41651   1.674   9.826   3.839 -0.4881 -1.4384  0.2899
  316MOL0     H41652   1.659   9.791   3.661 -1.9655  0.2403 -0.2627
  316MOL0     H41653   1.524  10.010   3.651 -4.2796 -1.2958 -0.2995
  316MOL0     H41654   1.568  10.036   3.817  1.0800  0.3381  0.1219
  316MOL0     H41655   1.403   9.791   3.723 -1.3387  0.2228 -2.1281
  316MOL0     H41656   1.455   9.834   3.883  1.7910 -0.1913 -1.4831
  316MOL0     H41657   1.295  10.032   3.702 -1.0246  3.5035  2.5723
  316MOL0     H41658   1.323  10.039   3.874  4.2002 -0.0269 -0.3544
  316MOL0     H41659   1.167   9.877   3.938  1.7021  0.1874  0.0098
  316MOL0     H41660   1.177   9.799   3.778  1.4659  1.0605 -2.0290
  316MOL0     H41661   1.045  10.059   3.852  1.4887 -1.9441  0.6709
  316MOL0     H41662   1.052   9.984   3.678  2.6706 -3.2300 -0.8873
  316MOL0     H41663   0.915   9.848   3.907 -0.3411 -1.2204 -0.5442
  316MOL0     H41664   0.964   9.790   3.758  0.2772 -0.5430  0.5937
  316MOL0     H41665   0.749  10.073   3.917 -2.0686  0.7192  0.6949
  316MOL0     H41666   0.592  10.284   3.700 -0.6745  0.5739  0.4818
  316MOL0     H41667   0.539  10.213   3.859 -3.1888  2.4149 -0.7866
  316MOL0     H41668   0.367  10.084   3.763 -3.3599  2.4328  1.2734
  316MOL0     H41669   0.428  10.116   3.595  2.6353  0.0909  0.4845
  316MOL0     H41670   0.309  10.308   3.795  0.8830 -0.5704  0.6009
  316MOL0     H41671   0.383  10.368   3.642 -0.0596 -0.4413 -2.8464
  316MOL0     H41672   0.140  10.381   3.623  0.6562  1.4173  0.0911
  316MOL0     H41673   0.125  10.204   3.666  2.7569 -0.9948  1.3935
  316MOL0     H41674   0.178  10.207   3.232 -1.0530  0.4647 -2.0984
  316MOL0     H41675  -0.002  10.201   3.098  0.0254  2.4897  0.0790
  316MOL0     H41676  -0.361  10.427   2.925  1.1121 -0.3389  0.2302
  316MOL0     H41677  -0.554  10.428   2.785  2.9632  0.8671 -0.0290
  316MOL0     H41678  -0.827  10.306   2.790  1.2188  1.3094 -2.2839
  316MOL0     H41679  -0.813  10.126   2.811 -0.5806 -0.5819 -0.9435
  316MOL0     H41680  -0.907  10.245   2.546  0.9151  0.2355  0.7646
  316MOL0     H41681  -1.009  10.233   2.682 -2.4589 -0.3185 -2.5449
  316MOL0     H41682  -0.929   9.981   2.695 -0.0124  0.1722  0.1873
  316MOL0     H41683  -0.835  10.031   2.545  0.9605 -0.6155  1.4945
  316MOL0     H41684  -1.131  10.053   2.587 -3.6445 -3.5445 -1.3218
  316MOL0     H41685  -1.041  10.051   2.430  0.0200 -2.0819  0.0707
  316MOL0     H41686  -1.103   9.810   2.598 -1.6401  2.1962 -0.5193
  316MOL0     H41687  -0.982   9.821   2.459 -0.0360  2.7661 -4.2114
  316MOL0     H41688  -1.200   9.738   2.380  0.0816  0.8079 -0.2757
  316MOL0     H41689  -1.155   9.890   2.321 -0.6288 -1.0132 -0.8341
  316MOL0     H41690  -1.358   9.833   2.552 -0.3953 -0.2687  0.2104
  316MOL0     H41691  -1.341   9.998   2.483  1.7675 -0.4391  1.4585
  316MOL0     H41692  -1.428   9.903   2.262 -2.3531 -0.0412  1.0990
  316MOL0     H41693  -1.537   9.890   2.394 -0.9497 -0.1674 -2.0341
  316MOL0     H41694  -0.601  10.007   2.830  0.0829 -0.7278 -0.0482
  316MOL0     H41695  -0.410  10.009   2.984  1.5527  0.0639 -0.5493
  316MOL0     H41696  -0.263  10.191   3.448 -0.7318  1.3456 -0.6260
  316MOL0     H41697  -0.068  10.254   3.582 -3.5154 -0.8076 -0.4424
  316MOL0     H41698   1.960   9.955   3.911 -0.0784  0.7689 -0.0953
  316MOL0     H41699   2.207   9.953   3.995  3.3659 -1.0866 -1.1408
  316MOL0     H41700   2.480   9.550   4.152 -0.8601  1.3479 -1.2968
  316MOL0     H41701   2.704   9.521   4.261 -0.3701  0.0975 -0.5880
  316MOL0     H41702   2.920   9.518   4.357 -1.9226 -0.1718  0.9400
  316MOL0     H41703   2.862   9.660   4.437 -3.6126 -2.9388 -1.5468
  316MOL0     H41704   3.107   9.748   4.433 -2.5844  1.0330 -0.2498
  316MOL0     H41705   3.114   9.579   4.471  2.7530  2.0282  1.0981
  316MOL0     H41706   3.279   9.622   4.305  0.9908 -2.9599 -1.2265
  316MOL0     H41707   3.159   9.679   4.195 -0.0089  0.5203 -0.0760
  316MOL0     H41708   3.144   9.399   4.311  3.2629 -2.2789 -0.2555
  316MOL0     H41709   3.089   9.470   4.147  2.4375 -1.5431 -1.9480
  316MOL0     H41710   3.481   9.324   4.065 -0.3093  1.5654 -0.9777
  316MOL0     H41711   2.850   9.874   4.078  1.1920 -0.9051  3.2745
  316MOL0     H41712   2.618   9.890   3.951 -2.5295 -1.0366 -1.0508
  317MOL0     O41713   7.871  10.151   0.022  0.6027  0.3785 -0.0967
  317MOL0     C41714   7.817  10.077   0.106 -0.3576 -0.6431 -0.2809
  317MOL0     O41715   7.871  10.039   0.222  0.0385  0.4290 -0.3439
  317MOL0     C41716   8.007  10.075   0.248 -0.1966 -0.6962 -0.2107
  317MOL0     C41717   8.107  10.114   0.154  0.0968 -0.8054 -0.3586
  317MOL0     C41718   8.231  10.157   0.203 -0.8346 -0.0681 -0.0820
  317MOL0     C41719   8.264  10.155   0.338  0.2305 -0.5591  0.6314
  317MOL0     O41720   8.384  10.206   0.371  0.3967 -0.0085  0.0106
  317MOL0     C41721   8.498  10.153   0.316 -0.4313  0.1092  0.0032
  317MOL0     C41722   8.622  10.217   0.377 -0.4956  0.2987 -0.8026
  317MOL0     C41723   8.754  10.163   0.312 -0.2413 -0.2615  0.6210
  317MOL0     C41724   8.868  10.252   0.355 -0.1755 -0.3187  0.4539
  317MOL0     C41725   8.998  10.172   0.320 -0.0399 -0.0689 -0.5163
  317MOL0     C41726   9.123  10.255   0.359 -0.4563  0.2006 -0.6733
  317MOL0     C41727   9.260  10.183   0.363  0.6984 -1.0061  0.0386
  317MOL0     C41728   9.293  10.065   0.458 -0.5854 -0.8616 -0.1171
  317MOL0     N41729   9.360  10.102   0.583  0.2923 -0.0522  0.2706
  317MOL0     C41730   9.488  10.150   0.579 -0.4007  1.1059  0.2440
  317MOL0     C41731   9.525  10.146   0.704  0.5482 -2.0612 -0.2817
  317MOL0     C41732   9.662  10.166   0.758 -1.1141 -0.1453 -0.0067
  317MOL0     C41733   9.712  10.312   0.780  0.4717 -0.1223 -1.0403
  317MOL0     C41734   9.606  10.400   0.853  0.0872  0.4544 -0.0603
  317MOL0     C41735   9.593  10.376   1.007 -0.1884 -0.8870 -0.8212
  317MOL0     O41736   9.472  10.435   1.050  0.7230 -0.2087 -0.1320
  317MOL0     C41737   9.412  10.388   1.160  0.0102  0.5580 -0.7126
  317MOL0     C41738   9.425  10.258   1.220 -0.3408 -0.6127  0.5761
  317MOL0     C41739   9.349  10.231   1.330 -0.0236 -0.2396 -0.5554
  317MOL0     C41740   9.266  10.326   1.394 -0.1882  0.5945 -0.1317
  317MOL0     C41741   9.198  10.294   1.516  0.2916  0.1220  0.2314
  317MOL0     O41742   9.251  10.198   1.591 -0.3986  0.1961  0.2238
  317MOL0     C41743   9.209  10.197   1.723 -0.0147 -0.0498 -0.5912
  317MOL0     C41744   9.081  10.166   1.774  0.0395 -0.1228  0.0073
  317MOL0     C41745   9.049  10.151   1.906 -0.5799 -0.5611  0.7632
  317MOL0     C41746   9.153  10.160   2.001 -0.1354  0.0741  0.2430
  317MOL0     O41747   9.137  10.119   2.130  0.0371 -0.1508  0.5935
  317MOL0     C41748   9.026  10.045   2.168 -0.3528  0.9780  0.6941
  317MOL0     C41749   9.035  10.029   2.325  0.7734  0.9568 -0.4960
  317MOL0     C41750   8.926   9.939   2.390  1.1709  0.0479  0.9378
  317MOL0     C41751   8.984   9.810   2.455 -0.6149 -0.2564 -0.0150
  317MOL0     C41752   8.882   9.721   2.521  0.0227  0.3930  0.3420
  317MOL0     C41753   8.778   9.658   2.418  0.3644 -0.1668  0.1407
  317MOL0     C41754   8.687   9.554   2.482 -0.4497 -0.3933  0.0078
  317MOL0     C41755   8.587   9.491   2.389 -0.0065  0.1274  0.0071
  317MOL0    Cl41756   8.674   9.391   2.275 -0.3290  0.2700 -0.0948
  317MOL0     C41757   9.285  10.206   1.957  0.3620 -0.1219  0.4403
  317MOL0     C41758   9.312  10.217   1.818  0.5825  0.0218  0.1398
  317MOL0     O41759   9.111  10.365   1.548  0.4044  0.5351  0.1172
  317MOL0     C41760   9.253  10.450   1.331 -0.2566 -0.0544 -0.8305
  317MOL0     C41761   9.327  10.481   1.217  0.0563 -0.7278 -0.9325
  317MOL0     N41762   9.415  10.103   0.780 -0.5486  0.0586 -0.3365
  317MOL0     N41763   9.317  10.080   0.703 -0.7218  0.2416  0.6569
  317MOL0     C41764   8.174  10.101   0.430  0.1866 -0.2536 -0.0354
  317MOL0     C41765   8.040  10.068   0.386 -1.0986 -0.2843 -1.1442
  317MOL0     C41766   7.683  10.038   0.068 -0.6444  0.0984 -0.0444
  317MOL0     C41767   7.580   9.992   0.159 -0.7982 -0.6010  0.2505
  317MOL0     C41768   7.453   9.964   0.100 -0.6561  0.6579 -0.1604
  317MOL0     C41769   7.426   9.981  -0.037  0.1300 -0.3763  0.1316
  317MOL0     O41770   7.304   9.951  -0.092  0.1883 -0.1012  0.2583
  317MOL0     C41771   7.194   9.922  -0.012  0.0406 -0.2727  0.2228
  317MOL0     C41772   7.073   9.914  -0.115 -0.7527 -0.3264  0.2747
  317MOL0     C41773   7.045  10.050  -0.187 -0.8492  0.3872 -0.6818
  317MOL0     C41774   6.923  10.056  -0.280  0.6296 -0.1928  0.3541
  317MOL0     C41775   6.804   9.987  -0.230  0.5675  0.1033 -1.2841
  317MOL0     C41776   6.738   9.915  -0.164 -0.5594  0.0388  0.2721
  317MOL0     C41777   7.532  10.010  -0.115  0.0085 -0.2966  0.1263
  317MOL0     C41778   7.652  10.037  -0.069  0.7290 -0.5530 -0.2996
  317MOL0     H41779   8.097  10.126   0.046  4.7147 -3.0880 -1.3189
  317MOL0     H41780   8.307  10.199   0.138 -0.2209  0.5391  0.9983
  317MOL0     H41781   8.495  10.166   0.207 -1.3829  2.5108  0.2700
  317MOL0     H41782   8.506  10.044   0.324  2.5301  0.0138 -2.3622
  317MOL0     H41783   8.612  10.206   0.486 -0.3423  2.2819 -0.5604
  317MOL0     H41784   8.607  10.324   0.363  1.2256  0.3814 -2.2981
  317MOL0     H41785   8.747  10.162   0.203  2.0321 -1.1036  0.4088
  317MOL0     H41786   8.752  10.058   0.344 -1.3795 -1.0603 -1.8728
  317MOL0     H41787   8.862  10.348   0.302 -2.2138 -0.3299  0.5764
  317MOL0     H41788   8.864  10.270   0.463  2.4249  0.0665  0.5552
  317MOL0     H41789   9.014  10.128   0.221 -0.2438  1.3403 -1.1984
  317MOL0     H41790   8.990  10.086   0.388 -0.2442  0.4468  0.1219
  317MOL0     H41791   9.097  10.291   0.459  0.1464 -1.0350 -0.0474
  317MOL0     H41792   9.129  10.345   0.297 -0.5071 -0.2856 -1.3969
  317MOL0     H41793   9.261  10.140   0.263 -6.9160  1.0985 -1.6074
  317MOL0     H41794   9.350  10.244   0.378  0.4610 -0.4653 -0.6521
  317MOL0     H41795   9.348   9.985   0.407 -0.7301  0.2379 -2.1273
  317MOL0     H41796   9.199  10.017   0.487  0.9293 -1.5499  4.3315
  317MOL0     H41797   9.549  10.188   0.498 -1.3742 -2.4165 -2.3525
  317MOL0     H41798   9.735  10.109   0.700 -1.0429 -0.8611  0.7551
  317MOL0     H41799   9.665  10.111   0.853  0.1213 -0.5848 -0.2712
  317MOL0     H41800   9.734  10.356   0.682  1.9690  1.4590 -0.0332
  317MOL0     H41801   9.811  10.320   0.824 -0.1129 -1.4654  0.6205
  317MOL0     H41802   9.623  10.506   0.834 -2.8670  1.6040  2.7365
  317MOL0     H41803   9.507  10.394   0.807  0.3207 -0.9027 -0.4327
  317MOL0     H41804   9.672  10.427   1.062 -3.0621 -0.0542  2.9285
  317MOL0     H41805   9.608  10.271   1.031  0.2401 -0.7106 -0.2713
  317MOL0     H41806   9.492  10.178   1.190 -2.3466 -2.7211  1.4323
  317MOL0     H41807   9.368  10.130   1.365 -0.9075  0.4955  2.3503
  317MOL0     H41808   8.996  10.168   1.707  0.5371 -1.6002 -0.7225
  317MOL0     H41809   8.947  10.125   1.932 -1.7902  0.9819 -1.9570
  317MOL0     H41810   9.030   9.945   2.123  1.4875  0.0863  2.6702
  317MOL0     H41811   8.929  10.087   2.143 -0.5051  1.4152  1.9518
  317MOL0     H41812   9.014  10.129   2.363 -4.3435  0.0412 -0.1673
  317MOL0     H41813   9.133   9.997   2.361  1.0090  0.5713 -1.4474
  317MOL0     H41814   8.858   9.912   2.309  1.8957  1.1597 -0.0686
  317MOL0     H41815   8.867   9.991   2.466 -1.7848 -2.3690  0.4760
  317MOL0     H41816   9.038   9.749   2.381 -1.7837 -1.4541  0.0860
  317MOL0     H41817   9.061   9.843   2.525  0.7471  2.6638 -2.6347
  317MOL0     H41818   8.832   9.772   2.604 -2.7296 -0.2969 -0.7797
  317MOL0     H41819   8.933   9.632   2.559  0.6733  0.1597 -1.0220
  317MOL0     H41820   8.849   9.606   2.353  2.4300  0.7640  1.5587
  317MOL0     H41821   8.716   9.733   2.367  3.6660  3.7728  1.3713
  317MOL0     H41822   8.744   9.482   2.541  0.1332 -0.0428 -0.1239
  317MOL0     H41823   8.629   9.614   2.553 -0.7169  1.9763 -2.0604
  317MOL0     H41824   8.524   9.566   2.340 -0.9236  0.4371  1.6043
  317MOL0     H41825   8.517   9.429   2.446  0.0783  0.7351  0.7909
  317MOL0     H41826   9.360  10.224   2.033 -0.4679 -0.2362  1.3016
  317MOL0     H41827   9.409  10.251   1.785  1.5181 -3.1628 -0.8238
  317MOL0     H41828   9.186  10.527   1.367 -1.6973 -1.8896  0.5934
  317MOL0     H41829   9.308  10.578   1.172 -1.7506 -2.1911 -3.5506
  317MOL0     H41830   8.196  10.112   0.536 -0.3527  1.5500 -0.0719
  317MOL0     H41831   7.974  10.016   0.454  0.6035  0.3861  1.1184
  317MOL0     H41832   7.588   9.988   0.267 -1.1331 -0.9952  0.2668
  317MOL0     H41833   7.369   9.944   0.166  0.2875  0.6544  1.0723
  317MOL0     H41834   7.169  10.001   0.060  2.2666 -0.8589  1.7627
  317MOL0     H41835   7.203   9.832   0.048  0.4936  1.3851  2.8149
  317MOL0     H41836   7.100   9.835  -0.185  1.6200  2.0877 -1.7524
  317MOL0     H41837   6.987   9.880  -0.057  0.8886 -3.1759  1.2098
  317MOL0     H41838   7.135  10.086  -0.240  0.9207  0.1986  1.9884
  317MOL0     H41839   7.035  10.132  -0.115  2.8367  1.0538 -0.6903
  317MOL0     H41840   6.905  10.161  -0.303 -0.8724 -0.1888  1.4192
  317MOL0     H41841   6.944  10.000  -0.372  0.8750  0.8775 -0.2566
  317MOL0     H41842   6.688   9.856  -0.091 -1.5820  0.0676 -0.3779
  317MOL0     H41843   7.520  10.014  -0.223 -2.1017  1.6461  0.3490
  317MOL0     H41844   7.733  10.059  -0.137  0.6885 -1.8314 -0.7943
  318MOL0     O41845   2.115   9.667   9.812 -0.2888 -0.4985  0.1481
  318MOL0     C41846   2.209   9.729   9.866  0.2846 -0.0315  0.2864
  318MOL0     O41847   2.341   9.694   9.848  0.5241 -0.4424  0.3130
  318MOL0     C41848   2.364   9.600   9.748 -0.0594  0.4930 -0.1506
  318MOL0     C41849   2.324   9.617   9.619 -0.5541 -0.1768 -0.2388
  318MOL0     C41850   2.351   9.534   9.512  0.9178 -0.0464 -0.8816
  318MOL0     C41851   2.436   9.424   9.533  0.3933 -0.6599  0.2362
  318MOL0     O41852   2.456   9.338   9.425 -0.0824 -0.4709  0.3618
  318MOL0     C41853   2.568   9.254   9.400 -0.2268 -0.1216  0.4864
  318MOL0     C41854   2.529   9.105   9.401  0.5827  0.2685  0.3340
  318MOL0     C41855   2.483   9.060   9.545 -0.8089  0.6158 -0.4428
  318MOL0     C41856   2.456   8.909   9.552 -0.0150  0.1558  0.4230
  318MOL0     C41857   2.401   8.842   9.678 -0.7786  0.4919  0.5601
  318MOL0     C41858   2.253   8.895   9.697 -0.7490 -0.6936 -0.4773
  318MOL0     C41859   2.194   8.832   9.829  0.5860 -0.0295 -1.0703
  318MOL0     C41860   2.040   8.868   9.852  0.5655 -0.3343  0.2713
  318MOL0     N41861   1.979   8.780   9.956  0.2200 -0.5376  0.1341
  318MOL0     C41862   1.920   8.663   9.924 -0.7694 -0.1323 -0.2459
  318MOL0     C41863   1.871   8.619  10.046  0.6514 -1.3690 -0.1120
  318MOL0     C41864   1.779   8.513  10.075  0.4910 -0.6536  1.0816
  318MOL0     C41865   1.623   8.553  10.078 -0.2649  1.3940  0.4532
  318MOL0     C41866   1.535   8.432  10.091 -0.1613  0.9352 -0.3807
  318MOL0     C41867   1.393   8.454  10.040  0.2230 -0.2511  0.0824
  318MOL0     O41868   1.378   8.382   9.919  0.5098 -0.4444 -0.7135
  318MOL0     C41869   1.258   8.395   9.852  0.4972  0.5740  0.5737
  318MOL0     C41870   1.231   8.317   9.736  0.4318 -0.8770 -0.8441
  318MOL0     C41871   1.122   8.331   9.654  0.5735 -0.1144  0.1919
  318MOL0     C41872   1.018   8.416   9.691  0.8375 -0.9152  0.1676
  318MOL0     C41873   0.892   8.439   9.608 -0.1497 -0.2296 -0.2077
  318MOL0     O41874   0.821   8.549   9.648  0.3428  0.5412  0.3181
  318MOL0     C41875   0.690   8.559   9.603 -0.4812 -0.2983  0.1547
  318MOL0     C41876   0.593   8.590   9.695  0.1873 -0.3915 -0.2279
  318MOL0     C41877   0.464   8.605   9.663 -0.2210 -0.7434  0.3728
  318MOL0     C41878   0.422   8.590   9.529  0.0518  0.6699 -0.2174
  318MOL0     O41879   0.293   8.587   9.483  0.6420 -0.5581 -0.2519
  318MOL0     C41880   0.190   8.569   9.578 -0.2198 -0.4541 -0.2294
  318MOL0     C41881   0.058   8.560   9.509 -0.1255 -0.9058 -0.1125
  318MOL0     C41882   0.001   8.689   9.448  0.2952  0.6022 -0.4819
  318MOL0     C41883  -0.138   8.656   9.404 -0.1030  0.1057  0.2306
  318MOL0     C41884  -0.206   8.791   9.345  0.0806  0.2597  0.1795
  318MOL0     C41885  -0.358   8.789   9.361  0.4572  0.1687 -1.3250
  318MOL0     C41886  -0.404   8.923   9.294 -0.5390 -0.3085  0.4105
  318MOL0     C41887  -0.539   8.962   9.351  0.0945 -0.3503 -0.9933
  318MOL0    Cl41888  -0.528   8.977   9.534 -0.0494 -0.1810  0.6462
  318MOL0     C41889   0.525   8.569   9.428  0.6204 -0.2020 -1.0964
  318MOL0     C41890   0.658   8.552   9.471  0.0693  0.8647 -0.0940
  318MOL0     O41891   0.861   8.351   9.526 -0.1294  0.4828  0.0402
  318MOL0     C41892   1.035   8.494   9.805  1.2021  0.7044  0.9016
  318MOL0     C41893   1.152   8.482   9.878  0.1658  0.2424 -0.5330
  318MOL0     N41894   1.923   8.710  10.143 -0.5930  1.1708 -0.6523
  318MOL0     N41895   1.985   8.807  10.085 -0.1943 -0.1798 -0.2020
  318MOL0     C41896   2.473   9.397   9.660  0.1739  0.3726  0.9446
  318MOL0     C41897   2.441   9.484   9.765 -0.0376  0.2451  0.3886
  318MOL0     C41898   2.170   9.824   9.970 -0.0497 -0.0462 -0.6859
  318MOL0     C41899   2.056   9.905   9.962 -0.5166 -0.7540  0.4787
  318MOL0     C41900   2.026  10.016  10.047 -0.0725 -0.0849 -0.4666
  318MOL0     C41901   2.095  10.031  10.170 -0.3541  0.2322  0.6197
  318MOL0     O41902   2.053  10.126  10.259  0.1150 -0.3718  0.0079
  318MOL0     C41903   2.138  10.161  10.373 -0.0652 -0.9705  0.5727
  318MOL0     C41904   2.254  10.253  10.325 -0.2379 -0.3478 -0.8411
  318MOL0     C41905   2.354  10.262  10.445 -0.5485  0.0080  0.3447
  318MOL0     C41906   2.495  10.223  10.409 -0.4541 -1.1677 -0.3965
  318MOL0     C41907   2.524  10.080  10.385 -0.2836  0.2022 -0.9352
  318MOL0     C41908   2.549   9.972  10.337 -0.0007  0.0285 -0.6414
  318MOL0     C41909   2.201   9.932  10.184  0.7902 -0.1179 -0.2546
  318MOL0     C41910   2.241   9.837  10.090  1.4828  0.7474 -0.2675
  318MOL0     H41911   2.253   9.697   9.601  1.7460  1.5831 -2.0142
  318MOL0     H41912   2.306   9.562   9.417  3.1074 -1.9309 -2.5809
  318MOL0     H41913   2.646   9.266   9.475  0.2065  0.8450 -0.1021
  318MOL0     H41914   2.602   9.278   9.299  1.3745 -1.9060  0.5442
  318MOL0     H41915   2.610   9.055   9.348 -1.2936  1.7184 -4.4033
  318MOL0     H41916   2.441   9.085   9.339 -1.2421  4.7035  1.1060
  318MOL0     H41917   2.395   9.115   9.580 -1.1447  0.6876 -1.3785
  318MOL0     H41918   2.561   9.081   9.618  1.4634  1.3714 -2.9548
  318MOL0     H41919   2.398   8.878   9.464  0.2170  2.7123 -0.7269
  318MOL0     H41920   2.556   8.867   9.536  0.8331  3.0769 -3.8990
  318MOL0     H41921   2.456   8.883   9.763  1.3247  1.7914 -1.3409
  318MOL0     H41922   2.412   8.735   9.659 -2.6037  0.6038 -1.4822
  318MOL0     H41923   2.214   8.852   9.604  1.2874 -0.0559 -1.6971
  318MOL0     H41924   2.247   9.004   9.692  1.7859 -0.5342 -2.4046
  318MOL0     H41925   2.198   8.723   9.826 -1.1279 -0.1096 -1.1282
  318MOL0     H41926   2.237   8.866   9.924 -0.5967 -1.1338 -0.1092
  318MOL0     H41927   1.987   8.850   9.758  1.7795 -0.6379 -0.3761
  318MOL0     H41928   2.040   8.971   9.890 -0.4620 -0.9048  1.9175
  318MOL0     H41929   1.903   8.624   9.824  0.8719  3.8525 -2.3247
  318MOL0     H41930   1.813   8.473  10.171  2.6379  0.2537  0.7658
  318MOL0     H41931   1.794   8.441   9.995  1.2509  2.8877 -2.2657
  318MOL0     H41932   1.604   8.586   9.976  0.4750 -1.0768 -0.5627
  318MOL0     H41933   1.603   8.630  10.154 -0.8266  1.8855 -0.1771
  318MOL0     H41934   1.590   8.358  10.032  1.5037  1.0732  0.9312
  318MOL0     H41935   1.545   8.401  10.196 -0.9376  0.4565 -0.4374
  318MOL0     H41936   1.371   8.560  10.030  1.9665  0.2322  0.9273
  318MOL0     H41937   1.321   8.403  10.105  0.9240 -1.6350 -0.1692
  318MOL0     H41938   1.322   8.269   9.703  0.4849 -1.1963 -0.2608
  318MOL0     H41939   1.109   8.263   9.571 -0.9827  2.2026 -1.5685
  318MOL0     H41940   0.625   8.605   9.798  0.4358  0.6856 -0.4616
  318MOL0     H41941   0.387   8.623   9.737 -0.4070 -0.0005  0.0045
  318MOL0     H41942   0.175   8.642   9.657  0.9032 -1.0241  0.5394
  318MOL0     H41943   0.209   8.485   9.646  1.3941  1.4965  1.8730
  318MOL0     H41944  -0.014   8.506   9.571 -0.3823 -0.1732  0.2333
  318MOL0     H41945   0.077   8.502   9.418  2.7582 -1.1678  0.5407
  318MOL0     H41946   0.058   8.725   9.362 -2.2912  1.9117 -1.7723
  318MOL0     H41947  -0.001   8.767   9.525 -1.7912  0.8113 -0.6943
  318MOL0     H41948  -0.124   8.573   9.334 -3.4288 -1.7428  1.5018
  318MOL0     H41949  -0.202   8.624   9.487  2.6725 -0.0572  2.4432
  318MOL0     H41950  -0.188   8.805   9.238  1.7664  1.1833  0.5487
  318MOL0     H41951  -0.168   8.880   9.397 -1.5256  0.2227  1.4956
  318MOL0     H41952  -0.387   8.783   9.467 -1.0324  0.6102 -1.6911
  318MOL0     H41953  -0.401   8.702   9.310  1.4157 -0.4089 -1.1882
  318MOL0     H41954  -0.336   9.007   9.309 -1.9774  1.0952 -0.5799
  318MOL0     H41955  -0.415   8.904   9.187  3.4474 -2.3021  0.1623
  318MOL0     H41956  -0.615   8.891   9.316 -1.5089  1.2270 -0.8391
  318MOL0     H41957  -0.580   9.053   9.306 -0.8746  1.0336  2.4097
  318MOL0     H41958   0.492   8.570   9.324 -2.4700 -0.1955 -0.2102
  318MOL0     H41959   0.735   8.550   9.394  1.0817  2.6873  0.7941
  318MOL0     H41960   0.965   8.576   9.821 -0.2355 -0.2149 -0.3706
  318MOL0     H41961   1.152   8.551   9.962 -2.0887 -1.4323  0.9564
  318MOL0     H41962   2.532   9.307   9.676  1.4631  1.5168  2.8673
  318MOL0     H41963   2.458   9.473   9.872  1.1801  3.2896  0.5941
  318MOL0     H41964   1.997   9.884   9.873  2.3662  3.3013 -2.7515
  318MOL0     H41965   1.940  10.080  10.030  1.3100  2.1411  0.3891
  318MOL0     H41966   2.191  10.073  10.411 -2.5861 -2.4724  0.8384
  318MOL0     H41967   2.075  10.206  10.450  0.5016  3.5197 -1.2941
  318MOL0     H41968   2.311  10.212  10.242 -1.2990  2.5250 -3.1607
  318MOL0     H41969   2.234  10.351  10.280  2.6187  0.8190  0.2006
  318MOL0     H41970   2.331  10.198  10.531  0.4888 -0.0549  0.5845
  318MOL0     H41971   2.370  10.365  10.480  3.3574 -0.2973 -0.1266
  318MOL0     H41972   2.536  10.277  10.324 -3.0604  0.8625 -0.5106
  318MOL0     H41973   2.546  10.265  10.496 -1.2305  1.8146 -1.2831
  318MOL0     H41974   2.576   9.871  10.313 -4.2285 -1.3057 -0.4609
  318MOL0     H41975   2.262   9.922  10.273  0.7833  1.0425 -0.1064
  318MOL0     H41976   2.310   9.754  10.105 -0.7451 -1.6935 -2.5567
  319MOL0     O41977   2.203  10.331   8.797 -0.2580 -0.1115 -0.4605
  319MOL0     C41978   2.296  10.272   8.851 -0.4311 -0.1764 -0.8010
  319MOL0     O41979   2.289  10.183   8.958 -0.5875 -0.3962 -0.2648
  319MOL0     C41980   2.167  10.167   9.022  0.1067  0.2352  0.2424
  319MOL0     C41981   2.122  10.231   9.139  0.3019  0.8808  0.8012
  319MOL0     C41982   1.999  10.199   9.193  0.5013 -0.1560 -0.5528
  319MOL0     C41983   1.918  10.097   9.143  0.3802  0.1378  0.1248
  319MOL0     O41984   1.799  10.073   9.210 -0.3763  1.1270  0.5482
  319MOL0     C41985   1.741   9.949   9.217 -1.1108 -0.1556  0.0209
  319MOL0     C41986   1.610   9.961   9.285 -0.9739  0.0051 -0.0626
  319MOL0     C41987   1.504  10.026   9.195  0.1043 -0.5579  0.1235
  319MOL0     C41988   1.364  10.037   9.247  0.0005 -0.4508 -0.1614
  319MOL0     C41989   1.292   9.897   9.216  0.0365 -0.8474  0.3253
  319MOL0     C41990   1.167   9.880   9.298  0.7885  0.1434 -0.3704
  319MOL0     C41991   1.082   9.762   9.257 -0.0056  0.7989 -0.7157
  319MOL0     C41992   1.016   9.779   9.118 -0.5549  0.0249 -0.2619
  319MOL0     N41993   0.901   9.879   9.117  0.0024  0.6462  0.7727
  319MOL0     C41994   0.786   9.863   9.183  0.0536 -0.4276  0.3801
  319MOL0     C41995   0.714   9.980   9.155 -0.1542  0.0970  0.4143
  319MOL0     C41996   0.586  10.018   9.220 -0.1979  0.5547  0.6884
  319MOL0     C41997   0.474   9.935   9.162  1.0568 -0.8844  0.3872
  319MOL0     C41998   0.346   9.946   9.240  0.2471  0.0164 -0.6743
  319MOL0     C41999   0.226   9.890   9.160 -0.3794 -0.2565 -0.2921
  319MOL0     O42000   0.107   9.945   9.207  0.3319 -0.1218 -0.2807
  319MOL0     C42001  -0.008   9.903   9.140  0.2508 -0.1187  0.4077
  319MOL0     C42002  -0.009   9.814   9.031  1.0713  0.7037 -1.3674
  319MOL0     C42003  -0.125   9.774   8.979  0.7698  0.0111 -0.2798
  319MOL0     C42004  -0.255   9.819   9.022 -0.0554  0.7281  0.2642
  319MOL0     C42005  -0.368   9.782   8.947  0.0829 -1.0045  0.0976
  319MOL0     O42006  -0.477   9.860   8.965  1.2062  0.1127  0.0766
  319MOL0     C42007  -0.603   9.835   8.923 -0.7623  0.2904 -0.5362
  319MOL0     C42008  -0.694   9.940   8.914  0.1580 -0.3364 -0.7014
  319MOL0     C42009  -0.820   9.912   8.867 -0.7816 -0.6771 -0.0377
  319MOL0     C42010  -0.866   9.780   8.848 -0.4852  0.1425  0.7383
  319MOL0     O42011  -0.993   9.759   8.805 -1.0319  0.3871  1.0319
  319MOL0     C42012  -1.088   9.833   8.881 -0.2770 -0.5848  0.2292
  319MOL0     C42013  -1.191   9.734   8.953 -0.6183  0.2289 -0.1980
  319MOL0     C42014  -1.307   9.811   9.018  0.0685 -0.6023 -0.6911
  319MOL0     C42015  -1.407   9.716   9.076  0.2950 -0.0278  0.6175
  319MOL0     C42016  -1.529   9.781   9.150 -0.1152 -0.2795  0.6483
  319MOL0     C42017  -1.638   9.677   9.182  0.3692 -0.4980  0.1642
  319MOL0     C42018  -1.703   9.695   9.318 -0.9063 -1.0025 -0.3014
  319MOL0     C42019  -1.766   9.571   9.377  0.2664 -0.7776  0.3989
  319MOL0    Cl42020  -1.912   9.529   9.305  0.1152 -0.6964 -0.4261
  319MOL0     C42021  -0.782   9.672   8.876 -1.2005  0.1112 -0.2669
  319MOL0     C42022  -0.647   9.700   8.914  0.3381 -0.0880 -0.7334
  319MOL0     O42023  -0.360   9.686   8.870 -0.4772 -0.2786 -0.5345
  319MOL0     C42024  -0.249   9.896   9.133 -0.4056 -0.5953 -0.8165
  319MOL0     C42025  -0.130   9.940   9.184  1.0276 -0.6801 -0.5317
  319MOL0     N42026   0.795  10.063   9.081 -0.1347 -0.2505 -0.3499
  319MOL0     N42027   0.908   9.998   9.055 -0.8585 -0.4548 -1.3710
  319MOL0     C42028   1.955  10.045   9.017 -0.4346  0.6808 -0.0628
  319MOL0     C42029   2.079  10.075   8.965  0.1857 -0.0066  0.2921
  319MOL0     C42030   2.426  10.312   8.810 -0.0994 -0.1974  0.6219
  319MOL0     C42031   2.538  10.263   8.881  0.3472  0.5868 -0.8136
  319MOL0     C42032   2.666  10.317   8.855 -0.2112  0.1062  0.2673
  319MOL0     C42033   2.690  10.397   8.750  0.1041 -1.0335 -0.1828
  319MOL0     O42034   2.822  10.444   8.735 -0.5900  1.2111 -0.5264
  319MOL0     C42035   2.870  10.467   8.608 -0.2085 -0.0103  0.0648
  319MOL0     C42036   3.019  10.500   8.590 -0.8926  0.1726  0.4274
  319MOL0     C42037   3.062  10.565   8.456 -0.5655  0.0822 -0.5870
  319MOL0     C42038   3.106  10.715   8.452  0.1500  0.8825  0.4171
  319MOL0     C42039   2.987  10.787   8.419 -0.5680  0.2034 -0.9369
  319MOL0     C42040   2.878  10.833   8.395  0.7098 -1.0295  0.0397
  319MOL0     C42041   2.576  10.446   8.680 -0.5873 -0.4192  0.3061
  319MOL0     C42042   2.448  10.410   8.709 -0.7125 -0.2723  0.0459
  319MOL0     H42043   2.191  10.297   9.190  1.2435 -0.0118  0.7172
  319MOL0     H42044   1.974  10.251   9.285 -0.6322 -0.6668 -0.5488
  319MOL0     H42045   1.812   9.879   9.261 -1.0991 -0.0249  0.2147
  319MOL0     H42046   1.742   9.916   9.113  1.4093 -1.7459  0.4577
  319MOL0     H42047   1.624  10.021   9.376  2.0146 -0.0148 -0.4305
  319MOL0     H42048   1.578   9.857   9.302 -1.4578  0.1379 -0.1341
  319MOL0     H42049   1.491   9.973   9.100 -2.1838 -0.7261  0.4748
  319MOL0     H42050   1.544  10.128   9.186 -0.1346 -0.5128 -0.4803
  319MOL0     H42051   1.385  10.042   9.355  3.3650  3.0668 -0.7586
  319MOL0     H42052   1.315  10.121   9.199  0.4894 -0.6328 -0.9953
  319MOL0     H42053   1.358   9.818   9.255 -0.3820 -1.0387  0.6589
  319MOL0     H42054   1.282   9.890   9.108 -0.8454  0.0033  0.3369
  319MOL0     H42055   1.107   9.969   9.276 -3.3118 -3.1212 -4.2511
  319MOL0     H42056   1.200   9.876   9.402 -0.5844 -0.9339  0.0394
  319MOL0     H42057   1.130   9.664   9.253 -2.9644 -0.7293 -2.4305
  319MOL0     H42058   1.003   9.740   9.329  0.4160 -2.4757 -1.0775
  319MOL0     H42059   0.979   9.683   9.081  0.6518 -0.0089 -1.4582
  319MOL0     H42060   1.086   9.805   9.038 -0.9983  1.0160 -0.3498
  319MOL0     H42061   0.749   9.785   9.248  0.4793  1.0615  2.4953
  319MOL0     H42062   0.569  10.126   9.224 -0.1393  0.5798  0.2503
  319MOL0     H42063   0.595   9.985   9.324  0.3732  2.4318  1.2757
  319MOL0     H42064   0.495   9.829   9.141 -2.6735 -1.6226 -0.4459
  319MOL0     H42065   0.465   9.985   9.065  3.4001 -1.4478 -0.1792
  319MOL0     H42066   0.356   9.888   9.332 -0.4590  1.1132  0.1267
  319MOL0     H42067   0.328  10.050   9.271  1.0796  1.2321 -3.8878
  319MOL0     H42068   0.213   9.782   9.162 -1.1006 -0.2549 -2.5542
  319MOL0     H42069   0.242   9.923   9.057  2.4606 -2.9904 -0.8667
  319MOL0     H42070   0.089   9.784   8.996  1.7030  1.5323 -0.3506
  319MOL0     H42071  -0.115   9.704   8.898  0.3663 -0.9321  0.4617
  319MOL0     H42072  -0.668  10.045   8.917  3.3380 -1.0559  1.0447
  319MOL0     H42073  -0.896   9.984   8.839 -1.5866 -1.5200 -0.1098
  319MOL0     H42074  -1.133   9.912   8.820  0.5627  0.0556  0.4279
  319MOL0     H42075  -1.038   9.893   8.957 -0.0486 -1.1977  0.5718
  319MOL0     H42076  -1.136   9.664   9.017 -1.3226 -0.0265  0.1350
  319MOL0     H42077  -1.237   9.672   8.875  1.5180  3.3553 -4.3175
  319MOL0     H42078  -1.366   9.865   8.943 -2.5127 -2.2587 -0.0052
  319MOL0     H42079  -1.270   9.877   9.097 -0.8638 -0.1152 -0.6404
  319MOL0     H42080  -1.456   9.660   8.995 -0.6443 -0.9348  1.7804
  319MOL0     H42081  -1.362   9.647   9.147 -1.6667 -2.0754  0.0079
  319MOL0     H42082  -1.568   9.866   9.094  1.5267  0.2598  0.2828
  319MOL0     H42083  -1.501   9.827   9.245  2.7609  3.0324 -1.5543
  319MOL0     H42084  -1.585   9.582   9.191  1.1826  0.0583  1.6572
  319MOL0     H42085  -1.716   9.669   9.106 -1.1122  1.3815  1.3898
  319MOL0     H42086  -1.630   9.735   9.389 -0.6036  1.4494 -1.8909
  319MOL0     H42087  -1.776   9.774   9.303  0.4253 -0.1757 -2.9592
  319MOL0     H42088  -1.764   9.587   9.485 -1.3659 -0.8540  0.4612
  319MOL0     H42089  -1.691   9.493   9.358  2.2010  0.8883  0.8447
  319MOL0     H42090  -0.827   9.573   8.869  0.9784 -0.7979 -4.1872
  319MOL0     H42091  -0.577   9.621   8.939  1.0198  1.1137  1.4998
  319MOL0     H42092  -0.337   9.934   9.182  0.0560 -1.2941  0.6157
  319MOL0     H42093  -0.123  10.015   9.262  1.5241  1.6281 -2.6430
  319MOL0     H42094   1.895   9.970   8.967  0.9662 -0.5432  0.0078
  319MOL0     H42095   2.117  10.020   8.879 -0.9389 -0.4633  0.0652
  319MOL0     H42096   2.526  10.195   8.965  1.5488 -0.0815 -1.1615
  319MOL0     H42097   2.745  10.289   8.923  0.7826  0.5539 -0.6759
  319MOL0     H42098   2.817  10.556   8.573 -0.9903 -0.9864 -1.3604
  319MOL0     H42099   2.849  10.382   8.542 -2.7374 -1.2508  2.3104
  319MOL0     H42100   3.024  10.572   8.673 -2.0983  2.0253 -1.0300
  319MOL0     H42101   3.078  10.417   8.628 -3.0815 -0.6269  2.3059
  319MOL0     H42102   2.975  10.550   8.391 -0.0845 -0.9812 -1.0003
  319MOL0     H42103   3.139  10.503   8.408 -1.1398  0.6493 -2.3320
  319MOL0     H42104   3.145  10.735   8.552  2.4767  2.7925 -0.7595
  319MOL0     H42105   3.182  10.724   8.374 -0.1755 -1.4462 -0.2432
  319MOL0     H42106   2.783  10.881   8.385  1.3102 -0.0747 -1.3513
  319MOL0     H42107   2.591  10.518   8.600 -0.6131  0.0896  0.7554
  319MOL0     H42108   2.383  10.454   8.633  1.0269 -0.7409 -1.8188
  320MOL0     O42109  10.255   2.782   3.924 -0.1366 -0.7025 -0.1135
  320MOL0     C42110  10.373   2.781   3.895 -0.4902  0.2724 -0.3505
  320MOL0     O42111  10.429   2.812   3.776 -0.4640  0.0672  0.4741
  320MOL0     C42112  10.348   2.869   3.677  0.5038 -0.3858 -1.1605
  320MOL0     C42113  10.401   2.856   3.546 -0.3749 -0.1174 -1.7050
  320MOL0     C42114  10.338   2.894   3.438 -0.0837 -0.4603  0.2571
  320MOL0     C42115  10.210   2.953   3.447 -0.3897  0.1956  0.4417
  320MOL0     O42116  10.137   2.987   3.332 -0.4152 -0.1509  0.4113
  320MOL0     C42117   9.998   2.986   3.353  0.7272 -0.3159  0.3481
  320MOL0     C42118   9.917   2.957   3.219 -0.2247 -0.9748 -0.1598
  320MOL0     C42119   9.908   2.807   3.197  0.1680  0.3647  0.6088
  320MOL0     C42120   9.813   2.718   3.293  0.2179  0.0219 -0.0292
  320MOL0     C42121   9.779   2.583   3.231  0.1613  0.0137  0.2169
  320MOL0     C42122   9.660   2.586   3.141 -0.4627  1.3445  0.1510
  320MOL0     C42123   9.638   2.465   3.053 -1.0293 -0.3756 -0.6252
  320MOL0     C42124   9.616   2.338   3.116 -0.2795  0.2316 -1.9330
  320MOL0     N42125   9.498   2.339   3.198  0.7701 -0.3702  0.0173
  320MOL0     C42126   9.478   2.358   3.332 -0.0871 -0.2219  0.4302
  320MOL0     C42127   9.347   2.312   3.357  0.1672  0.7975 -0.3293
  320MOL0     C42128   9.282   2.311   3.495  1.2125 -0.1972 -0.5533
  320MOL0     C42129   9.176   2.199   3.504  0.8607  0.3164 -0.3179
  320MOL0     C42130   9.219   2.050   3.528 -0.3226 -0.1858 -0.2490
  320MOL0     C42131   9.310   2.025   3.654  0.8541 -0.4719  1.0016
  320MOL0     O42132   9.241   2.061   3.768  0.7130 -0.1288  0.7025
  320MOL0     C42133   9.293   2.029   3.891  0.4773  0.2206  0.3012
  320MOL0     C42134   9.208   2.063   3.998 -0.4337  0.7201 -0.2607
  320MOL0     C42135   9.244   2.026   4.133 -0.6952  0.1354  0.5690
  320MOL0     C42136   9.365   1.965   4.165 -0.3083 -0.9919 -0.2670
  320MOL0     C42137   9.392   1.939   4.305  0.3184 -0.4363  0.0675
  320MOL0     O42138   9.490   1.846   4.318  0.6131  0.1611 -0.9663
  320MOL0     C42139   9.540   1.829   4.443 -0.8660 -0.6825  0.2081
  320MOL0     C42140   9.504   1.709   4.513 -0.0376 -0.7212  0.1768
  320MOL0     C42141   9.554   1.690   4.643 -0.2876  0.0628  0.0548
  320MOL0     C42142   9.648   1.779   4.701  0.1020 -0.5741  0.5210
  320MOL0     O42143   9.707   1.771   4.826  0.4303 -0.1309 -0.2324
  320MOL0     C42144   9.636   1.684   4.919  0.2609 -0.1884  0.4142
  320MOL0     C42145   9.697   1.687   5.059  0.3201 -0.2886 -0.0070
  320MOL0     C42146   9.771   1.560   5.095 -0.6143 -0.2338 -0.1705
  320MOL0     C42147   9.824   1.560   5.239  0.1035 -0.0145 -0.8429
  320MOL0     C42148   9.943   1.478   5.276  0.1392 -0.2708 -0.7434
  320MOL0     C42149   9.958   1.483   5.425  0.5492  0.4258  0.6773
  320MOL0     C42150   9.858   1.412   5.520 -0.3279 -0.3994 -0.5816
  320MOL0     C42151   9.852   1.262   5.497 -0.0419  0.8980  0.6014
  320MOL0    Cl42152   9.685   1.205   5.545 -0.1532  0.6853  0.3429
  320MOL0     C42153   9.706   1.880   4.622 -0.3950 -0.6921 -1.0767
  320MOL0     C42154   9.642   1.918   4.496 -0.2259  0.5645  0.5716
  320MOL0     O42155   9.330   1.996   4.396 -0.2200 -0.5755  0.6058
  320MOL0     C42156   9.447   1.932   4.057 -0.2119 -0.2279  0.3268
  320MOL0     C42157   9.412   1.961   3.922 -0.0032 -0.3929 -0.1852
  320MOL0     N42158   9.289   2.286   3.235 -0.1991 -0.4879 -0.3610
  320MOL0     N42159   9.377   2.302   3.143  0.1667  0.0927 -0.4153
  320MOL0     C42160  10.158   2.977   3.571 -0.3483  0.6632 -0.6946
  320MOL0     C42161  10.226   2.933   3.690  0.8136  0.5159  0.4440
  320MOL0     C42162  10.466   2.741   4.001 -0.1999  0.4608 -0.9134
  320MOL0     C42163  10.422   2.687   4.120  0.0947 -0.5775  0.4162
  320MOL0     C42164  10.511   2.656   4.223 -0.4154  0.5029  0.7511
  320MOL0     C42165  10.652   2.671   4.217  0.1967  0.1769  1.0228
  320MOL0     O42166  10.750   2.640   4.302  0.7907  0.6420  0.1978
  320MOL0     C42167  10.714   2.603   4.436 -0.3870 -0.1694  0.5698
  320MOL0     C42168  10.728   2.451   4.461 -0.8177 -0.1463 -0.1642
  320MOL0     C42169  10.803   2.421   4.593 -0.1657  0.4196  0.2115
  320MOL0     C42170  10.899   2.302   4.574 -0.0985 -0.2190  0.8030
  320MOL0     C42171  10.988   2.276   4.682 -1.0472  1.2510 -0.0791
  320MOL0     C42172  11.062   2.261   4.778  0.1104 -0.3403 -0.7574
  320MOL0     C42173  10.692   2.732   4.092  0.4252  0.7554  0.1397
  320MOL0     C42174  10.604   2.765   3.991 -0.8069 -0.1312  0.6058
  320MOL0     H42175  10.498   2.810   3.526 -0.7963 -1.0279 -1.6979
  320MOL0     H42176  10.385   2.871   3.343  1.2982 -2.9090  1.4402
  320MOL0     H42177   9.972   3.086   3.390 -0.1408 -1.8009  4.2236
  320MOL0     H42178   9.960   2.920   3.431 -2.0516  1.4515  0.6258
  320MOL0     H42179   9.972   3.008   3.140 -1.7847  3.4032  1.2882
  320MOL0     H42180   9.818   3.003   3.230  0.4998  0.2982  1.4463
  320MOL0     H42181  10.011   2.774   3.209  0.5235  0.9100 -0.8013
  320MOL0     H42182   9.872   2.792   3.095  2.1958 -2.1246  0.1779
  320MOL0     H42183   9.878   2.695   3.378  2.1503 -1.1070 -1.7351
  320MOL0     H42184   9.728   2.782   3.319  0.3345  1.6460 -3.1477
  320MOL0     H42185   9.763   2.508   3.309  1.4399 -1.4160 -0.8303
  320MOL0     H42186   9.866   2.543   3.179  1.9178  1.9355  1.5484
  320MOL0     H42187   9.660   2.679   3.083 -2.9725  2.3876  1.6366
  320MOL0     H42188   9.563   2.588   3.193 -1.9458  0.8287 -2.4428
  320MOL0     H42189   9.550   2.492   2.993  0.1914 -1.2419 -2.9490
  320MOL0     H42190   9.724   2.451   2.987 -2.2985  2.3523 -3.0753
  320MOL0     H42191   9.701   2.307   3.177  0.4009 -1.2403 -3.5496
  320MOL0     H42192   9.606   2.263   3.037  0.4349 -0.8753 -1.0141
  320MOL0     H42193   9.547   2.372   3.415 -1.5301  0.8610  1.4953
  320MOL0     H42194   9.218   2.399   3.504  0.3413 -0.5887 -2.3706
  320MOL0     H42195   9.362   2.309   3.570  1.9190  0.2222 -1.2872
  320MOL0     H42196   9.117   2.201   3.412  1.4934 -1.8204 -0.8381
  320MOL0     H42197   9.108   2.224   3.586  1.5438 -1.5154  0.8896
  320MOL0     H42198   9.118   2.007   3.534 -1.0924  1.4520 -0.8324
  320MOL0     H42199   9.278   2.006   3.448  0.1422 -0.3037  0.1536
  320MOL0     H42200   9.408   2.074   3.651  0.5843  0.0406 -0.7951
  320MOL0     H42201   9.327   1.917   3.649 -0.6807 -0.7304 -3.6498
  320MOL0     H42202   9.113   2.106   3.967 -0.4633  0.6790 -0.2257
  320MOL0     H42203   9.188   2.063   4.218 -0.5386 -3.2269  2.2783
  320MOL0     H42204   9.438   1.638   4.463 -0.6347 -1.4107  1.8681
  320MOL0     H42205   9.513   1.610   4.704  1.1064 -2.6311 -2.2575
  320MOL0     H42206   9.642   1.583   4.879  2.7091  0.4428 -1.0351
  320MOL0     H42207   9.529   1.708   4.918  0.0942 -0.9160 -0.9714
  320MOL0     H42208   9.610   1.711   5.120 -4.2297 -0.7150 -5.4894
  320MOL0     H42209   9.773   1.765   5.067 -1.2670  1.3642 -0.3236
  320MOL0     H42210   9.852   1.548   5.023  1.2372  2.0960  1.3888
  320MOL0     H42211   9.702   1.475   5.098  1.5372 -2.0483  1.4639
  320MOL0     H42212   9.862   1.661   5.258 -1.6381  0.4348  0.5197
  320MOL0     H42213   9.741   1.524   5.300  1.1717 -0.4891  0.3785
  320MOL0     H42214  10.032   1.516   5.226  0.3217  0.1090 -0.1413
  320MOL0     H42215   9.929   1.374   5.243 -0.9306 -0.8774  1.4064
  320MOL0     H42216   9.954   1.589   5.453  0.3046  0.3926  0.7652
  320MOL0     H42217  10.057   1.447   5.455  0.8687  0.6679 -0.0829
  320MOL0     H42218   9.871   1.429   5.628 -2.9394 -1.9496  0.0637
  320MOL0     H42219   9.753   1.438   5.502  0.2524  1.9309 -0.8742
  320MOL0     H42220   9.936   1.215   5.549 -0.6768 -0.5991  0.3326
  320MOL0     H42221   9.863   1.246   5.389 -1.6012  0.3186  0.4998
  320MOL0     H42222   9.788   1.942   4.654 -1.4064  1.1705 -1.9057
  320MOL0     H42223   9.685   1.997   4.436 -1.5517  1.5381  0.8475
  320MOL0     H42224   9.546   1.900   4.087 -0.8620 -0.0619  2.9388
  320MOL0     H42225   9.484   1.942   3.843 -0.4156 -3.3243  0.0493
  320MOL0     H42226  10.075   3.043   3.593  0.2158  0.8944  0.8603
  320MOL0     H42227  10.178   2.962   3.783 -1.7098  0.2322 -0.6699
  320MOL0     H42228  10.316   2.667   4.118 -0.1787  0.7251 -2.0294
  320MOL0     H42229  10.475   2.611   4.315  1.0252 -0.7567  0.7408
  320MOL0     H42230  10.619   2.648   4.466  0.2061  1.6603 -0.1580
  320MOL0     H42231  10.790   2.653   4.497  0.0923  2.0267 -1.6765
  320MOL0     H42232  10.633   2.398   4.460 -0.8334 -0.1471  0.5538
  320MOL0     H42233  10.789   2.408   4.381  0.4062  0.5604  0.3534
  320MOL0     H42234  10.719   2.394   4.657 -0.1622  2.9039  1.3818
  320MOL0     H42235  10.857   2.506   4.635  0.3894  0.1927 -0.0310
  320MOL0     H42236  10.842   2.208   4.565  1.3581 -1.0658  0.1461
  320MOL0     H42237  10.959   2.307   4.483 -0.2290 -2.1649  0.5694
  320MOL0     H42238  11.132   2.269   4.858  1.0952 -1.1484 -1.5045
  320MOL0     H42239  10.794   2.763   4.070 -0.1812  0.8869 -2.9529
  320MOL0     H42240  10.648   2.804   3.900  0.5326 -0.4839  1.0792
  321MOL0     O42241   9.239   7.787   9.381 -0.0272 -0.3854  0.1219
  321MOL0     C42242   9.198   7.880   9.308 -0.4605  0.3556 -0.6453
  321MOL0     O42243   9.071   7.914   9.278  0.3115  0.5362  0.5386
  321MOL0     C42244   8.965   7.852   9.350  0.7277  0.4160  0.2007
  321MOL0     C42245   8.841   7.836   9.283 -0.5684 -0.9944  0.1798
  321MOL0     C42246   8.741   7.765   9.340  0.6327 -0.5565 -0.4741
  321MOL0     C42247   8.740   7.723   9.470  0.1825  0.3367 -0.2182
  321MOL0     O42248   8.616   7.680   9.506  0.1098 -0.2391 -0.3260
  321MOL0     C42249   8.585   7.701   9.647 -0.2420  0.3562 -0.1564
  321MOL0     C42250   8.442   7.684   9.685 -0.9376  0.0516  0.2217
  321MOL0     C42251   8.408   7.656   9.831  0.2373 -1.4151 -0.7118
  321MOL0     C42252   8.263   7.643   9.857 -0.7284  0.8932 -0.9248
  321MOL0     C42253   8.252   7.610  10.011 -0.7607  0.5130 -0.7739
  321MOL0     C42254   8.117   7.561  10.061  0.0788 -0.2401 -0.6939
  321MOL0     C42255   8.138   7.535  10.208  1.1262 -0.0473  0.1237
  321MOL0     C42256   8.007   7.487  10.292  0.4574  0.3116  0.5451
  321MOL0     N42257   7.971   7.347  10.262 -0.1496  0.2570  0.1170
  321MOL0     C42258   8.026   7.233  10.309 -0.3530  0.2165 -0.4444
  321MOL0     C42259   7.976   7.135  10.243 -1.0242 -0.3237  0.5003
  321MOL0     C42260   8.014   6.990  10.261  0.0788  0.2308 -0.5161
  321MOL0     C42261   7.891   6.901  10.309 -0.0669 -0.0458 -0.0520
  321MOL0     C42262   7.771   6.895  10.212  0.1405  0.1821 -0.0496
  321MOL0     C42263   7.638   6.862  10.288  0.3506 -1.0969 -0.0970
  321MOL0     O42264   7.533   6.838  10.187  0.1293  0.3200  0.3484
  321MOL0     C42265   7.405   6.825  10.226  0.0802 -0.8149 -0.2395
  321MOL0     C42266   7.354   6.828  10.355 -0.2190  0.4130  0.7304
  321MOL0     C42267   7.214   6.821  10.384 -0.6566 -0.0689  0.0595
  321MOL0     C42268   7.122   6.821  10.278  0.1428  0.7529 -0.6663
  321MOL0     C42269   6.987   6.840  10.313  0.1399  0.5700  0.2860
  321MOL0     O42270   6.952   6.759  10.418  0.1454  0.8796 -0.4270
  321MOL0     C42271   6.830   6.784  10.458  0.0676 -0.0266 -0.6502
  321MOL0     C42272   6.720   6.707  10.422 -1.1695 -0.0155  0.6630
  321MOL0     C42273   6.589   6.741  10.457 -0.0352 -0.0104 -0.3870
  321MOL0     C42274   6.566   6.842  10.548  0.0091 -0.4130  0.0141
  321MOL0     O42275   6.437   6.872  10.584 -0.0257  0.6597 -0.0210
  321MOL0     C42276   6.412   6.966  10.690 -0.0686 -0.7360  0.6326
  321MOL0     C42277   6.259   6.979  10.694  0.7327  0.3643 -0.4941
  321MOL0     C42278   6.218   7.059  10.823  0.3409 -0.7119  0.5896
  321MOL0     C42279   6.069   7.075  10.833  0.3009  0.5495  0.6905
  321MOL0     C42280   6.034   7.120  10.981  0.7762  0.6538 -0.3675
  321MOL0     C42281   5.885   7.163  10.994  0.2075  0.2673  0.8324
  321MOL0     C42282   5.775   7.065  10.969  0.1498  0.5201 -0.1299
  321MOL0     C42283   5.636   7.134  10.991 -0.3787  0.0290 -0.4450
  321MOL0    Cl42284   5.606   7.153  11.168  0.3582  0.1880 -0.0883
  321MOL0     C42285   6.687   6.913  10.594 -0.6682 -0.3152 -0.4192
  321MOL0     C42286   6.814   6.895  10.548 -0.0872 -0.0586 -0.7182
  321MOL0     O42287   6.926   6.939  10.268 -0.5165  0.2217  0.0839
  321MOL0     C42288   7.176   6.820  10.149  0.3104 -0.7169  0.8629
  321MOL0     C42289   7.315   6.824  10.124 -0.4076 -0.7478 -0.9133
  321MOL0     N42290   7.888   7.183  10.156 -0.5011 -0.4538 -0.2231
  321MOL0     N42291   7.884   7.313  10.171 -0.0986 -0.9583  0.4079
  321MOL0     C42292   8.848   7.756   9.552 -0.0245 -0.3282  0.3415
  321MOL0     C42293   8.964   7.818   9.492  0.2321 -0.5205 -0.5268
  321MOL0     C42294   9.306   7.967   9.271  0.1870 -0.0936 -0.2953
  321MOL0     C42295   9.440   7.919   9.246 -0.9528 -0.5125 -0.1043
  321MOL0     C42296   9.545   7.998   9.202  0.1955 -0.2760 -0.2749
  321MOL0     C42297   9.513   8.133   9.159  0.5091  0.4079  0.9143
  321MOL0     O42298   9.607   8.210   9.102 -0.5192  0.0618  0.0968
  321MOL0     C42299   9.588   8.240   8.960 -0.2631 -0.4657 -0.4421
  321MOL0     C42300   9.723   8.209   8.888  0.9194 -0.5817 -0.9973
  321MOL0     C42301   9.723   8.275   8.748 -1.1383  1.1600  0.0751
  321MOL0     C42302   9.793   8.403   8.750 -0.2975  0.4071 -0.4387
  321MOL0     C42303   9.747   8.496   8.653 -0.1143 -0.2527  0.0594
  321MOL0     C42304   9.704   8.592   8.589  0.3292 -0.5182 -0.2923
  321MOL0     C42305   9.380   8.181   9.166 -0.4258  0.2940 -1.2873
  321MOL0     C42306   9.280   8.103   9.227  0.0363 -0.4875  0.3700
  321MOL0     H42307   8.820   7.882   9.187 -2.7217  2.1060  1.9176
  321MOL0     H42308   8.649   7.760   9.284 -0.4950  0.6926  1.1627
  321MOL0     H42309   8.616   7.802   9.676 -1.1314  1.8210 -3.7303
  321MOL0     H42310   8.649   7.631   9.701  2.6138 -1.0716 -4.8321
  321MOL0     H42311   8.402   7.596   9.632 -0.5233 -0.1139  0.1848
  321MOL0     H42312   8.390   7.771   9.643  1.9049  1.5334 -0.4284
  321MOL0     H42313   8.432   7.746   9.888 -2.8773 -1.5910  1.1268
  321MOL0     H42314   8.476   7.586   9.880 -1.2747 -1.3929  1.6199
  321MOL0     H42315   8.211   7.734   9.826  1.9118  2.2537 -1.6983
  321MOL0     H42316   8.221   7.557   9.803  0.5080 -1.0251  0.9989
  321MOL0     H42317   8.307   7.680  10.074  0.0043  0.9064 -1.8539
  321MOL0     H42318   8.309   7.517  10.023 -1.8480 -0.2381 -1.3072
  321MOL0     H42319   8.080   7.475  10.005 -0.6108 -0.2049 -0.2919
  321MOL0     H42320   8.041   7.633  10.031  0.4500  2.2549  3.6284
  321MOL0     H42321   8.213   7.456  10.214  1.7468 -0.0394 -4.2235
  321MOL0     H42322   8.164   7.623  10.268 -3.0853  1.1011  0.6207
  321MOL0     H42323   7.924   7.554  10.270 -0.4852  0.2127  3.4249
  321MOL0     H42324   8.022   7.493  10.401  2.0613 -2.4059  0.5727
  321MOL0     H42325   8.096   7.220  10.391  2.1300 -0.5879 -2.5424
  321MOL0     H42326   8.103   6.993  10.324  1.7032  1.6886 -2.7171
  321MOL0     H42327   8.045   6.948  10.164 -1.5695 -0.3740 -0.8048
  321MOL0     H42328   7.844   6.931  10.403 -1.1597 -0.9374 -0.2931
  321MOL0     H42329   7.930   6.799  10.305  1.3612  0.2159  3.6385
  321MOL0     H42330   7.753   6.993  10.166 -0.9856  1.6120  3.1349
  321MOL0     H42331   7.767   6.815  10.137 -1.1969  0.2366 -0.0591
  321MOL0     H42332   7.613   6.944  10.356  0.7352  0.0485 -1.2987
  321MOL0     H42333   7.641   6.773  10.353 -1.0953 -0.5433  0.7861
  321MOL0     H42334   7.415   6.847  10.443  1.9377  1.5952 -0.9225
  321MOL0     H42335   7.184   6.817  10.489 -0.9738 -6.1487  0.1078
  321MOL0     H42336   6.744   6.622  10.358 -0.6038 -1.3780  2.5884
  321MOL0     H42337   6.508   6.678  10.421 -1.4352  1.2890  0.3764
  321MOL0     H42338   6.465   7.061  10.673  0.2579 -1.1622 -0.8953
  321MOL0     H42339   6.460   6.916  10.775  2.3517  2.7142  1.5221
  321MOL0     H42340   6.203   6.886  10.704 -1.7144  1.6245 -1.5230
  321MOL0     H42341   6.216   7.033  10.610 -0.2718  0.1844 -0.1078
  321MOL0     H42342   6.266   7.157  10.828 -1.6989  0.5245 -1.7935
  321MOL0     H42343   6.263   7.007  10.909  4.7953  2.6464  0.6689
  321MOL0     H42344   6.040   7.142  10.752 -1.3486 -3.1194 -2.0687
  321MOL0     H42345   6.017   6.981  10.808  2.3104  0.2523 -3.0962
  321MOL0     H42346   6.100   7.201  11.015  0.9395 -0.4554  2.1530
  321MOL0     H42347   6.043   7.035  11.049 -1.2778 -0.6038 -1.5631
  321MOL0     H42348   5.884   7.246  10.922  2.8406 -1.8135 -1.8679
  321MOL0     H42349   5.860   7.213  11.088  4.3710  0.4759  2.0187
  321MOL0     H42350   5.781   7.012  10.873 -0.3153  0.6484 -0.2302
  321MOL0     H42351   5.770   6.984  11.042 -0.8948 -0.4403 -1.2223
  321MOL0     H42352   5.557   7.078  10.940 -0.0225 -2.3268  1.4414
  321MOL0     H42353   5.650   7.236  10.952  1.0420 -0.3528 -0.9895
  321MOL0     H42354   6.672   6.988  10.671  0.8918 -1.7567  1.4014
  321MOL0     H42355   6.904   6.941  10.587  1.8730 -1.2194 -3.5148
  321MOL0     H42356   7.108   6.825  10.065  1.7735 -2.3637 -0.4898
  321MOL0     H42357   7.349   6.846  10.023 -0.5314  1.8785 -0.4398
  321MOL0     H42358   8.848   7.730   9.657 -2.2924  0.6869  0.6525
  321MOL0     H42359   9.053   7.835   9.552 -0.9695  2.8814  0.5249
  321MOL0     H42360   9.473   7.820   9.279 -0.3294  0.6879  3.2300
  321MOL0     H42361   9.644   7.962   9.178  1.5846  1.7985  1.7826
  321MOL0     H42362   9.559   8.346   8.960 -1.8089 -0.8623 -0.0001
  321MOL0     H42363   9.503   8.182   8.925 -0.7862 -1.5247  2.3036
  321MOL0     H42364   9.804   8.238   8.955  0.9662 -5.1526  1.3056
  321MOL0     H42365   9.729   8.100   8.880 -4.0128 -1.2543  0.7139
  321MOL0     H42366   9.619   8.297   8.719 -1.6239  0.1014  0.9682
  321MOL0     H42367   9.765   8.205   8.675 -0.8691  2.0327 -0.6371
  321MOL0     H42368   9.783   8.451   8.848 -1.0448  1.5972 -1.0699
  321MOL0     H42369   9.901   8.392   8.736 -0.0073 -0.1333  1.8228
  321MOL0     H42370   9.662   8.669   8.528 -0.3390  0.4695  1.3459
  321MOL0     H42371   9.361   8.283   9.134  0.9752  0.8434 -0.4497
  321MOL0     H42372   9.184   8.148   9.249  0.4646  0.3646  0.5139
  322MOL0     O42373   9.671   3.994   4.001  0.0672 -0.0175  0.2217
  322MOL0     C42374   9.684   4.094   4.075 -0.5707  0.5603 -0.7631
  322MOL0     O42375   9.587   4.159   4.137  0.2366 -0.7546  0.1013
  322MOL0     C42376   9.465   4.102   4.137 -0.9882 -0.4175 -1.0935
  322MOL0     C42377   9.363   4.189   4.123 -0.3679 -0.6542  0.9390
  322MOL0     C42378   9.235   4.144   4.120  0.8745  0.2499 -0.2967
  322MOL0     C42379   9.197   4.005   4.137  0.9013 -1.1929 -0.7087
  322MOL0     O42380   9.064   3.979   4.147  0.1782  0.0329 -0.3926
  322MOL0     C42381   9.035   3.853   4.084 -0.3410 -0.2099 -0.1196
  322MOL0     C42382   8.883   3.841   4.088 -1.1670  0.8787 -0.3066
  322MOL0     C42383   8.839   3.717   4.019 -0.3895 -1.3744 -0.3605
  322MOL0     C42384   8.688   3.688   4.053  0.8009 -0.5212  0.4386
  322MOL0     C42385   8.627   3.569   3.975  0.7068  0.1427  0.0635
  322MOL0     C42386   8.487   3.533   4.011  0.0260 -0.8160 -0.1062
  322MOL0     C42387   8.490   3.427   4.118  0.5881  0.4663 -0.1765
  322MOL0     C42388   8.360   3.403   4.193 -0.8634  0.2547 -0.6352
  322MOL0     N42389   8.352   3.254   4.202 -0.0941  0.4979  0.5892
  322MOL0     C42390   8.257   3.189   4.132 -0.4176  0.3023 -0.8798
  322MOL0     C42391   8.278   3.053   4.161 -0.9067 -0.5769 -0.2968
  322MOL0     C42392   8.184   2.937   4.128 -0.9303  0.2074 -0.0605
  322MOL0     C42393   8.097   2.895   4.256  0.3123  0.3323 -0.4495
  322MOL0     C42394   7.958   2.873   4.196  0.3010  0.5489 -0.2133
  322MOL0     C42395   7.865   2.824   4.300 -0.4716  0.4455 -0.5708
  322MOL0     O42396   7.909   2.688   4.346  0.1713  0.2157  0.0934
  322MOL0     C42397   7.827   2.624   4.443  0.6694 -0.7996  0.1031
  322MOL0     C42398   7.870   2.500   4.483 -0.4422  0.4054 -0.1125
  322MOL0     C42399   7.787   2.432   4.566  0.2877  0.0025  0.5197
  322MOL0     C42400   7.675   2.496   4.623  0.5488 -0.5972 -0.1579
  322MOL0     C42401   7.589   2.411   4.721 -0.0508  0.1713 -0.4732
  322MOL0     O42402   7.451   2.439   4.726 -0.0316 -0.3043  0.9442
  322MOL0     C42403   7.354   2.355   4.775 -0.4046 -0.3535  0.5294
  322MOL0     C42404   7.372   2.251   4.870 -0.7349 -0.5700  0.3038
  322MOL0     C42405   7.271   2.189   4.945 -0.2039  0.2416 -1.0742
  322MOL0     C42406   7.138   2.236   4.914 -0.3521 -0.6195 -1.1486
  322MOL0     O42407   7.028   2.194   4.985 -0.3711 -0.3163 -0.7933
  322MOL0     C42408   7.036   2.130   5.110 -0.1150 -0.4061 -0.6686
  322MOL0     C42409   6.896   2.105   5.164  0.6994 -0.3738 -1.0107
  322MOL0     C42410   6.796   2.224   5.178  0.4250  1.0312  0.0514
  322MOL0     C42411   6.738   2.276   5.048  0.4363  0.1096  0.2158
  322MOL0     C42412   6.595   2.339   5.077 -0.6144 -0.1773 -0.0593
  322MOL0     C42413   6.591   2.482   5.142 -0.2879  0.5757 -0.2770
  322MOL0     C42414   6.453   2.548   5.130 -0.1042  0.8561  1.0522
  322MOL0     C42415   6.442   2.690   5.186 -0.3671  0.0264  0.4222
  322MOL0    Cl42416   6.444   2.681   5.372 -0.3622 -0.6457  0.0931
  322MOL0     C42417   7.116   2.339   4.824 -0.1209  0.4522 -0.2182
  322MOL0     C42418   7.224   2.398   4.755 -0.4681  0.5845 -0.1975
  322MOL0     O42419   7.649   2.321   4.780  0.2397 -0.0433  0.4151
  322MOL0     C42420   7.639   2.626   4.582 -0.1592  0.8718  1.5777
  322MOL0     C42421   7.716   2.692   4.494  0.2116 -0.3153 -0.2958
  322MOL0     N42422   8.397   3.044   4.240 -0.2335  0.1513 -0.2053
  322MOL0     N42423   8.440   3.167   4.256 -0.0842 -0.0762 -0.2067
  322MOL0     C42424   9.297   3.918   4.169  1.0206 -0.3376  1.0948
  322MOL0     C42425   9.431   3.965   4.161 -0.0100 -0.8808  0.4111
  322MOL0     C42426   9.822   4.136   4.085  0.9265 -0.3942 -0.3352
  322MOL0     C42427   9.930   4.078   4.009  0.1705 -0.9921 -0.1951
  322MOL0     C42428  10.059   4.127   4.024 -0.0313  0.4561  0.3873
  322MOL0     C42429  10.089   4.225   4.124  0.6866 -0.2560  0.5144
  322MOL0     O42430  10.222   4.279   4.134 -0.5378  0.1263 -0.0958
  322MOL0     C42431  10.334   4.218   4.064 -1.1659 -0.1367 -0.4967
  322MOL0     C42432  10.464   4.301   4.066 -0.4728  0.3419 -0.3510
  322MOL0     C42433  10.566   4.257   3.959 -0.0821 -0.1799 -1.1929
  322MOL0     C42434  10.624   4.112   3.982  0.8437 -0.3200 -0.4764
  322MOL0     C42435  10.755   4.109   3.921 -1.1379 -0.1892 -0.9742
  322MOL0     C42436  10.864   4.100   3.875 -0.6493 -0.5320 -0.6585
  322MOL0     C42437   9.991   4.275   4.203 -0.7028  0.7516 -0.9551
  322MOL0     C42438   9.858   4.233   4.187  0.9260  0.0266 -0.1192
  322MOL0     H42439   9.369   4.293   4.095 -1.0405 -0.8933 -0.1504
  322MOL0     H42440   9.142   4.200   4.114  1.8502  1.7214 -2.8683
  322MOL0     H42441   9.075   3.771   4.144 -0.7581  0.2311  0.7793
  322MOL0     H42442   9.073   3.857   3.982  1.3897  2.1922  0.5273
  322MOL0     H42443   8.829   3.921   4.036 -2.2915 -1.4900 -3.0617
  322MOL0     H42444   8.838   3.849   4.187 -0.9685 -0.5010 -0.0880
  322MOL0     H42445   8.904   3.638   4.057 -1.0815 -0.4758  3.0018
  322MOL0     H42446   8.853   3.723   3.910  0.6899 -0.1600 -0.1814
  322MOL0     H42447   8.684   3.666   4.160  2.5691  0.7815  0.8209
  322MOL0     H42448   8.624   3.776   4.035  2.3737  0.2104 -2.0886
  322MOL0     H42449   8.693   3.482   3.975  0.1102 -0.3275  1.1980
  322MOL0     H42450   8.625   3.591   3.868 -0.0457  1.0622  0.2514
  322MOL0     H42451   8.434   3.498   3.922  3.0269  0.3338 -2.5377
  322MOL0     H42452   8.420   3.616   4.036 -3.0271 -2.2642 -2.8314
  322MOL0     H42453   8.516   3.336   4.063  0.3899 -0.7577  1.6683
  322MOL0     H42454   8.567   3.449   4.192  1.3993 -0.9418 -0.5738
  322MOL0     H42455   8.280   3.453   4.138 -1.3414 -0.1534 -0.3167
  322MOL0     H42456   8.370   3.445   4.293  1.4436 -0.8337 -0.3543
  322MOL0     H42457   8.181   3.235   4.070 -3.1904 -0.9684  1.3894
  322MOL0     H42458   8.235   2.851   4.085 -0.0671  0.0147  1.2968
  322MOL0     H42459   8.104   2.965   4.058 -2.8173 -1.7222  1.1838
  322MOL0     H42460   8.090   2.971   4.335  3.9103 -1.5369  1.9397
  322MOL0     H42461   8.137   2.804   4.301 -0.8519  1.0117  2.1069
  322MOL0     H42462   7.936   2.974   4.160  2.0007  1.2742  0.6371
  322MOL0     H42463   7.954   2.803   4.113  1.1987 -2.2129  1.8978
  322MOL0     H42464   7.756   2.827   4.286 -0.5788  5.4021 -0.5077
  322MOL0     H42465   7.870   2.897   4.381 -1.6280  0.2781 -0.3267
  322MOL0     H42466   7.956   2.453   4.437 -0.9382  0.3422 -0.9917
  322MOL0     H42467   7.813   2.331   4.596  0.9597  0.5543  1.8757
  322MOL0     H42468   7.473   2.223   4.900  0.1920  1.5707 -0.6390
  322MOL0     H42469   7.295   2.103   5.007  1.7497  0.8293 -0.9705
  322MOL0     H42470   7.087   2.197   5.179 -0.7820  1.0480 -1.5460
  322MOL0     H42471   7.084   2.033   5.093  2.3155  0.9387 -1.9552
  322MOL0     H42472   6.914   2.061   5.263 -1.5933  2.7829  0.9994
  322MOL0     H42473   6.854   2.029   5.098 -3.9173  1.3226 -0.3930
  322MOL0     H42474   6.842   2.307   5.234  0.1713  2.5654 -1.9029
  322MOL0     H42475   6.711   2.194   5.240 -1.1291  4.4533 -0.1659
  322MOL0     H42476   6.811   2.338   4.997 -0.2018  0.7585  0.0669
  322MOL0     H42477   6.720   2.194   4.979  1.2074 -0.6510  0.8986
  322MOL0     H42478   6.529   2.283   5.144 -2.3198  2.8728  0.9889
  322MOL0     H42479   6.533   2.338   4.987 -0.9284 -0.1872  0.1546
  322MOL0     H42480   6.667   2.548   5.098  0.6451  0.6741  1.4032
  322MOL0     H42481   6.628   2.471   5.245 -0.3339  0.3932 -0.2796
  322MOL0     H42482   6.420   2.555   5.026 -2.3512 -0.9585  1.5567
  322MOL0     H42483   6.385   2.479   5.182 -2.0003  2.3829  0.7333
  322MOL0     H42484   6.342   2.725   5.160 -1.0740 -1.4747  1.0070
  322MOL0     H42485   6.521   2.758   5.153 -1.4269  2.7576  3.0396
  322MOL0     H42486   7.019   2.388   4.822  0.1816  1.0720 -2.7022
  322MOL0     H42487   7.206   2.482   4.689 -2.4612 -0.7606 -1.4945
  322MOL0     H42488   7.551   2.677   4.621 -0.4504  0.0436  2.0329
  322MOL0     H42489   7.683   2.793   4.472  1.5938 -0.3463 -2.8294
  322MOL0     H42490   9.277   3.815   4.196  2.7156 -1.1521 -0.5117
  322MOL0     H42491   9.517   3.901   4.180  1.6073 -0.1521 -3.4446
  322MOL0     H42492   9.920   4.002   3.933  1.1081 -0.0191 -1.3311
  322MOL0     H42493  10.132   4.073   3.965  1.3631  0.5443  1.9393
  322MOL0     H42494  10.300   4.205   3.961  2.3064  2.2891 -2.1348
  322MOL0     H42495  10.348   4.119   4.108 -1.1734  0.8576  1.9329
  322MOL0     H42496  10.442   4.405   4.040  0.1875  1.7418  3.9039
  322MOL0     H42497  10.503   4.296   4.168  1.3478 -2.8925 -1.0742
  322MOL0     H42498  10.644   4.333   3.962  0.0879 -0.3665  0.5867
  322MOL0     H42499  10.514   4.265   3.864 -1.5150 -0.4918 -0.4680
  322MOL0     H42500  10.627   4.102   4.091 -1.2607 -0.1330 -0.3636
  322MOL0     H42501  10.562   4.028   3.948  0.1732 -0.0175 -0.0213
  322MOL0     H42502  10.963   4.089   3.835  1.0596  1.9315  2.4737
  322MOL0     H42503  10.041   4.336   4.278  0.0870 -1.2785  0.2434
  322MOL0     H42504   9.786   4.280   4.253  2.4264  1.5095  0.5066
  323MOL0     O42505   5.849  10.320   7.355  0.1620 -1.0549  0.8056
  323MOL0     C42506   5.855  10.445   7.354 -0.8245 -0.0301 -0.0188
  323MOL0     O42507   5.779  10.527   7.424 -0.3241  0.4857 -0.1844
  323MOL0     C42508   5.651  10.493   7.466 -0.1113  0.4516 -0.4284
  323MOL0     C42509   5.598  10.572   7.565 -0.2288 -0.4770  0.0946
  323MOL0     C42510   5.463  10.570   7.598  0.0286  0.1221  0.0212
  323MOL0     C42511   5.366  10.493   7.527  0.7895  0.0801  0.5505
  323MOL0     O42512   5.231  10.494   7.538  0.7383 -0.0841 -0.4574
  323MOL0     C42513   5.174  10.597   7.623  0.1782  0.3360 -0.6002
  323MOL0     C42514   5.138  10.549   7.765 -0.3095  0.0960  0.2029
  323MOL0     C42515   5.059  10.649   7.836 -0.6645  0.2763 -0.2819
  323MOL0     C42516   5.032  10.600   7.972 -0.0442  0.2658 -0.6373
  323MOL0     C42517   4.931  10.676   8.058  0.8710  0.7350 -0.3612
  323MOL0     C42518   4.800  10.698   7.984  0.3445  0.0778 -0.0338
  323MOL0     C42519   4.686  10.761   8.077 -0.0155  0.1104 -0.3325
  323MOL0     C42520   4.552  10.716   8.018  0.8384 -0.6667  0.1703
  323MOL0     N42521   4.445  10.782   8.103 -0.3348  0.2460  0.5260
  323MOL0     C42522   4.423  10.765   8.242 -0.0629  0.2661 -0.2970
  323MOL0     C42523   4.332  10.860   8.279 -0.5366  0.1867 -0.3965
  323MOL0     C42524   4.286  10.881   8.421 -0.3829  0.2823  0.5603
  323MOL0     C42525   4.149  10.809   8.440 -0.0421  0.1763 -0.6799
  323MOL0     C42526   4.164  10.656   8.410 -0.0373  0.1505 -0.3554
  323MOL0     C42527   4.060  10.579   8.487  0.8548 -1.0206  0.2591
  323MOL0     O42528   3.945  10.627   8.434  0.3027 -0.3222  0.5592
  323MOL0     C42529   3.825  10.595   8.481  0.7745  0.0100  0.6332
  323MOL0     C42530   3.716  10.685   8.471  0.3992  0.0745 -0.6716
  323MOL0     C42531   3.587  10.663   8.531 -0.1318  0.3940 -0.9422
  323MOL0     C42532   3.568  10.542   8.595 -0.3845  0.7633  0.2201
  323MOL0     C42533   3.446  10.501   8.660 -0.0849  0.6304 -0.1433
  323MOL0     O42534   3.419  10.369   8.694  0.7567  0.3867 -0.1426
  323MOL0     C42535   3.298  10.332   8.759  0.3303  0.1678  0.1807
  323MOL0     C42536   3.239  10.401   8.865 -0.9365  0.0604 -0.2780
  323MOL0     C42537   3.128  10.346   8.929 -0.4131 -0.1487 -0.3143
  323MOL0     C42538   3.081  10.224   8.897 -0.4791 -0.1921 -0.0389
  323MOL0     O42539   2.992  10.150   8.971 -0.4214  0.5749 -0.2793
  323MOL0     C42540   2.928  10.204   9.093 -1.0380 -0.2407 -1.6151
  323MOL0     C42541   2.995  10.160   9.226 -0.2580 -0.0580  0.5007
  323MOL0     C42542   2.963  10.017   9.251 -1.0477 -0.4783  0.2184
  323MOL0     C42543   3.032   9.945   9.377  0.2035  0.2375 -0.1698
  323MOL0     C42544   2.975   9.994   9.516 -0.4286 -0.5192  0.1832
  323MOL0     C42545   2.835   9.975   9.535  0.5557 -0.5684  0.5300
  323MOL0     C42546   2.800   9.821   9.551 -0.3858 -0.0933  0.6310
  323MOL0     C42547   2.646   9.820   9.568 -0.7945 -0.0238  0.4386
  323MOL0    Cl42548   2.568   9.837   9.398  0.1296  0.2463 -0.3725
  323MOL0     C42549   3.135  10.159   8.793 -0.1294  0.1128  0.2132
  323MOL0     C42550   3.246  10.214   8.723 -0.5463  1.0943 -0.0003
  323MOL0     O42551   3.363  10.582   8.668  0.1742  0.3968 -0.0144
  323MOL0     C42552   3.672  10.457   8.609  0.0428  0.7635  1.0893
  323MOL0     C42553   3.793  10.483   8.564  0.2301 -0.4126  0.6764
  323MOL0     N42554   4.298  10.939   8.160  0.1454 -0.4956 -1.1178
  323MOL0     N42555   4.377  10.891   8.063  0.4205 -0.0975 -0.4367
  323MOL0     C42556   5.425  10.401   7.427  0.0376 -1.3920 -0.2190
  323MOL0     C42557   5.562  10.416   7.396 -0.5589  0.8967  0.7696
  323MOL0     C42558   5.957  10.495   7.257 -0.3176 -0.0706 -0.1859
  323MOL0     C42559   6.044  10.410   7.183 -0.2667 -1.1641 -0.6862
  323MOL0     C42560   6.154  10.470   7.121  0.7760  0.6493  0.8642
  323MOL0     C42561   6.172  10.608   7.114 -0.8565 -0.8081  0.1599
  323MOL0     O42562   6.268  10.674   7.039 -0.9864 -0.8157  0.2719
  323MOL0     C42563   6.345  10.605   6.937  0.0324 -0.3899  0.2725
  323MOL0     C42564   6.255  10.578   6.813  0.3140  0.1145  0.8340
  323MOL0     C42565   6.158  10.687   6.773 -0.4902  0.0435 -0.1268
  323MOL0     C42566   6.098  10.661   6.635  0.0107 -1.5262 -0.7233
  323MOL0     C42567   6.059  10.795   6.584 -0.4046  1.6260  0.2378
  323MOL0     C42568   6.044  10.911   6.565 -0.1789  0.0313 -0.8587
  323MOL0     C42569   6.090  10.695   7.187 -0.3085  1.5047  0.1960
  323MOL0     C42570   5.974  10.636   7.252  0.7379 -0.2954  1.5006
  323MOL0     H42571   5.664  10.640   7.618 -1.0605  0.9143 -0.5900
  323MOL0     H42572   5.434  10.618   7.692  2.1163 -1.4385  1.5434
  323MOL0     H42573   5.082  10.635   7.577 -0.7152 -0.9218  0.0660
  323MOL0     H42574   5.236  10.686   7.637  0.6297  0.5413 -3.2902
  323MOL0     H42575   5.230  10.529   7.820 -2.3373  3.1764  5.4968
  323MOL0     H42576   5.084  10.453   7.760 -1.3627  0.6319  0.8023
  323MOL0     H42577   4.969  10.665   7.776  0.3227 -1.4594 -2.3756
  323MOL0     H42578   5.124  10.737   7.838  0.5102 -0.4308 -2.5364
  323MOL0     H42579   4.984  10.503   7.955 -0.1645 -0.6530  3.7233
  323MOL0     H42580   5.131  10.577   8.015 -0.7302  1.1667  1.5673
  323MOL0     H42581   4.965  10.778   8.075  0.6447  1.0629 -1.7668
  323MOL0     H42582   4.915  10.620   8.151 -1.5829  0.0987 -1.1022
  323MOL0     H42583   4.767  10.598   7.955  0.5013 -0.2767  0.9474
  323MOL0     H42584   4.821  10.770   7.904  0.0542  2.4230  1.8705
  323MOL0     H42585   4.685  10.717   8.177 -0.6196  0.6788 -0.0856
  323MOL0     H42586   4.709  10.868   8.081  0.2554  0.3045 -3.8357
  323MOL0     H42587   4.544  10.607   8.012  3.1793 -1.0128  1.9627
  323MOL0     H42588   4.550  10.750   7.914  0.3133  2.6815  1.1485
  323MOL0     H42589   4.473  10.697   8.310 -0.3386  2.9808  2.8919
  323MOL0     H42590   4.271  10.985   8.450 -1.9185  0.7063 -1.5408
  323MOL0     H42591   4.353  10.844   8.499 -0.7812 -2.5749 -0.3437
  323MOL0     H42592   4.080  10.843   8.362  0.3110  3.2118  0.1816
  323MOL0     H42593   4.108  10.840   8.537  2.4301  0.0141  0.4913
  323MOL0     H42594   4.166  10.632   8.303  1.6118  0.0634 -0.3328
  323MOL0     H42595   4.256  10.624   8.460 -2.0609 -1.6966  2.4998
  323MOL0     H42596   4.061  10.608   8.593 -1.1146  0.2671 -0.0180
  323MOL0     H42597   4.064  10.471   8.474 -0.6367 -1.0023 -0.5666
  323MOL0     H42598   3.746  10.780   8.427  4.5715 -0.4381  0.6288
  323MOL0     H42599   3.503  10.733   8.526 -2.0278 -1.5420  1.1954
  323MOL0     H42600   3.283  10.494   8.898  0.7762 -1.5349  2.2248
  323MOL0     H42601   3.087  10.412   9.005 -1.8910 -0.3193 -0.9339
  323MOL0     H42602   2.825  10.167   9.088 -0.3250 -2.6075 -0.2363
  323MOL0     H42603   2.925  10.313   9.088  1.4618 -0.0299 -0.0322
  323MOL0     H42604   2.959  10.222   9.308  1.9870 -1.0490  2.3433
  323MOL0     H42605   3.101  10.176   9.201  0.1054 -1.9462  0.7117
  323MOL0     H42606   3.016   9.963   9.171 -0.8575 -0.7131  0.4998
  323MOL0     H42607   2.857  10.001   9.231 -1.0606 -1.3859  0.9700
  323MOL0     H42608   3.011   9.839   9.361 -1.0321  0.1807  1.5299
  323MOL0     H42609   3.139   9.964   9.384 -0.0815  1.7161  0.4958
  323MOL0     H42610   2.998  10.101   9.529 -0.7652  0.0623 -3.1362
  323MOL0     H42611   3.012   9.940   9.603 -0.3138  0.0741  0.5096
  323MOL0     H42612   2.794  10.012   9.441 -1.4550  0.3956  1.6958
  323MOL0     H42613   2.794  10.043   9.611  2.3153  0.7540  0.3742
  323MOL0     H42614   2.829   9.757   9.467  1.9871 -0.8677  1.9509
  323MOL0     H42615   2.856   9.798   9.642  0.4078  0.2390  0.2375
  323MOL0     H42616   2.614   9.903   9.631  0.5280  0.4416  0.5420
  323MOL0     H42617   2.603   9.726   9.604  0.1054 -1.5644 -2.1994
  323MOL0     H42618   3.096  10.060   8.774 -0.7748  0.4924 -0.4537
  323MOL0     H42619   3.297  10.161   8.643  3.0066  3.3285  0.5685
  323MOL0     H42620   3.658  10.364   8.664  4.9504 -2.1097 -1.7351
  323MOL0     H42621   3.861  10.402   8.585 -2.1105 -2.6235  0.2565
  323MOL0     H42622   5.360  10.343   7.363 -0.3181 -0.2767 -0.9085
  323MOL0     H42623   5.600  10.352   7.317 -0.3433 -0.2658  1.7947
  323MOL0     H42624   6.023  10.304   7.192 -2.8215 -0.6534 -0.0274
  323MOL0     H42625   6.227  10.402   7.078  2.1053  1.8599  1.1415
  323MOL0     H42626   6.386  10.512   6.978 -0.0925  0.8543  3.4762
  323MOL0     H42627   6.419  10.680   6.907  1.7695 -2.4908 -1.0452
  323MOL0     H42628   6.313  10.559   6.722 -3.1936  1.1255 -1.9078
  323MOL0     H42629   6.191  10.493   6.840 -1.3400  1.2653  0.7431
  323MOL0     H42630   6.221  10.776   6.774 -2.3711  1.4619  1.7364
  323MOL0     H42631   6.089  10.697   6.857  0.7981 -1.1986  1.1507
  323MOL0     H42632   6.169  10.625   6.560 -0.4946 -3.0470 -0.5139
  323MOL0     H42633   6.018  10.588   6.651 -2.4295  0.6098 -2.4449
  323MOL0     H42634   6.027  11.016   6.555  2.0742  0.4607 -0.6631
  323MOL0     H42635   6.086  10.803   7.180 -2.2565  1.5097  0.7197
  323MOL0     H42636   5.901  10.703   7.296  0.0227 -2.2932  3.5277
  324MOL0     O42637   9.559   0.527   7.198  0.3788  0.2028  0.2860
  324MOL0     C42638   9.500   0.635   7.238 -0.4816  0.8298 -0.1841
  324MOL0     O42639   9.557   0.740   7.303  0.7442  0.3944 -0.1815
  324MOL0     C42640   9.693   0.741   7.317  0.0522  0.5301 -0.1476
  324MOL0     C42641   9.781   0.799   7.218 -0.6386 -0.7152  0.4760
  324MOL0     C42642   9.919   0.797   7.226 -0.4853  0.3866 -0.0506
  324MOL0     C42643   9.978   0.758   7.343  0.3200 -0.2564  0.3424
  324MOL0     O42644  10.113   0.767   7.379 -0.3329 -0.4438 -0.5537
  324MOL0     C42645  10.210   0.767   7.278 -0.5855  0.0639  0.2343
  324MOL0     C42646  10.357   0.801   7.325 -0.7493  0.3292 -0.4806
  324MOL0     C42647  10.445   0.816   7.203  0.2296  0.6299 -0.0115
  324MOL0     C42648  10.599   0.839   7.247  0.1464 -0.4721  0.0460
  324MOL0     C42649  10.697   0.796   7.143  0.6821  0.6310  0.7107
  324MOL0     C42650  10.692   0.865   7.005  0.5419 -0.1297  0.1289
  324MOL0     C42651  10.737   1.018   7.026  1.0372  0.7065  0.0859
  324MOL0     C42652  10.777   1.084   6.899  0.3084  0.1685  0.9453
  324MOL0     N42653  10.673   1.105   6.799 -0.1387  0.1084  0.3600
  324MOL0     C42654  10.599   1.018   6.730  0.3210 -0.0194 -1.6222
  324MOL0     C42655  10.528   1.091   6.650  0.7379 -0.3974  0.9509
  324MOL0     C42656  10.447   1.021   6.539  0.0316 -0.3393  0.9668
  324MOL0     C42657  10.418   1.112   6.407 -0.2734  0.0238  0.2798
  324MOL0     C42658  10.298   1.206   6.420  0.7342 -0.4637  0.7102
  324MOL0     C42659  10.170   1.151   6.366  0.3962  0.0364  0.5838
  324MOL0     O42660  10.061   1.247   6.372  0.9458  0.3260  1.1212
  324MOL0     C42661   9.937   1.194   6.396  0.1623  0.1083  0.9120
  324MOL0     C42662   9.847   1.206   6.294  0.7675 -0.6127 -0.0334
  324MOL0     C42663   9.712   1.180   6.318  0.1790 -0.3333  0.6035
  324MOL0     C42664   9.667   1.125   6.438  0.2982 -0.2444 -0.1064
  324MOL0     C42665   9.524   1.092   6.469 -0.4669 -0.5696 -0.0867
  324MOL0     O42666   9.434   1.114   6.371  0.4460 -0.2278  0.8108
  324MOL0     C42667   9.300   1.113   6.401  0.6134 -0.5759 -0.0755
  324MOL0     C42668   9.211   1.031   6.336  0.0942  0.1239  0.1271
  324MOL0     C42669   9.080   1.016   6.366 -0.2033  0.6576 -0.1232
  324MOL0     C42670   9.026   1.096   6.463 -0.0899 -0.0834 -0.2607
  324MOL0     O42671   8.894   1.100   6.495 -0.4283  0.0512 -0.3004
  324MOL0     C42672   8.807   1.073   6.389  1.0503  0.0272  0.4671
  324MOL0     C42673   8.716   0.955   6.414  0.3076  0.5512 -0.5206
  324MOL0     C42674   8.621   0.970   6.531 -0.0370 -0.2498  0.3550
  324MOL0     C42675   8.521   0.853   6.544  0.2754 -0.6283 -0.7322
  324MOL0     C42676   8.423   0.847   6.673 -0.4153  0.3411  0.2715
  324MOL0     C42677   8.334   0.721   6.671 -0.3126  0.4664  0.7205
  324MOL0     C42678   8.236   0.747   6.789 -0.1347 -0.2916  0.4058
  324MOL0     C42679   8.154   0.619   6.805  0.3008 -0.3004 -0.0221
  324MOL0    Cl42680   8.055   0.585   6.655  0.3544 -0.0390  0.1116
  324MOL0     C42681   9.115   1.179   6.534  0.4439 -0.4397 -0.6408
  324MOL0     C42682   9.247   1.195   6.498 -0.0004 -0.7895 -0.0198
  324MOL0     O42683   9.497   1.052   6.580  0.1473  0.0863  0.1137
  324MOL0     C42684   9.766   1.103   6.537 -0.7228  0.4194  0.8254
  324MOL0     C42685   9.895   1.148   6.520  0.0961 -0.6097  0.1413
  324MOL0     N42686  10.544   1.226   6.674 -0.2874  0.2554  0.4512
  324MOL0     N42687  10.639   1.229   6.763 -0.4415 -0.4568 -0.0286
  324MOL0     C42688   9.895   0.699   7.444 -0.0341 -0.2841 -0.1770
  324MOL0     C42689   9.756   0.691   7.427 -0.5319 -0.5472 -0.6949
  324MOL0     C42690   9.353   0.651   7.221 -0.8044 -0.2135  0.2506
  324MOL0     C42691   9.285   0.555   7.144  0.8598  0.6441  0.1349
  324MOL0     C42692   9.151   0.569   7.123 -0.8262  0.4609 -0.2154
  324MOL0     C42693   9.079   0.677   7.176  0.6398 -0.7444 -0.2050
  324MOL0     O42694   8.941   0.694   7.152 -0.5771  0.4102  0.7460
  324MOL0     C42695   8.860   0.571   7.154 -0.6039 -0.2142 -0.4555
  324MOL0     C42696   8.735   0.599   7.228 -0.4233 -0.7790 -0.7348
  324MOL0     C42697   8.671   0.468   7.250  0.4256  0.0385 -1.3380
  324MOL0     C42698   8.532   0.492   7.313  0.1293 -0.5609  0.0810
  324MOL0     C42699   8.435   0.532   7.209 -0.3279  0.5315 -0.3650
  324MOL0     C42700   8.340   0.563   7.139 -0.2971 -0.1119 -0.8761
  324MOL0     C42701   9.145   0.781   7.248  0.7911 -0.1902  0.0876
  324MOL0     C42702   9.284   0.763   7.272  0.3621 -0.2814 -0.2927
  324MOL0     H42703   9.740   0.835   7.124  2.6943 -1.7993 -1.5714
  324MOL0     H42704   9.980   0.836   7.145  1.6980  0.0066  1.3471
  324MOL0     H42705  10.194   0.821   7.184  1.1826  2.2371  1.1055
  324MOL0     H42706  10.216   0.662   7.250  1.1805  0.2400 -0.1499
  324MOL0     H42707  10.398   0.728   7.395  0.2793  3.0066  1.8976
  324MOL0     H42708  10.351   0.893   7.383 -0.7164 -0.8658  1.5090
  324MOL0     H42709  10.416   0.896   7.133  0.3709 -1.7809 -3.0419
  324MOL0     H42710  10.434   0.730   7.136  0.0697 -0.8662  1.8605
  324MOL0     H42711  10.608   0.945   7.272 -0.9475  0.1381 -1.8924
  324MOL0     H42712  10.630   0.787   7.338  3.1171  1.4491  0.2868
  324MOL0     H42713  10.679   0.690   7.124 -1.2213  1.2017 -0.9531
  324MOL0     H42714  10.794   0.824   7.186  0.8717 -0.0472  0.7303
  324MOL0     H42715  10.600   0.842   6.950  0.8232 -0.3140 -0.2649
  324MOL0     H42716  10.774   0.821   6.949  0.5682 -1.9278  1.4781
  324MOL0     H42717  10.663   1.076   7.082  2.0860  0.2136  2.0716
  324MOL0     H42718  10.820   1.006   7.097  0.8655 -0.1811  0.1570
  324MOL0     H42719  10.843   1.010   6.854 -0.0979  0.0401  0.5498
  324MOL0     H42720  10.829   1.178   6.917 -2.5590  1.9010  0.9388
  324MOL0     H42721  10.605   0.910   6.741 -2.3991  0.0380  4.7476
  324MOL0     H42722  10.354   0.992   6.589  1.8047 -1.7931  3.6408
  324MOL0     H42723  10.499   0.929   6.510  0.8261  0.3763  0.0575
  324MOL0     H42724  10.412   1.041   6.324  1.8821 -1.6035  1.4009
  324MOL0     H42725  10.509   1.167   6.382 -1.0942  1.8716  1.1748
  324MOL0     H42726  10.286   1.238   6.524 -3.0979 -1.0149  0.6090
  324MOL0     H42727  10.320   1.301   6.371 -0.8566 -0.3856  0.0587
  324MOL0     H42728  10.145   1.060   6.421 -1.8079 -1.2359 -2.2671
  324MOL0     H42729  10.182   1.120   6.261  0.7214  0.1236  0.5942
  324MOL0     H42730   9.873   1.224   6.190  1.4900  2.2567  0.5477
  324MOL0     H42731   9.649   1.196   6.231  1.5533  0.9916 -0.1819
  324MOL0     H42732   9.251   0.965   6.259 -1.1878 -1.5912  0.8647
  324MOL0     H42733   9.022   0.948   6.305 -0.7527 -0.7936  1.9243
  324MOL0     H42734   8.849   1.074   6.288  1.6338 -2.3188  0.6261
  324MOL0     H42735   8.745   1.162   6.398  2.9330  1.3175  1.2100
  324MOL0     H42736   8.792   0.879   6.434  0.1841  0.3358 -0.8673
  324MOL0     H42737   8.664   0.935   6.320 -4.9775  0.6683  2.0495
  324MOL0     H42738   8.555   1.056   6.517  1.7445  1.4237  1.7327
  324MOL0     H42739   8.678   0.982   6.623  0.3616  3.7507 -0.2509
  324MOL0     H42740   8.450   0.847   6.461 -0.9715  3.1182 -0.1579
  324MOL0     H42741   8.582   0.763   6.540  1.9279  0.0249  3.6089
  324MOL0     H42742   8.361   0.935   6.691 -0.4378  0.1115  1.4041
  324MOL0     H42743   8.489   0.829   6.758  0.8429 -0.4282 -0.8431
  324MOL0     H42744   8.398   0.633   6.680 -1.7440 -0.4073  3.8729
  324MOL0     H42745   8.282   0.723   6.575 -0.0687  0.8507  0.5924
  324MOL0     H42746   8.299   0.775   6.874 -1.6692  0.5787  1.2839
  324MOL0     H42747   8.164   0.827   6.772 -2.0541 -2.1926 -0.9168
  324MOL0     H42748   8.087   0.641   6.888 -0.7766  0.9953 -1.1887
  324MOL0     H42749   8.219   0.533   6.824 -0.0883 -0.4257  0.7813
  324MOL0     H42750   9.072   1.250   6.603  1.0392 -0.5832 -0.1182
  324MOL0     H42751   9.306   1.270   6.550 -1.3126 -0.3228  0.8764
  324MOL0     H42752   9.744   1.076   6.640 -0.6256  2.1212  1.3111
  324MOL0     H42753   9.973   1.140   6.595  0.8096 -0.3740 -0.5583
  324MOL0     H42754   9.925   0.643   7.532 -0.3495  2.9028  2.1701
  324MOL0     H42755   9.697   0.638   7.502 -1.6673  2.0464  0.3578
  324MOL0     H42756   9.344   0.471   7.107 -0.6412 -0.8475  1.0096
  324MOL0     H42757   9.099   0.496   7.060 -3.3645  0.6848  1.4960
  324MOL0     H42758   8.920   0.487   7.190  1.3261  0.6450 -1.5282
  324MOL0     H42759   8.827   0.554   7.052  0.9925  2.9270 -1.6369
  324MOL0     H42760   8.760   0.636   7.328  0.2237 -3.5146  0.2173
  324MOL0     H42761   8.671   0.669   7.174 -2.1540 -2.4402 -0.9281
  324MOL0     H42762   8.736   0.407   7.313  1.3499 -0.6994 -2.9439
  324MOL0     H42763   8.662   0.412   7.156 -0.7317 -3.1410  0.5048
  324MOL0     H42764   8.495   0.406   7.370  2.3979 -0.8895  1.1405
  324MOL0     H42765   8.536   0.570   7.390  0.3984 -0.1144 -0.3870
  324MOL0     H42766   8.250   0.596   7.092  0.7031  2.2797 -1.2456
  324MOL0     H42767   9.088   0.871   7.270  1.5359 -0.0287  1.5361
  324MOL0     H42768   9.335   0.842   7.327 -0.8422  0.5054 -0.2522
  325MOL0     O42769  11.042   9.699   6.403  0.6412 -0.2094 -0.5905
  325MOL0     C42770  11.071   9.801   6.466  0.8169  0.0952 -0.3438
  325MOL0     O42771  10.984   9.890   6.523  1.0493 -0.7373  0.4149
  325MOL0     C42772  10.851   9.855   6.515  0.4941  0.0627  0.5497
  325MOL0     C42773  10.776   9.818   6.633 -0.2195 -0.0557 -0.4223
  325MOL0     C42774  10.645   9.791   6.624  0.0124 -0.3390  0.4858
  325MOL0     C42775  10.570   9.817   6.507 -0.6215  0.6324  0.0459
  325MOL0     O42776  10.439   9.804   6.484  0.1779  0.2755  0.2582
  325MOL0     C42777  10.364   9.689   6.537  0.7233  0.2461  0.2547
  325MOL0     C42778  10.219   9.672   6.486 -0.2827  0.3822  0.6239
  325MOL0     C42779  10.227   9.626   6.334  0.2151 -0.2767  0.0688
  325MOL0     C42780  10.081   9.593   6.297  0.2391 -0.8055  0.5830
  325MOL0     C42781  10.085   9.545   6.151 -0.7018 -0.6035  0.0525
  325MOL0     C42782   9.961   9.478   6.100  0.1797  0.8594 -0.7175
  325MOL0     C42783   9.828   9.555   6.091  0.5383 -0.4832 -0.0123
  325MOL0     C42784   9.724   9.476   6.011 -0.2505 -0.2831 -0.6974
  325MOL0     N42785   9.659   9.384   6.105 -0.7079  0.8216 -0.0493
  325MOL0     C42786   9.611   9.415   6.230 -0.4045  0.0045  0.2343
  325MOL0     C42787   9.561   9.294   6.276 -0.5128  0.4058  0.4449
  325MOL0     C42788   9.475   9.278   6.400  0.3390 -0.0611  0.1297
  325MOL0     C42789   9.335   9.235   6.353  0.3565  0.3655  0.0740
  325MOL0     C42790   9.253   9.370   6.322 -0.3814 -0.0240 -0.5705
  325MOL0     C42791   9.101   9.337   6.317 -0.6824  0.6839  0.2742
  325MOL0     O42792   9.049   9.468   6.280 -0.3871 -0.0469 -0.0251
  325MOL0     C42793   8.919   9.470   6.220 -1.0820  0.6199  0.2804
  325MOL0     C42794   8.849   9.360   6.178  0.0421 -0.2805 -0.0524
  325MOL0     C42795   8.722   9.374   6.121 -0.5692  0.0076 -0.1408
  325MOL0     C42796   8.670   9.504   6.123  0.0883  0.6623  0.0773
  325MOL0     C42797   8.529   9.516   6.073 -0.6217  0.6411 -0.2254
  325MOL0     O42798   8.491   9.436   5.970  0.4297  0.3272  0.3148
  325MOL0     C42799   8.361   9.433   5.921  0.3376  0.7218 -0.5397
  325MOL0     C42800   8.298   9.308   5.900 -0.1950 -0.2642 -0.1703
  325MOL0     C42801   8.171   9.299   5.832  0.2927 -0.5750  0.0120
  325MOL0     C42802   8.105   9.424   5.790  0.3713  0.1988  0.5114
  325MOL0     O42803   7.986   9.444   5.724  0.7986  0.3500 -0.0275
  325MOL0     C42804   7.894   9.332   5.711  1.0265  0.2656  1.2181
  325MOL0     C42805   7.934   9.236   5.596  0.1238 -0.4898  0.1212
  325MOL0     C42806   7.834   9.124   5.576 -0.0470  0.3098 -0.5338
  325MOL0     C42807   7.910   9.036   5.475 -0.4284  0.0498 -0.1033
  325MOL0     C42808   7.912   8.883   5.518 -0.8084 -1.6188 -0.9185
  325MOL0     C42809   7.940   8.798   5.397 -0.2956  0.6080 -0.0210
  325MOL0     C42810   7.925   8.652   5.434  0.5746 -0.0174  1.0158
  325MOL0     C42811   7.779   8.601   5.434  0.6794 -0.6534 -0.0449
  325MOL0    Cl42812   7.751   8.427   5.429 -0.4343  0.0054  0.1081
  325MOL0     C42813   8.164   9.551   5.830 -0.5257 -0.5672  0.3330
  325MOL0     C42814   8.290   9.548   5.886  0.9148  0.0643 -0.3000
  325MOL0     O42815   8.464   9.613   6.121 -0.3610 -0.4883 -0.1108
  325MOL0     C42816   8.740   9.614   6.175  0.1606 -0.2920  0.1317
  325MOL0     C42817   8.868   9.597   6.215  0.0348 -0.2917 -0.0684
  325MOL0     N42818   9.606   9.199   6.188  0.7392 -1.0803  0.5850
  325MOL0     N42819   9.656   9.246   6.076  0.2263  0.5914  0.1372
  325MOL0     C42820  10.639   9.867   6.401  0.4551  0.5507  1.1664
  325MOL0     C42821  10.779   9.879   6.397 -0.5603  0.1438 -0.5878
  325MOL0     C42822  11.214   9.842   6.482 -0.7930 -0.2111  0.0042
  325MOL0     C42823  11.314   9.769   6.420 -0.7507 -0.6785 -0.0370
  325MOL0     C42824  11.450   9.801   6.441 -0.0823 -0.4338 -0.4350
  325MOL0     C42825  11.494   9.905   6.518  0.0615 -0.1316 -0.4981
  325MOL0     O42826  11.629   9.931   6.536 -0.1669  0.2754  0.2023
  325MOL0     C42827  11.680  10.066   6.541  0.4992 -0.4870 -0.8497
  325MOL0     C42828  11.714  10.110   6.398  0.4879  1.1316 -0.1157
  325MOL0     C42829  11.844  10.043   6.351  0.9296 -0.1477 -1.0015
  325MOL0     C42830  11.899  10.108   6.219 -1.0860  0.0071  0.6764
  325MOL0     C42831  11.808  10.080   6.106  0.9913 -0.0990 -0.4858
  325MOL0     C42832  11.722  10.055   6.018  0.8514  0.5380 -0.3381
  325MOL0     C42833  11.392   9.991   6.567  0.0988  0.2495 -0.1678
  325MOL0     C42834  11.256   9.954   6.550 -0.1645 -0.6219 -0.1155
  325MOL0     H42835  10.824   9.819   6.730  0.3497  2.1490 -0.6621
  325MOL0     H42836  10.606   9.782   6.725  1.0700  1.5914  1.1056
  325MOL0     H42837  10.343   9.700   6.644 -0.1802 -0.1774  0.1290
  325MOL0     H42838  10.419   9.594   6.533 -0.4720 -0.5807  1.8269
  325MOL0     H42839  10.165   9.765   6.503  0.0422  0.1051  3.5846
  325MOL0     H42840  10.172   9.593   6.545  1.0390 -0.1289  1.0377
  325MOL0     H42841  10.292   9.538   6.332 -1.0417 -1.2083 -1.0194
  325MOL0     H42842  10.272   9.706   6.273  0.1438  0.7015  1.2782
  325MOL0     H42843  10.038   9.514   6.359 -4.9169 -1.6761 -3.3669
  325MOL0     H42844  10.019   9.683   6.308 -1.7369 -1.8416 -1.2883
  325MOL0     H42845  10.163   9.472   6.130 -2.1450 -2.8694  2.1117
  325MOL0     H42846  10.097   9.633   6.087 -1.3415  0.7423  1.6855
  325MOL0     H42847   9.941   9.397   6.171 -2.9511  0.8099 -1.5346
  325MOL0     H42848   9.997   9.426   6.011  1.1853  1.0830 -0.4507
  325MOL0     H42849   9.796   9.588   6.190  0.1172  2.0263 -0.9228
  325MOL0     H42850   9.842   9.653   6.046  1.4169  0.3653  2.0028
  325MOL0     H42851   9.762   9.426   5.921 -0.5422 -0.1009 -0.9247
  325MOL0     H42852   9.638   9.537   5.980  0.1063 -0.0933 -1.3429
  325MOL0     H42853   9.595   9.518   6.262  0.4737  0.1525  0.2258
  325MOL0     H42854   9.471   9.380   6.438  0.5389  1.0149 -2.4907
  325MOL0     H42855   9.522   9.214   6.475 -0.2224  1.5601  1.9486
  325MOL0     H42856   9.284   9.171   6.425  2.3395 -1.5836 -0.1530
  325MOL0     H42857   9.346   9.175   6.262 -0.3529  0.4569 -0.0805
  325MOL0     H42858   9.270   9.452   6.393  2.0995  0.1808 -1.3161
  325MOL0     H42859   9.295   9.409   6.229 -0.1677 -0.2168 -0.5558
  325MOL0     H42860   9.048   9.299   6.405 -4.4637  0.1289 -2.0576
  325MOL0     H42861   9.088   9.270   6.232  1.2481  2.7829 -1.8170
  325MOL0     H42862   8.885   9.260   6.197  0.2160 -0.1745  0.1703
  325MOL0     H42863   8.659   9.295   6.082 -0.7003 -0.6696  1.3901
  325MOL0     H42864   8.345   9.215   5.930 -0.8062  0.1262  2.2816
  325MOL0     H42865   8.135   9.201   5.804  1.7208 -0.7465 -1.3359
  325MOL0     H42866   7.797   9.378   5.689 -0.0143 -1.3243  2.2678
  325MOL0     H42867   7.874   9.286   5.808  0.3764  2.7318  2.3369
  325MOL0     H42868   8.033   9.197   5.621 -0.7286 -0.9186  3.1642
  325MOL0     H42869   7.955   9.286   5.500 -0.1883 -1.4700 -0.4739
  325MOL0     H42870   7.738   9.167   5.547 -0.4084  0.2942  0.5888
  325MOL0     H42871   7.820   9.066   5.668  1.3115 -0.9497 -1.0792
  325MOL0     H42872   7.861   9.039   5.377 -5.7264  0.2672  2.2614
  325MOL0     H42873   8.005   9.071   5.433 -0.7239 -1.5012 -2.2587
  325MOL0     H42874   7.814   8.856   5.560 -1.1028  0.9552  0.1991
  325MOL0     H42875   7.996   8.858   5.583 -0.5475  1.5571  0.1011
  325MOL0     H42876   8.046   8.804   5.370 -0.4492 -0.1990 -0.8503
  325MOL0     H42877   7.873   8.830   5.318 -1.0858 -0.1270  0.3354
  325MOL0     H42878   7.980   8.595   5.359  1.6156  0.2655  1.5422
  325MOL0     H42879   7.965   8.632   5.534  0.7465  3.5292  1.8008
  325MOL0     H42880   7.725   8.643   5.348 -3.5939  0.5358  2.9129
  325MOL0     H42881   7.728   8.640   5.522 -0.1561  0.3342 -0.9288
  325MOL0     H42882   8.118   9.646   5.807  0.4799  0.0731  0.8689
  325MOL0     H42883   8.333   9.643   5.913  0.3922  0.3889 -0.5812
  325MOL0     H42884   8.715   9.719   6.161  1.1398 -0.1130 -0.3867
  325MOL0     H42885   8.913   9.688   6.255 -2.8711  0.9757  0.5534
  325MOL0     H42886  10.590   9.885   6.305  2.5401  1.1259  0.1568
  325MOL0     H42887  10.829   9.938   6.321  0.0343  1.0171  0.4489
  325MOL0     H42888  11.280   9.692   6.352 -0.2159 -0.3540 -0.6836
  325MOL0     H42889  11.524   9.731   6.404 -2.5008 -2.3902 -1.9134
  325MOL0     H42890  11.767  10.072   6.606 -0.5294  0.6596  0.4939
  325MOL0     H42891  11.609  10.138   6.583 -0.0916 -2.4796  1.7717
  325MOL0     H42892  11.629  10.073   6.340  1.2675 -2.0980  0.5803
  325MOL0     H42893  11.724  10.219   6.391  1.8081  1.4374  3.8888
  325MOL0     H42894  11.821   9.936   6.347 -2.5985  0.4791 -1.0224
  325MOL0     H42895  11.915  10.054   6.433 -0.9276  0.1490  0.6277
  325MOL0     H42896  11.905  10.215   6.241 -1.3199 -0.0878  1.2348
  325MOL0     H42897  12.001  10.073   6.205 -1.7661 -1.0132 -2.2457
  325MOL0     H42898  11.658  10.044   5.932  0.3223 -0.5083  0.1788
  325MOL0     H42899  11.420  10.080   6.621  0.9433 -0.5380  0.7505
  325MOL0     H42900  11.181  10.024   6.585  0.1910  0.6914 -1.8376
  326MOL0     O42901   1.472  10.724   1.280 -0.0399 -0.3392  0.1065
  326MOL0     C42902   1.454  10.721   1.401  0.5449  0.1076  0.1012
  326MOL0     O42903   1.522  10.653   1.498  0.5752  0.6378 -0.1151
  326MOL0     C42904   1.639  10.586   1.454 -0.3455  0.0846 -0.5622
  326MOL0     C42905   1.632  10.459   1.399 -0.6631 -0.3241  0.4953
  326MOL0     C42906   1.752  10.387   1.370 -0.4884  0.0162  0.0709
  326MOL0     C42907   1.878  10.441   1.387  0.0050  0.0487 -0.3571
  326MOL0     O42908   1.985  10.361   1.343 -0.0362  0.0169  0.5928
  326MOL0     C42909   2.112  10.384   1.401 -0.3166 -0.5768  0.2564
  326MOL0     C42910   2.159  10.243   1.451  0.2193 -1.0233  1.2485
  326MOL0     C42911   2.302  10.249   1.500  1.0893  0.2759 -0.3078
  326MOL0     C42912   2.344  10.104   1.542 -0.3351 -0.0091 -0.0341
  326MOL0     C42913   2.492  10.088   1.566 -0.1844  0.3043 -0.1147
  326MOL0     C42914   2.549  10.159   1.693  0.4718  0.7177  0.5555
  326MOL0     C42915   2.700  10.143   1.712  0.0578 -0.1242 -0.6166
  326MOL0     C42916   2.791  10.180   1.596 -0.2509  0.5826 -0.9141
  326MOL0     N42917   2.927  10.211   1.638  0.4532 -0.2151  0.0290
  326MOL0     C42918   3.026  10.114   1.667  0.9861  0.4341 -0.5866
  326MOL0     C42919   3.127  10.186   1.715 -0.8373 -0.0651  0.0403
  326MOL0     C42920   3.260  10.145   1.770  0.5871  1.2706  1.6453
  326MOL0     C42921   3.369  10.175   1.675 -0.3515 -0.2950 -0.0479
  326MOL0     C42922   3.385  10.075   1.559 -0.0053 -0.0409 -0.6895
  326MOL0     C42923   3.497   9.972   1.576 -0.3813  0.3332  0.6902
  326MOL0     O42924   3.626  10.034   1.543 -0.7093  0.2014 -0.4491
  326MOL0     C42925   3.737  10.044   1.623  0.1186 -0.7905  0.2505
  326MOL0     C42926   3.854  10.099   1.567 -0.0677  0.1326 -0.4148
  326MOL0     C42927   3.972  10.123   1.643  0.6762  0.4465  0.0849
  326MOL0     C42928   3.966  10.104   1.780 -0.2713  1.2954 -0.0618
  326MOL0     C42929   4.086  10.132   1.868  0.1523 -0.2650  0.3804
  326MOL0     O42930   4.093  10.075   1.991  0.2457  0.0922  0.2035
  326MOL0     C42931   4.201  10.072   2.072 -0.2286  0.3568  0.0690
  326MOL0     C42932   4.178  10.056   2.208  0.0407 -0.3133  0.9980
  326MOL0     C42933   4.273  10.009   2.295  0.1537  0.7026 -0.4600
  326MOL0     C42934   4.404  10.007   2.259  1.3205  0.3235  0.2809
  326MOL0     O42935   4.495   9.969   2.351 -0.5979  0.1644 -0.5385
  326MOL0     C42936   4.546   9.838   2.337 -0.7143 -0.4568  0.1680
  326MOL0     C42937   4.654   9.828   2.435 -0.3442 -0.1901 -0.0293
  326MOL0     C42938   4.624   9.875   2.582 -0.6246  0.1661  0.1084
  326MOL0     C42939   4.729   9.798   2.678 -0.3258 -0.2403  0.1731
  326MOL0     C42940   4.706   9.844   2.824 -0.1446 -0.5139 -0.6271
  326MOL0     C42941   4.786   9.959   2.872 -0.2027  0.0371 -0.3168
  326MOL0     C42942   4.765   9.997   3.016 -0.6187 -0.5276  0.9516
  326MOL0     C42943   4.628  10.068   3.045 -0.2530 -0.3319 -0.2876
  326MOL0    Cl42944   4.635  10.104   3.225 -0.1450  0.2557  0.1504
  326MOL0     C42945   4.441  10.044   2.126  0.8844 -0.0081  0.4649
  326MOL0     C42946   4.334  10.061   2.031  0.2604 -1.1456 -0.6300
  326MOL0     O42947   4.163  10.222   1.825  0.1306 -0.3673 -0.3256
  326MOL0     C42948   3.847  10.059   1.831  0.6659 -0.2310  0.1294
  326MOL0     C42949   3.738  10.019   1.760  0.9392  0.8080 -0.4701
  326MOL0     N42950   3.100  10.317   1.705  0.1733  0.5221  0.3476
  326MOL0     N42951   2.984  10.334   1.660  0.3424 -0.0644  0.5251
  326MOL0     C42952   1.888  10.575   1.439  1.5530 -0.1213 -0.0486
  326MOL0     C42953   1.771  10.648   1.472  0.2414  0.8016  1.4003
  326MOL0     C42954   1.332  10.802   1.445 -1.1183  0.5900 -0.8379
  326MOL0     C42955   1.339  10.884   1.560  0.6913  0.3057  0.6483
  326MOL0     C42956   1.243  10.985   1.576 -0.0216 -0.1178 -0.6606
  326MOL0     C42957   1.128  10.991   1.495 -0.3415  0.0324 -0.3163
  326MOL0     O42958   1.019  11.077   1.501  0.9079 -0.5723 -1.0844
  326MOL0     C42959   1.021  11.180   1.604  0.2475  0.7513 -0.2448
  326MOL0     C42960   0.987  11.124   1.744 -0.1940 -0.7753  0.2931
  326MOL0     C42961   0.852  11.040   1.754  0.1639  0.3465  0.4505
  326MOL0     C42962   0.724  11.122   1.764  0.6172  0.5799  0.2312
  326MOL0     C42963   0.609  11.045   1.813  0.3938 -0.4359 -0.4994
  326MOL0     C42964   0.506  11.000   1.869  0.0410 -0.5121 -0.5327
  326MOL0     C42965   1.116  10.905   1.380  0.9320 -0.8810  0.6492
  326MOL0     C42966   1.222  10.819   1.348 -0.0848 -1.0741  0.6859
  326MOL0     H42967   1.532  10.419   1.386 -0.9955  0.8291 -0.6391
  326MOL0     H42968   1.733  10.285   1.338 -1.5027  0.6165 -1.3391
  326MOL0     H42969   2.117  10.445   1.492  1.8478 -0.1817 -0.0627
  326MOL0     H42970   2.177  10.428   1.324  1.0343  0.4611  1.9092
  326MOL0     H42971   2.143  10.172   1.369  1.9697  1.3385 -1.3099
  326MOL0     H42972   2.088  10.221   1.532 -1.5765  0.2417  0.0989
  326MOL0     H42973   2.327  10.321   1.578  0.3249 -0.2092  0.3948
  326MOL0     H42974   2.363  10.277   1.413  1.3977 -2.1997 -0.9651
  326MOL0     H42975   2.281  10.085   1.629  0.7372  0.9338  0.9759
  326MOL0     H42976   2.318  10.030   1.465 -0.5994 -1.0289  1.0066
  326MOL0     H42977   2.545  10.118   1.475 -0.5238  4.4250  0.8538
  326MOL0     H42978   2.514   9.981   1.567  1.4146  0.5952 -0.7628
  326MOL0     H42979   2.491  10.119   1.778  2.2127 -2.9090  0.2388
  326MOL0     H42980   2.531  10.265   1.676  1.4070  0.9565  1.0040
  326MOL0     H42981   2.737  10.181   1.807 -2.2095 -2.9140  1.5363
  326MOL0     H42982   2.696  10.035   1.729 -2.9377  0.2730  2.1189
  326MOL0     H42983   2.749  10.266   1.542  0.5380  2.2521  0.9878
  326MOL0     H42984   2.803  10.100   1.523  0.5316 -1.8942  1.7576
  326MOL0     H42985   3.005  10.008   1.678 -0.4156  0.7579  0.1337
  326MOL0     H42986   3.262  10.038   1.796  2.5840  1.2984  1.6984
  326MOL0     H42987   3.269  10.206   1.860  1.4640  0.4824  2.1137
  326MOL0     H42988   3.464  10.178   1.728 -0.6982  2.1118  0.5776
  326MOL0     H42989   3.349  10.276   1.638  1.3226  0.3305  0.6943
  326MOL0     H42990   3.288  10.024   1.551  0.4544 -1.0362 -0.1428
  326MOL0     H42991   3.396  10.128   1.464 -1.0647  3.0516  0.7835
  326MOL0     H42992   3.467   9.890   1.512 -2.0245  1.3326  0.1185
  326MOL0     H42993   3.486   9.934   1.678 -1.4968  0.3591  0.5897
  326MOL0     H42994   3.861  10.120   1.461  0.9576  0.6219 -0.2676
  326MOL0     H42995   4.059  10.159   1.589 -0.5338 -1.1760 -3.2063
  326MOL0     H42996   4.073  10.051   2.236  0.0950 -0.5676  1.1598
  326MOL0     H42997   4.246   9.979   2.395  3.1662 -2.0162 -0.2820
  326MOL0     H42998   4.593   9.808   2.243 -1.5186 -1.7346  0.1508
  326MOL0     H42999   4.472   9.760   2.359  0.0660 -1.2860 -0.0757
  326MOL0     H43000   4.747   9.872   2.397 -0.7214 -0.0506 -0.8106
  326MOL0     H43001   4.672   9.720   2.436 -3.2377 -0.7400  0.8091
  326MOL0     H43002   4.526   9.846   2.620 -0.5526  0.7952  0.7954
  326MOL0     H43003   4.637   9.984   2.576  2.8988 -0.2095 -2.0387
  326MOL0     H43004   4.718   9.690   2.667 -0.4239 -0.0778 -1.8005
  326MOL0     H43005   4.832   9.819   2.647 -0.0165  2.9101  2.8002
  326MOL0     H43006   4.756   9.765   2.881  3.4247  2.4280  0.7795
  326MOL0     H43007   4.601   9.865   2.846  0.1013 -1.7562  2.2299
  326MOL0     H43008   4.754  10.041   2.808  0.9246 -1.3276 -2.7839
  326MOL0     H43009   4.892   9.943   2.853 -0.6011  0.8372 -4.0097
  326MOL0     H43010   4.792   9.910   3.077  0.0050 -1.6942 -0.8907
  326MOL0     H43011   4.845  10.068   3.038 -0.3443  0.3145 -2.2303
  326MOL0     H43012   4.546   9.996   3.034 -1.1077  0.6363 -0.4468
  326MOL0     H43013   4.610  10.164   2.995 -1.5203 -0.9996 -1.1598
  326MOL0     H43014   4.543  10.047   2.089  0.4447  2.3537 -0.7118
  326MOL0     H43015   4.358  10.082   1.927 -1.4254  0.7724 -0.6888
  326MOL0     H43016   3.863  10.035   1.936  3.6664  1.9764  0.3036
  326MOL0     H43017   3.665   9.982   1.831  1.0132  1.8022  0.1516
  326MOL0     H43018   1.987  10.611   1.467  1.5002  0.7017 -0.8813
  326MOL0     H43019   1.781  10.754   1.493  3.5827 -0.0059  4.9835
  326MOL0     H43020   1.421  10.879   1.631 -0.5261 -0.7865  2.0330
  326MOL0     H43021   1.247  11.051   1.662 -2.2157  0.3989 -0.8858
  326MOL0     H43022   0.939  11.249   1.580 -0.5627 -0.0814  0.0811
  326MOL0     H43023   1.111  11.242   1.603  4.0331 -4.1283  0.7499
  326MOL0     H43024   1.070  11.075   1.795 -0.2605  0.4356  1.6435
  326MOL0     H43025   0.990  11.215   1.805  1.9148  1.5029 -2.8711
  326MOL0     H43026   0.858  10.979   1.844 -2.2725  0.3609  0.7104
  326MOL0     H43027   0.843  10.968   1.671  0.8749 -1.6500  2.0356
  326MOL0     H43028   0.747  11.208   1.827  1.1674  1.2295 -0.8170
  326MOL0     H43029   0.700  11.156   1.663 -4.6190  0.9471  1.2945
  326MOL0     H43030   0.416  10.965   1.917 -0.9187 -0.2825 -2.0960
  326MOL0     H43031   1.025  10.903   1.321  0.1300  2.1098  1.6311
  326MOL0     H43032   1.225  10.760   1.256 -0.2444  1.2563 -0.8946
  327MOL0     O43033   5.020   4.839   5.881 -0.6619 -0.9113  0.4383
  327MOL0     C43034   5.040   4.881   5.994 -0.7196 -0.2953 -0.2401
  327MOL0     O43035   5.155   4.848   6.063  0.0786  0.7615  0.2948
  327MOL0     C43036   5.270   4.824   5.995 -0.1753  0.5829  0.3032
  327MOL0     C43037   5.302   4.861   5.864 -0.5723 -0.1805 -0.1066
  327MOL0     C43038   5.424   4.837   5.805 -0.3118 -0.1710 -0.3510
  327MOL0     C43039   5.538   4.796   5.881  0.8726  0.3192 -0.4925
  327MOL0     O43040   5.667   4.786   5.837  0.0393 -0.0711 -0.0379
  327MOL0     C43041   5.681   4.734   5.703 -0.7649  0.4487  0.5089
  327MOL0     C43042   5.811   4.649   5.689 -0.7374  0.1798 -0.7231
  327MOL0     C43043   5.845   4.563   5.816 -0.4631  1.1740  0.6560
  327MOL0     C43044   5.959   4.467   5.807 -0.9305 -0.3335 -0.5049
  327MOL0     C43045   6.104   4.518   5.792 -1.0047 -0.3212 -1.1638
  327MOL0     C43046   6.204   4.427   5.876 -0.4302 -0.7083  0.4267
  327MOL0     C43047   6.361   4.450   5.868 -0.1270 -1.2340  0.6059
  327MOL0     C43048   6.414   4.403   5.729 -0.9881  0.0859  0.5440
  327MOL0     N43049   6.559   4.424   5.704  0.1615  0.1408  0.1064
  327MOL0     C43050   6.665   4.357   5.766  0.1492  0.0020  0.0257
  327MOL0     C43051   6.778   4.425   5.730  0.7887  0.0959 -0.2968
  327MOL0     C43052   6.914   4.393   5.775 -0.2627  0.2250 -0.2628
  327MOL0     C43053   7.013   4.434   5.662 -0.3129 -0.2471  0.7180
  327MOL0     C43054   7.160   4.400   5.684  0.2544 -0.0708 -0.4359
  327MOL0     C43055   7.248   4.468   5.577 -0.1835  0.4218  0.5938
  327MOL0     O43056   7.269   4.380   5.459  0.0965 -0.9032 -0.2099
  327MOL0     C43057   7.381   4.306   5.440 -0.3093  0.1885 -0.8173
  327MOL0     C43058   7.500   4.314   5.523  0.2949 -0.1365  0.1709
  327MOL0     C43059   7.622   4.256   5.490 -0.4669  1.3351  0.0649
  327MOL0     C43060   7.624   4.169   5.373  0.4226  0.3724 -0.1196
  327MOL0     C43061   7.741   4.085   5.342  0.2395  0.2796  0.1142
  327MOL0     O43062   7.810   4.038   5.450 -0.2636  0.0637  0.5131
  327MOL0     C43063   7.925   3.962   5.434 -0.7073  0.3661  0.6758
  327MOL0     C43064   7.945   3.853   5.524 -0.1312  0.1458  0.6567
  327MOL0     C43065   8.061   3.761   5.514  0.2102 -0.1183  0.1217
  327MOL0     C43066   8.164   3.798   5.429 -0.1479  1.4062 -1.0389
  327MOL0     O43067   8.283   3.727   5.450 -0.0927  1.1335 -0.1553
  327MOL0     C43068   8.378   3.732   5.340  0.2690  0.2190  0.5882
  327MOL0     C43069   8.506   3.628   5.354  0.2880 -0.8921 -0.2480
  327MOL0     C43070   8.476   3.487   5.405 -0.6596 -0.5791 -0.8533
  327MOL0     C43071   8.603   3.403   5.390 -0.6640 -0.5464  0.6517
  327MOL0     C43072   8.582   3.255   5.345  0.6049 -0.1174  0.4142
  327MOL0     C43073   8.719   3.191   5.316  0.2471 -0.6227  0.1916
  327MOL0     C43074   8.717   3.037   5.316 -0.7221 -0.4397  0.3084
  327MOL0     C43075   8.854   2.973   5.300  0.4677 -0.0509  0.6502
  327MOL0    Cl43076   8.956   3.006   5.443  0.3860 -0.0427  0.0550
  327MOL0     C43077   8.151   3.908   5.351 -0.5159  0.5823 -1.1750
  327MOL0     C43078   8.038   3.982   5.348  0.5561  0.2322 -0.0359
  327MOL0     O43079   7.775   4.070   5.226  0.0251 -1.2894  0.0438
  327MOL0     C43080   7.501   4.152   5.302 -0.4925  0.9025 -0.4384
  327MOL0     C43081   7.386   4.224   5.328  0.6690 -0.1588  0.2698
  327MOL0     N43082   6.738   4.520   5.643  0.1754 -0.5007 -0.0215
  327MOL0     N43083   6.605   4.525   5.619  0.5362 -0.5068 -0.6283
  327MOL0     C43084   5.509   4.755   6.012 -0.4622  0.3351 -0.0616
  327MOL0     C43085   5.378   4.771   6.068 -0.6713  0.1261 -0.0797
  327MOL0     C43086   4.941   4.959   6.071  0.2445  0.7972  0.0229
  327MOL0     C43087   4.810   4.998   6.023 -0.1032  0.3427  0.2662
  327MOL0     C43088   4.718   5.064   6.096 -0.0112 -0.3388 -1.0609
  327MOL0     C43089   4.749   5.089   6.230 -0.9868  0.0826  0.2202
  327MOL0     O43090   4.663   5.158   6.305  0.5228  0.0078  0.2437
  327MOL0     C43091   4.703   5.211   6.437 -0.3295  0.1537  0.7024
  327MOL0     C43092   4.626   5.339   6.462  1.0378 -0.1394 -0.2041
  327MOL0     C43093   4.476   5.322   6.483 -0.0553 -1.4353  0.0161
  327MOL0     C43094   4.407   5.446   6.540 -0.0878  0.4239 -0.8133
  327MOL0     C43095   4.455   5.468   6.682  0.6364  0.7055  0.1980
  327MOL0     C43096   4.507   5.496   6.784  0.2276  0.7311  0.1559
  327MOL0     C43097   4.877   5.050   6.280  0.7654  1.4058  0.3180
  327MOL0     C43098   4.969   4.991   6.204  0.6725  0.6725 -0.5222
  327MOL0     H43099   5.230   4.910   5.799  0.9445  3.0062  0.4455
  327MOL0     H43100   5.435   4.864   5.700  0.5195  1.0223  0.0335
  327MOL0     H43101   5.688   4.820   5.635  1.8315  0.6568  0.9500
  327MOL0     H43102   5.597   4.670   5.673  0.3985 -1.4285  1.0829
  327MOL0     H43103   5.893   4.718   5.665  0.5736  0.0868  2.8870
  327MOL0     H43104   5.802   4.580   5.604  3.7862  1.0444 -2.1787
  327MOL0     H43105   5.759   4.499   5.837  1.7614 -1.5394  2.2876
  327MOL0     H43106   5.868   4.629   5.901  0.8815  1.4271  0.1189
  327MOL0     H43107   5.944   4.415   5.902 -1.3442 -1.5877 -1.2463
  327MOL0     H43108   5.945   4.411   5.714 -0.4475  1.7097 -1.8701
  327MOL0     H43109   6.094   4.619   5.834  0.1413 -0.7837  0.2996
  327MOL0     H43110   6.131   4.523   5.687 -0.8598 -0.4409 -1.1322
  327MOL0     H43111   6.190   4.334   5.819 -2.3712  0.7609 -1.6999
  327MOL0     H43112   6.171   4.425   5.980  1.4763 -2.9556  1.0757
  327MOL0     H43113   6.380   4.558   5.879  1.3882 -1.3376 -0.6937
  327MOL0     H43114   6.431   4.408   5.941  2.5138  0.9205 -0.5094
  327MOL0     H43115   6.356   4.447   5.648 -1.9928 -1.4455  0.3897
  327MOL0     H43116   6.396   4.295   5.729 -1.8199  0.0747 -3.5082
  327MOL0     H43117   6.655   4.281   5.842 -1.2242  0.5406  0.4283
  327MOL0     H43118   6.911   4.285   5.795 -2.5643 -0.1630 -2.1651
  327MOL0     H43119   6.930   4.444   5.870 -1.3771  0.1691 -0.0247
  327MOL0     H43120   7.011   4.543   5.649 -1.2845 -0.3791 -0.3547
  327MOL0     H43121   6.979   4.394   5.566  0.0178  1.0350  0.0347
  327MOL0     H43122   7.183   4.454   5.776 -0.9866  0.8054 -0.6090
  327MOL0     H43123   7.165   4.292   5.698 -1.9911 -0.0578  1.0928
  327MOL0     H43124   7.345   4.502   5.614  0.6822  0.2457 -1.3396
  327MOL0     H43125   7.189   4.551   5.537 -2.1566  0.3158  3.0743
  327MOL0     H43126   7.495   4.375   5.614 -3.0293 -1.8012  1.2682
  327MOL0     H43127   7.715   4.274   5.544 -0.8514  0.9207  0.8862
  327MOL0     H43128   7.885   3.835   5.613  0.6182  1.5642  1.4951
  327MOL0     H43129   8.061   3.672   5.577  1.6050  0.4271  0.9156
  327MOL0     H43130   8.423   3.830   5.321  1.1789 -0.6833 -2.3413
  327MOL0     H43131   8.323   3.703   5.251  1.2578  1.4402 -0.4695
  327MOL0     H43132   8.584   3.677   5.412 -0.0663 -0.8857  0.2262
  327MOL0     H43133   8.529   3.618   5.247  0.4801 -1.5742 -0.1445
  327MOL0     H43134   8.394   3.443   5.348 -0.7668 -1.8285  0.2086
  327MOL0     H43135   8.439   3.486   5.508  1.7294  1.3864  0.1233
  327MOL0     H43136   8.684   3.452   5.335 -1.4862  0.1927  0.0850
  327MOL0     H43137   8.649   3.393   5.489  2.9111  0.9296 -0.6699
  327MOL0     H43138   8.533   3.243   5.248  2.9488  1.2305 -1.0247
  327MOL0     H43139   8.530   3.196   5.421  1.4220 -0.3153  0.8422
  327MOL0     H43140   8.797   3.229   5.383 -0.2368 -1.7966  1.4902
  327MOL0     H43141   8.751   3.226   5.218 -1.0051 -1.0152 -0.3812
  327MOL0     H43142   8.662   3.005   5.406  1.0266  2.3116  2.5518
  327MOL0     H43143   8.671   3.016   5.220  1.0553 -1.7360 -0.3075
  327MOL0     H43144   8.888   3.012   5.203 -1.5342  2.8467  0.9682
  327MOL0     H43145   8.840   2.865   5.293 -0.3837 -0.0647  2.0708
  327MOL0     H43146   8.239   3.943   5.297  1.6657 -0.9230  1.2023
  327MOL0     H43147   8.030   4.067   5.280  2.8219  0.3063 -0.2746
  327MOL0     H43148   7.501   4.079   5.221 -1.4065 -0.3210  0.6261
  327MOL0     H43149   7.304   4.231   5.256  0.0515  1.2803  1.0632
  327MOL0     H43150   5.598   4.728   6.068 -0.8419  1.4447  1.1160
  327MOL0     H43151   5.363   4.755   6.174  0.9970 -0.8308  0.0467
  327MOL0     H43152   4.804   4.979   5.916 -0.3212 -0.3640  0.3960
  327MOL0     H43153   4.627   5.098   6.048 -0.2723  1.3888  0.5512
  327MOL0     H43154   4.807   5.243   6.448 -0.5277  0.6362  1.2432
  327MOL0     H43155   4.677   5.137   6.513 -0.3148 -2.1847 -1.4369
  327MOL0     H43156   4.668   5.373   6.557  0.4652 -2.8359  1.1175
  327MOL0     H43157   4.656   5.408   6.383  0.8273 -0.8314 -0.8963
  327MOL0     H43158   4.450   5.230   6.536 -1.5313 -0.7505  0.5284
  327MOL0     H43159   4.435   5.315   6.381 -0.6490  0.2737  0.0991
  327MOL0     H43160   4.397   5.540   6.485  0.6674  0.4925 -0.8433
  327MOL0     H43161   4.306   5.410   6.557  1.3102 -2.3033  3.0843
  327MOL0     H43162   4.526   5.535   6.882 -1.0901 -0.8324  1.0858
  327MOL0     H43163   4.902   5.069   6.384  0.3558 -2.1511  1.1854
  327MOL0     H43164   5.058   4.952   6.252  1.0411 -1.0410 -2.4658
  328MOL0     O43165   8.788   1.529   4.726  0.2339  1.0344 -0.3294
  328MOL0     C43166   8.720   1.431   4.696  0.3168  0.5320 -0.4807
  328MOL0     O43167   8.764   1.301   4.710 -0.8365  0.7795  0.6244
  328MOL0     C43168   8.893   1.259   4.723 -0.6300 -0.1302  0.4598
  328MOL0     C43169   8.951   1.250   4.848 -1.6553  0.3961 -0.3654
  328MOL0     C43170   9.086   1.230   4.873 -0.8003 -1.0453  0.1988
  328MOL0     C43171   9.169   1.208   4.765  0.0116  0.3680 -0.2743
  328MOL0     O43172   9.304   1.195   4.783  0.5645 -0.1806 -0.5899
  328MOL0     C43173   9.368   1.313   4.843  0.3894 -0.0558  0.4283
  328MOL0     C43174   9.506   1.317   4.786 -0.5056  0.4406 -0.3457
  328MOL0     C43175   9.527   1.334   4.642 -0.2966  0.2020  0.0364
  328MOL0     C43176   9.677   1.324   4.609 -0.2885 -0.7280  0.6987
  328MOL0     C43177   9.704   1.371   4.467  0.3921  0.4803  0.8136
  328MOL0     C43178   9.850   1.346   4.425  0.6259 -0.1009  0.3178
  328MOL0     C43179   9.853   1.359   4.274  0.4092 -0.3792  0.2250
  328MOL0     C43180   9.939   1.474   4.218 -0.1357  0.8623  0.6754
  328MOL0     N43181  10.075   1.477   4.278  0.4378  0.3668 -0.5905
  328MOL0     C43182  10.154   1.587   4.285  0.6351 -0.8225  0.9092
  328MOL0     C43183  10.276   1.554   4.329 -0.0258 -0.1771  0.2907
  328MOL0     C43184  10.379   1.659   4.371 -0.7063 -0.6329  0.2676
  328MOL0     C43185  10.433   1.743   4.252 -0.4063 -0.3858  0.4744
  328MOL0     C43186  10.344   1.849   4.172 -1.0991  0.8793  0.3291
  328MOL0     C43187  10.419   1.936   4.067 -0.1867  0.4001 -0.8324
  328MOL0     O43188  10.443   1.851   3.953  0.1460  0.1530 -0.0528
  328MOL0     C43189  10.430   1.903   3.826 -0.0323 -0.1377  0.0501
  328MOL0     C43190  10.366   1.827   3.732 -0.1164  1.7369  0.6729
  328MOL0     C43191  10.371   1.860   3.593 -0.7578 -0.0537 -0.0022
  328MOL0     C43192  10.460   1.965   3.549 -0.0414 -0.7647  0.7545
  328MOL0     C43193  10.474   2.005   3.406 -0.0025  0.7073 -0.5334
  328MOL0     O43194  10.382   1.944   3.321  0.3470  0.2155 -0.1533
  328MOL0     C43195  10.388   1.960   3.185  0.7108 -0.1099 -0.4819
  328MOL0     C43196  10.418   1.848   3.110 -0.6184 -0.4287  0.1260
  328MOL0     C43197  10.434   1.864   2.973  0.0702  0.3931 -1.0502
  328MOL0     C43198  10.398   1.983   2.910 -0.2599 -0.2257 -0.2263
  328MOL0     O43199  10.412   1.986   2.772  0.1410  0.4409 -0.0777
  328MOL0     C43200  10.526   2.044   2.718 -0.4161 -0.3646 -0.2834
  328MOL0     C43201  10.505   2.190   2.709 -0.2920  0.0907  0.0343
  328MOL0     C43202  10.581   2.264   2.590  0.0653  0.2279  1.0869
  328MOL0     C43203  10.730   2.267   2.619 -0.2828  0.7602 -0.6165
  328MOL0     C43204  10.793   2.362   2.520  0.2513 -0.0233  0.2793
  328MOL0     C43205  10.933   2.398   2.576 -0.4231 -0.3464 -0.0693
  328MOL0     C43206  11.025   2.424   2.458 -0.4002  0.5066 -0.5922
  328MOL0     C43207  11.158   2.474   2.521  0.5374 -0.6791 -0.2382
  328MOL0    Cl43208  11.154   2.644   2.570 -0.1386 -0.4552 -0.0804
  328MOL0     C43209  10.349   2.094   2.986 -0.0832  0.4570  0.3326
  328MOL0     C43210  10.346   2.077   3.125 -0.0679  0.5386  0.1417
  328MOL0     O43211  10.551   2.088   3.364 -0.2792 -0.1249  0.2585
  328MOL0     C43212  10.535   2.027   3.648 -0.0312  0.5043  0.6830
  328MOL0     C43213  10.514   2.001   3.782  0.4828  0.0910  1.1639
  328MOL0     N43214  10.270   1.418   4.360 -0.1472 -0.7376 -0.2164
  328MOL0     N43215  10.147   1.376   4.334  0.0900 -0.0891  0.6022
  328MOL0     C43216   9.118   1.216   4.636  0.3493  0.5034 -1.1281
  328MOL0     C43217   8.979   1.242   4.613 -0.5266 -0.6236 -0.3389
  328MOL0     C43218   8.575   1.453   4.677  0.3561 -0.4209  0.0269
  328MOL0     C43219   8.497   1.358   4.613 -0.4276  0.5592  0.9184
  328MOL0     C43220   8.356   1.380   4.610 -1.0189  0.0958 -0.0820
  328MOL0     C43221   8.291   1.497   4.652 -0.0344 -0.0552  0.5627
  328MOL0     O43222   8.156   1.524   4.638  0.0919  0.5638  0.3535
  328MOL0     C43223   8.063   1.413   4.640  0.4732  0.1959 -0.7664
  328MOL0     C43224   7.924   1.475   4.676  0.0578  0.6242 -0.2333
  328MOL0     C43225   7.807   1.387   4.709  0.3968 -1.0949  0.2877
  328MOL0     C43226   7.775   1.304   4.591 -0.0361  0.7825 -0.3850
  328MOL0     C43227   7.662   1.212   4.628 -0.4272 -0.5856  0.9794
  328MOL0     C43228   7.576   1.127   4.639 -0.1497  0.3373  0.2572
  328MOL0     C43229   8.372   1.603   4.691 -0.4395 -0.5997  0.3986
  328MOL0     C43230   8.516   1.577   4.709 -0.5570 -2.1825 -0.0659
  328MOL0     H43231   8.880   1.256   4.930 -0.2690 -1.5022  1.0964
  328MOL0     H43232   9.136   1.235   4.969 -0.5717 -0.2136  0.0458
  328MOL0     H43233   9.390   1.302   4.949  6.7823 -0.0048 -0.5081
  328MOL0     H43234   9.322   1.407   4.813 -0.2418 -0.0954  1.2542
  328MOL0     H43235   9.555   1.224   4.816 -2.6100  0.2264  2.9136
  328MOL0     H43236   9.547   1.403   4.841 -2.4261  0.3775  1.3027
  328MOL0     H43237   9.478   1.422   4.601 -0.2408 -1.1728 -3.3153
  328MOL0     H43238   9.475   1.255   4.585 -0.5966  0.1696  0.3479
  328MOL0     H43239   9.742   1.389   4.669  1.1100 -1.9396  0.5423
  328MOL0     H43240   9.711   1.220   4.619  0.2573 -0.9995 -2.7932
  328MOL0     H43241   9.662   1.472   4.457 -0.9868 -0.0185  1.3222
  328MOL0     H43242   9.645   1.304   4.404 -1.1964  2.7696 -0.2804
  328MOL0     H43243   9.891   1.255   4.469  4.3705  1.4885  0.5168
  328MOL0     H43244   9.903   1.424   4.482 -3.1645  3.8987 -1.0809
  328MOL0     H43245   9.897   1.272   4.225  0.6642  0.3847 -0.9584
  328MOL0     H43246   9.755   1.369   4.228  1.4788 -0.8439 -2.3348
  328MOL0     H43247   9.893   1.570   4.241 -0.8598  1.0627 -1.4320
  328MOL0     H43248   9.966   1.463   4.113  0.5509  0.6162  0.8718
  328MOL0     H43249  10.121   1.684   4.249 -0.8156 -2.1076 -1.5424
  328MOL0     H43250  10.459   1.610   4.427  1.7959 -1.9757 -4.0783
  328MOL0     H43251  10.332   1.728   4.443 -0.9121  0.6065 -1.0152
  328MOL0     H43252  10.459   1.665   4.179  1.1232 -0.7182  1.3232
  328MOL0     H43253  10.520   1.798   4.287 -0.8664  0.0955  0.8724
  328MOL0     H43254  10.266   1.791   4.123 -1.2330  1.7493 -0.5039
  328MOL0     H43255  10.301   1.923   4.241 -0.2838  0.6100  1.1539
  328MOL0     H43256  10.515   1.970   4.107 -0.4791  0.3070 -0.0165
  328MOL0     H43257  10.356   2.022   4.040 -1.4237  0.3966  1.6906
  328MOL0     H43258  10.326   1.729   3.758  1.5264  0.3998 -1.4942
  328MOL0     H43259  10.313   1.793   3.530  0.8933 -1.1756 -0.3706
  328MOL0     H43260  10.452   1.766   3.172  0.1100  1.6042  2.5659
  328MOL0     H43261  10.459   1.780   2.908  0.0978 -0.3919 -0.0428
  328MOL0     H43262  10.521   2.005   2.615  2.9788 -0.6189 -0.4484
  328MOL0     H43263  10.624   2.010   2.753 -0.6153  2.2419  3.3334
  328MOL0     H43264  10.545   2.238   2.799  1.2803  0.2973 -0.7424
  328MOL0     H43265  10.400   2.217   2.690 -0.1526 -1.0331 -2.7584
  328MOL0     H43266  10.548   2.369   2.590  1.7090  0.8244 -1.0236
  328MOL0     H43267  10.570   2.205   2.498  0.5568 -1.6965  2.2100
  328MOL0     H43268  10.751   2.315   2.715  1.6753 -2.0857  0.5094
  328MOL0     H43269  10.778   2.169   2.621 -0.2362  0.7625  2.7345
  328MOL0     H43270  10.738   2.455   2.503 -1.9722 -1.4133 -0.5538
  328MOL0     H43271  10.797   2.318   2.420  0.7730  1.2850 -0.2985
  328MOL0     H43272  10.986   2.309   2.612  1.2067 -0.2995 -2.1634
  328MOL0     H43273  10.930   2.475   2.653 -1.4459 -0.9955  0.5677
  328MOL0     H43274  11.049   2.339   2.393  1.4682  0.8535 -0.3976
  328MOL0     H43275  10.983   2.509   2.404 -1.9456  0.2420  0.1366
  328MOL0     H43276  11.241   2.453   2.454  2.2106  1.7341  0.9434
  328MOL0     H43277  11.170   2.411   2.610 -0.8041  0.1970  0.6073
  328MOL0     H43278  10.318   2.179   2.927  1.5459 -0.2871 -1.7102
  328MOL0     H43279  10.304   2.156   3.186  0.8034  0.6269  0.6377
  328MOL0     H43280  10.617   2.085   3.607  2.1109 -2.4145  0.5159
  328MOL0     H43281  10.570   2.040   3.866 -2.0109  0.5409  2.7218
  328MOL0     H43282   9.193   1.202   4.559  1.1947 -1.8496  0.0312
  328MOL0     H43283   8.938   1.247   4.513 -1.0337  3.1629 -0.0815
  328MOL0     H43284   8.533   1.258   4.592 -0.0689  0.1004  3.4566
  328MOL0     H43285   8.281   1.313   4.569 -1.6161  1.3213 -1.0407
  328MOL0     H43286   8.085   1.351   4.728  1.3506  0.7300 -0.5966
  328MOL0     H43287   8.067   1.356   4.547 -1.5889 -2.9526  0.8808
  328MOL0     H43288   7.946   1.542   4.760 -1.3602 -0.4597  1.0583
  328MOL0     H43289   7.886   1.538   4.595  1.4164  1.1248 -0.5153
  328MOL0     H43290   7.729   1.460   4.733  2.8786  2.1898 -0.9481
  328MOL0     H43291   7.820   1.324   4.798 -1.3541  1.6685  2.6776
  328MOL0     H43292   7.755   1.357   4.497  2.1695  0.2140 -1.2359
  328MOL0     H43293   7.861   1.244   4.561 -1.9995 -0.8395 -3.3762
  328MOL0     H43294   7.496   1.055   4.644  0.1223 -0.2333 -2.2989
  328MOL0     H43295   8.339   1.705   4.705  2.3352  0.0902  2.8931
  328MOL0     H43296   8.576   1.660   4.742 -0.8201 -1.7513 -0.6674
  329MOL0     O43297   9.294   8.612   3.362  0.7422 -0.3454 -0.7776
  329MOL0     C43298   9.250   8.509   3.320 -0.2970  0.2961  0.2451
  329MOL0     O43299   9.326   8.395   3.309  0.8624 -0.4461  0.7293
  329MOL0     C43300   9.449   8.375   3.361  0.0305 -0.3412 -0.3136
  329MOL0     C43301   9.552   8.468   3.377  0.2561 -0.2997 -0.3412
  329MOL0     C43302   9.669   8.437   3.449 -0.1257  0.5734 -0.0403
  329MOL0     C43303   9.683   8.311   3.506 -0.0721 -0.0374 -0.8768
  329MOL0     O43304   9.798   8.284   3.587  0.6303  0.4136  1.1912
  329MOL0     C43305   9.781   8.268   3.727 -0.0345  0.3267 -0.3034
  329MOL0     C43306   9.845   8.367   3.818  0.7754 -0.1731  0.0279
  329MOL0     C43307   9.993   8.348   3.814 -0.2116  0.8140  0.6268
  329MOL0     C43308  10.035   8.449   3.924 -0.3282  1.2087 -0.3674
  329MOL0     C43309  10.190   8.439   3.940 -0.8338 -0.1691  0.2251
  329MOL0     C43310  10.224   8.509   4.072  0.0588  0.6869  0.3554
  329MOL0     C43311  10.359   8.481   4.130  0.4398 -0.3504  0.0669
  329MOL0     C43312  10.384   8.574   4.243 -0.3230  0.1533 -0.4006
  329MOL0     N43313  10.512   8.539   4.319  0.6357 -0.1502 -0.5799
  329MOL0     C43314  10.562   8.589   4.440  0.1161  0.6414 -0.0482
  329MOL0     C43315  10.677   8.509   4.453  0.0288  0.2468 -0.8782
  329MOL0     C43316  10.766   8.505   4.572  0.1063 -0.7508  1.0852
  329MOL0     C43317  10.857   8.630   4.577 -0.8032 -0.0513 -0.1967
  329MOL0     C43318  10.791   8.763   4.614  1.0665 -0.7099 -0.0404
  329MOL0     C43319  10.700   8.760   4.740 -0.2311  0.1203 -0.5673
  329MOL0     O43320  10.781   8.706   4.844  0.5036  0.3326  1.2503
  329MOL0     C43321  10.867   8.784   4.902  0.1275 -0.7662 -0.5053
  329MOL0     C43322  10.895   8.919   4.881 -0.3220  0.6512  0.3020
  329MOL0     C43323  10.984   8.988   4.959  0.6930  0.2836  0.3723
  329MOL0     C43324  11.041   8.925   5.072  0.6548 -0.8276 -0.8635
  329MOL0     C43325  11.110   9.002   5.174 -0.9165  0.0707  0.5886
  329MOL0     O43326  11.124   9.139   5.159 -0.5569 -0.2982  0.0172
  329MOL0     C43327  11.176   9.229   5.256 -0.5159  0.4278  0.2893
  329MOL0     C43328  11.176   9.198   5.394  0.0173  0.5280  0.1270
  329MOL0     C43329  11.209   9.291   5.489 -1.0638  0.1075  0.0639
  329MOL0     C43330  11.237   9.420   5.440 -0.2267 -0.1750 -0.6863
  329MOL0     O43331  11.245   9.515   5.539  0.4172  0.7073 -0.5692
  329MOL0     C43332  11.291   9.653   5.522  0.5186  0.4608 -0.2298
  329MOL0     C43333  11.444   9.664   5.522 -0.0794  0.3653  0.4578
  329MOL0     C43334  11.491   9.790   5.600  0.1060 -0.0468 -1.1270
  329MOL0     C43335  11.641   9.797   5.592 -0.5447  0.1341  0.5153
  329MOL0     C43336  11.694   9.921   5.654 -0.2561  0.4713 -0.5562
  329MOL0     C43337  11.810   9.987   5.583  0.3624 -0.1575  0.0570
  329MOL0     C43338  11.843  10.121   5.657  0.9981 -0.3759  0.3215
  329MOL0     C43339  11.931  10.210   5.569  0.7350 -0.1940  0.1351
  329MOL0    Cl43340  12.011  10.337   5.667  0.5508  0.0432 -0.1030
  329MOL0     C43341  11.231   9.456   5.308 -0.1879 -0.6181  0.1330
  329MOL0     C43342  11.199   9.367   5.213 -0.0244 -0.7547 -0.5069
  329MOL0     O43343  11.152   8.935   5.274  0.0220  0.7733  0.3515
  329MOL0     C43344  11.013   8.786   5.091  0.8162  0.1864 -0.6819
  329MOL0     C43345  10.937   8.721   5.001  0.3277  0.0180  0.0316
  329MOL0     N43346  10.706   8.439   4.338  0.0011 -0.0396  0.3585
  329MOL0     N43347  10.604   8.455   4.266 -1.4271 -0.3476 -0.8113
  329MOL0     C43348   9.579   8.211   3.487 -1.8697  0.5355 -0.2571
  329MOL0     C43349   9.465   8.249   3.418  0.1398  0.2609 -0.3146
  329MOL0     C43350   9.108   8.487   3.304  0.1195 -0.0163 -0.3079
  329MOL0     C43351   9.047   8.363   3.269 -0.2746  0.9243 -0.0122
  329MOL0     C43352   8.908   8.351   3.279 -0.6009  0.6066  0.2765
  329MOL0     C43353   8.825   8.464   3.281 -0.0543  0.5553 -1.0462
  329MOL0     O43354   8.684   8.465   3.283 -1.2733  0.0757 -0.5285
  329MOL0     C43355   8.619   8.341   3.290 -0.4281  0.6881 -0.8721
  329MOL0     C43356   8.464   8.370   3.305  0.2492  0.0465 -0.4383
  329MOL0     C43357   8.431   8.431   3.443  0.3307 -0.1245 -0.4741
  329MOL0     C43358   8.276   8.458   3.460 -0.8754  0.2793 -0.0201
  329MOL0     C43359   8.208   8.339   3.502 -0.4535  0.4983 -0.1547
  329MOL0     C43360   8.159   8.238   3.535 -0.2614  0.9907 -0.3257
  329MOL0     C43361   8.890   8.590   3.303  0.2640 -0.0048  0.5086
  329MOL0     C43362   9.030   8.606   3.316  0.4340  0.8866  0.3868
  329MOL0     H43363   9.548   8.569   3.338  1.6521 -0.6168 -1.3751
  329MOL0     H43364   9.743   8.509   3.481 -0.5338 -0.0244  2.4826
  329MOL0     H43365   9.822   8.169   3.750 -1.6012 -1.1202 -3.1733
  329MOL0     H43366   9.676   8.252   3.756 -0.6534 -1.3802 -3.0986
  329MOL0     H43367   9.802   8.344   3.916  0.3343 -1.2977 -0.4150
  329MOL0     H43368   9.830   8.470   3.785  0.3223  0.1097  1.1041
  329MOL0     H43369  10.048   8.358   3.719  2.9666 -2.4965  1.8815
  329MOL0     H43370  10.017   8.247   3.850 -1.1544  0.1791 -0.4393
  329MOL0     H43371  10.013   8.554   3.904  1.0549  1.8014  0.9953
  329MOL0     H43372   9.994   8.414   4.019  0.8154  0.9374  0.0449
  329MOL0     H43373  10.253   8.492   3.868  1.9560 -2.4157  0.7951
  329MOL0     H43374  10.223   8.334   3.938  0.0734  0.1148 -1.1368
  329MOL0     H43375  10.163   8.463   4.150  1.0003 -2.3193 -0.5770
  329MOL0     H43376  10.197   8.614   4.054  0.1163  0.5528 -0.5414
  329MOL0     H43377  10.370   8.375   4.155  3.6531 -0.0973  0.2093
  329MOL0     H43378  10.439   8.496   4.057 -1.6425 -0.2213 -2.3120
  329MOL0     H43379  10.307   8.571   4.321  0.0223  1.8395  0.0570
  329MOL0     H43380  10.399   8.669   4.191  1.4774 -1.0865 -2.3023
  329MOL0     H43381  10.514   8.646   4.519  2.1159 -0.9868  2.5130
  329MOL0     H43382  10.833   8.421   4.551 -0.9209 -1.0460 -1.2309
  329MOL0     H43383  10.708   8.486   4.663 -0.6238  2.2633  1.3419
  329MOL0     H43384  10.911   8.647   4.484 -0.6068  1.5178  0.1877
  329MOL0     H43385  10.935   8.609   4.651 -0.2630  4.9324  0.9966
  329MOL0     H43386  10.864   8.844   4.606 -0.1612  0.3918 -0.4295
  329MOL0     H43387  10.718   8.785   4.535 -0.5387  1.1671  1.8454
  329MOL0     H43388  10.614   8.694   4.724 -0.9277  0.6389  0.9116
  329MOL0     H43389  10.655   8.857   4.758 -0.9740  0.0039 -1.7155
  329MOL0     H43390  10.854   8.965   4.792 -0.8751  0.4611  0.4536
  329MOL0     H43391  11.018   9.089   4.940  3.4427 -1.1092 -3.4129
  329MOL0     H43392  11.160   9.103   5.444  1.2055 -0.1942 -0.7829
  329MOL0     H43393  11.208   9.270   5.595 -1.0261  1.5924  0.3787
  329MOL0     H43394  11.241   9.703   5.605  0.8550  0.8836 -0.2763
  329MOL0     H43395  11.265   9.700   5.427  1.0157  4.2904  1.3342
  329MOL0     H43396  11.478   9.662   5.419 -1.1637 -0.4969  0.1023
  329MOL0     H43397  11.491   9.576   5.567  3.3827  0.2782 -2.8750
  329MOL0     H43398  11.469   9.795   5.708 -0.8851  4.9627 -1.3350
  329MOL0     H43399  11.442   9.883   5.570  1.7427  1.6065  0.9584
  329MOL0     H43400  11.684   9.709   5.640 -4.0210 -1.3044  1.3241
  329MOL0     H43401  11.669   9.804   5.486  1.2504  0.5150  0.9874
  329MOL0     H43402  11.740   9.895   5.750  0.5197 -1.4155 -1.3816
  329MOL0     H43403  11.606   9.983   5.672 -0.9157 -0.5442 -0.1908
  329MOL0     H43404  11.769  10.010   5.485 -3.7413 -0.2587  1.5568
  329MOL0     H43405  11.893   9.917   5.569 -0.8360 -2.2536  2.4661
  329MOL0     H43406  11.755  10.177   5.692  2.2125  0.4977  2.1959
  329MOL0     H43407  11.891  10.091   5.751 -1.2585  1.7297  2.2639
  329MOL0     H43408  11.857  10.253   5.501 -0.4387 -1.2279  0.7088
  329MOL0     H43409  12.008  10.159   5.510  0.7952  0.4839 -0.3757
  329MOL0     H43410  11.257   9.557   5.278  1.9457 -0.5158  2.0677
  329MOL0     H43411  11.197   9.381   5.105 -1.0859  0.7373 -0.3157
  329MOL0     H43412  11.050   8.739   5.182  1.7202  1.0749 -0.5691
  329MOL0     H43413  10.920   8.617   5.030 -2.0781  0.5856  0.9469
  329MOL0     H43414   9.612   8.115   3.525  5.0731  2.7986  0.9720
  329MOL0     H43415   9.377   8.186   3.410 -0.4575  0.3670  3.4379
  329MOL0     H43416   9.115   8.280   3.250  1.6199  1.8337  2.3294
  329MOL0     H43417   8.861   8.255   3.263 -0.1957  0.4219  0.1739
  329MOL0     H43418   8.654   8.282   3.375 -2.3517 -0.0714 -0.5613
  329MOL0     H43419   8.625   8.273   3.204 -2.3177 -1.8658  0.8663
  329MOL0     H43420   8.445   8.434   3.219 -1.0663  0.2638 -0.0060
  329MOL0     H43421   8.419   8.272   3.291 -2.0842  0.4930  2.6848
  329MOL0     H43422   8.473   8.531   3.451 -0.0035 -0.0027 -0.2033
  329MOL0     H43423   8.470   8.369   3.524 -1.2172  2.8074  2.7714
  329MOL0     H43424   8.270   8.537   3.535 -1.0523 -1.1940  1.5728
  329MOL0     H43425   8.229   8.496   3.369 -0.6397 -0.8642 -0.6438
  329MOL0     H43426   8.100   8.155   3.569  0.6610  1.5895  3.1299
  329MOL0     H43427   8.815   8.668   3.308  0.2296  0.0247 -0.2666
  329MOL0     H43428   9.067   8.702   3.351  2.8297 -0.9012  3.2224
  330MOL0     O43429   7.767   3.980  10.550  0.2856 -0.2063 -0.8290
  330MOL0     C43430   7.794   3.887  10.469 -0.8467  0.1284  0.8653
  330MOL0     O43431   7.709   3.832  10.373  0.4273  0.6691  0.5339
  330MOL0     C43432   7.592   3.892  10.350  0.4704  0.5095  0.6094
  330MOL0     C43433   7.558   3.929  10.216 -0.0031 -0.5719 -0.8191
  330MOL0     C43434   7.435   3.995  10.197 -1.1574  0.3010  0.3126
  330MOL0     C43435   7.339   4.023  10.304  0.0673 -0.0025 -0.7280
  330MOL0     O43436   7.227   4.099  10.288  0.2183 -0.2153 -0.7674
  330MOL0     C43437   7.148   4.097  10.164 -0.1760 -0.2618 -0.4149
  330MOL0     C43438   7.002   4.038  10.179 -0.1936 -0.2616  0.8743
  330MOL0     C43439   6.885   4.121  10.144 -0.2924 -0.6634 -0.9552
  330MOL0     C43440   6.864   4.133   9.997 -0.7421  0.0257 -1.1166
  330MOL0     C43441   6.724   4.182   9.967  1.1326 -0.9214 -0.0096
  330MOL0     C43442   6.614   4.078   9.992  0.1575 -0.4217 -0.4147
  330MOL0     C43443   6.473   4.138   9.974 -0.3302 -0.4678 -0.1212
  330MOL0     C43444   6.363   4.046   9.927 -0.6271  0.5104  0.1791
  330MOL0     N43445   6.237   4.121   9.917 -0.1590  0.0834  0.3607
  330MOL0     C43446   6.150   4.088   9.820 -0.1214  0.2576  0.0254
  330MOL0     C43447   6.027   4.143   9.858  0.3153  0.3660  0.0081
  330MOL0     C43448   5.890   4.096   9.813 -0.0981  0.4820  0.5326
  330MOL0     C43449   5.793   4.108   9.937 -0.3853  0.5211 -0.1233
  330MOL0     C43450   5.647   4.066   9.884 -0.6584  0.9868 -0.4930
  330MOL0     C43451   5.571   4.191   9.829  0.5613  1.1993 -0.1122
  330MOL0     O43452   5.438   4.156   9.796  0.2528  0.1549 -0.0385
  330MOL0     C43453   5.349   4.172   9.898 -0.5392 -0.1867  0.7593
  330MOL0     C43454   5.381   4.199  10.030  0.9439 -0.9884  0.4457
  330MOL0     C43455   5.276   4.235  10.115 -0.6336  0.7366 -0.1029
  330MOL0     C43456   5.139   4.220  10.081 -0.0651  1.0790 -0.1018
  330MOL0     C43457   5.030   4.235  10.186  0.1688  0.7401  0.5927
  330MOL0     O43458   4.905   4.227  10.132  1.1888  0.2590 -0.1132
  330MOL0     C43459   4.789   4.235  10.207  0.5941 -0.1088 -0.1169
  330MOL0     C43460   4.774   4.218  10.352  0.2966  0.2759  0.7336
  330MOL0     C43461   4.651   4.248  10.399 -0.2126 -0.4645 -0.1912
  330MOL0     C43462   4.533   4.270  10.320 -0.3370  0.6448 -0.3489
  330MOL0     O43463   4.412   4.287  10.362 -0.5285  0.0459 -0.1208
  330MOL0     C43464   4.392   4.384  10.466 -1.3908 -0.0650 -0.3707
  330MOL0     C43465   4.256   4.362  10.527 -0.2741 -0.6292 -0.1946
  330MOL0     C43466   4.245   4.233  10.608  0.1793 -0.2412 -1.0341
  330MOL0     C43467   4.096   4.216  10.653  0.3290 -0.1646 -0.2782
  330MOL0     C43468   4.000   4.155  10.552  0.0934 -0.1277  0.5869
  330MOL0     C43469   4.049   4.012  10.512  0.3490  1.1667  0.2488
  330MOL0     C43470   4.038   3.906  10.623  1.1034 -0.4029 -0.3612
  330MOL0     C43471   4.081   3.772  10.562 -0.7772  1.1105 -0.3118
  330MOL0    Cl43472   3.971   3.699  10.435 -0.4433  0.2699  0.7055
  330MOL0     C43473   4.551   4.272  10.187  0.2558  0.4736  0.0644
  330MOL0     C43474   4.671   4.259  10.126  0.0893 -0.1481  0.3660
  330MOL0     O43475   5.052   4.253  10.297 -1.3794 -0.3543 -0.3351
  330MOL0     C43476   5.111   4.176   9.950 -0.0152  0.2322  0.9358
  330MOL0     C43477   5.212   4.163   9.859  0.5729 -0.7172  0.1905
  330MOL0     N43478   6.055   4.236   9.961 -1.0720 -0.1913 -0.0504
  330MOL0     N43479   6.180   4.212  10.002 -0.6792  0.2695 -0.7960
  330MOL0     C43480   7.369   3.954  10.420 -0.0289  0.2905 -0.2364
  330MOL0     C43481   7.495   3.896  10.444  0.5264  0.2567  0.4073
  330MOL0     C43482   7.928   3.833  10.471 -0.5488  0.2456  0.0641
  330MOL0     C43483   7.960   3.722  10.398  0.6648  0.2451 -0.5085
  330MOL0     C43484   8.083   3.651  10.400 -0.4612 -0.7691  0.0963
  330MOL0     C43485   8.184   3.694  10.488  0.0857  0.1188 -1.2170
  330MOL0     O43486   8.287   3.614  10.501 -0.4073  0.9245 -0.2447
  330MOL0     C43487   8.332   3.571  10.638 -0.0222  0.6126  1.4447
  330MOL0     C43488   8.475   3.599  10.631  0.3523  0.0964 -0.1542
  330MOL0     C43489   8.553   3.522  10.732 -0.5110  0.4554  0.0746
  330MOL0     C43490   8.697   3.519  10.707  0.2275 -1.0153  0.1151
  330MOL0     C43491   8.755   3.654  10.706 -1.1351  0.4178  0.4297
  330MOL0     C43492   8.791   3.764  10.724  0.1590  0.0758  0.0418
  330MOL0     C43493   8.159   3.815  10.560 -0.3689  0.7143  0.0046
  330MOL0     C43494   8.035   3.882  10.544  0.0037  0.0094  0.0852
  330MOL0     H43495   7.643   3.928  10.149  2.7295  0.0426  2.3544
  330MOL0     H43496   7.409   4.038  10.101  0.9030  1.5388  0.2353
  330MOL0     H43497   7.209   4.066  10.079  2.8379  4.2380 -0.2548
  330MOL0     H43498   7.142   4.206  10.160 -3.5290 -0.2278  1.7691
  330MOL0     H43499   6.993   4.017  10.286  0.5011 -4.6743  0.2306
  330MOL0     H43500   6.999   3.945  10.122  0.9020  0.1947  0.0413
  330MOL0     H43501   6.902   4.223  10.178  0.9594 -0.8332 -1.0178
  330MOL0     H43502   6.803   4.064  10.189 -1.3144  0.6011 -1.1343
  330MOL0     H43503   6.942   4.200   9.960  1.1185  0.4499  3.0147
  330MOL0     H43504   6.876   4.036   9.948 -2.2651 -0.7445 -0.0388
  330MOL0     H43505   6.726   4.223   9.866  1.5668  1.1850  0.7992
  330MOL0     H43506   6.686   4.263  10.029 -1.8638 -1.2704 -1.2464
  330MOL0     H43507   6.622   4.035  10.092  2.8366 -0.3258 -0.5096
  330MOL0     H43508   6.624   3.996   9.920  2.9035 -1.3026  0.8575
  330MOL0     H43509   6.450   4.180  10.072  0.1612  1.5823 -0.8495
  330MOL0     H43510   6.479   4.220   9.903  1.5070 -0.5135 -0.0731
  330MOL0     H43511   6.349   3.967  10.002 -1.1038  1.3400  0.9715
  330MOL0     H43512   6.395   3.991   9.837 -1.0836 -0.1368  0.4100
  330MOL0     H43513   6.177   4.020   9.739 -0.4527 -0.6928  0.6859
  330MOL0     H43514   5.888   3.999   9.762  0.7301  0.2294  0.9603
  330MOL0     H43515   5.854   4.166   9.737  0.5128  1.3444  1.0118
  330MOL0     H43516   5.790   4.209   9.981 -3.6204 -0.3976  2.1388
  330MOL0     H43517   5.837   4.032  10.001 -0.6570  0.2692 -0.2363
  330MOL0     H43518   5.656   4.005   9.794 -2.2385 -0.7102  0.4281
  330MOL0     H43519   5.584   4.003   9.948 -1.3471 -0.7680 -2.7582
  330MOL0     H43520   5.612   4.210   9.729  0.9637 -4.2266 -1.3181
  330MOL0     H43521   5.585   4.275   9.897 -0.4064 -0.4487  2.2478
  330MOL0     H43522   5.485   4.215  10.054  1.3363 -2.4235 -0.1566
  330MOL0     H43523   5.310   4.269  10.212  1.7586 -1.5480 -0.0265
  330MOL0     H43524   4.859   4.187  10.412 -1.7946 -3.5225  2.0992
  330MOL0     H43525   4.645   4.243  10.508 -1.3798  2.9071  0.0276
  330MOL0     H43526   4.385   4.481  10.415 -1.3159 -0.3284 -0.8829
  330MOL0     H43527   4.470   4.390  10.542 -0.8044 -3.5360 -0.5591
  330MOL0     H43528   4.184   4.367  10.445 -0.8569  1.0759  0.3828
  330MOL0     H43529   4.226   4.444  10.593 -0.0889 -2.7354  2.7570
  330MOL0     H43530   4.313   4.230  10.693 -1.7806 -2.0894  0.5697
  330MOL0     H43531   4.281   4.141  10.562 -0.8189 -0.4366 -1.4513
  330MOL0     H43532   4.096   4.154  10.743  0.4499  1.5985  0.9902
  330MOL0     H43533   4.057   4.315  10.676 -0.0326 -0.0386 -1.3789
  330MOL0     H43534   4.000   4.228  10.471 -4.0993 -1.6146 -1.0356
  330MOL0     H43535   3.898   4.139  10.589  0.4270 -3.0393  0.5284
  330MOL0     H43536   4.148   4.016  10.466  0.1653  0.4912 -0.2230
  330MOL0     H43537   3.990   3.973  10.429  0.5810  2.4015 -0.5113
  330MOL0     H43538   4.103   3.923  10.710 -1.9862 -0.2166  2.1018
  330MOL0     H43539   3.937   3.917  10.663  1.0641  0.8219 -0.7564
  330MOL0     H43540   4.101   3.694  10.637  0.2189 -1.4679 -3.0577
  330MOL0     H43541   4.179   3.785  10.515 -0.5308 -2.7201 -1.2513
  330MOL0     H43542   4.461   4.293  10.129 -0.0735 -1.9850 -0.4138
  330MOL0     H43543   4.687   4.267  10.019 -1.3472 -2.4328 -0.1034
  330MOL0     H43544   5.010   4.155   9.914  0.2104 -1.2312  1.0683
  330MOL0     H43545   5.193   4.147   9.754 -0.3790  1.7997 -0.0879
  330MOL0     H43546   7.299   3.952  10.502 -2.0245 -1.0742 -1.8735
  330MOL0     H43547   7.515   3.850  10.541 -0.3500 -4.2316 -1.2980
  330MOL0     H43548   7.887   3.685  10.326  1.4780  0.1187 -1.2945
  330MOL0     H43549   8.097   3.566  10.334  1.7579  1.0953 -2.0359
  330MOL0     H43550   8.304   3.466  10.648 -0.0781  0.7376  2.7517
  330MOL0     H43551   8.290   3.627  10.721 -0.2487  0.9242  1.1242
  330MOL0     H43552   8.518   3.585  10.532 -1.9695  2.7239 -1.6665
  330MOL0     H43553   8.491   3.706  10.643 -0.1711  0.1159  0.4310
  330MOL0     H43554   8.536   3.414  10.725 -2.0553  0.6745 -0.0165
  330MOL0     H43555   8.537   3.541  10.839  2.5473 -0.9510  0.8976
  330MOL0     H43556   8.749   3.468  10.789  0.2175  2.3153  2.3816
  330MOL0     H43557   8.712   3.461  10.615  2.0850  0.9815 -0.9508
  330MOL0     H43558   8.820   3.860  10.760  0.7623 -0.3746  0.7881
  330MOL0     H43559   8.234   3.865  10.621 -0.1308 -0.3742  0.6296
  330MOL0     H43560   8.016   3.979  10.589 -1.9704  0.7369 -2.1371
  331MOL0     O43561   7.145  10.303   1.784  0.2997 -0.3209 -0.3130
  331MOL0     C43562   7.220  10.309   1.690 -0.1295  0.1352  0.3972
  331MOL0     O43563   7.183  10.330   1.555 -0.5312 -0.1010  0.4449
  331MOL0     C43564   7.054  10.325   1.521  0.6419 -0.4901 -1.0853
  331MOL0     C43565   7.034  10.255   1.397 -0.8337 -0.6627  0.1080
  331MOL0     C43566   6.903  10.243   1.351  0.2893  0.3154  0.3344
  331MOL0     C43567   6.799  10.306   1.428 -0.8060 -0.4347  0.0823
  331MOL0     O43568   6.666  10.296   1.398  0.4628 -0.2886  0.1445
  331MOL0     C43569   6.618  10.284   1.259  0.2054 -0.1483  1.1718
  331MOL0     C43570   6.470  10.275   1.269  0.2895  0.1061  1.2634
  331MOL0     C43571   6.431  10.134   1.294 -0.3508 -0.1020 -0.6315
  331MOL0     C43572   6.273  10.123   1.275 -0.5416 -0.0825  0.1908
  331MOL0     C43573   6.231   9.978   1.321 -0.6069  0.5601  0.5423
  331MOL0     C43574   6.089   9.951   1.299 -0.8922 -0.4160 -0.0459
  331MOL0     C43575   6.047   9.829   1.396 -0.2524 -0.5995  0.1708
  331MOL0     C43576   5.896   9.817   1.388  0.0814  0.4052  0.6583
  331MOL0     N43577   5.849   9.770   1.256 -0.5762 -0.1719  0.4622
  331MOL0     C43578   5.891   9.655   1.192  0.6174  0.2600 -0.1592
  331MOL0     C43579   5.824   9.649   1.077  0.2544  0.8121  0.0586
  331MOL0     C43580   5.845   9.528   0.986 -0.0168 -0.2248  0.3152
  331MOL0     C43581   5.702   9.479   0.955  0.2951 -0.0133 -0.4140
  331MOL0     C43582   5.682   9.350   0.884  0.5610  0.2447  0.2807
  331MOL0     C43583   5.551   9.342   0.795  0.3460 -0.6997  0.0362
  331MOL0     O43584   5.451   9.375   0.890  0.5310  0.7171 -0.1977
  331MOL0     C43585   5.322   9.342   0.845 -1.0422 -0.4335 -0.0276
  331MOL0     C43586   5.237   9.267   0.921  0.4098 -0.1666  0.0388
  331MOL0     C43587   5.110   9.229   0.877 -0.8400  0.0062 -0.4607
  331MOL0     C43588   5.058   9.275   0.756  0.6570 -0.3963  0.0287
  331MOL0     C43589   4.929   9.236   0.701  0.2507 -0.8435  0.5447
  331MOL0     O43590   4.850   9.334   0.653 -0.0370 -0.8789  0.5269
  331MOL0     C43591   4.711   9.322   0.652 -0.4602 -0.2403 -1.3517
  331MOL0     C43592   4.646   9.386   0.537  0.6069  1.5163 -0.5555
  331MOL0     C43593   4.507   9.361   0.512 -0.2039  0.4741 -0.7684
  331MOL0     C43594   4.429   9.312   0.616 -0.5169  0.2103 -0.0741
  331MOL0     O43595   4.299   9.313   0.608 -0.1930 -0.0849 -0.2525
  331MOL0     C43596   4.239   9.430   0.547  0.3030  0.3144 -0.1311
  331MOL0     C43597   4.287   9.573   0.597 -0.0728  0.1860  0.3691
  331MOL0     C43598   4.301   9.587   0.746 -0.7779  0.4520 -0.8112
  331MOL0     C43599   4.293   9.739   0.772  0.6790  0.1013 -0.2127
  331MOL0     C43600   4.334   9.782   0.923  0.4012  0.6763 -0.1366
  331MOL0     C43601   4.219   9.778   1.017  0.5676  0.6249  0.0288
  331MOL0     C43602   4.257   9.788   1.160  0.0726  0.0818 -1.0176
  331MOL0     C43603   4.145   9.769   1.259  0.6012 -0.2870 -0.0808
  331MOL0    Cl43604   4.072   9.921   1.302 -0.7079  0.0979 -0.3764
  331MOL0     C43605   4.491   9.260   0.735  0.0659  0.0034 -0.1786
  331MOL0     C43606   4.628   9.261   0.750 -0.3537  0.2406  0.1738
  331MOL0     O43607   4.902   9.111   0.717  0.0913 -0.8225  0.5048
  331MOL0     C43608   5.149   9.334   0.672 -0.5427 -0.0009  0.5668
  331MOL0     C43609   5.283   9.366   0.710 -0.0439 -0.2291 -0.0040
  331MOL0     N43610   5.747   9.761   1.064 -0.3226  1.1448 -0.4790
  331MOL0     N43611   5.756   9.828   1.179  0.4348 -0.0322 -0.1608
  331MOL0     C43612   6.828  10.386   1.548 -0.3656 -0.2263  1.4284
  331MOL0     C43613   6.953  10.386   1.595  0.6637  0.8486 -0.4937
  331MOL0     C43614   7.366  10.294   1.703 -0.0971  0.0373  0.8865
  331MOL0     C43615   7.454  10.277   1.596 -0.7316  0.1754 -0.2601
  331MOL0     C43616   7.594  10.271   1.623  0.5604  0.1251  0.4058
  331MOL0     C43617   7.652  10.292   1.744 -0.5152  1.5025 -0.4065
  331MOL0     O43618   7.792  10.291   1.751 -0.0389 -0.9820  0.5002
  331MOL0     C43619   7.840  10.310   1.887  0.2677  0.5735 -0.2366
  331MOL0     C43620   7.990  10.344   1.884  0.1480 -0.2224  0.4372
  331MOL0     C43621   8.077  10.242   1.806  0.4727  0.3894  0.1587
  331MOL0     C43622   8.227  10.272   1.803  0.3032  0.4818  0.4066
  331MOL0     C43623   8.257  10.390   1.724  0.0986  0.1413 -0.4994
  331MOL0     C43624   8.261  10.495   1.666  0.3342  0.3117  0.5267
  331MOL0     C43625   7.558  10.309   1.853  0.7121 -0.2106 -0.7670
  331MOL0     C43626   7.421  10.290   1.834 -0.4519 -0.4149 -0.4073
  331MOL0     H43627   7.119  10.204   1.353 -1.2439 -0.9511 -0.3495
  331MOL0     H43628   6.889  10.178   1.266  1.2268  0.6085 -0.0555
  331MOL0     H43629   6.661  10.195   1.212 -0.4643  0.6199 -1.0076
  331MOL0     H43630   6.638  10.377   1.206 -1.6758  0.0278  0.7274
  331MOL0     H43631   6.433  10.290   1.167  2.6811 -3.2896 -0.3008
  331MOL0     H43632   6.427  10.338   1.348 -1.5549 -1.1178  1.2925
  331MOL0     H43633   6.465  10.100   1.392 -2.7194 -2.9870 -0.6429
  331MOL0     H43634   6.480  10.075   1.216  1.2709 -0.0439  0.3052
  331MOL0     H43635   6.225  10.205   1.329  1.4707  1.5935 -0.4399
  331MOL0     H43636   6.243  10.137   1.171 -1.6783 -0.7012  0.4112
  331MOL0     H43637   6.250   9.969   1.428 -0.6517 -1.0155  0.4341
  331MOL0     H43638   6.293   9.902   1.273 -0.1857  0.3850  1.3429
  331MOL0     H43639   6.079   9.920   1.194 -4.9910 -0.6960  0.2559
  331MOL0     H43640   6.030  10.039   1.326  1.1626  0.5969  1.3448
  331MOL0     H43641   6.103   9.742   1.361 -1.6417 -0.8589 -1.5498
  331MOL0     H43642   6.071   9.864   1.497 -1.1465  0.7968 -0.0731
  331MOL0     H43643   5.847   9.907   1.425 -1.9527 -0.7127  0.8404
  331MOL0     H43644   5.866   9.740   1.460 -2.0583  1.5014  1.0167
  331MOL0     H43645   5.969   9.583   1.218 -1.0311 -2.6929 -2.6013
  331MOL0     H43646   5.896   9.442   1.031 -1.7690 -0.4929  1.8679
  331MOL0     H43647   5.891   9.548   0.888  1.6915 -1.4150  0.8175
  331MOL0     H43648   5.649   9.552   0.894 -1.8493 -0.9628  0.2003
  331MOL0     H43649   5.642   9.474   1.047  0.2292  0.1821 -0.4473
  331MOL0     H43650   5.761   9.332   0.811  0.4776  1.4311 -0.1216
  331MOL0     H43651   5.687   9.267   0.955 -0.2911  0.3394  0.4631
  331MOL0     H43652   5.531   9.244   0.750 -2.5046 -0.7279  1.1623
  331MOL0     H43653   5.548   9.409   0.708 -1.5628 -1.6051 -0.6553
  331MOL0     H43654   5.272   9.229   1.016  1.6598 -3.1095 -1.4731
  331MOL0     H43655   5.062   9.166   0.952  2.7073  0.3402  2.3629
  331MOL0     H43656   4.709   9.440   0.467  4.3187  0.9711  2.0284
  331MOL0     H43657   4.464   9.403   0.421 -1.3287  0.8334 -0.0954
  331MOL0     H43658   4.134   9.417   0.572  0.0651 -2.4116 -1.9871
  331MOL0     H43659   4.247   9.426   0.438 -0.3891  2.0530 -0.2776
  331MOL0     H43660   4.207   9.639   0.560 -2.0961 -2.5323 -0.4202
  331MOL0     H43661   4.384   9.599   0.555 -0.1556  0.1740  0.1710
  331MOL0     H43662   4.401   9.552   0.775 -0.3883  0.7457 -1.7641
  331MOL0     H43663   4.224   9.533   0.802 -1.9341  2.0440 -0.8047
  331MOL0     H43664   4.365   9.785   0.703 -0.1536  2.4095  0.3708
  331MOL0     H43665   4.199   9.792   0.757  1.4539  2.2417  1.9443
  331MOL0     H43666   4.359   9.888   0.924  2.5287  0.2326 -0.7678
  331MOL0     H43667   4.420   9.723   0.956  0.5844 -0.2709 -2.1627
  331MOL0     H43668   4.160   9.687   1.003  3.9801 -1.8863  0.8133
  331MOL0     H43669   4.152   9.864   1.001 -0.5146  0.5685  3.4035
  331MOL0     H43670   4.327   9.704   1.168 -0.6803 -0.5089 -0.3388
  331MOL0     H43671   4.299   9.887   1.176 -0.7300  0.1422  1.0841
  331MOL0     H43672   4.195   9.735   1.351  0.1318 -0.9553 -0.0625
  331MOL0     H43673   4.075   9.700   1.212  1.2033  0.7286 -2.6037
  331MOL0     H43674   4.425   9.232   0.815 -2.6295 -2.5913 -3.0380
  331MOL0     H43675   4.672   9.220   0.840  0.6513 -1.1847 -0.9286
  331MOL0     H43676   5.118   9.351   0.570  3.4976 -2.0391 -1.2305
  331MOL0     H43677   5.343   9.422   0.639 -1.1928  1.1793  0.1045
  331MOL0     H43678   6.749  10.444   1.594 -0.6149 -0.3816  1.2011
  331MOL0     H43679   6.978  10.453   1.677  0.6658  2.8392 -2.0523
  331MOL0     H43680   7.423  10.269   1.493  1.4702  2.4988 -1.2170
  331MOL0     H43681   7.658  10.244   1.539  0.7058 -2.1901  1.1875
  331MOL0     H43682   7.819  10.217   1.939  0.8122 -0.1696 -1.3100
  331MOL0     H43683   7.789  10.386   1.947 -0.3130  0.5324 -0.6653
  331MOL0     H43684   8.002  10.439   1.832  1.6998 -0.6330 -0.0076
  331MOL0     H43685   8.025  10.348   1.988 -0.4177  0.2033  0.6185
  331MOL0     H43686   8.043  10.256   1.704  1.6311 -1.7754 -0.5846
  331MOL0     H43687   8.044  10.146   1.846 -0.9068  0.8804  0.2350
  331MOL0     H43688   8.271  10.293   1.901 -1.3277  2.1105  0.8421
  331MOL0     H43689   8.279  10.195   1.746 -1.7302  0.3758 -1.4497
  331MOL0     H43690   8.275  10.583   1.606  0.7811  0.2823  0.5832
  331MOL0     H43691   7.573  10.323   1.960 -2.1819 -1.2735 -0.1331
  331MOL0     H43692   7.355  10.310   1.918 -4.4753  1.4419 -3.6480
  332MOL0     O43693   9.786   1.043   4.210 -0.4481 -0.1321 -0.3424
  332MOL0     C43694   9.803   0.973   4.312 -0.6364 -0.1500 -0.9959
  332MOL0     O43695   9.924   0.942   4.361 -0.2362  0.1378 -0.7673
  332MOL0     C43696  10.030   0.948   4.276 -0.7468  0.8462 -0.1918
  332MOL0     C43697  10.120   1.055   4.293  0.7651  0.9206 -0.2793
  332MOL0     C43698  10.239   1.063   4.217 -0.4670  1.3311 -0.5249
  332MOL0     C43699  10.261   0.970   4.123  0.5458 -0.1412  0.6300
  332MOL0     O43700  10.377   0.981   4.042  0.0259  0.2659 -0.7856
  332MOL0     C43701  10.498   0.958   4.110 -0.7845  0.0576  0.0458
  332MOL0     C43702  10.612   1.032   4.036 -0.2967  0.3168 -0.1963
  332MOL0     C43703  10.635   0.984   3.889 -0.9805  0.7637 -0.4312
  332MOL0     C43704  10.718   1.077   3.812  0.4001  0.1199 -0.6359
  332MOL0     C43705  10.861   1.105   3.862 -0.0840  0.4392 -0.7828
  332MOL0     C43706  10.930   1.211   3.773  0.0153  1.2365  0.8853
  332MOL0     C43707  11.068   1.217   3.820  0.3723 -0.7823 -0.5656
  332MOL0     C43708  11.143   1.302   3.722 -1.2217  1.0153 -0.2381
  332MOL0     N43709  11.271   1.352   3.767 -0.9920  1.0930 -0.4190
  332MOL0     C43710  11.300   1.484   3.785  0.3712 -0.1719  0.0105
  332MOL0     C43711  11.426   1.493   3.827 -0.6869  0.6423  0.5613
  332MOL0     C43712  11.499   1.615   3.850 -0.2786  0.4599  0.0467
  332MOL0     C43713  11.500   1.688   3.716  0.5767  0.1709 -0.3812
  332MOL0     C43714  11.582   1.810   3.728 -0.4827 -0.4610 -0.0702
  332MOL0     C43715  11.575   1.905   3.616  0.1368 -0.3064  0.1879
  332MOL0     O43716  11.620   1.870   3.489  0.0004 -0.3700 -0.2712
  332MOL0     C43717  11.759   1.887   3.470  0.0116 -0.4219  0.0801
  332MOL0     C43718  11.818   2.015   3.446 -0.5847  0.3292  0.0360
  332MOL0     C43719  11.957   2.030   3.441 -0.4948 -0.2436 -0.2145
  332MOL0     C43720  12.036   1.913   3.442  0.7178 -0.3365  0.2571
  332MOL0     C43721  12.181   1.909   3.418 -0.7747 -0.6495 -0.4305
  332MOL0     O43722  12.238   1.798   3.375  0.0691 -0.1519 -0.2666
  332MOL0     C43723  12.372   1.791   3.355 -1.5345  0.2171 -0.6814
  332MOL0     C43724  12.415   1.736   3.235  0.5917 -0.4315 -0.2435
  332MOL0     C43725  12.555   1.754   3.197 -0.1434 -0.5741  0.4242
  332MOL0     C43726  12.653   1.787   3.299  0.4863  0.1406  0.9030
  332MOL0     O43727  12.788   1.787   3.257  0.4701 -0.7526  0.4130
  332MOL0     C43728  12.869   1.868   3.349  0.0420  0.1946 -0.3866
  332MOL0     C43729  13.013   1.861   3.290 -0.1304 -0.1270  0.9543
  332MOL0     C43730  13.093   1.781   3.375 -0.1305  0.3185  0.1177
  332MOL0     C43731  13.237   1.779   3.322  0.0504 -0.0863 -0.3509
  332MOL0     C43732  13.352   1.720   3.401 -0.1389  0.1185 -0.9051
  332MOL0     C43733  13.329   1.576   3.471  0.1840  0.2700 -0.0757
  332MOL0     C43734  13.450   1.502   3.530 -0.4302  0.4087  0.2216
  332MOL0     C43735  13.542   1.446   3.419 -0.4864  0.9489  0.2032
  332MOL0    Cl43736  13.469   1.296   3.346 -0.0702 -0.1951  0.2987
  332MOL0     C43737  12.596   1.812   3.427  0.1738 -0.1442 -0.1891
  332MOL0     C43738  12.459   1.816   3.457 -0.3284 -0.2033  0.6576
  332MOL0     O43739  12.247   2.012   3.444  0.7241  0.5998 -0.3322
  332MOL0     C43740  11.977   1.787   3.474 -0.5725  1.2893 -0.3163
  332MOL0     C43741  11.837   1.775   3.480 -0.0867 -0.3607  0.3647
  332MOL0     N43742  11.480   1.358   3.829 -0.5290 -0.2001 -0.3423
  332MOL0     N43743  11.381   1.280   3.801 -0.3658  0.0916  0.4927
  332MOL0     C43744  10.173   0.868   4.101  0.4705  0.1396  0.9042
  332MOL0     C43745  10.057   0.861   4.177  0.2729  0.2897  0.0892
  332MOL0     C43746   9.692   0.935   4.399  0.5360 -1.0124 -0.4799
  332MOL0     C43747   9.562   0.996   4.399  0.5895  0.3502  0.8915
  332MOL0     C43748   9.468   0.969   4.501 -0.0671  0.7558 -0.4465
  332MOL0     C43749   9.491   0.868   4.598  0.1205 -0.2913  0.9700
  332MOL0     O43750   9.392   0.820   4.687 -0.0976  0.1749 -0.5771
  332MOL0     C43751   9.255   0.804   4.643  0.7277  0.1649 -0.4701
  332MOL0     C43752   9.207   0.664   4.675 -0.3095 -0.2977 -0.1120
  332MOL0     C43753   9.222   0.569   4.558  0.0643 -0.1818 -0.0576
  332MOL0     C43754   9.197   0.420   4.604  0.5992 -0.1738 -0.3540
  332MOL0     C43755   9.302   0.329   4.623 -0.5422  0.3019 -0.8242
  332MOL0     C43756   9.394   0.259   4.641 -0.0729  0.6561  0.9322
  332MOL0     C43757   9.617   0.805   4.587  0.3145  0.4004 -0.1231
  332MOL0     C43758   9.708   0.843   4.498 -0.2918  1.4195 -0.1226
  332MOL0     H43759  10.103   1.136   4.363  1.8962  0.2333  0.8354
  332MOL0     H43760  10.312   1.143   4.219  0.3515  0.6262  2.1384
  332MOL0     H43761  10.530   0.853   4.107  0.0931  0.3335 -0.2755
  332MOL0     H43762  10.501   1.007   4.208  1.5540  2.7848 -1.2502
  332MOL0     H43763  10.704   1.007   4.090 -1.7552 -2.3011  1.3028
  332MOL0     H43764  10.589   1.138   4.045 -0.7797  0.0610  2.7138
  332MOL0     H43765  10.541   0.975   3.834 -1.8928 -3.3442  1.3961
  332MOL0     H43766  10.687   0.889   3.875  2.1815  2.6136 -2.5874
  332MOL0     H43767  10.729   1.033   3.712 -0.7723 -1.8183  0.0412
  332MOL0     H43768  10.664   1.169   3.787  0.7681 -0.5046 -4.4556
  332MOL0     H43769  10.912   1.009   3.849  3.2707  1.7415  1.5174
  332MOL0     H43770  10.867   1.128   3.969 -2.0985  2.0867 -0.9522
  332MOL0     H43771  10.879   1.308   3.774  0.3277  1.4478 -0.8616
  332MOL0     H43772  10.939   1.175   3.670  1.7314  3.5747  0.1291
  332MOL0     H43773  11.076   1.263   3.918 -1.1957 -0.9018 -0.3544
  332MOL0     H43774  11.111   1.117   3.828  0.3190 -0.6275  3.1089
  332MOL0     H43775  11.086   1.384   3.678 -3.4550  0.3665  1.2971
  332MOL0     H43776  11.159   1.229   3.642 -0.2996  0.7999  0.1243
  332MOL0     H43777  11.220   1.556   3.791  0.2995  0.0155 -2.1783
  332MOL0     H43778  11.599   1.591   3.887  0.6977  2.8757 -0.8464
  332MOL0     H43779  11.442   1.675   3.922 -0.2709 -1.0785  1.4055
  332MOL0     H43780  11.402   1.716   3.677  0.0887 -1.0785 -0.0959
  332MOL0     H43781  11.548   1.618   3.647  1.4874 -1.3692  1.6880
  332MOL0     H43782  11.565   1.867   3.819  4.1431 -1.9120  2.0164
  332MOL0     H43783  11.686   1.777   3.732 -0.6408 -1.5124 -2.7125
  332MOL0     H43784  11.625   1.998   3.645 -0.4447 -0.7287  2.7816
  332MOL0     H43785  11.468   1.928   3.623  0.5138  1.4885  0.6580
  332MOL0     H43786  11.763   2.105   3.422 -1.1164 -0.5590 -2.3673
  332MOL0     H43787  12.001   2.128   3.425  2.1948 -1.2981  0.1861
  332MOL0     H43788  12.343   1.699   3.164  0.0456 -0.5083  0.3426
  332MOL0     H43789  12.595   1.748   3.096 -0.6484  3.5987 -0.2026
  332MOL0     H43790  12.863   1.831   3.452  0.1614 -0.2345 -0.5280
  332MOL0     H43791  12.827   1.968   3.341 -1.7093 -0.5403 -0.9420
  332MOL0     H43792  13.059   1.958   3.274  0.9484 -0.8530 -0.6020
  332MOL0     H43793  13.000   1.805   3.196 -0.6468  1.0209  0.3235
  332MOL0     H43794  13.061   1.677   3.386 -2.9407  1.1731  0.6700
  332MOL0     H43795  13.087   1.841   3.466 -1.6554  2.3957 -1.2593
  332MOL0     H43796  13.230   1.753   3.216 -1.8808  2.0241 -0.8215
  332MOL0     H43797  13.265   1.885   3.331  0.4951 -0.1322 -1.1185
  332MOL0     H43798  13.382   1.779   3.489  0.1644 -0.5264 -0.5665
  332MOL0     H43799  13.437   1.706   3.334 -0.2494  0.2102 -1.0628
  332MOL0     H43800  13.277   1.525   3.389 -1.7233  5.0623 -2.2724
  332MOL0     H43801  13.247   1.589   3.543  0.1120  0.7849 -0.2459
  332MOL0     H43802  13.516   1.578   3.573 -0.2048  1.2933 -1.5857
  332MOL0     H43803  13.418   1.428   3.604 -0.9693  0.5542  0.1351
  332MOL0     H43804  13.639   1.415   3.458 -0.3402  1.6342  0.3908
  332MOL0     H43805  13.559   1.518   3.339  0.7691  2.1465  1.4870
  332MOL0     H43806  12.652   1.838   3.517 -2.0031 -1.9475  1.8407
  332MOL0     H43807  12.420   1.834   3.557 -1.9975 -1.8673  0.3656
  332MOL0     H43808  12.022   1.689   3.485 -0.3979  1.2709 -1.1849
  332MOL0     H43809  11.783   1.682   3.497 -0.1584 -0.5862 -0.9813
  332MOL0     H43810  10.188   0.811   4.010 -0.7816  0.0821  0.7124
  332MOL0     H43811   9.993   0.776   4.155 -0.3298  0.4759  1.0514
  332MOL0     H43812   9.536   1.068   4.322 -2.4133  0.3673  1.7842
  332MOL0     H43813   9.367   1.009   4.498 -0.3917  0.2651  1.6869
  332MOL0     H43814   9.246   0.829   4.537 -0.0747  4.3658  0.4146
  332MOL0     H43815   9.190   0.867   4.705  1.0622 -0.6269  0.7307
  332MOL0     H43816   9.268   0.613   4.750  1.3445 -1.3083 -2.0118
  332MOL0     H43817   9.102   0.659   4.704 -0.7286 -0.0759 -1.4880
  332MOL0     H43818   9.317   0.578   4.505  0.4476  2.4125  0.9481
  332MOL0     H43819   9.160   0.598   4.473 -0.5226 -0.3181  0.3172
  332MOL0     H43820   9.127   0.413   4.687  1.4648  2.1189  0.6599
  332MOL0     H43821   9.147   0.375   4.518 -2.6904  0.6935  0.9424
  332MOL0     H43822   9.478   0.197   4.663  0.4354  0.8949 -0.3174
  332MOL0     H43823   9.633   0.725   4.658  2.9925  1.0050  0.0380
  332MOL0     H43824   9.787   0.769   4.496 -3.0307 -1.7858  0.4063
  333MOL0     O43825   9.376  11.061   6.445  0.3408  0.0670 -0.3368
  333MOL0     C43826   9.359  11.174   6.498 -0.4296 -0.5019 -0.2716
  333MOL0     O43827   9.254  11.219   6.575 -0.4228  0.3845  0.4506
  333MOL0     C43828   9.137  11.136   6.613 -0.3032  0.6991  0.1110
  333MOL0     C43829   9.144  10.991   6.621  0.8580 -0.8495 -0.2025
  333MOL0     C43830   9.021  10.928   6.660  0.0297 -0.9736 -0.2949
  333MOL0     C43831   8.905  11.013   6.707  0.6321  0.8940  0.3724
  333MOL0     O43832   8.788  10.944   6.751  0.0389  0.0303  0.3615
  333MOL0     C43833   8.696  11.013   6.835  0.0089  0.1013 -0.5666
  333MOL0     C43834   8.586  10.911   6.871  0.0109  0.3922  0.6461
  333MOL0     C43835   8.502  10.973   6.986  0.2105  0.0162  0.6065
  333MOL0     C43836   8.364  10.908   6.967  0.2750 -0.4240  0.2313
  333MOL0     C43837   8.258  10.977   7.050 -0.0031 -0.8553  0.4083
  333MOL0     C43838   8.282  10.966   7.202  0.1126  0.3521  0.6928
  333MOL0     C43839   8.220  11.073   7.280  0.7755 -0.1279  0.0378
  333MOL0     C43840   8.073  11.038   7.301  0.5189 -0.9469  0.6134
  333MOL0     N43841   8.037  10.927   7.392  0.2575 -0.3287  0.1486
  333MOL0     C43842   8.047  10.917   7.529  1.1829  0.0486 -0.8567
  333MOL0     C43843   7.988  10.795   7.557  1.6527 -0.6173  0.2354
  333MOL0     C43844   7.959  10.740   7.692  1.0748 -0.0646 -0.7224
  333MOL0     C43845   7.827  10.814   7.752  0.8699  0.3154  1.0338
  333MOL0     C43846   7.809  10.774   7.899 -1.3660  0.1328  0.2776
  333MOL0     C43847   7.682  10.832   7.960 -0.9147  0.4232 -0.0337
  333MOL0     O43848   7.567  10.757   7.923 -0.7782  0.3030  0.4037
  333MOL0     C43849   7.504  10.813   7.818 -0.5478  0.1395  0.8198
  333MOL0     C43850   7.472  10.950   7.810  0.4607 -0.6755 -0.5656
  333MOL0     C43851   7.380  10.995   7.707 -0.3119  0.9802 -0.2337
  333MOL0     C43852   7.328  10.908   7.607  0.3132  0.7298  0.0005
  333MOL0     C43853   7.236  10.951   7.498 -0.2146  0.1880 -0.7784
  333MOL0     O43854   7.225  11.081   7.487  0.1641  0.4611  0.5777
  333MOL0     C43855   7.132  11.143   7.409  0.4013  0.7978 -0.2204
  333MOL0     C43856   7.146  11.279   7.386  1.2427 -0.1245  0.3048
  333MOL0     C43857   7.041  11.349   7.317 -1.0241  0.5568  0.4075
  333MOL0     C43858   6.928  11.289   7.277 -0.3490  0.3816  1.3170
  333MOL0     O43859   6.817  11.355   7.233 -0.8771 -0.1784  0.2690
  333MOL0     C43860   6.799  11.489   7.270 -0.0657  0.9445 -1.5039
  333MOL0     C43861   6.664  11.541   7.237  0.2742 -0.4267 -0.3944
  333MOL0     C43862   6.652  11.593   7.090 -0.7299  0.0890  0.0948
  333MOL0     C43863   6.531  11.673   7.061  0.3634 -0.0145 -0.4633
  333MOL0     C43864   6.543  11.740   6.935  0.2750 -0.8048  0.4342
  333MOL0     C43865   6.413  11.803   6.887 -0.3171  0.7176 -0.5314
  333MOL0     C43866   6.413  11.917   6.793 -0.4752  0.2195 -0.3483
  333MOL0     C43867   6.458  11.860   6.657  0.4363 -1.1731 -0.5562
  333MOL0    Cl43868   6.469  11.994   6.531 -0.0679 -0.2249  0.0361
  333MOL0     C43869   6.913  11.156   7.316  0.2843  1.0144 -0.4530
  333MOL0     C43870   7.015  11.080   7.375  0.3866  0.2953 -0.3222
  333MOL0     O43871   7.182  10.859   7.435 -0.3864  0.1061 -0.8917
  333MOL0     C43872   7.372  10.773   7.612  0.2742  0.0744 -0.3320
  333MOL0     C43873   7.457  10.727   7.716  0.0014  0.7856  1.1611
  333MOL0     N43874   7.944  10.739   7.439  0.6000 -1.0810  0.7477
  333MOL0     N43875   7.980  10.814   7.338 -0.3713  0.4606 -0.0010
  333MOL0     C43876   8.917  11.149   6.701 -0.0041 -0.8585  0.9054
  333MOL0     C43877   9.030  11.208   6.657 -0.0259 -0.1554 -0.7501
  333MOL0     C43878   9.456  11.281   6.475 -0.1928  1.0637  0.3898
  333MOL0     C43879   9.570  11.248   6.409 -0.4086  0.3460 -0.5287
  333MOL0     C43880   9.670  11.342   6.378  0.1909  0.1589 -0.4906
  333MOL0     C43881   9.648  11.472   6.405  0.3285 -0.5522 -0.9840
  333MOL0     O43882   9.734  11.571   6.372 -0.5337 -0.0044 -1.1199
  333MOL0     C43883   9.869  11.536   6.340 -0.7800  0.4941  0.1303
  333MOL0     C43884   9.942  11.668   6.319 -0.8694 -0.0537 -0.5477
  333MOL0     C43885  10.097  11.657   6.285 -0.0011  0.2485 -0.0023
  333MOL0     C43886  10.185  11.696   6.407 -0.0446  0.9290  0.1961
  333MOL0     C43887  10.156  11.609   6.521 -0.6825 -0.1130 -0.2036
  333MOL0     C43888  10.123  11.536   6.618 -0.3520  0.2625  0.7366
  333MOL0     C43889   9.528  11.508   6.471 -1.1130 -0.5477  0.8434
  333MOL0     C43890   9.435  11.417   6.510 -1.4300 -0.0171  0.3180
  333MOL0     H43891   9.228  10.928   6.595  2.9108  1.3693  0.7363
  333MOL0     H43892   9.013  10.820   6.669  0.7413 -1.1690 -1.7345
  333MOL0     H43893   8.647  11.094   6.779 -2.0671 -0.6229  0.1059
  333MOL0     H43894   8.739  11.051   6.928  0.6412  0.9270 -1.1856
  333MOL0     H43895   8.622  10.813   6.904 -3.0474 -0.5900  1.4246
  333MOL0     H43896   8.534  10.898   6.775 -0.2136 -0.8108  0.9153
  333MOL0     H43897   8.503  11.082   6.977  0.9640 -0.1354 -1.6612
  333MOL0     H43898   8.546  10.951   7.084  1.0262  0.3434  0.3254
  333MOL0     H43899   8.343  10.926   6.861 -3.4544  2.3184  1.2164
  333MOL0     H43900   8.352  10.804   6.998  1.5653 -0.8981 -0.7618
  333MOL0     H43901   8.169  10.936   7.002  0.4277 -0.1874 -1.0173
  333MOL0     H43902   8.266  11.081   7.019  1.0260 -1.2078 -0.5993
  333MOL0     H43903   8.390  10.974   7.221  0.2635 -1.2314  0.6194
  333MOL0     H43904   8.244  10.873   7.243  1.9071 -0.9119 -0.3719
  333MOL0     H43905   8.252  11.067   7.385 -0.2825  1.7352  0.5360
  333MOL0     H43906   8.251  11.174   7.249 -0.8525  0.6054  0.6836
  333MOL0     H43907   8.046  11.011   7.198 -3.1705 -2.6298  1.8584
  333MOL0     H43908   8.017  11.128   7.328  0.7303 -0.2161 -1.2455
  333MOL0     H43909   8.075  10.991   7.604 -1.6343  1.3705 -0.9833
  333MOL0     H43910   8.052  10.753   7.748  1.2778  2.1826 -1.4666
  333MOL0     H43911   7.932  10.636   7.671 -2.1763  0.2514  1.1846
  333MOL0     H43912   7.741  10.789   7.690  0.6994  1.2622  0.8742
  333MOL0     H43913   7.835  10.923   7.748 -0.2730  0.3764 -1.1807
  333MOL0     H43914   7.808  10.665   7.907 -3.4179 -0.2906 -3.7998
  333MOL0     H43915   7.896  10.804   7.960  0.5503  2.1834 -3.1636
  333MOL0     H43916   7.679  10.940   7.942 -3.3353  0.4265  0.0997
  333MOL0     H43917   7.685  10.822   8.069  2.7939  1.0697  0.0434
  333MOL0     H43918   7.513  11.021   7.881 -0.3618 -1.2123  0.4760
  333MOL0     H43919   7.345  11.097   7.694 -2.0121  0.1978 -2.4299
  333MOL0     H43920   7.225  11.339   7.430 -0.9818  3.6536 -0.3778
  333MOL0     H43921   7.050  11.456   7.297 -1.2729  0.7887  1.4794
  333MOL0     H43922   6.874  11.556   7.225 -0.0697  3.7794  2.1931
  333MOL0     H43923   6.815  11.503   7.377 -0.4996  0.2075 -1.3439
  333MOL0     H43924   6.636  11.618   7.308 -0.3223 -0.5933 -0.4412
  333MOL0     H43925   6.586  11.465   7.247  0.7488 -0.9655 -0.7033
  333MOL0     H43926   6.659  11.520   7.009  2.0008  0.4777 -0.1053
  333MOL0     H43927   6.744  11.649   7.072  0.9796 -2.5410  0.0863
  333MOL0     H43928   6.444  11.606   7.057 -0.6064  1.2633 -1.5948
  333MOL0     H43929   6.513  11.751   7.135 -0.4962 -0.7456  0.1158
  333MOL0     H43930   6.574  11.675   6.852 -3.3500 -0.0339 -1.7752
  333MOL0     H43931   6.615  11.822   6.937 -3.3204  2.9295 -3.2557
  333MOL0     H43932   6.353  11.838   6.972  1.2705  3.8811 -0.5669
  333MOL0     H43933   6.365  11.712   6.850 -1.6203  1.7972 -1.6070
  333MOL0     H43934   6.310  11.948   6.778 -0.0265  1.4484 -0.9936
  333MOL0     H43935   6.474  12.003   6.821 -2.3471  0.8323  2.1579
  333MOL0     H43936   6.388  11.788   6.615 -0.1472 -0.9499  0.0228
  333MOL0     H43937   6.554  11.812   6.677 -0.1086 -1.4864  1.5631
  333MOL0     H43938   6.815  11.117   7.290  0.4002 -0.7151  1.4677
  333MOL0     H43939   6.988  10.984   7.417 -2.5523  1.6600  1.2631
  333MOL0     H43940   7.345  10.691   7.546  2.8050 -2.1006  1.1280
  333MOL0     H43941   7.481  10.621   7.710  0.8724  1.0518 -1.3955
  333MOL0     H43942   8.836  11.211   6.736  1.3597  0.3362  2.0736
  333MOL0     H43943   9.050  11.313   6.673  2.0955 -0.5119 -0.7573
  333MOL0     H43944   9.590  11.149   6.368  1.0516  0.9135 -1.2704
  333MOL0     H43945   9.757  11.298   6.330 -2.7756 -4.1050 -2.5829
  333MOL0     H43946   9.874  11.495   6.239  1.2674 -0.8942  0.7114
  333MOL0     H43947   9.925  11.473   6.411  0.0997  3.4059  2.2252
  333MOL0     H43948   9.904  11.723   6.233  3.4341  0.4371 -2.3916
  333MOL0     H43949   9.924  11.727   6.410 -2.1546 -4.2190  2.1714
  333MOL0     H43950  10.119  11.733   6.211  1.4715  0.4099  0.5751
  333MOL0     H43951  10.114  11.558   6.240 -1.4872 -0.2535  0.4693
  333MOL0     H43952  10.290  11.681   6.378  0.4493 -1.0984  2.7128
  333MOL0     H43953  10.172  11.804   6.420 -1.2691  0.8313 -0.0877
  333MOL0     H43954  10.106  11.482   6.709  0.5311 -0.7952  0.3012
  333MOL0     H43955   9.521  11.612   6.501 -1.1375 -0.4254  0.4212
  333MOL0     H43956   9.355  11.455   6.572 -1.6153 -2.0018  1.3488
  334MOL0     O43957   5.929  10.473   5.659 -0.1708  0.9602 -0.2610
  334MOL0     C43958   5.896  10.428   5.774  0.1365  0.7110  0.3237
  334MOL0     O43959   5.961  10.333   5.851  0.1836  0.0913 -0.1563
  334MOL0     C43960   6.077  10.275   5.816  0.2283  0.0546  0.4658
  334MOL0     C43961   6.083  10.141   5.770  0.8751 -0.3441 -0.4407
  334MOL0     C43962   6.210  10.095   5.719 -0.1242 -0.0993 -0.1186
  334MOL0     C43963   6.326  10.172   5.735 -0.3349  0.0501  0.4481
  334MOL0     O43964   6.451  10.130   5.684 -0.0372  0.3797  0.2526
  334MOL0     C43965   6.447  10.090   5.548  1.6480 -1.1578 -1.1510
  334MOL0     C43966   6.584  10.087   5.496  0.7073 -0.2999 -0.1237
  334MOL0     C43967   6.654   9.957   5.539 -0.1452  0.1103  0.4057
  334MOL0     C43968   6.787   9.950   5.476 -0.1702 -0.3724  0.8084
  334MOL0     C43969   6.835   9.804   5.463  0.4137  0.7391  0.3767
  334MOL0     C43970   6.969   9.786   5.385 -0.3891  0.3972 -0.4929
  334MOL0     C43971   7.062   9.675   5.446 -0.4832 -0.4488  0.0889
  334MOL0     C43972   6.984   9.551   5.448  0.2907 -0.7099 -0.5596
  334MOL0     N43973   7.059   9.423   5.480 -0.3607  0.3296 -0.3903
  334MOL0     C43974   7.046   9.358   5.593  0.0442  0.3589 -0.1127
  334MOL0     C43975   7.111   9.241   5.577  0.4209 -0.0503 -0.0983
  334MOL0     C43976   7.095   9.121   5.667 -0.3130  0.1653  0.2707
  334MOL0     C43977   7.102   8.994   5.584 -0.5761 -0.1960  0.4453
  334MOL0     C43978   7.039   8.866   5.639  0.4658  0.6420 -0.2181
  334MOL0     C43979   6.878   8.874   5.662 -0.0707 -0.0375  0.4302
  334MOL0     O43980   6.825   8.754   5.709 -0.1849  0.5109 -0.0625
  334MOL0     C43981   6.698   8.765   5.751 -0.2571  0.2367  0.2145
  334MOL0     C43982   6.593   8.786   5.663  0.5615  0.6352  0.0899
  334MOL0     C43983   6.464   8.766   5.706  0.7850  0.5290 -0.0362
  334MOL0     C43984   6.436   8.728   5.843  0.1277 -0.6498  0.5217
  334MOL0     C43985   6.297   8.693   5.889 -0.7753 -0.2762 -0.5541
  334MOL0     O43986   6.213   8.690   5.793  0.1877  0.0037  0.0638
  334MOL0     C43987   6.080   8.708   5.833 -0.7159  0.0406 -0.5503
  334MOL0     C43988   5.984   8.653   5.748 -0.8889  0.0775 -0.3446
  334MOL0     C43989   5.843   8.678   5.758  0.5829  0.1344  0.5947
  334MOL0     C43990   5.805   8.769   5.862  0.1637  0.7289  0.1902
  334MOL0     O43991   5.674   8.810   5.869  0.3500 -0.4087  0.1556
  334MOL0     C43992   5.561   8.770   5.783  0.9148 -0.2021 -0.4727
  334MOL0     C43993   5.440   8.839   5.835  1.3557  0.2562  0.1734
  334MOL0     C43994   5.392   8.784   5.967  0.4804 -0.1334 -0.0152
  334MOL0     C43995   5.251   8.817   6.023  0.0747  0.6505 -0.0762
  334MOL0     C43996   5.223   8.754   6.156 -0.3522  0.6924  0.0688
  334MOL0     C43997   5.089   8.802   6.222  0.8321 -0.2171  0.2660
  334MOL0     C43998   5.064   8.709   6.337  0.2008 -0.0203 -1.2479
  334MOL0     C43999   4.930   8.744   6.412  0.2694 -1.0647  0.1053
  334MOL0    Cl44000   4.852   8.601   6.499 -0.6549 -0.1785 -0.1187
  334MOL0     C44001   5.902   8.820   5.947 -0.4844 -0.0899  0.5696
  334MOL0     C44002   6.039   8.799   5.933 -0.3948 -0.7987  0.5427
  334MOL0     O44003   6.287   8.666   6.009  0.2925  0.4442  0.0634
  334MOL0     C44004   6.546   8.732   5.926 -0.6177  0.1250 -0.6105
  334MOL0     C44005   6.673   8.751   5.886 -1.0941  0.4185 -0.0560
  334MOL0     N44006   7.175   9.243   5.448  0.7677 -0.3852  0.6119
  334MOL0     N44007   7.133   9.353   5.392  0.5519 -0.3041 -0.5750
  334MOL0     C44008   6.316  10.297   5.789 -0.0738  0.0403  0.1945
  334MOL0     C44009   6.191  10.351   5.823  0.6497  0.5291  0.4297
  334MOL0     C44010   5.764  10.481   5.821 -0.2132 -0.1257 -0.4852
  334MOL0     C44011   5.714  10.455   5.951 -1.4505 -0.2419  0.4208
  334MOL0     C44012   5.590  10.498   5.986  1.7956 -0.5801 -0.2697
  334MOL0     C44013   5.512  10.581   5.901  0.1828 -0.2542 -0.7731
  334MOL0     O44014   5.393  10.634   5.943  0.9602 -0.3685  0.3800
  334MOL0     C44015   5.395  10.722   6.054 -0.2684  0.0426 -1.7176
  334MOL0     C44016   5.376  10.640   6.183  0.7233 -0.0542 -0.3968
  334MOL0     C44017   5.301  10.721   6.277  0.0865 -0.2075 -0.5894
  334MOL0     C44018   5.283  10.639   6.399  0.4112  0.1300  0.2689
  334MOL0     C44019   5.213  10.722   6.500 -0.2395  0.0828 -0.7914
  334MOL0     C44020   5.162  10.810   6.568 -0.5067  0.1469  0.4543
  334MOL0     C44021   5.559  10.602   5.775  0.7545 -0.7597  0.3803
  334MOL0     C44022   5.681  10.547   5.728 -0.8077  0.0187 -0.9463
  334MOL0     H44023   5.995  10.080   5.753 -0.3321  0.5754  2.0613
  334MOL0     H44024   6.218   9.997   5.675  0.2365 -1.2038  2.2285
  334MOL0     H44025   6.384  10.165   5.498 -0.2368 -2.3363 -0.6373
  334MOL0     H44026   6.394   9.998   5.526 -1.5631  0.0434  0.8250
  334MOL0     H44027   6.642  10.172   5.534  2.6909 -1.4125 -0.5242
  334MOL0     H44028   6.577  10.088   5.387 -0.4428  0.3389 -0.0610
  334MOL0     H44029   6.598   9.868   5.510 -1.7585  0.3101  2.5981
  334MOL0     H44030   6.663   9.960   5.648  0.5335  2.5015  0.3492
  334MOL0     H44031   6.795   9.981   5.371  2.7811 -1.4891  0.5886
  334MOL0     H44032   6.838  10.023   5.539  0.5185 -3.0512  3.6024
  334MOL0     H44033   6.756   9.746   5.416 -0.1262  1.0826  0.8494
  334MOL0     H44034   6.846   9.758   5.562 -0.1328  2.1181  1.1162
  334MOL0     H44035   7.023   9.881   5.376 -0.4013  0.6063  1.2979
  334MOL0     H44036   6.961   9.742   5.286  0.7467 -2.1588  0.4638
  334MOL0     H44037   7.143   9.672   5.373  1.5662 -3.4137  2.2472
  334MOL0     H44038   7.102   9.698   5.546 -0.7651  1.4426 -0.1857
  334MOL0     H44039   6.938   9.524   5.353 -0.6790 -1.9934  0.2492
  334MOL0     H44040   6.912   9.562   5.529  1.2275 -2.1489  0.5078
  334MOL0     H44041   6.988   9.397   5.677 -1.1675 -0.4201 -0.5658
  334MOL0     H44042   6.995   9.129   5.712 -1.0673  1.7331 -1.5473
  334MOL0     H44043   7.180   9.113   5.735  3.6679 -3.5867 -4.5098
  334MOL0     H44044   7.208   8.979   5.564 -0.3259 -0.3636  1.8121
  334MOL0     H44045   7.054   9.012   5.487  0.2977 -4.0155 -0.8506
  334MOL0     H44046   7.063   8.781   5.575  0.0593  0.3546  0.0067
  334MOL0     H44047   7.076   8.843   5.739 -2.1845 -1.1461  0.4693
  334MOL0     H44048   6.828   8.896   5.568  0.8948 -0.6321 -0.2416
  334MOL0     H44049   6.859   8.958   5.730  0.6660  1.7136 -1.4275
  334MOL0     H44050   6.616   8.804   5.558 -1.2343  2.0139 -0.1144
  334MOL0     H44051   6.380   8.779   5.640  0.3672 -1.4726  0.0647
  334MOL0     H44052   6.008   8.585   5.667  0.4607 -0.3849  0.4112
  334MOL0     H44053   5.761   8.640   5.697  0.0206  1.7960  0.2582
  334MOL0     H44054   5.543   8.663   5.787 -1.0719  0.0872 -0.5952
  334MOL0     H44055   5.578   8.783   5.676  0.1513  0.1179 -0.5594
  334MOL0     H44056   5.358   8.833   5.762 -0.9087  2.0240  2.4021
  334MOL0     H44057   5.458   8.944   5.858  0.4643  0.1271  1.5475
  334MOL0     H44058   5.471   8.814   6.036  0.7519 -2.2411  0.6678
  334MOL0     H44059   5.410   8.676   5.962  1.7117  0.0978 -1.3258
  334MOL0     H44060   5.252   8.925   6.042  3.8538  0.7648 -0.1941
  334MOL0     H44061   5.182   8.793   5.942  1.2821  0.7311 -1.1679
  334MOL0     H44062   5.303   8.764   6.230 -0.4084  1.3391  0.0451
  334MOL0     H44063   5.231   8.646   6.139 -1.2661  0.0035  3.1857
  334MOL0     H44064   5.013   8.790   6.144  3.0153 -2.1230 -1.7266
  334MOL0     H44065   5.094   8.905   6.258 -1.0937 -0.3712  1.1067
  334MOL0     H44066   5.051   8.605   6.305 -5.5241  0.3943 -1.2450
  334MOL0     H44067   5.147   8.722   6.407  1.9545  2.2733 -3.5527
  334MOL0     H44068   4.858   8.787   6.342  1.4224 -1.1534 -1.2001
  334MOL0     H44069   4.943   8.831   6.477 -2.9770 -0.2841 -0.1139
  334MOL0     H44070   5.872   8.890   6.024 -0.7652  1.3366 -0.7647
  334MOL0     H44071   6.101   8.865   5.993  2.8584 -1.0725 -2.1872
  334MOL0     H44072   6.534   8.723   6.033 -0.4231  1.4507 -0.4655
  334MOL0     H44073   6.758   8.752   5.954 -1.2643  1.6959  0.1517
  334MOL0     H44074   6.409  10.353   5.797 -1.5052  2.3167  2.5661
  334MOL0     H44075   6.191  10.454   5.855  0.8154  1.0895 -1.2782
  334MOL0     H44076   5.770  10.404   6.029 -0.8673 -1.5090 -0.7683
  334MOL0     H44077   5.565  10.471   6.088 -2.0559 -0.9426 -1.1600
  334MOL0     H44078   5.313  10.793   6.043  0.1637  0.6934 -0.8923
  334MOL0     H44079   5.493  10.769   6.057 -0.1183 -0.2825 -1.3525
  334MOL0     H44080   5.340  10.539   6.164 -1.7508  0.3279  1.7546
  334MOL0     H44081   5.477  10.614   6.216  0.4677 -0.7415 -0.1437
  334MOL0     H44082   5.205  10.761   6.242 -0.4029 -1.7417 -1.1052
  334MOL0     H44083   5.360  10.812   6.289 -1.1699  0.8875 -2.3038
  334MOL0     H44084   5.222  10.548   6.387  1.5228 -0.9983  2.5072
  334MOL0     H44085   5.382  10.612   6.437  1.8938  2.6505 -1.4588
  334MOL0     H44086   5.118  10.874   6.643 -0.9220 -0.5921  0.8562
  334MOL0     H44087   5.495  10.658   5.708  1.7626  0.7756  0.6550
  334MOL0     H44088   5.714  10.566   5.626 -1.5698  3.7846 -0.6295
  335MOL0     O44089   3.558   1.890   0.120 -1.2628 -0.4593 -0.1303
  335MOL0     C44090   3.553   1.952   0.014 -0.6292  0.1202  0.5079
  335MOL0     O44091   3.645   1.945  -0.091  0.3794  0.1157  0.7654
  335MOL0     C44092   3.764   1.874  -0.081 -0.3476  0.8347 -0.3776
  335MOL0     C44093   3.826   1.829   0.036  0.3580  0.6654 -0.3366
  335MOL0     C44094   3.951   1.770   0.030 -0.4418  0.9994  0.9731
  335MOL0     C44095   4.020   1.753  -0.089  0.0847 -0.5606 -0.7796
  335MOL0     O44096   4.146   1.704  -0.108  0.0317 -0.2313 -0.0920
  335MOL0     C44097   4.224   1.647  -0.005 -0.4520 -0.2832 -0.7124
  335MOL0     C44098   4.344   1.609  -0.088 -0.0633 -0.6833  0.1412
  335MOL0     C44099   4.450   1.544   0.005  1.2511  0.6411  0.3854
  335MOL0     C44100   4.562   1.642   0.045 -0.4043 -0.5947 -0.3621
  335MOL0     C44101   4.666   1.578   0.148 -1.3865 -0.4498 -1.2649
  335MOL0     C44102   4.809   1.626   0.125  0.4650 -0.6411  0.7581
  335MOL0     C44103   4.831   1.769   0.151  0.2756 -0.9373 -0.1129
  335MOL0     C44104   4.974   1.820   0.131  0.3577 -0.5388 -0.2145
  335MOL0     N44105   4.986   1.965   0.133  0.3053  0.3669 -0.2774
  335MOL0     C44106   5.082   2.030   0.202 -0.9610  0.0613  0.7431
  335MOL0     C44107   5.065   2.161   0.174  0.4847  0.2928  0.0740
  335MOL0     C44108   5.156   2.265   0.217 -0.1664  0.2313  0.9335
  335MOL0     C44109   5.262   2.306   0.114  0.2534  0.4103  0.4206
  335MOL0     C44110   5.233   2.409   0.001  0.3130  0.5421  0.0339
  335MOL0     C44111   5.118   2.374  -0.094 -0.2348 -1.2266 -1.7014
  335MOL0     O44112   5.148   2.279  -0.184 -0.5979 -0.2214 -0.4435
  335MOL0     C44113   5.063   2.261  -0.289  0.9940 -0.2298 -0.1745
  335MOL0     C44114   5.125   2.235  -0.410  0.0691 -0.0838  0.5999
  335MOL0     C44115   5.044   2.201  -0.522  0.0191  0.1770  0.1591
  335MOL0     C44116   4.908   2.174  -0.508 -0.3036 -0.0803  0.7211
  335MOL0     C44117   4.830   2.122  -0.620  0.8831 -0.9742 -0.3704
  335MOL0     O44118   4.891   2.080  -0.732  0.3183  0.3271  0.6526
  335MOL0     C44119   4.810   2.040  -0.836 -0.2559 -0.1234  0.6820
  335MOL0     C44120   4.741   2.128  -0.915 -0.2399  0.3676 -0.2971
  335MOL0     C44121   4.666   2.076  -1.022 -0.2809  0.4263 -0.5994
  335MOL0     C44122   4.672   1.943  -1.054  0.0838 -0.1744 -0.5729
  335MOL0     O44123   4.588   1.908  -1.150  0.6253  0.6578  0.0346
  335MOL0     C44124   4.635   1.792  -1.234  0.0470  0.2304  0.7179
  335MOL0     C44125   4.561   1.775  -1.359 -0.1790 -0.7178 -0.0963
  335MOL0     C44126   4.428   1.706  -1.330  0.3001  0.6556 -0.8373
  335MOL0     C44127   4.326   1.754  -1.436 -0.7498  0.9741 -0.2949
  335MOL0     C44128   4.190   1.683  -1.438  0.5553 -0.7631  0.5479
  335MOL0     C44129   4.093   1.759  -1.533 -0.3082  0.1078  0.4749
  335MOL0     C44130   3.946   1.753  -1.474  0.1036  0.8610 -0.5861
  335MOL0     C44131   3.836   1.818  -1.557  0.0085  0.7582 -0.3931
  335MOL0    Cl44132   3.678   1.795  -1.484  0.0459  0.2025 -0.5618
  335MOL0     C44133   4.738   1.852  -0.967  1.3981  0.2191  0.4099
  335MOL0     C44134   4.809   1.901  -0.861  0.5533  0.1865  0.7628
  335MOL0     O44135   4.709   2.126  -0.603  0.4926 -0.1930 -0.4161
  335MOL0     C44136   4.842   2.208  -0.389 -0.5841  1.2462  0.6635
  335MOL0     C44137   4.916   2.242  -0.281 -1.3304  0.1495 -0.2466
  335MOL0     N44138   4.947   2.170   0.107  0.6520  0.3605  0.9351
  335MOL0     N44139   4.909   2.050   0.070 -0.0554  0.2142  1.2032
  335MOL0     C44140   3.955   1.794  -0.215 -0.5966 -0.4985 -1.2151
  335MOL0     C44141   3.820   1.842  -0.210 -0.0819  0.9260  1.0129
  335MOL0     C44142   3.432   2.029  -0.014  0.1203 -0.5157  0.0674
  335MOL0     C44143   3.332   2.036   0.079  0.8862  0.4790  0.2461
  335MOL0     C44144   3.214   2.115   0.069  0.0709  0.2377 -0.8487
  335MOL0     C44145   3.205   2.194  -0.047 -0.1928 -0.4609 -0.4947
  335MOL0     O44146   3.097   2.271  -0.054  0.4062  0.7754 -0.5803
  335MOL0     C44147   3.095   2.389  -0.126 -0.8118  0.0647  0.6973
  335MOL0     C44148   2.975   2.458  -0.062 -0.5961  0.2145  0.6038
  335MOL0     C44149   3.019   2.520   0.075  0.4801  0.2995  0.0423
  335MOL0     C44150   2.895   2.547   0.165 -0.6146 -0.3350 -0.4022
  335MOL0     C44151   2.792   2.624   0.101 -0.1066  0.5109 -0.7676
  335MOL0     C44152   2.728   2.710   0.050  0.7007  0.5207 -0.1588
  335MOL0     C44153   3.303   2.191  -0.146 -0.2959 -0.1286  0.3418
  335MOL0     C44154   3.416   2.112  -0.132  0.2256 -0.0070  0.1009
  335MOL0     H44155   3.787   1.853   0.135  1.8381 -0.1340  0.4855
  335MOL0     H44156   4.001   1.743   0.122  1.2477  1.0547  0.1051
  335MOL0     H44157   4.177   1.560   0.042 -0.4824  0.2937  0.3617
  335MOL0     H44158   4.248   1.721   0.072 -2.1625  1.8767 -2.1221
  335MOL0     H44159   4.390   1.693  -0.140  0.4363 -0.6113  0.6975
  335MOL0     H44160   4.314   1.550  -0.176 -0.2112  0.3227 -0.4961
  335MOL0     H44161   4.492   1.461  -0.052 -1.1659  0.3044 -1.0773
  335MOL0     H44162   4.397   1.503   0.092  1.4549  1.0955  0.7267
  335MOL0     H44163   4.619   1.673  -0.043 -0.5943 -0.6967 -0.5201
  335MOL0     H44164   4.519   1.731   0.091 -0.3995 -0.4725 -0.5934
  335MOL0     H44165   4.675   1.470   0.133  1.0932 -0.6138  0.6968
  335MOL0     H44166   4.638   1.580   0.253 -0.8170 -0.4322 -1.1082
  335MOL0     H44167   4.840   1.601   0.023 -0.7114  0.5702  0.0747
  335MOL0     H44168   4.875   1.577   0.197  1.5866  1.4275  1.2235
  335MOL0     H44169   4.754   1.829   0.101 -3.1683 -1.6819  3.7450
  335MOL0     H44170   4.816   1.777   0.259  0.7465 -1.3534 -0.0138
  335MOL0     H44171   5.016   1.783   0.036 -0.4614  1.7497 -1.5417
  335MOL0     H44172   5.038   1.785   0.213 -1.7663  0.2394  1.8759
  335MOL0     H44173   5.167   1.980   0.248 -1.7988 -2.8222 -0.5654
  335MOL0     H44174   5.204   2.234   0.309  1.0870  1.5026  0.7309
  335MOL0     H44175   5.093   2.350   0.247 -0.0182 -0.4736  3.4143
  335MOL0     H44176   5.309   2.216   0.072 -0.8825  0.6409 -1.4650
  335MOL0     H44177   5.342   2.362   0.164 -0.4810  2.1423 -0.2478
  335MOL0     H44178   5.201   2.486   0.072 -0.9931 -1.0413  1.2176
  335MOL0     H44179   5.323   2.435  -0.056  0.4832 -0.3869 -0.1285
  335MOL0     H44180   5.095   2.464  -0.151 -0.8322  0.0538  0.4710
  335MOL0     H44181   5.034   2.346  -0.031  2.0426 -1.2836  1.5987
  335MOL0     H44182   5.233   2.241  -0.416  0.1178 -0.7743  0.7612
  335MOL0     H44183   5.100   2.176  -0.612 -0.6738  1.1994 -0.5852
  335MOL0     H44184   4.754   2.233  -0.890  2.0163 -0.0460  0.4771
  335MOL0     H44185   4.610   2.132  -1.096 -0.9655 -1.0424 -1.2277
  335MOL0     H44186   4.637   1.700  -1.175 -0.8565 -0.6269 -0.5348
  335MOL0     H44187   4.737   1.816  -1.264  1.1694  0.2671  4.0789
  335MOL0     H44188   4.613   1.730  -1.443  1.6889  1.4596 -0.2114
  335MOL0     H44189   4.545   1.881  -1.382 -1.2038 -0.0426  3.1611
  335MOL0     H44190   4.400   1.737  -1.229  0.9338  0.4710 -0.6032
  335MOL0     H44191   4.454   1.600  -1.333  0.2223  0.6524 -1.6425
  335MOL0     H44192   4.313   1.862  -1.430  5.1364  2.0193 -0.2868
  335MOL0     H44193   4.380   1.722  -1.526 -0.2293 -0.7240  0.5708
  335MOL0     H44194   4.141   1.693  -1.340 -0.8806  0.8116 -0.2676
  335MOL0     H44195   4.196   1.579  -1.470 -2.3511 -0.5810 -0.9783
  335MOL0     H44196   4.109   1.724  -1.635 -2.0142 -0.2132  0.2922
  335MOL0     H44197   4.110   1.866  -1.518 -0.2137 -0.0132  1.2943
  335MOL0     H44198   3.913   1.649  -1.462  0.9513  0.7137  0.6298
  335MOL0     H44199   3.936   1.800  -1.376 -0.6583 -0.3249 -0.0683
  335MOL0     H44200   3.847   1.777  -1.658 -0.1088  1.1096 -0.5488
  335MOL0     H44201   3.835   1.927  -1.564 -1.3716  0.6818 -1.7489
  335MOL0     H44202   4.745   1.748  -0.997  1.3944  0.4398 -0.3694
  335MOL0     H44203   4.866   1.833  -0.799  1.2377 -1.7049 -1.7688
  335MOL0     H44204   4.734   2.203  -0.376 -0.9593  0.8361 -2.0067
  335MOL0     H44205   4.861   2.245  -0.188 -1.9475  2.6378 -0.6354
  335MOL0     H44206   4.005   1.771  -0.309 -1.3391 -4.1539 -0.8583
  335MOL0     H44207   3.767   1.862  -0.302 -0.5736 -1.1719  0.7757
  335MOL0     H44208   3.345   1.990   0.176 -0.6462 -0.3692  0.0793
  335MOL0     H44209   3.141   2.111   0.149  1.9938 -0.0157  0.9814
  335MOL0     H44210   3.085   2.375  -0.234  1.7384  0.3781  0.3592
  335MOL0     H44211   3.187   2.445  -0.106 -0.3888 -0.5481  0.4833
  335MOL0     H44212   2.945   2.529  -0.140 -1.0219  0.2483  0.8007
  335MOL0     H44213   2.895   2.386  -0.048 -1.1836  0.8609  0.6115
  335MOL0     H44214   3.076   2.613   0.060  5.1437 -2.2236  0.3526
  335MOL0     H44215   3.088   2.452   0.126  0.4477 -0.3487 -0.7624
  335MOL0     H44216   2.856   2.454   0.208  1.4713 -1.6861 -1.2712
  335MOL0     H44217   2.932   2.607   0.249  0.5992  0.3529 -1.3918
  335MOL0     H44218   2.665   2.782   0.002  2.6369  2.1461 -0.3870
  335MOL0     H44219   3.281   2.251  -0.234 -1.4076  1.2781  1.5307
  335MOL0     H44220   3.485   2.092  -0.213 -0.4294 -3.1196  0.1971
  336MOL0     O44221   2.424   1.893   7.261  0.0502  0.1064 -0.2499
  336MOL0     C44222   2.487   1.796   7.223 -0.7250 -0.2441  0.5499
  336MOL0     O44223   2.438   1.685   7.156 -0.3914  0.0799 -0.0295
  336MOL0     C44224   2.302   1.674   7.157 -0.4679 -0.0356 -0.3519
  336MOL0     C44225   2.234   1.607   7.271  0.9253 -0.5987  1.1594
  336MOL0     C44226   2.100   1.577   7.261 -0.1846  0.2135  0.1229
  336MOL0     C44227   2.026   1.594   7.149  0.7756 -0.2216 -0.5425
  336MOL0     O44228   1.897   1.541   7.142 -0.3844 -0.7242 -0.2161
  336MOL0     C44229   1.890   1.393   7.119  0.5232  0.1612 -0.5320
  336MOL0     C44230   1.745   1.359   7.078 -1.0647 -0.4809  0.3386
  336MOL0     C44231   1.643   1.413   7.177 -0.3931  0.5371 -0.7718
  336MOL0     C44232   1.499   1.364   7.147  0.6251  0.3234  0.5340
  336MOL0     C44233   1.391   1.430   7.227  0.8123 -0.5760 -0.0940
  336MOL0     C44234   1.254   1.400   7.159  0.7474 -0.2698  0.4744
  336MOL0     C44235   1.150   1.483   7.237 -0.2651 -0.6257  0.3015
  336MOL0     C44236   1.003   1.454   7.197 -0.3629 -0.6001 -0.2832
  336MOL0     N44237   0.922   1.547   7.281 -0.3668  0.8605  0.2775
  336MOL0     C44238   0.890   1.531   7.418  0.3074  0.7867  0.3765
  336MOL0     C44239   0.876   1.656   7.470 -0.2123  0.4230 -0.4134
  336MOL0     C44240   0.852   1.679   7.619 -0.6453  0.2843 -0.9400
  336MOL0     C44241   0.774   1.563   7.695  0.4697 -1.2623  0.1627
  336MOL0     C44242   0.727   1.616   7.831  0.1800 -0.1270 -0.3588
  336MOL0     C44243   0.675   1.504   7.910  0.7780 -0.4385 -0.2173
  336MOL0     O44244   0.564   1.445   7.843  0.0037 -1.2263  0.7674
  336MOL0     C44245   0.476   1.382   7.925 -0.2176  0.4463  0.1995
  336MOL0     C44246   0.468   1.369   8.065 -0.5243  0.8056 -0.0454
  336MOL0     C44247   0.353   1.317   8.123 -0.7331  0.4922  0.3293
  336MOL0     C44248   0.262   1.256   8.040  0.3913  0.3025  0.3245
  336MOL0     C44249   0.139   1.200   8.104  0.6628  0.0748 -0.9171
  336MOL0     O44250   0.037   1.156   8.014  1.0281  0.3449 -0.6249
  336MOL0     C44251  -0.065   1.079   8.070 -0.8451  0.6076 -0.3751
  336MOL0     C44252  -0.054   0.985   8.174  0.1916  0.4522 -0.0592
  336MOL0     C44253  -0.164   0.905   8.212  0.1544 -0.6271 -0.0741
  336MOL0     C44254  -0.291   0.940   8.161  0.0450 -0.1760 -0.5348
  336MOL0     O44255  -0.407   0.884   8.208  0.6456 -0.2512 -0.3657
  336MOL0     C44256  -0.410   0.865   8.352 -0.4564 -1.4404 -0.4057
  336MOL0     C44257  -0.536   0.808   8.406  1.4021  0.2280  0.5757
  336MOL0     C44258  -0.636   0.908   8.474 -0.1557 -0.7145 -0.5459
  336MOL0     C44259  -0.749   0.822   8.552  0.7516 -0.1058 -0.0948
  336MOL0     C44260  -0.861   0.895   8.608  0.4127  0.1135 -0.3087
  336MOL0     C44261  -0.975   0.811   8.662 -1.0612 -1.1757  0.2437
  336MOL0     C44262  -1.090   0.906   8.711 -0.0176  0.5184 -0.1447
  336MOL0     C44263  -1.213   0.827   8.757 -0.3381 -0.4292  0.2721
  336MOL0    Cl44264  -1.263   0.701   8.640  0.4190 -0.5465  0.4852
  336MOL0     C44265  -0.298   1.028   8.054 -0.3493 -0.5927  0.0406
  336MOL0     C44266  -0.187   1.097   8.011  0.7527 -0.5538 -0.2048
  336MOL0     O44267   0.132   1.190   8.231  0.4930 -0.4084  0.4376
  336MOL0     C44268   0.274   1.248   7.906  0.1208  1.1791  0.4738
  336MOL0     C44269   0.375   1.319   7.851 -0.5982  0.1586  0.3311
  336MOL0     N44270   0.910   1.752   7.374  0.5330  0.1229  0.4351
  336MOL0     N44271   0.929   1.685   7.264 -0.5565 -0.7929  0.6328
  336MOL0     C44272   2.083   1.667   7.050  0.1344 -0.5724  0.4165
  336MOL0     C44273   2.223   1.701   7.046  0.5479 -0.6787 -0.5526
  336MOL0     C44274   2.629   1.810   7.247  0.6814 -0.8417  0.1980
  336MOL0     C44275   2.680   1.863   7.366  0.1606  0.2227  0.3394
  336MOL0     C44276   2.823   1.867   7.390 -0.1242  0.7486 -0.6256
  336MOL0     C44277   2.915   1.828   7.289 -0.5535  0.3573 -0.0169
  336MOL0     O44278   3.052   1.844   7.318 -0.2717  0.4734 -0.1905
  336MOL0     C44279   3.143   1.848   7.206 -0.2519 -0.4123 -0.4809
  336MOL0     C44280   3.193   1.713   7.154  0.4008  0.2460  0.1325
  336MOL0     C44281   3.278   1.733   7.018 -0.4069  0.4854 -0.1001
  336MOL0     C44282   3.307   1.599   6.953 -0.0200  0.3899 -1.0650
  336MOL0     C44283   3.387   1.513   7.040  0.6446  0.3381  0.0515
  336MOL0     C44284   3.457   1.437   7.108  0.5999  0.4412  0.8189
  336MOL0     C44285   2.865   1.763   7.175 -0.4370  0.8304 -0.3854
  336MOL0     C44286   2.721   1.762   7.157 -1.2411  0.2639 -0.3913
  336MOL0     H44287   2.281   1.566   7.360 -0.9214 -4.5429  0.4982
  336MOL0     H44288   2.045   1.549   7.350 -2.9851  0.9405 -1.2619
  336MOL0     H44289   1.912   1.337   7.210 -1.3277 -1.5384 -1.0540
  336MOL0     H44290   1.961   1.372   7.039  3.3429  2.0150  1.3320
  336MOL0     H44291   1.721   1.253   7.066 -1.9417 -0.2758  0.2361
  336MOL0     H44292   1.729   1.410   6.983 -3.3456  0.6440  1.2514
  336MOL0     H44293   1.659   1.521   7.179  0.0674  0.4968  2.3730
  336MOL0     H44294   1.670   1.373   7.275  1.2284  2.8812 -0.1733
  336MOL0     H44295   1.476   1.376   7.040 -0.3244 -0.6466  0.6100
  336MOL0     H44296   1.489   1.256   7.164 -2.0259  0.5141  0.6477
  336MOL0     H44297   1.416   1.536   7.238  1.1107 -0.5802 -0.7251
  336MOL0     H44298   1.397   1.380   7.324  1.9203 -0.9833 -0.3615
  336MOL0     H44299   1.237   1.292   7.157  0.3247 -0.2032 -0.2105
  336MOL0     H44300   1.257   1.432   7.054 -0.7209 -1.5886 -0.0136
  336MOL0     H44301   1.161   1.474   7.346  2.5456  2.3504  0.4206
  336MOL0     H44302   1.182   1.582   7.203  0.6712 -1.0761 -0.1813
  336MOL0     H44303   0.981   1.350   7.221  1.4013 -0.9003  0.1773
  336MOL0     H44304   0.992   1.463   7.089  0.6172 -2.2424 -0.5447
  336MOL0     H44305   0.882   1.435   7.468 -0.8897  0.1737 -0.9297
  336MOL0     H44306   0.800   1.775   7.623 -1.5852 -0.2535  1.6561
  336MOL0     H44307   0.950   1.686   7.668  0.1911 -2.9760 -1.8773
  336MOL0     H44308   0.841   1.477   7.707  0.6382 -1.0093  1.1379
  336MOL0     H44309   0.683   1.547   7.636  0.3195  1.0611 -0.3156
  336MOL0     H44310   0.812   1.665   7.879  1.0904 -0.5848 -1.4684
  336MOL0     H44311   0.653   1.693   7.806  0.2786 -0.3198 -1.2495
  336MOL0     H44312   0.644   1.547   8.005  3.0092  0.0163  0.3748
  336MOL0     H44313   0.748   1.425   7.931  0.6244 -0.3357  0.7544
  336MOL0     H44314   0.546   1.410   8.129 -0.3631 -0.8342  0.8850
  336MOL0     H44315   0.339   1.321   8.231 -0.2405 -0.7970  0.4540
  336MOL0     H44316   0.048   0.955   8.199 -0.4417 -1.8942 -0.1019
  336MOL0     H44317  -0.153   0.836   8.296  1.4656 -2.6849 -1.8536
  336MOL0     H44318  -0.377   0.954   8.407  0.5419 -0.0522 -3.0751
  336MOL0     H44319  -0.345   0.780   8.372 -0.3047 -1.9019 -2.6773
  336MOL0     H44320  -0.521   0.720   8.469  0.6084  0.3177  0.9002
  336MOL0     H44321  -0.597   0.768   8.325 -0.2597  0.3203  1.7416
  336MOL0     H44322  -0.700   0.973   8.415 -2.5512 -3.6005 -1.4069
  336MOL0     H44323  -0.570   0.956   8.547  0.6649 -3.2921  0.5339
  336MOL0     H44324  -0.797   0.745   8.491  1.3063  1.1035 -2.1712
  336MOL0     H44325  -0.709   0.773   8.641 -2.1482 -3.1058 -0.2507
  336MOL0     H44326  -0.904   0.959   8.531 -1.9216 -0.9329  0.0343
  336MOL0     H44327  -0.835   0.967   8.686 -3.2642  0.8634  0.3976
  336MOL0     H44328  -0.946   0.754   8.751 -0.4300  0.9425  1.4690
  336MOL0     H44329  -1.024   0.743   8.591 -0.2507 -0.1078 -1.3912
  336MOL0     H44330  -1.059   0.975   8.791 -0.3652  3.1371 -2.1149
  336MOL0     H44331  -1.116   0.973   8.628 -0.6323  0.3184 -0.1207
  336MOL0     H44332  -1.295   0.897   8.773  1.1642  1.2958  0.7207
  336MOL0     H44333  -1.185   0.778   8.851  0.6883 -1.8154 -0.7106
  336MOL0     H44334  -0.396   1.039   8.007 -0.9430 -0.8543  1.1817
  336MOL0     H44335  -0.190   1.180   7.941 -0.8097 -0.6235 -0.2485
  336MOL0     H44336   0.199   1.198   7.846 -0.0405  1.2935  0.5781
  336MOL0     H44337   0.367   1.347   7.747  0.7330  0.5875  0.3274
  336MOL0     H44338   2.025   1.698   6.963 -2.5959 -0.2626  2.2123
  336MOL0     H44339   2.276   1.746   6.962  0.6909 -0.6084 -0.4263
  336MOL0     H44340   2.605   1.900   7.436 -2.2342  0.1516 -2.0424
  336MOL0     H44341   2.870   1.907   7.480  1.7323 -0.2781 -1.0759
  336MOL0     H44342   3.230   1.907   7.235 -0.4566 -1.7830  3.5199
  336MOL0     H44343   3.082   1.897   7.129 -0.8343 -3.2348 -1.9479
  336MOL0     H44344   3.263   1.668   7.224  2.5092 -1.5631 -2.9053
  336MOL0     H44345   3.111   1.640   7.153 -0.9084  1.3625  4.3158
  336MOL0     H44346   3.377   1.778   7.026 -0.8993  2.8969 -4.6842
  336MOL0     H44347   3.222   1.792   6.945 -1.2724  0.3890  0.4724
  336MOL0     H44348   3.218   1.541   6.925 -0.6000  0.4826  0.4568
  336MOL0     H44349   3.364   1.624   6.864  2.5144 -0.4013  0.2598
  336MOL0     H44350   3.513   1.380   7.180 -0.0457 -1.3654 -0.0556
  336MOL0     H44351   2.930   1.720   7.100  0.6489 -1.0189  1.5020
  336MOL0     H44352   2.678   1.715   7.069 -0.6240  0.4896 -0.8166
  337MOL0     O44353   3.998   1.889   5.273 -0.0273  0.1679 -0.4808
  337MOL0     C44354   4.002   2.009   5.251  0.6847  0.3242 -0.1474
  337MOL0     O44355   4.044   2.107   5.339 -0.7376  0.3392  0.5086
  337MOL0     C44356   4.125   2.079   5.447 -0.1197  0.2126  0.2168
  337MOL0     C44357   4.182   1.953   5.483 -0.2605 -0.2088  1.1797
  337MOL0     C44358   4.272   1.945   5.596  0.5263  1.0564 -0.0686
  337MOL0     C44359   4.289   2.051   5.682 -0.9321 -0.0169  0.0638
  337MOL0     O44360   4.376   2.039   5.796  0.0955 -0.6098  0.2917
  337MOL0     C44361   4.490   2.131   5.812 -0.0507 -0.0881 -0.1760
  337MOL0     C44362   4.604   2.058   5.887  0.3102 -0.4250  0.9709
  337MOL0     C44363   4.704   2.161   5.940  0.2630  0.9218 -0.8836
  337MOL0     C44364   4.828   2.088   5.977  0.6481  0.1427  0.0427
  337MOL0     C44365   4.911   2.176   6.063 -1.0915  0.2500  0.4249
  337MOL0     C44366   5.035   2.085   6.091  0.5897 -0.4929 -0.5236
  337MOL0     C44367   5.134   2.164   6.177 -0.5213 -1.0299  0.0856
  337MOL0     C44368   5.185   2.094   6.304 -1.0356  0.2875  0.0833
  337MOL0     N44369   5.088   2.050   6.402  0.3362 -0.6776 -0.5025
  337MOL0     C44370   4.959   2.104   6.404  0.1688  0.0184  0.2106
  337MOL0     C44371   4.904   2.036   6.516  0.6140 -0.0337 -0.7817
  337MOL0     C44372   4.764   2.043   6.575 -0.4168 -0.3464  1.1424
  337MOL0     C44373   4.658   1.994   6.492 -0.4521  1.4062  0.2533
  337MOL0     C44374   4.611   2.083   6.378  0.3544  0.0072  0.2449
  337MOL0     C44375   4.502   2.026   6.295 -0.0303 -0.1925 -0.3272
  337MOL0     O44376   4.460   2.138   6.207  0.1523 -0.3171 -0.5585
  337MOL0     C44377   4.332   2.131   6.153  0.2671  0.5327  0.4912
  337MOL0     C44378   4.284   2.241   6.097  0.3907 -1.2030 -0.3604
  337MOL0     C44379   4.162   2.238   6.029 -0.3248 -0.0378 -0.2292
  337MOL0     C44380   4.081   2.120   6.018 -0.3552  0.1986 -0.7756
  337MOL0     C44381   3.961   2.114   5.930  0.5104 -0.1485  0.3228
  337MOL0     O44382   3.943   2.220   5.848 -0.9653  0.1090  0.0990
  337MOL0     C44383   3.837   2.227   5.766  1.0954 -0.0699  0.5882
  337MOL0     C44384   3.814   2.139   5.663 -0.6983  0.0891  0.4760
  337MOL0     C44385   3.695   2.147   5.588 -0.5318  1.0324 -0.5709
  337MOL0     C44386   3.596   2.238   5.605 -0.0646  0.1877 -0.1313
  337MOL0     O44387   3.482   2.226   5.529  0.4345  0.2277 -0.5488
  337MOL0     C44388   3.359   2.211   5.596 -0.0804  0.5275 -1.2068
  337MOL0     C44389   3.279   2.113   5.509  0.1566 -0.0863 -0.2378
  337MOL0     C44390   3.142   2.118   5.579  0.0363 -0.3102  0.3404
  337MOL0     C44391   3.031   2.114   5.472 -0.7159  0.0954 -0.1440
  337MOL0     C44392   2.890   2.118   5.515  0.0772  0.1165  1.1756
  337MOL0     C44393   2.853   2.247   5.584 -0.1262 -0.2716 -0.3605
  337MOL0     C44394   2.704   2.266   5.584  0.3628 -0.4170  0.1260
  337MOL0     C44395   2.653   2.404   5.625 -0.5945  0.8684 -0.7152
  337MOL0    Cl44396   2.649   2.524   5.492 -0.0225  0.1286  0.3990
  337MOL0     C44397   3.623   2.330   5.712  0.8189  0.8517 -0.2485
  337MOL0     C44398   3.742   2.326   5.788  0.7435  0.0748 -0.6430
  337MOL0     O44399   3.891   2.010   5.929  0.7688  0.6163 -0.0767
  337MOL0     C44400   4.141   2.002   6.074  0.3455 -0.6613  0.5822
  337MOL0     C44401   4.264   2.011   6.140  0.2494  0.4396  0.2711
  337MOL0     N44402   5.006   1.958   6.579 -0.1843  0.3761  0.5954
  337MOL0     N44403   5.111   1.976   6.516 -0.0370 -0.1769  0.0217
  337MOL0     C44404   4.220   2.167   5.659 -0.2009 -0.1182 -0.3178
  337MOL0     C44405   4.147   2.186   5.539  0.1631 -0.3403 -0.5774
  337MOL0     C44406   3.952   2.058   5.126 -0.0950 -0.3635  1.1964
  337MOL0     C44407   3.960   1.987   5.002 -0.5954  0.7698  0.4642
  337MOL0     C44408   3.902   2.033   4.883  0.0801  0.4025 -1.0084
  337MOL0     C44409   3.826   2.156   4.883  0.9269  0.6389  0.3418
  337MOL0     O44410   3.769   2.208   4.769 -0.1836 -0.1632 -0.0409
  337MOL0     C44411   3.864   2.290   4.691  1.4073 -0.2535 -0.7741
  337MOL0     C44412   3.878   2.436   4.740  0.3480 -0.0609  0.0516
  337MOL0     C44413   3.769   2.529   4.685  0.2676 -0.1340 -0.9765
  337MOL0     C44414   3.626   2.468   4.672  0.4822  0.1526  0.0776
  337MOL0     C44415   3.546   2.472   4.803  0.0205 -0.3101 -0.0471
  337MOL0     C44416   3.484   2.489   4.912 -0.0247 -1.2794 -0.3745
  337MOL0     C44417   3.820   2.224   5.003  0.0266 -0.1840 -0.7759
  337MOL0     C44418   3.884   2.180   5.123  0.1544 -0.6536  0.1217
  337MOL0     H44419   4.173   1.866   5.419 -3.8084 -1.0539  2.5835
  337MOL0     H44420   4.337   1.859   5.608 -0.5897 -0.4759 -3.8053
  337MOL0     H44421   4.460   2.224   5.861  3.3732  2.7971 -3.0028
  337MOL0     H44422   4.538   2.164   5.720  3.5974  2.0388  2.2241
  337MOL0     H44423   4.654   1.995   5.814 -1.7774  0.2666 -1.2087
  337MOL0     H44424   4.574   1.989   5.967  2.4766  1.0126  3.1780
  337MOL0     H44425   4.663   2.215   6.026 -0.7541 -1.3425  0.1483
  337MOL0     H44426   4.743   2.232   5.867  2.3515  0.1672 -0.5744
  337MOL0     H44427   4.795   2.003   6.039  1.4358 -0.1804  0.0343
  337MOL0     H44428   4.880   2.048   5.890 -1.6308 -1.9342 -0.4903
  337MOL0     H44429   4.866   2.198   6.160  0.0787 -4.0950  2.2121
  337MOL0     H44430   4.934   2.271   6.013 -3.1358 -0.1386 -1.4121
  337MOL0     H44431   5.078   2.065   5.993  2.2647  2.4019 -0.5231
  337MOL0     H44432   5.007   1.996   6.147  1.5017  2.1323  4.7582
  337MOL0     H44433   5.222   2.184   6.116 -1.9826 -0.6584 -2.0139
  337MOL0     H44434   5.104   2.265   6.206  1.6454 -0.3793  0.2481
  337MOL0     H44435   5.260   2.162   6.348 -0.2262  1.5400 -2.9930
  337MOL0     H44436   5.239   2.005   6.272 -0.8809 -1.2649  4.0280
  337MOL0     H44437   4.931   2.192   6.347 -0.6165 -0.6531 -0.4864
  337MOL0     H44438   4.742   2.150   6.579  0.7406  0.4121 -4.4856
  337MOL0     H44439   4.757   1.998   6.675 -0.7316  0.5194  1.5240
  337MOL0     H44440   4.576   1.963   6.557  1.9167 -1.9938  1.9242
  337MOL0     H44441   4.686   1.909   6.430 -2.3240  2.0634 -1.6110
  337MOL0     H44442   4.574   2.179   6.416  1.3798  0.3347  0.4410
  337MOL0     H44443   4.693   2.107   6.310 -0.3546  1.4357 -0.1710
  337MOL0     H44444   4.413   1.997   6.351  1.0910 -1.3432  0.9256
  337MOL0     H44445   4.540   1.947   6.229  1.8366  2.0618 -2.1384
  337MOL0     H44446   4.320   2.343   6.112 -3.0350  0.3593 -1.5793
  337MOL0     H44447   4.140   2.336   5.987 -3.0363 -0.5074 -0.1215
  337MOL0     H44448   3.873   2.050   5.644 -0.6380  0.3040 -0.3686
  337MOL0     H44449   3.684   2.083   5.500  0.9285  1.3301 -0.9917
  337MOL0     H44450   3.305   2.306   5.604 -0.6574  0.0528  2.3715
  337MOL0     H44451   3.383   2.157   5.689  2.7499  2.1043 -0.8941
  337MOL0     H44452   3.304   2.007   5.504 -0.1900 -0.2898  1.7904
  337MOL0     H44453   3.274   2.165   5.413  0.0857  1.3775  0.5280
  337MOL0     H44454   3.124   2.194   5.656 -2.2112  0.3891 -0.7773
  337MOL0     H44455   3.138   2.017   5.619 -1.7035 -2.2165 -3.9972
  337MOL0     H44456   3.052   2.194   5.400 -1.3034  0.5148  0.1308
  337MOL0     H44457   3.040   2.018   5.421 -2.0557  1.1466 -2.5463
  337MOL0     H44458   2.872   2.038   5.588 -1.7974 -1.2704 -0.6828
  337MOL0     H44459   2.822   2.088   5.434 -1.0209 -3.3921  3.2033
  337MOL0     H44460   2.903   2.330   5.536  0.0804 -1.5372 -2.4569
  337MOL0     H44461   2.896   2.236   5.684  0.0472 -1.9713 -0.5873
  337MOL0     H44462   2.654   2.249   5.488  0.7264  2.4234 -0.6501
  337MOL0     H44463   2.650   2.194   5.646 -0.0880 -2.9435 -2.9150
  337MOL0     H44464   2.719   2.444   5.703 -1.1764 -1.7922  1.3148
  337MOL0     H44465   2.549   2.396   5.659 -0.0157 -1.1770  0.8111
  337MOL0     H44466   3.551   2.405   5.745  0.1721 -0.4394  1.4121
  337MOL0     H44467   3.760   2.396   5.869 -0.2649 -0.8349  0.3978
  337MOL0     H44468   4.099   1.905   6.050  1.3476 -0.7004 -1.2189
  337MOL0     H44469   4.294   1.917   6.186 -2.3860  1.1844  4.0471
  337MOL0     H44470   4.226   2.251   5.727 -1.0675  0.2910 -0.7420
  337MOL0     H44471   4.103   2.284   5.520 -0.1058 -0.4341 -0.4409
  337MOL0     H44472   4.007   1.889   5.002  0.6589  1.2518 -2.7994
  337MOL0     H44473   3.911   1.983   4.787 -0.3598 -1.9674  0.1208
  337MOL0     H44474   3.834   2.293   4.586 -0.2710  1.7643 -0.2915
  337MOL0     H44475   3.960   2.236   4.697  1.9054  0.7836  1.8022
  337MOL0     H44476   3.883   2.437   4.850  0.3840 -2.8242  0.1517
  337MOL0     H44477   3.976   2.475   4.713  2.2169 -3.5779  1.0642
  337MOL0     H44478   3.799   2.573   4.589  1.9333  1.8266  0.3477
  337MOL0     H44479   3.775   2.619   4.747 -1.7805 -0.0247 -0.8663
  337MOL0     H44480   3.581   2.537   4.600 -1.4404  1.1790  2.1455
  337MOL0     H44481   3.630   2.370   4.623 -1.3679 -1.7721  3.4183
  337MOL0     H44482   3.422   2.513   4.996  0.4057  1.9529 -0.8496
  337MOL0     H44483   3.766   2.318   4.997 -0.0478 -0.3050 -2.6182
  337MOL0     H44484   3.866   2.241   5.211  2.8921  1.5296 -0.7224
  338MOL0     O44485   5.774   6.378   2.538 -0.0173 -0.1959  0.0116
  338MOL0     C44486   5.793   6.467   2.457 -1.0992  0.4507 -0.9832
  338MOL0     O44487   5.728   6.586   2.440 -0.8082 -0.0864 -0.0806
  338MOL0     C44488   5.621   6.628   2.519 -0.0903 -0.5315 -0.1675
  338MOL0     C44489   5.542   6.544   2.594 -0.3627  0.5962  0.4623
  338MOL0     C44490   5.424   6.591   2.654 -0.2388  0.4853  0.4892
  338MOL0     C44491   5.385   6.735   2.643  0.0879 -0.1518 -0.3077
  338MOL0     O44492   5.276   6.762   2.721  0.5064 -1.2335  0.6384
  338MOL0     C44493   5.243   6.906   2.730 -0.6053  0.5283  0.3374
  338MOL0     C44494   5.284   6.972   2.865 -0.7038 -0.4043 -0.6144
  338MOL0     C44495   5.246   7.124   2.884 -0.0337  0.5914  0.4425
  338MOL0     C44496   5.094   7.146   2.916 -0.7946 -0.5101  0.1069
  338MOL0     C44497   5.034   7.281   2.868 -0.1100  0.0557 -0.8575
  338MOL0     C44498   4.892   7.310   2.929 -0.1649 -0.1864  0.6325
  338MOL0     C44499   4.773   7.246   2.866 -0.5817  0.5238  0.6549
  338MOL0     C44500   4.769   7.101   2.885 -0.1140  0.3821 -0.3042
  338MOL0     N44501   4.633   7.059   2.849 -0.0958  0.4305 -0.0793
  338MOL0     C44502   4.511   7.128   2.853  0.4823 -1.2102  0.5995
  338MOL0     C44503   4.416   7.037   2.833  0.7144  0.3674  0.2149
  338MOL0     C44504   4.272   7.065   2.832  1.4536 -0.2964  0.1190
  338MOL0     C44505   4.218   7.180   2.733  0.1125 -0.5020 -0.1991
  338MOL0     C44506   4.069   7.197   2.742  0.5686  0.7819 -0.0449
  338MOL0     C44507   4.026   7.342   2.697 -1.2228  0.3386 -0.4293
  338MOL0     O44508   3.895   7.374   2.749  0.5700 -0.0965 -0.1091
  338MOL0     C44509   3.775   7.329   2.701 -0.4410  0.3249  0.1423
  338MOL0     C44510   3.749   7.244   2.590 -0.0613  0.2451 -0.5966
  338MOL0     C44511   3.620   7.201   2.558 -0.6079 -0.9562  0.8018
  338MOL0     C44512   3.515   7.259   2.636 -0.3918  0.2133 -0.0877
  338MOL0     C44513   3.373   7.235   2.602 -0.3816 -0.2484 -0.2569
  338MOL0     O44514   3.346   7.168   2.481 -0.1333  0.1543  0.3465
  338MOL0     C44515   3.236   7.200   2.415  0.8695 -0.2236  0.0564
  338MOL0     C44516   3.228   7.277   2.291  0.0501  0.6637 -0.3896
  338MOL0     C44517   3.111   7.296   2.229  0.6708 -0.2789  1.5170
  338MOL0     C44518   2.991   7.239   2.281 -0.7876  0.2781 -0.4135
  338MOL0     O44519   2.866   7.268   2.231 -0.1388 -0.5526  0.0858
  338MOL0     C44520   2.848   7.365   2.129 -0.2731  0.2435  0.0375
  338MOL0     C44521   2.696   7.401   2.096 -0.1597  0.1668  0.1053
  338MOL0     C44522   2.684   7.528   2.018 -0.3815 -0.8337  0.1000
  338MOL0     C44523   2.712   7.487   1.868  0.6594  0.3610 -0.8583
  338MOL0     C44524   2.731   7.609   1.782  0.7665 -0.2089 -0.9500
  338MOL0     C44525   2.620   7.716   1.803 -0.3195 -0.8171  0.6876
  338MOL0     C44526   2.478   7.673   1.783 -0.5133 -0.3269 -0.2135
  338MOL0     C44527   2.382   7.796   1.758  0.2913 -0.1980 -0.3305
  338MOL0    Cl44528   2.359   7.902   1.901 -0.1453  0.3020  0.2383
  338MOL0     C44529   2.994   7.167   2.401 -0.5434 -0.6945  0.1796
  338MOL0     C44530   3.116   7.147   2.462 -0.0215 -0.5049  0.4202
  338MOL0     O44531   3.285   7.271   2.676  0.0766  0.4414 -0.7396
  338MOL0     C44532   3.546   7.330   2.757 -0.1556 -1.0729 -0.2923
  338MOL0     C44533   3.677   7.372   2.786 -0.0440 -0.4690 -0.2147
  338MOL0     N44534   4.475   6.911   2.825  0.0831 -0.3775 -0.4930
  338MOL0     N44535   4.597   6.925   2.850  0.5409 -0.1192  1.2184
  338MOL0     C44536   5.481   6.822   2.584 -0.6012  0.0542 -0.0938
  338MOL0     C44537   5.590   6.758   2.516  1.3821 -0.1264  0.0247
  338MOL0     C44538   5.912   6.445   2.370  0.1553  1.0764 -0.3071
  338MOL0     C44539   6.004   6.344   2.414 -0.2745  0.3347  0.1069
  338MOL0     C44540   6.108   6.302   2.326  0.0512  0.9405  0.0356
  338MOL0     C44541   6.140   6.375   2.213 -0.4880  0.1172 -0.2003
  338MOL0     O44542   6.251   6.331   2.134  0.5551 -0.8789 -0.0055
  338MOL0     C44543   6.326   6.432   2.064 -0.1232 -0.4144 -0.2536
  338MOL0     C44544   6.296   6.448   1.921  1.1199  1.0073 -0.0744
  338MOL0     C44545   6.280   6.312   1.842 -0.3391  0.3447 -0.1629
  338MOL0     C44546   6.216   6.324   1.701 -0.4692  0.1552  0.7079
  338MOL0     C44547   6.070   6.336   1.700 -1.0250 -0.3994  0.7733
  338MOL0     C44548   5.953   6.357   1.692 -1.1169 -0.0862 -0.3024
  338MOL0     C44549   6.060   6.485   2.184 -0.2164 -0.3139  0.5378
  338MOL0     C44550   5.945   6.510   2.261 -0.1478  0.0620 -0.0041
  338MOL0     H44551   5.554   6.436   2.588 -1.4400  0.5560 -2.5393
  338MOL0     H44552   5.357   6.523   2.705 -0.4021  0.4017  0.1697
  338MOL0     H44553   5.135   6.918   2.741 -0.1805  3.2499  2.6111
  338MOL0     H44554   5.276   6.968   2.647 -1.7429  2.0887  1.0037
  338MOL0     H44555   5.392   6.963   2.880 -0.0472  3.3522 -1.9725
  338MOL0     H44556   5.227   6.919   2.942  0.7591  0.8379  1.3884
  338MOL0     H44557   5.272   7.181   2.795 -2.2895  1.0802  0.0299
  338MOL0     H44558   5.298   7.166   2.970 -0.5017  1.3212  0.3778
  338MOL0     H44559   5.050   7.055   2.874  0.3805 -2.6757  3.2519
  338MOL0     H44560   5.072   7.142   3.023 -3.0596  2.4317 -0.1318
  338MOL0     H44561   5.030   7.290   2.760 -0.7512  4.0829 -0.6440
  338MOL0     H44562   5.100   7.359   2.909 -1.2759 -0.2565  1.8746
  338MOL0     H44563   4.863   7.413   2.908  0.4845  0.4355  2.5767
  338MOL0     H44564   4.897   7.303   3.038  0.9435 -2.2717  0.4960
  338MOL0     H44565   4.693   7.306   2.911  0.6669  2.2935  0.6257
  338MOL0     H44566   4.787   7.267   2.760 -2.0805 -0.5429  0.2042
  338MOL0     H44567   4.778   7.073   2.991 -3.3209 -0.8603 -0.2604
  338MOL0     H44568   4.847   7.047   2.831  1.0648 -0.7183  2.3344
  338MOL0     H44569   4.498   7.229   2.888  3.5847  0.5501 -2.6796
  338MOL0     H44570   4.247   7.106   2.930 -1.2487  6.0993 -2.7098
  338MOL0     H44571   4.226   6.967   2.812  1.4076 -0.1700 -0.4236
  338MOL0     H44572   4.238   7.159   2.628 -1.0862 -0.0828 -0.5233
  338MOL0     H44573   4.262   7.275   2.768  2.5753 -1.3866 -0.6810
  338MOL0     H44574   4.016   7.116   2.689 -0.0178 -0.7255  2.6452
  338MOL0     H44575   4.040   7.185   2.847  0.2028  0.0610 -0.2215
  338MOL0     H44576   4.051   7.350   2.591 -0.4727  0.5277 -0.2496
  338MOL0     H44577   4.090   7.410   2.755 -0.9160  1.0176 -1.5341
  338MOL0     H44578   3.828   7.208   2.526  0.7051  1.6985 -0.5035
  338MOL0     H44579   3.607   7.131   2.476 -1.3751  1.8878 -1.6760
  338MOL0     H44580   3.330   7.306   2.264  0.2269  1.5808  1.1560
  338MOL0     H44581   3.102   7.356   2.140 -0.8652  1.1660  2.5682
  338MOL0     H44582   2.893   7.327   2.037  2.6124  3.8665 -0.2691
  338MOL0     H44583   2.894   7.456   2.168 -0.0099 -0.3217  1.0744
  338MOL0     H44584   2.643   7.423   2.189 -0.8371  2.5298 -0.7727
  338MOL0     H44585   2.638   7.324   2.045 -0.5308  1.0853 -0.9102
  338MOL0     H44586   2.753   7.606   2.053  0.5014 -1.7695  0.5023
  338MOL0     H44587   2.583   7.565   2.038 -0.7379 -1.3206 -0.7660
  338MOL0     H44588   2.792   7.414   1.851 -0.4939 -1.0879 -0.2940
  338MOL0     H44589   2.624   7.430   1.836  0.5754 -4.1025  5.4377
  338MOL0     H44590   2.722   7.585   1.676 -0.0481  2.1202 -1.4760
  338MOL0     H44591   2.825   7.655   1.814 -1.0875  1.2028  3.1319
  338MOL0     H44592   2.642   7.805   1.743  0.6231 -0.8684  0.9368
  338MOL0     H44593   2.634   7.753   1.905 -1.0152  2.1794 -0.1806
  338MOL0     H44594   2.460   7.611   1.696  0.4403  0.7783 -1.2460
  338MOL0     H44595   2.434   7.622   1.869 -0.2956  2.2925  1.6008
  338MOL0     H44596   2.286   7.763   1.715 -0.4935 -1.9456  2.5136
  338MOL0     H44597   2.429   7.861   1.683  3.8905  0.4333  2.2100
  338MOL0     H44598   2.898   7.126   2.432 -0.9007 -0.2403 -0.2953
  338MOL0     H44599   3.114   7.100   2.559 -1.1668  2.3686  1.9177
  338MOL0     H44600   3.463   7.363   2.818  2.1966  0.6577  2.2139
  338MOL0     H44601   3.691   7.428   2.879 -1.0927 -2.7202  1.3900
  338MOL0     H44602   5.462   6.929   2.584  0.1806  0.2025 -0.3112
  338MOL0     H44603   5.657   6.823   2.460  0.6560  0.5155 -0.1085
  338MOL0     H44604   6.006   6.310   2.517  0.9674  1.0571  0.3413
  338MOL0     H44605   6.173   6.227   2.369 -0.5384  0.9935  1.0557
  338MOL0     H44606   6.430   6.399   2.074 -0.4157 -1.6440 -1.0343
  338MOL0     H44607   6.325   6.527   2.117  3.4649  0.1080 -0.8264
  338MOL0     H44608   6.199   6.498   1.920  0.6163  0.1266  1.1908
  338MOL0     H44609   6.369   6.514   1.874 -0.3264  1.8563 -1.2216
  338MOL0     H44610   6.218   6.244   1.900  1.9895 -1.0638  0.8253
  338MOL0     H44611   6.378   6.265   1.829 -1.3333 -1.4509 -1.6717
  338MOL0     H44612   6.270   6.395   1.637  1.9173 -2.8174 -0.8678
  338MOL0     H44613   6.234   6.221   1.667  2.1923  0.9196 -0.4489
  338MOL0     H44614   5.848   6.372   1.675 -1.0003  0.7732 -0.3257
  338MOL0     H44615   6.093   6.555   2.108  1.8855 -2.5515 -0.7732
  338MOL0     H44616   5.884   6.594   2.230  0.5188 -0.0394 -1.6610
  339MOL0     O44617   7.212   1.371   3.712  0.4934  0.2479 -0.3849
  339MOL0     C44618   7.228   1.288   3.627 -0.2054  0.3215  1.2055
  339MOL0     O44619   7.330   1.196   3.630  0.0729  0.5123  0.1911
  339MOL0     C44620   7.394   1.181   3.754  0.0248  0.2149  1.0534
  339MOL0     C44621   7.352   1.080   3.841 -1.1086  0.6868 -0.8284
  339MOL0     C44622   7.407   1.066   3.973 -0.6406  0.4728 -0.1817
  339MOL0     C44623   7.512   1.148   4.012 -0.2958  1.0576 -0.3518
  339MOL0     O44624   7.550   1.120   4.143  0.1210 -0.4102  1.1085
  339MOL0     C44625   7.683   1.147   4.186  0.4174 -0.0566 -0.6125
  339MOL0     C44626   7.765   1.034   4.132  0.4332  0.8044 -0.2543
  339MOL0     C44627   7.820   1.071   3.997  0.4429 -0.0480  0.3996
  339MOL0     C44628   7.904   0.959   3.934  0.4463  0.3944 -0.7956
  339MOL0     C44629   7.979   1.016   3.809 -0.2408  0.7291 -0.1643
  339MOL0     C44630   8.095   1.108   3.849  0.4709 -0.5124  0.0577
  339MOL0     C44631   8.230   1.084   3.772  0.0512  0.1446  0.4393
  339MOL0     C44632   8.221   1.109   3.620 -0.3486  0.6530  0.2514
  339MOL0     N44633   8.304   1.006   3.556  0.2115  0.4269 -0.0205
  339MOL0     C44634   8.279   0.871   3.562 -0.1624 -0.0684 -0.1434
  339MOL0     C44635   8.355   0.820   3.457  0.0931  0.0486  0.6659
  339MOL0     C44636   8.369   0.678   3.413  0.0280  0.2011  0.0701
  339MOL0     C44637   8.311   0.654   3.272 -0.3007 -0.1599  0.0109
  339MOL0     C44638   8.335   0.507   3.245 -0.0637  0.6598 -0.7551
  339MOL0     C44639   8.270   0.468   3.119  0.3822 -0.2202  0.1911
  339MOL0     O44640   8.133   0.475   3.130  1.3794 -0.1756  0.4116
  339MOL0     C44641   8.058   0.444   3.014 -0.9735  0.5959 -0.5204
  339MOL0     C44642   7.923   0.451   3.023 -0.4076 -0.2352 -0.4036
  339MOL0     C44643   7.841   0.442   2.909 -0.8509  0.9884  0.1850
  339MOL0     C44644   7.900   0.419   2.781  0.4040 -0.5046 -0.4224
  339MOL0     C44645   7.820   0.399   2.663  0.2135  0.1701  0.2074
  339MOL0     O44646   7.683   0.424   2.679 -0.4794  0.4116 -2.0566
  339MOL0     C44647   7.588   0.398   2.592  0.5895  0.5254  0.3799
  339MOL0     C44648   7.579   0.302   2.495 -0.9549  0.1719  0.5647
  339MOL0     C44649   7.468   0.283   2.414 -0.4113 -0.1960  0.7730
  339MOL0     C44650   7.358   0.371   2.432  0.5354  0.1129  0.6033
  339MOL0     O44651   7.245   0.357   2.359  0.2127 -0.1049 -0.4847
  339MOL0     C44652   7.234   0.290   2.230 -0.6127 -0.2047 -0.7154
  339MOL0     C44653   7.162   0.159   2.246  0.3642 -0.0584  0.0720
  339MOL0     C44654   7.014   0.187   2.280  0.0982  0.5454  0.2642
  339MOL0     C44655   6.921   0.082   2.222  0.7486  0.0050 -0.2766
  339MOL0     C44656   6.765   0.111   2.247  0.0803  0.3926  0.5850
  339MOL0     C44657   6.733   0.194   2.386 -0.1527 -0.7523  0.4900
  339MOL0     C44658   6.577   0.213   2.390  0.3890 -0.1288 -0.6626
  339MOL0     C44659   6.493   0.087   2.386  1.1856  0.0695  0.2292
  339MOL0    Cl44660   6.324   0.154   2.390  0.2573  0.1243 -0.0552
  339MOL0     C44661   7.365   0.464   2.519 -0.0986  0.8782 -1.3044
  339MOL0     C44662   7.471   0.470   2.615 -0.9181 -0.4888  0.9083
  339MOL0     O44663   7.876   0.375   2.550  0.4148  0.5416 -0.0860
  339MOL0     C44664   8.039   0.422   2.768 -0.4425  0.4276 -0.0432
  339MOL0     C44665   8.120   0.436   2.885  0.0809  0.7013  0.1907
  339MOL0     N44666   8.440   0.917   3.405 -0.0445  0.5540 -0.4359
  339MOL0     N44667   8.406   1.029   3.463  0.3442 -0.3855 -0.5609
  339MOL0     C44668   7.551   1.256   3.928 -0.3971  0.4571 -0.7010
  339MOL0     C44669   7.490   1.277   3.801  0.2295 -0.4350 -0.7207
  339MOL0     C44670   7.126   1.267   3.521  0.6344 -0.2306 -0.1119
  339MOL0     C44671   7.036   1.372   3.496  0.6139  0.3054 -0.0568
  339MOL0     C44672   6.941   1.372   3.389  0.1419 -0.3446 -1.2972
  339MOL0     C44673   6.929   1.249   3.327  0.2455  0.0431  0.2518
  339MOL0     O44674   6.834   1.239   3.217 -0.4610 -0.0692  0.7602
  339MOL0     C44675   6.754   1.350   3.181 -0.3709  0.1188  0.9848
  339MOL0     C44676   6.684   1.307   3.047 -1.0082 -0.1104 -0.0510
  339MOL0     C44677   6.797   1.294   2.931  1.3953  0.1139 -0.3160
  339MOL0     C44678   6.729   1.319   2.796  1.3729 -0.5036 -0.2035
  339MOL0     C44679   6.832   1.329   2.697  0.4381 -0.2959 -1.1442
  339MOL0     C44680   6.929   1.337   2.622  0.1365 -0.5445 -0.4291
  339MOL0     C44681   7.011   1.141   3.365 -0.8061  0.1630 -0.1597
  339MOL0     C44682   7.106   1.146   3.460 -1.2184  0.3743  0.7564
  339MOL0     H44683   7.288   1.007   3.792  1.5233 -1.1313 -1.7403
  339MOL0     H44684   7.366   0.995   4.044 -0.7083  2.3321  1.7602
  339MOL0     H44685   7.680   1.150   4.295  1.5651  2.0897 -0.5830
  339MOL0     H44686   7.726   1.244   4.160 -0.4234  0.6000  0.3600
  339MOL0     H44687   7.705   0.942   4.135 -2.1593  2.4235  0.3644
  339MOL0     H44688   7.849   1.017   4.200  0.5663 -0.1778 -0.6425
  339MOL0     H44689   7.883   1.159   4.011  0.0554  0.6780 -2.0439
  339MOL0     H44690   7.744   1.096   3.923  1.3976 -1.6758 -1.2062
  339MOL0     H44691   7.974   0.914   4.004 -1.2211  0.7497  1.2171
  339MOL0     H44692   7.826   0.890   3.899 -1.6730  1.2455  1.8822
  339MOL0     H44693   7.903   1.071   3.752  0.2260  1.2398 -0.3059
  339MOL0     H44694   8.013   0.935   3.744 -2.1541  1.5212 -2.3068
  339MOL0     H44695   8.114   1.098   3.957  1.9468 -2.0026 -0.2966
  339MOL0     H44696   8.053   1.208   3.836  0.8521 -0.1840  1.2606
  339MOL0     H44697   8.308   1.144   3.819 -2.1403  0.5611  3.9958
  339MOL0     H44698   8.249   0.982   3.808 -3.2145 -0.1157  1.7992
  339MOL0     H44699   8.272   1.204   3.605 -1.4773  0.9200 -2.4595
  339MOL0     H44700   8.121   1.117   3.578 -0.1548 -0.3022 -0.4277
  339MOL0     H44701   8.214   0.813   3.626  1.8984 -0.3771  1.7853
  339MOL0     H44702   8.329   0.611   3.490 -0.3396 -0.4532 -0.6708
  339MOL0     H44703   8.475   0.651   3.409  0.1803  0.7483  0.3844
  339MOL0     H44704   8.362   0.723   3.204  3.1676  1.9158  4.2500
  339MOL0     H44705   8.203   0.672   3.274 -0.7466 -1.9155 -2.6443
  339MOL0     H44706   8.441   0.477   3.244 -0.5858 -1.4112 -2.4920
  339MOL0     H44707   8.295   0.452   3.331 -2.9023  1.5956 -1.3874
  339MOL0     H44708   8.295   0.366   3.088  0.8594 -0.4602  1.3334
  339MOL0     H44709   8.300   0.535   3.037 -0.8468  1.6557  1.2069
  339MOL0     H44710   7.886   0.463   3.124  3.8209 -1.8752  1.6230
  339MOL0     H44711   7.733   0.432   2.916 -0.9626  1.1485 -1.1588
  339MOL0     H44712   7.662   0.236   2.472 -1.6966  0.8902 -5.9089
  339MOL0     H44713   7.461   0.193   2.354  1.5869 -0.7714  1.3148
  339MOL0     H44714   7.335   0.269   2.192  0.3268 -1.1413  2.0014
  339MOL0     H44715   7.184   0.360   2.164 -4.0516 -0.0429  1.8155
  339MOL0     H44716   7.199   0.086   2.318 -1.9978 -0.9582  0.4865
  339MOL0     H44717   7.161   0.114   2.146 -0.6290  2.3401 -1.0925
  339MOL0     H44718   6.977   0.281   2.239 -2.7627 -1.2077 -1.4952
  339MOL0     H44719   7.018   0.190   2.389  2.9161 -1.1248  0.3270
  339MOL0     H44720   6.941   0.063   2.116  1.9592  0.1676 -0.0863
  339MOL0     H44721   6.933  -0.013   2.274  2.1344  0.2355 -0.1309
  339MOL0     H44722   6.703   0.023   2.229  1.5659 -0.4211 -0.8153
  339MOL0     H44723   6.737   0.169   2.159 -2.1722 -3.0797 -1.2017
  339MOL0     H44724   6.789   0.288   2.380 -0.9643 -0.2768  0.3087
  339MOL0     H44725   6.770   0.135   2.470 -0.4111  0.6743  1.6473
  339MOL0     H44726   6.556   0.263   2.485  1.1105 -3.9782  1.7757
  339MOL0     H44727   6.541   0.283   2.314  0.6166  0.9261  0.1834
  339MOL0     H44728   6.519   0.025   2.472 -0.2948  2.7343  2.7602
  339MOL0     H44729   6.496   0.033   2.290 -1.7074 -0.2478  0.2331
  339MOL0     H44730   7.280   0.532   2.517  0.6234  1.8795  0.0018
  339MOL0     H44731   7.472   0.551   2.687 -0.2787 -0.1683  0.5438
  339MOL0     H44732   8.095   0.417   2.675 -1.2076  0.4033 -0.5126
  339MOL0     H44733   8.226   0.447   2.861  0.5877  0.0001  1.9703
  339MOL0     H44734   7.633   1.320   3.958  0.5591 -0.0776 -2.0654
  339MOL0     H44735   7.512   1.371   3.752 -0.4405 -0.2574 -0.6916
  339MOL0     H44736   7.057   1.462   3.555 -0.5304  0.5973 -0.0827
  339MOL0     H44737   6.873   1.455   3.376  0.6903  0.1951 -0.7774
  339MOL0     H44738   6.814   1.440   3.164 -1.8651  0.8115 -1.0654
  339MOL0     H44739   6.666   1.372   3.242 -1.1553 -2.1497  0.7734
  339MOL0     H44740   6.616   1.223   3.037 -3.3502  1.7454 -0.6991
  339MOL0     H44741   6.618   1.391   3.021 -0.6256 -0.7021 -3.2402
  339MOL0     H44742   6.832   1.190   2.934 -0.0802 -0.4284 -0.6324
  339MOL0     H44743   6.881   1.360   2.950  0.9031  0.3263  1.2752
  339MOL0     H44744   6.666   1.230   2.782  1.3553 -0.4225 -0.6496
  339MOL0     H44745   6.668   1.410   2.803  2.2307 -0.0135  1.4108
  339MOL0     H44746   6.999   1.350   2.543  0.2396  3.5775  0.1100
  339MOL0     H44747   6.983   1.049   3.315  0.7061 -1.0679  1.1437
  339MOL0     H44748   7.158   1.053   3.479 -0.7629  0.7681  1.4971
  340MOL0     O44749   2.701   4.326   1.202 -0.1372 -0.2835 -0.0173
  340MOL0     C44750   2.789   4.304   1.291  1.0475  0.2558 -0.4879
  340MOL0     O44751   2.768   4.236   1.405  0.9154 -0.5379 -0.2639
  340MOL0     C44752   2.644   4.182   1.417 -0.1761  1.7070  0.8926
  340MOL0     C44753   2.550   4.246   1.490  0.0037 -0.0628 -0.6447
  340MOL0     C44754   2.418   4.201   1.474  0.0332  0.3110 -0.0063
  340MOL0     C44755   2.378   4.091   1.399  0.2098  0.6686 -0.2633
  340MOL0     O44756   2.246   4.061   1.385 -0.3020 -0.0668  0.5095
  340MOL0     C44757   2.213   3.928   1.424 -0.3423 -0.3900  0.5883
  340MOL0     C44758   2.225   3.895   1.569 -0.3428 -0.0775 -0.1356
  340MOL0     C44759   2.169   3.760   1.597  0.6154 -0.1492  0.4024
  340MOL0     C44760   2.013   3.750   1.569 -0.0487 -0.6923 -0.3124
  340MOL0     C44761   1.932   3.680   1.673  1.5504 -0.5244  0.2829
  340MOL0     C44762   1.895   3.787   1.777  0.1063 -1.2074 -0.9157
  340MOL0     C44763   1.800   3.727   1.885  0.6430 -0.6959 -0.6448
  340MOL0     C44764   1.789   3.823   2.013 -0.3945 -0.5701 -0.5749
  340MOL0     N44765   1.726   3.950   1.986 -0.2259 -0.1944  0.1088
  340MOL0     C44766   1.630   3.975   1.900 -0.2501 -0.0467  0.0394
  340MOL0     C44767   1.614   4.107   1.889 -0.3716  0.2031 -0.6317
  340MOL0     C44768   1.511   4.177   1.793 -0.3148 -0.6230 -0.2951
  340MOL0     C44769   1.398   4.224   1.884 -0.7147  0.1532  0.2619
  340MOL0     C44770   1.307   4.320   1.800  0.2064 -0.1562 -0.6518
  340MOL0     C44771   1.234   4.253   1.682  0.2347 -0.2253  0.2775
  340MOL0     O44772   1.163   4.134   1.727  0.1651  0.6647  0.1105
  340MOL0     C44773   1.068   4.083   1.634 -0.1599  0.0553 -0.2621
  340MOL0     C44774   0.937   4.079   1.673  0.2398 -0.4896 -0.3200
  340MOL0     C44775   0.832   4.029   1.591 -0.6945 -0.7780 -0.5830
  340MOL0     C44776   0.865   3.968   1.472 -0.7856 -0.7852  0.0327
  340MOL0     C44777   0.750   3.919   1.377  0.4365 -0.2137 -0.4478
  340MOL0     O44778   0.624   3.976   1.398  0.0712 -0.1084 -0.2578
  340MOL0     C44779   0.533   3.962   1.296 -0.5937  0.0804  0.2371
  340MOL0     C44780   0.566   3.979   1.164  0.8538 -1.3512 -0.6622
  340MOL0     C44781   0.469   3.981   1.064 -0.0715  0.8773  0.5740
  340MOL0     C44782   0.336   3.939   1.086  0.2191 -0.3953  0.0060
  340MOL0     O44783   0.235   3.927   0.991 -0.1446  0.3633 -0.1950
  340MOL0     C44784   0.281   3.939   0.852  0.0157 -0.2282  0.3664
  340MOL0     C44785   0.165   3.897   0.764 -0.5329 -0.0551 -0.5001
  340MOL0     C44786   0.051   3.998   0.765  0.2460 -0.4548  0.7141
  340MOL0     C44787  -0.089   3.932   0.735  0.0051 -0.4306  0.4935
  340MOL0     C44788  -0.199   4.027   0.703 -0.0856 -0.6076  0.4747
  340MOL0     C44789  -0.314   3.978   0.602 -0.7126  0.0963 -0.3869
  340MOL0     C44790  -0.411   4.098   0.590  0.1250 -0.6268  0.2181
  340MOL0     C44791  -0.519   4.100   0.704 -0.1724 -0.1256  0.0248
  340MOL0    Cl44792  -0.638   3.958   0.696 -0.0574 -0.1214 -0.0754
  340MOL0     C44793   0.305   3.905   1.221 -0.2438  0.1929  0.7037
  340MOL0     C44794   0.398   3.923   1.321 -0.0151 -0.4849  0.2869
  340MOL0     O44795   0.778   3.834   1.290 -0.5442  0.7036 -0.4232
  340MOL0     C44796   1.000   3.951   1.438 -0.1836 -0.0928  0.9283
  340MOL0     C44797   1.107   4.006   1.515  1.0610 -0.5452  0.4821
  340MOL0     N44798   1.708   4.165   1.971 -0.5073  0.5736  0.4620
  340MOL0     N44799   1.777   4.069   2.018  0.6115 -0.5051  0.1161
  340MOL0     C44800   2.484   4.016   1.333  0.4317  0.0124 -0.4771
  340MOL0     C44801   2.615   4.065   1.343  0.6628  0.5463  0.4379
  340MOL0     C44802   2.933   4.326   1.263 -0.4863  0.7524 -0.4400
  340MOL0     C44803   3.026   4.300   1.362 -0.3494  0.3544  0.9212
  340MOL0     C44804   3.165   4.310   1.333  0.3008  0.8277  0.5700
  340MOL0     C44805   3.207   4.355   1.207 -0.1886  0.3628  0.0752
  340MOL0     O44806   3.332   4.353   1.161  0.4610  0.5326  0.2918
  340MOL0     C44807   3.440   4.293   1.234 -0.1869 -0.0677 -0.2531
  340MOL0     C44808   3.559   4.314   1.145  0.3449 -0.1387 -0.2834
  340MOL0     C44809   3.612   4.453   1.153  0.0982 -0.4937  0.4220
  340MOL0     C44810   3.739   4.476   1.060  0.7756 -0.1253  0.8856
  340MOL0     C44811   3.852   4.399   1.104 -0.8554  0.1869 -0.2076
  340MOL0     C44812   3.949   4.350   1.161 -0.3518  0.5582  0.3855
  340MOL0     C44813   3.110   4.384   1.112  0.1341 -0.8937 -0.4048
  340MOL0     C44814   2.971   4.377   1.135  0.4014  0.5033  0.4810
  340MOL0     H44815   2.585   4.325   1.555 -0.3424  0.6189 -1.2745
  340MOL0     H44816   2.337   4.267   1.504  0.2365  0.0487  1.1974
  340MOL0     H44817   2.281   3.864   1.366 -0.2502 -3.1071  3.3963
  340MOL0     H44818   2.112   3.925   1.383  0.9843  1.0419 -3.1767
  340MOL0     H44819   2.181   3.975   1.629  3.1302  2.1198 -0.2225
  340MOL0     H44820   2.332   3.888   1.590 -0.0886 -0.9872 -1.6098
  340MOL0     H44821   2.187   3.730   1.700  0.5861  0.2651  0.5297
  340MOL0     H44822   2.226   3.689   1.535  3.0670  0.0817  2.2309
  340MOL0     H44823   1.985   3.856   1.562  0.7962 -0.4591 -0.2516
  340MOL0     H44824   2.002   3.712   1.467 -0.9810  0.2771 -0.5840
  340MOL0     H44825   1.972   3.583   1.705  1.1280 -1.4374 -1.7961
  340MOL0     H44826   1.843   3.663   1.612  0.5470  5.8926 -0.7389
  340MOL0     H44827   1.849   3.877   1.735  2.8136  0.3767 -0.7984
  340MOL0     H44828   1.989   3.830   1.814  0.8201 -2.0607 -1.6956
  340MOL0     H44829   1.702   3.706   1.840  0.6649  1.1312 -1.6103
  340MOL0     H44830   1.852   3.638   1.923  0.7579  0.1591  1.3125
  340MOL0     H44831   1.885   3.842   2.062 -0.2501 -0.1283 -1.0284
  340MOL0     H44832   1.728   3.773   2.089  0.1944 -0.0613  0.2520
  340MOL0     H44833   1.581   3.907   1.830 -0.6483 -0.8062  1.0235
  340MOL0     H44834   1.476   4.104   1.720  0.6523 -2.7648  1.2812
  340MOL0     H44835   1.557   4.259   1.737 -0.1439 -0.5683 -0.0765
  340MOL0     H44836   1.433   4.278   1.973  0.5286  0.0682 -0.1586
  340MOL0     H44837   1.330   4.146   1.920 -1.8877  1.6702  1.4943
  340MOL0     H44838   1.225   4.353   1.866  0.0642  0.5807 -1.1865
  340MOL0     H44839   1.360   4.412   1.774  2.5270 -0.9551  0.9570
  340MOL0     H44840   1.296   4.242   1.593 -0.1974 -1.8308  0.1363
  340MOL0     H44841   1.152   4.315   1.645 -1.4299 -1.9860  0.8281
  340MOL0     H44842   0.909   4.128   1.765  3.4565 -1.1569  1.1448
  340MOL0     H44843   0.732   4.057   1.622  0.1687  4.3516 -1.5026
  340MOL0     H44844   0.664   4.005   1.125 -0.5663  2.1195 -2.3113
  340MOL0     H44845   0.520   3.998   0.970  0.9114  2.7047  1.3828
  340MOL0     H44846   0.367   3.874   0.834  0.4674 -0.2778  2.4462
  340MOL0     H44847   0.306   4.045   0.838 -2.5054  0.7663  2.4648
  340MOL0     H44848   0.126   3.801   0.798  0.2326 -0.9004 -1.9161
  340MOL0     H44849   0.209   3.896   0.664  1.3265  4.9329 -0.0240
  340MOL0     H44850   0.065   4.074   0.688  0.0832 -3.1365 -2.1629
  340MOL0     H44851   0.024   4.057   0.854 -0.0986 -0.5680  0.6879
  340MOL0     H44852  -0.082   3.855   0.658  3.7169  1.1185 -0.9494
  340MOL0     H44853  -0.119   3.883   0.829 -1.0782 -0.4132  0.1728
  340MOL0     H44854  -0.157   4.112   0.648 -2.4129  0.0357 -0.4415
  340MOL0     H44855  -0.255   4.069   0.787  0.9879  0.9250  0.4733
  340MOL0     H44856  -0.364   3.896   0.655  0.4220 -0.2518  0.1964
  340MOL0     H44857  -0.270   3.937   0.511 -0.1122  1.5442 -0.7732
  340MOL0     H44858  -0.352   4.190   0.590  0.1883 -0.6614 -1.1258
  340MOL0     H44859  -0.464   4.089   0.495 -2.0734 -1.6854  1.4389
  340MOL0     H44860  -0.576   4.192   0.696 -0.0449  0.1761  2.0336
  340MOL0     H44861  -0.467   4.101   0.800  1.1671 -0.9763 -0.6557
  340MOL0     H44862   0.207   3.863   1.243  0.4804 -1.3848  1.0833
  340MOL0     H44863   0.368   3.905   1.423 -1.5904 -2.2244 -0.4174
  340MOL0     H44864   1.010   3.887   1.351  1.6540  1.7266 -0.2878
  340MOL0     H44865   1.210   3.992   1.482  1.3202 -1.8324  1.7521
  340MOL0     H44866   2.458   3.936   1.265 -1.7064  2.0814 -2.2740
  340MOL0     H44867   2.693   4.010   1.292  1.0399  1.2739  0.2177
  340MOL0     H44868   2.984   4.262   1.455  1.5334  0.1373  1.7329
  340MOL0     H44869   3.226   4.262   1.409  2.3420 -1.4950 -2.2834
  340MOL0     H44870   3.417   4.188   1.254 -0.6008 -0.1807 -1.2415
  340MOL0     H44871   3.442   4.347   1.329 -2.6447 -1.0174  0.4278
  340MOL0     H44872   3.632   4.235   1.166 -2.1497 -1.7691  3.3062
  340MOL0     H44873   3.523   4.298   1.043 -2.4659  1.3186  0.3798
  340MOL0     H44874   3.655   4.469   1.253 -0.8422 -2.8960  1.2757
  340MOL0     H44875   3.537   4.532   1.137 -0.9713 -1.9797 -2.8250
  340MOL0     H44876   3.734   4.442   0.956 -0.1987  1.8749  0.2225
  340MOL0     H44877   3.776   4.579   1.056 -0.7450  0.4353  0.7625
  340MOL0     H44878   4.016   4.302   1.229 -1.2671  1.1186  1.7277
  340MOL0     H44879   3.142   4.433   1.020 -1.2886 -0.5651 -0.7560
  340MOL0     H44880   2.911   4.407   1.049 -0.3946 -1.1460  0.4245
  341MOL0     O44881   2.299   3.177   5.083  0.0554 -0.0100 -0.1303
  341MOL0     C44882   2.341   3.186   4.967  0.5190  0.4233  0.1738
  341MOL0     O44883   2.265   3.194   4.854 -1.1269  0.0722 -0.7757
  341MOL0     C44884   2.132   3.166   4.849 -1.2910  0.3107  0.2153
  341MOL0     C44885   2.076   3.065   4.938  1.0943 -0.2545 -0.0297
  341MOL0     C44886   1.941   3.030   4.928 -0.5663 -0.1746 -0.5844
  341MOL0     C44887   1.858   3.105   4.846  1.1513  0.4164 -0.5394
  341MOL0     O44888   1.725   3.072   4.862 -0.9018  0.6693  0.2403
  341MOL0     C44889   1.624   3.094   4.764 -0.5109 -0.2301 -0.4349
  341MOL0     C44890   1.625   2.991   4.651  0.2465  0.2999 -0.8987
  341MOL0     C44891   1.498   2.993   4.577  0.6158  0.4584 -0.0995
  341MOL0     C44892   1.396   2.882   4.635  0.2433 -0.9945 -0.4432
  341MOL0     C44893   1.258   2.924   4.588 -0.3730  0.9703  0.8337
  341MOL0     C44894   1.151   2.826   4.642 -0.5446 -0.7146 -0.2319
  341MOL0     C44895   1.005   2.863   4.603 -0.1886 -0.0089  0.4294
  341MOL0     C44896   0.914   2.738   4.595  0.2237 -0.3656 -0.9659
  341MOL0     N44897   0.769   2.766   4.587  0.2542  0.6510  0.1061
  341MOL0     C44898   0.700   2.871   4.531  0.1822  0.7560 -0.3365
  341MOL0     C44899   0.570   2.844   4.560 -0.0072 -0.5966  0.5445
  341MOL0     C44900   0.459   2.933   4.539 -0.4348 -0.3831  0.3107
  341MOL0     C44901   0.428   2.943   4.393 -0.0308  0.3904 -0.4500
  341MOL0     C44902   0.297   3.021   4.354  0.4703  0.1676 -1.4964
  341MOL0     C44903   0.167   2.981   4.423 -0.1805 -0.1114 -0.1208
  341MOL0     O44904   0.067   3.077   4.395 -0.3494 -0.2593  0.2198
  341MOL0     C44905  -0.057   3.071   4.457  0.5334 -0.3821  0.5206
  341MOL0     C44906  -0.116   2.953   4.513  0.1369 -0.0992  0.7339
  341MOL0     C44907  -0.250   2.946   4.544  0.2323  0.2912  0.2578
  341MOL0     C44908  -0.326   3.063   4.530  0.1144 -0.7805  0.0126
  341MOL0     C44909  -0.475   3.056   4.551 -0.3989  0.1845 -0.4703
  341MOL0     O44910  -0.543   2.930   4.552 -0.4735 -0.0502  0.4239
  341MOL0     C44911  -0.677   2.931   4.565 -0.2742  0.3446 -1.1698
  341MOL0     C44912  -0.756   2.903   4.685 -1.2804 -0.0474  0.8949
  341MOL0     C44913  -0.894   2.893   4.679  1.0792 -0.5301  0.0669
  341MOL0     C44914  -0.963   2.901   4.553 -0.3639 -0.0831  0.0439
  341MOL0     O44915  -1.099   2.888   4.539 -0.0494  0.1720 -1.3114
  341MOL0     C44916  -1.160   2.778   4.473 -0.2683 -0.3201  1.5140
  341MOL0     C44917  -1.097   2.655   4.532 -0.0081 -0.5059 -0.5898
  341MOL0     C44918  -1.145   2.613   4.671  0.0471  0.5349  0.0585
  341MOL0     C44919  -1.064   2.494   4.724  0.2185 -0.1157  0.7255
  341MOL0     C44920  -1.112   2.439   4.850 -0.6210  0.9578 -0.4259
  341MOL0     C44921  -1.010   2.360   4.924 -0.0540  0.0094 -0.7949
  341MOL0     C44922  -1.081   2.298   5.035 -0.5018 -0.1461 -0.1873
  341MOL0     C44923  -1.001   2.179   5.089  0.7008 -0.3594  0.4289
  341MOL0    Cl44924  -0.851   2.236   5.162 -0.5036  0.2083  0.3904
  341MOL0     C44925  -0.886   2.914   4.436 -0.0540 -0.5711 -0.7603
  341MOL0     C44926  -0.746   2.939   4.442  1.3162 -0.0696  0.2629
  341MOL0     O44927  -0.533   3.169   4.554  0.6949  0.4068  0.1131
  341MOL0     C44928  -0.269   3.183   4.484 -0.2576  1.0303 -0.2233
  341MOL0     C44929  -0.134   3.189   4.451 -0.0288  0.5715 -0.0779
  341MOL0     N44930   0.562   2.726   4.625 -0.9723 -0.3746  0.3862
  341MOL0     N44931   0.682   2.683   4.646  0.2263 -0.0261 -0.0619
  341MOL0     C44932   1.920   3.200   4.761  0.1896  0.2256 -0.4723
  341MOL0     C44933   2.051   3.227   4.755 -0.0024  0.3154  0.3460
  341MOL0     C44934   2.484   3.162   4.938 -0.1909  0.0966 -0.0993
  341MOL0     C44935   2.517   3.095   4.820  0.6514  0.7154 -1.2978
  341MOL0     C44936   2.645   3.042   4.793 -0.9744 -0.2863 -0.0542
  341MOL0     C44937   2.744   3.049   4.890  0.4159 -0.8763  0.0776
  341MOL0     O44938   2.859   2.980   4.894 -0.6937  0.3519  0.7191
  341MOL0     C44939   2.885   2.889   4.785  0.3857  0.0670 -0.1108
  341MOL0     C44940   3.020   2.829   4.810 -0.4729  0.4488 -0.3730
  341MOL0     C44941   3.143   2.910   4.772 -0.1811  0.0887  1.3611
  341MOL0     C44942   3.275   2.834   4.804 -0.1235 -0.7286  0.7418
  341MOL0     C44943   3.381   2.876   4.703 -0.4812 -0.4596  0.9059
  341MOL0     C44944   3.452   2.918   4.610  0.5307 -0.0752  0.0974
  341MOL0     C44945   2.709   3.110   5.007  0.1820 -0.3022  0.0339
  341MOL0     C44946   2.586   3.173   5.034 -0.4688 -0.6479  1.2021
  341MOL0     H44947   2.145   3.015   5.005  0.5945  0.7617  1.2969
  341MOL0     H44948   1.898   2.951   4.989 -2.2384  0.8641 -0.3623
  341MOL0     H44949   1.641   3.194   4.723  1.0538 -0.1965  0.2013
  341MOL0     H44950   1.527   3.102   4.813 -1.2559 -0.9973 -1.7388
  341MOL0     H44951   1.631   2.898   4.707  0.1926 -0.1565 -1.6288
  341MOL0     H44952   1.717   2.998   4.591  1.9129  2.1148  1.6284
  341MOL0     H44953   1.523   2.959   4.476 -0.0104 -0.1708 -0.0524
  341MOL0     H44954   1.452   3.091   4.564  1.7322  0.5582 -7.3972
  341MOL0     H44955   1.422   2.785   4.592 -0.3276 -1.3308 -0.0419
  341MOL0     H44956   1.405   2.871   4.743 -0.5582  2.0441  0.0271
  341MOL0     H44957   1.254   2.913   4.479 -2.4481 -1.8108  1.0659
  341MOL0     H44958   1.235   3.028   4.614  0.1038  1.2695  0.0920
  341MOL0     H44959   1.161   2.821   4.751  2.7579  1.4437 -0.2755
  341MOL0     H44960   1.180   2.724   4.615  0.9320 -1.6234  4.0081
  341MOL0     H44961   0.968   2.927   4.684 -4.1844 -1.2873 -0.1237
  341MOL0     H44962   1.009   2.912   4.505  2.4844 -0.1600  0.3996
  341MOL0     H44963   0.927   2.678   4.686  1.0051  1.5058  0.2028
  341MOL0     H44964   0.936   2.670   4.512  1.0598  2.1009 -2.8729
  341MOL0     H44965   0.742   2.962   4.489  3.4899 -0.3398  0.2897
  341MOL0     H44966   0.497   3.033   4.561 -1.5661  0.8794 -2.8782
  341MOL0     H44967   0.366   2.919   4.596 -1.6963 -0.9287 -1.7474
  341MOL0     H44968   0.419   2.837   4.368  0.8929 -0.4706  2.5202
  341MOL0     H44969   0.516   2.981   4.341  0.3484 -1.3046 -1.1012
  341MOL0     H44970   0.321   3.121   4.391  3.7118 -1.3968  1.1479
  341MOL0     H44971   0.274   2.994   4.251  0.0362 -1.9543 -0.8884
  341MOL0     H44972   0.184   2.972   4.530 -2.8882 -1.0680  0.3060
  341MOL0     H44973   0.133   2.884   4.387 -0.4802  0.0019 -0.1450
  341MOL0     H44974  -0.054   2.866   4.529 -0.6927 -0.7776  0.3046
  341MOL0     H44975  -0.296   2.858   4.587  2.2802  0.4698  3.0808
  341MOL0     H44976  -0.708   2.892   4.783 -1.3828  3.9069  1.5417
  341MOL0     H44977  -0.953   2.874   4.768  2.0294  2.9833  1.6519
  341MOL0     H44978  -1.150   2.785   4.364  0.1534  0.6226  1.6058
  341MOL0     H44979  -1.267   2.776   4.495 -0.9300 -1.9447 -1.2867
  341MOL0     H44980  -0.989   2.664   4.541 -0.1296  1.8340 -1.0894
  341MOL0     H44981  -1.118   2.573   4.463 -0.7772 -1.3117  0.5515
  341MOL0     H44982  -1.250   2.582   4.672 -0.7168  2.9298  0.5449
  341MOL0     H44983  -1.135   2.700   4.737 -0.6498  0.5785  0.1136
  341MOL0     H44984  -1.083   2.422   4.643 -4.6053  0.6747  0.8281
  341MOL0     H44985  -0.961   2.529   4.727 -0.8147  3.2582  2.7794
  341MOL0     H44986  -1.199   2.377   4.825  0.2041 -0.6295  0.4868
  341MOL0     H44987  -1.145   2.517   4.919  2.9861  1.3982  0.9961
  341MOL0     H44988  -0.930   2.425   4.960  1.2636 -1.6715 -0.5702
  341MOL0     H44989  -0.973   2.286   4.852 -3.9614 -1.7126 -1.3037
  341MOL0     H44990  -1.087   2.360   5.125 -1.7246 -0.3396 -0.1180
  341MOL0     H44991  -1.182   2.267   5.010 -1.9313  2.0490  2.2781
  341MOL0     H44992  -0.981   2.111   5.006  2.3564  0.1127  0.4031
  341MOL0     H44993  -1.064   2.129   5.164  0.2844  1.5600  1.4315
  341MOL0     H44994  -0.946   2.928   4.346  1.3706  4.1844 -1.2560
  341MOL0     H44995  -0.695   2.947   4.347 -2.5561  3.0662 -1.8477
  341MOL0     H44996  -0.327   3.273   4.469  1.7026  2.1955 -1.1211
  341MOL0     H44997  -0.075   3.276   4.427 -0.1696  0.3040 -1.4436
  341MOL0     H44998   1.867   3.250   4.681  0.1642 -1.0019 -1.2560
  341MOL0     H44999   2.082   3.310   4.692 -0.0651 -0.2146 -0.3884
  341MOL0     H45000   2.447   3.074   4.740  2.3068 -0.2388 -2.5501
  341MOL0     H45001   2.659   2.981   4.705  1.4723  0.2916 -0.1330
  341MOL0     H45002   2.873   2.937   4.687 -3.0986 -1.4319 -0.5487
  341MOL0     H45003   2.805   2.814   4.791  1.0395 -0.5950  0.6841
  341MOL0     H45004   3.032   2.805   4.916  2.4917  2.4106 -0.1475
  341MOL0     H45005   3.022   2.746   4.739  2.8416  0.8465 -0.8888
  341MOL0     H45006   3.153   3.004   4.829 -0.9725  0.2303  1.2729
  341MOL0     H45007   3.130   2.945   4.669  2.6276 -0.4422  0.7453
  341MOL0     H45008   3.304   2.866   4.904  2.8102 -0.4823 -0.1019
  341MOL0     H45009   3.249   2.728   4.809 -1.3413 -0.3862  2.4584
  341MOL0     H45010   3.523   2.933   4.532 -2.3756  4.1278 -2.1387
  341MOL0     H45011   2.777   3.125   5.090 -2.6509 -1.2583  2.7296
  341MOL0     H45012   2.567   3.213   5.133 -3.3730 -1.3123  1.0015
  342MOL0     O45013   5.120   0.914  10.841 -0.9079 -0.2608  0.1708
  342MOL0     C45014   5.144   0.884  10.958  0.0088 -0.4529  0.4179
  342MOL0     O45015   5.053   0.901  11.061 -0.6515 -0.2343  0.3520
  342MOL0     C45016   4.940   0.974  11.045 -0.7990  0.2771 -0.4903
  342MOL0     C45017   4.816   0.917  11.067 -0.5980  0.9338  0.0257
  342MOL0     C45018   4.703   0.991  11.071 -0.1999 -0.6121 -0.5470
  342MOL0     C45019   4.712   1.133  11.045  0.0787  0.3873  0.7330
  342MOL0     O45020   4.607   1.217  11.026 -0.0188 -0.4590 -0.7560
  342MOL0     C45021   4.474   1.157  11.050 -0.7140 -0.7501  0.1254
  342MOL0     C45022   4.360   1.271  11.039  0.4307  0.9499  0.2135
  342MOL0     C45023   4.228   1.202  11.085 -0.0133  0.2643 -0.3097
  342MOL0     C45024   4.116   1.308  11.111  0.9561 -0.1110  0.2635
  342MOL0     C45025   3.988   1.267  11.186 -1.4005  0.2213 -0.0016
  342MOL0     C45026   3.875   1.372  11.189  0.5516 -0.8158  0.2366
  342MOL0     C45027   3.769   1.343  11.304 -0.2002  0.1381  0.8006
  342MOL0     C45028   3.624   1.395  11.276  0.6936 -0.3445 -1.1147
  342MOL0     N45029   3.550   1.413  11.409 -0.3411 -0.3728 -0.4224
  342MOL0     C45030   3.471   1.522  11.448 -0.0765  0.0282  0.6475
  342MOL0     C45031   3.432   1.493  11.577  0.2533  0.2503  0.4082
  342MOL0     C45032   3.340   1.582  11.657  0.2204  0.4196 -0.1098
  342MOL0     C45033   3.438   1.641  11.762  0.2102 -0.2088  0.0596
  342MOL0     C45034   3.371   1.720  11.877 -0.2370  0.1281  0.8150
  342MOL0     C45035   3.253   1.803  11.845  0.5997 -0.0290  0.3976
  342MOL0     O45036   3.209   1.850  11.970 -0.9881 -0.5088  0.4178
  342MOL0     C45037   3.101   1.935  11.963 -0.2468 -0.0384  0.7498
  342MOL0     C45038   3.036   1.976  12.079  1.5773 -0.7076  0.5101
  342MOL0     C45039   2.919   2.053  12.070  0.4954  0.1719  0.1343
  342MOL0     C45040   2.863   2.085  11.950 -0.0826 -0.1455  0.1232
  342MOL0     C45041   2.727   2.142  11.954 -0.3233  1.4342  0.4783
  342MOL0     O45042   2.680   2.165  11.828  0.6164  0.1134 -0.2191
  342MOL0     C45043   2.588   2.261  11.820  0.3680  0.2197  0.2617
  342MOL0     C45044   2.618   2.365  11.730 -0.6639  0.2026  0.0165
  342MOL0     C45045   2.537   2.477  11.713  0.0917 -0.5038  0.0435
  342MOL0     C45046   2.418   2.490  11.789  1.5080  0.4789  0.7179
  342MOL0     O45047   2.340   2.601  11.785 -0.1824 -0.0375  0.5909
  342MOL0     C45048   2.260   2.656  11.898 -1.1331 -0.7333 -0.0584
  342MOL0     C45049   2.334   2.760  11.988  0.4097 -0.6439 -0.0291
  342MOL0     C45050   2.245   2.801  12.100 -0.0801 -0.0145 -0.7793
  342MOL0     C45051   2.322   2.838  12.227 -0.4090 -0.2208 -0.0116
  342MOL0     C45052   2.218   2.876  12.341 -1.1497 -0.0219  1.5829
  342MOL0     C45053   2.288   2.861  12.472  0.3263  0.1396 -0.6410
  342MOL0     C45054   2.184   2.894  12.584 -1.2036  0.2633  0.4484
  342MOL0     C45055   2.237   2.883  12.729 -0.7964 -0.4127  0.3109
  342MOL0    Cl45056   2.150   3.003  12.829  0.1029  0.2026 -0.3260
  342MOL0     C45057   2.380   2.374  11.868  0.1309  0.0597  0.2110
  342MOL0     C45058   2.457   2.258  11.867 -0.5095  0.1074  0.1565
  342MOL0     O45059   2.664   2.142  12.064 -0.3243 -0.4285  0.4259
  342MOL0     C45060   2.925   2.053  11.834 -0.5179 -0.2305 -0.1365
  342MOL0     C45061   3.044   1.981  11.844  0.4445  0.0175  0.0176
  342MOL0     N45062   3.495   1.374  11.613  0.2099 -0.2133  0.0069
  342MOL0     N45063   3.561   1.331  11.515 -0.6136  0.7446  0.8809
  342MOL0     C45064   4.835   1.188  11.014  0.7858 -0.7208 -0.0289
  342MOL0     C45065   4.953   1.111  11.014  0.1479  0.2158  0.1921
  342MOL0     C45066   5.262   0.808  10.998 -0.0105  0.8326  0.8806
  342MOL0     C45067   5.297   0.781  11.129  0.4877 -0.5810 -1.2365
  342MOL0     C45068   5.422   0.713  11.156  0.5031  0.0039 -0.1558
  342MOL0     C45069   5.504   0.672  11.048  0.7062 -0.2283  0.4431
  342MOL0     O45070   5.612   0.589  11.059 -0.5100  0.0953  0.8000
  342MOL0     C45071   5.638   0.545  11.187  0.1056 -0.0837 -0.4526
  342MOL0     C45072   5.754   0.443  11.170  0.2617 -0.5903  0.0895
  342MOL0     C45073   5.803   0.396  11.312  1.2365 -0.7549 -0.6350
  342MOL0     C45074   5.918   0.298  11.303  0.0118  0.0923 -0.0844
  342MOL0     C45075   5.942   0.247  11.436 -1.4656 -1.0093 -1.2149
  342MOL0     C45076   5.968   0.206  11.552 -0.0079  0.0715 -0.0071
  342MOL0     C45077   5.464   0.699  10.917 -0.0038 -0.0099  0.0014
  342MOL0     C45078   5.345   0.758  10.890  0.1231  0.2902 -0.1806
  342MOL0     H45079   4.792   0.812  11.081  0.3615 -0.0944 -4.4818
  342MOL0     H45080   4.618   0.934  11.107 -0.3520  1.4815  2.9213
  342MOL0     H45081   4.475   1.107  11.148  0.7140  1.3522  1.2606
  342MOL0     H45082   4.445   1.085  10.973  0.5148 -1.3774  0.2362
  342MOL0     H45083   4.355   1.303  10.934  1.8130 -0.8816 -0.4753
  342MOL0     H45084   4.384   1.363  11.093  0.5408  0.8736  0.2943
  342MOL0     H45085   4.248   1.154  11.181  0.9262  1.5990  0.1887
  342MOL0     H45086   4.188   1.138  11.006  2.5317 -1.1278 -0.5667
  342MOL0     H45087   4.167   1.389  11.163 -1.6958  1.0254  1.3146
  342MOL0     H45088   4.097   1.340  11.008 -1.4565  0.5421  0.8419
  342MOL0     H45089   4.016   1.236  11.286 -3.5756  0.6349  0.8004
  342MOL0     H45090   3.950   1.182  11.129  1.0191  0.7032 -2.5735
  342MOL0     H45091   3.839   1.375  11.086  2.8824  0.1129 -0.6077
  342MOL0     H45092   3.910   1.474  11.210  0.8933  0.1888 -4.2631
  342MOL0     H45093   3.758   1.234  11.298 -1.0747  0.2731 -0.2509
  342MOL0     H45094   3.811   1.381  11.398  4.4297  0.8029 -1.2642
  342MOL0     H45095   3.581   1.321  11.207  0.3512 -0.3168 -0.9350
  342MOL0     H45096   3.625   1.495  11.230  0.0739 -0.1425 -0.7051
  342MOL0     H45097   3.451   1.609  11.387  0.3374 -1.9627 -2.5645
  342MOL0     H45098   3.259   1.521  11.699 -2.1563 -0.1227 -4.8130
  342MOL0     H45099   3.291   1.660  11.599 -3.4272 -0.6016  1.3187
  342MOL0     H45100   3.508   1.711  11.714 -0.8825  1.0986  0.3488
  342MOL0     H45101   3.508   1.567  11.802  1.3615  0.4175 -0.7322
  342MOL0     H45102   3.354   1.645  11.955  2.1767 -1.5775 -0.1599
  342MOL0     H45103   3.449   1.788  11.912 -0.0982  0.4263 -0.0437
  342MOL0     H45104   3.167   1.748  11.805  1.3059  1.0638 -2.9411
  342MOL0     H45105   3.286   1.885  11.781  1.1810 -1.2260 -0.8901
  342MOL0     H45106   3.061   1.954  12.183  1.3586  3.4843  1.6325
  342MOL0     H45107   2.854   2.056  12.157 -0.4703 -1.2072 -0.5062
  342MOL0     H45108   2.709   2.363  11.673 -0.0958 -0.9920  0.9180
  342MOL0     H45109   2.565   2.555  11.644  3.2017 -1.2932  0.2836
  342MOL0     H45110   2.218   2.566  11.944 -2.1698 -1.5144 -2.3661
  342MOL0     H45111   2.174   2.708  11.854 -0.1602  0.1395 -1.0065
  342MOL0     H45112   2.360   2.846  11.926  0.8494 -0.2890  0.6375
  342MOL0     H45113   2.427   2.709  12.016 -0.9812 -3.7388 -0.6215
  342MOL0     H45114   2.173   2.721  12.121  0.5839 -0.3950  0.1171
  342MOL0     H45115   2.181   2.884  12.068 -3.5146 -1.8905  0.6656
  342MOL0     H45116   2.384   2.753  12.259  0.4597  0.4005 -0.0054
  342MOL0     H45117   2.393   2.917  12.200 -3.5096  2.1819 -1.7695
  342MOL0     H45118   2.127   2.816  12.341 -0.3015 -1.3473  1.1613
  342MOL0     H45119   2.181   2.977  12.322 -1.3649  0.3810  3.8268
  342MOL0     H45120   2.375   2.928  12.468  1.1899 -0.8406  0.7176
  342MOL0     H45121   2.326   2.761  12.492 -0.8955 -0.4128 -1.0450
  342MOL0     H45122   2.142   2.993  12.568  0.6132  1.3827  2.1169
  342MOL0     H45123   2.095   2.832  12.574 -0.2982 -1.0578  0.2673
  342MOL0     H45124   2.343   2.909  12.718 -1.2333  0.3792 -3.9033
  342MOL0     H45125   2.238   2.784  12.775  2.5197 -2.2908 -3.2287
  342MOL0     H45126   2.279   2.366  11.908 -0.8982 -2.2897 -2.4243
  342MOL0     H45127   2.429   2.167  11.919  0.5110 -1.1307 -1.3531
  342MOL0     H45128   2.892   2.084  11.736 -0.0513  2.3729  0.4557
  342MOL0     H45129   3.089   1.956  11.748 -1.6678  1.7673 -1.5510
  342MOL0     H45130   4.840   1.295  10.999  1.9828 -0.8918 -0.8817
  342MOL0     H45131   5.045   1.165  10.993  1.4083 -2.2572 -1.1579
  342MOL0     H45132   5.225   0.819  11.201 -0.9361 -0.0521 -2.8973
  342MOL0     H45133   5.446   0.681  11.257  4.0401  1.8175 -0.2628
  342MOL0     H45134   5.554   0.484  11.220 -0.0273 -2.5241 -4.5442
  342MOL0     H45135   5.668   0.620  11.260  1.8564  1.9473 -3.0413
  342MOL0     H45136   5.723   0.356  11.112 -1.4452 -1.6014  2.3871
  342MOL0     H45137   5.829   0.499  11.113  1.5123 -3.9697 -1.9108
  342MOL0     H45138   5.715   0.341  11.348 -0.6639  2.6938  0.4883
  342MOL0     H45139   5.815   0.469  11.392 -1.5633 -0.8096 -0.0413
  342MOL0     H45140   5.884   0.207  11.254  1.9260 -0.1928 -0.9565
  342MOL0     H45141   6.013   0.337  11.265 -1.1412 -0.6080 -4.0615
  342MOL0     H45142   6.022   0.174  11.639  1.7775 -0.6667 -1.3273
  342MOL0     H45143   5.527   0.661  10.837 -0.9520  1.9253 -1.7767
  342MOL0     H45144   5.318   0.764  10.785  1.0235  0.4988 -0.4130
  343MOL0     O45145   3.919   6.122   0.355 -0.0363  0.4406  0.7845
  343MOL0     C45146   4.013   6.127   0.282  0.2535 -0.0598  0.0792
  343MOL0     O45147   4.013   6.109   0.150 -0.0680  0.9381  0.6202
  343MOL0     C45148   3.897   6.065   0.085 -0.3787  0.1443  0.0548
  343MOL0     C45149   3.772   6.131   0.115  1.0330 -0.2204  0.1794
  343MOL0     C45150   3.662   6.100   0.033 -0.3018 -0.5847 -0.7875
  343MOL0     C45151   3.679   6.012  -0.067  0.8220 -0.4859  1.0718
  343MOL0     O45152   3.571   5.987  -0.145  0.0130  0.1183  0.0857
  343MOL0     C45153   3.565   5.864  -0.217  0.6527 -0.8574  0.4367
  343MOL0     C45154   3.421   5.821  -0.244 -0.3008 -0.7835  0.6767
  343MOL0     C45155   3.414   5.699  -0.340 -0.1532 -0.1436  0.0418
  343MOL0     C45156   3.271   5.661  -0.395  0.1014  0.3085  0.1536
  343MOL0     C45157   3.287   5.520  -0.476 -0.3443 -0.1556 -0.7239
  343MOL0     C45158   3.152   5.488  -0.536 -0.9603 -0.3827 -0.7069
  343MOL0     C45159   3.081   5.397  -0.429 -0.2184  0.0235 -0.4905
  343MOL0     C45160   2.927   5.376  -0.452 -0.4538 -1.0823  0.3493
  343MOL0     N45161   2.858   5.346  -0.326  0.4076 -0.1788 -0.2684
  343MOL0     C45162   2.844   5.217  -0.281  0.2472 -0.0214  0.1733
  343MOL0     C45163   2.783   5.235  -0.152  0.0031  0.0066  0.9275
  343MOL0     C45164   2.735   5.126  -0.059 -0.3156  0.6844 -0.4613
  343MOL0     C45165   2.586   5.101  -0.081  0.9062 -0.0338 -0.2541
  343MOL0     C45166   2.531   5.001   0.017 -0.6387 -0.0081 -0.2982
  343MOL0     C45167   2.383   5.026   0.041 -0.0194 -0.3837 -1.0305
  343MOL0     O45168   2.326   4.909   0.099  0.0809  0.7959  0.0733
  343MOL0     C45169   2.204   4.922   0.159 -0.3083 -0.0077 -0.7477
  343MOL0     C45170   2.115   5.022   0.123 -0.2193  0.4132 -0.0932
  343MOL0     C45171   1.998   5.033   0.203 -0.0437 -0.3532  0.6100
  343MOL0     C45172   1.968   4.944   0.309  0.9972 -0.8000  0.8765
  343MOL0     C45173   1.834   4.962   0.377 -0.9456  1.2672  0.7127
  343MOL0     O45174   1.805   4.859   0.470  0.1156  0.3776 -0.3640
  343MOL0     C45175   1.690   4.881   0.543 -0.4372 -0.3258 -0.9208
  343MOL0     C45176   1.692   4.990   0.631  0.6036 -0.0067  0.2946
  343MOL0     C45177   1.566   5.030   0.683 -0.6181  0.1997 -0.1070
  343MOL0     C45178   1.454   4.944   0.676  1.4042  1.1293 -0.1458
  343MOL0     O45179   1.344   4.996   0.742 -0.1867 -0.0604  0.1233
  343MOL0     C45180   1.254   4.903   0.822 -0.7086  0.6382 -0.2995
  343MOL0     C45181   1.164   4.991   0.901 -0.3174 -0.2677 -0.3830
  343MOL0     C45182   1.118   4.934   1.033  0.2845  0.2243  1.1029
  343MOL0     C45183   1.004   4.842   1.009 -0.3614 -0.5391 -0.0666
  343MOL0     C45184   0.965   4.780   1.143 -0.1661  0.4426 -0.0931
  343MOL0     C45185   0.896   4.876   1.242 -0.6468 -0.6771  0.2311
  343MOL0     C45186   0.796   4.803   1.324  0.5286  0.1846  0.5544
  343MOL0     C45187   0.748   4.905   1.431  0.2900 -0.2591 -0.7281
  343MOL0    Cl45188   0.889   4.926   1.540 -0.1703  0.2210 -0.2533
  343MOL0     C45189   1.457   4.828   0.596  0.0096 -0.2591  0.6392
  343MOL0     C45190   1.578   4.798   0.530 -0.3944 -0.3103 -0.3541
  343MOL0     O45191   1.776   5.069   0.370  0.1879 -0.2486 -0.4220
  343MOL0     C45192   2.058   4.847   0.337 -0.5394 -0.6611 -0.5572
  343MOL0     C45193   2.178   4.838   0.262 -0.4809 -0.8287  0.5529
  343MOL0     N45194   2.782   5.370  -0.116  0.9663  0.4119 -0.3880
  343MOL0     N45195   2.825   5.436  -0.225 -0.7554  0.2477 -0.7012
  343MOL0     C45196   3.792   5.946  -0.093 -0.3203  0.8777 -0.1507
  343MOL0     C45197   3.906   5.971  -0.012  0.6370  0.3527  0.4929
  343MOL0     C45198   4.145   6.172   0.341 -0.5228  0.0645 -0.4236
  343MOL0     C45199   4.259   6.208   0.268 -0.6995 -0.4440 -0.5939
  343MOL0     C45200   4.369   6.254   0.331 -0.8644  1.0961  0.3347
  343MOL0     C45201   4.384   6.244   0.467  0.1467 -0.0592 -1.0749
  343MOL0     O45202   4.503   6.271   0.517  0.2719 -0.4905  0.3443
  343MOL0     C45203   4.551   6.173   0.608  0.8935  0.2201  0.4873
  343MOL0     C45204   4.696   6.151   0.608 -1.2104 -0.0472  0.1935
  343MOL0     C45205   4.753   6.073   0.502 -0.6309 -0.3662 -0.1115
  343MOL0     C45206   4.902   6.056   0.516 -0.9588 -0.2075  0.1785
  343MOL0     C45207   4.986   6.173   0.494  0.1693 -0.1448 -0.0775
  343MOL0     C45208   5.053   6.270   0.480 -0.2045 -0.4620  0.0697
  343MOL0     C45209   4.271   6.211   0.548 -0.7835 -0.3733 -0.7350
  343MOL0     C45210   4.156   6.180   0.484  0.8183  0.1964 -0.1470
  343MOL0     H45211   3.772   6.209   0.191  0.8486  4.1869 -3.8802
  343MOL0     H45212   3.564   6.138   0.059  0.7063  0.3458  2.1298
  343MOL0     H45213   3.609   5.779  -0.164  0.4887  0.5316  3.0054
  343MOL0     H45214   3.614   5.867  -0.315  0.5861  1.9228  0.4086
  343MOL0     H45215   3.365   5.901  -0.292  0.8961 -0.0673  0.4265
  343MOL0     H45216   3.378   5.801  -0.145 -0.7650  1.4971  0.9765
  343MOL0     H45217   3.461   5.608  -0.301  0.5919 -0.2352 -1.0042
  343MOL0     H45218   3.479   5.717  -0.426 -0.9417 -3.3834 -1.3972
  343MOL0     H45219   3.204   5.640  -0.311  0.6101  0.2557  0.5533
  343MOL0     H45220   3.226   5.748  -0.443 -0.0728  0.2085  0.1371
  343MOL0     H45221   3.325   5.440  -0.412 -1.0799 -1.4911 -1.8929
  343MOL0     H45222   3.357   5.526  -0.560 -0.9945  1.7066 -1.1781
  343MOL0     H45223   3.177   5.432  -0.626  0.6426  0.3911 -0.7709
  343MOL0     H45224   3.094   5.574  -0.571 -2.4982 -1.5551 -1.2012
  343MOL0     H45225   3.130   5.300  -0.415  0.6150  0.7595  2.5551
  343MOL0     H45226   3.094   5.437  -0.328 -0.0117 -0.3651 -0.3588
  343MOL0     H45227   2.914   5.309  -0.538 -0.5563 -1.2789  0.5187
  343MOL0     H45228   2.880   5.467  -0.488  1.4767  0.0508  0.5337
  343MOL0     H45229   2.877   5.135  -0.344 -1.4919 -0.5461 -0.1008
  343MOL0     H45230   2.756   5.158   0.044 -1.8799  0.2213  0.0325
  343MOL0     H45231   2.784   5.029  -0.075 -5.4735 -2.8169  1.9275
  343MOL0     H45232   2.563   5.064  -0.181 -1.0251 -0.9002  0.4589
  343MOL0     H45233   2.536   5.198  -0.083 -2.9999 -1.8546 -2.6629
  343MOL0     H45234   2.555   4.901  -0.019  1.6414 -1.0404  3.5449
  343MOL0     H45235   2.578   5.008   0.115  2.6609 -1.5818 -1.6186
  343MOL0     H45236   2.341   5.039  -0.059  2.1219 -1.0348 -2.0882
  343MOL0     H45237   2.370   5.115   0.103  1.1838 -1.9031  1.6122
  343MOL0     H45238   2.137   5.095   0.045 -3.0972  2.1261  0.5403
  343MOL0     H45239   1.932   5.115   0.179  1.8219  1.0652  0.1114
  343MOL0     H45240   1.780   5.052   0.640  2.6472 -2.7063  0.3748
  343MOL0     H45241   1.559   5.119   0.745 -1.9565  0.4403 -0.5718
  343MOL0     H45242   1.302   4.826   0.883 -2.2600  0.3491  0.6131
  343MOL0     H45243   1.192   4.844   0.754 -2.0568  0.0908  1.3231
  343MOL0     H45244   1.078   5.034   0.849 -0.5062  2.1665  1.7351
  343MOL0     H45245   1.226   5.076   0.932 -0.7496  1.7944 -4.4875
  343MOL0     H45246   1.073   5.021   1.082 -3.4836  0.6959 -2.5608
  343MOL0     H45247   1.203   4.889   1.085  1.9404  3.6738  1.7298
  343MOL0     H45248   0.922   4.903   0.970  1.0529  1.0007 -0.7365
  343MOL0     H45249   1.016   4.761   0.935  0.2255  1.1400 -1.8880
  343MOL0     H45250   1.057   4.735   1.184 -1.8439 -1.2342  2.0742
  343MOL0     H45251   0.886   4.706   1.129  2.3983 -2.5628 -0.0149
  343MOL0     H45252   0.847   4.955   1.184  1.1467 -1.5819 -2.7500
  343MOL0     H45253   0.976   4.927   1.297  0.1052 -0.8435 -0.6709
  343MOL0     H45254   0.718   4.760   1.261 -0.8922 -3.0848  4.0778
  343MOL0     H45255   0.857   4.724   1.369 -1.3806 -1.5673  0.1987
  343MOL0     H45256   0.654   4.883   1.482 -0.2815  1.4638 -0.9435
  343MOL0     H45257   0.728   4.997   1.374 -0.8915  0.9197  1.4757
  343MOL0     H45258   1.368   4.768   0.580 -1.3112  1.3833  1.4395
  343MOL0     H45259   1.578   4.704   0.476 -0.4530 -0.9930  0.7896
  343MOL0     H45260   2.042   4.782   0.422 -3.2849 -2.0600 -2.0229
  343MOL0     H45261   2.254   4.767   0.294  0.7657 -0.4537 -1.3659
  343MOL0     H45262   3.799   5.887  -0.184  3.1209  1.3568 -0.3152
  343MOL0     H45263   3.985   5.904  -0.044 -2.8389 -2.5212 -2.9188
  343MOL0     H45264   4.253   6.206   0.159  0.3731 -1.1830 -0.6561
  343MOL0     H45265   4.457   6.284   0.275 -1.9099  1.4066 -1.2155
  343MOL0     H45266   4.501   6.079   0.584  0.6065 -0.1420  2.3669
  343MOL0     H45267   4.514   6.201   0.707 -0.9756  0.3283 -0.1983
  343MOL0     H45268   4.747   6.248   0.606  1.6064 -1.4417 -1.7456
  343MOL0     H45269   4.715   6.100   0.703 -0.4869 -1.7257 -0.8121
  343MOL0     H45270   4.742   6.120   0.404  3.7233 -0.6006 -0.9056
  343MOL0     H45271   4.716   5.970   0.493  1.7975 -1.1694 -1.7813
  343MOL0     H45272   4.926   6.013   0.614  0.5015 -1.1300 -0.5436
  343MOL0     H45273   4.935   5.978   0.447 -0.2563  0.0614  0.2053
  343MOL0     H45274   5.133   6.340   0.474 -0.2622 -0.3650  0.3804
  343MOL0     H45275   4.258   6.209   0.655  0.9657  2.7385 -0.3341
  343MOL0     H45276   4.074   6.155   0.550 -0.0107  0.0851 -1.2056
  344MOL0     O45277   9.667   2.106   3.588  0.0894 -0.3901  0.2631
  344MOL0     C45278   9.768   2.182   3.586 -0.6118  0.7670 -0.0917
  344MOL0     O45279   9.808   2.268   3.692 -0.3127 -0.3983  0.0262
  344MOL0     C45280   9.748   2.263   3.816  0.2045 -0.1337 -0.2921
  344MOL0     C45281   9.609   2.266   3.835 -0.5455 -0.0002  0.5278
  344MOL0     C45282   9.550   2.299   3.962 -1.0837  0.3481  0.1138
  344MOL0     C45283   9.629   2.301   4.081 -0.6317 -0.5522  0.7181
  344MOL0     O45284   9.560   2.344   4.190  0.0745 -0.2383 -0.6391
  344MOL0     C45285   9.617   2.317   4.318  0.5755 -0.1296  0.6385
  344MOL0     C45286   9.500   2.300   4.414  0.4002 -0.8132 -0.2153
  344MOL0     C45287   9.443   2.435   4.469  0.3323  1.0520  0.3347
  344MOL0     C45288   9.386   2.429   4.612  0.3721 -0.8865  0.7666
  344MOL0     C45289   9.273   2.329   4.614 -0.2683 -0.4418 -0.4392
  344MOL0     C45290   9.195   2.347   4.745  0.3440  0.9881  0.4821
  344MOL0     C45291   9.089   2.242   4.760 -0.9528 -0.1662  0.1425
  344MOL0     C45292   8.973   2.264   4.667 -0.6145 -0.8142 -1.1680
  344MOL0     N45293   8.842   2.235   4.733 -0.5055  0.2357 -0.4183
  344MOL0     C45294   8.812   2.133   4.819 -2.0284  0.2626 -0.4824
  344MOL0     C45295   8.677   2.145   4.838 -0.1000 -0.3769  0.1298
  344MOL0     C45296   8.587   2.056   4.931 -0.3328  0.4367 -0.0096
  344MOL0     C45297   8.438   2.081   4.910 -0.2737 -0.8599 -0.0140
  344MOL0     C45298   8.395   1.998   4.786  0.0189  0.5688  0.1982
  344MOL0     C45299   8.244   2.015   4.764  0.0666 -0.0250 -0.3342
  344MOL0     O45300   8.186   1.920   4.674 -0.9288 -0.3450 -0.0876
  344MOL0     C45301   8.047   1.921   4.670 -0.2872 -0.3642  0.0313
  344MOL0     C45302   8.000   1.825   4.593  0.5070  1.3365  0.4191
  344MOL0     C45303   7.865   1.818   4.556  0.6777 -0.7425  0.3298
  344MOL0     C45304   7.773   1.917   4.601 -0.3209 -0.3577 -0.0023
  344MOL0     C45305   7.634   1.901   4.569  0.8781  0.2138  0.6988
  344MOL0     O45306   7.556   2.002   4.625 -0.1892 -0.3468  0.2414
  344MOL0     C45307   7.429   2.002   4.580  0.0169 -0.3435 -0.2628
  344MOL0     C45308   7.377   2.105   4.498  0.6750  0.4489 -1.1521
  344MOL0     C45309   7.240   2.123   4.499  0.7368 -0.1932 -0.0426
  344MOL0     C45310   7.148   2.036   4.554 -0.0584  1.1291 -0.0480
  344MOL0     O45311   7.008   2.054   4.526 -0.1390 -0.4746 -0.7581
  344MOL0     C45312   6.907   2.015   4.617 -0.6293  0.3758 -0.2133
  344MOL0     C45313   6.779   2.063   4.573  0.5499 -1.0245 -0.5551
  344MOL0     C45314   6.736   2.031   4.432 -0.1398 -0.3212 -0.0355
  344MOL0     C45315   6.599   2.097   4.400 -0.2613  0.2012  0.1640
  344MOL0     C45316   6.542   2.055   4.268  1.4202 -0.1013 -0.3054
  344MOL0     C45317   6.400   2.103   4.228 -0.0166  0.7117  0.3093
  344MOL0     C45318   6.285   2.011   4.222 -0.0922  1.1278  0.5619
  344MOL0     C45319   6.254   1.958   4.355 -0.1219  0.4808  0.1645
  344MOL0    Cl45320   6.181   2.097   4.450  0.3241  0.4444  0.1442
  344MOL0     C45321   7.198   1.923   4.625 -0.0763 -0.5858  0.0879
  344MOL0     C45322   7.339   1.911   4.635  0.4683 -0.6352 -0.4460
  344MOL0     O45323   7.591   1.806   4.495 -0.4384  0.0426 -0.3046
  344MOL0     C45324   7.821   2.013   4.690  0.1118 -0.1314  0.0441
  344MOL0     C45325   7.954   2.012   4.724  0.0269  1.2057 -1.3271
  344MOL0     N45326   8.631   2.265   4.776 -0.1730 -0.3508 -0.4484
  344MOL0     N45327   8.730   2.308   4.707 -0.5986 -0.0925 -0.6293
  344MOL0     C45328   9.769   2.277   4.065 -0.0189 -0.2079 -0.0928
  344MOL0     C45329   9.826   2.275   3.928 -0.1993  0.7607 -0.5007
  344MOL0     C45330   9.843   2.215   3.460  0.3370 -0.4725  0.9775
  344MOL0     C45331   9.929   2.322   3.448 -0.1755 -0.0869 -0.6596
  344MOL0     C45332  10.000   2.344   3.331 -0.2203  0.1604 -0.9053
  344MOL0     C45333   9.981   2.272   3.217 -0.3762 -0.1879  0.7336
  344MOL0     O45334  10.055   2.313   3.107 -0.2294 -0.7742  0.2013
  344MOL0     C45335  10.036   2.240   2.986 -0.0603  0.2793 -0.0074
  344MOL0     C45336  10.054   2.338   2.869 -0.6269  0.3991  0.0749
  344MOL0     C45337  10.035   2.262   2.743 -0.3664  0.3062  0.0403
  344MOL0     C45338  10.054   2.354   2.623 -0.2832 -0.0391  0.5130
  344MOL0     C45339  10.003   2.285   2.503 -0.2376  0.0740  0.5422
  344MOL0     C45340   9.961   2.258   2.394  0.1541 -0.4261 -0.1076
  344MOL0     C45341   9.904   2.155   3.226 -0.8369 -0.3904  0.1959
  344MOL0     C45342   9.824   2.132   3.344 -0.3220  0.4829  0.4274
  344MOL0     H45343   9.549   2.260   3.745 -0.3777 -2.3751  0.4921
  344MOL0     H45344   9.442   2.309   3.966 -1.2369  0.6499 -2.6778
  344MOL0     H45345   9.680   2.404   4.340 -0.5250  0.1229  3.2602
  344MOL0     H45346   9.670   2.222   4.305 -2.0264 -1.4130 -1.4274
  344MOL0     H45347   9.530   2.248   4.505 -0.6891  0.3514  0.8529
  344MOL0     H45348   9.427   2.235   4.363 -0.3009 -1.9539  2.0982
  344MOL0     H45349   9.370   2.471   4.397  0.3536  0.9389  0.2557
  344MOL0     H45350   9.526   2.507   4.464  2.4127 -1.2402 -0.2268
  344MOL0     H45351   9.465   2.412   4.685 -0.3309 -3.1674  1.0886
  344MOL0     H45352   9.342   2.526   4.636  0.2389 -1.4188  2.9174
  344MOL0     H45353   9.303   2.224   4.600 -2.8835 -0.9388 -3.6600
  344MOL0     H45354   9.205   2.364   4.535 -1.1773  0.1091  0.5562
  344MOL0     H45355   9.144   2.444   4.745  1.2215  1.4504  0.6795
  344MOL0     H45356   9.269   2.336   4.825  0.5522 -0.7653  0.1051
  344MOL0     H45357   9.132   2.144   4.738  0.4947  0.5641 -0.4068
  344MOL0     H45358   9.052   2.246   4.863 -0.8564 -1.1573  0.2217
  344MOL0     H45359   8.995   2.195   4.585 -1.5862 -2.3737 -0.1652
  344MOL0     H45360   8.951   2.364   4.628 -2.9389  0.5300  2.9744
  344MOL0     H45361   8.881   2.060   4.859 -0.8467  1.5129 -0.1839
  344MOL0     H45362   8.615   2.078   5.035  2.7477  0.9371 -0.8537
  344MOL0     H45363   8.616   1.952   4.912  1.3508  0.9736 -0.4919
  344MOL0     H45364   8.424   2.188   4.896  1.1402 -0.4476  1.3680
  344MOL0     H45365   8.390   2.039   4.999 -0.2667 -1.4679 -0.2905
  344MOL0     H45366   8.457   2.018   4.699  3.0760 -2.0667  1.5281
  344MOL0     H45367   8.410   1.895   4.823  1.4495 -0.3462 -2.6409
  344MOL0     H45368   8.227   2.116   4.726  1.9053  0.7678  0.8033
  344MOL0     H45369   8.213   2.004   4.868 -1.2898  2.9901 -0.3161
  344MOL0     H45370   8.066   1.752   4.547 -2.7631 -1.6356  0.0644
  344MOL0     H45371   7.833   1.746   4.482  2.0483 -0.4460 -0.5807
  344MOL0     H45372   7.451   2.174   4.459  0.6995  1.0357 -0.1198
  344MOL0     H45373   7.205   2.216   4.456  0.4875 -0.8056 -1.2102
  344MOL0     H45374   6.934   2.056   4.715 -3.6676 -0.1881  0.9624
  344MOL0     H45375   6.908   1.906   4.626 -0.3377  0.3518 -0.4920
  344MOL0     H45376   6.781   2.172   4.581  2.2775 -1.1203  0.8898
  344MOL0     H45377   6.705   2.032   4.647  2.9329 -0.8751  2.0689
  344MOL0     H45378   6.737   1.923   4.418  6.0132 -0.2785 -3.6017
  344MOL0     H45379   6.808   2.061   4.355 -0.9258  1.1562 -0.2375
  344MOL0     H45380   6.525   2.066   4.474 -1.3167 -0.7335 -1.2230
  344MOL0     H45381   6.616   2.205   4.388  4.1340  0.1114  3.1428
  344MOL0     H45382   6.532   1.946   4.273 -1.4658  0.0579 -0.8382
  344MOL0     H45383   6.614   2.076   4.189  0.6675  0.1531 -0.9292
  344MOL0     H45384   6.405   2.157   4.133  2.6461  0.8840  0.4833
  344MOL0     H45385   6.374   2.186   4.294 -1.8445 -0.1161  0.6946
  344MOL0     H45386   6.196   2.061   4.183 -1.0031 -0.8526 -0.0073
  344MOL0     H45387   6.305   1.938   4.142  1.6056  3.1725 -1.0180
  344MOL0     H45388   6.344   1.912   4.397 -1.4668 -3.9707 -1.1833
  344MOL0     H45389   6.180   1.877   4.360  0.6811 -0.4485 -1.8351
  344MOL0     H45390   7.142   1.857   4.690 -0.9166  1.4409  1.5033
  344MOL0     H45391   7.367   1.828   4.699 -0.4620 -0.2008  0.5406
  344MOL0     H45392   7.756   2.075   4.751 -0.8228 -0.1957 -0.8511
  344MOL0     H45393   7.991   2.086   4.795 -0.5361 -0.3333  0.6477
  344MOL0     H45394   9.830   2.302   4.150 -1.8212  3.3767  0.3146
  344MOL0     H45395   9.931   2.294   3.914 -0.1996  1.2022  0.0916
  344MOL0     H45396   9.936   2.398   3.526  0.0706 -3.0555  2.4293
  344MOL0     H45397  10.068   2.429   3.333  0.0127  0.0160  2.4209
  344MOL0     H45398   9.938   2.193   2.968  0.0581  0.2125 -0.5125
  344MOL0     H45399  10.104   2.155   2.982 -1.2790 -0.6892 -0.8155
  344MOL0     H45400   9.990   2.426   2.880 -2.1755 -0.5356 -1.1162
  344MOL0     H45401  10.155   2.379   2.876 -0.0690 -0.3023 -2.8496
  344MOL0     H45402   9.935   2.217   2.741  0.2367 -1.0497 -0.5522
  344MOL0     H45403  10.113   2.186   2.750 -1.5194 -0.9113  0.0288
  344MOL0     H45404   9.995   2.444   2.644 -0.7602 -1.0986  4.3863
  344MOL0     H45405  10.162   2.374   2.615 -0.5110  1.7346  1.2872
  344MOL0     H45406   9.914   2.258   2.297  2.3530  1.1973 -1.2755
  344MOL0     H45407   9.892   2.085   3.144 -0.5619 -0.8602  0.5580
  344MOL0     H45408   9.762   2.044   3.328 -0.1141  0.5042 -0.5807
  345MOL0     O45409   5.830   8.668   6.932 -0.4263  0.0910  0.3513
  345MOL0     C45410   5.911   8.729   6.997  0.4459 -0.0791 -0.0922
  345MOL0     O45411   5.890   8.787   7.125  0.6278 -0.0805  0.2151
  345MOL0     C45412   5.762   8.773   7.184  0.1047  0.1392  1.5614
  345MOL0     C45413   5.664   8.868   7.160 -0.2962  0.7332 -0.9918
  345MOL0     C45414   5.537   8.842   7.213  0.3220 -0.2173 -0.4251
  345MOL0     C45415   5.506   8.732   7.298 -0.3263  0.2832 -0.4323
  345MOL0     O45416   5.379   8.709   7.349  0.1900  0.3557 -0.3266
  345MOL0     C45417   5.274   8.797   7.333 -0.4208  0.1338  0.7089
  345MOL0     C45418   5.169   8.730   7.242 -0.1953 -1.3760 -0.3010
  345MOL0     C45419   5.032   8.695   7.301  0.9718  0.9949  0.4529
  345MOL0     C45420   5.045   8.560   7.374  0.2070 -0.6990  0.5514
  345MOL0     C45421   4.911   8.505   7.428  0.0487  0.1301 -0.2488
  345MOL0     C45422   4.926   8.370   7.491  0.9059  0.4061 -0.1129
  345MOL0     C45423   4.809   8.335   7.578  0.2671  0.9253 -0.8122
  345MOL0     C45424   4.677   8.277   7.508  0.6734  0.3648  1.2791
  345MOL0     N45425   4.599   8.187   7.591  0.0745  0.1946  0.1954
  345MOL0     C45426   4.537   8.236   7.706 -0.1639 -0.3338  0.3842
  345MOL0     C45427   4.460   8.134   7.743  0.1715 -0.1079 -0.0654
  345MOL0     C45428   4.348   8.128   7.841  0.3630 -0.0248 -0.1799
  345MOL0     C45429   4.224   8.174   7.763 -0.0595  0.0677 -0.3466
  345MOL0     C45430   4.098   8.086   7.812  0.3130 -0.5786 -1.3473
  345MOL0     C45431   3.967   8.122   7.736 -0.1680  0.4199  0.4834
  345MOL0     O45432   3.908   8.241   7.795  0.3774 -0.5255  0.0794
  345MOL0     C45433   3.790   8.296   7.740 -1.4762  0.2069 -0.6230
  345MOL0     C45434   3.723   8.243   7.631  0.9410  0.4984  0.5990
  345MOL0     C45435   3.622   8.321   7.573 -0.4037 -0.5185  0.2259
  345MOL0     C45436   3.564   8.430   7.636  0.2253  0.0429 -0.3655
  345MOL0     C45437   3.442   8.500   7.585  0.1764 -1.2681  0.3940
  345MOL0     O45438   3.377   8.432   7.483 -0.2321  0.0913 -0.0381
  345MOL0     C45439   3.260   8.491   7.430  0.4804 -0.9209 -0.0300
  345MOL0     C45440   3.130   8.462   7.490  0.7226 -0.7616  0.0317
  345MOL0     C45441   3.020   8.517   7.417  0.3935  0.0915 -0.7522
  345MOL0     C45442   3.021   8.600   7.311  0.0413 -1.1863  0.3810
  345MOL0     O45443   2.906   8.669   7.269  0.1746  0.1258  0.0589
  345MOL0     C45444   2.927   8.785   7.182 -0.7591  0.2250  0.4495
  345MOL0     C45445   2.792   8.825   7.115 -0.8129  0.2949  0.7463
  345MOL0     C45446   2.665   8.831   7.205 -0.0804  0.3782  0.1035
  345MOL0     C45447   2.542   8.847   7.113 -0.2019  0.1993 -0.0121
  345MOL0     C45448   2.417   8.867   7.193  0.4757  0.4186 -0.1999
  345MOL0     C45449   2.280   8.842   7.118 -0.5212 -0.4060 -0.3235
  345MOL0     C45450   2.252   8.942   7.004 -0.4198  0.5244 -0.7553
  345MOL0     C45451   2.123   8.899   6.936  0.8738 -0.1628 -0.0481
  345MOL0    Cl45452   1.983   8.956   7.029  0.1124 -0.3109  0.1567
  345MOL0     C45453   3.154   8.629   7.267  0.6117 -0.5998  0.2026
  345MOL0     C45454   3.269   8.587   7.328 -0.3340  0.7860 -0.0202
  345MOL0     O45455   3.413   8.610   7.634 -0.0377  0.7029 -0.1428
  345MOL0     C45456   3.635   8.475   7.749  0.6914  0.1548  0.9724
  345MOL0     C45457   3.749   8.417   7.795 -0.2593  0.1310 -0.3543
  345MOL0     N45458   4.468   8.029   7.653 -0.5005 -0.0617 -0.4066
  345MOL0     N45459   4.555   8.064   7.564 -0.3474 -0.1479 -0.0517
  345MOL0     C45460   5.609   8.640   7.318 -1.1000  0.1524 -0.4484
  345MOL0     C45461   5.729   8.657   7.260 -0.1147 -1.1661  0.1392
  345MOL0     C45462   6.037   8.764   6.928  1.3128 -1.0505  0.2861
  345MOL0     C45463   6.071   8.717   6.797  0.1617 -0.2513 -0.4381
  345MOL0     C45464   6.184   8.777   6.728  0.2928 -0.0493 -0.0532
  345MOL0     C45465   6.263   8.871   6.792 -0.0570  0.6088  0.9334
  345MOL0     O45466   6.378   8.920   6.743 -0.5586 -0.3533  0.0093
  345MOL0     C45467   6.460   8.827   6.667 -0.2434 -0.4590  0.2536
  345MOL0     C45468   6.524   8.726   6.764 -0.8704  0.5805  0.3317
  345MOL0     C45469   6.644   8.787   6.843  1.3633  0.7267 -0.0095
  345MOL0     C45470   6.653   8.757   6.989  0.0783 -0.2588 -1.1970
  345MOL0     C45471   6.649   8.612   7.024  0.6155 -0.6754 -0.0511
  345MOL0     C45472   6.644   8.500   7.062  0.7543  0.1063 -0.5148
  345MOL0     C45473   6.223   8.913   6.917 -0.3458  0.5144 -0.1134
  345MOL0     C45474   6.117   8.863   6.986  0.4603  0.8630  0.6964
  345MOL0     H45475   5.676   8.957   7.100 -1.6871  2.4006  1.0418
  345MOL0     H45476   5.464   8.921   7.194  2.8294  2.6372  1.0831
  345MOL0     H45477   5.292   8.898   7.294  0.3855  0.5756  2.1448
  345MOL0     H45478   5.221   8.817   7.427 -2.7543 -2.2246  0.0392
  345MOL0     H45479   5.212   8.645   7.189  2.6347 -0.2718  0.0557
  345MOL0     H45480   5.148   8.800   7.161  2.7522  1.4695  1.1748
  345MOL0     H45481   4.963   8.673   7.219  1.4655 -1.8495  0.6937
  345MOL0     H45482   4.994   8.779   7.360  0.4268  0.8019  0.3785
  345MOL0     H45483   5.094   8.490   7.306 -1.2875 -2.6576  1.3827
  345MOL0     H45484   5.109   8.567   7.462 -1.9529  3.4179  2.0715
  345MOL0     H45485   4.827   8.500   7.359 -0.0219  0.5383 -0.1948
  345MOL0     H45486   4.869   8.574   7.501  3.2934  1.1525  0.8233
  345MOL0     H45487   5.019   8.375   7.550  1.9019 -0.1443 -1.5842
  345MOL0     H45488   4.950   8.298   7.413  0.7392 -1.3062  1.3514
  345MOL0     H45489   4.843   8.263   7.653  0.6450 -1.4908 -3.1657
  345MOL0     H45490   4.781   8.422   7.639 -2.8564  2.6659 -4.3083
  345MOL0     H45491   4.715   8.240   7.412  0.9589  0.4427  1.3604
  345MOL0     H45492   4.615   8.365   7.489 -2.1069 -1.2883  2.1206
  345MOL0     H45493   4.544   8.338   7.740  0.0196 -0.2895  0.2146
  345MOL0     H45494   4.358   8.182   7.936 -2.3747 -1.2653  0.9337
  345MOL0     H45495   4.335   8.024   7.872  1.4915  0.2295  1.2493
  345MOL0     H45496   4.250   8.170   7.657 -0.8657  2.3265 -0.6900
  345MOL0     H45497   4.210   8.280   7.788  1.7872  0.0389  1.0278
  345MOL0     H45498   4.114   7.979   7.796  1.9998 -0.5356 -0.2626
  345MOL0     H45499   4.077   8.098   7.919 -0.4974 -1.7749 -1.3652
  345MOL0     H45500   3.896   8.040   7.746 -0.3615  0.4308 -0.6526
  345MOL0     H45501   3.996   8.134   7.631  0.1724  0.8982  0.6260
  345MOL0     H45502   3.752   8.149   7.585 -1.4277  0.5224 -1.1101
  345MOL0     H45503   3.576   8.287   7.481  1.1655 -3.3142  0.3624
  345MOL0     H45504   3.120   8.405   7.582  2.9321 -1.7716 -0.2708
  345MOL0     H45505   2.918   8.500   7.450 -0.1673  3.5614 -0.2959
  345MOL0     H45506   2.998   8.772   7.100 -1.0350 -0.1898  0.2728
  345MOL0     H45507   2.970   8.858   7.251 -0.2148 -1.1174  1.5762
  345MOL0     H45508   2.782   8.743   7.044 -1.6245  0.6197  0.4719
  345MOL0     H45509   2.797   8.913   7.050 -3.7543 -0.2206 -0.2933
  345MOL0     H45510   2.671   8.914   7.277  0.6104 -0.0295  0.5287
  345MOL0     H45511   2.670   8.737   7.261 -0.2945  0.6769  0.6313
  345MOL0     H45512   2.556   8.935   7.049  1.0957 -0.2973 -0.4189
  345MOL0     H45513   2.538   8.752   7.059  0.7648 -0.1345  0.4846
  345MOL0     H45514   2.419   8.968   7.236  0.3374  0.1267  0.5040
  345MOL0     H45515   2.422   8.804   7.282  2.0300  3.0360  1.7410
  345MOL0     H45516   2.198   8.841   7.190  0.2436 -0.1532  0.5795
  345MOL0     H45517   2.292   8.744   7.071  0.2262 -1.7367  2.4303
  345MOL0     H45518   2.245   9.043   7.046 -1.7782  0.9255 -1.8623
  345MOL0     H45519   2.335   8.954   6.933  2.7836 -0.9053  2.4458
  345MOL0     H45520   2.114   8.791   6.919  3.6025 -0.4539 -0.0051
  345MOL0     H45521   2.124   8.939   6.834 -0.2776  2.4008  0.8488
  345MOL0     H45522   3.164   8.711   7.197  0.3154 -1.3949 -0.8044
  345MOL0     H45523   3.362   8.620   7.283 -0.5925  3.1296  1.0188
  345MOL0     H45524   3.613   8.576   7.781  3.6867  2.1732 -2.5490
  345MOL0     H45525   3.793   8.460   7.884  0.0041 -1.8217  0.5019
  345MOL0     H45526   5.605   8.552   7.382  1.7945  0.1110 -0.1900
  345MOL0     H45527   5.802   8.580   7.281 -0.2110 -0.7210  2.4015
  345MOL0     H45528   6.006   8.646   6.748 -2.6279  2.0576 -0.3269
  345MOL0     H45529   6.217   8.746   6.629 -0.6129  4.7557 -2.1615
  345MOL0     H45530   6.532   8.883   6.606  0.3505  0.5240  1.7940
  345MOL0     H45531   6.407   8.778   6.584  1.2117 -0.9666 -0.4093
  345MOL0     H45532   6.456   8.683   6.838  0.3174  0.7429  1.5776
  345MOL0     H45533   6.572   8.642   6.714 -0.7610  0.8479 -0.0153
  345MOL0     H45534   6.640   8.896   6.842  3.7071  0.9121  1.5047
  345MOL0     H45535   6.735   8.764   6.787  2.8625 -1.0242  2.9052
  345MOL0     H45536   6.750   8.801   7.016 -0.5013 -0.7183  2.0573
  345MOL0     H45537   6.581   8.813   7.050  1.7699 -0.3956  1.0419
  345MOL0     H45538   6.647   8.404   7.108  1.3503 -1.3857 -3.3928
  345MOL0     H45539   6.294   8.987   6.953  0.2724  0.1669 -0.5979
  345MOL0     H45540   6.095   8.912   7.080  1.9714  3.9973 -0.4562
  346MOL0     O45541   5.807  10.317   4.257 -0.1129 -0.4970  0.5732
  346MOL0     C45542   5.883  10.252   4.326  1.4151 -0.0031 -1.4764
  346MOL0     O45543   5.852  10.201   4.454 -0.5857 -0.1573  0.7038
  346MOL0     C45544   5.726  10.213   4.509 -0.5041 -0.8324 -0.3304
  346MOL0     C45545   5.661  10.339   4.527 -0.0830  0.7262 -0.3368
  346MOL0     C45546   5.526  10.345   4.570  0.5729 -0.7715  0.0312
  346MOL0     C45547   5.463  10.229   4.608  0.6438  0.2818  0.1224
  346MOL0     O45548   5.331  10.239   4.650  0.6671  0.1334  0.2082
  346MOL0     C45549   5.312  10.176   4.773  0.3247 -0.1722 -0.6448
  346MOL0     C45550   5.161  10.178   4.799 -1.2964 -1.2200 -0.4707
  346MOL0     C45551   5.063  10.115   4.694 -0.2309 -0.2379 -0.0711
  346MOL0     C45552   5.069   9.964   4.700 -0.0132 -0.6906  1.0058
  346MOL0     C45553   4.997   9.890   4.590  0.2465  0.3885  0.6726
  346MOL0     C45554   4.852   9.942   4.585 -0.1717 -0.3564 -0.5721
  346MOL0     C45555   4.769   9.857   4.494 -0.6053  0.4285 -0.2575
  346MOL0     C45556   4.634   9.919   4.480  0.0940  0.1923 -0.4022
  346MOL0     N45557   4.554   9.906   4.604 -0.2924 -0.1754 -0.6325
  346MOL0     C45558   4.488   9.797   4.644 -1.2439 -0.5439 -0.1622
  346MOL0     C45559   4.424   9.830   4.758  0.1385  0.6452 -0.3275
  346MOL0     C45560   4.340   9.760   4.851  0.6779 -0.1540 -0.1770
  346MOL0     C45561   4.203   9.822   4.851  0.1588  1.0125  0.3379
  346MOL0     C45562   4.117   9.749   4.951 -1.1218  0.5524  0.1962
  346MOL0     C45563   3.967   9.774   4.930  0.7051  0.2052  0.1903
  346MOL0     O45564   3.910   9.766   4.797 -0.1644  0.2120 -0.2981
  346MOL0     C45565   3.771   9.763   4.788  0.5424  0.4222 -0.5511
  346MOL0     C45566   3.717   9.760   4.660  0.6622  0.1679 -0.2442
  346MOL0     C45567   3.575   9.744   4.634 -0.4150  0.7490 -0.1732
  346MOL0     C45568   3.490   9.739   4.744  0.8044 -0.3789 -0.5181
  346MOL0     C45569   3.345   9.734   4.717  0.0548 -0.1325  0.3898
  346MOL0     O45570   3.261   9.714   4.821 -0.4447 -0.1575  0.3406
  346MOL0     C45571   3.118   9.719   4.810 -1.0160  0.4870  1.0339
  346MOL0     C45572   3.048   9.796   4.721  0.2714 -0.8209  0.1495
  346MOL0     C45573   2.901   9.788   4.723 -0.2471  0.0117 -0.0703
  346MOL0     C45574   2.836   9.692   4.811  0.6631  0.1622  1.2863
  346MOL0     O45575   2.700   9.696   4.814  0.2338  0.0148 -0.4044
  346MOL0     C45576   2.625   9.595   4.869  0.2826  0.4607 -0.3837
  346MOL0     C45577   2.485   9.617   4.811  0.0115  0.3782 -0.2447
  346MOL0     C45578   2.387   9.539   4.898  0.4398  0.2223  0.1601
  346MOL0     C45579   2.252   9.515   4.835  0.2721  0.0585 -0.0607
  346MOL0     C45580   2.161   9.477   4.957  0.6791  0.3408 -0.5233
  346MOL0     C45581   2.013   9.453   4.928  0.2403  0.0943  0.2349
  346MOL0     C45582   1.925   9.456   5.051  0.2628  0.1229 -0.5295
  346MOL0     C45583   1.839   9.585   5.048  0.1923 -0.5841  0.0392
  346MOL0    Cl45584   1.739   9.601   5.192  0.1992  0.0447 -0.1599
  346MOL0     C45585   2.909   9.618   4.900 -0.7089  0.3823 -0.2197
  346MOL0     C45586   3.048   9.629   4.895  0.1013 -0.1904  0.4370
  346MOL0     O45587   3.310   9.727   4.598 -0.2996 -0.2530 -0.0158
  346MOL0     C45588   3.534   9.749   4.872  0.0282  0.2552  0.2610
  346MOL0     C45589   3.675   9.766   4.899 -0.4872  0.6210  0.6493
  346MOL0     N45590   4.453   9.958   4.782  0.1121  0.3547  0.5448
  346MOL0     N45591   4.524  10.007   4.686 -0.3617  0.0954  0.0338
  346MOL0     C45592   5.536  10.109   4.613 -0.2254 -0.1104 -0.0583
  346MOL0     C45593   5.671  10.098   4.553  0.3053 -0.9920 -0.6945
  346MOL0     C45594   6.014  10.217   4.267  0.3988  0.3696 -0.6797
  346MOL0     C45595   6.100  10.116   4.325  0.5408  0.5133 -0.1817
  346MOL0     C45596   6.215  10.067   4.266  0.4582  0.5474  0.2474
  346MOL0     C45597   6.253  10.113   4.136 -0.1357 -0.2407 -0.5861
  346MOL0     O45598   6.355  10.051   4.069  0.6200 -0.1477 -0.6510
  346MOL0     C45599   6.380  10.086   3.929  0.3649 -0.4102  0.3214
  346MOL0     C45600   6.524  10.049   3.882 -0.2957 -0.3189 -0.6355
  346MOL0     C45601   6.532  10.062   3.730 -0.0436  0.5150 -0.7772
  346MOL0     C45602   6.676  10.062   3.675 -0.2702 -0.2050  0.5025
  346MOL0     C45603   6.770   9.946   3.697 -0.1463  1.0700 -0.2210
  346MOL0     C45604   6.849   9.852   3.734 -0.3071  0.0097 -0.4461
  346MOL0     C45605   6.175  10.217   4.086  0.6919 -0.0260  0.4892
  346MOL0     C45606   6.061  10.268   4.147 -0.2398 -0.1265 -0.5352
  346MOL0     H45607   5.705  10.437   4.509 -0.1062  1.0189  1.1212
  346MOL0     H45608   5.478  10.442   4.583  0.6135 -0.6176 -0.9055
  346MOL0     H45609   5.340  10.230   4.864 -5.4965 -0.7158  1.9421
  346MOL0     H45610   5.349  10.074   4.786 -0.7679 -0.2667  2.9294
  346MOL0     H45611   5.125  10.280   4.813 -1.1487 -0.9954 -1.6385
  346MOL0     H45612   5.147  10.122   4.892  2.3951  0.1932  1.0911
  346MOL0     H45613   5.090  10.149   4.593 -1.7318  1.5686  0.0731
  346MOL0     H45614   4.968  10.158   4.728 -0.9666 -3.6293  2.6597
  346MOL0     H45615   5.174   9.935   4.716  0.3125  0.7908  1.6623
  346MOL0     H45616   5.025   9.933   4.795 -1.4864 -0.4942  0.4077
  346MOL0     H45617   4.994   9.785   4.618 -0.9672  0.3432  0.4120
  346MOL0     H45618   5.040   9.908   4.491 -0.0733 -0.6510  0.3389
  346MOL0     H45619   4.849  10.050   4.568  4.7273 -0.1416 -1.6765
  346MOL0     H45620   4.806   9.922   4.682  0.2048 -2.0205 -0.6992
  346MOL0     H45621   4.810   9.852   4.393  0.6052  1.2181  0.1679
  346MOL0     H45622   4.767   9.755   4.535 -3.3412  0.6660  0.4182
  346MOL0     H45623   4.578   9.865   4.403 -0.5695  2.7666 -1.8363
  346MOL0     H45624   4.647  10.021   4.443  1.5500 -0.6077 -2.2978
  346MOL0     H45625   4.508   9.703   4.592 -1.5364 -0.4194 -0.5049
  346MOL0     H45626   4.388   9.778   4.948  3.4306 -0.3606 -1.3934
  346MOL0     H45627   4.341   9.652   4.832  3.8754 -0.5359  1.4753
  346MOL0     H45628   4.175   9.814   4.746  4.3961 -3.1737 -0.8058
  346MOL0     H45629   4.209   9.925   4.889 -2.2571  1.3734 -0.0831
  346MOL0     H45630   4.129   9.646   4.919 -0.8047 -0.3334  2.9032
  346MOL0     H45631   4.139   9.769   5.056 -0.2004 -0.4336  0.2020
  346MOL0     H45632   3.949   9.877   4.963  1.6398 -0.3604  2.7299
  346MOL0     H45633   3.910   9.714   5.001  0.9348  0.4285  0.5695
  346MOL0     H45634   3.794   9.745   4.585  1.4222 -0.3074  0.6115
  346MOL0     H45635   3.548   9.722   4.531 -1.6994  1.9059 -0.1164
  346MOL0     H45636   3.097   9.870   4.659 -1.4914  2.8583  2.7386
  346MOL0     H45637   2.842   9.858   4.666 -1.1115  1.2864  2.2691
  346MOL0     H45638   2.631   9.597   4.978  1.5199 -0.0195 -0.4262
  346MOL0     H45639   2.653   9.501   4.820 -0.9483  1.6558 -3.6869
  346MOL0     H45640   2.472   9.584   4.707  1.5053  0.6545 -0.5338
  346MOL0     H45641   2.444   9.718   4.822 -2.2919 -0.2737 -1.9899
  346MOL0     H45642   2.382   9.582   4.998  0.8367  1.5342 -0.3638
  346MOL0     H45643   2.430   9.440   4.916  0.5645  0.0522 -0.9953
  346MOL0     H45644   2.217   9.610   4.795  1.7572  1.0347  0.8752
  346MOL0     H45645   2.249   9.440   4.755 -0.2400  1.4854 -1.4324
  346MOL0     H45646   2.170   9.546   5.041 -2.1159 -0.0723  0.2070
  346MOL0     H45647   2.195   9.386   5.007  0.4985  1.9888  2.8881
  346MOL0     H45648   2.002   9.362   4.869  1.1221  1.8653 -2.8788
  346MOL0     H45649   1.990   9.534   4.859  1.5353  2.7131  2.6464
  346MOL0     H45650   1.865   9.364   5.048  1.3022 -0.5497 -1.5927
  346MOL0     H45651   1.982   9.444   5.143 -0.9567 -3.2060 -0.0478
  346MOL0     H45652   1.778   9.581   4.957 -1.1056  1.2419  0.7697
  346MOL0     H45653   1.906   9.671   5.051 -1.7320  0.9896  0.2565
  346MOL0     H45654   2.869   9.541   4.965 -0.2658 -1.3437 -1.8882
  346MOL0     H45655   3.107   9.563   4.958 -1.0675 -3.0992 -1.2985
  346MOL0     H45656   3.460   9.760   4.950  2.8136 -0.0174  3.1792
  346MOL0     H45657   3.697   9.766   5.005 -1.3784  0.0280  0.8437
  346MOL0     H45658   5.492  10.013   4.638  0.9836 -1.0555 -1.4157
  346MOL0     H45659   5.710   9.997   4.553  1.6484 -0.4986 -0.5993
  346MOL0     H45660   6.069  10.067   4.417 -1.8657 -1.1153 -1.7196
  346MOL0     H45661   6.265   9.984   4.315  0.5514  1.1639  1.2293
  346MOL0     H45662   6.370  10.195   3.930  0.6072 -0.3323 -1.9237
  346MOL0     H45663   6.306  10.043   3.861 -0.4091  1.3777 -0.0121
  346MOL0     H45664   6.600  10.108   3.935 -2.9778 -0.3860  3.7403
  346MOL0     H45665   6.561   9.948   3.901  2.0590  0.1888 -2.0452
  346MOL0     H45666   6.478  10.151   3.695 -4.9225 -2.3159 -1.3028
  346MOL0     H45667   6.469   9.987   3.683  2.4278 -2.3837  0.1736
  346MOL0     H45668   6.663  10.063   3.566  0.0649 -0.0590  0.4606
  346MOL0     H45669   6.722  10.153   3.715 -0.9665 -0.3173  1.6109
  346MOL0     H45670   6.915   9.768   3.743  2.2446  1.9631  0.1502
  346MOL0     H45671   6.195  10.241   3.982 -0.0356 -0.9799  0.1054
  346MOL0     H45672   5.997  10.335   4.091 -0.8568 -0.8815 -0.7550
  347MOL0     O45673   8.782   6.212  10.696 -0.3110 -0.5359 -0.5503
  347MOL0     C45674   8.735   6.210  10.590 -0.0424  0.6816  0.2287
  347MOL0     O45675   8.599   6.183  10.566  0.1819 -0.1892  0.1839
  347MOL0     C45676   8.510   6.132  10.657 -0.8197 -0.0560  0.4739
  347MOL0     C45677   8.382   6.175  10.638 -0.5425 -0.3357 -0.2818
  347MOL0     C45678   8.280   6.144  10.724  0.0139 -0.1611 -0.0250
  347MOL0     C45679   8.306   6.055  10.831  0.4993 -0.8870 -1.2354
  347MOL0     O45680   8.192   6.026  10.907 -0.2195 -0.4145 -0.2763
  347MOL0     C45681   8.197   5.944  11.028  1.0830 -0.1873 -0.5402
  347MOL0     C45682   8.066   5.962  11.119 -0.3089  0.5708  0.1063
  347MOL0     C45683   7.950   5.904  11.043 -0.0906 -0.0411 -0.6732
  347MOL0     C45684   7.835   5.900  11.138  1.2375  0.7200 -0.4092
  347MOL0     C45685   7.711   5.815  11.075 -0.9160 -0.8072 -0.0446
  347MOL0     C45686   7.601   5.771  11.179 -0.7084 -0.2218 -0.5837
  347MOL0     C45687   7.468   5.767  11.104  0.4099  0.0769  0.7800
  347MOL0     C45688   7.416   5.914  11.093  0.1554 -0.0971 -0.6594
  347MOL0     N45689   7.303   5.912  10.993  0.0599  0.4527  0.9736
  347MOL0     C45690   7.167   5.869  11.002 -0.4449  0.5198  0.3421
  347MOL0     C45691   7.101   5.928  10.900 -0.3184  0.6287  0.3514
  347MOL0     C45692   6.953   5.924  10.867  0.0456 -0.5777 -0.8013
  347MOL0     C45693   6.893   5.786  10.902 -0.5776  0.0363 -0.3486
  347MOL0     C45694   6.949   5.669  10.814  0.2940 -0.1888 -0.4025
  347MOL0     C45695   6.859   5.549  10.828 -0.2312  0.7776 -0.4193
  347MOL0     O45696   6.734   5.557  10.774  0.3309 -0.5725 -0.3566
  347MOL0     C45697   6.622   5.595  10.852 -0.6164  0.2441  0.2201
  347MOL0     C45698   6.623   5.615  10.988 -0.2782  0.1393  0.1224
  347MOL0     C45699   6.497   5.652  11.044  0.6095  0.0355  0.0027
  347MOL0     C45700   6.373   5.666  10.979 -1.1092  0.1382 -0.1586
  347MOL0     C45701   6.247   5.696  11.042 -0.0863 -0.3268  1.0253
  347MOL0     O45702   6.138   5.717  10.956  0.0381  0.8407  0.3521
  347MOL0     C45703   6.004   5.734  11.001  0.1320  0.3357 -0.1970
  347MOL0     C45704   5.961   5.782  11.129 -0.1868  0.5090  0.6888
  347MOL0     C45705   5.820   5.786  11.167  0.8106  0.7819 -0.4017
  347MOL0     C45706   5.729   5.743  11.075 -0.4212  0.0607  0.3805
  347MOL0     O45707   5.590   5.739  11.101  0.9430  0.1895  0.2368
  347MOL0     C45708   5.541   5.845  11.183  0.6804  0.1263  0.1559
  347MOL0     C45709   5.381   5.823  11.180  0.1576  0.0937 -0.2166
  347MOL0     C45710   5.322   5.801  11.035 -0.6387 -0.1688 -0.2477
  347MOL0     C45711   5.172   5.778  11.018  0.3046  0.4355  0.0464
  347MOL0     C45712   5.129   5.645  11.072  0.5175 -0.9227 -0.6504
  347MOL0     C45713   5.203   5.521  11.045  0.0825 -0.0172  0.0904
  347MOL0     C45714   5.133   5.415  11.140 -0.3461 -0.4171  0.1531
  347MOL0     C45715   5.227   5.382  11.254 -0.1054 -0.1158 -0.1440
  347MOL0    Cl45716   5.366   5.297  11.192 -0.3530  0.0955 -0.9485
  347MOL0     C45717   5.770   5.692  10.955 -0.2090 -0.0522 -0.2594
  347MOL0     C45718   5.907   5.711  10.909  0.7236 -0.2660  0.4138
  347MOL0     O45719   6.256   5.722  11.162 -0.5163  0.1093  0.2047
  347MOL0     C45720   6.382   5.646  10.845 -0.1805 -0.6296  0.0461
  347MOL0     C45721   6.503   5.630  10.781 -0.2840  0.7331  0.8505
  347MOL0     N45722   7.192   5.987  10.818  1.1783  0.3667  0.3454
  347MOL0     N45723   7.308   5.976  10.871 -0.9083  0.5167 -0.3662
  347MOL0     C45724   8.432   6.013  10.852  0.3407 -0.1646 -0.3397
  347MOL0     C45725   8.539   6.049  10.774  0.4979 -0.6905  0.1603
  347MOL0     C45726   8.824   6.236  10.477  0.2827 -0.7485  1.2672
  347MOL0     C45727   8.772   6.252  10.345 -0.2577 -1.0505  0.0422
  347MOL0     C45728   8.853   6.284  10.233 -0.3642 -0.1367 -0.1246
  347MOL0     C45729   8.993   6.291  10.256 -1.1029 -0.1942  0.7978
  347MOL0     O45730   9.079   6.302  10.140 -0.1832  0.8785 -0.2882
  347MOL0     C45731   9.215   6.328  10.163 -0.5861 -0.5251 -0.7752
  347MOL0     C45732   9.278   6.384  10.037 -0.5677 -0.2089  0.7937
  347MOL0     C45733   9.181   6.494   9.980 -0.5176 -0.3597 -0.3246
  347MOL0     C45734   9.264   6.605   9.913 -0.6418 -0.5525  1.0610
  347MOL0     C45735   9.176   6.700   9.846  0.1502 -0.6100 -0.9333
  347MOL0     C45736   9.112   6.783   9.787  0.1300  0.2308  0.2206
  347MOL0     C45737   9.045   6.265  10.389 -0.4654  0.1760  1.2534
  347MOL0     C45738   8.961   6.235  10.498 -0.5003 -0.0874 -0.5054
  347MOL0     H45739   8.368   6.246  10.557  2.1217  1.9108  1.0664
  347MOL0     H45740   8.178   6.181  10.729  0.7975  1.9597  3.2319
  347MOL0     H45741   8.283   5.980  11.087  2.1059  1.2432 -2.7619
  347MOL0     H45742   8.198   5.837  11.005 -0.3541 -0.1218 -0.9585
  347MOL0     H45743   8.045   6.068  11.131  0.7402  1.4102 -3.9623
  347MOL0     H45744   8.080   5.915  11.217 -1.9576  1.2634  0.6962
  347MOL0     H45745   7.960   5.806  10.995 -2.3168 -0.0705 -1.1810
  347MOL0     H45746   7.927   5.974  10.962 -0.8239 -3.2228 -3.4266
  347MOL0     H45747   7.862   5.845  11.229  0.6604  1.8701  0.4895
  347MOL0     H45748   7.810   6.002  11.171 -0.6770 -0.0106  0.5868
  347MOL0     H45749   7.755   5.726  11.028 -2.1271 -0.3299 -2.2435
  347MOL0     H45750   7.663   5.868  10.992  0.4751 -2.1689 -1.8337
  347MOL0     H45751   7.594   5.847  11.257 -0.0395  0.7550 -1.4553
  347MOL0     H45752   7.632   5.675  11.221  0.4137  1.0173  1.5915
  347MOL0     H45753   7.490   5.716  11.010  2.5079  2.6613 -0.2758
  347MOL0     H45754   7.396   5.715  11.167 -0.2683 -0.1891 -0.1988
  347MOL0     H45755   7.493   5.983  11.057  1.8932 -0.8178  1.5165
  347MOL0     H45756   7.382   5.949  11.191 -0.0349  0.5669 -0.9541
  347MOL0     H45757   7.124   5.811  11.082 -0.0139  2.8748  2.4311
  347MOL0     H45758   6.931   5.941  10.761 -2.1654  0.9964 -0.1644
  347MOL0     H45759   6.919   6.004  10.934  3.8427 -0.5872  1.3916
  347MOL0     H45760   6.785   5.797  10.890 -0.3423  0.5697 -2.4705
  347MOL0     H45761   6.916   5.761  11.006  0.2125 -0.6188 -0.6627
  347MOL0     H45762   6.959   5.707  10.712 -1.2772  1.4734  0.0085
  347MOL0     H45763   7.052   5.649  10.845  0.1101  1.2795  1.2921
  347MOL0     H45764   6.851   5.509  10.929  4.1694 -1.0940 -0.5960
  347MOL0     H45765   6.913   5.469  10.777  1.1174  0.8171  0.9067
  347MOL0     H45766   6.702   5.611  11.062  2.3218  1.8345 -2.3335
  347MOL0     H45767   6.501   5.657  11.152  1.9082  1.0230 -0.0620
  347MOL0     H45768   6.039   5.821  11.194 -0.0143  1.3809 -0.0136
  347MOL0     H45769   5.783   5.832  11.258 -3.0248  2.8817 -2.7540
  347MOL0     H45770   5.562   5.944  11.141 -2.0759 -0.3175 -2.6273
  347MOL0     H45771   5.579   5.831  11.285 -1.5892 -1.7119  0.8449
  347MOL0     H45772   5.338   5.916  11.219  1.3496 -0.3580  2.3883
  347MOL0     H45773   5.341   5.739  11.237 -2.0935  2.0440  1.3153
  347MOL0     H45774   5.374   5.722  10.980 -0.2483 -0.9247  1.1639
  347MOL0     H45775   5.353   5.896  10.990  0.2043  0.3254  1.2837
  347MOL0     H45776   5.114   5.856  11.068  1.0248  0.2939  1.1339
  347MOL0     H45777   5.140   5.780  10.913 -2.2341  0.5284  0.7635
  347MOL0     H45778   5.029   5.622  11.034 -0.1919  0.8805  0.0500
  347MOL0     H45779   5.117   5.655  11.180 -2.4880 -1.3681 -0.8757
  347MOL0     H45780   5.307   5.538  11.071  0.4487  0.2469 -1.4526
  347MOL0     H45781   5.190   5.503  10.938  2.0758  1.5455 -0.4631
  347MOL0     H45782   5.040   5.446  11.187 -1.2722 -1.5690 -0.8636
  347MOL0     H45783   5.114   5.325  11.081 -2.5679 -0.7325  1.2547
  347MOL0     H45784   5.161   5.327  11.322 -3.1518  1.5885 -1.5293
  347MOL0     H45785   5.264   5.473  11.302  2.7151  0.0709 -2.4276
  347MOL0     H45786   5.698   5.653  10.884 -0.9092  1.9628 -0.7130
  347MOL0     H45787   5.927   5.687  10.805 -1.4941  2.2385 -0.6857
  347MOL0     H45788   6.292   5.660  10.785  1.1332  1.5358 -1.5869
  347MOL0     H45789   6.502   5.617  10.673  0.0013 -1.5102  1.0705
  347MOL0     H45790   8.454   5.953  10.940 -2.8145 -1.8177 -0.5069
  347MOL0     H45791   8.640   6.019  10.798  0.5026 -0.9069 -0.1135
  347MOL0     H45792   8.666   6.263  10.327  0.4439  0.6942 -3.8487
  347MOL0     H45793   8.821   6.295  10.130 -1.5560  2.1638  0.4266
  347MOL0     H45794   9.273   6.245  10.206  0.9902  0.7382 -0.3448
  347MOL0     H45795   9.223   6.407  10.238  3.0248 -3.2896  2.1496
  347MOL0     H45796   9.378   6.422  10.058  0.0831 -0.8896 -0.9230
  347MOL0     H45797   9.287   6.296   9.973  0.1491 -1.0098  1.9436
  347MOL0     H45798   9.127   6.533  10.067 -0.2922  0.5581 -0.5803
  347MOL0     H45799   9.115   6.446   9.908  0.2032 -3.0335  0.6839
  347MOL0     H45800   9.344   6.647   9.976 -0.5946 -1.2499  1.4739
  347MOL0     H45801   9.320   6.560   9.831  2.4373  3.7808  0.4448
  347MOL0     H45802   9.054   6.850   9.726  0.4960 -0.3197 -0.7693
  347MOL0     H45803   9.152   6.251  10.396 -0.1219 -0.3757 -2.6942
  347MOL0     H45804   9.024   6.210  10.583 -0.2449 -1.5642 -1.0986
  348MOL0     O45805   8.453   8.883   2.107 -0.2604  0.1389 -0.0265
  348MOL0     C45806   8.538   8.969   2.120  0.7408 -1.0192 -1.1838
  348MOL0     O45807   8.513   9.089   2.199  0.5781 -0.2425  0.1888
  348MOL0     C45808   8.390   9.123   2.228  0.4482  0.2776  0.1701
  348MOL0     C45809   8.379   9.182   2.352 -0.8121 -0.0064  0.9725
  348MOL0     C45810   8.260   9.213   2.412  0.6191  0.5938 -1.1240
  348MOL0     C45811   8.137   9.191   2.350 -0.1897  0.2966  0.1675
  348MOL0     O45812   8.025   9.223   2.426  0.3342  0.7149 -0.3808
  348MOL0     C45813   7.901   9.153   2.398  0.2616  0.1752  0.1448
  348MOL0     C45814   7.796   9.183   2.514  1.2678 -0.3834  0.8257
  348MOL0     C45815   7.653   9.127   2.490  0.2330 -0.5288 -0.6696
  348MOL0     C45816   7.659   8.985   2.444  0.0181 -0.5673  0.0839
  348MOL0     C45817   7.518   8.930   2.439 -0.6318  0.2901 -0.2011
  348MOL0     C45818   7.500   8.788   2.512 -0.1341 -0.1186 -0.1297
  348MOL0     C45819   7.356   8.743   2.514 -1.3469 -0.2683 -0.3826
  348MOL0     C45820   7.319   8.664   2.387  0.8592 -0.7114  0.0914
  348MOL0     N45821   7.182   8.698   2.345 -0.1216  0.9681  0.2532
  348MOL0     C45822   7.077   8.709   2.433  0.2586  0.1595 -0.6019
  348MOL0     C45823   6.969   8.713   2.346 -0.5930 -0.7084 -0.6873
  348MOL0     C45824   6.835   8.742   2.407  0.1214 -0.4264 -0.2552
  348MOL0     C45825   6.737   8.803   2.288 -0.6038 -0.4119 -0.7504
  348MOL0     C45826   6.591   8.800   2.321  0.7049  0.2391 -0.6617
  348MOL0     C45827   6.566   8.910   2.428 -0.4170 -1.2355  0.2860
  348MOL0     O45828   6.437   8.893   2.482 -0.0464  0.3561 -0.5897
  348MOL0     C45829   6.334   8.954   2.430  1.2844 -0.2849 -0.2255
  348MOL0     C45830   6.345   9.030   2.311 -0.3581  0.3437  0.5449
  348MOL0     C45831   6.242   9.107   2.263 -1.3819 -0.9041 -0.2694
  348MOL0     C45832   6.138   9.135   2.358 -1.3453  0.9383  1.0201
  348MOL0     C45833   6.023   9.215   2.313 -1.1806 -0.3693  0.3202
  348MOL0     O45834   5.906   9.192   2.384  0.1498 -0.2932 -0.9941
  348MOL0     C45835   5.810   9.270   2.337  0.0298 -0.0842  0.3353
  348MOL0     C45836   5.777   9.382   2.414 -0.8207 -0.6383  0.2033
  348MOL0     C45837   5.674   9.459   2.372  1.0661 -0.7193 -0.3495
  348MOL0     C45838   5.602   9.424   2.250  1.0259 -0.2887 -1.3171
  348MOL0     O45839   5.493   9.503   2.219 -0.5624 -0.5213 -0.2550
  348MOL0     C45840   5.375   9.492   2.306 -0.7361 -0.0112 -0.6344
  348MOL0     C45841   5.256   9.577   2.268 -0.3470  0.0115 -0.1203
  348MOL0     C45842   5.286   9.730   2.264  0.8884  0.0660  0.8822
  348MOL0     C45843   5.165   9.818   2.224 -0.0243  0.0970 -0.3110
  348MOL0     C45844   5.190   9.961   2.232 -0.2262 -0.2569 -0.0750
  348MOL0     C45845   5.076  10.043   2.167 -1.2818 -0.3751 -0.2789
  348MOL0     C45846   5.062  10.180   2.226 -0.4256  0.3218 -0.4062
  348MOL0     C45847   4.940  10.258   2.173  0.1336  0.6267  0.1404
  348MOL0    Cl45848   4.776  10.177   2.190 -0.1921 -0.1052 -0.0879
  348MOL0     C45849   5.638   9.309   2.169  0.1837  0.4324 -0.0276
  348MOL0     C45850   5.746   9.233   2.222  0.0422 -0.5558  0.8790
  348MOL0     O45851   6.046   9.310   2.238  0.2910  0.8094  0.3892
  348MOL0     C45852   6.143   9.080   2.489 -0.3576 -0.2153  0.3243
  348MOL0     C45853   6.234   8.982   2.517  1.1327 -0.3556  0.5914
  348MOL0     N45854   7.007   8.705   2.212 -0.3924 -0.0787  0.0134
  348MOL0     N45855   7.134   8.677   2.216 -0.7361 -0.3150 -0.1894
  348MOL0     C45856   8.146   9.137   2.221  0.6964  0.4563  0.5218
  348MOL0     C45857   8.266   9.099   2.163  0.5432  0.5520  0.4632
  348MOL0     C45858   8.677   8.936   2.084  0.1598  0.3315  0.6410
  348MOL0     C45859   8.699   8.823   2.011  0.1333  0.4761 -0.1972
  348MOL0     C45860   8.832   8.797   1.954 -0.7978  0.0217  0.8887
  348MOL0     C45861   8.938   8.892   1.980 -0.1175  0.6932  0.4011
  348MOL0     O45862   9.058   8.866   1.919 -0.1601 -0.6344 -0.5545
  348MOL0     C45863   9.170   8.950   1.947 -0.7702 -0.4953 -0.7417
  348MOL0     C45864   9.297   8.897   1.885  0.0928  0.0059  0.3991
  348MOL0     C45865   9.417   8.966   1.937  0.7495 -0.2702  1.2862
  348MOL0     C45866   9.546   8.925   1.878 -0.0484 -0.1901  0.1487
  348MOL0     C45867   9.658   8.961   1.974 -0.2150  0.0832  0.1471
  348MOL0     C45868   9.757   8.990   2.034  0.4804  0.4721 -1.8000
  348MOL0     C45869   8.913   8.998   2.065 -0.4321 -0.0344  0.1179
  348MOL0     C45870   8.780   9.025   2.110  1.0531 -0.0577  0.2346
  348MOL0     H45871   8.477   9.208   2.389  0.1051 -0.7261 -0.8511
  348MOL0     H45872   8.253   9.260   2.510 -1.2356 -1.1428 -0.3534
  348MOL0     H45873   7.922   9.045   2.392 -0.9594  0.0040 -3.6091
  348MOL0     H45874   7.855   9.179   2.303  0.5422  2.1539  0.5172
  348MOL0     H45875   7.781   9.289   2.534  0.0041 -0.4771  0.4584
  348MOL0     H45876   7.841   9.139   2.604  0.7024  0.1917  1.4016
  348MOL0     H45877   7.595   9.188   2.421 -1.9299 -0.1109  1.4061
  348MOL0     H45878   7.598   9.146   2.582  0.4031 -0.6569 -0.5407
  348MOL0     H45879   7.686   8.985   2.338 -3.7768 -1.5947 -1.0477
  348MOL0     H45880   7.735   8.939   2.507  2.4501  1.9561 -0.8271
  348MOL0     H45881   7.481   8.934   2.337 -1.4188  1.8206  0.1210
  348MOL0     H45882   7.446   9.000   2.480 -4.0110 -0.9353 -3.5099
  348MOL0     H45883   7.532   8.799   2.616 -1.0311  0.1576  0.1306
  348MOL0     H45884   7.560   8.721   2.451 -1.9854 -1.7542 -0.2366
  348MOL0     H45885   7.345   8.677   2.601  1.7404 -1.5258 -0.8253
  348MOL0     H45886   7.296   8.832   2.538 -2.0199  0.0595 -2.9653
  348MOL0     H45887   7.350   8.562   2.409  4.8415  0.1306 -0.7329
  348MOL0     H45888   7.380   8.701   2.304 -0.0476  0.7372  0.0367
  348MOL0     H45889   7.071   8.723   2.541  3.4620 -3.0009  0.1947
  348MOL0     H45890   6.860   8.815   2.484  4.6945 -0.7429 -1.1817
  348MOL0     H45891   6.792   8.651   2.449 -1.0979 -1.5142 -3.5569
  348MOL0     H45892   6.755   8.744   2.198  1.9433 -0.7673 -0.0976
  348MOL0     H45893   6.782   8.901   2.268 -0.4950  0.1503  1.8346
  348MOL0     H45894   6.516   8.821   2.244  0.0875  2.6354  0.4865
  348MOL0     H45895   6.563   8.702   2.361  4.4190  0.3634  2.9179
  348MOL0     H45896   6.589   9.011   2.392  2.0167 -1.5048  0.9518
  348MOL0     H45897   6.628   8.881   2.513 -0.7825 -0.4426  0.8411
  348MOL0     H45898   6.432   9.022   2.246  0.3136 -2.1932  1.6235
  348MOL0     H45899   6.230   9.170   2.176 -0.4001 -1.4356 -0.8011
  348MOL0     H45900   5.834   9.402   2.505  0.3168  1.2836 -0.8493
  348MOL0     H45901   5.652   9.542   2.438 -1.8630 -0.8055 -1.0726
  348MOL0     H45902   5.417   9.508   2.405  1.6213  0.0967 -1.5931
  348MOL0     H45903   5.347   9.386   2.303  0.3648 -0.5545  3.3619
  348MOL0     H45904   5.181   9.567   2.346  2.0359  0.9721  2.4402
  348MOL0     H45905   5.208   9.549   2.173  3.3081 -2.9577 -1.3374
  348MOL0     H45906   5.364   9.745   2.189 -1.9808  2.5487 -1.9242
  348MOL0     H45907   5.311   9.769   2.363  2.5319  1.4339 -0.0173
  348MOL0     H45908   5.148   9.791   2.119  2.3112  3.3602 -1.7173
  348MOL0     H45909   5.069   9.806   2.275 -0.9468  0.3122 -1.9239
  348MOL0     H45910   5.285   9.989   2.185 -0.0095 -1.4485 -0.3726
  348MOL0     H45911   5.206   9.987   2.337  1.2151  2.2605 -0.8133
  348MOL0     H45912   4.984   9.986   2.179 -0.4141 -2.4592 -2.6439
  348MOL0     H45913   5.095  10.039   2.059 -0.9510  1.9222 -0.3605
  348MOL0     H45914   5.050  10.182   2.334  1.3521 -0.0557 -0.1720
  348MOL0     H45915   5.145  10.246   2.198  2.0439 -2.4950 -0.2822
  348MOL0     H45916   4.960  10.273   2.067  1.0976  0.7270  0.3279
  348MOL0     H45917   4.936  10.360   2.214  0.6182  0.6958  0.0179
  348MOL0     H45918   5.571   9.289   2.086 -1.6559  1.9344  0.9910
  348MOL0     H45919   5.771   9.142   2.168  0.3194 -0.2933  0.5580
  348MOL0     H45920   6.066   9.098   2.564 -0.2841  1.8092 -0.0384
  348MOL0     H45921   6.212   8.925   2.606 -1.0844 -0.0414  0.2997
  348MOL0     H45922   8.050   9.111   2.177  0.3378  0.8437  1.0505
  348MOL0     H45923   8.255   9.032   2.079  1.1915  0.5889  0.3410
  348MOL0     H45924   8.620   8.752   1.992 -0.4501  1.7467 -2.9788
  348MOL0     H45925   8.853   8.708   1.896  0.4873  0.4441  0.6584
  348MOL0     H45926   9.187   8.956   2.055 -1.8652  1.7686 -0.6183
  348MOL0     H45927   9.150   9.053   1.914  0.4552  0.2484  0.6977
  348MOL0     H45928   9.298   8.787   1.888 -0.3660 -0.0762 -1.4585
  348MOL0     H45929   9.282   8.919   1.779  1.1409 -0.3038  0.1708
  348MOL0     H45930   9.412   8.952   2.046 -0.3927  2.3899  1.6489
  348MOL0     H45931   9.401   9.073   1.921  0.5082 -0.1121  2.5020
  348MOL0     H45932   9.547   8.819   1.850 -0.3811  0.1742 -1.2852
  348MOL0     H45933   9.565   8.991   1.793 -1.1332 -1.5204 -1.1712
  348MOL0     H45934   9.844   9.008   2.093 -0.9825 -0.7184  0.9365
  348MOL0     H45935   8.984   9.072   2.101 -0.6473  0.2181  0.0270
  348MOL0     H45936   8.754   9.118   2.159  0.1193 -0.4448  0.4960
  349MOL0     O45937   0.984   3.714   5.532  0.7597 -0.3092 -0.3844
  349MOL0     C45938   0.888   3.664   5.479  0.6671 -0.4305  0.0129
  349MOL0     O45939   0.889   3.568   5.381 -0.9526 -0.4528 -0.0281
  349MOL0     C45940   1.011   3.526   5.343  0.0975 -1.0695  0.6080
  349MOL0     C45941   1.089   3.445   5.423  0.4828  0.2842 -0.1218
  349MOL0     C45942   1.209   3.399   5.378  0.5266  0.8847  0.3380
  349MOL0     C45943   1.265   3.444   5.263 -0.2811 -0.5904 -0.1888
  349MOL0     O45944   1.384   3.386   5.219 -0.3750  0.1977  0.1005
  349MOL0     C45945   1.509   3.456   5.236  0.4761 -0.0314 -0.3468
  349MOL0     C45946   1.527   3.512   5.378 -0.5249 -0.3255  0.7753
  349MOL0     C45947   1.666   3.571   5.385 -0.8416 -0.4003 -0.1960
  349MOL0     C45948   1.681   3.685   5.485  0.8034 -0.5204 -0.3959
  349MOL0     C45949   1.823   3.703   5.522 -0.0648 -0.6813  0.4885
  349MOL0     C45950   1.877   3.599   5.624 -0.3024  0.2142 -0.3086
  349MOL0     C45951   2.022   3.636   5.666 -0.3535  0.9736 -0.0731
  349MOL0     C45952   2.056   3.605   5.815  0.6664  0.1118 -0.2446
  349MOL0     N45953   2.204   3.578   5.816 -0.7018  0.2224 -1.0962
  349MOL0     C45954   2.269   3.455   5.816  0.2907  0.8353  0.1607
  349MOL0     C45955   2.403   3.486   5.828  0.7318  0.1804  0.3415
  349MOL0     C45956   2.517   3.390   5.801  0.5294 -0.0164  0.1079
  349MOL0     C45957   2.598   3.447   5.677  0.1732  0.7043 -0.0481
  349MOL0     C45958   2.712   3.541   5.726 -0.2791  0.8165 -0.1718
  349MOL0     C45959   2.741   3.652   5.626  0.9200  0.1414  0.0355
  349MOL0     O45960   2.857   3.732   5.655 -0.8969  0.6145 -0.1492
  349MOL0     C45961   2.979   3.684   5.614 -0.4446 -0.0111 -0.2582
  349MOL0     C45962   3.083   3.754   5.671 -0.2320 -0.2577 -0.3910
  349MOL0     C45963   3.220   3.733   5.639  0.0103 -0.4273  0.2416
  349MOL0     C45964   3.253   3.634   5.548  0.5991  0.2840 -0.1072
  349MOL0     C45965   3.386   3.610   5.517 -0.2868  0.3706  0.2778
  349MOL0     O45966   3.475   3.701   5.569  0.5583 -0.1390  0.9199
  349MOL0     C45967   3.605   3.710   5.520  0.5107 -1.3413 -0.1300
  349MOL0     C45968   3.628   3.811   5.438  0.1354 -0.0673  0.7491
  349MOL0     C45969   3.761   3.837   5.399  0.5037 -0.3977  0.3770
  349MOL0     C45970   3.866   3.743   5.426  0.0408 -0.2758  0.3492
  349MOL0     O45971   4.000   3.782   5.395 -0.6120  0.1313 -0.0307
  349MOL0     C45972   4.035   3.898   5.320  0.4436  0.1153 -0.1395
  349MOL0     C45973   4.185   3.899   5.298 -0.0324  0.2036  1.0390
  349MOL0     C45974   4.239   3.766   5.245  0.5567  0.6624 -0.0030
  349MOL0     C45975   4.389   3.744   5.257  0.0827 -0.1081 -0.2794
  349MOL0     C45976   4.464   3.770   5.121 -0.8008 -0.0174  0.3363
  349MOL0     C45977   4.623   3.751   5.139 -0.3611 -0.5809  0.0314
  349MOL0     C45978   4.697   3.853   5.227  0.6988 -0.3031  0.9331
  349MOL0     C45979   4.854   3.851   5.209 -0.1848 -0.4469  0.2121
  349MOL0    Cl45980   4.901   3.693   5.266 -0.4679 -0.7004 -0.0404
  349MOL0     C45981   3.835   3.634   5.504  0.0236  0.1521  0.8721
  349MOL0     C45982   3.701   3.614   5.554 -0.4820 -0.5597 -0.0665
  349MOL0     O45983   3.419   3.514   5.447  0.5253  0.3679  0.6125
  349MOL0     C45984   3.143   3.562   5.487  0.2227 -0.4388 -0.5217
  349MOL0     C45985   3.012   3.583   5.526 -0.9400  0.5848 -0.3080
  349MOL0     N45986   2.414   3.621   5.860 -0.3216 -0.7156  0.3303
  349MOL0     N45987   2.296   3.677   5.836  0.4090  0.2162 -0.1627
  349MOL0     C45988   1.193   3.525   5.176 -0.0883  1.1997 -0.6442
  349MOL0     C45989   1.059   3.561   5.211 -0.4673 -0.2775 -0.6051
  349MOL0     C45990   0.758   3.714   5.526 -0.1384  0.9718  0.0300
  349MOL0     C45991   0.736   3.760   5.660 -0.3573 -0.7065 -0.3654
  349MOL0     C45992   0.605   3.800   5.699  0.1596 -0.7894  0.4595
  349MOL0     C45993   0.493   3.790   5.614 -0.5629 -0.0462 -0.8316
  349MOL0     O45994   0.368   3.833   5.657 -0.1749  0.3568  0.6634
  349MOL0     C45995   0.256   3.812   5.576  0.9022  0.0915  0.2177
  349MOL0     C45996   0.130   3.868   5.655 -0.4690  0.0939  0.1321
  349MOL0     C45997   0.007   3.802   5.592  0.3156 -0.7154 -0.8850
  349MOL0     C45998  -0.016   3.650   5.646  0.7326 -0.4999 -0.7635
  349MOL0     C45999  -0.079   3.647   5.779 -0.5305 -0.3694  0.0247
  349MOL0     C46000  -0.124   3.652   5.886  0.1511  0.2985  0.4250
  349MOL0     C46001   0.519   3.747   5.486 -0.0026  0.6890 -0.4896
  349MOL0     C46002   0.649   3.712   5.444 -0.0744  0.8277  1.0728
  349MOL0     H46003   1.039   3.420   5.516  1.6860 -1.0761  0.2150
  349MOL0     H46004   1.253   3.316   5.433  0.3501  0.3516 -0.3104
  349MOL0     H46005   1.512   3.539   5.164  0.2196  0.0200 -0.3017
  349MOL0     H46006   1.589   3.386   5.212 -1.0114 -1.4627 -1.3030
  349MOL0     H46007   1.518   3.432   5.453 -1.9313 -1.8884 -0.9828
  349MOL0     H46008   1.454   3.593   5.394 -1.4898 -0.7871 -1.0500
  349MOL0     H46009   1.706   3.618   5.294  0.2741 -0.3668  0.2891
  349MOL0     H46010   1.732   3.488   5.409 -1.0409 -0.0930  1.5014
  349MOL0     H46011   1.653   3.777   5.432  3.0610 -0.1654 -1.1040
  349MOL0     H46012   1.618   3.678   5.574  0.9642  1.2059 -0.1190
  349MOL0     H46013   1.843   3.799   5.571  1.3851 -0.7170 -0.0119
  349MOL0     H46014   1.884   3.702   5.432 -0.3546 -0.2633  0.2820
  349MOL0     H46015   1.874   3.504   5.570 -0.9799  0.3476 -0.5221
  349MOL0     H46016   1.819   3.584   5.716 -1.9476  0.9013 -1.1817
  349MOL0     H46017   2.086   3.581   5.596 -0.7642  1.6018 -0.9597
  349MOL0     H46018   2.039   3.740   5.638 -1.1986  1.8302  2.3998
  349MOL0     H46019   2.006   3.514   5.849  1.7685 -0.1444  0.7542
  349MOL0     H46020   2.035   3.701   5.863  3.3585  1.6635 -1.8915
  349MOL0     H46021   2.241   3.354   5.788  1.7643  0.2340  0.7575
  349MOL0     H46022   2.491   3.284   5.786 -0.1046  0.1822 -0.2256
  349MOL0     H46023   2.570   3.377   5.895 -0.2212  0.9703  0.6864
  349MOL0     H46024   2.538   3.499   5.602  0.1964  1.2053  0.2784
  349MOL0     H46025   2.635   3.355   5.631 -1.9314 -1.2922  1.9603
  349MOL0     H46026   2.674   3.589   5.816  1.5856 -0.8324  1.5724
  349MOL0     H46027   2.806   3.487   5.738  0.2286  1.8406  0.6089
  349MOL0     H46028   2.656   3.721   5.630 -0.6836 -1.7452  0.3076
  349MOL0     H46029   2.735   3.612   5.524 -0.6802 -0.1870  0.2256
  349MOL0     H46030   3.059   3.840   5.733 -1.4111 -0.2627 -0.8135
  349MOL0     H46031   3.292   3.783   5.703 -1.7723 -0.0818  2.1158
  349MOL0     H46032   3.544   3.879   5.427  0.8944  0.7560 -0.1373
  349MOL0     H46033   3.767   3.932   5.347 -1.5560  1.8972  3.9036
  349MOL0     H46034   4.008   3.986   5.379 -0.1974 -1.1324  1.4879
  349MOL0     H46035   3.977   3.896   5.227 -1.2386 -2.6961  0.8484
  349MOL0     H46036   4.222   3.903   5.401 -2.7587  0.0287  2.0908
  349MOL0     H46037   4.219   3.979   5.232 -0.5206  0.8048  1.5074
  349MOL0     H46038   4.199   3.756   5.143 -0.0987  3.1131 -0.0550
  349MOL0     H46039   4.195   3.691   5.312  0.3685 -0.0084 -0.8490
  349MOL0     H46040   4.428   3.812   5.333  1.3481 -1.6873  0.5465
  349MOL0     H46041   4.420   3.645   5.293 -1.4074 -0.4720  0.0732
  349MOL0     H46042   4.440   3.868   5.080  0.1405  0.0598 -0.0587
  349MOL0     H46043   4.422   3.697   5.051  2.3837 -1.8363  0.1080
  349MOL0     H46044   4.662   3.752   5.037  0.7804  1.5562  0.4438
  349MOL0     H46045   4.649   3.658   5.191 -1.3499 -0.4982  0.7209
  349MOL0     H46046   4.677   3.957   5.199 -1.4461 -0.9853 -0.2267
  349MOL0     H46047   4.671   3.834   5.332 -2.3329 -0.6121  0.1961
  349MOL0     H46048   4.900   3.931   5.267  0.5543 -0.0120 -0.9290
  349MOL0     H46049   4.882   3.870   5.105 -0.0659 -2.2748 -0.1110
  349MOL0     H46050   3.912   3.563   5.530 -0.6837 -1.0355 -0.1714
  349MOL0     H46051   3.682   3.529   5.618 -0.4173 -0.5143  0.0148
  349MOL0     H46052   3.162   3.477   5.422 -1.1073 -1.3356  0.2231
  349MOL0     H46053   2.939   3.524   5.472  0.8742 -2.2190  0.1444
  349MOL0     H46054   1.250   3.569   5.094  1.9354  0.0694  0.0756
  349MOL0     H46055   0.996   3.619   5.145 -1.7692 -2.9360 -1.8604
  349MOL0     H46056   0.823   3.756   5.726 -1.0861  0.7256  0.7252
  349MOL0     H46057   0.601   3.836   5.802 -1.0046  0.0527  0.1412
  349MOL0     H46058   0.239   3.707   5.552  0.0493  0.4264 -0.7324
  349MOL0     H46059   0.261   3.867   5.482 -1.3196  0.9217  0.5335
  349MOL0     H46060   0.152   3.844   5.759 -0.9956 -2.2045 -0.2373
  349MOL0     H46061   0.127   3.977   5.647  1.0261  0.2697  1.4122
  349MOL0     H46062   0.016   3.810   5.483  2.0830  1.7001 -0.6592
  349MOL0     H46063  -0.084   3.852   5.625  0.9777 -0.6576  0.9882
  349MOL0     H46064  -0.082   3.611   5.568  1.9921 -1.5056 -1.3812
  349MOL0     H46065   0.076   3.590   5.645  1.1261  0.0918 -1.6383
  349MOL0     H46066  -0.163   3.651   5.986  2.9101 -0.4892  1.5980
  349MOL0     H46067   0.443   3.730   5.410  0.9349 -0.2868 -1.2436
  349MOL0     H46068   0.656   3.666   5.346 -2.0064 -0.6704  1.5714
  350MOL0     O46069   5.673   4.922   9.603 -0.2066 -0.7467 -0.9823
  350MOL0     C46070   5.735   4.843   9.525 -0.0189  1.3224  0.0177
  350MOL0     O46071   5.674   4.731   9.483  0.6284  0.4851  0.6795
  350MOL0     C46072   5.538   4.689   9.489  0.9310  0.8472  0.4316
  350MOL0     C46073   5.430   4.774   9.521  0.3874  0.3947 -0.0305
  350MOL0     C46074   5.300   4.725   9.557 -0.5366  1.2141  0.8553
  350MOL0     C46075   5.282   4.584   9.563 -0.4418  0.5861  0.1383
  350MOL0     O46076   5.172   4.519   9.623 -0.5485 -0.4595  0.1790
  350MOL0     C46077   5.090   4.588   9.719  1.2452  0.0796 -0.7717
  350MOL0     C46078   4.992   4.480   9.759  0.3164 -0.1941 -1.3735
  350MOL0     C46079   4.857   4.539   9.816 -0.0770 -0.5345  0.2078
  350MOL0     C46080   4.879   4.589   9.962 -0.0327 -0.0159 -0.2952
  350MOL0     C46081   4.749   4.622  10.038  0.2259 -0.6578 -0.9591
  350MOL0     C46082   4.783   4.613  10.190 -0.6402  0.5265  0.3908
  350MOL0     C46083   4.660   4.640  10.278  0.4096 -0.1735  0.0991
  350MOL0     C46084   4.611   4.786  10.255 -0.3568  1.5209 -0.2751
  350MOL0     N46085   4.484   4.803  10.324  0.0818 -0.3055  0.3393
  350MOL0     C46086   4.378   4.747  10.264  0.3998  0.1129  0.8080
  350MOL0     C46087   4.282   4.742  10.354  1.3986  0.4715 -0.2146
  350MOL0     C46088   4.148   4.677  10.340  0.0404  0.4990 -0.1622
  350MOL0     C46089   4.056   4.663  10.467  0.6433 -0.5220  0.5759
  350MOL0     C46090   3.960   4.550  10.454  1.0268 -0.2403  0.0142
  350MOL0     C46091   3.826   4.598  10.402  0.3594 -0.4885 -1.0885
  350MOL0     O46092   3.746   4.685  10.492  0.3760 -0.4622  0.3359
  350MOL0     C46093   3.624   4.649  10.540  0.4602 -0.2053 -1.1089
  350MOL0     C46094   3.547   4.547  10.499  0.0177  0.5480 -0.1500
  350MOL0     C46095   3.416   4.504  10.551  0.4279 -0.3360  0.5393
  350MOL0     C46096   3.367   4.581  10.652 -0.4653  0.0697 -0.1217
  350MOL0     C46097   3.244   4.547  10.726 -0.2998 -0.7044  1.1602
  350MOL0     O46098   3.197   4.632  10.829  0.2332  0.3294 -0.0943
  350MOL0     C46099   3.088   4.589  10.901 -0.0601 -0.0424 -0.1334
  350MOL0     C46100   3.000   4.695  10.934 -0.0895 -0.0751 -0.2938
  350MOL0     C46101   2.903   4.673  11.028  0.3337 -0.8676  0.2818
  350MOL0     C46102   2.888   4.557  11.093  0.3722  0.7744 -0.7345
  350MOL0     O46103   2.796   4.552  11.190  0.6186  0.1946 -0.3099
  350MOL0     C46104   2.656   4.566  11.163 -0.3470 -0.0778 -0.8551
  350MOL0     C46105   2.597   4.527  11.297  0.2807 -0.1626  1.4660
  350MOL0     C46106   2.448   4.572  11.310  0.6871  0.3895  0.1958
  350MOL0     C46107   2.366   4.472  11.384  0.8761 -0.5005  0.4972
  350MOL0     C46108   2.222   4.526  11.416 -0.4126  0.8191 -0.3953
  350MOL0     C46109   2.145   4.424  11.506  0.0211  0.0667  0.4177
  350MOL0     C46110   2.013   4.484  11.565 -0.5672  0.3945  0.0029
  350MOL0     C46111   1.942   4.377  11.649  0.9868  0.2245 -0.1255
  350MOL0    Cl46112   1.790   4.442  11.702  0.0648 -0.1316  0.4060
  350MOL0     C46113   2.963   4.447  11.060  0.8107 -1.4274  0.0103
  350MOL0     C46114   3.075   4.468  10.970 -0.1627 -0.4248  0.6320
  350MOL0     O46115   3.196   4.440  10.696  0.6002  0.5574 -0.2274
  350MOL0     C46116   3.439   4.685  10.706 -0.3299  0.2569 -0.2283
  350MOL0     C46117   3.566   4.716  10.651  0.0316  0.0506  0.4553
  350MOL0     N46118   4.323   4.817  10.463  0.4397  0.0649 -0.5024
  350MOL0     N46119   4.444   4.854  10.443 -0.2722 -0.9693  0.0940
  350MOL0     C46120   5.387   4.499   9.518  0.4666  0.3088  0.7010
  350MOL0     C46121   5.515   4.552   9.481 -0.0972  0.5222 -0.0091
  350MOL0     C46122   5.863   4.865   9.461 -0.4923 -1.2114 -0.2793
  350MOL0     C46123   5.908   5.000   9.436 -0.4235  0.5646  0.0497
  350MOL0     C46124   6.031   5.016   9.368 -0.7716 -0.2790 -0.6834
  350MOL0     C46125   6.111   4.906   9.328 -0.2286  0.2313 -1.0260
  350MOL0     O46126   6.233   4.953   9.283  1.3015 -0.4995 -0.0405
  350MOL0     C46127   6.335   4.875   9.216 -0.2858  0.1197  0.2485
  350MOL0     C46128   6.447   4.970   9.174 -0.1559  0.9396  0.2079
  350MOL0     C46129   6.585   4.919   9.204  0.8520 -0.3992 -0.3492
  350MOL0     C46130   6.689   5.022   9.184 -0.3588 -0.3702  0.1749
  350MOL0     C46131   6.826   4.965   9.172 -0.6515  0.6257 -0.0846
  350MOL0     C46132   6.929   4.902   9.173 -0.3212  0.4666  0.2746
  350MOL0     C46133   6.058   4.778   9.344  0.2591  0.5907  0.6897
  350MOL0     C46134   5.936   4.757   9.406  0.5333 -0.4179  0.2119
  350MOL0     H46135   5.451   4.881   9.528  0.0948  0.6415 -2.0329
  350MOL0     H46136   5.217   4.779   9.601 -1.2799  0.2395  0.6866
  350MOL0     H46137   5.030   4.671   9.681 -3.2624 -3.6304 -2.8658
  350MOL0     H46138   5.144   4.610   9.811  0.9550 -1.1569 -0.2902
  350MOL0     H46139   5.049   4.415   9.826  1.4993  0.7232 -1.4622
  350MOL0     H46140   4.968   4.421   9.670  0.3912 -1.6465 -0.4715
  350MOL0     H46141   4.790   4.454   9.829 -2.0315  1.0107  0.6950
  350MOL0     H46142   4.805   4.610   9.752  1.0569  0.2444  0.1249
  350MOL0     H46143   4.917   4.498  10.007  2.0510  1.3642  0.8741
  350MOL0     H46144   4.946   4.674   9.977  3.2117 -2.6247  1.0814
  350MOL0     H46145   4.660   4.563  10.017 -0.5294 -0.2508  0.8348
  350MOL0     H46146   4.722   4.723  10.004 -0.9977 -1.2654 -1.8602
  350MOL0     H46147   4.870   4.674  10.217  0.8345 -1.4777  0.3901
  350MOL0     H46148   4.812   4.509  10.204 -0.2696  0.8312  2.1047
  350MOL0     H46149   4.584   4.566  10.249 -0.1724 -0.4266  2.1447
  350MOL0     H46150   4.679   4.635  10.385 -0.1357  0.2785  0.2175
  350MOL0     H46151   4.595   4.824  10.153 -3.2223  4.0413  0.9691
  350MOL0     H46152   4.692   4.848  10.294  1.4968 -0.2706 -1.0497
  350MOL0     H46153   4.353   4.723  10.161 -2.2582  2.4819  0.7798
  350MOL0     H46154   4.159   4.577  10.298 -0.0423  0.2217  0.4687
  350MOL0     H46155   4.088   4.733  10.267 -1.6056  0.4462  1.0806
  350MOL0     H46156   4.015   4.757  10.505  4.0950  1.5419 -0.3482
  350MOL0     H46157   4.120   4.623  10.547  0.8088 -1.9688 -0.2478
  350MOL0     H46158   3.994   4.466  10.393  1.5542 -0.0214 -0.0041
  350MOL0     H46159   3.942   4.510  10.554  0.5827  1.0749  0.4768
  350MOL0     H46160   3.770   4.513  10.363 -0.9941 -0.1646  0.0869
  350MOL0     H46161   3.843   4.659  10.313 -1.5677  0.5406 -0.8021
  350MOL0     H46162   3.577   4.485  10.415  0.0232 -1.8550  1.5098
  350MOL0     H46163   3.364   4.419  10.507 -0.4067 -0.2002  1.2384
  350MOL0     H46164   3.012   4.793  10.887 -2.1058 -0.1012 -0.9622
  350MOL0     H46165   2.844   4.759  11.060  0.5268  1.3180 -4.2843
  350MOL0     H46166   2.617   4.503  11.082  0.3447 -0.5855 -0.8035
  350MOL0     H46167   2.620   4.667  11.139 -3.2913 -0.6661  0.6202
  350MOL0     H46168   2.665   4.573  11.369  1.4894  0.2920  0.0949
  350MOL0     H46169   2.610   4.422  11.323 -0.4819 -1.3401 -2.2126
  350MOL0     H46170   2.409   4.564  11.208  0.5309 -1.1203  0.3548
  350MOL0     H46171   2.433   4.672  11.354 -2.0785 -0.3883  1.2536
  350MOL0     H46172   2.352   4.380  11.327 -1.5852  0.3555 -0.4266
  350MOL0     H46173   2.419   4.437  11.473 -0.4386 -0.7620  1.2067
  350MOL0     H46174   2.168   4.542  11.322 -1.4450  0.7376  0.1617
  350MOL0     H46175   2.225   4.621  11.469 -1.7489  0.6758 -0.0062
  350MOL0     H46176   2.198   4.386  11.594  1.1157 -0.0122 -0.2510
  350MOL0     H46177   2.132   4.334  11.444  0.5793 -0.6399  1.2911
  350MOL0     H46178   2.027   4.574  11.626 -2.0219 -0.5001  1.7551
  350MOL0     H46179   1.955   4.517  11.478 -3.5729 -2.6287  0.6543
  350MOL0     H46180   1.993   4.361  11.744 -0.0282 -1.9458  0.1091
  350MOL0     H46181   1.929   4.285  11.592  2.7080  0.5888 -1.1767
  350MOL0     H46182   2.950   4.356  11.118 -2.0411 -1.1497 -0.0368
  350MOL0     H46183   3.143   4.384  10.955 -0.5382 -0.5727 -0.2424
  350MOL0     H46184   3.407   4.732  10.799  0.2489 -2.1520  1.3050
  350MOL0     H46185   3.616   4.806  10.686  0.5934 -0.8086  1.9125
  350MOL0     H46186   5.355   4.395   9.521 -1.5144  0.7687 -1.5874
  350MOL0     H46187   5.579   4.470   9.450 -0.9722 -0.0391 -0.3945
  350MOL0     H46188   5.852   5.085   9.475  2.0040  1.7498  1.1683
  350MOL0     H46189   6.073   5.110   9.335 -0.6216  0.2218  0.8650
  350MOL0     H46190   6.289   4.834   9.126  0.0396 -0.1198  0.1859
  350MOL0     H46191   6.367   4.794   9.283 -3.9647  1.3774  3.9899
  350MOL0     H46192   6.437   4.985   9.066  0.1989 -1.0727 -0.1477
  350MOL0     H46193   6.429   5.067   9.221 -0.5296  1.1931 -0.4470
  350MOL0     H46194   6.594   4.829   9.143 -1.3787  1.1296 -3.1641
  350MOL0     H46195   6.594   4.887   9.309  1.2343  1.4047  0.2048
  350MOL0     H46196   6.683   5.081   9.092  0.8010 -0.4061  0.0618
  350MOL0     H46197   6.696   5.086   9.273  1.5286 -1.6778  1.0468
  350MOL0     H46198   7.021   4.847   9.175 -2.3906 -3.3959  1.7230
  350MOL0     H46199   6.105   4.689   9.305  1.0406  0.4120  1.9888
  350MOL0     H46200   5.915   4.651   9.411  2.6245 -0.9393 -0.9176
  351MOL0     O46201   9.249   3.206   3.524  0.2853 -0.1977  0.1072
  351MOL0     C46202   9.294   3.206   3.412 -1.0605 -1.0710  0.8126
  351MOL0     O46203   9.222   3.196   3.297 -0.9895 -0.6834  0.4433
  351MOL0     C46204   9.101   3.140   3.285  0.7173 -0.7220 -0.0119
  351MOL0     C46205   9.024   3.185   3.173 -0.3721  0.0999 -0.2256
  351MOL0     C46206   8.898   3.116   3.142 -0.2167  0.7885 -0.0476
  351MOL0     C46207   8.841   3.023   3.232 -0.1313 -0.1715 -1.2976
  351MOL0     O46208   8.730   2.954   3.208  0.4368  0.0293 -0.2406
  351MOL0     C46209   8.636   3.017   3.115 -1.1305 -0.2213  0.3309
  351MOL0     C46210   8.486   2.973   3.121  0.2171 -0.2724  0.4177
  351MOL0     C46211   8.473   2.828   3.095  0.8316 -1.3681 -0.0093
  351MOL0     C46212   8.336   2.779   3.104  0.4667  0.2626  0.7073
  351MOL0     C46213   8.305   2.668   3.007  0.1335 -0.0033 -1.1341
  351MOL0     C46214   8.367   2.531   3.037  0.6029 -0.0534  0.0276
  351MOL0     C46215   8.327   2.479   3.185 -0.1430 -0.5273  0.2181
  351MOL0     C46216   8.177   2.426   3.184 -0.5638  0.1597  0.7349
  351MOL0     N46217   8.109   2.442   3.317 -0.2922  0.0100 -0.2538
  351MOL0     C46218   8.013   2.536   3.356 -0.3820  0.5528 -0.0621
  351MOL0     C46219   7.966   2.493   3.479  0.5733  0.0888  0.3669
  351MOL0     C46220   7.859   2.561   3.559  0.3720  0.1189  0.9687
  351MOL0     C46221   7.909   2.620   3.688 -0.0154  0.3429  0.8860
  351MOL0     C46222   7.804   2.708   3.745  0.5660  1.0196 -1.0758
  351MOL0     C46223   7.859   2.768   3.870  0.3370  0.7662 -0.1930
  351MOL0     O46224   7.743   2.817   3.940 -0.4389 -0.6989 -0.1298
  351MOL0     C46225   7.655   2.745   4.016  0.4037 -0.2737 -0.7577
  351MOL0     C46226   7.530   2.793   4.046  0.4111  0.0169  0.3577
  351MOL0     C46227   7.443   2.731   4.134 -0.0638 -0.0819  0.4257
  351MOL0     C46228   7.482   2.609   4.198 -0.8267  0.7755 -0.2260
  351MOL0     C46229   7.381   2.539   4.285 -0.6115 -0.3532 -0.1259
  351MOL0     O46230   7.271   2.616   4.307 -0.1365 -0.0223  0.1051
  351MOL0     C46231   7.166   2.562   4.379  0.4858  0.6038  0.3401
  351MOL0     C46232   7.117   2.645   4.476  0.6488  0.4416  0.6453
  351MOL0     C46233   7.015   2.592   4.552  0.5620  0.6266  0.0342
  351MOL0     C46234   6.951   2.472   4.533 -0.2227 -0.2664 -0.1440
  351MOL0     O46235   6.858   2.425   4.620 -0.2224  0.0795 -0.0613
  351MOL0     C46236   6.767   2.528   4.677  0.0432 -0.0683 -0.0815
  351MOL0     C46237   6.632   2.477   4.715 -0.0638  0.5025 -0.1425
  351MOL0     C46238   6.566   2.424   4.589  0.3147  0.8181  0.2921
  351MOL0     C46239   6.430   2.373   4.635 -0.2520  0.2068 -0.2222
  351MOL0     C46240   6.350   2.483   4.708 -0.4073  0.1186  0.1930
  351MOL0     C46241   6.207   2.444   4.732  0.1682  0.1416 -0.3665
  351MOL0     C46242   6.122   2.572   4.757  0.4755 -0.2359  0.1019
  351MOL0     C46243   5.968   2.560   4.725 -0.4923  0.8401  0.6788
  351MOL0    Cl46244   5.921   2.400   4.784  0.1130  0.1147  0.2990
  351MOL0     C46245   7.000   2.398   4.426  0.0579  0.4066  0.4641
  351MOL0     C46246   7.112   2.438   4.351 -0.4405 -0.2327 -0.6318
  351MOL0     O46247   7.405   2.431   4.343 -0.7884  0.3207  0.5557
  351MOL0     C46248   7.613   2.552   4.168 -0.2520 -0.1428 -0.2001
  351MOL0     C46249   7.700   2.621   4.071  0.6620 -1.0686 -0.5968
  351MOL0     N46250   8.035   2.383   3.517  0.3155  0.2643  0.5012
  351MOL0     N46251   8.112   2.344   3.419 -0.4958 -0.2265  0.0693
  351MOL0     C46252   8.912   2.990   3.350  0.0607  0.4269  0.0094
  351MOL0     C46253   9.036   3.042   3.362 -0.0741 -1.1089 -0.6050
  351MOL0     C46254   9.448   3.247   3.401  0.5827  0.0698  0.1346
  351MOL0     C46255   9.503   3.268   3.274  0.4496  0.1722  0.3946
  351MOL0     C46256   9.638   3.290   3.265 -0.2991  0.3939  0.2873
  351MOL0     C46257   9.719   3.285   3.377  0.7722 -1.0252  1.1524
  351MOL0     O46258   9.853   3.311   3.361 -0.1505  0.1375 -0.1731
  351MOL0     C46259   9.937   3.357   3.478 -0.1110 -0.5128  0.2402
  351MOL0     C46260  10.056   3.436   3.432  0.7404  0.1616 -0.0238
  351MOL0     C46261  10.147   3.343   3.355 -0.3841 -0.1329 -0.9674
  351MOL0     C46262  10.266   3.422   3.297 -1.1038 -0.7639  0.4174
  351MOL0     C46263  10.360   3.349   3.211 -0.1732 -0.1247 -0.2300
  351MOL0     C46264  10.431   3.270   3.152 -0.9214 -1.3090  0.5476
  351MOL0     C46265   9.665   3.270   3.498  0.4218 -0.4167 -0.3997
  351MOL0     C46266   9.527   3.258   3.519  0.7924  0.0466  0.8303
  351MOL0     H46267   9.061   3.262   3.107  1.7327  2.3934  3.3338
  351MOL0     H46268   8.861   3.134   3.042 -0.2682 -2.3657 -0.6994
  351MOL0     H46269   8.674   2.993   3.015  1.3673 -1.2814  1.4704
  351MOL0     H46270   8.623   3.126   3.117 -2.0749 -0.3265  0.7756
  351MOL0     H46271   8.429   3.039   3.055  2.5041  1.9655  0.5052
  351MOL0     H46272   8.452   3.002   3.221 -0.2052 -1.4854  0.6430
  351MOL0     H46273   8.526   2.765   3.167 -1.9889  1.6780  5.3280
  351MOL0     H46274   8.516   2.822   2.994 -2.2237  2.1223 -1.7541
  351MOL0     H46275   8.299   2.760   3.205 -2.3233 -2.8504 -0.7092
  351MOL0     H46276   8.271   2.864   3.079 -0.1493  0.4788  2.8575
  351MOL0     H46277   8.334   2.699   2.906  1.8221 -0.6116 -0.8725
  351MOL0     H46278   8.196   2.662   3.009  0.1137  0.3659 -0.8087
  351MOL0     H46279   8.475   2.546   3.029  0.7328 -1.6590 -1.7460
  351MOL0     H46280   8.358   2.454   2.961  0.2489  0.9705 -1.0039
  351MOL0     H46281   8.394   2.397   3.212 -1.0105 -0.8087  1.6171
  351MOL0     H46282   8.334   2.560   3.258  1.1096 -0.3176 -0.1125
  351MOL0     H46283   8.182   2.324   3.145  4.6696  1.1262 -2.1158
  351MOL0     H46284   8.121   2.482   3.109  0.4463 -0.1633 -0.2959
  351MOL0     H46285   7.988   2.615   3.286 -0.3243  2.9971  2.4626
  351MOL0     H46286   7.773   2.498   3.582 -0.6453  1.7341  1.7743
  351MOL0     H46287   7.814   2.638   3.496  0.5913  0.2220  0.9371
  351MOL0     H46288   7.997   2.683   3.669  0.2494 -1.0911 -3.6044
  351MOL0     H46289   7.936   2.544   3.762 -0.1668 -0.4131  0.1702
  351MOL0     H46290   7.760   2.782   3.677 -0.3217 -0.1101 -1.7740
  351MOL0     H46291   7.718   2.643   3.767  2.4461 -1.3183 -0.2792
  351MOL0     H46292   7.922   2.847   3.828  0.4509  0.6975 -0.1501
  351MOL0     H46293   7.917   2.706   3.939 -0.7340  1.2557  1.1979
  351MOL0     H46294   7.504   2.886   3.995  1.4199 -0.6086 -1.4058
  351MOL0     H46295   7.340   2.764   4.124  1.0032  3.5407 -0.0831
  351MOL0     H46296   7.158   2.742   4.499  0.8206  0.4452  0.3331
  351MOL0     H46297   6.989   2.645   4.643  1.2405  0.6568  0.2157
  351MOL0     H46298   6.749   2.597   4.594 -1.2700 -0.9349 -0.5509
  351MOL0     H46299   6.814   2.575   4.764 -2.0682 -0.7841  1.5163
  351MOL0     H46300   6.572   2.556   4.762 -0.8661 -0.1087 -0.1246
  351MOL0     H46301   6.646   2.400   4.792  1.3734 -0.8605 -1.6907
  351MOL0     H46302   6.616   2.346   4.530 -1.6827  1.2667 -2.1616
  351MOL0     H46303   6.537   2.498   4.514 -1.8581 -0.4441 -0.2224
  351MOL0     H46304   6.366   2.349   4.549  1.0223 -0.1854 -1.1018
  351MOL0     H46305   6.453   2.279   4.686  1.3354 -0.8551 -2.7143
  351MOL0     H46306   6.357   2.577   4.653 -4.1566 -0.0496 -0.8309
  351MOL0     H46307   6.383   2.496   4.812 -3.3514  1.8626  1.0107
  351MOL0     H46308   6.210   2.373   4.815  0.0349 -2.0379 -2.1218
  351MOL0     H46309   6.161   2.386   4.652 -0.6953 -0.3438  0.4696
  351MOL0     H46310   6.120   2.592   4.865 -0.8896  1.9311 -0.2737
  351MOL0     H46311   6.149   2.666   4.708 -2.2005  0.3160 -0.4772
  351MOL0     H46312   5.945   2.570   4.618 -3.1725  0.6848  1.1866
  351MOL0     H46313   5.899   2.628   4.776 -0.6044  0.9352  0.4047
  351MOL0     H46314   6.964   2.297   4.411 -5.2031  2.3410 -2.9549
  351MOL0     H46315   7.143   2.381   4.264 -0.7672  2.4134 -2.6426
  351MOL0     H46316   7.634   2.466   4.231 -0.9682  0.7260  1.2810
  351MOL0     H46317   7.800   2.583   4.050  1.6194  1.7348 -1.5883
  351MOL0     H46318   8.887   2.912   3.421  1.5555 -1.7521 -1.7270
  351MOL0     H46319   9.088   3.005   3.450  1.5570  0.2662 -0.9373
  351MOL0     H46320   9.447   3.281   3.182  1.4008  2.0837  0.0308
  351MOL0     H46321   9.685   3.318   3.171  1.7323 -1.0658  0.7853
  351MOL0     H46322   9.974   3.272   3.537  0.9198 -3.1840 -3.8611
  351MOL0     H46323   9.877   3.424   3.541 -1.8483 -1.3989 -0.4034
  351MOL0     H46324  10.035   3.513   3.357 -0.1445 -2.5691 -2.7730
  351MOL0     H46325  10.097   3.489   3.519  1.4330  1.3031 -1.0090
  351MOL0     H46326  10.101   3.303   3.264  0.1626 -1.2411 -0.7741
  351MOL0     H46327  10.176   3.259   3.419  0.0176 -1.3511 -2.6789
  351MOL0     H46328  10.218   3.494   3.230  3.4670  2.3964  0.0283
  351MOL0     H46329  10.319   3.483   3.371 -0.9405 -0.0350 -0.2850
  351MOL0     H46330  10.498   3.206   3.100  2.4276  1.3022  1.3190
  351MOL0     H46331   9.732   3.254   3.582  0.5525 -0.0463 -0.4313
  351MOL0     H46332   9.483   3.264   3.618  1.5847 -3.1476  1.4768
  352MOL0     O46333   2.527   7.932   8.966  0.1485 -0.4554  0.6998
  352MOL0     C46334   2.588   7.901   8.867 -0.4237 -0.3550  0.3057
  352MOL0     O46335   2.576   7.783   8.794  0.5943  0.4438 -0.2758
  352MOL0     C46336   2.471   7.698   8.840 -0.4014  0.9327 -0.7548
  352MOL0     C46337   2.343   7.728   8.862 -0.1018 -0.5655 -0.0212
  352MOL0     C46338   2.246   7.633   8.903  0.3626  0.4816 -0.2711
  352MOL0     C46339   2.282   7.499   8.927 -0.1733  0.3401 -0.4107
  352MOL0     O46340   2.179   7.422   8.962 -0.8591  0.8787 -0.4188
  352MOL0     C46341   2.206   7.278   8.972 -0.1001 -0.0905  0.4656
  352MOL0     C46342   2.245   7.237   9.114  0.7504  1.1693  0.0640
  352MOL0     C46343   2.219   7.093   9.148  1.2591  0.5781 -0.0660
  352MOL0     C46344   2.303   6.994   9.066  0.1968 -0.1606 -0.5317
  352MOL0     C46345   2.270   6.846   9.086  0.0917  0.8451 -0.2016
  352MOL0     C46346   2.175   6.794   8.973 -1.3272  0.1240 -0.1565
  352MOL0     C46347   2.099   6.666   9.004  0.0789  0.0042 -0.5075
  352MOL0     C46348   2.052   6.590   8.879  0.0129 -0.4056  0.3164
  352MOL0     N46349   1.918   6.647   8.838 -0.1560  0.4246 -0.3896
  352MOL0     C46350   1.798   6.577   8.870 -0.1694  0.1642 -0.6236
  352MOL0     C46351   1.699   6.672   8.861 -0.1449  1.1684  0.2263
  352MOL0     C46352   1.554   6.661   8.907  0.2802  0.1831  1.0216
  352MOL0     C46353   1.451   6.623   8.804  0.1600  0.1596  0.3760
  352MOL0     C46354   1.476   6.493   8.723 -0.5055 -0.2811 -0.5470
  352MOL0     C46355   1.340   6.437   8.674  0.4771 -0.1141 -0.2944
  352MOL0     O46356   1.355   6.380   8.536 -0.2335  0.1028  0.0407
  352MOL0     C46357   1.422   6.258   8.518  0.2614 -0.0959  0.8494
  352MOL0     C46358   1.474   6.179   8.627 -0.6993 -0.2466 -0.4540
  352MOL0     C46359   1.542   6.065   8.597 -0.4770  0.4478 -0.5486
  352MOL0     C46360   1.554   6.009   8.470 -0.2486 -0.2476 -0.7495
  352MOL0     C46361   1.625   5.882   8.450 -0.0516 -1.2753 -0.1695
  352MOL0     O46362   1.697   5.828   8.556 -0.6637  0.0126 -0.0367
  352MOL0     C46363   1.803   5.743   8.523  0.2476  0.0232  0.2122
  352MOL0     C46364   1.904   5.791   8.453 -0.4898  0.0213 -0.2684
  352MOL0     C46365   2.012   5.719   8.431 -0.6973 -0.1567 -0.3053
  352MOL0     C46366   2.018   5.583   8.463  0.1851  0.6814  0.6994
  352MOL0     O46367   2.139   5.511   8.437  0.5831 -0.8575  1.3979
  352MOL0     C46368   2.148   5.368   8.473  0.3590  0.5006  0.2723
  352MOL0     C46369   2.273   5.297   8.418  0.0191  0.6651 -0.2695
  352MOL0     C46370   2.389   5.395   8.465 -0.7472 -0.6235 -0.2715
  352MOL0     C46371   2.527   5.361   8.419  0.1365 -1.1237 -0.1544
  352MOL0     C46372   2.568   5.453   8.307 -0.3536 -1.3565  0.0440
  352MOL0     C46373   2.511   5.404   8.181 -0.2255 -0.1388 -0.1204
  352MOL0     C46374   2.548   5.481   8.051 -0.3982  0.0602  0.0669
  352MOL0     C46375   2.471   5.433   7.934  0.2911  0.7721  0.2750
  352MOL0    Cl46376   2.306   5.485   7.942  0.5590  0.3106 -0.0353
  352MOL0     C46377   1.911   5.518   8.527  0.2879 -0.0405  0.0073
  352MOL0     C46378   1.802   5.605   8.561  0.3207 -0.8728 -0.9995
  352MOL0     O46379   1.614   5.830   8.336 -0.1683 -0.3205  0.3230
  352MOL0     C46380   1.483   6.075   8.367 -0.6649  0.5285 -0.2108
  352MOL0     C46381   1.421   6.206   8.390  0.2511  0.9599 -0.9894
  352MOL0     N46382   1.758   6.790   8.812 -0.5145  0.3275 -0.7138
  352MOL0     N46383   1.883   6.774   8.801 -0.2680 -0.5272 -0.1965
  352MOL0     C46384   2.414   7.470   8.914  0.0706 -0.2853  0.9155
  352MOL0     C46385   2.508   7.568   8.872  0.5204  0.3998  0.2910
  352MOL0     C46386   2.706   7.995   8.821  0.6731 -0.0344 -0.4854
  352MOL0     C46387   2.701   8.128   8.871  0.1323 -0.0010  0.1037
  352MOL0     C46388   2.790   8.223   8.825  0.5439 -0.1944  0.6176
  352MOL0     C46389   2.892   8.182   8.735 -0.4542  0.2056 -0.3975
  352MOL0     O46390   2.983   8.278   8.709 -0.6128 -0.0914  1.1949
  352MOL0     C46391   2.996   8.299   8.565  0.4918  0.4961  0.1076
  352MOL0     C46392   3.051   8.444   8.555  0.0645 -0.3819  0.2614
  352MOL0     C46393   2.970   8.544   8.636  0.5206  0.2467  0.4075
  352MOL0     C46394   2.826   8.552   8.608  0.3221 -0.1618  0.4546
  352MOL0     C46395   2.752   8.632   8.692 -0.9037  0.0775 -0.1183
  352MOL0     C46396   2.684   8.702   8.758 -0.1068  0.2164 -0.5711
  352MOL0     C46397   2.898   8.047   8.695  0.1275  0.3547 -0.3687
  352MOL0     C46398   2.805   7.952   8.731  0.3292 -0.4377 -0.0201
  352MOL0     H46399   2.305   7.829   8.845 -1.1836 -1.0168 -0.3671
  352MOL0     H46400   2.141   7.651   8.921 -0.0111 -2.2247  0.6500
  352MOL0     H46401   2.269   7.240   8.890 -0.7778 -1.4631  0.5494
  352MOL0     H46402   2.105   7.247   8.946 -0.8521  2.5544 -0.0751
  352MOL0     H46403   2.184   7.299   9.181 -2.3065  0.1160 -1.5655
  352MOL0     H46404   2.350   7.256   9.138  0.9540 -1.4343  1.5247
  352MOL0     H46405   2.118   7.064   9.118  2.0797  0.2491 -2.7314
  352MOL0     H46406   2.236   7.082   9.256 -0.0023  1.6457  0.2674
  352MOL0     H46407   2.286   7.028   8.963  2.1994  2.3031 -0.1569
  352MOL0     H46408   2.406   7.011   9.099 -0.1217 -1.6584  1.4096
  352MOL0     H46409   2.236   6.821   9.187 -1.0497 -0.6164 -0.9044
  352MOL0     H46410   2.367   6.794   9.086  0.5004  1.5933 -0.1308
  352MOL0     H46411   2.234   6.776   8.883  1.2183  0.3569  1.3808
  352MOL0     H46412   2.098   6.865   8.942  0.5470  1.5682 -1.7300
  352MOL0     H46413   2.159   6.597   9.064  1.4224  0.9041 -0.7781
  352MOL0     H46414   2.018   6.700   9.069  0.4959 -2.5763  1.5237
  352MOL0     H46415   2.038   6.484   8.903 -1.2237 -0.1811  0.6734
  352MOL0     H46416   2.124   6.587   8.798 -0.3769 -0.0581 -0.0470
  352MOL0     H46417   1.785   6.476   8.909 -2.2837 -0.8835 -3.6688
  352MOL0     H46418   1.519   6.758   8.943 -2.7324  0.3487 -1.8786
  352MOL0     H46419   1.555   6.588   8.989 -0.4033 -3.2443 -1.7601
  352MOL0     H46420   1.439   6.708   8.737  0.5052  2.0277  2.5506
  352MOL0     H46421   1.353   6.598   8.845 -0.7515  1.3987 -0.9313
  352MOL0     H46422   1.542   6.515   8.638 -0.4330  0.3066 -0.3445
  352MOL0     H46423   1.533   6.423   8.786 -1.4167 -1.5881 -1.1331
  352MOL0     H46424   1.270   6.520   8.662  0.7476  0.5381  2.0977
  352MOL0     H46425   1.309   6.363   8.748  1.2074  0.2001  0.3431
  352MOL0     H46426   1.466   6.216   8.729  0.0265 -0.4618 -0.3141
  352MOL0     H46427   1.578   6.014   8.685  0.4129  1.3618 -0.3660
  352MOL0     H46428   1.907   5.896   8.425 -0.7378 -0.1036 -0.7695
  352MOL0     H46429   2.098   5.761   8.379 -1.0219 -0.1359 -0.8255
  352MOL0     H46430   2.064   5.305   8.441  0.9869 -0.2106 -0.0032
  352MOL0     H46431   2.158   5.370   8.582  0.8435 -0.5191  0.2560
  352MOL0     H46432   2.275   5.291   8.309 -0.0469  1.6194 -0.3334
  352MOL0     H46433   2.277   5.195   8.456 -0.4824  1.6601  2.7930
  352MOL0     H46434   2.386   5.398   8.574  0.8245 -1.3038 -0.1812
  352MOL0     H46435   2.369   5.496   8.429 -0.4983  0.3140  2.0559
  352MOL0     H46436   2.591   5.382   8.506 -3.3497  2.5897  1.8437
  352MOL0     H46437   2.547   5.255   8.397 -0.4112 -1.6386  1.6862
  352MOL0     H46438   2.677   5.444   8.295 -0.1567  0.0770  0.5523
  352MOL0     H46439   2.536   5.556   8.327 -1.9490 -2.1131  1.5949
  352MOL0     H46440   2.402   5.397   8.184 -0.0941 -3.4712  1.5423
  352MOL0     H46441   2.539   5.301   8.158 -0.7325  0.1093 -2.1317
  352MOL0     H46442   2.538   5.588   8.071  1.9822  0.0268  1.9152
  352MOL0     H46443   2.655   5.468   8.030 -0.2193  0.8580  0.4209
  352MOL0     H46444   2.483   5.325   7.922  0.2435  1.0499 -4.2888
  352MOL0     H46445   2.514   5.471   7.841 -3.7229 -0.1123 -2.2052
  352MOL0     H46446   1.915   5.410   8.534  4.0129 -0.1171 -0.9692
  352MOL0     H46447   1.709   5.569   8.604 -1.2223  0.6795 -2.8284
  352MOL0     H46448   1.493   6.033   8.268  0.6497  0.5836 -0.1208
  352MOL0     H46449   1.391   6.273   8.309  0.0608  2.6791  0.4319
  352MOL0     H46450   2.452   7.370   8.935 -1.6960 -1.3502 -0.5759
  352MOL0     H46451   2.615   7.550   8.861  0.4166  0.3978 -0.7634
  352MOL0     H46452   2.617   8.162   8.932 -1.1367  2.5619 -2.8142
  352MOL0     H46453   2.772   8.329   8.832 -0.8381 -0.2354 -1.2480
  352MOL0     H46454   2.899   8.292   8.516  1.6194 -2.8784 -1.9987
  352MOL0     H46455   3.065   8.224   8.525 -1.2136 -1.7743  1.2289
  352MOL0     H46456   3.155   8.452   8.589  0.2902 -0.2546 -0.4495
  352MOL0     H46457   3.056   8.478   8.451 -1.1285  1.8969  0.8888
  352MOL0     H46458   3.004   8.643   8.603 -0.3887 -0.6570 -3.8886
  352MOL0     H46459   2.977   8.529   8.744 -1.4271  0.9988  0.6875
  352MOL0     H46460   2.800   8.580   8.505 -1.7672  1.9160  1.4637
  352MOL0     H46461   2.779   8.454   8.616 -0.8063  0.3334  0.1200
  352MOL0     H46462   2.622   8.771   8.812 -0.0723  2.3801 -3.1084
  352MOL0     H46463   2.977   8.013   8.629  0.3267 -0.6620  0.3714
  352MOL0     H46464   2.811   7.860   8.674  0.0975 -0.7463  0.4454
  353MOL0     O46465  10.742   8.076   8.177  0.7303 -0.7627 -0.4899
  353MOL0     C46466  10.783   8.168   8.248 -0.3790  0.9091  0.7392
  353MOL0     O46467  10.725   8.286   8.281  0.2494  0.0858 -0.1439
  353MOL0     C46468  10.601   8.315   8.228  0.5172 -0.9245  0.3764
  353MOL0     C46469  10.489   8.233   8.208  0.0330 -0.5515  0.7103
  353MOL0     C46470  10.364   8.279   8.161 -0.8991 -0.3384  0.0940
  353MOL0     C46471  10.346   8.420   8.158  0.1577  0.3724  0.4976
  353MOL0     O46472  10.220   8.451   8.107  0.0628 -0.4268 -1.4734
  353MOL0     C46473  10.192   8.594   8.113 -0.3665 -0.0020  0.3698
  353MOL0     C46474  10.089   8.620   7.997 -0.1182 -0.5776 -0.5405
  353MOL0     C46475   9.939   8.630   8.020  0.3277 -0.0854  0.4540
  353MOL0     C46476   9.889   8.524   8.115 -0.1404  1.3268 -1.2316
  353MOL0     C46477   9.739   8.542   8.153  0.3341 -0.3169 -0.5049
  353MOL0     C46478   9.701   8.430   8.242 -0.2149  0.1722 -0.1783
  353MOL0     C46479   9.558   8.448   8.290  0.2460  0.5114 -0.8760
  353MOL0     C46480   9.529   8.337   8.390  0.3500  0.3928  0.0552
  353MOL0     N46481   9.398   8.340   8.444  0.1235  0.1576 -0.2314
  353MOL0     C46482   9.280   8.304   8.377 -0.6782 -0.2228  0.7243
  353MOL0     C46483   9.186   8.304   8.475  0.2628 -0.1446  0.0004
  353MOL0     C46484   9.040   8.293   8.462 -0.6356 -0.1619 -0.3807
  353MOL0     C46485   8.976   8.179   8.533  0.2980  0.1700  0.7845
  353MOL0     C46486   8.835   8.224   8.567 -0.8193 -0.7790 -0.3862
  353MOL0     C46487   8.717   8.186   8.470 -0.4217  1.0170  0.3078
  353MOL0     O46488   8.602   8.212   8.539  0.5671 -0.5544 -1.1491
  353MOL0     C46489   8.479   8.184   8.500  0.8378  0.5037 -0.3016
  353MOL0     C46490   8.372   8.209   8.582 -0.1390 -1.4164 -0.0593
  353MOL0     C46491   8.238   8.206   8.546  0.0294  0.7400 -0.1483
  353MOL0     C46492   8.208   8.147   8.421  0.6286 -0.4772 -0.1957
  353MOL0     C46493   8.069   8.157   8.362 -0.1775 -0.7024 -0.3528
  353MOL0     O46494   7.989   8.248   8.430 -0.4183  0.1262 -0.3249
  353MOL0     C46495   7.851   8.242   8.406  0.2818 -0.1369  0.2020
  353MOL0     C46496   7.770   8.354   8.415 -0.8071 -0.1869  1.0722
  353MOL0     C46497   7.626   8.348   8.401 -0.8202  0.8136  0.6171
  353MOL0     C46498   7.577   8.221   8.383 -0.1844 -0.7055 -0.1072
  353MOL0     O46499   7.437   8.202   8.381 -0.0714 -0.5880 -0.0948
  353MOL0     C46500   7.389   8.161   8.508  0.2162 -0.0682 -0.5851
  353MOL0     C46501   7.246   8.199   8.520 -0.8262  0.3189  0.5149
  353MOL0     C46502   7.183   8.204   8.651 -0.8001 -0.0303 -1.0524
  353MOL0     C46503   7.033   8.181   8.621  0.6590 -0.2172 -1.0834
  353MOL0     C46504   6.949   8.205   8.750 -0.0158  0.2415 -0.3462
  353MOL0     C46505   6.807   8.225   8.707  0.4031  0.7478 -0.3431
  353MOL0     C46506   6.715   8.199   8.836  0.2861 -0.2603  0.1919
  353MOL0     C46507   6.580   8.156   8.801 -0.4214 -0.9287  0.5057
  353MOL0    Cl46508   6.509   8.270   8.688 -0.0608 -0.1900 -0.0023
  353MOL0     C46509   7.651   8.107   8.382  0.5002  0.0619  0.1113
  353MOL0     C46510   7.788   8.120   8.396 -0.2162 -0.2549 -0.3186
  353MOL0     O46511   8.046   8.104   8.256  0.1176  0.1410 -0.1533
  353MOL0     C46512   8.324   8.108   8.339 -0.3238  0.6922 -1.1131
  353MOL0     C46513   8.458   8.120   8.383  0.5803 -0.0259  0.4131
  353MOL0     N46514   9.247   8.335   8.599  0.1795  0.4317 -0.4955
  353MOL0     N46515   9.371   8.354   8.578  0.6295 -0.4970 -0.2923
  353MOL0     C46516  10.453   8.508   8.176  0.9340 -0.0678 -0.1932
  353MOL0     C46517  10.578   8.448   8.213  0.4058  0.0655  0.4776
  353MOL0     C46518  10.928   8.152   8.286 -0.0860 -0.0119 -1.0914
  353MOL0     C46519  11.000   8.043   8.239 -0.1447 -0.3668  1.2735
  353MOL0     C46520  11.125   8.017   8.290 -0.1520 -1.3059 -0.5203
  353MOL0     C46521  11.196   8.109   8.377 -0.2335 -1.3346  0.2036
  353MOL0     O46522  11.320   8.100   8.424 -0.0982  0.1043  0.0578
  353MOL0     C46523  11.389   7.972   8.411 -0.0804  0.5786  0.8209
  353MOL0     C46524  11.496   7.970   8.524 -0.1606 -0.1516 -0.1365
  353MOL0     C46525  11.586   7.845   8.533  0.2489 -1.1167  0.5041
  353MOL0     C46526  11.703   7.872   8.637  0.6883 -0.6933 -0.4327
  353MOL0     C46527  11.795   7.762   8.653 -0.3326 -0.3342 -0.1031
  353MOL0     C46528  11.857   7.664   8.682  0.0893  0.1018  0.2350
  353MOL0     C46529  11.123   8.220   8.411 -0.2004  0.3601 -0.1515
  353MOL0     C46530  10.994   8.241   8.368 -0.1058  0.3830 -0.0813
  353MOL0     H46531  10.495   8.125   8.221 -1.9040 -0.5413  2.1720
  353MOL0     H46532  10.279   8.213   8.146  0.8105 -3.3354  2.5088
  353MOL0     H46533  10.271   8.668   8.100 -0.2646 -0.3538 -1.2132
  353MOL0     H46534  10.144   8.612   8.210 -1.3903  0.2713 -0.1750
  353MOL0     H46535  10.107   8.548   7.917 -1.3080 -0.2860 -1.0973
  353MOL0     H46536  10.116   8.711   7.943 -0.4625 -0.1143  0.0424
  353MOL0     H46537   9.890   8.623   7.922  3.1548 -0.4437 -1.0642
  353MOL0     H46538   9.919   8.729   8.059 -2.2309  0.3983 -1.8019
  353MOL0     H46539   9.902   8.427   8.066  1.2639 -0.2782  1.9557
  353MOL0     H46540   9.950   8.518   8.206 -1.2845 -1.2798 -0.5165
  353MOL0     H46541   9.669   8.537   8.068  0.1419 -1.3420 -0.3002
  353MOL0     H46542   9.718   8.639   8.199 -2.7587 -1.0283 -0.1604
  353MOL0     H46543   9.766   8.441   8.329 -1.5257  1.0092  0.7253
  353MOL0     H46544   9.714   8.337   8.185 -0.7324 -0.5236  0.8038
  353MOL0     H46545   9.533   8.545   8.332 -4.2315 -2.0715  3.4633
  353MOL0     H46546   9.479   8.433   8.216 -1.1708 -0.5676  0.7624
  353MOL0     H46547   9.600   8.344   8.473  1.1286  1.4088 -0.6654
  353MOL0     H46548   9.549   8.244   8.337  2.9589  2.0851 -2.2201
  353MOL0     H46549   9.261   8.281   8.272  1.6987 -1.2083  0.4553
  353MOL0     H46550   9.019   8.295   8.355 -0.4793 -0.4015 -0.4165
  353MOL0     H46551   9.007   8.385   8.510 -0.1846 -0.9620  1.5649
  353MOL0     H46552   9.037   8.148   8.618  2.1739  1.3439 -0.0871
  353MOL0     H46553   8.966   8.087   8.474  4.7762 -0.2891  0.4583
  353MOL0     H46554   8.807   8.172   8.659  1.5176 -0.6896  0.4593
  353MOL0     H46555   8.836   8.331   8.589  2.4594 -0.8907  0.5851
  353MOL0     H46556   8.725   8.079   8.447 -0.3195  0.8574  1.0671
  353MOL0     H46557   8.734   8.255   8.387 -0.4525  2.0134  1.1194
  353MOL0     H46558   8.404   8.254   8.676 -0.9693 -2.2099  0.6173
  353MOL0     H46559   8.155   8.233   8.611  0.1242  1.8568 -0.4837
  353MOL0     H46560   7.815   8.451   8.434 -2.3401  0.7662  0.0555
  353MOL0     H46561   7.551   8.426   8.409 -0.6857  1.3069 -2.0529
  353MOL0     H46562   7.442   8.194   8.598  0.4187 -2.4234  0.2089
  353MOL0     H46563   7.398   8.053   8.518  0.8907  0.2159  3.7503
  353MOL0     H46564   7.180   8.128   8.468 -3.7938  1.8324  1.9455
  353MOL0     H46565   7.223   8.296   8.475 -0.3439  0.5633  0.7856
  353MOL0     H46566   7.197   8.302   8.698 -1.4146 -0.0041 -0.9179
  353MOL0     H46567   7.206   8.124   8.723 -0.7854 -1.4384 -2.5525
  353MOL0     H46568   6.984   8.243   8.546 -2.9692  2.5093  3.0412
  353MOL0     H46569   7.018   8.078   8.589 -0.5393  0.0042 -1.2744
  353MOL0     H46570   6.986   8.295   8.800  2.2273  0.7148 -2.6422
  353MOL0     H46571   6.967   8.121   8.818  2.9630  0.7791 -0.3530
  353MOL0     H46572   6.787   8.159   8.622 -4.4911  1.1095  0.2745
  353MOL0     H46573   6.785   8.323   8.664 -4.4522  0.1783  0.2441
  353MOL0     H46574   6.765   8.116   8.886  1.6785 -0.4040 -1.3562
  353MOL0     H46575   6.712   8.288   8.900 -2.8272 -1.6105  2.1563
  353MOL0     H46576   6.511   8.141   8.885 -1.2694  0.3382  0.0755
  353MOL0     H46577   6.586   8.059   8.750 -0.0615 -0.5115 -0.2579
  353MOL0     H46578   7.595   8.015   8.397  0.3429  0.3350  1.3569
  353MOL0     H46579   7.841   8.026   8.408 -0.1083  0.0280  1.6126
  353MOL0     H46580   8.312   8.059   8.242  0.5708 -2.2597  0.1396
  353MOL0     H46581   8.529   8.075   8.315 -2.3263 -2.6951 -1.1556
  353MOL0     H46582  10.463   8.615   8.161 -0.4917  0.1824  0.5170
  353MOL0     H46583  10.658   8.517   8.238  0.6227 -1.1346  3.5737
  353MOL0     H46584  10.964   7.974   8.164  1.8880  0.5268 -0.6126
  353MOL0     H46585  11.179   7.924   8.274  3.6632  0.6109  0.0561
  353MOL0     H46586  11.441   7.968   8.314 -0.1600  0.8303  0.7664
  353MOL0     H46587  11.318   7.889   8.424  0.4512 -0.1503 -0.6565
  353MOL0     H46588  11.567   8.053   8.514  0.9823 -1.1724 -0.7042
  353MOL0     H46589  11.443   7.973   8.619  0.8910  0.1378  0.4547
  353MOL0     H46590  11.630   7.832   8.434  2.6204  3.0258  0.8021
  353MOL0     H46591  11.541   7.751   8.568  3.4664 -3.3336 -0.8332
  353MOL0     H46592  11.769   7.957   8.615  1.3664 -1.0619  0.1150
  353MOL0     H46593  11.643   7.887   8.727 -1.0625  0.1839 -1.6966
  353MOL0     H46594  11.905   7.571   8.702  0.4606  0.1367 -0.4632
  353MOL0     H46595  11.162   8.305   8.466  0.2880  2.7957 -3.8644
  353MOL0     H46596  10.930   8.326   8.392 -0.9542  0.2127 -1.6246
  354MOL0     O46597   6.296  10.141   5.187 -0.1698 -0.3705  0.2776
  354MOL0     C46598   6.302  10.028   5.229 -0.1144 -0.7735  1.3825
  354MOL0     O46599   6.231   9.972   5.339  0.4643 -0.3043  0.2174
  354MOL0     C46600   6.109  10.027   5.380  0.1886 -0.9048 -0.1252
  354MOL0     C46601   6.063  10.164   5.381  0.0742 -1.4474  0.3395
  354MOL0     C46602   5.940  10.208   5.426 -0.1500 -0.5321  0.1892
  354MOL0     C46603   5.851  10.110   5.469 -0.4030 -0.1789 -0.0594
  354MOL0     O46604   5.725  10.140   5.506  0.6900  0.6582  1.3358
  354MOL0     C46605   5.675  10.273   5.486 -0.2275  0.0480  0.6215
  354MOL0     C46606   5.530  10.287   5.546  0.9086  0.2557 -0.8611
  354MOL0     C46607   5.500  10.239   5.684 -0.3387  0.1396 -0.5535
  354MOL0     C46608   5.352  10.275   5.737 -0.9253 -0.1828  0.0524
  354MOL0     C46609   5.309  10.187   5.852 -0.0759  0.1965 -1.5592
  354MOL0     C46610   5.180  10.229   5.926  0.6220  0.1705 -0.0919
  354MOL0     C46611   5.154  10.151   6.061  0.1240 -0.2214 -0.4153
  354MOL0     C46612   5.144  10.001   6.030 -0.3900 -0.7060 -0.0690
  354MOL0     N46613   5.087   9.929   6.145 -0.3061 -0.3546 -0.1842
  354MOL0     C46614   5.152   9.843   6.222  0.2426  0.0479  0.5581
  354MOL0     C46615   5.079   9.819   6.331 -0.2166  0.6598  1.1885
  354MOL0     C46616   5.122   9.717   6.442  0.8177 -0.1761 -0.5791
  354MOL0     C46617   5.186   9.791   6.563  0.0938 -0.0041  0.0726
  354MOL0     C46618   5.122   9.933   6.604  0.0383  0.4931 -0.3064
  354MOL0     C46619   4.986   9.916   6.668  0.1786 -0.7817  0.1639
  354MOL0     O46620   4.985   9.832   6.782 -0.0006  0.6591 -0.4641
  354MOL0     C46621   4.878   9.848   6.874 -0.6926  0.4997 -0.6178
  354MOL0     C46622   4.763   9.923   6.857  0.0970 -0.5308 -0.8311
  354MOL0     C46623   4.681   9.943   6.974 -0.6802 -0.7212  0.4004
  354MOL0     C46624   4.719   9.895   7.102  0.7335 -0.1596  0.2057
  354MOL0     C46625   4.645   9.937   7.223  0.3721 -0.5023 -0.7186
  354MOL0     O46626   4.516   9.977   7.207  0.7659 -0.1858 -0.6586
  354MOL0     C46627   4.435  10.019   7.308 -0.1444  0.8850  0.5245
  354MOL0     C46628   4.464  10.014   7.449 -0.0565  0.7283 -0.1631
  354MOL0     C46629   4.360  10.059   7.536 -0.6668 -0.0605  0.2642
  354MOL0     C46630   4.236  10.107   7.493  0.4156  0.0954  0.4377
  354MOL0     O46631   4.140  10.152   7.585  0.2832  1.1335  0.1118
  354MOL0     C46632   4.028  10.070   7.584  0.6304  0.2584  0.6661
  354MOL0     C46633   3.948  10.051   7.715  0.3728 -0.1979  0.4472
  354MOL0     C46634   4.043   9.995   7.824  0.6623 -0.3979  0.1696
  354MOL0     C46635   3.970   9.961   7.956 -0.6376  0.1204  0.2157
  354MOL0     C46636   4.054   9.879   8.045 -0.1208  0.2980  0.3532
  354MOL0     C46637   3.979   9.817   8.164  0.4904  0.3017 -0.5179
  354MOL0     C46638   4.073   9.713   8.230  0.3488  0.7562 -0.3988
  354MOL0     C46639   4.005   9.627   8.339 -1.2983  0.0430  0.2272
  354MOL0    Cl46640   3.978   9.736   8.495  0.3240  0.3609  0.3162
  354MOL0     C46641   4.207  10.103   7.353  0.4304  0.1907 -0.1338
  354MOL0     C46642   4.307  10.055   7.265 -0.0671 -0.3409  0.1684
  354MOL0     O46643   4.706   9.932   7.332 -0.3079  0.5886 -0.0527
  354MOL0     C46644   4.830   9.815   7.110  0.2855  0.4115  0.0495
  354MOL0     C46645   4.911   9.792   6.998 -0.1555  0.4490  0.6373
  354MOL0     N46646   4.966   9.888   6.317  0.5793  0.1343 -0.2732
  354MOL0     N46647   4.969   9.954   6.205  0.2336  0.5712 -0.2512
  354MOL0     C46648   5.900   9.978   5.486  0.8708  0.1741  1.0528
  354MOL0     C46649   6.017   9.936   5.437 -0.1802  0.2514  0.1515
  354MOL0     C46650   6.409   9.941   5.167  0.8973  0.3896 -0.5204
  354MOL0     C46651   6.534   9.995   5.130 -0.5222  0.8341  0.2864
  354MOL0     C46652   6.640   9.911   5.092 -0.3294  0.0460 -0.0861
  354MOL0     C46653   6.627   9.771   5.077  0.6592  0.3852 -0.7313
  354MOL0     O46654   6.719   9.676   5.048  0.0942 -0.2543  0.0482
  354MOL0     C46655   6.841   9.732   5.008 -0.1413  0.2125 -0.5839
  354MOL0     C46656   6.951   9.632   5.008 -0.6276 -0.8959 -1.0700
  354MOL0     C46657   7.083   9.713   4.995  0.1991  0.1868  1.2029
  354MOL0     C46658   7.188   9.623   5.041 -0.8443 -0.4559 -0.8735
  354MOL0     C46659   7.319   9.693   5.043  0.9522  0.0768 -0.3278
  354MOL0     C46660   7.428   9.744   5.042 -0.4518  1.0730  0.0288
  354MOL0     C46661   6.498   9.728   5.098  0.2963 -0.2858 -0.7002
  354MOL0     C46662   6.391   9.808   5.142 -1.3114  0.2685  0.1146
  354MOL0     H46663   6.131  10.241   5.345 -0.6213 -0.1026  1.7521
  354MOL0     H46664   5.912  10.313   5.426  3.9055  0.7132  0.0465
  354MOL0     H46665   5.689  10.304   5.381  1.1319  0.6408  0.9467
  354MOL0     H46666   5.737  10.339   5.547  0.5118 -1.3546  1.4175
  354MOL0     H46667   5.460  10.217   5.500  0.3074 -0.4214  1.0145
  354MOL0     H46668   5.486  10.386   5.533  2.5396  0.7752 -3.1020
  354MOL0     H46669   5.573  10.292   5.745 -0.9600 -1.2509  1.4804
  354MOL0     H46670   5.507  10.130   5.684  1.3104  0.1672 -2.4206
  354MOL0     H46671   5.345  10.377   5.773 -1.3623 -0.1449 -0.1380
  354MOL0     H46672   5.275  10.265   5.659 -3.1360  1.9281  1.8198
  354MOL0     H46673   5.374  10.186   5.940 -0.6882  1.7099 -1.0636
  354MOL0     H46674   5.294  10.083   5.822 -0.5840 -0.6293  1.3037
  354MOL0     H46675   5.091  10.225   5.861  0.4768 -2.0113  0.1516
  354MOL0     H46676   5.187  10.335   5.948 -3.5516  0.6225 -0.0955
  354MOL0     H46677   5.229  10.169   6.139 -1.8856 -1.4182  1.9393
  354MOL0     H46678   5.059  10.178   6.108 -0.4672  1.0281 -2.2153
  354MOL0     H46679   5.239   9.952   6.005  2.1085  3.5779  0.1738
  354MOL0     H46680   5.085   9.978   5.940  2.6974  0.4034 -2.5428
  354MOL0     H46681   5.250   9.805   6.195 -0.3345 -2.1491  1.3410
  354MOL0     H46682   5.197   9.651   6.399 -0.0233 -0.5570 -1.4894
  354MOL0     H46683   5.038   9.658   6.480  1.5811  0.1652  1.8073
  354MOL0     H46684   5.291   9.802   6.535 -0.3595 -2.5136 -3.1317
  354MOL0     H46685   5.180   9.719   6.645 -0.5336  0.0117  0.0496
  354MOL0     H46686   5.181   9.994   6.673 -1.6584  1.4620  0.3381
  354MOL0     H46687   5.123  10.001   6.519  3.3298  1.5677  0.4481
  354MOL0     H46688   4.921   9.876   6.589 -0.6081  0.1837  0.2956
  354MOL0     H46689   4.953  10.017   6.694 -0.0316 -0.6191 -0.6914
  354MOL0     H46690   4.726   9.955   6.761 -2.0383 -1.1036 -0.2552
  354MOL0     H46691   4.601  10.017   6.969 -1.0883 -1.0031  2.1169
  354MOL0     H46692   4.558   9.973   7.485  1.2855  2.8726 -1.0259
  354MOL0     H46693   4.377  10.069   7.643  1.0934  0.5784 -0.0489
  354MOL0     H46694   4.061   9.971   7.551  2.3551  1.4033 -1.3025
  354MOL0     H46695   3.955  10.097   7.507 -0.1440 -1.8258  0.6069
  354MOL0     H46696   3.865   9.981   7.702 -0.7955  1.3983 -1.0335
  354MOL0     H46697   3.895  10.137   7.756 -0.0915 -0.3393  0.1374
  354MOL0     H46698   4.123  10.069   7.838  0.3644  0.3139 -1.6345
  354MOL0     H46699   4.088   9.904   7.784 -1.3426 -3.1909  3.7310
  354MOL0     H46700   3.932  10.049   8.009 -0.8009  0.0780  0.1682
  354MOL0     H46701   3.883   9.904   7.924  0.6608 -0.7315 -2.0447
  354MOL0     H46702   4.140   9.942   8.069 -1.5532  2.7255 -0.5238
  354MOL0     H46703   4.077   9.790   7.984  0.4956  1.9069 -1.8920
  354MOL0     H46704   3.891   9.764   8.124  0.3683 -0.1971  0.3839
  354MOL0     H46705   3.946   9.896   8.232 -3.8132 -0.8042 -1.0054
  354MOL0     H46706   4.104   9.655   8.142  0.7897  2.7281 -1.5945
  354MOL0     H46707   4.164   9.754   8.275  1.5792 -1.1447 -1.0124
  354MOL0     H46708   4.051   9.531   8.364 -2.6058 -0.4009  1.0720
  354MOL0     H46709   3.904   9.605   8.303 -1.1144 -2.2800  1.0141
  354MOL0     H46710   4.104  10.120   7.323  0.8961 -0.0686 -2.0418
  354MOL0     H46711   4.295  10.044   7.157  2.1560  1.4376 -0.3175
  354MOL0     H46712   4.845   9.784   7.212  1.4813 -0.9814 -0.5083
  354MOL0     H46713   4.997   9.727   7.005  0.6072  1.0969 -1.7859
  354MOL0     H46714   5.850   9.902   5.546  0.7882  0.4953  1.3902
  354MOL0     H46715   6.048   9.832   5.443  0.4128  0.1858 -2.5974
  354MOL0     H46716   6.562  10.098   5.149  0.8457  0.1630  2.2388
  354MOL0     H46717   6.731   9.968   5.076 -0.3150  0.4424  1.2472
  354MOL0     H46718   6.871   9.806   5.084 -1.6207 -0.3054  0.5526
  354MOL0     H46719   6.838   9.788   4.914  2.8914 -1.3566 -1.7647
  354MOL0     H46720   6.949   9.588   5.108 -0.1979  1.6130  0.1412
  354MOL0     H46721   6.928   9.558   4.932  1.4814 -0.2613 -2.4070
  354MOL0     H46722   7.074   9.802   5.058  0.0773 -1.6097  3.8971
  354MOL0     H46723   7.104   9.746   4.893  0.0721  0.1706  1.1728
  354MOL0     H46724   7.166   9.586   5.142  0.8005  0.3631 -0.1870
  354MOL0     H46725   7.204   9.535   4.978  2.0463 -0.0343 -0.8425
  354MOL0     H46726   7.522   9.796   5.038  0.4733 -0.6149 -2.2796
  354MOL0     H46727   6.486   9.620   5.090  1.0747 -0.6495  1.9486
  354MOL0     H46728   6.297   9.763   5.171  0.0698 -2.6641  0.4161
  355MOL0     O46729  10.833   7.255   0.345 -0.0426 -0.5744 -0.6859
  355MOL0     C46730  10.823   7.185   0.249 -0.6156  0.9098  0.4946
  355MOL0     O46731  10.714   7.178   0.167 -0.7651  0.4051  0.2746
  355MOL0     C46732  10.604   7.242   0.197 -0.0210  0.6799  0.3580
  355MOL0     C46733  10.528   7.201   0.309 -0.7907 -1.3309 -0.6783
  355MOL0     C46734  10.404   7.255   0.340 -0.9269 -1.2013 -0.5698
  355MOL0     C46735  10.345   7.349   0.251 -0.4064  0.0798  0.1320
  355MOL0     O46736  10.215   7.391   0.285 -0.0048  0.0885  0.1831
  355MOL0     C46737  10.134   7.423   0.167 -0.2072  0.1227 -0.4055
  355MOL0     C46738   9.989   7.413   0.206  0.8750 -0.1266  0.0717
  355MOL0     C46739   9.937   7.530   0.298 -0.6196  0.7122 -0.5142
  355MOL0     C46740   9.933   7.659   0.222 -0.7151 -0.0472  0.3473
  355MOL0     C46741   9.865   7.773   0.295 -1.0387 -0.2987 -0.7402
  355MOL0     C46742   9.939   7.807   0.431  0.6463 -0.8079 -0.1504
  355MOL0     C46743   9.894   7.950   0.473  0.9574 -0.7469 -0.0426
  355MOL0     C46744   9.941   7.993   0.618 -0.7415  0.4536  0.4300
  355MOL0     N46745  10.087   7.995   0.614 -0.2045 -0.3507 -1.0344
  355MOL0     C46746  10.160   8.092   0.540 -0.3251 -0.9340  0.3941
  355MOL0     C46747  10.293   8.064   0.564  0.2600 -0.7259 -0.9238
  355MOL0     C46748  10.407   8.153   0.530  0.6748  0.1247 -0.5930
  355MOL0     C46749  10.529   8.092   0.464  0.3620 -0.1683  0.2991
  355MOL0     C46750  10.657   8.179   0.441 -0.3205  0.7752  0.5083
  355MOL0     C46751  10.736   8.106   0.333 -0.2296  0.3830 -0.0186
  355MOL0     O46752  10.859   8.161   0.366 -0.5243 -0.1217 -0.7200
  355MOL0     C46753  10.978   8.108   0.314  0.5033 -0.4720  0.5595
  355MOL0     C46754  11.086   8.173   0.360  0.7441  1.1556 -0.0525
  355MOL0     C46755  11.211   8.150   0.326 -0.4549 -0.6265 -1.2306
  355MOL0     C46756  11.243   8.038   0.250  1.1214 -0.1375 -0.0912
  355MOL0     C46757  11.379   7.987   0.225  0.5912 -0.1299  0.6126
  355MOL0     O46758  11.485   8.077   0.220 -0.1499 -0.0939 -0.5518
  355MOL0     C46759  11.606   8.016   0.188  1.0693 -0.6262  0.1622
  355MOL0     C46760  11.705   8.007   0.283  0.1398 -0.0950  0.2485
  355MOL0     C46761  11.833   7.980   0.244 -1.3763  0.2489 -0.2862
  355MOL0     C46762  11.879   7.941   0.115  0.3603  0.3909 -0.4989
  355MOL0     O46763  11.999   7.890   0.092 -0.4265 -0.7203  0.1569
  355MOL0     C46764  12.034   7.864  -0.044  0.3125  0.1578  0.4614
  355MOL0     C46765  12.163   7.791  -0.040  0.1517  0.1805 -0.1686
  355MOL0     C46766  12.286   7.869  -0.000  0.4186  0.4469 -0.4585
  355MOL0     C46767  12.369   7.894  -0.130  0.2905 -0.5206 -0.5130
  355MOL0     C46768  12.486   7.995  -0.102 -0.3189 -0.3313 -0.6439
  355MOL0     C46769  12.590   7.947   0.006  0.7250 -1.2536 -0.2756
  355MOL0     C46770  12.703   8.046   0.030  0.1813 -0.1219  1.3099
  355MOL0     C46771  12.805   8.028   0.133  0.3488  0.9125  0.3190
  355MOL0    Cl46772  12.879   7.867   0.120  0.0606 -0.2609  0.0570
  355MOL0     C46773  11.771   7.941   0.021  0.4438  0.4109 -0.5008
  355MOL0     C46774  11.639   7.979   0.060 -0.1587 -0.1025  0.9766
  355MOL0     O46775  11.390   7.870   0.198  0.8855 -0.1676  0.2457
  355MOL0     C46776  11.124   7.967   0.194  0.6890  0.0166 -0.2098
  355MOL0     C46777  10.993   8.004   0.234  0.1562  0.7218  0.9210
  355MOL0     N46778  10.294   7.950   0.639 -1.0796  0.2631 -0.3572
  355MOL0     N46779  10.176   7.908   0.672  0.2083  0.6828  0.0417
  355MOL0     C46780  10.419   7.386   0.132  0.0113 -0.2689  0.7036
  355MOL0     C46781  10.549   7.328   0.108  1.0462  0.5199  0.0176
  355MOL0     C46782  10.932   7.094   0.210  0.8430  0.6910  0.0410
  355MOL0     C46783  10.928   7.013   0.095 -0.3194  0.2830  1.3382
  355MOL0     C46784  11.034   6.933   0.059 -0.3415 -0.0878  0.1652
  355MOL0     C46785  11.147   6.930   0.141 -0.1232 -0.0168  0.4540
  355MOL0     O46786  11.253   6.851   0.102  0.4335  0.1220 -1.0433
  355MOL0     C46787  11.365   6.820   0.188  0.1539  0.2279 -0.0308
  355MOL0     C46788  11.459   6.727   0.114  0.2982  0.8615 -0.1633
  355MOL0     C46789  11.589   6.700   0.187  0.3322 -0.4685 -0.9029
  355MOL0     C46790  11.693   6.804   0.136 -0.4656 -0.5193  0.2574
  355MOL0     C46791  11.798   6.814   0.238  0.4280 -0.3471 -0.0274
  355MOL0     C46792  11.894   6.815   0.318 -0.6548 -0.3170  0.2655
  355MOL0     C46793  11.154   7.016   0.248  0.1050  0.2066  0.4136
  355MOL0     C46794  11.053   7.099   0.275 -0.1292 -0.1352 -1.2939
  355MOL0     H46795  10.573   7.134   0.382 -0.6631  0.4379  0.9475
  355MOL0     H46796  10.353   7.211   0.425 -2.0870  0.4054 -0.3761
  355MOL0     H46797  10.150   7.353   0.085  1.5569 -1.0078  0.8307
  355MOL0     H46798  10.159   7.523   0.128  1.3867  0.6407  1.7297
  355MOL0     H46799   9.960   7.324   0.262 -2.0106  2.8061  3.7505
  355MOL0     H46800   9.929   7.413   0.115  2.0675  3.9758 -0.9233
  355MOL0     H46801  10.004   7.529   0.384 -0.6765 -0.1725 -0.4724
  355MOL0     H46802   9.833   7.519   0.329 -0.3255  0.3052  0.3450
  355MOL0     H46803  10.032   7.694   0.194 -1.0140  0.0466 -0.6144
  355MOL0     H46804   9.877   7.631   0.132  2.8342  1.4262 -2.5484
  355MOL0     H46805   9.757   7.754   0.307 -1.8287  3.2016 -1.1912
  355MOL0     H46806   9.864   7.855   0.223 -1.8937 -0.8020 -1.3219
  355MOL0     H46807  10.048   7.803   0.423  1.0402  0.6567  3.0162
  355MOL0     H46808   9.908   7.731   0.503  0.7088 -1.9427 -1.2694
  355MOL0     H46809   9.921   8.026   0.399 -0.6578  0.0182  0.0987
  355MOL0     H46810   9.785   7.958   0.478  0.6792 -3.9518  1.1147
  355MOL0     H46811   9.903   7.921   0.691 -0.3104  1.5238  1.7572
  355MOL0     H46812   9.890   8.087   0.643 -2.1866  0.4515 -2.1800
  355MOL0     H46813  10.126   8.172   0.475  0.0999 -0.3844  0.8255
  355MOL0     H46814  10.442   8.207   0.618 -1.4263  1.5376 -0.5750
  355MOL0     H46815  10.377   8.225   0.454  0.2298  1.8974  1.1911
  355MOL0     H46816  10.489   8.063   0.367  2.1086 -0.8664 -0.2471
  355MOL0     H46817  10.572   8.002   0.508  0.4311  0.0280  0.6447
  355MOL0     H46818  10.631   8.274   0.394  0.4750  0.1740 -1.2255
  355MOL0     H46819  10.710   8.186   0.537 -0.9761 -1.8971  1.1563
  355MOL0     H46820  10.696   8.134   0.235 -2.6869 -4.2383 -0.6145
  355MOL0     H46821  10.744   7.997   0.331  1.2617  0.4689  0.0908
  355MOL0     H46822  11.073   8.242   0.444 -1.2396 -0.9949  1.5361
  355MOL0     H46823  11.292   8.198   0.380 -1.9288  0.5095  0.0294
  355MOL0     H46824  11.678   8.053   0.377  1.2790 -0.6578  0.8770
  355MOL0     H46825  11.916   7.982   0.314 -0.9304  3.3333 -0.7589
  355MOL0     H46826  12.036   7.956  -0.104 -1.2775  1.0879  1.7417
  355MOL0     H46827  11.964   7.792  -0.088 -0.6811  0.0061  2.2063
  355MOL0     H46828  12.171   7.743  -0.138 -1.2020  0.3483 -0.3737
  355MOL0     H46829  12.151   7.713   0.036 -0.9044 -1.3681 -1.8485
  355MOL0     H46830  12.356   7.804   0.053  1.1048 -0.1666 -2.0648
  355MOL0     H46831  12.262   7.964   0.050 -0.6708 -0.7115  1.3437
  355MOL0     H46832  12.415   7.806  -0.176 -2.0451 -0.1119 -4.0581
  355MOL0     H46833  12.304   7.942  -0.204 -0.1545 -0.4849 -0.1013
  355MOL0     H46834  12.433   8.081  -0.060  0.6962  0.8087 -1.6416
  355MOL0     H46835  12.544   8.019  -0.191 -0.2388 -3.4245 -1.5473
  355MOL0     H46836  12.625   7.849  -0.027  3.1955  0.2712 -2.6538
  355MOL0     H46837  12.536   7.940   0.100 -1.4044  0.8072 -1.2421
  355MOL0     H46838  12.756   8.071  -0.062 -0.8931  0.6183  0.8610
  355MOL0     H46839  12.638   8.132   0.053  0.3768  0.0805  1.1002
  355MOL0     H46840  12.756   8.038   0.230  0.5608  0.0217  0.5310
  355MOL0     H46841  12.882   8.106   0.130 -1.8886  3.2225 -0.9922
  355MOL0     H46842  11.783   7.902  -0.079 -5.4074 -2.5935 -0.4467
  355MOL0     H46843  11.563   7.988  -0.018  0.4110  0.9824  0.5278
  355MOL0     H46844  11.144   7.888   0.124 -2.6490  0.5943 -2.0217
  355MOL0     H46845  10.907   7.947   0.201  1.5934 -0.4936 -0.9542
  355MOL0     H46846  10.376   7.457   0.062 -2.1649 -0.4012  1.7995
  355MOL0     H46847  10.606   7.352   0.019  1.9159 -0.0312  0.4102
  355MOL0     H46848  10.849   7.019   0.021  0.9300  2.6222  0.0826
  355MOL0     H46849  11.034   6.874  -0.033 -1.0336  3.2824 -2.1714
  355MOL0     H46850  11.331   6.764   0.276 -2.1625  0.8891 -0.4320
  355MOL0     H46851  11.414   6.911   0.225 -0.6061  0.7435 -0.2690
  355MOL0     H46852  11.406   6.632   0.106 -1.3041  1.7580 -0.4875
  355MOL0     H46853  11.471   6.764   0.012 -0.2538 -4.1040 -2.2721
  355MOL0     H46854  11.625   6.599   0.169 -1.4732 -1.5631  1.1093
  355MOL0     H46855  11.572   6.720   0.293  2.0813  2.0517 -1.0232
  355MOL0     H46856  11.737   6.777   0.040 -0.9190  0.0229 -0.1134
  355MOL0     H46857  11.642   6.898   0.112 -2.1348 -1.4629 -0.0338
  355MOL0     H46858  11.969   6.795   0.392 -0.0391 -2.7088 -0.9109
  355MOL0     H46859  11.242   7.037   0.308 -1.0442  2.7656  1.3402
  355MOL0     H46860  11.077   7.166   0.357  0.6692  2.1345 -3.2554
  356MOL0     O46861   3.015   8.990   1.413  0.3295 -0.0513 -0.5090
  356MOL0     C46862   2.957   8.954   1.313 -0.8218  0.4148  0.4610
  356MOL0     O46863   3.014   8.962   1.184  0.1294 -0.0955 -0.1116
  356MOL0     C46864   3.140   9.026   1.174 -0.1510  0.3924 -0.4772
  356MOL0     C46865   3.153   9.054   1.036  0.7437  0.4589  0.7110
  356MOL0     C46866   3.263   9.122   0.991  0.4118  0.3605  0.7410
  356MOL0     C46867   3.362   9.159   1.084  0.1301  0.5330 -0.9258
  356MOL0     O46868   3.485   9.224   1.060  0.1688  0.2879 -0.0644
  356MOL0     C46869   3.512   9.308   0.943 -0.4200  0.2045 -1.3570
  356MOL0     C46870   3.647   9.267   0.890 -0.3566  0.9305 -0.1808
  356MOL0     C46871   3.758   9.319   0.987 -0.2696  0.0067  0.4195
  356MOL0     C46872   3.895   9.272   0.940  0.6986 -0.0970 -0.1314
  356MOL0     C46873   4.011   9.312   1.037  0.6779 -0.3093 -0.7440
  356MOL0     C46874   4.153   9.279   0.987 -0.6682  0.3403 -0.9491
  356MOL0     C46875   4.255   9.314   1.103 -0.8608  0.2183  0.3530
  356MOL0     C46876   4.253   9.246   1.233 -0.0687  1.1511  0.3328
  356MOL0     N46877   4.188   9.313   1.345 -0.2650  0.1064 -0.3305
  356MOL0     C46878   4.227   9.428   1.409 -0.9747 -0.3214 -0.7405
  356MOL0     C46879   4.167   9.426   1.528 -0.1136 -0.0337 -0.2394
  356MOL0     C46880   4.184   9.543   1.617  0.8923  0.6564 -0.3603
  356MOL0     C46881   4.055   9.629   1.612 -0.1955 -0.1627 -0.4573
  356MOL0     C46882   4.043   9.731   1.723  0.5394 -0.6823 -0.3804
  356MOL0     C46883   3.954   9.703   1.847  1.1108  0.0077  0.2924
  356MOL0     O46884   3.821   9.666   1.810 -0.4555 -0.3619  0.0560
  356MOL0     C46885   3.706   9.691   1.886 -0.0317 -0.1342 -0.5899
  356MOL0     C46886   3.584   9.668   1.823  0.5421 -1.0612  0.2918
  356MOL0     C46887   3.460   9.703   1.891 -0.2586  0.1265  0.8303
  356MOL0     C46888   3.468   9.769   2.012 -0.2689 -0.2660  0.9261
  356MOL0     C46889   3.340   9.811   2.079  0.1304 -0.5122 -0.1895
  356MOL0     O46890   3.217   9.790   2.019 -0.6444 -0.4804  0.5655
  356MOL0     C46891   3.106   9.842   2.079 -0.8522 -0.0579 -0.5451
  356MOL0     C46892   3.041   9.758   2.163  0.1845  0.1183  0.6851
  356MOL0     C46893   2.917   9.784   2.225 -0.1335  0.2852 -0.3129
  356MOL0     C46894   2.852   9.911   2.211  0.1855 -0.9787  0.7121
  356MOL0     O46895   2.737   9.969   2.272  0.8833  0.3067  0.0131
  356MOL0     C46896   2.633   9.880   2.330 -1.1367 -0.5578  0.6528
  356MOL0     C46897   2.562   9.792   2.225 -0.8244 -0.2954  0.3035
  356MOL0     C46898   2.435   9.718   2.276 -0.4192  0.3347  0.4650
  356MOL0     C46899   2.464   9.614   2.384 -0.1622 -0.6748  0.7565
  356MOL0     C46900   2.342   9.531   2.420 -0.2703 -0.7252 -0.0996
  356MOL0     C46901   2.218   9.595   2.490 -0.0103  0.5226  0.2666
  356MOL0     C46902   2.140   9.490   2.580 -0.2936  0.3420 -0.7143
  356MOL0     C46903   2.017   9.558   2.644 -0.0259 -0.4595 -0.2520
  356MOL0    Cl46904   1.923   9.438   2.744  0.2091 -0.4860  0.2686
  356MOL0     C46905   2.918   9.996   2.120 -0.4174 -0.6738  1.0661
  356MOL0     C46906   3.040   9.955   2.058 -0.1022 -0.0882  1.0484
  356MOL0     O46907   3.358   9.860   2.196 -0.4768  0.0751  0.5082
  356MOL0     C46908   3.593   9.779   2.074 -0.0974  0.1587  0.2323
  356MOL0     C46909   3.706   9.755   2.008 -0.7096  0.4885  0.3530
  356MOL0     N46910   4.093   9.309   1.544 -0.0549 -0.7112  0.1644
  356MOL0     N46911   4.110   9.243   1.437  0.7996 -0.0784 -1.0351
  356MOL0     C46912   3.350   9.124   1.221 -0.1231 -0.2022 -0.2690
  356MOL0     C46913   3.238   9.058   1.267  0.0216  0.0029  0.8508
  356MOL0     C46914   2.817   8.900   1.326 -0.5544  0.5440  0.3295
  356MOL0     C46915   2.732   8.886   1.215 -0.0525  1.0878  1.1854
  356MOL0     C46916   2.611   8.825   1.222 -0.8344  0.1414  0.6574
  356MOL0     C46917   2.564   8.774   1.343  0.4372 -0.0933 -0.7051
  356MOL0     O46918   2.435   8.723   1.345 -0.1629  0.0992  0.4963
  356MOL0     C46919   2.360   8.708   1.464  0.2927 -0.1131  1.0478
  356MOL0     C46920   2.212   8.695   1.417 -0.2571 -0.6326  0.5767
  356MOL0     C46921   2.114   8.724   1.525  0.4776 -0.4498  0.0696
  356MOL0     C46922   1.972   8.678   1.477 -0.0978  0.6861  0.0629
  356MOL0     C46923   1.902   8.768   1.385 -1.0194  1.3388 -0.2322
  356MOL0     C46924   1.832   8.829   1.317 -0.6394  0.0188  0.6848
  356MOL0     C46925   2.641   8.787   1.456 -0.7319  0.7673 -0.0952
  356MOL0     C46926   2.763   8.862   1.450  0.0027 -0.5697 -0.5907
  356MOL0     H46927   3.079   9.019   0.966 -0.3066 -1.8626  2.8314
  356MOL0     H46928   3.276   9.155   0.888 -1.0650 -1.3152 -0.0393
  356MOL0     H46929   3.499   9.415   0.962 -1.8253 -0.0992 -0.4489
  356MOL0     H46930   3.442   9.300   0.859  2.3286  0.7567 -3.8442
  356MOL0     H46931   3.658   9.320   0.795 -2.0869 -0.0723 -0.9810
  356MOL0     H46932   3.662   9.162   0.866 -1.4280  0.7300  0.0075
  356MOL0     H46933   3.743   9.283   1.089 -3.9505 -0.2357 -0.0863
  356MOL0     H46934   3.760   9.428   0.986  0.5342  0.0044 -0.6274
  356MOL0     H46935   3.883   9.164   0.935 -2.8492  0.0843  1.4417
  356MOL0     H46936   3.924   9.308   0.841 -2.5236  0.9894 -0.8059
  356MOL0     H46937   3.989   9.279   1.139  1.9522  2.3708  0.5015
  356MOL0     H46938   3.998   9.420   1.051 -0.7514 -0.8465  3.7255
  356MOL0     H46939   4.178   9.339   0.899 -2.9275 -1.1184 -2.7111
  356MOL0     H46940   4.157   9.174   0.958 -0.6456 -0.2107  0.9269
  356MOL0     H46941   4.354   9.304   1.058 -0.6489  3.3601 -0.0705
  356MOL0     H46942   4.246   9.421   1.120 -0.6166  0.6168 -1.8231
  356MOL0     H46943   4.358   9.225   1.257 -0.7240 -2.3111  0.7626
  356MOL0     H46944   4.199   9.152   1.218 -2.1618  2.2744  0.4761
  356MOL0     H46945   4.300   9.501   1.377  0.8832 -1.9610 -0.4065
  356MOL0     H46946   4.274   9.593   1.580  0.6340 -0.2068 -2.2699
  356MOL0     H46947   4.196   9.513   1.721  1.5356  0.2870 -0.5401
  356MOL0     H46948   3.971   9.560   1.618 -0.3581  0.1432  2.5676
  356MOL0     H46949   4.047   9.692   1.523  1.5319  1.0573  0.1870
  356MOL0     H46950   4.144   9.758   1.755 -0.3827 -0.4259  2.7219
  356MOL0     H46951   4.010   9.824   1.675  0.1635  0.3170  1.6820
  356MOL0     H46952   3.954   9.795   1.906 -2.2503  1.7519 -2.1296
  356MOL0     H46953   4.000   9.632   1.917 -1.5018  0.2259  2.3754
  356MOL0     H46954   3.591   9.606   1.734 -2.4325  1.6505 -2.0956
  356MOL0     H46955   3.363   9.670   1.856  0.0075 -1.1038  1.2118
  356MOL0     H46956   3.075   9.655   2.174 -0.2555 -0.2913 -1.4486
  356MOL0     H46957   2.870   9.711   2.290 -2.3989  1.7136 -0.2476
  356MOL0     H46958   2.559   9.938   2.386  2.1395  1.9464  2.7623
  356MOL0     H46959   2.682   9.806   2.395 -1.9154 -2.2531 -0.6067
  356MOL0     H46960   2.643   9.726   2.192  0.4105 -0.6035  3.5929
  356MOL0     H46961   2.536   9.846   2.133  0.6855  0.0652  0.0528
  356MOL0     H46962   2.395   9.665   2.189 -1.2955  2.1512 -0.2947
  356MOL0     H46963   2.368   9.796   2.314  0.3317  0.9319  0.5915
  356MOL0     H46964   2.552   9.557   2.354 -0.3056 -0.1017 -0.8480
  356MOL0     H46965   2.504   9.670   2.468  0.2030  1.0400 -0.4977
  356MOL0     H46966   2.382   9.459   2.492 -0.4756  2.2495  3.2455
  356MOL0     H46967   2.322   9.480   2.325  2.5529 -0.4608 -0.9554
  356MOL0     H46968   2.145   9.628   2.415 -1.6990 -1.2660  1.0091
  356MOL0     H46969   2.252   9.673   2.559  0.9165  1.6853 -1.4297
  356MOL0     H46970   2.104   9.409   2.515 -1.2386 -1.5516  2.0097
  356MOL0     H46971   2.202   9.444   2.657  2.7904  2.9039 -1.4695
  356MOL0     H46972   1.959   9.601   2.563 -0.9360 -0.1401  0.5541
  356MOL0     H46973   2.037   9.648   2.703 -2.0234  0.9246 -1.5946
  356MOL0     H46974   2.865  10.087   2.092  2.4539  0.5323 -0.9275
  356MOL0     H46975   3.072  10.035   1.991 -1.2568  0.1480  0.7518
  356MOL0     H46976   3.586   9.824   2.173 -2.4053  0.3206  0.0476
  356MOL0     H46977   3.794   9.786   2.064 -1.5327  1.9648  0.8788
  356MOL0     H46978   3.428   9.135   1.296 -0.5060 -0.4775  0.1754
  356MOL0     H46979   3.233   9.023   1.370 -1.1116  0.2301  0.8810
  356MOL0     H46980   2.755   8.913   1.112 -0.7661 -2.5265 -0.0736
  356MOL0     H46981   2.539   8.830   1.141 -2.9163  2.1156  2.4911
  356MOL0     H46982   2.383   8.780   1.543  3.4817 -1.1163  1.1791
  356MOL0     H46983   2.382   8.609   1.505  2.2563  0.0329  0.4583
  356MOL0     H46984   2.200   8.778   1.348  2.0604  0.5765  1.5119
  356MOL0     H46985   2.199   8.593   1.379 -0.2884 -0.5948  0.4856
  356MOL0     H46986   2.102   8.832   1.532 -2.1123 -0.7475  1.3583
  356MOL0     H46987   2.138   8.679   1.622  0.6403 -3.5732 -1.3019
  356MOL0     H46988   1.987   8.575   1.443 -0.5097 -0.1892  2.3720
  356MOL0     H46989   1.907   8.672   1.565 -2.1517 -0.3043 -1.4451
  356MOL0     H46990   1.769   8.900   1.267  1.0666  3.2011  2.6984
  356MOL0     H46991   2.626   8.736   1.551  0.0256 -1.8824 -1.3136
  356MOL0     H46992   2.833   8.870   1.532  1.7631  1.2771 -2.1329
  357MOL0     O46993   3.437   7.110   1.258  1.0203 -0.0308 -0.3070
  357MOL0     C46994   3.481   7.220   1.277  0.2075 -0.4976  0.6846
  357MOL0     O46995   3.401   7.326   1.319  0.6915  0.1537 -0.1999
  357MOL0     C46996   3.266   7.302   1.351 -0.1085  0.1661 -0.0277
  357MOL0     C46997   3.171   7.394   1.293 -1.0464 -0.3740  0.5060
  357MOL0     C46998   3.037   7.387   1.320  0.1126  0.0716  0.4017
  357MOL0     C46999   2.993   7.284   1.411 -0.5732 -0.7500  0.3516
  357MOL0     O47000   2.864   7.267   1.443  0.3977  0.5049 -0.4509
  357MOL0     C47001   2.761   7.334   1.373  0.0363  0.4943  0.2324
  357MOL0     C47002   2.622   7.330   1.448  0.3498 -0.7256 -0.1386
  357MOL0     C47003   2.576   7.184   1.482 -0.4062  0.1697  0.0050
  357MOL0     C47004   2.426   7.179   1.525  0.1407  0.0625  0.3767
  357MOL0     C47005   2.332   7.170   1.406  0.5470  0.3798 -0.0528
  357MOL0     C47006   2.191   7.162   1.448  0.2476  0.1201 -0.2472
  357MOL0     C47007   2.127   7.276   1.530  0.2508 -0.3456  0.6365
  357MOL0     C47008   2.140   7.410   1.451  0.3974 -0.2685 -0.0249
  357MOL0     N47009   2.046   7.413   1.340  0.1292 -0.0295 -0.3214
  357MOL0     C47010   1.907   7.424   1.352  0.3072  0.3569  0.6308
  357MOL0     C47011   1.858   7.446   1.230  0.8543 -0.3171  0.3971
  357MOL0     C47012   1.729   7.501   1.185  0.6658  0.1030 -0.1051
  357MOL0     C47013   1.646   7.387   1.114  0.0102 -0.3404  0.4072
  357MOL0     C47014   1.538   7.446   1.017 -0.3081  0.2673 -0.6081
  357MOL0     C47015   1.403   7.458   1.077  0.3611 -1.1636 -0.4761
  357MOL0     O47016   1.389   7.559   1.185 -0.2434  0.5132  0.7202
  357MOL0     C47017   1.262   7.598   1.227  0.6327 -0.0291  0.2626
  357MOL0     C47018   1.139   7.532   1.188  0.9242 -0.4548  0.0413
  357MOL0     C47019   1.020   7.582   1.227 -0.2336 -0.2120  0.1824
  357MOL0     C47020   1.007   7.689   1.309 -1.0080 -0.3877 -0.3818
  357MOL0     C47021   0.877   7.728   1.363  0.0385  0.4658  0.0121
  357MOL0     O47022   0.777   7.735   1.279  0.2455 -0.5498 -0.5176
  357MOL0     C47023   0.650   7.712   1.330  0.5104  1.0580 -0.4327
  357MOL0     C47024   0.572   7.605   1.288 -0.2592 -0.1792  0.6043
  357MOL0     C47025   0.460   7.579   1.352  0.9034  0.3227 -0.1692
  357MOL0     C47026   0.395   7.665   1.454 -0.0147  0.2148 -0.1221
  357MOL0     O47027   0.277   7.625   1.496  0.1909 -0.0111 -0.2007
  357MOL0     C47028   0.206   7.702   1.590 -0.3604  0.2808  0.8692
  357MOL0     C47029   0.095   7.625   1.653 -0.1663  0.2500 -0.0686
  357MOL0     C47030   0.000   7.556   1.555 -0.2704 -0.3420 -0.3365
  357MOL0     C47031  -0.139   7.555   1.631 -0.3048  1.2843 -0.0067
  357MOL0     C47032  -0.235   7.510   1.520  0.1461  0.4224  0.5838
  357MOL0     C47033  -0.387   7.529   1.565 -0.5310  0.2335  0.1488
  357MOL0     C47034  -0.485   7.488   1.453  0.0897  0.6321 -0.2933
  357MOL0     C47035  -0.625   7.459   1.514  0.1313 -0.0069  0.4306
  357MOL0    Cl47036  -0.659   7.279   1.512 -0.2515  0.6650 -0.1962
  357MOL0     C47037   0.469   7.780   1.484  0.0110 -0.0956  0.6419
  357MOL0     C47038   0.601   7.799   1.426 -0.4443 -0.4488  0.3941
  357MOL0     O47039   0.875   7.746   1.483  0.4821  0.7610  0.2292
  357MOL0     C47040   1.130   7.747   1.357 -0.5230  0.1543 -0.2363
  357MOL0     C47041   1.253   7.699   1.317  0.1834 -0.5385 -1.1760
  357MOL0     N47042   1.966   7.438   1.142 -0.1130  0.5760 -0.3649
  357MOL0     N47043   2.072   7.422   1.207  0.1227  0.6809 -0.1657
  357MOL0     C47044   3.091   7.192   1.466  0.0703  0.4311  0.7924
  357MOL0     C47045   3.225   7.205   1.434 -0.4403  0.1384 -0.0193
  357MOL0     C47046   3.627   7.253   1.257 -0.3110 -0.2913 -1.0272
  357MOL0     C47047   3.689   7.373   1.299  0.3503 -0.8440 -0.3361
  357MOL0     C47048   3.822   7.391   1.298  0.8297  0.0999  0.8425
  357MOL0     C47049   3.909   7.286   1.262  0.0877 -0.4767 -0.0077
  357MOL0     O47050   4.038   7.291   1.289  0.6416  0.3365  0.1834
  357MOL0     C47051   4.106   7.373   1.192 -0.0455  0.2808 -0.1615
  357MOL0     C47052   4.208   7.295   1.110 -0.1862  0.5048 -0.1893
  357MOL0     C47053   4.257   7.153   1.185 -0.9753 -0.0459  0.2730
  357MOL0     C47054   4.348   7.094   1.096 -0.5937 -0.0480  0.6023
  357MOL0     C47055   4.415   6.973   1.159  0.2570  0.0451  0.5630
  357MOL0     C47056   4.482   6.883   1.202 -0.2250 -0.2785 -0.9248
  357MOL0     C47057   3.851   7.172   1.209  0.1683  0.1356  0.3095
  357MOL0     C47058   3.715   7.149   1.194  0.7001  0.2795 -0.4938
  357MOL0     H47059   3.221   7.467   1.231 -0.5783 -1.6038 -0.6010
  357MOL0     H47060   2.959   7.452   1.281 -2.6951 -2.9328  0.6063
  357MOL0     H47061   2.755   7.287   1.274  1.8086 -0.6654  0.6324
  357MOL0     H47062   2.781   7.442   1.377  0.3101  0.4402  0.3552
  357MOL0     H47063   2.562   7.390   1.378 -0.3363  0.8932  1.7396
  357MOL0     H47064   2.635   7.381   1.544  1.9014 -0.6380 -0.3737
  357MOL0     H47065   2.640   7.140   1.558 -1.6739  0.7367  1.4694
  357MOL0     H47066   2.590   7.119   1.395  0.1329  0.8517 -0.4279
  357MOL0     H47067   2.413   7.095   1.594  0.4167 -0.9822 -0.8051
  357MOL0     H47068   2.405   7.271   1.580 -0.0993  1.4509 -1.8875
  357MOL0     H47069   2.357   7.089   1.336 -0.1985 -1.1701  1.3856
  357MOL0     H47070   2.359   7.253   1.340  5.9998  0.6611  2.0152
  357MOL0     H47071   2.180   7.085   1.526 -4.5476 -2.3570 -2.9010
  357MOL0     H47072   2.119   7.134   1.371 -0.4303  0.1362  0.3696
  357MOL0     H47073   2.019   7.266   1.545  0.1604  0.1036  0.3215
  357MOL0     H47074   2.183   7.284   1.624 -0.0106  0.7553  0.7179
  357MOL0     H47075   2.244   7.428   1.422  0.9188  1.2410  2.4609
  357MOL0     H47076   2.133   7.489   1.526  1.7982 -2.2883  2.3857
  357MOL0     H47077   1.852   7.427   1.445 -2.7630 -4.8640 -0.6137
  357MOL0     H47078   1.733   7.590   1.121  0.4727  0.1045 -0.1178
  357MOL0     H47079   1.676   7.522   1.279 -0.4523 -2.5139 -0.0677
  357MOL0     H47080   1.602   7.324   1.191  1.3535 -0.9172  0.7264
  357MOL0     H47081   1.717   7.326   1.057 -0.6933 -0.6519 -0.1631
  357MOL0     H47082   1.577   7.541   0.981  0.5685  0.7827  1.5236
  357MOL0     H47083   1.527   7.373   0.936  3.0495 -1.0867 -0.0037
  357MOL0     H47084   1.392   7.360   1.124  4.1811 -0.8835  1.4125
  357MOL0     H47085   1.333   7.483   0.997 -0.7059 -3.3331 -0.2865
  357MOL0     H47086   1.139   7.455   1.112  1.3890  1.0286 -1.5386
  357MOL0     H47087   0.930   7.524   1.209  0.1767 -1.3127  1.4704
  357MOL0     H47088   0.618   7.528   1.227 -3.4694 -2.4198  0.7772
  357MOL0     H47089   0.403   7.492   1.320 -1.0425  3.0015 -5.0068
  357MOL0     H47090   0.157   7.791   1.548 -0.4717 -0.5949 -0.9674
  357MOL0     H47091   0.281   7.730   1.664 -0.0308 -1.9041  1.4282
  357MOL0     H47092   0.039   7.690   1.721  0.9050  0.8180  0.2810
  357MOL0     H47093   0.138   7.553   1.723 -2.6614 -3.1852 -1.8133
  357MOL0     H47094   0.031   7.455   1.526 -1.4065 -0.5228 -0.9856
  357MOL0     H47095  -0.007   7.617   1.465  2.7549  2.2565  0.9970
  357MOL0     H47096  -0.142   7.472   1.702 -0.0295  0.1700 -1.2445
  357MOL0     H47097  -0.168   7.646   1.685  1.4773 -0.1243  3.6798
  357MOL0     H47098  -0.219   7.408   1.485 -3.0171  1.3068 -4.3997
  357MOL0     H47099  -0.226   7.583   1.438 -0.9063  0.8250  0.8043
  357MOL0     H47100  -0.419   7.629   1.595  0.8521  0.7826 -0.1445
  357MOL0     H47101  -0.413   7.457   1.643 -2.0583  1.5995  0.9599
  357MOL0     H47102  -0.484   7.576   1.388  2.2464 -1.3536 -3.1992
  357MOL0     H47103  -0.450   7.405   1.390 -1.7094 -1.0438  0.8049
  357MOL0     H47104  -0.701   7.503   1.448 -0.6831 -0.7767  0.8334
  357MOL0     H47105  -0.629   7.502   1.614  0.0177 -0.0445  0.4427
  357MOL0     H47106   0.436   7.852   1.559  1.4767  0.7201  0.5384
  357MOL0     H47107   0.655   7.885   1.463 -2.4415  1.1142 -0.1307
  357MOL0     H47108   1.129   7.830   1.428  0.7914 -0.3456  0.3883
  357MOL0     H47109   1.341   7.751   1.355 -2.1696  2.8480  0.0797
  357MOL0     H47110   3.066   7.112   1.536  0.2092 -1.8190 -1.5931
  357MOL0     H47111   3.295   7.131   1.470 -0.3980  0.2750  0.1773
  357MOL0     H47112   3.622   7.449   1.338  1.5674  0.3472 -0.4755
  357MOL0     H47113   3.868   7.475   1.349  0.8014  0.0313  0.9836
  357MOL0     H47114   4.149   7.466   1.231 -1.0803  0.3382  0.8656
  357MOL0     H47115   4.038   7.400   1.111  2.2532 -0.7925 -2.6290
  357MOL0     H47116   4.171   7.265   1.012 -0.0275 -0.4283  0.0209
  357MOL0     H47117   4.291   7.365   1.096 -0.1994  0.6284  0.3198
  357MOL0     H47118   4.174   7.085   1.206 -0.2637 -1.2318 -0.5935
  357MOL0     H47119   4.301   7.175   1.283 -1.4602 -3.0538  1.2643
  357MOL0     H47120   4.313   7.061   0.998  0.5606 -2.3293  0.8752
  357MOL0     H47121   4.430   7.164   1.080  0.0503 -0.1444  3.1032
  357MOL0     H47122   4.549   6.812   1.246 -3.3626 -2.0698  1.4529
  357MOL0     H47123   3.916   7.096   1.166  2.0777  0.6887  2.0526
  357MOL0     H47124   3.670   7.060   1.153 -0.3831 -0.1879  1.5321
  358MOL0     O47125   7.368   1.930  11.110  0.4987  0.4462 -0.3381
  358MOL0     C47126   7.309   2.032  11.066  0.0989  0.0566 -0.3739
  358MOL0     O47127   7.374   2.135  11.004 -0.4263  0.0583 -0.8522
  358MOL0     C47128   7.507   2.143  11.017 -0.3895 -0.6045 -0.9799
  358MOL0     C47129   7.570   2.174  11.141  1.0661  0.4008 -0.0789
  358MOL0     C47130   7.705   2.187  11.158 -0.3393  0.1803 -0.0613
  358MOL0     C47131   7.784   2.164  11.046  0.3786  0.0231  1.6379
  358MOL0     O47132   7.912   2.179  11.078 -0.2653 -0.7704  0.0550
  358MOL0     C47133   8.024   2.146  10.989 -0.3261 -0.8755  0.8945
  358MOL0     C47134   8.153   2.208  11.046  0.4185  1.5061  0.5417
  358MOL0     C47135   8.271   2.206  10.939  0.2954  0.2362 -0.2062
  358MOL0     C47136   8.401   2.279  10.997 -0.3430 -0.2855  0.0240
  358MOL0     C47137   8.514   2.234  10.911 -0.8517  0.1036  0.2050
  358MOL0     C47138   8.652   2.304  10.953  0.7219 -0.6547  0.0675
  358MOL0     C47139   8.644   2.355  11.099  0.6281  0.3576  0.5764
  358MOL0     C47140   8.769   2.432  11.137  0.1149  0.0750  0.2810
  358MOL0     N47141   8.877   2.341  11.177  0.2692  0.7577  0.3839
  358MOL0     C47142   8.968   2.301  11.088  0.6452  0.2081  0.3997
  358MOL0     C47143   9.053   2.234  11.170 -0.0023  0.0894 -0.3171
  358MOL0     C47144   9.177   2.160  11.130 -0.7413 -0.2232 -0.2753
  358MOL0     C47145   9.278   2.119  11.235  0.6076  1.2735 -0.1724
  358MOL0     C47146   9.351   2.221  11.321 -0.5574 -0.2816 -0.1444
  358MOL0     C47147   9.416   2.160  11.450 -0.4366  0.5277 -0.6993
  358MOL0     O47148   9.488   2.270  11.518  0.7243  0.3260 -0.1746
  358MOL0     C47149   9.417   2.362  11.585 -0.1027 -0.0098 -0.4873
  358MOL0     C47150   9.290   2.357  11.642 -0.0636  0.0861 -0.0419
  358MOL0     C47151   9.234   2.466  11.702 -0.2985  0.0876 -0.5808
  358MOL0     C47152   9.301   2.583  11.706 -0.2477 -0.1414 -0.1536
  358MOL0     C47153   9.237   2.707  11.751 -0.3922  0.8204  0.7160
  358MOL0     O47154   9.327   2.805  11.804  0.1345  0.5443 -0.3437
  358MOL0     C47155   9.265   2.908  11.872 -0.1119  0.0976  0.3494
  358MOL0     C47156   9.333   2.946  11.992  0.1653 -1.0329 -0.7097
  358MOL0     C47157   9.301   3.053  12.070 -1.0811  0.0149  0.2777
  358MOL0     C47158   9.190   3.134  12.029  0.3276  0.1323 -0.1387
  358MOL0     O47159   9.157   3.236  12.103  0.0075 -0.6452  0.0589
  358MOL0     C47160   9.051   3.320  12.081  0.5088 -0.9515  0.9735
  358MOL0     C47161   9.031   3.421  12.196  0.4678  0.2329 -0.5921
  358MOL0     C47162   8.880   3.443  12.229 -1.0303  0.3069  0.0014
  358MOL0     C47163   8.883   3.575  12.312  1.5756  0.0938 -0.9608
  358MOL0     C47164   8.793   3.576  12.430  0.1834  0.1265 -0.7913
  358MOL0     C47165   8.770   3.711  12.486 -0.2644  0.8674  0.3901
  358MOL0     C47166   8.669   3.735  12.602 -0.1535  0.4905 -0.2898
  358MOL0     C47167   8.521   3.758  12.560  0.0760  0.9132 -0.5119
  358MOL0    Cl47168   8.419   3.758  12.712 -0.1120  0.1368  0.2542
  358MOL0     C47169   9.121   3.103  11.908  0.5108 -0.5744 -0.7530
  358MOL0     C47170   9.160   2.994  11.825 -0.5924  0.1780  0.3422
  358MOL0     O47171   9.120   2.702  11.775  0.8856 -0.8753 -0.0952
  358MOL0     C47172   9.433   2.592  11.662 -0.6123  0.7179  0.2541
  358MOL0     C47173   9.486   2.484  11.591 -0.2146 -0.4206  0.5993
  358MOL0     N47174   9.012   2.247  11.300 -0.0061  0.2383  0.3607
  358MOL0     N47175   8.905   2.304  11.309 -0.3841 -0.0250 -0.1085
  358MOL0     C47176   7.729   2.150  10.918 -0.7190 -0.8348  0.1142
  358MOL0     C47177   7.594   2.130  10.905  0.8896  0.1519 -0.0087
  358MOL0     C47178   7.166   2.054  11.068 -0.0875  0.4827 -0.0275
  358MOL0     C47179   7.111   2.158  10.993 -0.1367 -0.2263 -0.4855
  358MOL0     C47180   6.978   2.194  11.014 -0.6038  0.2638  0.2215
  358MOL0     C47181   6.896   2.137  11.107  0.6714 -0.3316 -0.4020
  358MOL0     O47182   6.770   2.197  11.120 -0.7826 -0.1403 -0.2822
  358MOL0     C47183   6.676   2.150  11.228  0.1999 -0.4952  0.2647
  358MOL0     C47184   6.547   2.225  11.219 -0.2894 -0.1829  0.3944
  358MOL0     C47185   6.452   2.183  11.333  0.1730  0.2122 -0.7281
  358MOL0     C47186   6.493   2.240  11.467 -0.8259 -0.0392  0.4973
  358MOL0     C47187   6.406   2.188  11.573  1.3096 -0.5770  0.1638
  358MOL0     C47188   6.311   2.159  11.642 -0.5551  0.7822  0.2947
  358MOL0     C47189   6.944   2.030  11.178  0.0614 -0.1380 -0.2101
  358MOL0     C47190   7.080   1.984  11.162 -0.4311 -0.2593  0.4400
  358MOL0     H47191   7.512   2.187  11.232  0.1962 -1.3601 -0.3280
  358MOL0     H47192   7.754   2.221  11.248 -1.0493  0.9193  0.0579
  358MOL0     H47193   8.006   2.172  10.884  0.6074  0.2398  0.9828
  358MOL0     H47194   8.033   2.037  10.984 -1.9585 -1.0041 -0.0844
  358MOL0     H47195   8.192   2.162  11.138  1.5433  0.7040 -0.3008
  358MOL0     H47196   8.121   2.309  11.072 -1.1761  1.2520 -0.3030
  358MOL0     H47197   8.234   2.258  10.850 -3.1578  0.8604  1.4076
  358MOL0     H47198   8.296   2.104  10.909  3.4567 -0.4284  3.8580
  358MOL0     H47199   8.395   2.388  10.997 -0.0647 -0.1275  3.8601
  358MOL0     H47200   8.416   2.242  11.099  1.3110 -1.5805 -0.6414
  358MOL0     H47201   8.488   2.249  10.805  1.1670 -3.6343 -0.9983
  358MOL0     H47202   8.515   2.125  10.912  2.0030  0.0749  0.4032
  358MOL0     H47203   8.663   2.391  10.887  1.7855  0.8559  2.1341
  358MOL0     H47204   8.734   2.237  10.924 -0.6287 -0.9672 -3.5908
  358MOL0     H47205   8.557   2.419  11.114 -0.1188 -0.4398 -0.2352
  358MOL0     H47206   8.629   2.267  11.162  1.3960 -1.8766 -2.1775
  358MOL0     H47207   8.762   2.489  11.230  4.8108 -2.7821  2.7871
  358MOL0     H47208   8.813   2.491  11.057  0.9320 -2.4529 -1.2697
  358MOL0     H47209   8.982   2.327  10.983  4.7186 -0.1175  0.6768
  358MOL0     H47210   9.238   2.227  11.067 -0.9859  0.5686  0.3180
  358MOL0     H47211   9.146   2.067  11.081 -1.2140 -1.7197  2.6947
  358MOL0     H47212   9.354   2.059  11.182 -1.2028 -3.9443  2.4183
  358MOL0     H47213   9.224   2.052  11.302  1.6206  0.0632 -0.5094
  358MOL0     H47214   9.435   2.257  11.261  3.9011 -1.5475  4.6044
  358MOL0     H47215   9.289   2.308  11.346 -0.2142  0.1370 -0.7262
  358MOL0     H47216   9.484   2.075  11.437 -1.1316 -0.8323  3.2671
  358MOL0     H47217   9.336   2.118  11.511 -1.1581  0.2344 -1.8050
  358MOL0     H47218   9.249   2.259  11.662  1.4580 -0.5565  0.0174
  358MOL0     H47219   9.135   2.463  11.747 -0.3448  1.6538 -0.5277
  358MOL0     H47220   9.424   2.891  12.014  0.8305  0.4844  0.6310
  358MOL0     H47221   9.359   3.066  12.161 -0.8618 -0.3540  0.1927
  358MOL0     H47222   8.958   3.269  12.057 -1.0100  0.7990  2.7503
  358MOL0     H47223   9.079   3.380  11.994  1.6477 -0.4867  1.6371
  358MOL0     H47224   9.082   3.512  12.163 -0.4035  0.6113 -0.9239
  358MOL0     H47225   9.071   3.391  12.293 -1.2693 -0.6823 -0.1181
  358MOL0     H47226   8.838   3.360  12.287  0.4630 -0.2159  0.3666
  358MOL0     H47227   8.812   3.452  12.144 -3.7360  0.9057  2.0501
  358MOL0     H47228   8.985   3.592  12.350  0.5651  0.5745  1.7663
  358MOL0     H47229   8.857   3.666  12.257 -1.8150 -0.4520 -0.4385
  358MOL0     H47230   8.836   3.509  12.505  1.9540 -0.1547 -2.0086
  358MOL0     H47231   8.699   3.533  12.394  0.7441 -0.7372 -1.2418
  358MOL0     H47232   8.724   3.768  12.405  1.3027  1.1977 -0.3059
  358MOL0     H47233   8.869   3.752  12.509  0.8682 -1.5023 -0.0031
  358MOL0     H47234   8.676   3.656  12.677  0.5166 -0.4547 -1.3170
  358MOL0     H47235   8.702   3.831  12.641 -1.5181  1.2002 -0.7949
  358MOL0     H47236   8.497   3.671  12.498  0.6288  0.3662  0.0284
  358MOL0     H47237   8.512   3.855  12.509  0.5552  1.3058  0.1367
  358MOL0     H47238   9.041   3.161  11.864 -0.3112 -0.9683  0.2060
  358MOL0     H47239   9.103   2.974  11.735  0.1028  2.1513 -0.5953
  358MOL0     H47240   9.499   2.677  11.680  0.6854 -0.7118  2.7751
  358MOL0     H47241   9.584   2.493  11.546 -0.4765 -0.7593 -0.0551
  358MOL0     H47242   7.791   2.134  10.830  2.5189  5.9477  0.4861
  358MOL0     H47243   7.553   2.104  10.808  2.5447  1.2923 -1.0872
  358MOL0     H47244   7.170   2.218  10.924 -1.7150  1.6513 -0.2996
  358MOL0     H47245   6.948   2.273  10.946 -2.1031 -1.5984 -1.4108
  358MOL0     H47246   6.716   2.166  11.328 -0.8399 -2.4164  1.0473
  358MOL0     H47247   6.648   2.045  11.211 -1.3067 -0.3306  1.6057
  358MOL0     H47248   6.566   2.332  11.207  1.0559 -0.3486  0.8278
  358MOL0     H47249   6.505   2.183  11.127  0.0232  1.5946 -0.6036
  358MOL0     H47250   6.453   2.074  11.327  0.5466 -0.2163  3.7246
  358MOL0     H47251   6.352   2.223  11.316  0.7019  2.0127  0.1477
  358MOL0     H47252   6.594   2.206  11.488  0.0936  0.3787 -2.6604
  358MOL0     H47253   6.485   2.348  11.447  0.2013  0.8087  4.0949
  358MOL0     H47254   6.230   2.122  11.701 -1.0308  0.9420 -0.2488
  358MOL0     H47255   6.884   1.986  11.258  2.4857  0.0688  1.8680
  358MOL0     H47256   7.125   1.903  11.219 -0.9409 -1.6854 -1.1224
  359MOL0     O47257   3.999   7.093  11.135  0.5230  0.3621  0.2408
  359MOL0     C47258   4.029   7.101  11.013  0.8731  0.9181  0.9088
  359MOL0     O47259   4.141   7.041  10.955  0.2294 -0.2368 -0.3259
  359MOL0     C47260   4.226   6.957  11.029 -0.3322  0.2802  0.1942
  359MOL0     C47261   4.349   6.931  10.969  0.0071 -0.5889  0.4954
  359MOL0     C47262   4.441   6.845  11.016  0.4081 -0.0347 -0.2791
  359MOL0     C47263   4.420   6.782  11.138 -0.4500 -0.1348 -0.4066
  359MOL0     O47264   4.512   6.699  11.205 -0.1146 -0.3609 -0.7258
  359MOL0     C47265   4.629   6.641  11.143  0.0487  0.0681 -1.3481
  359MOL0     C47266   4.645   6.518  11.238  0.4126  0.0663 -0.1677
  359MOL0     C47267   4.678   6.568  11.383  0.1651 -0.6414  0.4453
  359MOL0     C47268   4.669   6.438  11.463  0.1243  0.0155  0.8436
  359MOL0     C47269   4.675   6.465  11.620  0.2337  0.1126  0.2213
  359MOL0     C47270   4.810   6.512  11.660  0.3494 -0.0554  0.3859
  359MOL0     C47271   4.822   6.562  11.807  0.7017  0.2028 -0.0093
  359MOL0     C47272   4.903   6.695  11.823  0.4867  0.4895 -0.0553
  359MOL0     N47273   4.864   6.796  11.716  0.5177  0.5287 -0.0412
  359MOL0     C47274   4.738   6.863  11.701 -0.5592  0.0333 -0.0071
  359MOL0     C47275   4.739   6.910  11.575  0.5037  0.0037 -0.0769
  359MOL0     C47276   4.627   6.985  11.510 -0.1770 -0.4987 -0.4446
  359MOL0     C47277   4.678   7.097  11.425  0.0571  0.3447 -0.0309
  359MOL0     C47278   4.600   7.093  11.300  2.1512 -0.0680  0.3491
  359MOL0     C47279   4.446   7.121  11.313  1.0271 -0.6767  0.0921
  359MOL0     O47280   4.430   7.260  11.365 -0.1691  0.5751 -0.1663
  359MOL0     C47281   4.311   7.327  11.359  0.7510 -1.0302 -0.5530
  359MOL0     C47282   4.311   7.446  11.440 -0.0032 -0.4573  0.2156
  359MOL0     C47283   4.208   7.544  11.428  0.2925  0.0845  0.2981
  359MOL0     C47284   4.095   7.509  11.347 -0.0206 -0.7287 -1.0801
  359MOL0     C47285   3.984   7.604  11.333 -1.0525 -0.9337  0.7411
  359MOL0     O47286   3.873   7.555  11.298  0.8616 -0.8255 -0.2083
  359MOL0     C47287   3.767   7.632  11.329 -0.2324 -0.5644 -0.0549
  359MOL0     C47288   3.675   7.609  11.438 -0.7210 -0.5013  0.2225
  359MOL0     C47289   3.558   7.683  11.466 -1.9046 -0.3544  0.9180
  359MOL0     C47290   3.536   7.791  11.372  0.6702  0.0304 -0.3347
  359MOL0     O47291   3.432   7.881  11.386  0.2794  0.3384 -0.2398
  359MOL0     C47292   3.411   7.936  11.516 -0.2541 -0.8758  0.8490
  359MOL0     C47293   3.262   7.955  11.549  0.2752 -0.7233  0.2959
  359MOL0     C47294   3.193   7.821  11.554  0.3523 -0.1986  0.6056
  359MOL0     C47295   3.052   7.866  11.585  0.7033  0.3190  0.3223
  359MOL0     C47296   2.972   7.747  11.608 -0.0108  0.7034  0.1703
  359MOL0     C47297   2.822   7.774  11.594  0.1463  0.8468 -0.4019
  359MOL0     C47298   2.774   7.864  11.700 -0.0544  0.9326  1.2687
  359MOL0     C47299   2.618   7.854  11.702 -0.0282 -0.3436  0.4853
  359MOL0    Cl47300   2.538   7.975  11.828 -0.2270  0.6641 -0.1241
  359MOL0     C47301   3.632   7.819  11.276  0.5701  0.4216  0.7564
  359MOL0     C47302   3.745   7.742  11.256  0.5122 -0.2463  0.7374
  359MOL0     O47303   4.011   7.722  11.355 -0.7392  0.5032  0.1651
  359MOL0     C47304   4.083   7.382  11.288 -0.0885  0.2709 -0.2147
  359MOL0     C47305   4.192   7.295  11.284  0.7244 -0.8538  0.2245
  359MOL0     N47306   4.862   6.893  11.522  0.4431 -0.6482 -0.3673
  359MOL0     N47307   4.928   6.820  11.602  0.4586  0.3663  1.1366
  359MOL0     C47308   4.302   6.807  11.212 -0.6575  0.1103  0.5974
  359MOL0     C47309   4.204   6.894  11.152  0.0770  0.2968  1.1101
  359MOL0     C47310   3.958   7.197  10.936  1.5653 -0.9801  1.1296
  359MOL0     C47311   3.861   7.281  10.992 -0.5948  0.8387 -0.5996
  359MOL0     C47312   3.800   7.377  10.916  0.3983  0.7974 -0.4894
  359MOL0     C47313   3.832   7.404  10.780 -0.3892  0.2915  0.2618
  359MOL0     O47314   3.784   7.520  10.735  0.3821 -0.3955  0.7796
  359MOL0     C47315   3.816   7.549  10.596 -0.2480 -0.7818 -0.3630
  359MOL0     C47316   3.726   7.670  10.568  0.0847  0.0295 -0.4393
  359MOL0     C47317   3.785   7.731  10.438 -0.2117  0.4780 -0.2351
  359MOL0     C47318   3.704   7.719  10.309 -0.2557 -0.5868 -0.3595
  359MOL0     C47319   3.570   7.786  10.321 -0.9597  0.5196  0.3188
  359MOL0     C47320   3.461   7.849  10.307 -0.5554 -0.5525 -0.0968
  359MOL0     C47321   3.934   7.327  10.719 -0.7648 -0.0995 -0.1909
  359MOL0     C47322   3.996   7.223  10.802  0.4150  1.0101  0.0206
  359MOL0     H47323   4.382   6.991  10.884  3.6496 -0.6170  1.7165
  359MOL0     H47324   4.538   6.845  10.968  1.9497  2.6840  2.4802
  359MOL0     H47325   4.717   6.703  11.161  1.9096 -2.7962  0.2862
  359MOL0     H47326   4.612   6.611  11.039 -1.6058  3.1495 -2.1026
  359MOL0     H47327   4.728   6.458  11.199  2.2785 -0.0287  3.4980
  359MOL0     H47328   4.558   6.452  11.234 -0.0692  0.4758  2.0584
  359MOL0     H47329   4.596   6.630  11.421 -0.6515 -1.9817  0.9563
  359MOL0     H47330   4.773   6.621  11.381 -0.2678  0.3198  2.4699
  359MOL0     H47331   4.572   6.399  11.430  1.1696 -2.1171  0.1282
  359MOL0     H47332   4.746   6.379  11.413 -0.1040  1.3237 -1.2143
  359MOL0     H47333   4.643   6.378  11.679 -2.4573  1.7801  1.4673
  359MOL0     H47334   4.599   6.536  11.654 -2.4104 -1.7431 -1.4497
  359MOL0     H47335   4.835   6.593  11.591 -1.3436  0.3673  0.2193
  359MOL0     H47336   4.894   6.444  11.645  1.5836  0.6849  3.2566
  359MOL0     H47337   4.727   6.584  11.859  1.4090 -0.6182  1.7293
  359MOL0     H47338   4.867   6.480  11.862  1.7303  0.0657 -1.0382
  359MOL0     H47339   5.009   6.669  11.817  0.2744 -0.1122 -2.1255
  359MOL0     H47340   4.872   6.730  11.922 -2.3297  1.4707 -1.1998
  359MOL0     H47341   4.656   6.865  11.772  1.0819  3.1025  2.0422
  359MOL0     H47342   4.572   7.036  11.589 -1.6180 -0.9946 -1.0826
  359MOL0     H47343   4.551   6.921  11.464  0.1951 -0.9667 -0.4124
  359MOL0     H47344   4.786   7.090  11.410  0.4166  2.1188  1.3401
  359MOL0     H47345   4.655   7.195  11.469 -1.6172 -0.4535  0.9530
  359MOL0     H47346   4.639   7.170  11.234  0.7316  0.9654  0.6709
  359MOL0     H47347   4.616   6.994  11.256  2.5520 -0.2947  0.9906
  359MOL0     H47348   4.394   7.041  11.367 -0.1281 -2.9167 -3.9261
  359MOL0     H47349   4.404   7.110  11.213 -3.6335  1.0280  1.5719
  359MOL0     H47350   4.388   7.474  11.511  2.4510 -2.2813 -1.5502
  359MOL0     H47351   4.216   7.642  11.475  1.0180  1.4791 -2.5077
  359MOL0     H47352   3.703   7.530  11.507  0.2745 -1.6832 -1.4750
  359MOL0     H47353   3.506   7.658  11.558 -2.7980 -0.8960  0.2834
  359MOL0     H47354   3.459   8.034  11.507  0.7913 -1.0359  3.8365
  359MOL0     H47355   3.452   7.875  11.597  1.9006  0.2621  0.6762
  359MOL0     H47356   3.221   8.030  11.480  1.0963  0.0182  0.5919
  359MOL0     H47357   3.260   8.009  11.644 -2.7641  0.8386 -0.5104
  359MOL0     H47358   3.234   7.771  11.641  0.3863 -0.0018  0.7037
  359MOL0     H47359   3.200   7.764  11.460 -0.5552  2.4548 -1.2110
  359MOL0     H47360   3.053   7.918  11.681  0.3814 -0.9254  1.0176
  359MOL0     H47361   3.017   7.938  11.510 -0.6078  1.4080  1.9165
  359MOL0     H47362   2.998   7.713  11.709 -1.2909 -0.5039  0.1379
  359MOL0     H47363   3.009   7.672  11.538 -0.0348 -0.5521  1.4595
  359MOL0     H47364   2.767   7.681  11.580 -0.6285  0.3811  4.1818
  359MOL0     H47365   2.809   7.837  11.505 -2.3155  1.7139  0.4637
  359MOL0     H47366   2.812   7.828  11.796  2.5465 -0.5597 -0.1985
  359MOL0     H47367   2.814   7.964  11.683 -0.3529  1.3625  2.9536
  359MOL0     H47368   2.596   7.752  11.735 -0.8885  0.1308  1.4341
  359MOL0     H47369   2.570   7.858  11.604 -0.6982 -3.7088  0.5553
  359MOL0     H47370   3.632   7.913  11.221  2.3211 -1.9749 -3.8772
  359MOL0     H47371   3.793   7.777  11.165 -0.7863 -0.8498 -0.2159
  359MOL0     H47372   3.995   7.352  11.233  0.1904  2.8774 -2.2652
  359MOL0     H47373   4.193   7.193  11.247  0.4366 -1.1190  0.9160
  359MOL0     H47374   4.285   6.766  11.311  2.3304  2.0731  2.0671
  359MOL0     H47375   4.106   6.894  11.199 -0.1680 -1.2486  0.6365
  359MOL0     H47376   3.827   7.267  11.094 -3.3633 -1.7689 -1.7258
  359MOL0     H47377   3.722   7.443  10.954  0.4348  0.6528 -0.1629
  359MOL0     H47378   3.793   7.473  10.521 -0.9272 -1.9244  0.9456
  359MOL0     H47379   3.921   7.576  10.586 -0.9049  1.4767 -1.8269
  359MOL0     H47380   3.619   7.648  10.564  0.5091 -2.6809  0.8737
  359MOL0     H47381   3.728   7.747  10.646 -0.8976  0.0442 -0.4083
  359MOL0     H47382   3.885   7.689  10.419  0.1845  0.8880  0.8692
  359MOL0     H47383   3.794   7.836  10.466  4.7791 -0.3710  2.4387
  359MOL0     H47384   3.758   7.775  10.232 -0.9218 -0.4093 -0.7032
  359MOL0     H47385   3.694   7.612  10.291 -0.1410 -1.1701  2.5096
  359MOL0     H47386   3.376   7.913  10.294 -1.9924 -2.8100 -3.3345
  359MOL0     H47387   3.967   7.358  10.620 -0.7769  1.3435  0.2424
  359MOL0     H47388   4.070   7.158  10.757 -0.4543 -1.0221  1.3738
  360MOL0     O47389   5.453   4.199   1.977 -0.3570  1.1353  0.5721
  360MOL0     C47390   5.564   4.191   1.914 -0.5577  0.0839  0.1448
  360MOL0     O47391   5.594   4.258   1.803 -0.6289 -0.1838  0.2878
  360MOL0     C47392   5.483   4.269   1.722 -0.2564 -0.1639 -0.2298
  360MOL0     C47393   5.444   4.165   1.642  0.4611 -0.3000 -0.0786
  360MOL0     C47394   5.326   4.169   1.572 -0.1812 -0.7814  0.5637
  360MOL0     C47395   5.242   4.279   1.579 -0.6413  0.3707  0.4838
  360MOL0     O47396   5.121   4.291   1.517  0.0922 -0.0487 -1.0140
  360MOL0     C47397   5.111   4.276   1.379 -0.4175 -0.2743  0.3889
  360MOL0     C47398   5.016   4.370   1.304 -0.2765  1.3910 -0.4107
  360MOL0     C47399   4.864   4.360   1.352 -0.1331  0.7495 -0.1976
  360MOL0     C47400   4.773   4.297   1.247  0.7524 -0.0253  0.6288
  360MOL0     C47401   4.636   4.272   1.316 -0.2683 -0.1609  1.4439
  360MOL0     C47402   4.552   4.410   1.331  0.3755 -0.1820  0.5181
  360MOL0     C47403   4.432   4.404   1.415 -0.6387 -0.4670  0.1461
  360MOL0     C47404   4.329   4.309   1.360 -0.5242  0.3538  0.4951
  360MOL0     N47405   4.220   4.302   1.448 -0.0664 -0.4334  0.0928
  360MOL0     C47406   4.177   4.193   1.520 -0.5256  0.2499  0.5656
  360MOL0     C47407   4.072   4.237   1.592  0.2142 -0.4238  0.3630
  360MOL0     C47408   3.971   4.159   1.670  0.6530  1.0305 -0.3613
  360MOL0     C47409   3.897   4.049   1.585 -0.0186 -1.3430 -0.5713
  360MOL0     C47410   3.816   3.941   1.671  0.5508 -0.5079  0.3409
  360MOL0     C47411   3.764   3.852   1.563 -0.7570  0.2265  0.2431
  360MOL0     O47412   3.659   3.914   1.488  0.7561  0.7395  0.1255
  360MOL0     C47413   3.526   3.876   1.514 -0.6035  0.1477  0.4790
  360MOL0     C47414   3.436   3.977   1.494  0.6259  0.8272  0.2233
  360MOL0     C47415   3.297   3.952   1.514 -0.8554  0.1342 -0.3379
  360MOL0     C47416   3.255   3.823   1.548 -0.1710 -1.2113 -0.8696
  360MOL0     C47417   3.113   3.793   1.576  0.5637 -0.4711 -0.2077
  360MOL0     O47418   3.032   3.899   1.596 -0.4375 -0.4223 -0.5308
  360MOL0     C47419   2.932   3.893   1.686  0.5778 -1.1185 -0.9416
  360MOL0     C47420   2.825   3.983   1.675 -0.0270  0.1372 -0.4994
  360MOL0     C47421   2.741   4.011   1.778 -1.0411 -0.0484  0.2410
  360MOL0     C47422   2.747   3.928   1.892 -0.3017  0.2191  0.3688
  360MOL0     O47423   2.660   3.945   1.991  0.6099 -0.6579 -0.8582
  360MOL0     C47424   2.694   4.053   2.081 -0.0047  0.5058  0.1829
  360MOL0     C47425   2.586   4.158   2.072 -0.6801 -0.0769  0.1293
  360MOL0     C47426   2.447   4.097   2.103 -0.0360 -0.1174  0.5100
  360MOL0     C47427   2.336   4.195   2.071  0.1629 -0.1079  0.2279
  360MOL0     C47428   2.290   4.210   1.926  0.3390  0.5427 -0.2596
  360MOL0     C47429   2.135   4.257   1.913 -0.7707  0.0841 -0.2174
  360MOL0     C47430   2.091   4.262   1.760 -0.4605  0.0743 -0.1593
  360MOL0     C47431   1.945   4.237   1.749  0.2654  0.2744  0.2183
  360MOL0    Cl47432   1.896   4.262   1.572 -0.1267  0.1651  0.1008
  360MOL0     C47433   2.855   3.841   1.905  0.6207  1.0862 -1.1774
  360MOL0     C47434   2.940   3.815   1.802 -1.0892  0.7945  0.0166
  360MOL0     O47435   3.088   3.672   1.602  0.7050 -0.5584  0.3201
  360MOL0     C47436   3.356   3.726   1.563  0.1395 -0.8568  0.2493
  360MOL0     C47437   3.489   3.745   1.548 -0.7763 -0.4862  0.3057
  360MOL0     N47438   4.052   4.374   1.562 -0.2689 -0.1068  0.0351
  360MOL0     N47439   4.138   4.411   1.480 -0.4916  0.1357  0.1829
  360MOL0     C47440   5.284   4.387   1.653 -0.2016 -0.2096  0.1680
  360MOL0     C47441   5.404   4.385   1.727  0.6462  0.5783  0.3963
  360MOL0     C47442   5.679   4.144   2.000 -0.2675  0.3085 -0.6179
  360MOL0     C47443   5.807   4.147   1.953 -0.4304 -0.6705 -0.5241
  360MOL0     C47444   5.910   4.092   2.034 -0.1531  0.0172  0.3184
  360MOL0     C47445   5.886   4.030   2.154 -0.1281 -0.4398 -0.7194
  360MOL0     O47446   5.996   3.996   2.237  0.4113 -0.4430  0.1756
  360MOL0     C47447   5.967   3.941   2.372  0.2571 -0.2743  0.7563
  360MOL0     C47448   6.084   3.864   2.423 -0.8378  0.5625  1.4109
  360MOL0     C47449   6.208   3.954   2.428 -0.0305  0.0717  0.3516
  360MOL0     C47450   6.318   3.897   2.514  0.0513 -0.2100 -0.5218
  360MOL0     C47451   6.415   4.000   2.534 -0.6055  0.1970 -0.2400
  360MOL0     C47452   6.493   4.097   2.549 -0.0738  1.4331  0.4463
  360MOL0     C47453   5.751   4.032   2.200  0.2811  0.8161  0.4873
  360MOL0     C47454   5.651   4.085   2.124 -0.0960  0.3762 -1.0298
  360MOL0     H47455   5.513   4.082   1.634 -2.1818 -2.7531  0.9138
  360MOL0     H47456   5.285   4.094   1.504 -2.3773  1.6547 -1.0140
  360MOL0     H47457   5.077   4.173   1.363 -3.8282  0.4967  1.7751
  360MOL0     H47458   5.210   4.293   1.336  0.6608  0.8409  3.0919
  360MOL0     H47459   5.021   4.353   1.196  1.1079 -3.7762  0.1860
  360MOL0     H47460   5.033   4.474   1.332  2.1114  1.5203 -2.0444
  360MOL0     H47461   4.826   4.459   1.379 -2.3636 -0.7453  2.6505
  360MOL0     H47462   4.857   4.308   1.448  2.4406  3.3173  1.5308
  360MOL0     H47463   4.769   4.359   1.158  2.6131 -1.5864 -0.6189
  360MOL0     H47464   4.820   4.203   1.219  3.2725  1.7356 -1.4716
  360MOL0     H47465   4.636   4.227   1.415 -0.3277 -1.1968  0.9889
  360MOL0     H47466   4.589   4.201   1.247  2.6972  0.5019 -1.5125
  360MOL0     H47467   4.538   4.453   1.231  2.1493 -1.8412 -0.5234
  360MOL0     H47468   4.613   4.486   1.381 -1.1592  2.3711 -1.2492
  360MOL0     H47469   4.463   4.368   1.514  1.7103 -0.8967 -0.6967
  360MOL0     H47470   4.390   4.504   1.424 -0.6368 -0.3697 -0.8137
  360MOL0     H47471   4.374   4.210   1.349 -1.4813 -0.1841  1.2337
  360MOL0     H47472   4.294   4.351   1.265  3.5821  2.0490 -0.4747
  360MOL0     H47473   4.208   4.090   1.512  0.6588  0.6539 -0.5395
  360MOL0     H47474   3.905   4.223   1.729  0.3112 -1.9616  2.8048
  360MOL0     H47475   4.029   4.112   1.750  1.2734  2.0489 -0.1907
  360MOL0     H47476   3.975   3.988   1.537  0.7177 -0.3889 -0.6136
  360MOL0     H47477   3.831   4.093   1.510 -0.3619  0.1266  0.5467
  360MOL0     H47478   3.890   3.891   1.735  4.4421  3.0104 -0.9299
  360MOL0     H47479   3.733   3.984   1.727 -0.5709 -3.2579  0.9195
  360MOL0     H47480   3.725   3.765   1.616  2.5705  0.6775  3.8347
  360MOL0     H47481   3.855   3.830   1.506 -0.6188  0.6280  0.3072
  360MOL0     H47482   3.473   4.069   1.451 -0.8588  1.8509  1.0545
  360MOL0     H47483   3.231   4.038   1.519  1.8559  2.3580 -0.2654
  360MOL0     H47484   2.809   4.028   1.577 -0.7802  0.5247 -0.2045
  360MOL0     H47485   2.650   4.069   1.791 -1.6396 -0.6692 -0.9866
  360MOL0     H47486   2.790   4.099   2.058  4.0074 -6.7725 -0.5023
  360MOL0     H47487   2.696   4.014   2.183 -1.8321 -2.7485 -0.8547
  360MOL0     H47488   2.586   4.203   1.973 -1.2325 -1.3780 -0.4962
  360MOL0     H47489   2.599   4.243   2.139 -4.2360  0.2834  0.5107
  360MOL0     H47490   2.428   4.066   2.206  0.1076 -1.8060  0.0522
  360MOL0     H47491   2.432   4.005   2.046  4.3650 -0.2412 -0.7689
  360MOL0     H47492   2.245   4.173   2.129  0.0259 -2.6637 -0.8186
  360MOL0     H47493   2.369   4.293   2.108 -0.6719 -0.4200  1.9026
  360MOL0     H47494   2.284   4.114   1.872 -1.0251  0.8505 -0.7082
  360MOL0     H47495   2.355   4.275   1.867  0.3222  0.1350 -0.7324
  360MOL0     H47496   2.127   4.350   1.969  0.9002 -0.8788  1.7720
  360MOL0     H47497   2.067   4.191   1.969 -1.8266 -0.2861 -1.8612
  360MOL0     H47498   2.116   4.357   1.712  2.5522  0.5376  2.0607
  360MOL0     H47499   2.143   4.182   1.707  1.8570  0.7182  1.0249
  360MOL0     H47500   1.885   4.311   1.802 -0.2774  1.9088 -2.4879
  360MOL0     H47501   1.914   4.139   1.788  0.8039 -0.0187 -0.0729
  360MOL0     H47502   2.846   3.772   1.988  2.2861  1.9581 -0.2191
  360MOL0     H47503   3.026   3.751   1.819  0.6643  3.0600  0.2300
  360MOL0     H47504   3.317   3.630   1.596 -2.8726 -1.2849 -3.7915
  360MOL0     H47505   3.562   3.664   1.547  0.6821  0.7443 -1.2740
  360MOL0     H47506   5.223   4.477   1.648 -0.4716 -0.4034 -0.1128
  360MOL0     H47507   5.433   4.475   1.780 -3.2705  2.5116 -0.4239
  360MOL0     H47508   5.839   4.195   1.862  0.0176  1.0655  0.5175
  360MOL0     H47509   6.015   4.103   2.007 -0.4421  2.1688 -0.0519
  360MOL0     H47510   5.872   3.888   2.363 -0.2637  0.9598 -2.6448
  360MOL0     H47511   5.948   4.028   2.435  2.0118 -0.9575  2.3199
  360MOL0     H47512   6.070   3.813   2.519  0.6930 -0.9549  0.8865
  360MOL0     H47513   6.121   3.792   2.349 -4.1090 -0.7960  0.8984
  360MOL0     H47514   6.171   4.053   2.458 -0.6804 -0.2850  0.7477
  360MOL0     H47515   6.242   3.959   2.324  1.7525 -1.8671  0.7763
  360MOL0     H47516   6.276   3.868   2.611 -0.3452  2.8361  0.3105
  360MOL0     H47517   6.365   3.810   2.467 -0.8751 -1.9349  1.5684
  360MOL0     H47518   6.552   4.186   2.557  0.6979  0.8097  2.1679
  360MOL0     H47519   5.719   3.971   2.284 -0.1371  0.8601  0.3641
  360MOL0     H47520   5.550   4.083   2.164  0.1614  0.6860 -0.3380
  361MOL0     O47521   8.338   8.057   2.570 -0.0798 -0.1554 -0.9245
  361MOL0     C47522   8.340   8.045   2.690 -0.6674  1.0203 -0.3010
  361MOL0     O47523   8.236   8.026   2.770  0.4407 -0.6351 -0.2658
  361MOL0     C47524   8.106   8.001   2.727  0.4013 -0.0739 -0.7602
  361MOL0     C47525   8.020   8.009   2.835  0.4695 -0.6249 -0.6522
  361MOL0     C47526   7.877   7.989   2.812  0.4591 -0.1987  0.3073
  361MOL0     C47527   7.823   7.956   2.681  0.3953 -0.3935 -0.2592
  361MOL0     O47528   7.690   7.948   2.641  0.1394 -0.4438  0.0298
  361MOL0     C47529   7.598   7.962   2.746 -0.8500  0.5096  0.6712
  361MOL0     C47530   7.456   7.968   2.677 -0.1542 -0.1671 -0.1397
  361MOL0     C47531   7.343   7.936   2.772 -0.2708 -0.0273 -0.5524
  361MOL0     C47532   7.343   8.018   2.904 -0.4613  0.4597  0.0143
  361MOL0     C47533   7.252   8.138   2.895  0.8036  0.5073  0.2063
  361MOL0     C47534   7.101   8.117   2.906 -0.0739  0.1614  0.1414
  361MOL0     C47535   7.030   8.250   2.931 -0.3604  0.2849  0.6099
  361MOL0     C47536   7.019   8.280   3.080 -0.5219  0.3598  0.2745
  361MOL0     N47537   6.971   8.419   3.114 -0.3381 -0.6171  0.2072
  361MOL0     C47538   6.846   8.454   3.144 -0.7491  0.0690 -0.7597
  361MOL0     C47539   6.855   8.559   3.219 -0.4197 -1.4072 -0.9263
  361MOL0     C47540   6.747   8.642   3.291 -0.0711 -0.0336 -0.3414
  361MOL0     C47541   6.706   8.573   3.425  1.1907 -0.2900  0.0592
  361MOL0     C47542   6.590   8.630   3.497  0.4421  0.5556 -0.3118
  361MOL0     C47543   6.456   8.607   3.426 -0.2414  0.2036 -0.2726
  361MOL0     O47544   6.343   8.603   3.521  0.3117  0.4217 -0.1990
  361MOL0     C47545   6.243   8.699   3.508  0.3034  0.1630  1.2590
  361MOL0     C47546   6.119   8.660   3.451  0.7404  0.1410  0.7887
  361MOL0     C47547   6.034   8.750   3.400  0.3463  0.4273 -0.2218
  361MOL0     C47548   6.059   8.880   3.402  0.7889 -0.5873 -0.7691
  361MOL0     C47549   5.954   8.967   3.350  0.6975  0.1106  1.1307
  361MOL0     O47550   5.967   9.098   3.385 -0.5878 -0.5060  0.3789
  361MOL0     C47551   5.874   9.174   3.335  0.7268 -0.6380  0.2337
  361MOL0     C47552   5.910   9.255   3.226  0.1510 -0.5688 -0.1220
  361MOL0     C47553   5.817   9.351   3.183  0.1702  0.8060  0.8737
  361MOL0     C47554   5.688   9.382   3.243  1.7065  0.1010 -0.7135
  361MOL0     O47555   5.599   9.479   3.200 -0.0104 -0.3411  0.1947
  361MOL0     C47556   5.619   9.540   3.076 -0.7052 -0.2442  0.0399
  361MOL0     C47557   5.506   9.632   3.047  0.0466  0.0364  0.5284
  361MOL0     C47558   5.539   9.735   2.932  0.0500 -0.3059 -0.2400
  361MOL0     C47559   5.561   9.658   2.805 -0.5655 -0.4947 -0.4023
  361MOL0     C47560   5.535   9.744   2.677 -0.2414  0.9678 -0.6226
  361MOL0     C47561   5.385   9.787   2.670 -0.4697 -0.7691 -0.3544
  361MOL0     C47562   5.284   9.678   2.697  0.0393 -0.6859 -0.3495
  361MOL0     C47563   5.145   9.706   2.637 -0.1053  0.3738 -0.6122
  361MOL0    Cl47564   5.118   9.884   2.632  0.2765 -0.4321  0.3152
  361MOL0     C47565   5.659   9.299   3.354 -0.0229  0.4264 -0.3917
  361MOL0     C47566   5.751   9.200   3.403  0.1989  0.1329 -0.6855
  361MOL0     O47567   5.868   8.919   3.269 -0.2260  0.0521  0.3219
  361MOL0     C47568   6.176   8.930   3.451 -0.3146 -0.3284 -0.0704
  361MOL0     C47569   6.269   8.838   3.503 -1.2063  0.1573  0.1364
  361MOL0     N47570   6.987   8.598   3.234  0.1590  0.1042 -0.4975
  361MOL0     N47571   7.054   8.515   3.172  0.5928  0.3206 -0.6654
  361MOL0     C47572   7.917   7.951   2.572 -0.5725 -0.1915 -0.5807
  361MOL0     C47573   8.062   7.968   2.599  0.2559  0.1347 -0.3049
  361MOL0     C47574   8.467   8.051   2.754 -0.4566 -0.5085  0.1905
  361MOL0     C47575   8.588   8.049   2.683  0.3380  0.9166  0.1510
  361MOL0     C47576   8.708   8.069   2.751 -0.2679  0.4507  1.4233
  361MOL0     C47577   8.718   8.092   2.886 -0.4561  0.2311 -0.0454
  361MOL0     O47578   8.832   8.119   2.955  0.0971 -0.3277 -0.1943
  361MOL0     C47579   8.950   8.054   2.911 -0.5045  0.5559 -0.3405
  361MOL0     C47580   9.060   8.092   3.010 -0.7306  0.1983 -0.0516
  361MOL0     C47581   9.204   8.089   2.943  0.4016 -1.2000  0.9267
  361MOL0     C47582   9.255   7.953   2.880 -0.1159  1.2415 -0.3139
  361MOL0     C47583   9.254   7.839   2.972  0.0715  0.0016  1.1089
  361MOL0     C47584   9.259   7.751   3.046  0.1551 -0.1858 -0.7150
  361MOL0     C47585   8.605   8.096   2.953  0.2236 -0.5263 -0.7242
  361MOL0     C47586   8.481   8.074   2.897  0.6883 -0.0386  0.8619
  361MOL0     H47587   8.056   8.023   2.936 -2.7716 -2.5326  0.9294
  361MOL0     H47588   7.811   8.005   2.896 -0.5182  1.0467 -0.6603
  361MOL0     H47589   7.613   8.054   2.803  1.4233  0.3511  0.4415
  361MOL0     H47590   7.615   7.875   2.810  0.7626 -0.4231 -0.9235
  361MOL0     H47591   7.448   7.894   2.598  1.4427 -2.3406  1.5932
  361MOL0     H47592   7.453   8.071   2.640 -0.5718  0.4227  1.4557
  361MOL0     H47593   7.351   7.828   2.789 -0.3035 -0.1476 -1.2711
  361MOL0     H47594   7.248   7.953   2.720 -0.1051  0.1141 -0.8088
  361MOL0     H47595   7.308   7.946   2.979 -0.1273 -0.3999 -0.6326
  361MOL0     H47596   7.443   8.043   2.940 -0.4030  1.7126 -0.9374
  361MOL0     H47597   7.278   8.184   2.799  0.4850 -0.3182 -0.2891
  361MOL0     H47598   7.284   8.199   2.980  1.0989  0.1610  0.3471
  361MOL0     H47599   7.085   8.047   2.988  1.0984 -2.3819 -1.6579
  361MOL0     H47600   7.050   8.082   2.815 -1.6913 -0.0973  1.1006
  361MOL0     H47601   7.070   8.334   2.874 -2.4631  0.8580 -0.1074
  361MOL0     H47602   6.923   8.247   2.907 -0.9549  1.8298  2.8041
  361MOL0     H47603   7.108   8.260   3.140 -0.8011 -3.8383 -0.4330
  361MOL0     H47604   6.953   8.207   3.128  0.4976  0.6360  2.2129
  361MOL0     H47605   6.758   8.391   3.137 -0.8030 -0.3313  2.1882
  361MOL0     H47606   6.663   8.651   3.222 -1.7072 -0.6661  1.4868
  361MOL0     H47607   6.787   8.740   3.321 -1.4016  0.3956  0.0857
  361MOL0     H47608   6.784   8.567   3.502 -1.3617 -1.0312  2.7696
  361MOL0     H47609   6.680   8.470   3.398 -0.5765  0.6191 -2.0054
  361MOL0     H47610   6.592   8.568   3.588  1.5753 -0.5503 -1.0479
  361MOL0     H47611   6.612   8.736   3.513 -0.0909  1.1005 -2.7899
  361MOL0     H47612   6.455   8.507   3.380 -0.9527  1.4226 -3.1371
  361MOL0     H47613   6.438   8.682   3.348  1.6557  1.2713  0.2640
  361MOL0     H47614   6.089   8.556   3.446  3.2489 -0.7044  1.5881
  361MOL0     H47615   5.941   8.719   3.354  0.3316 -0.7199  0.5469
  361MOL0     H47616   6.012   9.243   3.192  1.1198 -0.3881  2.4835
  361MOL0     H47617   5.840   9.407   3.093 -3.4431 -0.7599 -1.2796
  361MOL0     H47618   5.632   9.467   2.995  4.1450 -0.6603  0.8473
  361MOL0     H47619   5.712   9.598   3.082 -1.1698  0.4857  0.2379
  361MOL0     H47620   5.474   9.691   3.134 -0.1974  4.0252 -2.0032
  361MOL0     H47621   5.423   9.565   3.021 -0.5078  0.9381 -0.0528
  361MOL0     H47622   5.630   9.791   2.955 -1.0639  0.9711  1.2424
  361MOL0     H47623   5.457   9.807   2.925 -1.5041 -1.7794  1.4893
  361MOL0     H47624   5.657   9.607   2.791  1.0701  2.8464 -2.6186
  361MOL0     H47625   5.492   9.573   2.796 -0.6297 -0.5416  0.4547
  361MOL0     H47626   5.557   9.683   2.590  1.5988  2.1202 -1.0103
  361MOL0     H47627   5.602   9.831   2.674  0.3661  0.4814 -1.4378
  361MOL0     H47628   5.381   9.822   2.566 -1.6589  2.7544  0.7132
  361MOL0     H47629   5.365   9.879   2.726  2.2993  0.2012 -0.7832
  361MOL0     H47630   5.320   9.577   2.676  2.9811  0.0114  0.7588
  361MOL0     H47631   5.266   9.675   2.805  3.7676 -2.1830  0.3802
  361MOL0     H47632   5.071   9.648   2.693  1.2160 -2.3248 -1.4575
  361MOL0     H47633   5.137   9.656   2.540  0.8401 -2.2484  0.5693
  361MOL0     H47634   5.573   9.328   3.413  0.0514  1.6073 -0.8234
  361MOL0     H47635   5.718   9.146   3.491 -0.1211  0.8494 -0.3546
  361MOL0     H47636   6.202   9.035   3.454 -2.0965  0.1232  1.6314
  361MOL0     H47637   6.366   8.879   3.529 -1.8591  1.3701  0.7509
  361MOL0     H47638   7.884   7.939   2.470  1.0290  1.9361 -1.4321
  361MOL0     H47639   8.135   7.961   2.519 -0.0195  0.9591 -0.6419
  361MOL0     H47640   8.587   8.039   2.575 -0.9525  0.1631  0.2064
  361MOL0     H47641   8.796   8.064   2.686  0.0739  1.8684  1.7353
  361MOL0     H47642   8.977   8.081   2.809  0.6140  0.0101 -0.2004
  361MOL0     H47643   8.946   7.946   2.901  3.2694  0.4273 -2.0948
  361MOL0     H47644   9.040   8.188   3.059  1.4747  1.7130 -1.9348
  361MOL0     H47645   9.059   8.013   3.086  1.7286  0.7008  0.5865
  361MOL0     H47646   9.282   8.109   3.017 -0.5132 -0.9156  1.8403
  361MOL0     H47647   9.214   8.167   2.867  1.1478 -1.9467  0.2299
  361MOL0     H47648   9.202   7.937   2.785 -0.5886  0.2399  0.1116
  361MOL0     H47649   9.358   7.979   2.854 -0.0898  3.3545  1.5567
  361MOL0     H47650   9.269   7.676   3.122 -0.9545  0.2424 -0.1218
  361MOL0     H47651   8.615   8.106   3.060 -0.3928 -0.4541 -0.6717
  361MOL0     H47652   8.387   8.075   2.952  0.9283 -2.0018  1.4115
  362MOL0     O47653   9.936   6.160   5.765 -0.4280  0.0550 -0.0128
  362MOL0     C47654   9.918   6.063   5.704 -0.1625 -0.4601 -0.2872
  362MOL0     O47655   9.811   6.041   5.629 -0.0568 -0.3570  0.2087
  362MOL0     C47656   9.707   6.136   5.616  0.4491 -0.5051 -0.1108
  362MOL0     C47657   9.730   6.263   5.561 -0.4045 -0.0706 -0.1273
  362MOL0     C47658   9.622   6.356   5.553  0.2789  0.3615 -0.0181
  362MOL0     C47659   9.491   6.317   5.577 -0.4327  0.1817 -0.4294
  362MOL0     O47660   9.395   6.407   5.546  0.2751  0.0101 -0.2451
  362MOL0     C47661   9.258   6.365   5.558  0.3053  0.1307 -0.6844
  362MOL0     C47662   9.150   6.475   5.558 -0.9571 -0.8409  0.1832
  362MOL0     C47663   9.018   6.400   5.584  0.4694 -0.3887 -0.6568
  362MOL0     C47664   8.913   6.509   5.615 -0.1712  0.3092  0.2324
  362MOL0     C47665   8.767   6.456   5.616  0.3136 -0.0143  0.6990
  362MOL0     C47666   8.742   6.354   5.729  0.0025 -0.1013 -0.1410
  362MOL0     C47667   8.609   6.284   5.715 -0.1070  0.8463  1.1841
  362MOL0     C47668   8.561   6.213   5.839  0.2562 -0.2707 -0.4338
  362MOL0     N47669   8.449   6.120   5.808 -0.1710  0.7928  0.3780
  362MOL0     C47670   8.307   6.139   5.807  0.1092  0.3777 -0.4661
  362MOL0     C47671   8.255   6.016   5.777  0.2238  0.1766  0.2067
  362MOL0     C47672   8.114   5.961   5.747 -0.2535 -1.1089 -0.4549
  362MOL0     C47673   8.038   5.922   5.874  0.2767  0.2211 -0.0013
  362MOL0     C47674   7.938   6.034   5.938 -0.3583 -0.8898  0.0879
  362MOL0     C47675   7.841   6.000   6.056 -0.3139  0.1842 -0.4247
  362MOL0     O47676   7.802   6.111   6.139  0.3573 -0.1421 -0.0825
  362MOL0     C47677   7.672   6.149   6.129  0.0398 -0.2528  0.4204
  362MOL0     C47678   7.626   6.281   6.107  0.1876  0.7137 -0.2072
  362MOL0     C47679   7.488   6.298   6.100  0.4619  0.0251 -0.2191
  362MOL0     C47680   7.392   6.188   6.093  0.1306  0.0405 -0.4748
  362MOL0     C47681   7.246   6.207   6.085  0.7026 -0.4375  0.4768
  362MOL0     O47682   7.200   6.341   6.069 -0.4271 -0.3983 -0.7104
  362MOL0     C47683   7.089   6.351   5.991 -0.1393  0.0174 -0.0570
  362MOL0     C47684   7.082   6.364   5.857 -0.3883 -0.1353  0.2894
  362MOL0     C47685   6.959   6.397   5.795 -0.4042 -0.5470 -0.7393
  362MOL0     C47686   6.839   6.409   5.871  0.4638  0.1611 -1.0912
  362MOL0     O47687   6.729   6.462   5.816 -0.3395  0.1017  0.5945
  362MOL0     C47688   6.757   6.599   5.762  0.1428  0.1596 -0.3081
  362MOL0     C47689   6.855   6.708   5.829  0.1442  1.2543  1.5534
  362MOL0     C47690   6.809   6.738   5.963  0.5570  0.6053  0.7802
  362MOL0     C47691   6.753   6.885   5.950  0.1271  0.0989 -0.0977
  362MOL0     C47692   6.699   6.927   6.087  0.0185 -0.4144  0.4346
  362MOL0     C47693   6.817   7.003   6.162  0.8058 -0.1890 -0.1911
  362MOL0     C47694   6.861   7.144   6.103 -0.2598  0.6503 -0.0207
  362MOL0     C47695   6.950   7.213   6.206 -0.0168 -0.3147 -1.3384
  362MOL0    Cl47696   7.028   7.348   6.113 -0.1043  0.0512  0.1902
  362MOL0     C47697   6.845   6.380   6.007 -0.7567 -0.3431 -0.7653
  362MOL0     C47698   6.974   6.361   6.067 -0.2502  0.2309 -0.5853
  362MOL0     O47699   7.179   6.100   6.055  0.8505  0.2566 -0.2332
  362MOL0     C47700   7.448   6.066   6.114 -0.3596 -0.0400 -0.1891
  362MOL0     C47701   7.580   6.050   6.136  0.3875  0.9271  0.1276
  362MOL0     N47702   8.362   5.927   5.764 -0.1127  0.4706 -0.3566
  362MOL0     N47703   8.474   5.988   5.789 -0.2098  0.8409 -0.9706
  362MOL0     C47704   9.470   6.190   5.615 -0.0994  0.1701  0.6467
  362MOL0     C47705   9.576   6.100   5.629  0.5755  0.3416 -1.3275
  362MOL0     C47706  10.030   5.955   5.708  1.1986 -0.2895  1.0755
  362MOL0     C47707  10.017   5.838   5.618 -0.4582 -0.2906 -0.4612
  362MOL0     C47708  10.136   5.755   5.617 -0.1679  0.6143 -0.1180
  362MOL0     C47709  10.249   5.795   5.689 -0.4774  0.2138  0.5888
  362MOL0     O47710  10.372   5.739   5.683  0.2897 -0.1154  0.3625
  362MOL0     C47711  10.406   5.668   5.560  0.5545 -0.2451  0.2465
  362MOL0     C47712  10.558   5.638   5.561  0.1644 -0.0706  0.4413
  362MOL0     C47713  10.603   5.532   5.669 -0.4108 -0.2188  0.3503
  362MOL0     C47714  10.684   5.417   5.609 -0.0440 -0.5320  1.2271
  362MOL0     C47715  10.834   5.431   5.612  0.4094 -0.0518  0.2304
  362MOL0     C47716  10.957   5.446   5.610 -0.0935  0.9390 -1.0633
  362MOL0     C47717  10.258   5.910   5.762 -0.6113  0.6447 -0.0004
  362MOL0     C47718  10.143   5.988   5.773 -0.8768 -0.3999 -0.0996
  362MOL0     H47719   9.831   6.295   5.539 -0.7521  1.2078  0.0578
  362MOL0     H47720   9.647   6.456   5.517 -3.0764  2.0747  1.9605
  362MOL0     H47721   9.252   6.327   5.661 -1.5035 -0.3247 -0.9275
  362MOL0     H47722   9.229   6.291   5.484  2.1368 -3.9689  2.2765
  362MOL0     H47723   9.152   6.517   5.457  0.5814  1.5842  1.1502
  362MOL0     H47724   9.175   6.556   5.627 -3.2631  1.0400 -1.0074
  362MOL0     H47725   9.031   6.328   5.666 -1.8708 -2.1732 -1.7294
  362MOL0     H47726   8.981   6.339   5.501 -0.8639 -0.2198 -0.2125
  362MOL0     H47727   8.931   6.545   5.717  0.4303 -1.5456  0.8124
  362MOL0     H47728   8.914   6.594   5.546 -1.0779  1.4046  1.5030
  362MOL0     H47729   8.754   6.401   5.523  0.6725 -0.3721  0.8554
  362MOL0     H47730   8.703   6.545   5.622 -1.6525 -1.3800  1.0956
  362MOL0     H47731   8.740   6.410   5.823  0.7608  0.3083 -0.3633
  362MOL0     H47732   8.813   6.271   5.728  0.1175 -0.0318  0.7494
  362MOL0     H47733   8.524   6.348   5.688 -0.9957 -1.6040 -2.6737
  362MOL0     H47734   8.625   6.205   5.641 -2.0569 -1.2199  2.8446
  362MOL0     H47735   8.527   6.277   5.920 -0.1887 -0.8325 -0.1648
  362MOL0     H47736   8.633   6.154   5.896 -1.5492 -0.2155  2.0791
  362MOL0     H47737   8.247   6.227   5.829  0.3241 -0.1942  2.9491
  362MOL0     H47738   8.140   5.879   5.680  1.3834  0.0208 -1.2806
  362MOL0     H47739   8.057   6.040   5.696 -1.2739 -0.6016  1.3961
  362MOL0     H47740   8.113   5.896   5.948  0.9655 -0.8041 -1.0286
  362MOL0     H47741   7.983   5.828   5.862  0.1224  0.2161  0.6794
  362MOL0     H47742   8.001   6.119   5.966  0.0774 -0.9968 -0.5367
  362MOL0     H47743   7.863   6.062   5.863  0.3498  1.2581  0.1029
  362MOL0     H47744   7.897   5.931   6.121 -0.2917  1.3970  0.8986
  362MOL0     H47745   7.763   5.937   6.012 -0.5154 -1.0061  1.5091
  362MOL0     H47746   7.689   6.369   6.098 -0.6954  1.3049 -0.8236
  362MOL0     H47747   7.453   6.401   6.100 -1.4215 -0.5494  1.4406
  362MOL0     H47748   7.172   6.352   5.798 -2.0596  1.4243 -2.7975
  362MOL0     H47749   6.940   6.385   5.689 -0.3915 -0.7315 -0.7218
  362MOL0     H47750   6.657   6.642   5.750 -0.5572 -1.8186 -2.0975
  362MOL0     H47751   6.786   6.574   5.660 -1.0391 -1.3556 -0.3073
  362MOL0     H47752   6.873   6.794   5.763 -2.2681  0.4421 -0.3007
  362MOL0     H47753   6.956   6.668   5.832  0.0664  0.7641 -0.7392
  362MOL0     H47754   6.896   6.742   6.031  1.5669  2.9180 -0.5155
  362MOL0     H47755   6.742   6.666   6.010 -1.8098  2.0012 -0.2832
  362MOL0     H47756   6.829   6.956   5.913  1.3513 -0.5529  1.0847
  362MOL0     H47757   6.669   6.886   5.880 -0.7963 -1.4350  0.9512
  362MOL0     H47758   6.650   6.849   6.145 -0.5123 -0.9453 -0.7006
  362MOL0     H47759   6.627   7.005   6.063 -1.0434 -1.3298  0.5689
  362MOL0     H47760   6.911   6.946   6.165  0.8987 -0.0303 -0.0171
  362MOL0     H47761   6.792   7.007   6.269  0.5569  1.6792 -0.2920
  362MOL0     H47762   6.914   7.134   6.008  1.2795  0.4849  0.8301
  362MOL0     H47763   6.774   7.209   6.088  0.2081  0.9812 -1.4262
  362MOL0     H47764   7.026   7.159   6.262 -1.3532  2.2464  3.5328
  362MOL0     H47765   6.887   7.260   6.283 -0.0789 -0.2366 -1.4379
  362MOL0     H47766   6.755   6.390   6.066 -0.8226 -3.2036 -0.2154
  362MOL0     H47767   6.988   6.345   6.173 -0.3249 -2.3719 -0.9129
  362MOL0     H47768   7.389   5.976   6.101  1.2235 -1.2449  0.5623
  362MOL0     H47769   7.612   5.952   6.170  1.4258  0.5895 -1.6793
  362MOL0     H47770   9.367   6.156   5.616  0.5191 -2.0869 -1.3435
  362MOL0     H47771   9.547   5.998   5.651 -1.0503  0.7231 -1.6107
  362MOL0     H47772   9.931   5.827   5.552 -1.2714 -1.5383  0.7597
  362MOL0     H47773  10.137   5.676   5.542  0.2657  1.7541 -1.3617
  362MOL0     H47774  10.380   5.736   5.478 -0.3741  3.7287  3.4852
  362MOL0     H47775  10.352   5.574   5.548 -0.4586  0.4170 -0.5924
  362MOL0     H47776  10.572   5.605   5.458  1.5133  1.4634  0.1002
  362MOL0     H47777  10.611   5.733   5.567 -1.6529  1.0435 -0.2257
  362MOL0     H47778  10.518   5.482   5.717  1.1444 -2.1043  1.2269
  362MOL0     H47779  10.649   5.574   5.758 -1.2003  0.2381  0.5529
  362MOL0     H47780  10.657   5.328   5.666 -0.6277 -1.5015 -0.4920
  362MOL0     H47781  10.657   5.404   5.503 -2.2939  3.7703  1.0478
  362MOL0     H47782  11.063   5.460   5.617 -0.0097 -0.3242  0.8997
  362MOL0     H47783  10.352   5.931   5.812  0.5410 -0.0468 -1.7369
  362MOL0     H47784  10.141   6.084   5.823 -1.9040 -0.1425 -0.6150
  363MOL0     O47785   0.976   6.760   2.208  0.5348  0.1585 -0.6122
  363MOL0     C47786   1.007   6.653   2.273  0.3214  0.8113 -0.6223
  363MOL0     O47787   0.918   6.557   2.318 -0.2122  0.1146  0.8525
  363MOL0     C47788   0.781   6.579   2.313  0.2037 -1.2231  0.0159
  363MOL0     C47789   0.702   6.465   2.304  0.4535  0.3325 -0.2682
  363MOL0     C47790   0.562   6.466   2.309  0.1473 -0.6547  0.5004
  363MOL0     C47791   0.506   6.595   2.320 -0.1534  0.2774 -0.3454
  363MOL0     O47792   0.372   6.591   2.320  0.3975 -0.2436  1.1451
  363MOL0     C47793   0.317   6.672   2.215 -0.1106  0.0012  0.0974
  363MOL0     C47794   0.172   6.650   2.212  0.9221 -0.7012 -1.2774
  363MOL0     C47795   0.103   6.766   2.126 -1.0347  0.0798  0.1799
  363MOL0     C47796  -0.044   6.745   2.111 -0.0457  0.0319  0.6131
  363MOL0     C47797  -0.101   6.870   2.035 -0.3821 -0.8045 -0.3850
  363MOL0     C47798  -0.247   6.844   1.994  0.3702 -0.2429 -0.3080
  363MOL0     C47799  -0.345   6.821   2.108 -0.2735 -0.2390 -0.1350
  363MOL0     C47800  -0.403   6.957   2.178  0.7005  0.6057  1.0616
  363MOL0     N47801  -0.291   7.040   2.235 -0.7463  0.1517  0.1853
  363MOL0     C47802  -0.219   7.007   2.343  0.6084  0.2464  0.4435
  363MOL0     C47803  -0.148   7.118   2.369 -0.5357  0.3127  0.6900
  363MOL0     C47804  -0.023   7.131   2.458 -0.2345  0.1272 -0.8752
  363MOL0     C47805   0.101   7.079   2.376 -0.8033  0.5840 -1.5468
  363MOL0     C47806   0.189   6.990   2.460  0.6582  0.2440  0.3529
  363MOL0     C47807   0.240   7.041   2.583  0.3187 -0.4639 -0.9035
  363MOL0     O47808   0.370   7.104   2.564  0.0143  0.2393 -0.6189
  363MOL0     C47809   0.491   7.038   2.586 -0.4718 -0.9328  0.1748
  363MOL0     C47810   0.600   7.063   2.494  1.0114 -0.3659 -0.2177
  363MOL0     C47811   0.722   6.990   2.512  0.6973 -0.6349 -0.3078
  363MOL0     C47812   0.730   6.894   2.613  0.1322  0.2309  0.3593
  363MOL0     C47813   0.875   6.825   2.633  0.3767 -1.1393 -0.8327
  363MOL0     O47814   0.980   6.893   2.572  0.9059  0.3289  0.2825
  363MOL0     C47815   1.109   6.847   2.579 -0.5851 -1.0375  0.2711
  363MOL0     C47816   1.193   6.906   2.476  0.5941 -0.4075 -0.6452
  363MOL0     C47817   1.326   6.870   2.464 -0.3315 -0.3570  0.1686
  363MOL0     C47818   1.384   6.794   2.565  0.3662 -0.3250 -1.0068
  363MOL0     O47819   1.507   6.751   2.569 -0.3909 -0.1779 -0.4112
  363MOL0     C47820   1.598   6.785   2.468 -1.0036 -0.7795  0.0065
  363MOL0     C47821   1.735   6.728   2.515 -0.4188 -0.5318 -0.3099
  363MOL0     C47822   1.851   6.760   2.417 -0.4276  0.7095  0.2830
  363MOL0     C47823   1.985   6.704   2.475  0.2556  0.4486 -0.7981
  363MOL0     C47824   2.098   6.738   2.391  0.1113 -0.7374 -0.0310
  363MOL0     C47825   2.229   6.688   2.428 -1.1709 -0.4031 -0.0961
  363MOL0     C47826   2.329   6.724   2.312  0.7669  0.2595  1.1166
  363MOL0     C47827   2.470   6.694   2.349 -0.1901 -0.2873  0.1682
  363MOL0    Cl47828   2.584   6.788   2.241 -0.1604  0.0824  0.4523
  363MOL0     C47829   1.308   6.744   2.672 -0.3283  0.1983  0.0479
  363MOL0     C47830   1.173   6.767   2.680 -0.4914 -0.2462  0.4908
  363MOL0     O47831   0.887   6.728   2.711  0.2114  0.2556 -0.2085
  363MOL0     C47832   0.631   6.876   2.703  0.4324  0.0559 -1.1769
  363MOL0     C47833   0.510   6.950   2.694 -0.0934 -0.0509 -0.0006
  363MOL0     N47834  -0.191   7.219   2.288 -0.4669 -0.7676  0.6133
  363MOL0     N47835  -0.279   7.170   2.205  0.0780 -0.0829 -0.0199
  363MOL0     C47836   0.583   6.707   2.347  0.0398 -0.4188 -0.3447
  363MOL0     C47837   0.715   6.704   2.330 -0.6211 -0.5528 -0.3815
  363MOL0     C47838   1.140   6.604   2.278 -0.5180  0.1299 -0.2251
  363MOL0     C47839   1.188   6.515   2.378 -0.0492 -0.8243  0.6621
  363MOL0     C47840   1.319   6.451   2.371  0.0871  0.1634 -0.3515
  363MOL0     C47841   1.413   6.496   2.280 -0.9926 -0.0989 -1.5659
  363MOL0     O47842   1.542   6.443   2.299 -0.4207  0.2763 -0.2905
  363MOL0     C47843   1.654   6.489   2.227  0.8313 -0.0076  0.4542
  363MOL0     C47844   1.778   6.420   2.275  0.7046  0.2872 -0.5539
  363MOL0     C47845   1.882   6.422   2.155  0.2223 -0.5688 -0.6769
  363MOL0     C47846   2.016   6.365   2.195  0.2571 -1.1916  0.2699
  363MOL0     C47847   2.119   6.426   2.114 -0.6748  0.3408  0.0283
  363MOL0     C47848   2.216   6.473   2.063  0.3013 -0.0202  0.1805
  363MOL0     C47849   1.365   6.591   2.183 -0.0849 -0.3088  0.2332
  363MOL0     C47850   1.232   6.646   2.179 -0.1145  0.0498  0.5499
  363MOL0     H47851   0.746   6.368   2.286 -0.7282 -0.4682  0.9500
  363MOL0     H47852   0.506   6.377   2.280  1.2784 -1.3495  0.3397
  363MOL0     H47853   0.363   6.669   2.116  1.6464  2.7588  0.7221
  363MOL0     H47854   0.332   6.775   2.246 -1.8047  0.7071 -1.2687
  363MOL0     H47855   0.132   6.644   2.314 -1.9459 -2.9564 -2.3812
  363MOL0     H47856   0.159   6.550   2.169  1.8766 -1.6868  0.6133
  363MOL0     H47857   0.132   6.757   2.021 -1.7878  3.9186 -0.5282
  363MOL0     H47858   0.133   6.864   2.165 -4.2456  2.2538 -2.2703
  363MOL0     H47859  -0.063   6.665   2.040  1.6188  0.4403 -0.3637
  363MOL0     H47860  -0.085   6.727   2.210  2.3045  1.2218  1.9018
  363MOL0     H47861  -0.042   6.897   1.947  4.8507 -0.9585  2.6647
  363MOL0     H47862  -0.101   6.967   2.085  0.1143 -0.5398 -0.8817
  363MOL0     H47863  -0.249   6.755   1.930 -0.5030 -1.3181  1.1569
  363MOL0     H47864  -0.288   6.931   1.941 -0.7138  0.4855  1.6436
  363MOL0     H47865  -0.426   6.752   2.082 -0.4353  0.3355 -1.1562
  363MOL0     H47866  -0.299   6.763   2.189  3.6957  2.1146 -0.4545
  363MOL0     H47867  -0.469   6.925   2.259 -0.6505  0.2338 -0.1533
  363MOL0     H47868  -0.465   7.009   2.105 -1.1113 -2.2318  0.3904
  363MOL0     H47869  -0.214   6.908   2.387  0.4311  1.5125  3.6317
  363MOL0     H47870  -0.046   7.065   2.542 -5.2744  0.7767 -1.4518
  363MOL0     H47871  -0.014   7.235   2.491 -0.7099 -0.0011 -0.3184
  363MOL0     H47872   0.162   7.162   2.338 -1.5131  0.0169 -4.1572
  363MOL0     H47873   0.065   7.019   2.292  0.6983 -0.3129 -1.5898
  363MOL0     H47874   0.123   6.906   2.485 -2.2313  2.6478  1.3419
  363MOL0     H47875   0.257   6.945   2.387 -0.4424 -0.9388  0.0194
  363MOL0     H47876   0.243   6.951   2.645  2.0167  0.2796  0.1553
  363MOL0     H47877   0.171   7.106   2.638  1.9256  1.0718 -0.6188
  363MOL0     H47878   0.577   7.136   2.417 -0.3473  3.2018  3.1972
  363MOL0     H47879   0.807   7.015   2.450  0.9069  0.1260  0.2688
  363MOL0     H47880   1.141   6.985   2.421  2.3801  2.3989  1.4487
  363MOL0     H47881   1.377   6.915   2.379 -3.2098 -0.4463 -1.7370
  363MOL0     H47882   1.606   6.894   2.462 -1.2975 -0.8383 -3.5896
  363MOL0     H47883   1.566   6.750   2.370  0.0898 -0.0378 -0.6343
  363MOL0     H47884   1.729   6.620   2.531 -0.9714 -0.3658  0.7420
  363MOL0     H47885   1.764   6.770   2.612 -1.8111 -0.9772  0.3376
  363MOL0     H47886   1.860   6.869   2.413 -2.3390  0.8936  0.0438
  363MOL0     H47887   1.837   6.714   2.319  1.2510  0.1355  0.2890
  363MOL0     H47888   1.996   6.751   2.573  0.3273 -1.0651 -0.0547
  363MOL0     H47889   1.973   6.596   2.473 -2.1730  0.6552 -0.9800
  363MOL0     H47890   2.097   6.847   2.387 -2.0441 -0.7327 -1.0527
  363MOL0     H47891   2.075   6.701   2.290  2.6570 -1.5483 -0.3692
  363MOL0     H47892   2.223   6.579   2.436  1.2349 -0.6412 -0.7591
  363MOL0     H47893   2.262   6.731   2.522 -1.3745  0.4591 -0.4130
  363MOL0     H47894   2.309   6.668   2.221 -0.8224  1.6909  0.5343
  363MOL0     H47895   2.314   6.830   2.291 -2.1767 -0.7619 -2.9767
  363MOL0     H47896   2.483   6.586   2.336 -0.6242 -0.5419  1.6676
  363MOL0     H47897   2.499   6.713   2.453  3.1310 -0.9662 -0.5078
  363MOL0     H47898   1.351   6.682   2.750  1.0584  1.2530  0.1549
  363MOL0     H47899   1.106   6.730   2.756 -0.3232 -1.4407  0.0817
  363MOL0     H47900   0.635   6.813   2.791 -3.2112 -0.2122 -1.0286
  363MOL0     H47901   0.432   6.934   2.767  0.9214 -1.8324  0.7658
  363MOL0     H47902   0.541   6.805   2.371  2.1393  0.4919 -0.2120
  363MOL0     H47903   0.785   6.786   2.347 -3.4194  2.0535 -0.5962
  363MOL0     H47904   1.124   6.498   2.464 -2.6592 -1.1469 -1.2354
  363MOL0     H47905   1.352   6.385   2.450  1.6658  0.8347 -0.4201
  363MOL0     H47906   1.669   6.596   2.242 -0.0413  0.4091 -1.3796
  363MOL0     H47907   1.639   6.472   2.120  2.6687 -0.1320  0.1780
  363MOL0     H47908   1.824   6.481   2.353  0.3473 -1.0081  0.7085
  363MOL0     H47909   1.753   6.320   2.312  1.2722  0.4910  0.4216
  363MOL0     H47910   1.885   6.531   2.143 -1.8973 -0.2068  1.4482
  363MOL0     H47911   1.851   6.377   2.060 -2.6208 -0.2414  0.0261
  363MOL0     H47912   2.032   6.386   2.301  0.4368  0.2305 -0.0138
  363MOL0     H47913   2.025   6.256   2.193  1.6300 -1.2120  3.0606
  363MOL0     H47914   2.299   6.501   2.003 -1.1246  0.7935 -1.5024
  363MOL0     H47915   1.433   6.625   2.105  1.5887 -0.4333  1.5807
  363MOL0     H47916   1.220   6.710   2.093 -0.1000 -1.8971 -0.9721
  364MOL0     O47917  10.366  10.205  10.815 -0.5853 -0.1064  0.1754
  364MOL0     C47918  10.402  10.274  10.915 -0.1254 -0.2162 -0.4112
  364MOL0     O47919  10.326  10.341  11.004 -0.3379  0.3040  0.5467
  364MOL0     C47920  10.193  10.307  11.008  0.3402  1.2881 -0.8747
  364MOL0     C47921  10.132  10.258  11.130 -0.4214 -0.2931  0.3848
  364MOL0     C47922   9.996  10.241  11.143 -0.4888 -0.2107  0.0270
  364MOL0     C47923   9.904  10.275  11.034 -0.5239 -0.0634  0.1116
  364MOL0     O47924   9.762  10.260  11.048 -0.1826  0.6896 -0.5042
  364MOL0     C47925   9.691  10.214  10.934 -0.9900 -0.1964 -0.3561
  364MOL0     C47926   9.574  10.137  10.994 -0.3756  1.1832 -0.1149
  364MOL0     C47927   9.458  10.223  11.012  0.5156  0.2999 -0.7673
  364MOL0     C47928   9.320  10.162  11.083 -0.1036 -0.0278  0.0637
  364MOL0     C47929   9.220  10.263  11.146  0.4630 -0.0567  0.0080
  364MOL0     C47930   9.176  10.362  11.037 -0.4467 -0.7693 -0.0701
  364MOL0     C47931   9.049  10.433  11.088  0.3642  0.1779 -0.4295
  364MOL0     C47932   9.040  10.470  11.236  0.2621  0.1039  0.2466
  364MOL0     N47933   8.897  10.499  11.280 -1.6510 -0.9200 -0.3690
  364MOL0     C47934   8.816  10.576  11.202 -0.6471 -0.9578  0.0522
  364MOL0     C47935   8.695  10.523  11.226 -0.5216  0.4134 -0.8236
  364MOL0     C47936   8.573  10.572  11.147  0.1943  0.8630 -0.6984
  364MOL0     C47937   8.462  10.472  11.117  0.2704  0.0652 -0.3883
  364MOL0     C47938   8.399  10.441  11.248  0.0206 -0.4310  0.3505
  364MOL0     C47939   8.254  10.397  11.244  0.0410  0.9625  0.2282
  364MOL0     O47940   8.226  10.318  11.128  0.3428  0.6954 -0.0827
  364MOL0     C47941   8.096  10.299  11.089 -0.4697  1.0352 -0.2314
  364MOL0     C47942   8.086  10.230  10.965  0.1969  0.6215  0.5929
  364MOL0     C47943   7.951  10.220  10.907  0.0006  0.4218  0.0387
  364MOL0     C47944   7.844  10.284  10.966 -0.7051  0.8109  0.2096
  364MOL0     C47945   7.711  10.298  10.902 -0.1444  0.9743 -0.3763
  364MOL0     O47946   7.642  10.416  10.899 -0.0729  0.6418  0.2700
  364MOL0     C47947   7.517  10.441  10.852 -0.1928 -0.4575 -0.0543
  364MOL0     C47948   7.514  10.560  10.789  0.1861 -0.1643  0.3000
  364MOL0     C47949   7.386  10.600  10.742 -0.4374  0.3983 -0.3775
  364MOL0     C47950   7.278  10.512  10.736 -0.7750 -0.1268 -0.6619
  364MOL0     O47951   7.163  10.556  10.685  0.2979 -0.8703 -1.1178
  364MOL0     C47952   7.125  10.479  10.566 -0.0900  0.7978 -0.3902
  364MOL0     C47953   6.982  10.521  10.537  0.3629  0.4370  0.8475
  364MOL0     C47954   6.866  10.474  10.619  1.1416 -0.8875 -0.2637
  364MOL0     C47955   6.857  10.322  10.655 -0.0670 -0.4019  0.5511
  364MOL0     C47956   6.732  10.311  10.736  0.8313  0.4724 -0.0760
  364MOL0     C47957   6.606  10.336  10.654  0.1025 -0.1580 -0.1066
  364MOL0     C47958   6.484  10.283  10.719  0.1716 -0.1305  0.1481
  364MOL0     C47959   6.365  10.291  10.622 -0.2796  0.5618 -0.2051
  364MOL0    Cl47960   6.204  10.250  10.716  0.2955  0.3094  0.0229
  364MOL0     C47961   7.292  10.386  10.788 -0.5901  0.7061  0.0917
  364MOL0     C47962   7.415  10.346  10.849 -0.5722  0.2330 -0.4483
  364MOL0     O47963   7.671  10.190  10.859 -0.1545  0.3052 -0.2974
  364MOL0     C47964   7.855  10.352  11.090 -0.5831 -0.9797 -0.2969
  364MOL0     C47965   7.984  10.348  11.151  0.2507 -0.0919  0.0124
  364MOL0     N47966   8.703  10.440  11.336 -1.1673 -0.5976  0.5970
  364MOL0     N47967   8.828  10.422  11.367  0.7278  0.0158  0.5397
  364MOL0     C47968   9.959  10.319  10.915  0.2534  1.1869  1.1998
  364MOL0     C47969  10.098  10.328  10.903 -0.4336  0.1245 -0.1956
  364MOL0     C47970  10.541  10.304  10.911  0.1453  0.3299  0.5559
  364MOL0     C47971  10.593  10.412  10.981 -1.1811  0.3622 -0.0141
  364MOL0     C47972  10.732  10.448  10.976 -0.0842  0.2320  0.4156
  364MOL0     C47973  10.818  10.369  10.896 -0.3901  0.0626  0.9520
  364MOL0     O47974  10.950  10.395  10.885  0.3131  0.2784  0.9041
  364MOL0     C47975  11.015  10.460  11.000 -0.4851  0.4220  0.5359
  364MOL0     C47976  11.158  10.499  10.960  0.5303 -0.0453  0.3631
  364MOL0     C47977  11.230  10.595  11.049 -0.0225 -0.0088 -0.7757
  364MOL0     C47978  11.383  10.585  11.000  0.2520  0.5594 -0.2653
  364MOL0     C47979  11.459  10.701  11.049  0.6042 -0.3483  0.2908
  364MOL0     C47980  11.520  10.791  11.100  0.0028  0.1254  0.7198
  364MOL0     C47981  10.770  10.253  10.833 -0.3208 -0.1596 -0.6111
  364MOL0     C47982  10.632  10.223  10.840  0.3228 -0.9167  0.3498
  364MOL0     H47983  10.191  10.244  11.219  0.6627  1.1784 -0.0625
  364MOL0     H47984   9.969  10.206  11.242  0.1406  1.8189  0.9537
  364MOL0     H47985   9.747  10.155  10.861 -0.0518  2.2115 -1.7336
  364MOL0     H47986   9.658  10.300  10.874  2.6001  2.2580  0.8394
  364MOL0     H47987   9.603  10.099  11.093  4.2985 -0.7294 -1.9346
  364MOL0     H47988   9.557  10.047  10.933  1.7679  1.2930 -0.9672
  364MOL0     H47989   9.420  10.245  10.911 -2.6575  0.9019  0.4423
  364MOL0     H47990   9.482  10.320  11.055 -1.4982  0.9739 -1.0875
  364MOL0     H47991   9.266  10.100  11.011  0.5260  2.4341 -2.6970
  364MOL0     H47992   9.346  10.096  11.167 -2.0201 -2.2840 -0.9891
  364MOL0     H47993   9.260  10.316  11.233 -0.1866 -0.1915  0.3938
  364MOL0     H47994   9.132  10.206  11.176  0.5648 -0.1096  0.2059
  364MOL0     H47995   9.170  10.307  10.943 -0.1966 -0.3525 -0.3313
  364MOL0     H47996   9.252  10.440  11.028 -0.7077 -0.3863  0.9434
  364MOL0     H47997   9.035  10.518  11.021  0.4976  1.2851  0.8805
  364MOL0     H47998   8.968  10.363  11.067 -2.1200  2.7334 -0.0270
  364MOL0     H47999   9.100  10.561  11.247 -1.0059  0.9596  0.3824
  364MOL0     H48000   9.068  10.390  11.305  0.5157 -0.9672 -1.0726
  364MOL0     H48001   8.847  10.652  11.132 -0.1447  0.3782  1.6661
  364MOL0     H48002   8.601  10.623  11.054 -2.8939  2.7340 -0.7438
  364MOL0     H48003   8.523  10.651  11.204  0.3687  0.4792  0.0001
  364MOL0     H48004   8.507  10.380  11.077  0.3831  0.4152 -1.0735
  364MOL0     H48005   8.396  10.510  11.039 -0.5186 -1.8019 -0.7076
  364MOL0     H48006   8.456  10.355  11.283  0.7945 -0.2307 -0.4168
  364MOL0     H48007   8.410  10.520  11.324  2.4211 -1.6337  1.3668
  364MOL0     H48008   8.186  10.482  11.239  0.1986  1.0513 -0.6515
  364MOL0     H48009   8.222  10.338  11.331  0.3202 -2.9992 -2.0882
  364MOL0     H48010   8.175  10.201  10.910  0.3283  2.4256 -0.2383
  364MOL0     H48011   7.948  10.158  10.818  1.3888  0.0392  0.2324
  364MOL0     H48012   7.596  10.631  10.786 -1.6136  2.0079  0.1332
  364MOL0     H48013   7.367  10.695  10.692 -1.1852  0.8604  0.7352
  364MOL0     H48014   7.128  10.371  10.581 -0.2136  0.5920 -1.7479
  364MOL0     H48015   7.203  10.487  10.490  0.1320  0.7509 -0.1662
  364MOL0     H48016   6.971  10.491  10.432  0.7786  1.8221  0.3777
  364MOL0     H48017   6.991  10.630  10.528 -1.6213  0.4481 -3.5580
  364MOL0     H48018   6.784  10.523  10.567 -0.1631 -1.7507  0.9077
  364MOL0     H48019   6.859  10.538  10.708 -2.3232  0.1663 -1.1586
  364MOL0     H48020   6.866  10.254  10.570  1.3571 -3.3796  2.8760
  364MOL0     H48021   6.947  10.297  10.713  1.2836 -2.6999 -2.3273
  364MOL0     H48022   6.734  10.369  10.828  2.7497  0.3923 -0.0188
  364MOL0     H48023   6.725  10.203  10.757  0.6949  0.4396 -0.2937
  364MOL0     H48024   6.624  10.310  10.549  2.5517  1.3392 -0.1397
  364MOL0     H48025   6.589  10.444  10.645  0.2904 -0.1903 -1.0132
  364MOL0     H48026   6.502  10.179  10.744 -0.8983 -0.5092 -0.5831
  364MOL0     H48027   6.457  10.318  10.819 -0.8736 -2.8500  0.9015
  364MOL0     H48028   6.388  10.219  10.543  1.6521  3.0305 -2.0285
  364MOL0     H48029   6.358  10.394  10.588  1.5502  0.5188 -0.8252
  364MOL0     H48030   7.209  10.321  10.763  1.0145 -1.0563 -0.8977
  364MOL0     H48031   7.434  10.255  10.906 -2.8149  1.0102  1.7367
  364MOL0     H48032   7.770  10.394  11.142 -0.2868 -1.8578  0.9419
  364MOL0     H48033   7.986  10.396  11.248  0.5949  0.7894 -0.4161
  364MOL0     H48034   9.889  10.330  10.833  0.8899 -2.0627  0.0494
  364MOL0     H48035  10.135  10.358  10.806  0.8635 -1.3465 -0.1847
  364MOL0     H48036  10.534  10.477  11.045 -0.1651  2.5067 -1.1445
  364MOL0     H48037  10.764  10.542  11.020  1.3123 -1.7601  4.1081
  364MOL0     H48038  10.997  10.414  11.097  1.3820  3.1746  2.3218
  364MOL0     H48039  10.980  10.562  11.014 -1.0228  0.4462 -0.8021
  364MOL0     H48040  11.213  10.407  10.941 -2.2919 -1.6101 -0.8371
  364MOL0     H48041  11.161  10.551  10.864 -2.4237  3.5623  1.9504
  364MOL0     H48042  11.222  10.575  11.156 -0.6174  2.1964 -0.3572
  364MOL0     H48043  11.187  10.695  11.038 -6.1772 -1.8936  1.8035
  364MOL0     H48044  11.444  10.498  11.026  1.5476  1.0765 -1.4415
  364MOL0     H48045  11.384  10.586  10.891 -1.0657 -0.8973 -0.3395
  364MOL0     H48046  11.562  10.881  11.140 -2.0553  0.1733  3.0071
  364MOL0     H48047  10.832  10.174  10.793 -2.0909 -2.1350  0.3528
  364MOL0     H48048  10.596  10.141  10.778 -3.0451  0.7266 -0.1530
  365MOL0     O48049  10.177   7.519   9.719 -0.1181  0.2437  0.3022
  365MOL0     C48050  10.282   7.510   9.648  0.4782  0.2336 -0.0989
  365MOL0     O48051  10.385   7.414   9.656  0.8622  0.1629 -0.1152
  365MOL0     C48052  10.372   7.316   9.747 -0.0973 -0.8890 -0.1904
  365MOL0     C48053  10.411   7.189   9.706  0.1509 -0.4623 -0.4453
  365MOL0     C48054  10.422   7.093   9.807 -0.0734 -0.8075  0.3546
  365MOL0     C48055  10.410   7.119   9.939  0.7189  0.3183 -0.2700
  365MOL0     O48056  10.429   7.026  10.033 -0.2682  0.2959 -0.6490
  365MOL0     C48057  10.317   6.947  10.068 -0.5429  0.2332 -1.3354
  365MOL0     C48058  10.291   6.831   9.968  0.1033  0.4298  0.3035
  365MOL0     C48059  10.160   6.770  10.000  0.4049  0.6822 -0.4165
  365MOL0     C48060  10.158   6.660  10.118  0.2334 -0.8681 -0.8109
  365MOL0     C48061  10.009   6.616  10.136  0.1918 -0.1416  0.7664
  365MOL0     C48062   9.914   6.727  10.199 -0.0047  0.0678  0.4162
  365MOL0     C48063   9.772   6.666  10.207  0.7063 -0.0124 -1.1666
  365MOL0     C48064   9.668   6.773  10.208  0.7103 -0.1523  0.4621
  365MOL0     N48065   9.536   6.723  10.254 -0.3996 -0.2613  0.0605
  365MOL0     C48066   9.448   6.802  10.321  0.2626  0.2172  0.4165
  365MOL0     C48067   9.337   6.724  10.322 -0.7675  1.1914 -0.4958
  365MOL0     C48068   9.198   6.772  10.364 -0.3235  0.5925  1.1342
  365MOL0     C48069   9.127   6.849  10.255 -1.0493 -0.0571  0.2446
  365MOL0     C48070   8.993   6.903  10.304 -0.3965  0.0917  0.6304
  365MOL0     C48071   8.908   6.961  10.189 -0.7188  0.7295 -0.2353
  365MOL0     O48072   8.886   6.863  10.082  0.0045  0.1944  0.0389
  365MOL0     C48073   8.756   6.821  10.088  0.9423  0.8490  0.2482
  365MOL0     C48074   8.744   6.685  10.140 -0.4330 -0.1792  0.2998
  365MOL0     C48075   8.620   6.624  10.132  1.1810 -1.0209  0.3553
  365MOL0     C48076   8.500   6.692  10.085  0.2251  0.0468 -0.4523
  365MOL0     C48077   8.374   6.613  10.070 -0.3757 -0.0387 -0.3095
  365MOL0     O48078   8.259   6.688  10.087  0.0041 -0.3032 -0.2075
  365MOL0     C48079   8.136   6.636  10.038 -0.1447 -0.4813 -0.1851
  365MOL0     C48080   8.092   6.686   9.923 -1.0120 -0.3862  0.2853
  365MOL0     C48081   7.975   6.644   9.865  0.1523  0.1768  0.3080
  365MOL0     C48082   7.894   6.547   9.918 -0.4813  0.4128 -0.3693
  365MOL0     O48083   7.765   6.518   9.869 -0.6270 -0.2148 -0.0440
  365MOL0     C48084   7.663   6.613   9.914  0.5570  0.5804 -0.5265
  365MOL0     C48085   7.528   6.571   9.848 -0.3081  0.0492  1.0501
  365MOL0     C48086   7.457   6.460   9.934 -0.0415  0.2125  0.2424
  365MOL0     C48087   7.348   6.394   9.847  0.0077  0.1729  0.4179
  365MOL0     C48088   7.231   6.354   9.927  1.4573 -0.1212 -0.0514
  365MOL0     C48089   7.142   6.454  10.004  0.7520 -0.8933 -0.5319
  365MOL0     C48090   7.105   6.569   9.916  0.8393  0.1646  0.2687
  365MOL0     C48091   6.991   6.531   9.824 -0.4233  0.5634  0.1626
  365MOL0    Cl48092   6.921   6.682   9.736 -0.2756 -0.1347 -0.4075
  365MOL0     C48093   7.952   6.485  10.035 -1.0388 -0.6112 -0.3169
  365MOL0     C48094   8.069   6.533  10.095  0.2152  0.7594 -0.1351
  365MOL0     O48095   8.386   6.496  10.055 -0.2279 -0.6230  0.0217
  365MOL0     C48096   8.513   6.816  10.034 -0.7579 -1.0305 -0.2734
  365MOL0     C48097   8.639   6.883  10.037  1.2564  0.5616  0.0679
  365MOL0     N48098   9.362   6.608  10.254 -0.9207  0.4938 -0.5285
  365MOL0     N48099   9.489   6.596  10.229  0.5627 -0.4198 -0.0038
  365MOL0     C48100  10.384   7.249   9.978 -0.1028  0.0553  0.4918
  365MOL0     C48101  10.367   7.345   9.882  0.6626 -1.0967 -1.1141
  365MOL0     C48102  10.315   7.613   9.554  0.3165  0.3237 -0.7639
  365MOL0     C48103  10.212   7.701   9.511 -0.3946  0.5561  0.2355
  365MOL0     C48104  10.238   7.800   9.424 -0.3341 -1.4392  0.2073
  365MOL0     C48105  10.366   7.816   9.368  0.9862 -0.7722  0.0536
  365MOL0     O48106  10.378   7.914   9.271  0.0437  0.4078 -0.6585
  365MOL0     C48107  10.489   8.002   9.288  0.0773 -0.4429  0.1105
  365MOL0     C48108  10.597   7.981   9.181  0.0308  0.1691 -0.2538
  365MOL0     C48109  10.702   8.093   9.174  0.2102  0.1744 -0.3306
  365MOL0     C48110  10.820   8.061   9.089 -0.1263  0.2191  0.1832
  365MOL0     C48111  10.785   8.021   8.955  0.7152  0.8241 -0.4037
  365MOL0     C48112  10.749   7.977   8.852  0.4126  0.4741  0.1192
  365MOL0     C48113  10.470   7.730   9.402 -0.5283  0.6192 -0.9305
  365MOL0     C48114  10.444   7.630   9.505 -0.0143  0.1360 -0.1573
  365MOL0     H48115  10.417   7.162   9.601 -3.1183 -3.1058 -0.1243
  365MOL0     H48116  10.454   6.991   9.788  1.5278 -0.0181 -1.5158
  365MOL0     H48117  10.231   7.013  10.083  0.9405  2.1527 -0.8722
  365MOL0     H48118  10.335   6.898  10.164  2.8118 -0.5127 -2.2037
  365MOL0     H48119  10.368   6.754   9.970  0.4452  0.7635 -0.0441
  365MOL0     H48120  10.291   6.874   9.868  1.2837 -1.0093 -0.3373
  365MOL0     H48121  10.124   6.716   9.912  3.4732 -1.2594 -0.6402
  365MOL0     H48122  10.087   6.851  10.010 -0.3054  0.0343 -0.2408
  365MOL0     H48123  10.225   6.583  10.080  1.8469  0.6662 -1.2515
  365MOL0     H48124  10.189   6.714  10.208 -1.1507  0.5871 -1.1697
  365MOL0     H48125  10.011   6.526  10.199  2.0345 -1.0671 -0.5435
  365MOL0     H48126   9.968   6.575  10.043 -1.2423 -0.0421  1.3188
  365MOL0     H48127   9.921   6.815  10.135 -2.9783 -2.3969 -3.8090
  365MOL0     H48128   9.950   6.765  10.295  0.9171  2.8281 -0.9055
  365MOL0     H48129   9.748   6.590  10.132  1.7068 -1.3296 -0.2111
  365MOL0     H48130   9.769   6.609  10.300 -1.8918  0.4250 -0.9247
  365MOL0     H48131   9.662   6.826  10.113 -1.0176  0.9385  1.1109
  365MOL0     H48132   9.694   6.852  10.279 -3.4449  1.0182  1.0023
  365MOL0     H48133   9.467   6.906  10.346 -2.9945  1.3098 -1.0465
  365MOL0     H48134   9.202   6.838  10.451 -2.6316  0.0850  1.6834
  365MOL0     H48135   9.130   6.687  10.382  0.2846 -0.7061 -1.9521
  365MOL0     H48136   9.112   6.777  10.174 -1.1406  1.2717 -0.9359
  365MOL0     H48137   9.185   6.936  10.223  0.6816 -1.0343  0.5513
  365MOL0     H48138   8.954   6.831  10.376  0.2735 -0.5759  0.3382
  365MOL0     H48139   9.017   6.978  10.379  0.8363  0.5648 -0.2120
  365MOL0     H48140   8.960   7.047  10.145 -0.2770  0.0977 -0.9625
  365MOL0     H48141   8.815   7.003  10.229 -0.8670 -0.7720  1.0908
  365MOL0     H48142   8.823   6.625  10.184 -1.1092  1.9655  5.1662
  365MOL0     H48143   8.616   6.525  10.175  1.4518 -0.9693  0.5043
  365MOL0     H48144   8.145   6.774   9.888  2.5294 -2.4460  0.0433
  365MOL0     H48145   7.932   6.701   9.783 -0.8654 -0.2457  0.5289
  365MOL0     H48146   7.667   6.718   9.884 -2.8021  0.8526 -0.4755
  365MOL0     H48147   7.659   6.603  10.023  1.5388 -0.3008 -0.5542
  365MOL0     H48148   7.540   6.534   9.746 -0.0873  0.2052  1.0183
  365MOL0     H48149   7.450   6.648   9.839 -0.0218  0.0836 -3.9905
  365MOL0     H48150   7.402   6.509  10.015 -1.5839 -1.9460  0.5815
  365MOL0     H48151   7.530   6.393   9.979 -0.4864  0.4744  1.3967
  365MOL0     H48152   7.303   6.462   9.774 -4.3223  0.4119  2.9617
  365MOL0     H48153   7.395   6.313   9.790  0.0139  1.8316 -2.0933
  365MOL0     H48154   7.268   6.276   9.994  1.4952 -0.2281 -0.1987
  365MOL0     H48155   7.160   6.312   9.855  0.8092  2.5030 -1.0651
  365MOL0     H48156   7.198   6.503  10.085 -1.5942  0.0552  0.6034
  365MOL0     H48157   7.050   6.417  10.050 -0.5609 -1.3420 -3.3013
  365MOL0     H48158   7.062   6.650   9.975  2.1454  0.0248  1.4433
  365MOL0     H48159   7.180   6.606   9.845 -0.5074 -0.3788 -1.5219
  365MOL0     H48160   6.910   6.500   9.891  0.6203 -1.1410  0.6865
  365MOL0     H48161   7.029   6.452   9.758 -0.5466 -1.4795  2.4242
  365MOL0     H48162   7.902   6.415  10.101 -0.3806  0.3447  1.2656
  365MOL0     H48163   8.105   6.482  10.184 -3.7389 -0.6289  0.8700
  365MOL0     H48164   8.428   6.866   9.989  0.4149  0.4419 -0.9924
  365MOL0     H48165   8.647   6.986  10.005  2.4569  0.4119 -0.1806
  365MOL0     H48166  10.385   7.269  10.084  4.8081  2.1655  0.3329
  365MOL0     H48167  10.365   7.439   9.936 -2.7317 -1.3803 -0.5447
  365MOL0     H48168  10.111   7.695   9.548 -0.9192  1.0830 -1.0437
  365MOL0     H48169  10.163   7.872   9.391 -0.2741 -0.9408  1.1273
  365MOL0     H48170  10.538   7.975   9.382  1.1995 -1.7903 -0.8158
  365MOL0     H48171  10.462   8.106   9.307 -0.5084 -0.9727  2.4675
  365MOL0     H48172  10.645   7.888   9.211 -1.0775  0.6805  3.6039
  365MOL0     H48173  10.545   7.979   9.085 -0.6819  0.5388  0.1199
  365MOL0     H48174  10.731   8.106   9.279 -0.2937 -2.7168  0.2497
  365MOL0     H48175  10.655   8.182   9.132 -3.0196 -1.0534  0.4539
  365MOL0     H48176  10.881   8.150   9.072 -2.9739  1.9946 -1.6574
  365MOL0     H48177  10.873   7.980   9.139  1.3341  0.8512 -0.2903
  365MOL0     H48178  10.729   7.937   8.755  2.8772  1.0716 -0.6933
  365MOL0     H48179  10.570   7.748   9.365  0.6184 -1.2859  1.0260
  365MOL0     H48180  10.529   7.568   9.534  1.0735  2.1648  1.2364
  366MOL0     O48181   1.174   6.690   7.210  0.0297  0.3280 -0.6418
  366MOL0     C48182   1.090   6.697   7.120  0.9591  0.1543  0.8799
  366MOL0     O48183   1.111   6.695   6.985 -0.5394 -0.3414  0.2176
  366MOL0     C48184   1.243   6.683   6.949  0.1889  0.1477  0.6690
  366MOL0     C48185   1.310   6.562   6.951  0.4714  0.9643 -0.1178
  366MOL0     C48186   1.442   6.548   6.908  0.1245  0.4322 -0.3049
  366MOL0     C48187   1.523   6.657   6.868  0.4509 -0.3372  0.2149
  366MOL0     O48188   1.654   6.658   6.838 -0.5080 -0.6913  0.0147
  366MOL0     C48189   1.734   6.583   6.924  0.5711 -0.7453 -0.1421
  366MOL0     C48190   1.866   6.648   6.961 -0.1664 -0.5576 -0.3920
  366MOL0     C48191   1.855   6.780   7.045  0.1772 -0.1345 -0.3237
  366MOL0     C48192   1.969   6.804   7.143 -1.1677  0.0901  0.3351
  366MOL0     C48193   2.096   6.846   7.057  0.3222  0.1015  0.2362
  366MOL0     C48194   2.198   6.722   7.062  0.5770 -0.5774 -0.3481
  366MOL0     C48195   2.330   6.753   6.982  0.4073 -0.5303 -1.0902
  366MOL0     C48196   2.313   6.805   6.834 -0.0648 -0.4312  0.5055
  366MOL0     N48197   2.259   6.703   6.739 -0.6862  0.7269 -0.5436
  366MOL0     C48198   2.139   6.699   6.679  0.0697 -1.4149  0.6674
  366MOL0     C48199   2.142   6.603   6.593 -0.3783 -0.2077  0.9491
  366MOL0     C48200   2.018   6.561   6.503 -1.1552 -0.3194 -0.3689
  366MOL0     C48201   2.030   6.600   6.357  0.3771 -0.1607  0.0893
  366MOL0     C48202   2.036   6.752   6.338 -0.9664 -0.3097  0.0924
  366MOL0     C48203   1.913   6.828   6.396 -0.3225 -0.3820 -0.5098
  366MOL0     O48204   1.790   6.754   6.384  0.9314 -0.0088 -0.2458
  366MOL0     C48205   1.671   6.803   6.433 -0.3493  0.1226  0.5075
  366MOL0     C48206   1.659   6.916   6.519 -0.0605 -0.3890  0.4118
  366MOL0     C48207   1.530   6.962   6.550  0.4455 -1.5362  0.3812
  366MOL0     C48208   1.413   6.895   6.517 -0.9756  0.0952  0.2318
  366MOL0     C48209   1.293   6.945   6.566  0.6931 -0.1084  0.3148
  366MOL0     O48210   1.183   6.876   6.525  0.0129  0.2747 -0.4267
  366MOL0     C48211   1.061   6.908   6.585 -0.6198 -0.2681  0.0529
  366MOL0     C48212   1.014   7.040   6.596  0.0791 -0.9420 -0.2835
  366MOL0     C48213   0.888   7.068   6.656 -0.5478  0.2535 -0.4926
  366MOL0     C48214   0.817   6.969   6.716 -0.8343 -0.2002 -0.3624
  366MOL0     O48215   0.700   6.996   6.781  0.3619  0.4677  0.8510
  366MOL0     C48216   0.715   7.090   6.895  0.1207  0.2021  0.5167
  366MOL0     C48217   0.584   7.100   6.966 -0.8551  0.4323  0.3768
  366MOL0     C48218   0.464   7.143   6.882  0.2609  0.1299 -0.1323
  366MOL0     C48219   0.341   7.146   6.970  0.0088  0.3601  0.2241
  366MOL0     C48220   0.224   7.162   6.887 -0.7033  0.2306  0.6633
  366MOL0     C48221   0.098   7.110   6.960 -0.3289  0.0595 -1.0483
  366MOL0     C48222  -0.030   7.114   6.869  0.4512  0.0708  0.7385
  366MOL0     C48223  -0.081   7.256   6.834  0.7098  0.7421 -0.3490
  366MOL0    Cl48224  -0.068   7.389   6.964 -0.1968 -0.0485  0.3539
  366MOL0     C48225   0.867   6.836   6.717  0.0679  0.9595  1.1309
  366MOL0     C48226   0.993   6.813   6.656 -0.2247  0.2764 -0.5453
  366MOL0     O48227   1.293   7.047   6.640 -0.3323 -0.3610 -0.5267
  366MOL0     C48228   1.428   6.782   6.436 -0.2001 -0.0374  0.3844
  366MOL0     C48229   1.551   6.740   6.383 -0.8261  0.0167  1.0427
  366MOL0     N48230   2.267   6.549   6.588 -0.3138 -0.5966  0.3229
  366MOL0     N48231   2.343   6.603   6.687  0.4838  0.8811  0.8808
  366MOL0     C48232   1.456   6.782   6.864 -0.2435  0.0122  0.4320
  366MOL0     C48233   1.320   6.787   6.890  0.6544 -0.3518 -1.3758
  366MOL0     C48234   0.952   6.676   7.175  0.0221 -0.5950 -0.5385
  366MOL0     C48235   0.848   6.665   7.078 -0.6476 -0.8006 -0.7749
  366MOL0     C48236   0.716   6.661   7.111  0.8466  0.0243  0.9506
  366MOL0     C48237   0.678   6.670   7.245  0.6192 -0.9942  1.3437
  366MOL0     O48238   0.549   6.667   7.307 -0.6686  0.0509 -0.4270
  366MOL0     C48239   0.452   6.734   7.220 -1.2037 -0.8343 -0.6001
  366MOL0     C48240   0.320   6.742   7.298 -0.3035  0.8421  0.1516
  366MOL0     C48241   0.206   6.825   7.235  0.7391  0.5874  0.2915
  366MOL0     C48242   0.063   6.786   7.280  0.0534  0.1418 -0.1049
  366MOL0     C48243   0.015   6.656   7.236  0.0484 -0.0672 -0.1035
  366MOL0     C48244  -0.030   6.548   7.206 -0.2568 -0.7576 -0.8887
  366MOL0     C48245   0.778   6.693   7.335  1.1497  0.1379  0.2130
  366MOL0     C48246   0.919   6.699   7.306  1.0140 -0.6087  0.0626
  366MOL0     H48247   1.253   6.479   6.990 -0.1348  0.5876 -1.7433
  366MOL0     H48248   1.485   6.450   6.891 -0.0455  0.2348  0.3519
  366MOL0     H48249   1.752   6.494   6.863 -0.1552 -0.0220 -1.4649
  366MOL0     H48250   1.679   6.551   7.013 -0.6356  3.0607  0.6392
  366MOL0     H48251   1.915   6.660   6.864 -2.6406 -1.4971 -1.8497
  366MOL0     H48252   1.922   6.571   7.014  0.0121 -0.7732 -0.8922
  366MOL0     H48253   1.763   6.769   7.103  0.5424 -1.0660  0.0998
  366MOL0     H48254   1.852   6.861   6.972 -1.3433  0.6746  0.6052
  366MOL0     H48255   1.941   6.877   7.219 -3.1019  1.9322 -1.9717
  366MOL0     H48256   1.984   6.706   7.188  0.0274 -0.2113 -0.6693
  366MOL0     H48257   2.142   6.928   7.113  2.3561 -1.1729  0.5542
  366MOL0     H48258   2.077   6.881   6.955 -1.1253  1.3430  0.8846
  366MOL0     H48259   2.145   6.633   7.028 -4.5623  1.1222  2.2135
  366MOL0     H48260   2.234   6.705   7.164  1.6011 -1.1312 -0.7863
  366MOL0     H48261   2.389   6.825   7.039 -2.7552  1.6893 -0.4195
  366MOL0     H48262   2.385   6.658   6.988 -0.4271 -0.9343  0.8460
  366MOL0     H48263   2.412   6.843   6.806  0.8882 -1.0271  2.8891
  366MOL0     H48264   2.240   6.887   6.831 -3.5297 -3.2697 -0.5145
  366MOL0     H48265   2.049   6.760   6.684  0.7353  0.0977 -2.7024
  366MOL0     H48266   1.929   6.600   6.554 -1.0615 -0.8779  0.2443
  366MOL0     H48267   2.015   6.451   6.501 -0.3556 -0.3610 -2.8855
  366MOL0     H48268   1.935   6.572   6.310  0.8418  1.2398 -1.8456
  366MOL0     H48269   2.111   6.547   6.307 -0.5227  1.3025 -3.2578
  366MOL0     H48270   2.134   6.787   6.374 -1.1230  0.7923 -0.5260
  366MOL0     H48271   2.036   6.771   6.230 -0.5815  0.7891  0.2691
  366MOL0     H48272   1.914   6.929   6.356  0.2062 -0.4554 -0.6910
  366MOL0     H48273   1.931   6.837   6.504  1.3065 -1.4628 -0.6463
  366MOL0     H48274   1.745   6.963   6.565 -1.4651  0.5461  2.1941
  366MOL0     H48275   1.525   7.050   6.613 -0.1837 -0.5576 -0.9899
  366MOL0     H48276   1.071   7.113   6.538  1.8430 -1.5588  0.5872
  366MOL0     H48277   0.857   7.171   6.640  0.1842  0.7140  0.9152
  366MOL0     H48278   0.746   7.188   6.857 -0.1494  0.8182  1.8149
  366MOL0     H48279   0.791   7.062   6.970  1.7552  2.2073 -0.2884
  366MOL0     H48280   0.600   7.169   7.050  0.1514  0.7767 -0.0841
  366MOL0     H48281   0.559   7.004   7.012 -2.3096  1.5245  2.0178
  366MOL0     H48282   0.462   7.070   6.801  0.6495 -0.5519  0.4591
  366MOL0     H48283   0.474   7.242   6.838 -0.6553 -0.6250 -2.1532
  366MOL0     H48284   0.329   7.059   7.036  2.0100 -0.6445 -0.6266
  366MOL0     H48285   0.349   7.218   7.051 -0.8976  1.3207 -0.5188
  366MOL0     H48286   0.224   7.098   6.799  1.0598  2.0671 -0.7570
  366MOL0     H48287   0.208   7.265   6.852 -1.4976 -0.4554 -1.0886
  366MOL0     H48288   0.077   7.165   7.052  0.0970 -0.0179 -0.9002
  366MOL0     H48289   0.109   7.004   6.986 -1.6565  0.1519 -0.0161
  366MOL0     H48290  -0.018   7.079   6.766 -0.1366 -1.6878  1.2296
  366MOL0     H48291  -0.112   7.068   6.925  1.5866  0.3722  2.7580
  366MOL0     H48292  -0.187   7.249   6.808  0.4064  2.6285  0.2141
  366MOL0     H48293  -0.018   7.279   6.748  0.6684  1.3325 -0.2299
  366MOL0     H48294   0.797   6.762   6.756 -0.3775  1.3454  1.0678
  366MOL0     H48295   1.037   6.714   6.664 -0.4835  0.2499  0.9424
  366MOL0     H48296   1.341   6.729   6.397  0.4876 -0.9114 -0.0042
  366MOL0     H48297   1.574   6.668   6.305  2.2311  1.9911 -0.0572
  366MOL0     H48298   1.504   6.873   6.828 -0.7692 -0.1654 -0.7920
  366MOL0     H48299   1.271   6.882   6.873 -0.1520 -0.7547 -1.3414
  366MOL0     H48300   0.874   6.672   6.973  0.2541  1.1747 -0.4621
  366MOL0     H48301   0.651   6.671   7.025  0.7334 -2.8929  0.6056
  366MOL0     H48302   0.437   6.689   7.121 -1.8439 -2.0835  0.0459
  366MOL0     H48303   0.486   6.837   7.209 -2.3880 -0.2004  1.2527
  366MOL0     H48304   0.302   6.634   7.295 -0.6857  0.9082 -2.5777
  366MOL0     H48305   0.339   6.776   7.400 -1.3804  0.2952  0.5507
  366MOL0     H48306   0.216   6.808   7.128 -1.8799  0.8814 -0.0497
  366MOL0     H48307   0.208   6.931   7.264 -3.2528  0.1282  3.0203
  366MOL0     H48308   0.050   6.808   7.387 -0.9698  0.6580 -0.3233
  366MOL0     H48309  -0.018   6.852   7.249 -1.7567 -1.1386  1.5972
  366MOL0     H48310  -0.076   6.451   7.201 -0.1414 -0.8778  0.1626
  366MOL0     H48311   0.732   6.712   7.432 -2.2083 -0.9356 -1.0318
  366MOL0     H48312   0.995   6.718   7.382 -0.3577  2.7529  0.8009
  367MOL0     O48313   6.398   1.826   1.371  0.4731  0.1813  0.0061
  367MOL0     C48314   6.445   1.775   1.472  0.6875 -0.4218 -0.5013
  367MOL0     O48315   6.377   1.749   1.593  0.5676  0.6144  1.1524
  367MOL0     C48316   6.235   1.769   1.576  0.1917 -0.4918  0.6791
  367MOL0     C48317   6.175   1.900   1.567  0.2948  0.2334 -0.0634
  367MOL0     C48318   6.030   1.900   1.558 -0.0530 -0.1442  0.7908
  367MOL0     C48319   5.949   1.789   1.567  0.4923  0.0486  0.5595
  367MOL0     O48320   5.816   1.784   1.569  0.4317  0.2537  0.1823
  367MOL0     C48321   5.747   1.908   1.568 -0.1474  0.7612  0.5059
  367MOL0     C48322   5.606   1.874   1.575  0.0495 -0.0553  0.5553
  367MOL0     C48323   5.511   1.988   1.532  0.4932 -0.8243 -0.0481
  367MOL0     C48324   5.369   1.939   1.546 -0.3327 -0.9857  0.7423
  367MOL0     C48325   5.312   1.885   1.413  0.5189  0.7708 -0.7944
  367MOL0     C48326   5.182   1.811   1.428 -0.3024  0.2979 -0.3052
  367MOL0     C48327   5.213   1.677   1.492  0.3931  0.3216 -0.1382
  367MOL0     C48328   5.087   1.587   1.488 -0.2312 -0.5794 -0.9228
  367MOL0     N48329   4.959   1.653   1.536  0.4481 -0.1831 -0.1081
  367MOL0     C48330   4.889   1.636   1.661 -0.1454 -0.3192  0.4793
  367MOL0     C48331   4.763   1.669   1.625 -0.1899  1.0387 -0.1091
  367MOL0     C48332   4.662   1.629   1.722 -0.5917 -0.7465 -0.2971
  367MOL0     C48333   4.555   1.745   1.737  0.8741 -0.0495  0.4373
  367MOL0     C48334   4.497   1.749   1.876  0.2824 -0.2744  0.7171
  367MOL0     C48335   4.418   1.623   1.907  0.5312  0.7161  0.0696
  367MOL0     O48336   4.311   1.583   1.818  0.8162  0.2390 -0.2966
  367MOL0     C48337   4.198   1.661   1.837  0.8249 -0.8340 -1.0039
  367MOL0     C48338   4.119   1.657   1.959 -0.1349 -0.5697 -0.2722
  367MOL0     C48339   4.003   1.737   1.963 -0.4134  0.4149  0.2083
  367MOL0     C48340   3.957   1.829   1.864 -0.9901 -0.2716  0.2387
  367MOL0     C48341   3.847   1.910   1.880 -0.0438  1.0202  0.9803
  367MOL0     O48342   3.807   1.954   1.757  0.2203  0.3744 -0.4592
  367MOL0     C48343   3.669   1.981   1.745  0.2557 -0.6340  0.3739
  367MOL0     C48344   3.584   1.885   1.678 -0.5064 -0.7000 -0.6332
  367MOL0     C48345   3.444   1.909   1.678 -0.4958  0.1609 -0.0365
  367MOL0     C48346   3.383   2.022   1.735 -0.0543  0.8427 -1.0698
  367MOL0     O48347   3.246   2.025   1.746 -0.3815  1.2214  0.6564
  367MOL0     C48348   3.186   2.156   1.740 -0.3647  0.5590 -0.6230
  367MOL0     C48349   3.032   2.142   1.751  0.0265 -0.7788  0.1051
  367MOL0     C48350   2.971   2.279   1.801 -0.0128 -0.2793  0.0485
  367MOL0     C48351   2.823   2.275   1.804 -0.0239  0.5310  0.1052
  367MOL0     C48352   2.771   2.414   1.843 -0.1684  0.0827 -0.4531
  367MOL0     C48353   2.619   2.427   1.833  0.4486 -0.5793 -0.9149
  367MOL0     C48354   2.555   2.443   1.697  0.2217  0.5060 -0.0230
  367MOL0     C48355   2.545   2.592   1.662  0.3875  0.2577  0.5031
  367MOL0    Cl48356   2.494   2.606   1.492 -0.0157 -0.4052  0.0487
  367MOL0     C48357   3.464   2.109   1.798 -0.2746  0.1799 -0.0625
  367MOL0     C48358   3.607   2.095   1.809 -0.6476 -0.0558  0.2771
  367MOL0     O48359   3.791   1.932   1.989  0.2836 -0.7530  0.2435
  367MOL0     C48360   4.047   1.837   1.754 -0.0448 -0.2722  0.2719
  367MOL0     C48361   4.169   1.764   1.744  0.6235  0.4265  0.3045
  367MOL0     N48362   4.761   1.716   1.501 -0.6767 -0.3828  0.8458
  367MOL0     N48363   4.877   1.711   1.455  0.4514  0.6309  1.8659
  367MOL0     C48364   6.021   1.667   1.571  0.5647  0.5531 -0.2995
  367MOL0     C48365   6.161   1.649   1.576 -0.8840  0.1761  0.4109
  367MOL0     C48366   6.585   1.722   1.461  0.0899 -0.7300 -0.5193
  367MOL0     C48367   6.657   1.747   1.344  0.5583 -0.2342  0.1657
  367MOL0     C48368   6.788   1.706   1.337 -0.1730 -0.4695  0.4456
  367MOL0     C48369   6.848   1.632   1.449 -0.8378  0.4450  0.5072
  367MOL0     O48370   6.974   1.587   1.468  0.3230  0.2387 -0.0807
  367MOL0     C48371   7.051   1.599   1.355  0.0584  0.5334 -0.2783
  367MOL0     C48372   7.154   1.497   1.380 -0.2744 -0.5143 -0.3057
  367MOL0     C48373   7.222   1.484   1.519  0.4692 -0.0217  0.0924
  367MOL0     C48374   7.311   1.348   1.524  0.1053 -0.0129  0.3760
  367MOL0     C48375   7.442   1.349   1.453  0.2644 -0.3904  0.0536
  367MOL0     C48376   7.540   1.356   1.389  0.4572  0.9690 -0.2638
  367MOL0     C48377   6.766   1.599   1.558 -0.5079  0.1282 -0.6338
  367MOL0     C48378   6.641   1.647   1.564 -0.5488  0.0488  0.1307
  367MOL0     H48379   6.227   1.994   1.561  0.2127  0.5322  2.7270
  367MOL0     H48380   5.974   1.993   1.550  0.7071  0.2980  0.5608
  367MOL0     H48381   5.776   1.963   1.478  1.4858  0.6686  0.9472
  367MOL0     H48382   5.763   1.972   1.655 -1.0589  3.2914 -1.0858
  367MOL0     H48383   5.587   1.839   1.677  2.4158 -4.9446 -0.3764
  367MOL0     H48384   5.600   1.795   1.499  1.9297  0.2877 -0.0040
  367MOL0     H48385   5.528   2.039   1.436  1.5116  3.6009  2.2080
  367MOL0     H48386   5.514   2.073   1.601  1.2396 -0.5382 -0.4129
  367MOL0     H48387   5.367   1.862   1.623 -3.8013  1.3737  3.2959
  367MOL0     H48388   5.302   2.018   1.580  0.3200 -0.5536  1.0595
  367MOL0     H48389   5.388   1.811   1.385  0.9577  1.2465 -0.8780
  367MOL0     H48390   5.305   1.963   1.337  0.3046 -1.3398 -3.0336
  367MOL0     H48391   5.145   1.804   1.325  2.4791  2.6136 -1.6026
  367MOL0     H48392   5.121   1.882   1.484  2.0743  3.0321 -0.9438
  367MOL0     H48393   5.291   1.625   1.436 -3.2599 -2.3821 -3.1990
  367MOL0     H48394   5.245   1.691   1.596  3.9306 -1.6313 -0.8090
  367MOL0     H48395   5.109   1.507   1.560 -1.5661 -0.8949 -0.8388
  367MOL0     H48396   5.079   1.552   1.385  0.4451 -2.5711 -0.3503
  367MOL0     H48397   4.935   1.599   1.752 -0.5377  0.9467  1.2192
  367MOL0     H48398   4.714   1.588   1.808  3.0042  2.9263 -0.3838
  367MOL0     H48399   4.596   1.551   1.683 -2.1741 -0.1023  0.9724
  367MOL0     H48400   4.477   1.751   1.660  1.7088  0.2626 -0.3946
  367MOL0     H48401   4.607   1.840   1.732 -2.7222  2.3561  3.0918
  367MOL0     H48402   4.582   1.763   1.943 -0.9674  1.2925  2.0715
  367MOL0     H48403   4.434   1.838   1.890 -0.2784 -0.7100  1.0179
  367MOL0     H48404   4.384   1.625   2.011  0.1922  1.3445 -0.0497
  367MOL0     H48405   4.492   1.542   1.914 -0.6174 -0.3470  0.2490
  367MOL0     H48406   4.137   1.586   2.039  1.5505 -1.2026 -1.1789
  367MOL0     H48407   3.939   1.731   2.050 -1.7965 -0.5590 -0.8362
  367MOL0     H48408   3.618   1.792   1.635  0.3426 -0.6821 -0.0227
  367MOL0     H48409   3.380   1.835   1.630  0.5134 -0.8252  0.1019
  367MOL0     H48410   3.215   2.198   1.643  1.9474 -1.1116 -0.7330
  367MOL0     H48411   3.221   2.220   1.821 -0.6384  0.9526 -0.8101
  367MOL0     H48412   3.009   2.061   1.822 -2.2821  0.9498  1.4494
  367MOL0     H48413   2.981   2.115   1.659 -0.6772 -3.8674  1.2733
  367MOL0     H48414   2.993   2.360   1.731 -2.0998  0.8135  0.5898
  367MOL0     H48415   3.019   2.296   1.898 -0.5505  1.3945  0.0396
  367MOL0     H48416   2.783   2.245   1.707 -0.3317  2.7732 -0.5235
  367MOL0     H48417   2.793   2.199   1.877 -2.7852  1.6552  0.2568
  367MOL0     H48418   2.806   2.501   1.787 -2.3655  1.8370  0.7338
  367MOL0     H48419   2.809   2.430   1.944 -2.4870  1.4999  0.2768
  367MOL0     H48420   2.590   2.517   1.888  1.6820 -1.0286  0.5348
  367MOL0     H48421   2.570   2.345   1.887  1.6576 -0.7879 -0.0941
  367MOL0     H48422   2.603   2.375   1.626 -2.8438 -0.1215 -1.6503
  367MOL0     H48423   2.450   2.415   1.708  0.8399 -1.3798  1.7064
  367MOL0     H48424   2.628   2.659   1.688  1.4814 -1.5139  1.8954
  367MOL0     H48425   2.458   2.612   1.725  0.7022 -0.4600  1.1897
  367MOL0     H48426   3.424   2.191   1.856 -0.6538 -0.1016  0.0740
  367MOL0     H48427   3.682   2.159   1.854  0.5899 -0.6119 -0.8967
  367MOL0     H48428   4.021   1.909   1.677 -0.3421 -0.1511  0.4852
  367MOL0     H48429   4.229   1.778   1.654  0.3847  2.0111  0.3655
  367MOL0     H48430   5.973   1.570   1.568 -0.4268  1.0347 -0.3508
  367MOL0     H48431   6.210   1.554   1.589  0.2836  0.8857  1.3869
  367MOL0     H48432   6.608   1.809   1.269  0.2545 -0.8186 -0.1248
  367MOL0     H48433   6.828   1.742   1.243 -3.2061  0.7556 -0.5098
  367MOL0     H48434   7.081   1.702   1.334 -0.4925  0.7396 -0.0608
  367MOL0     H48435   6.999   1.553   1.270  1.1312 -1.5112  0.1004
  367MOL0     H48436   7.118   1.399   1.346 -1.1201 -1.6043  3.3510
  367MOL0     H48437   7.237   1.518   1.311  0.8422 -2.7088  0.2635
  367MOL0     H48438   7.150   1.480   1.602  0.9819 -1.1790  0.5024
  367MOL0     H48439   7.295   1.564   1.537  2.0234 -0.6097 -3.0097
  367MOL0     H48440   7.317   1.319   1.629  2.3566 -2.3102 -0.2788
  367MOL0     H48441   7.256   1.265   1.479  1.1642 -0.7121  0.3609
  367MOL0     H48442   7.636   1.379   1.349  0.5823  0.9916  0.0486
  367MOL0     H48443   6.808   1.557   1.649  1.0064  0.5159 -1.1150
  367MOL0     H48444   6.590   1.622   1.656 -3.9314  1.8034 -1.0876
  368MOL0     O48445   8.901   5.376  10.255  0.0835  0.3629  0.3065
  368MOL0     C48446   9.003   5.386  10.185 -0.4627  0.1772 -0.0777
  368MOL0     O48447   9.047   5.294  10.093  0.8757  0.1055 -0.0469
  368MOL0     C48448   8.972   5.183  10.064 -0.4198 -0.3692  0.0586
  368MOL0     C48449   9.028   5.055  10.071  0.0269  0.2809 -1.0603
  368MOL0     C48450   8.955   4.933  10.052 -0.6658 -0.8547 -0.0781
  368MOL0     C48451   8.818   4.932  10.028  1.5092 -0.7778  0.5187
  368MOL0     O48452   8.742   4.814  10.007 -0.2660 -0.4891 -0.4396
  368MOL0     C48453   8.689   4.808   9.881  0.7133 -0.2067 -0.0167
  368MOL0     C48454   8.633   4.663   9.868 -0.4508  0.0305 -0.3672
  368MOL0     C48455   8.575   4.635   9.723  0.0561 -0.1841 -0.0771
  368MOL0     C48456   8.468   4.532   9.740 -0.9609  0.3330 -0.0748
  368MOL0     C48457   8.405   4.497   9.611  0.0357  0.7250  0.4934
  368MOL0     C48458   8.348   4.609   9.527 -0.7553  0.3312  0.5501
  368MOL0     C48459   8.221   4.680   9.586 -0.7009 -0.5313 -0.2390
  368MOL0     C48460   8.090   4.620   9.556  1.0815  1.2583  0.1012
  368MOL0     N48461   8.039   4.543   9.668  0.3369  0.4858 -0.5987
  368MOL0     C48462   7.925   4.570   9.744 -0.2312  0.3903  0.3036
  368MOL0     C48463   7.895   4.448   9.802 -0.1771 -0.2202  0.0776
  368MOL0     C48464   7.785   4.421   9.904  0.5834 -0.1510  0.0161
  368MOL0     C48465   7.656   4.387   9.833  0.7665 -0.6677 -0.1703
  368MOL0     C48466   7.540   4.374   9.930  0.0715 -0.1061 -0.9713
  368MOL0     C48467   7.409   4.386   9.863  0.6132  0.5620 -0.4879
  368MOL0     O48468   7.407   4.305   9.748 -0.0445  0.5826 -0.1675
  368MOL0     C48469   7.288   4.301   9.668  0.3020 -0.0167 -0.5372
  368MOL0     C48470   7.278   4.210   9.564 -0.1087 -0.0010  1.1309
  368MOL0     C48471   7.158   4.185   9.493 -0.4870  0.7891  0.8274
  368MOL0     C48472   7.043   4.252   9.530 -0.6046  1.3132  0.2875
  368MOL0     C48473   6.906   4.212   9.470 -0.1876  1.2637 -0.5774
  368MOL0     O48474   6.798   4.223   9.555 -0.4216  0.1946 -0.1383
  368MOL0     C48475   6.670   4.177   9.527 -0.0892  0.2315  0.9813
  368MOL0     C48476   6.640   4.068   9.450 -0.2036 -0.1968  0.5563
  368MOL0     C48477   6.502   4.038   9.433 -0.4709 -0.3874  0.1956
  368MOL0     C48478   6.407   4.105   9.504  0.8369  0.2142 -0.2852
  368MOL0     O48479   6.279   4.070   9.490  0.5796 -0.4487 -0.4547
  368MOL0     C48480   6.232   4.007   9.368 -0.6049  0.1910  0.9064
  368MOL0     C48481   6.087   3.998   9.368  0.6298 -0.2973  1.0920
  368MOL0     C48482   6.031   3.929   9.494  1.1696 -0.6233 -0.4976
  368MOL0     C48483   5.883   3.888   9.480  0.3735 -0.3094  0.1197
  368MOL0     C48484   5.855   3.787   9.382 -1.0300  0.8248 -0.9146
  368MOL0     C48485   5.705   3.737   9.387 -0.2109 -0.4446 -0.1327
  368MOL0     C48486   5.678   3.646   9.515  0.5989 -0.2289  0.5736
  368MOL0     C48487   5.524   3.643   9.522  0.7101 -0.2279  0.6629
  368MOL0    Cl48488   5.471   3.514   9.402 -0.1321  0.8523  0.2293
  368MOL0     C48489   6.441   4.211   9.585  1.1964  0.1828 -1.5738
  368MOL0     C48490   6.572   4.244   9.599  0.5347  0.0784  0.3875
  368MOL0     O48491   6.899   4.172   9.355  0.0063  0.3847 -0.6655
  368MOL0     C48492   7.052   4.344   9.628 -0.7279  0.0140 -0.4173
  368MOL0     C48493   7.169   4.376   9.690 -0.6068 -0.1138  0.3053
  368MOL0     N48494   7.998   4.367   9.786 -0.6141  0.4229 -0.4137
  368MOL0     N48495   8.080   4.417   9.703  0.3308 -0.2871  0.0776
  368MOL0     C48496   8.755   5.060  10.012 -0.0139  0.6626 -1.1695
  368MOL0     C48497   8.833   5.182  10.031  0.0885  1.3080  1.0217
  368MOL0     C48498   9.075   5.514  10.205 -0.4655  0.1231  0.0056
  368MOL0     C48499   9.169   5.543  10.111 -0.4722 -0.1213  0.7203
  368MOL0     C48500   9.233   5.664  10.121  0.2762 -0.7674 -0.1390
  368MOL0     C48501   9.208   5.755  10.225  0.7235 -0.4848 -1.6233
  368MOL0     O48502   9.258   5.885  10.240  0.5197 -0.3889  0.6340
  368MOL0     C48503   9.343   5.935  10.131 -0.3123  0.4251 -0.0636
  368MOL0     C48504   9.487   5.905  10.150 -0.0507 -0.5655  0.7533
  368MOL0     C48505   9.579   5.977  10.042  0.9277  0.3014 -1.4848
  368MOL0     C48506   9.565   6.133  10.028 -0.6841 -0.2778 -0.3147
  368MOL0     C48507   9.563   6.203  10.157 -0.3902  0.5164 -0.1111
  368MOL0     C48508   9.578   6.249  10.266  0.3907  0.2929  0.6095
  368MOL0     C48509   9.115   5.719  10.322 -0.7219 -0.2241  0.5370
  368MOL0     C48510   9.054   5.601  10.304 -0.2970  1.1826  0.4852
  368MOL0     H48511   9.135   5.050  10.087  0.1577  0.3083 -1.9105
  368MOL0     H48512   9.015   4.843  10.065  2.0534  0.7130 -0.8665
  368MOL0     H48513   8.762   4.812   9.800 -0.5702 -1.5859 -1.3049
  368MOL0     H48514   8.608   4.878   9.858  2.3363  0.8370 -3.1013
  368MOL0     H48515   8.552   4.652   9.941 -2.4058  3.4301 -1.7663
  368MOL0     H48516   8.714   4.590   9.878 -1.4812 -1.2936 -1.3199
  368MOL0     H48517   8.643   4.616   9.639 -2.6051  0.5816 -2.5513
  368MOL0     H48518   8.529   4.728   9.689 -2.2668 -2.0548 -2.4860
  368MOL0     H48519   8.518   4.442   9.779 -1.5214 -1.0534 -2.3484
  368MOL0     H48520   8.387   4.555   9.810 -2.5075  0.9053 -1.9667
  368MOL0     H48521   8.328   4.421   9.623 -1.2114  2.0257  1.1220
  368MOL0     H48522   8.479   4.437   9.557 -0.3320  1.6041 -1.0566
  368MOL0     H48523   8.317   4.577   9.426  2.6273  0.9949 -0.8241
  368MOL0     H48524   8.423   4.678   9.490 -0.8167 -0.7660 -1.8537
  368MOL0     H48525   8.233   4.713   9.690  0.0622 -1.8051  0.1090
  368MOL0     H48526   8.210   4.777   9.537  0.5895 -1.0865 -1.7072
  368MOL0     H48527   8.099   4.548   9.474  0.0225  2.5183 -1.1903
  368MOL0     H48528   8.023   4.701   9.527  1.1440  1.7266  1.2060
  368MOL0     H48529   7.872   4.665   9.749 -0.1944  0.4482 -0.3435
  368MOL0     H48530   7.770   4.509   9.967 -0.9775 -0.6066  0.3302
  368MOL0     H48531   7.811   4.334   9.965 -0.4786  0.2656  1.1138
  368MOL0     H48532   7.680   4.294   9.781  1.2306 -1.6567  1.7266
  368MOL0     H48533   7.635   4.469   9.763 -0.1735  0.7096  1.6336
  368MOL0     H48534   7.551   4.279   9.983  0.4647 -1.3223 -3.1251
  368MOL0     H48535   7.548   4.464   9.993 -1.3420 -0.8401  0.3127
  368MOL0     H48536   7.397   4.494   9.848 -1.7054  0.7780  2.1631
  368MOL0     H48537   7.328   4.352   9.928  0.3306 -0.4429 -1.3427
  368MOL0     H48538   7.369   4.162   9.530  0.2965  2.4501 -1.6965
  368MOL0     H48539   7.147   4.109   9.416 -1.0855  0.2059  1.4742
  368MOL0     H48540   6.716   3.998   9.418  1.2822  1.6128 -0.0529
  368MOL0     H48541   6.473   3.949   9.377 -1.0493  0.3222 -0.6710
  368MOL0     H48542   6.257   3.901   9.363 -3.3084 -0.4831  0.5119
  368MOL0     H48543   6.263   4.063   9.279  1.5487 -0.6737  1.0475
  368MOL0     H48544   6.051   3.951   9.276 -1.0379  1.7780  0.5879
  368MOL0     H48545   6.052   4.101   9.357  1.0535 -0.3141 -0.7109
  368MOL0     H48546   6.051   4.000   9.575 -0.6323 -0.9980  0.3252
  368MOL0     H48547   6.087   3.836   9.512 -0.5916 -1.2288  2.7072
  368MOL0     H48548   5.859   3.849   9.579  2.2401 -1.8729  0.0056
  368MOL0     H48549   5.830   3.979   9.450  0.1431 -0.2130  0.7915
  368MOL0     H48550   5.925   3.705   9.403 -2.2671  0.0479  0.3425
  368MOL0     H48551   5.863   3.836   9.284 -1.9514 -0.5270 -1.7020
  368MOL0     H48552   5.702   3.675   9.297  1.6899 -1.8308  0.6761
  368MOL0     H48553   5.629   3.814   9.373  1.3411  1.1358 -0.1451
  368MOL0     H48554   5.706   3.540   9.518 -0.1551 -0.4944 -0.8566
  368MOL0     H48555   5.723   3.702   9.598 -0.1881 -0.1966  0.9959
  368MOL0     H48556   5.478   3.741   9.510  0.3235 -0.4845 -0.0205
  368MOL0     H48557   5.504   3.609   9.624 -1.9749  0.1562  0.3426
  368MOL0     H48558   6.367   4.269   9.640 -0.0161  0.3492 -3.3048
  368MOL0     H48559   6.616   4.324   9.658 -0.3658  0.0301  1.1363
  368MOL0     H48560   6.959   4.391   9.659  0.1497  0.0530  2.4512
  368MOL0     H48561   7.171   4.447   9.772  0.8212 -1.0506  1.1115
  368MOL0     H48562   8.650   5.060   9.986  0.0065 -0.4114 -1.2826
  368MOL0     H48563   8.779   5.274  10.014  0.5117  1.3651 -0.1003
  368MOL0     H48564   9.185   5.489  10.019 -0.3524  1.8235 -0.4524
  368MOL0     H48565   9.295   5.689  10.035 -0.3792  2.1401  0.1544
  368MOL0     H48566   9.342   6.044  10.141  1.1519  0.3294  1.6350
  368MOL0     H48567   9.307   5.905  10.033  1.1505  1.9857 -1.1349
  368MOL0     H48568   9.532   5.938  10.244  2.7899 -1.8867 -0.0289
  368MOL0     H48569   9.506   5.798  10.143  1.2750 -0.3574  0.9391
  368MOL0     H48570   9.569   5.921   9.948 -0.7895  1.7745 -2.2577
  368MOL0     H48571   9.679   5.958  10.081 -0.0008 -2.8276 -0.3564
  368MOL0     H48572   9.645   6.184   9.973 -1.1585  2.0281  0.9901
  368MOL0     H48573   9.477   6.157   9.968 -0.4090 -0.1510 -0.6715
  368MOL0     H48574   9.570   6.294  10.363  0.3381 -0.2296  0.8517
  368MOL0     H48575   9.091   5.786  10.404  1.0271 -0.6970  1.5073
  368MOL0     H48576   8.975   5.576  10.375  0.1519 -2.7985 -0.2061
  369MOL0     O48577   0.502   6.727   5.490 -0.5032 -0.3279 -0.3187
  369MOL0     C48578   0.471   6.608   5.510  0.3280  0.2745 -0.2779
  369MOL0     O48579   0.355   6.567   5.574 -0.0341  1.0295  0.2113
  369MOL0     C48580   0.282   6.652   5.651 -1.0979 -0.2867  0.0760
  369MOL0     C48581   0.313   6.659   5.791  1.1856  0.6759 -0.2101
  369MOL0     C48582   0.231   6.742   5.868 -0.1269 -0.0742  0.2226
  369MOL0     C48583   0.135   6.829   5.805 -0.3320 -1.2639  0.8802
  369MOL0     O48584   0.061   6.903   5.894  0.2263  0.2498 -0.1211
  369MOL0     C48585  -0.046   6.984   5.849 -0.2050  0.5305 -0.4465
  369MOL0     C48586  -0.140   7.005   5.969 -0.3189  0.1272 -0.7508
  369MOL0     C48587  -0.233   7.124   5.933  0.6588 -0.6474 -0.1960
  369MOL0     C48588  -0.321   7.156   6.062 -0.5291  0.0779 -0.6004
  369MOL0     C48589  -0.408   7.274   6.053  0.2175  0.6903  0.4624
  369MOL0     C48590  -0.504   7.273   5.932 -0.2811  0.0167 -0.0666
  369MOL0     C48591  -0.620   7.175   5.939  0.5361  0.7344 -0.1382
  369MOL0     C48592  -0.723   7.180   5.816  1.0663 -0.8392  0.0414
  369MOL0     N48593  -0.794   7.314   5.821 -0.3391  0.1252  1.1908
  369MOL0     C48594  -0.894   7.346   5.899 -0.0182 -0.1077  0.1704
  369MOL0     C48595  -0.968   7.445   5.841  0.1216 -0.0606  0.1819
  369MOL0     C48596  -1.065   7.541   5.902  0.3666  0.8806 -0.1719
  369MOL0     C48597  -1.181   7.566   5.805 -0.3138 -0.0876  0.6161
  369MOL0     C48598  -1.288   7.460   5.819  0.6313 -0.1135  0.0921
  369MOL0     C48599  -1.375   7.473   5.698 -0.4766  0.5047 -0.7081
  369MOL0     O48600  -1.457   7.593   5.697  0.5723 -0.6962 -0.3884
  369MOL0     C48601  -1.569   7.594   5.614  0.6836 -0.1946 -0.1297
  369MOL0     C48602  -1.597   7.519   5.506  0.1185  0.5429  0.8936
  369MOL0     C48603  -1.724   7.520   5.440 -0.6387 -0.6879  0.2064
  369MOL0     C48604  -1.822   7.614   5.477  0.5052 -0.3875 -0.0533
  369MOL0     C48605  -1.953   7.613   5.413  0.2824  0.7716  0.4568
  369MOL0     O48606  -1.981   7.516   5.319 -0.3714  0.3873 -0.3691
  369MOL0     C48607  -2.093   7.483   5.268  1.7038 -0.4206  0.2440
  369MOL0     C48608  -2.144   7.359   5.268  0.8172  0.7115 -1.0986
  369MOL0     C48609  -2.262   7.327   5.206  0.2290 -0.4914  0.3575
  369MOL0     C48610  -2.334   7.427   5.142  0.1770  0.3772  0.3837
  369MOL0     O48611  -2.451   7.415   5.076 -0.0200  0.0361  0.7142
  369MOL0     C48612  -2.537   7.317   5.140 -0.8595 -0.9130  0.1497
  369MOL0     C48613  -2.670   7.334   5.062  0.3202  0.0230 -0.8841
  369MOL0     C48614  -2.778   7.231   5.120  0.7232 -0.4190  0.2155
  369MOL0     C48615  -2.912   7.243   5.039 -0.8114 -0.3409 -0.1641
  369MOL0     C48616  -3.020   7.151   5.103 -0.4940 -0.4823 -0.3384
  369MOL0     C48617  -3.160   7.170   5.044  0.0431  0.3410 -0.7471
  369MOL0     C48618  -3.182   7.101   4.904 -0.2691  0.6310  0.2693
  369MOL0     C48619  -3.304   7.146   4.823  0.5234  0.1392 -0.4421
  369MOL0    Cl48620  -3.446   7.117   4.929 -0.2092 -0.4521 -0.3811
  369MOL0     C48621  -2.292   7.555   5.146  0.9598 -0.0339 -1.1862
  369MOL0     C48622  -2.171   7.584   5.205  0.2572  0.5955  0.9877
  369MOL0     O48623  -2.036   7.692   5.450  0.7521  0.5400  0.0346
  369MOL0     C48624  -1.788   7.701   5.577  0.2668 -0.2906 -0.8950
  369MOL0     C48625  -1.664   7.697   5.643  0.1969 -0.2281 -0.2421
  369MOL0     N48626  -0.908   7.475   5.720 -0.3350 -0.3341  0.7496
  369MOL0     N48627  -0.810   7.395   5.706 -0.0379  0.0811  0.3063
  369MOL0     C48628   0.117   6.830   5.666 -0.2373 -0.1416  0.2993
  369MOL0     C48629   0.189   6.740   5.595  0.3299  0.2562  0.2272
  369MOL0     C48630   0.564   6.509   5.455 -0.6468  0.6553  0.5153
  369MOL0     C48631   0.533   6.370   5.463 -0.1811  0.2109 -0.3412
  369MOL0     C48632   0.611   6.275   5.419 -0.5069 -0.7515  0.3270
  369MOL0     C48633   0.739   6.304   5.366 -0.0937 -0.3127 -0.6715
  369MOL0     O48634   0.840   6.211   5.335  0.1636 -0.5055  0.2459
  369MOL0     C48635   0.853   6.104   5.427  0.0150  0.6330  0.9781
  369MOL0     C48636   0.977   6.016   5.420 -0.8069 -0.5441 -0.2375
  369MOL0     C48637   0.957   5.871   5.416  0.2919  0.0767 -0.4571
  369MOL0     C48638   1.075   5.790   5.478  0.2805  1.7183 -0.3932
  369MOL0     C48639   1.199   5.807   5.411  0.2044 -0.5810 -0.3645
  369MOL0     C48640   1.306   5.830   5.367  0.6117 -0.5694  0.1118
  369MOL0     C48641   0.769   6.445   5.351  0.1231  0.2330 -0.5705
  369MOL0     C48642   0.686   6.542   5.395 -0.0721  0.6091 -0.3324
  369MOL0     H48643   0.387   6.601   5.845  1.3276  0.6875 -0.3913
  369MOL0     H48644   0.253   6.752   5.973  0.9780 -0.8761  0.0902
  369MOL0     H48645  -0.101   6.939   5.765 -1.1899  3.1177 -1.2787
  369MOL0     H48646  -0.009   7.083   5.822  0.4193  0.0237 -1.5512
  369MOL0     H48647  -0.081   7.033   6.058  0.4590 -0.8825 -0.9387
  369MOL0     H48648  -0.195   6.912   5.985 -0.1488  0.3510  1.4467
  369MOL0     H48649  -0.301   7.102   5.851 -0.6211  2.8820 -0.2535
  369MOL0     H48650  -0.174   7.212   5.906 -0.6827 -0.4827 -2.9004
  369MOL0     H48651  -0.382   7.066   6.079 -1.1849  0.8122  1.0876
  369MOL0     H48652  -0.257   7.172   6.149  1.2442  0.3196 -1.9073
  369MOL0     H48653  -0.341   7.357   6.027 -1.3273  1.0962 -2.7792
  369MOL0     H48654  -0.457   7.286   6.150  0.0032  0.9588  0.3236
  369MOL0     H48655  -0.458   7.253   5.835  0.4547  1.6676 -0.0851
  369MOL0     H48656  -0.537   7.376   5.916  1.4206  0.1593 -3.7570
  369MOL0     H48657  -0.576   7.077   5.959 -0.2084  1.0071  3.4470
  369MOL0     H48658  -0.670   7.215   6.027  0.5058  1.8519 -0.6440
  369MOL0     H48659  -0.800   7.102   5.810 -0.7616  0.9922 -1.6243
  369MOL0     H48660  -0.664   7.186   5.724  1.1037  3.9021  0.1367
  369MOL0     H48661  -0.911   7.291   5.990 -2.0404  2.0701  1.2217
  369MOL0     H48662  -1.008   7.631   5.930 -0.1060  0.8597  0.8906
  369MOL0     H48663  -1.109   7.512   5.997  1.0951  0.1601 -0.0424
  369MOL0     H48664  -1.138   7.575   5.705  3.0405 -2.9383  1.5951
  369MOL0     H48665  -1.225   7.664   5.825 -1.9002 -0.2808 -1.5214
  369MOL0     H48666  -1.235   7.365   5.835 -0.1749 -1.1505 -2.7971
  369MOL0     H48667  -1.343   7.470   5.914 -0.0317 -3.3775  0.1679
  369MOL0     H48668  -1.428   7.377   5.696  0.1513  0.1638 -1.2875
  369MOL0     H48669  -1.310   7.469   5.611  0.5523 -5.4065 -0.0916
  369MOL0     H48670  -1.525   7.446   5.470 -2.5698 -2.5804  1.3727
  369MOL0     H48671  -1.736   7.448   5.360  0.6850  1.2422 -1.8801
  369MOL0     H48672  -2.089   7.278   5.315  0.4984 -0.2089 -2.2778
  369MOL0     H48673  -2.288   7.222   5.207  1.1931 -0.7481  2.3330
  369MOL0     H48674  -2.553   7.327   5.248 -0.1639 -0.5823  0.2266
  369MOL0     H48675  -2.495   7.216   5.135 -1.8502 -1.4502  1.8908
  369MOL0     H48676  -2.648   7.318   4.956  3.1062 -1.2109 -0.2063
  369MOL0     H48677  -2.709   7.437   5.062 -4.3884 -1.5159  0.1737
  369MOL0     H48678  -2.800   7.255   5.224 -0.9251  0.9329 -0.4068
  369MOL0     H48679  -2.738   7.130   5.108  1.3346 -0.2431  0.7323
  369MOL0     H48680  -2.952   7.345   5.037 -2.3953 -0.9165  0.4645
  369MOL0     H48681  -2.893   7.216   4.935  1.3447 -0.7441  0.2767
  369MOL0     H48682  -3.034   7.186   5.205 -1.7124  0.7348 -0.8935
  369MOL0     H48683  -2.990   7.045   5.106  1.3542  0.0072  0.0084
  369MOL0     H48684  -3.190   7.275   5.049  0.2116  0.4222  4.2231
  369MOL0     H48685  -3.228   7.119   5.113 -0.0983 -0.2248 -1.2935
  369MOL0     H48686  -3.090   7.120   4.848  0.1077  0.6619  0.8854
  369MOL0     H48687  -3.206   6.995   4.915 -2.2938  1.2111  2.1083
  369MOL0     H48688  -3.311   7.092   4.728 -0.6961 -1.2394  0.3942
  369MOL0     H48689  -3.305   7.253   4.799 -4.1851  0.2858 -0.3800
  369MOL0     H48690  -2.346   7.640   5.105  1.9977  0.9583 -0.5486
  369MOL0     H48691  -2.128   7.684   5.206  0.6237  0.4413  0.9157
  369MOL0     H48692  -1.856   7.775   5.618 -1.3691 -2.4000  0.4001
  369MOL0     H48693  -1.637   7.758   5.729 -0.9826 -0.3748  0.2642
  369MOL0     H48694   0.053   6.900   5.613 -0.8109 -1.2427 -0.4945
  369MOL0     H48695   0.179   6.723   5.489  2.4189 -0.1601  0.0412
  369MOL0     H48696   0.440   6.336   5.506  0.0113  0.8032  0.5755
  369MOL0     H48697   0.586   6.172   5.443 -3.2985 -0.1799  0.2413
  369MOL0     H48698   0.768   6.041   5.398 -0.8148  1.0463  2.4043
  369MOL0     H48699   0.838   6.135   5.531  3.3608  0.0382  1.7594
  369MOL0     H48700   1.033   6.042   5.331  2.3918  1.7104  2.1952
  369MOL0     H48701   1.049   6.054   5.493 -2.5866  1.2195  0.6939
  369MOL0     H48702   0.934   5.838   5.314  0.7345  1.7905 -1.1449
  369MOL0     H48703   0.871   5.858   5.482  0.5332  2.0963  0.3153
  369MOL0     H48704   1.087   5.829   5.579 -2.0109 -1.7284  1.4374
  369MOL0     H48705   1.043   5.687   5.499 -0.3290  2.1399  0.8397
  369MOL0     H48706   1.394   5.848   5.308 -0.4411 -1.6790 -1.8962
  369MOL0     H48707   0.874   6.461   5.324  0.5821 -1.2599  0.2120
  369MOL0     H48708   0.710   6.647   5.378 -2.8684  1.4308  0.3318
  370MOL0     O48709   3.103   2.376   0.420 -0.6685  0.1147 -0.2580
  370MOL0     C48710   3.136   2.368   0.541 -1.5174 -0.6439  0.4790
  370MOL0     O48711   3.092   2.452   0.637 -0.0826  0.2660 -0.2265
  370MOL0     C48712   2.992   2.539   0.603  0.1682 -0.2664 -0.4854
  370MOL0     C48713   3.018   2.662   0.543  0.4763  1.1489 -0.3191
  370MOL0     C48714   2.918   2.756   0.526  1.0930  1.6949  0.3102
  370MOL0     C48715   2.779   2.728   0.561  0.4933 -0.2805  1.1988
  370MOL0     O48716   2.684   2.824   0.540  0.0393  0.0768 -0.2957
  370MOL0     C48717   2.672   2.852   0.403  0.5458 -0.7274  0.6293
  370MOL0     C48718   2.619   2.997   0.378 -0.0670 -1.2720 -0.2873
  370MOL0     C48719   2.673   3.107   0.465 -0.0456 -0.1770 -0.2792
  370MOL0     C48720   2.823   3.124   0.430 -0.5514  0.2220  1.0145
  370MOL0     C48721   2.873   3.251   0.500  0.2821  0.3198  0.3496
  370MOL0     C48722   3.027   3.260   0.489  1.1134  0.3493  0.1616
  370MOL0     C48723   3.073   3.290   0.339  0.1192  0.1989 -0.0662
  370MOL0     C48724   3.200   3.369   0.313 -0.3066 -0.9780  0.3193
  370MOL0     N48725   3.185   3.500   0.256 -0.4746 -0.3399  0.1221
  370MOL0     C48726   3.137   3.617   0.310 -1.1393 -0.1598 -0.4569
  370MOL0     C48727   3.133   3.700   0.202  0.3720  0.4829  0.1281
  370MOL0     C48728   3.084   3.842   0.206  0.2020 -0.3362  0.0243
  370MOL0     C48729   2.948   3.866   0.154  0.5593  0.0401  0.5779
  370MOL0     C48730   2.836   3.787   0.228  0.4053  0.1122 -0.1068
  370MOL0     C48731   2.705   3.807   0.161 -0.5817 -0.3890 -0.6741
  370MOL0     O48732   2.615   3.722   0.229  0.6952  1.0308 -0.5883
  370MOL0     C48733   2.477   3.714   0.193 -0.3127 -0.8428  0.2748
  370MOL0     C48734   2.390   3.647   0.278 -0.2118  1.1252 -0.2209
  370MOL0     C48735   2.251   3.641   0.244 -0.4302  0.5107 -1.0113
  370MOL0     C48736   2.198   3.703   0.131 -0.4512  0.2757 -0.5594
  370MOL0     C48737   2.057   3.689   0.096 -0.4153  0.1316 -0.2874
  370MOL0     O48738   1.961   3.645   0.196 -0.6316 -0.3197  0.4341
  370MOL0     C48739   1.832   3.629   0.157  0.2952  0.1653  0.2274
  370MOL0     C48740   1.775   3.505   0.173  0.9473  0.3137 -1.0692
  370MOL0     C48741   1.645   3.480   0.139  0.2009 -0.5853  0.2067
  370MOL0     C48742   1.569   3.579   0.084 -0.1880 -0.2336  1.0884
  370MOL0     O48743   1.441   3.562   0.044  0.1177  0.4859  0.0178
  370MOL0     C48744   1.354   3.582   0.151  0.8303  0.6510 -0.4171
  370MOL0     C48745   1.204   3.600   0.105  0.2227  0.0672 -0.4993
  370MOL0     C48746   1.143   3.492   0.017 -0.1525  0.0036 -0.4238
  370MOL0     C48747   1.117   3.370   0.100 -0.0229 -0.0423 -0.9110
  370MOL0     C48748   1.073   3.254   0.012  0.1426 -0.3648  0.0304
  370MOL0     C48749   1.073   3.111   0.083  0.5304 -0.5040  0.5913
  370MOL0     C48750   0.968   3.099   0.200 -0.0892  0.2612  0.2298
  370MOL0     C48751   1.005   3.169   0.334  1.3016  0.1222  0.2545
  370MOL0    Cl48752   0.870   3.278   0.379  0.1307 -0.2908  0.1975
  370MOL0     C48753   1.626   3.705   0.063 -0.2531  0.5023 -0.2034
  370MOL0     C48754   1.761   3.730   0.094  0.4234 -0.1438  0.9423
  370MOL0     O48755   2.033   3.715  -0.021 -0.4019 -0.7951 -0.6073
  370MOL0     C48756   2.289   3.765   0.040  0.8132  0.4336  0.0738
  370MOL0     C48757   2.426   3.773   0.077 -0.1655 -0.7460 -0.4941
  370MOL0     N48758   3.184   3.645   0.089 -0.1460 -0.4438 -0.5397
  370MOL0     N48759   3.201   3.519   0.121  0.1554 -0.1029  0.3329
  370MOL0     C48760   2.753   2.605   0.614 -0.4133  0.2152  0.4423
  370MOL0     C48761   2.863   2.513   0.634 -0.0910  0.5036 -0.7835
  370MOL0     C48762   3.232   2.264   0.591 -0.0736 -0.5243 -0.4622
  370MOL0     C48763   3.232   2.228   0.723 -0.2177  0.2634 -0.8737
  370MOL0     C48764   3.325   2.137   0.775 -0.4696 -0.1999 -0.3867
  370MOL0     C48765   3.427   2.084   0.695 -0.2557 -0.4314  0.2549
  370MOL0     O48766   3.525   2.000   0.748  0.7395  1.1984 -0.8713
  370MOL0     C48767   3.533   1.949   0.878  0.0649 -0.1767 -0.1729
  370MOL0     C48768   3.451   1.814   0.887 -0.0925 -0.1772 -0.2861
  370MOL0     C48769   3.418   1.751   1.026 -0.2581  0.4674  0.3682
  370MOL0     C48770   3.360   1.614   1.024 -0.7009 -0.3820  0.1507
  370MOL0     C48771   3.230   1.618   0.955 -0.6696 -0.1672  0.1920
  370MOL0     C48772   3.123   1.642   0.893 -0.8024 -0.3806 -0.3512
  370MOL0     C48773   3.410   2.105   0.557 -0.5076  0.0200 -0.8972
  370MOL0     C48774   3.317   2.195   0.507 -0.6980  0.1453 -0.2807
  370MOL0     H48775   3.118   2.660   0.503  0.1485 -0.0444 -1.1660
  370MOL0     H48776   2.949   2.847   0.474  1.0242  0.9798 -1.0402
  370MOL0     H48777   2.595   2.785   0.363  0.9681 -1.4973  1.0939
  370MOL0     H48778   2.767   2.848   0.350  0.1509 -0.3555 -0.1347
  370MOL0     H48779   2.513   2.996   0.406 -0.0851  1.5131 -0.0099
  370MOL0     H48780   2.622   3.015   0.270 -1.8486 -0.2267 -0.2104
  370MOL0     H48781   2.656   3.067   0.565  1.2294 -3.2062 -1.1668
  370MOL0     H48782   2.612   3.193   0.436 -0.0589  0.2837  1.0492
  370MOL0     H48783   2.873   3.034   0.467 -0.8397 -0.8026 -0.9508
  370MOL0     H48784   2.835   3.138   0.322  0.4767  0.1279  1.1142
  370MOL0     H48785   2.852   3.244   0.608 -1.0302 -4.0671  0.0239
  370MOL0     H48786   2.822   3.342   0.468 -1.8096 -1.0956 -0.5901
  370MOL0     H48787   3.066   3.160   0.510 -1.4128 -0.6468  0.4712
  370MOL0     H48788   3.072   3.327   0.563 -0.5993 -0.6035  2.1531
  370MOL0     H48789   3.087   3.187   0.304 -0.7213 -0.1166  0.4917
  370MOL0     H48790   2.992   3.344   0.289  0.8888  2.3080  0.8524
  370MOL0     H48791   3.257   3.310   0.241  0.2716 -0.6945  0.5352
  370MOL0     H48792   3.268   3.376   0.399  0.9068  1.0678 -0.7180
  370MOL0     H48793   3.120   3.642   0.414 -0.2112  2.1448 -0.8083
  370MOL0     H48794   3.158   3.897   0.148 -0.9392 -1.1907 -2.3617
  370MOL0     H48795   3.084   3.884   0.307  0.6828 -0.0937 -0.0745
  370MOL0     H48796   2.948   3.840   0.048 -1.7259  0.8083  0.3439
  370MOL0     H48797   2.919   3.972   0.153 -1.0703 -0.3826 -0.7051
  370MOL0     H48798   2.855   3.680   0.234  0.0607 -0.0218 -1.1721
  370MOL0     H48799   2.835   3.817   0.333  0.1440 -0.0593 -0.0587
  370MOL0     H48800   2.721   3.789   0.054  0.2396  0.8070 -0.7783
  370MOL0     H48801   2.682   3.914   0.173  0.1527 -0.2138 -0.7461
  370MOL0     H48802   2.430   3.591   0.361 -2.5733 -0.1807  0.1011
  370MOL0     H48803   2.188   3.579   0.306 -0.8501  1.8401 -0.0768
  370MOL0     H48804   1.845   3.430   0.209 -0.0396 -0.2896 -0.3228
  370MOL0     H48805   1.589   3.391   0.164  1.1781 -1.6690 -1.3093
  370MOL0     H48806   1.386   3.670   0.207 -0.1178  0.6792  0.0881
  370MOL0     H48807   1.357   3.488   0.207 -1.6766 -0.5828 -2.1216
  370MOL0     H48808   1.204   3.691   0.045  1.1789  0.8593  0.6414
  370MOL0     H48809   1.141   3.607   0.195  0.5708  2.8018 -0.3601
  370MOL0     H48810   1.208   3.490  -0.071 -1.6447  3.5276 -1.7941
  370MOL0     H48811   1.052   3.532  -0.028 -0.4237 -1.7588 -1.4913
  370MOL0     H48812   1.206   3.342   0.158  0.9506  0.1068 -2.2690
  370MOL0     H48813   1.044   3.399   0.175  2.5360  3.2011  0.6189
  370MOL0     H48814   1.150   3.257  -0.067  2.4634  5.4364  1.9804
  370MOL0     H48815   0.972   3.281  -0.021  0.1840  0.4112  0.5297
  370MOL0     H48816   1.172   3.081   0.119  0.5025 -0.2126  0.9072
  370MOL0     H48817   1.049   3.043   0.000 -1.6294 -0.3102  1.0019
  370MOL0     H48818   0.881   3.150   0.159  0.8263  1.1481 -0.6861
  370MOL0     H48819   0.949   2.991   0.208  0.2661 -0.0362 -2.1442
  370MOL0     H48820   1.100   3.223   0.327  1.6112 -0.5585 -0.9381
  370MOL0     H48821   1.006   3.106   0.424 -0.4115 -0.1357  0.1115
  370MOL0     H48822   1.564   3.777   0.011 -0.0848  1.1907  0.5386
  370MOL0     H48823   1.813   3.821   0.066  0.4370  0.1542  1.8786
  370MOL0     H48824   2.261   3.798  -0.060 -0.4116 -0.9226 -0.0480
  370MOL0     H48825   2.490   3.827   0.009 -3.3095 -0.2952 -3.4042
  370MOL0     H48826   2.654   2.570   0.645 -0.6822  1.1028  0.6018
  370MOL0     H48827   2.838   2.417   0.678  0.2174  1.1531  0.9110
  370MOL0     H48828   3.171   2.277   0.798  0.1726  1.3468 -1.2380
  370MOL0     H48829   3.328   2.123   0.883 -3.0477 -0.2521 -0.2569
  370MOL0     H48830   3.491   2.013   0.957  1.9008 -0.9112  1.4909
  370MOL0     H48831   3.635   1.936   0.915 -0.5403 -0.7450  1.4034
  370MOL0     H48832   3.355   1.836   0.839 -1.8182 -0.5875  2.7381
  370MOL0     H48833   3.502   1.733   0.833 -0.8836 -1.7000  1.1648
  370MOL0     H48834   3.342   1.817   1.069 -2.7174 -2.8323  1.5109
  370MOL0     H48835   3.500   1.743   1.098 -1.5958 -2.3119  1.7215
  370MOL0     H48836   3.426   1.537   0.983 -1.2274 -0.9256  0.3160
  370MOL0     H48837   3.331   1.576   1.122  0.4295 -0.9047  0.2920
  370MOL0     H48838   3.035   1.678   0.843 -1.0024  0.2406  0.4250
  370MOL0     H48839   3.464   2.041   0.488 -1.2811  1.0640 -2.5612
  370MOL0     H48840   3.314   2.220   0.401  0.1309  2.7276  0.2483
  371MOL0     O48841   0.150   8.666   1.944  0.1278 -0.7984 -0.0729
  371MOL0     C48842   0.199   8.763   1.879 -0.0638 -0.0580  0.2731
  371MOL0     O48843   0.132   8.883   1.857 -0.1869  0.3532 -0.2212
  371MOL0     C48844  -0.003   8.888   1.871 -0.5996  0.2187 -0.1627
  371MOL0     C48845  -0.058   8.965   1.972 -0.0415  0.6241  0.4599
  371MOL0     C48846  -0.192   8.953   2.000  0.0027  0.7368  0.1106
  371MOL0     C48847  -0.280   8.868   1.922 -0.8378 -0.6694 -0.7976
  371MOL0     O48848  -0.411   8.871   1.970  0.3176 -0.0254  0.3496
  371MOL0     C48849  -0.483   8.741   1.953  0.8680 -0.5153  0.3364
  371MOL0     C48850  -0.620   8.759   2.026  0.4336  0.4093  0.3185
  371MOL0     C48851  -0.728   8.650   2.000 -0.7325  0.4380  0.5452
  371MOL0     C48852  -0.862   8.698   2.042 -0.2840 -0.1751  0.3438
  371MOL0     C48853  -0.963   8.592   1.997  0.1602  0.4834 -0.7544
  371MOL0     C48854  -1.117   8.617   2.025  0.2109 -0.2221 -0.1438
  371MOL0     C48855  -1.170   8.734   1.952 -0.6597 -0.1461 -0.7197
  371MOL0     C48856  -1.170   8.701   1.801  1.2776 -0.0050 -0.1917
  371MOL0     N48857  -1.272   8.603   1.762 -0.8263  0.1407 -0.9320
  371MOL0     C48858  -1.405   8.596   1.795  0.1977  0.4608 -0.2960
  371MOL0     C48859  -1.441   8.486   1.719 -0.2234  0.3648  0.3359
  371MOL0     C48860  -1.575   8.416   1.733  0.0935  0.2807  0.9092
  371MOL0     C48861  -1.676   8.433   1.619 -1.6473 -1.0057 -0.2429
  371MOL0     C48862  -1.797   8.350   1.661 -0.8694  0.1587 -0.8503
  371MOL0     C48863  -1.904   8.371   1.576 -0.5464 -0.2883 -0.1854
  371MOL0     O48864  -1.998   8.265   1.622  0.4548 -0.7773  0.5371
  371MOL0     C48865  -2.126   8.308   1.661  0.8230 -0.2166 -0.3434
  371MOL0     C48866  -2.156   8.416   1.745 -0.7359  0.5061 -0.6672
  371MOL0     C48867  -2.285   8.436   1.802  0.4717  0.2975 -0.4669
  371MOL0     C48868  -2.394   8.358   1.752 -0.3732  0.3582 -1.3418
  371MOL0     C48869  -2.528   8.381   1.816 -0.9006 -0.5250  0.2459
  371MOL0     O48870  -2.642   8.331   1.747  0.0740 -0.5667  0.2621
  371MOL0     C48871  -2.770   8.356   1.793 -1.4398 -0.0658  0.4622
  371MOL0     C48872  -2.815   8.482   1.835 -0.0060  0.4330  0.4748
  371MOL0     C48873  -2.941   8.494   1.879  0.3098 -0.5057  0.4127
  371MOL0     C48874  -3.037   8.403   1.850 -0.5474  0.1072 -0.4184
  371MOL0     O48875  -3.164   8.438   1.898  0.1208  0.6988  0.0573
  371MOL0     C48876  -3.269   8.336   1.890 -0.6651 -0.6348 -0.5621
  371MOL0     C48877  -3.397   8.381   1.959 -0.7619  0.1024 -0.3400
  371MOL0     C48878  -3.504   8.280   1.916 -1.1412  0.1408  0.2647
  371MOL0     C48879  -3.637   8.328   1.984 -0.2100 -0.4326  0.6261
  371MOL0     C48880  -3.765   8.262   1.944 -1.0920 -0.1780 -0.5990
  371MOL0     C48881  -3.879   8.326   2.016 -0.0628  0.0507 -0.2752
  371MOL0     C48882  -4.006   8.236   2.020 -0.6294  0.9359  0.6253
  371MOL0     C48883  -4.117   8.346   2.063 -0.7038  0.3770  0.3859
  371MOL0    Cl48884  -4.248   8.242   2.109 -0.3139  0.1237 -0.3472
  371MOL0     C48885  -2.998   8.287   1.782  0.3503  0.1356  0.3504
  371MOL0     C48886  -2.863   8.256   1.758 -0.6000 -0.5374 -0.2038
  371MOL0     O48887  -2.521   8.453   1.915  0.3273  0.2707  0.4665
  371MOL0     C48888  -2.373   8.260   1.663 -0.1609  0.6104 -0.0543
  371MOL0     C48889  -2.234   8.234   1.616 -0.1123 -0.0964  0.6465
  371MOL0     N48890  -1.331   8.430   1.656  0.1271 -0.1111 -0.2670
  371MOL0     N48891  -1.235   8.504   1.679 -0.5006 -0.0289 -0.0974
  371MOL0     C48892  -0.231   8.807   1.802 -0.1161 -0.0778 -0.0434
  371MOL0     C48893  -0.094   8.807   1.790  0.3926  0.0562 -0.4394
  371MOL0     C48894   0.343   8.769   1.841  0.3126 -0.9362 -0.2222
  371MOL0     C48895   0.424   8.655   1.866  0.0175  0.5533 -0.0920
  371MOL0     C48896   0.556   8.651   1.820 -0.7533 -1.3286  0.6432
  371MOL0     C48897   0.612   8.762   1.752  1.4546 -0.3144 -0.0239
  371MOL0     O48898   0.744   8.772   1.711 -0.3474  0.0309 -0.9783
  371MOL0     C48899   0.828   8.886   1.754  1.0687  0.9373  0.4934
  371MOL0     C48900   0.899   8.945   1.630 -1.0674  0.3286  0.0412
  371MOL0     C48901   1.041   9.004   1.658  0.9181 -0.9330  0.8019
  371MOL0     C48902   1.137   9.036   1.526  0.9801  0.2917 -0.1580
  371MOL0     C48903   1.263   9.097   1.573 -0.2495  0.0589  0.2220
  371MOL0     C48904   1.374   9.126   1.605 -0.3213  0.3074  0.3496
  371MOL0     C48905   0.531   8.875   1.728 -0.5447  0.0921 -0.4876
  371MOL0     C48906   0.400   8.872   1.771 -0.1598 -0.0978  0.3071
  371MOL0     H48907   0.014   9.022   2.029  0.2302  0.9249 -0.1852
  371MOL0     H48908  -0.243   9.003   2.081  0.1874 -0.4503  0.9991
  371MOL0     H48909  -0.425   8.655   1.987 -1.7396 -2.5115  0.0897
  371MOL0     H48910  -0.507   8.715   1.850  1.8622  2.7265 -0.8161
  371MOL0     H48911  -0.668   8.853   1.996 -0.2303  0.0300  0.1714
  371MOL0     H48912  -0.593   8.767   2.132  3.2566 -1.6458 -0.1381
  371MOL0     H48913  -0.695   8.556   2.046  1.2583 -0.5038 -2.4971
  371MOL0     H48914  -0.734   8.634   1.892 -0.5855  0.2776  0.5597
  371MOL0     H48915  -0.869   8.706   2.151  0.9732  1.7463  0.3391
  371MOL0     H48916  -0.877   8.794   1.991 -1.3775 -0.3283  0.3497
  371MOL0     H48917  -0.935   8.502   2.053  0.0126  0.1857 -1.1587
  371MOL0     H48918  -0.949   8.573   1.890  0.3778 -1.0833 -0.4749
  371MOL0     H48919  -1.121   8.632   2.134 -1.5074 -0.9424 -0.0790
  371MOL0     H48920  -1.174   8.527   2.004  3.2038 -2.2188 -0.4242
  371MOL0     H48921  -1.272   8.751   1.990 -0.8221 -0.2698 -1.0964
  371MOL0     H48922  -1.114   8.827   1.968 -1.6588  0.3408  0.1184
  371MOL0     H48923  -1.070   8.682   1.760  1.3008  0.1259 -0.1974
  371MOL0     H48924  -1.195   8.789   1.741  1.4766  1.5759  1.9222
  371MOL0     H48925  -1.465   8.657   1.862  1.4164 -0.1415  1.3896
  371MOL0     H48926  -1.612   8.447   1.832  0.4749  1.0958  0.8033
  371MOL0     H48927  -1.553   8.310   1.749  0.3274  0.4593  1.8282
  371MOL0     H48928  -1.631   8.397   1.526  0.2968 -4.4889  1.8134
  371MOL0     H48929  -1.688   8.541   1.612  2.2630 -0.5193 -2.0777
  371MOL0     H48930  -1.761   8.247   1.652 -0.3379  0.3051 -0.4662
  371MOL0     H48931  -1.837   8.359   1.763  0.8920 -2.9405  0.2500
  371MOL0     H48932  -1.869   8.358   1.474 -0.0628 -1.2465  0.0928
  371MOL0     H48933  -1.938   8.475   1.585 -0.7126 -0.4106  0.7010
  371MOL0     H48934  -2.072   8.469   1.789  1.3198 -1.5766 -1.8484
  371MOL0     H48935  -2.281   8.513   1.879 -0.5392  1.0080 -1.1042
  371MOL0     H48936  -2.754   8.568   1.861 -0.7477  1.2646 -0.4581
  371MOL0     H48937  -2.967   8.591   1.920 -0.5677 -1.2276  1.6444
  371MOL0     H48938  -3.231   8.251   1.946  0.6832  1.5100  2.0394
  371MOL0     H48939  -3.280   8.325   1.782 -0.4191  2.0713 -0.9457
  371MOL0     H48940  -3.422   8.484   1.935 -2.0600 -0.1636 -0.1876
  371MOL0     H48941  -3.379   8.369   2.067  0.5516 -1.3560 -0.6744
  371MOL0     H48942  -3.475   8.180   1.950  0.1073 -0.0710 -1.2784
  371MOL0     H48943  -3.515   8.294   1.808  0.7299  2.9797  0.3460
  371MOL0     H48944  -3.621   8.308   2.090  2.1260 -3.7015 -0.1816
  371MOL0     H48945  -3.647   8.436   1.970 -0.3893 -0.6676 -1.3945
  371MOL0     H48946  -3.750   8.162   1.986 -1.1387 -0.1205 -0.4429
  371MOL0     H48947  -3.774   8.252   1.835  0.7630 -1.2998 -0.6868
  371MOL0     H48948  -3.901   8.429   1.986  1.6902  0.1912 -1.1781
  371MOL0     H48949  -3.843   8.328   2.119 -2.5992  0.8363  0.6877
  371MOL0     H48950  -4.025   8.186   1.924 -0.1948  0.1010  0.9599
  371MOL0     H48951  -4.007   8.157   2.095  2.2454  1.6857  1.5843
  371MOL0     H48952  -4.144   8.409   1.978  2.1280  1.4092  0.1387
  371MOL0     H48953  -4.088   8.412   2.146  0.5486  2.2146 -1.4076
  371MOL0     H48954  -3.070   8.206   1.778  1.1909 -0.6306  0.4387
  371MOL0     H48955  -2.837   8.157   1.720  1.1947  0.3926 -1.5538
  371MOL0     H48956  -2.458   8.212   1.616 -0.2374 -0.7394  1.3868
  371MOL0     H48957  -2.210   8.155   1.545  1.6557 -0.2152  1.3240
  371MOL0     H48958  -0.287   8.748   1.730  1.8318  0.3189 -1.9606
  371MOL0     H48959  -0.046   8.740   1.720 -0.3597 -2.7865  1.5762
  371MOL0     H48960   0.397   8.561   1.913 -2.9438  0.7977 -1.0821
  371MOL0     H48961   0.624   8.571   1.845  2.5299  0.8055 -0.8132
  371MOL0     H48962   0.900   8.850   1.829  1.3365  1.0071  0.2714
  371MOL0     H48963   0.777   8.966   1.809 -1.7020 -0.0618 -0.4405
  371MOL0     H48964   0.923   8.874   1.551  0.9089  0.0605  0.8318
  371MOL0     H48965   0.826   9.016   1.589 -3.1520 -2.9689 -2.5042
  371MOL0     H48966   1.100   8.935   1.719 -0.2862 -1.7628  1.0485
  371MOL0     H48967   1.030   9.096   1.717  0.6300 -0.6900  0.3712
  371MOL0     H48968   1.154   8.945   1.468  0.5656 -1.3998  2.2109
  371MOL0     H48969   1.087   9.099   1.452  0.3705 -0.4950 -0.4304
  371MOL0     H48970   1.478   9.135   1.626 -0.3495 -0.7614  1.0376
  371MOL0     H48971   0.570   8.953   1.663  0.9126 -0.7619 -0.6997
  371MOL0     H48972   0.337   8.956   1.747 -0.5598 -1.0914 -2.4127
  372MOL0     O48973   7.824   7.124   0.620 -0.5478 -0.9305 -0.3585
  372MOL0     C48974   7.801   7.063   0.729  0.7480  0.0071  1.5380
  372MOL0     O48975   7.678   7.007   0.762 -0.3568 -0.2947  0.2327
  372MOL0     C48976   7.569   7.021   0.682  0.8527  0.0950  0.4665
  372MOL0     C48977   7.468   7.109   0.718  0.5457  0.2363 -0.2926
  372MOL0     C48978   7.356   7.133   0.637 -0.7584 -0.5177  0.2864
  372MOL0     C48979   7.344   7.080   0.506 -0.0947 -0.3672 -0.7309
  372MOL0     O48980   7.246   7.129   0.435  0.4147 -0.9813 -0.1403
  372MOL0     C48981   7.227   7.075   0.311 -0.9084  0.2638  0.0833
  372MOL0     C48982   7.107   7.128   0.246 -0.0607 -0.3870  0.1685
  372MOL0     C48983   6.978   7.122   0.332  0.4832  0.7712 -0.8903
  372MOL0     C48984   6.942   6.983   0.378 -0.3862  1.4192  0.2821
  372MOL0     C48985   6.792   6.968   0.384 -0.1249  0.3443  0.5982
  372MOL0     C48986   6.748   6.820   0.384  0.0344  0.0758  0.3943
  372MOL0     C48987   6.609   6.782   0.444  0.6877 -0.0581  0.7315
  372MOL0     C48988   6.502   6.839   0.347  0.2804  1.2534 -1.0253
  372MOL0     N48989   6.361   6.812   0.384 -0.4941 -0.0302 -0.0349
  372MOL0     C48990   6.273   6.743   0.303 -0.1496 -0.4406 -0.6188
  372MOL0     C48991   6.161   6.724   0.384 -0.8143 -1.0919 -1.2972
  372MOL0     C48992   6.039   6.654   0.353 -0.3555 -0.2826  0.0565
  372MOL0     C48993   6.043   6.547   0.235  0.2630 -0.1800 -0.0260
  372MOL0     C48994   6.125   6.420   0.275 -0.3910  0.6022  0.2138
  372MOL0     C48995   6.182   6.346   0.155  0.1612  0.3633 -0.4359
  372MOL0     O48996   6.287   6.419   0.098 -0.4094  0.3146 -0.9811
  372MOL0     C48997   6.414   6.411   0.143 -0.0982  0.2201  0.0730
  372MOL0     C48998   6.510   6.496   0.074 -0.4431  0.3097  1.1558
  372MOL0     C48999   6.646   6.504   0.111 -0.1732  0.1403 -0.0447
  372MOL0     C49000   6.683   6.419   0.221  0.4863 -0.2727  0.2319
  372MOL0     C49001   6.818   6.408   0.275 -0.4566 -1.1122  0.4457
  372MOL0     O49002   6.906   6.493   0.220  0.0799  0.1304  0.5964
  372MOL0     C49003   7.029   6.510   0.262 -0.0438 -0.1940  0.3190
  372MOL0     C49004   7.122   6.399   0.280  0.9460  0.4344  0.0785
  372MOL0     C49005   7.247   6.424   0.343 -0.3361 -0.9655  0.1162
  372MOL0     C49006   7.290   6.552   0.378 -0.2653 -0.7268  0.1439
  372MOL0     O49007   7.425   6.574   0.411 -0.1625 -0.5606 -0.0501
  372MOL0     C49008   7.538   6.544   0.328  0.5200  0.9920  0.9900
  372MOL0     C49009   7.664   6.603   0.385 -0.4939 -0.1423  0.5830
  372MOL0     C49010   7.683   6.548   0.528  0.2027  0.2090 -0.3607
  372MOL0     C49011   7.794   6.628   0.607 -0.2696 -0.5437  0.7642
  372MOL0     C49012   7.927   6.655   0.540  0.4436  0.2226  0.7105
  372MOL0     C49013   8.052   6.639   0.637  1.0686  0.1975  0.0403
  372MOL0     C49014   8.182   6.678   0.564  0.5683 -0.2789  0.6208
  372MOL0     C49015   8.317   6.661   0.643 -0.2347  0.0167 -0.1095
  372MOL0    Cl49016   8.474   6.670   0.549 -0.2521  0.1102 -0.0511
  372MOL0     C49017   7.199   6.652   0.375  1.0671  0.7688  0.2202
  372MOL0     C49018   7.069   6.635   0.320  0.1305  1.6955 -0.4898
  372MOL0     O49019   6.849   6.329   0.359 -0.0329 -0.7636 -0.0082
  372MOL0     C49020   6.587   6.335   0.281  0.1437 -0.5519  0.0944
  372MOL0     C49021   6.455   6.330   0.249  0.4142 -0.4449  0.2911
  372MOL0     N49022   6.177   6.793   0.508 -0.7344  0.3034  0.1077
  372MOL0     N49023   6.300   6.834   0.512 -0.2102  0.0109 -0.2872
  372MOL0     C49024   7.446   6.984   0.476  0.6030  0.3764  0.2774
  372MOL0     C49025   7.553   6.961   0.562 -0.2666  0.2069 -0.6498
  372MOL0     C49026   7.912   7.019   0.822  0.0295 -0.2037  0.1380
  372MOL0     C49027   7.890   6.967   0.948 -0.5699 -1.1031  0.1001
  372MOL0     C49028   7.994   6.932   1.029 -0.9223 -0.1740 -0.1894
  372MOL0     C49029   8.126   6.932   0.986  0.3264 -0.3552 -0.0900
  372MOL0     O49030   8.227   6.888   1.073 -0.1816 -0.7039  0.0746
  372MOL0     C49031   8.362   6.873   1.022 -0.4998 -0.0001 -0.4524
  372MOL0     C49032   8.439   7.008   1.045 -1.0090 -0.0191  0.8990
  372MOL0     C49033   8.594   6.999   1.049 -0.4248 -0.5402  0.0208
  372MOL0     C49034   8.657   6.934   0.927  0.2126  0.4654 -0.1086
  372MOL0     C49035   8.672   7.030   0.823 -0.3059 -0.3303  0.0072
  372MOL0     C49036   8.674   7.091   0.718  0.6793  0.2227  0.2863
  372MOL0     C49037   8.149   6.980   0.859 -0.2893  0.4077  0.5063
  372MOL0     C49038   8.043   7.030   0.776 -0.2836 -1.4598  0.1320
  372MOL0     H49039   7.473   7.156   0.815 -1.0274  2.4169 -1.1925
  372MOL0     H49040   7.275   7.202   0.658  0.2243  0.6250  0.4101
  372MOL0     H49041   7.224   6.966   0.315  0.3968  0.0919 -1.9401
  372MOL0     H49042   7.315   7.103   0.251  1.4417 -2.4322  2.0124
  372MOL0     H49043   7.107   7.073   0.152  0.3990 -0.4950  0.2314
  372MOL0     H49044   7.128   7.234   0.228 -4.5978  0.8477  0.7954
  372MOL0     H49045   6.902   7.158   0.261  2.6549  0.8830 -3.3136
  372MOL0     H49046   6.986   7.188   0.419  2.5173 -0.1021 -0.3782
  372MOL0     H49047   6.987   6.912   0.308 -4.1740 -1.6943  0.6764
  372MOL0     H49048   6.982   6.965   0.479  2.7749 -1.9343 -1.3359
  372MOL0     H49049   6.753   7.011   0.292  1.6846  1.0987  0.1537
  372MOL0     H49050   6.734   7.026   0.457  0.0546  2.4975 -0.8822
  372MOL0     H49051   6.813   6.765   0.452  0.3655 -0.8820 -0.6724
  372MOL0     H49052   6.770   6.781   0.285 -1.1531  2.1635 -0.7695
  372MOL0     H49053   6.599   6.674   0.436  0.4378  0.0068  0.1378
  372MOL0     H49054   6.598   6.820   0.546 -3.7968  0.0871  0.4063
  372MOL0     H49055   6.519   6.822   0.240 -1.8619 -1.6687 -1.0207
  372MOL0     H49056   6.522   6.947   0.343  1.6848  0.9793 -3.1882
  372MOL0     H49057   6.299   6.713   0.202  0.3202  1.3199 -1.0612
  372MOL0     H49058   5.964   6.724   0.315  3.0527  1.9950 -3.2432
  372MOL0     H49059   6.009   6.609   0.447 -2.4160  0.4974 -0.1765
  372MOL0     H49060   6.079   6.587   0.140  1.7077 -5.2539 -1.9540
  372MOL0     H49061   5.940   6.516   0.217 -0.7284  0.0018  4.2565
  372MOL0     H49062   6.206   6.439   0.346  1.1282 -2.4752 -0.5164
  372MOL0     H49063   6.075   6.337   0.325  1.8547 -0.5148  0.7677
  372MOL0     H49064   6.105   6.335   0.078  1.5674 -0.8716 -1.7321
  372MOL0     H49065   6.197   6.240   0.177 -2.9630 -0.7469 -2.9181
  372MOL0     H49066   6.477   6.556  -0.010 -1.3075 -1.3118  0.2804
  372MOL0     H49067   6.720   6.569   0.065 -2.7553  4.2245  1.1531
  372MOL0     H49068   7.095   6.296   0.259  0.4461  0.5165  0.3134
  372MOL0     H49069   7.313   6.338   0.351 -1.4623 -1.9252 -0.5885
  372MOL0     H49070   7.519   6.595   0.234  1.8398  0.4795  0.4188
  372MOL0     H49071   7.548   6.436   0.315  1.1072  1.4156 -3.6085
  372MOL0     H49072   7.654   6.711   0.390 -0.7536 -0.0624 -1.1737
  372MOL0     H49073   7.753   6.572   0.329 -1.1739 -1.0470 -0.0267
  372MOL0     H49074   7.703   6.441   0.520 -0.3689  0.2373 -2.7659
  372MOL0     H49075   7.597   6.558   0.595  0.2616 -1.6762  0.0495
  372MOL0     H49076   7.744   6.722   0.632 -1.4067 -0.9993  0.2534
  372MOL0     H49077   7.816   6.587   0.706 -0.6533  3.0737  2.5250
  372MOL0     H49078   7.923   6.753   0.490  2.4622  0.6845  1.3580
  372MOL0     H49079   7.950   6.584   0.460  0.2500  0.2538  0.6261
  372MOL0     H49080   8.057   6.534   0.667 -0.1470 -0.5867 -2.2323
  372MOL0     H49081   8.030   6.706   0.721  0.5630 -1.1989  1.0480
  372MOL0     H49082   8.180   6.621   0.471 -2.1132  1.6807 -0.6654
  372MOL0     H49083   8.171   6.783   0.536  3.4191 -0.0628  0.0248
  372MOL0     H49084   8.316   6.565   0.695 -2.6582  0.0675  0.0742
  372MOL0     H49085   8.344   6.738   0.717 -0.8477  0.9586 -0.8329
  372MOL0     H49086   7.246   6.745   0.408  1.9124  0.6616 -0.5996
  372MOL0     H49087   6.992   6.711   0.324 -2.0444 -0.2157 -2.9781
  372MOL0     H49088   6.620   6.264   0.356  1.3159  0.0642  0.1916
  372MOL0     H49089   6.388   6.266   0.306  1.0898 -0.7088  0.8026
  372MOL0     H49090   7.445   6.921   0.388  1.2547  0.6463  0.0654
  372MOL0     H49091   7.632   6.889   0.545 -0.1737 -0.6032  2.5806
  372MOL0     H49092   7.791   6.949   0.989 -2.2258  1.1196 -2.6117
  372MOL0     H49093   7.984   6.885   1.126  0.6186  0.8758  0.5138
  372MOL0     H49094   8.355   6.844   0.917 -2.6445  2.9809 -1.2650
  372MOL0     H49095   8.418   6.807   1.088 -1.1961  0.6901  0.8757
  372MOL0     H49096   8.408   7.081   0.970 -0.6990 -1.7328 -0.9846
  372MOL0     H49097   8.396   7.049   1.137 -2.1209 -2.7870  1.7324
  372MOL0     H49098   8.639   6.958   1.141  1.0806  1.0292  0.0356
  372MOL0     H49099   8.622   7.105   1.052  0.3817 -0.6934 -1.4807
  372MOL0     H49100   8.752   6.883   0.946  0.0438 -0.9841 -2.7516
  372MOL0     H49101   8.602   6.847   0.891  1.5049 -0.2128 -0.5126
  372MOL0     H49102   8.677   7.150   0.628 -2.4907 -0.5201 -0.4360
  372MOL0     H49103   8.245   6.989   0.810 -0.6806 -0.6225 -0.4964
  372MOL0     H49104   8.065   7.067   0.676  2.9495  4.9672  2.6760
  373MOL0     O49105   9.768  10.167   8.440 -0.0170  0.8536 -0.6632
  373MOL0     C49106   9.805  10.154   8.327  0.4931  0.4995  0.0022
  373MOL0     O49107   9.731  10.065   8.238  0.9771  0.4150  0.7259
  373MOL0     C49108   9.615   9.988   8.262 -0.8737  0.0455  0.2446
  373MOL0     C49109   9.521   9.958   8.164  0.0998 -0.4881 -0.2018
  373MOL0     C49110   9.406   9.886   8.201  0.2050  0.2052  0.0315
  373MOL0     C49111   9.385   9.823   8.320 -0.6501  0.8494  0.5247
  373MOL0     O49112   9.279   9.748   8.347  0.6665  0.3138  0.2423
  373MOL0     C49113   9.194   9.789   8.457  0.5412  0.0689  0.0761
  373MOL0     C49114   9.087   9.670   8.458 -0.1202  0.5649  0.8903
  373MOL0     C49115   8.973   9.699   8.554  0.1590 -0.4426  0.3839
  373MOL0     C49116   8.859   9.601   8.549  0.9018  0.7530 -0.4479
  373MOL0     C49117   8.751   9.632   8.440 -0.4297  0.8305 -1.0716
  373MOL0     C49118   8.656   9.513   8.433 -0.2520 -0.2261 -0.3411
  373MOL0     C49119   8.530   9.552   8.359  0.6660  0.7616 -0.5154
  373MOL0     C49120   8.421   9.442   8.353  0.4731 -0.4957 -0.1555
  373MOL0     N49121   8.302   9.517   8.340  0.0164 -0.4600 -0.5715
  373MOL0     C49122   8.214   9.514   8.229  0.4822 -0.8137 -0.1690
  373MOL0     C49123   8.099   9.577   8.284  0.4490  0.0827  0.6297
  373MOL0     C49124   7.970   9.614   8.204  0.2851 -0.0975 -0.8970
  373MOL0     C49125   7.825   9.568   8.233 -0.0832 -0.1017 -0.6291
  373MOL0     C49126   7.819   9.412   8.229 -0.6613  0.3631  0.0935
  373MOL0     C49127   7.689   9.362   8.294  0.8216  0.0628 -0.5279
  373MOL0     O49128   7.581   9.435   8.222  0.5172 -1.1470  0.1009
  373MOL0     C49129   7.450   9.418   8.264  0.0517  0.4781 -0.8833
  373MOL0     C49130   7.355   9.503   8.204 -0.3136 -0.1433  0.8941
  373MOL0     C49131   7.216   9.488   8.228 -0.5608 -0.6061  0.3176
  373MOL0     C49132   7.180   9.401   8.335  0.1630 -0.4265  0.2930
  373MOL0     C49133   7.035   9.403   8.372 -0.1104  0.3386  0.8238
  373MOL0     O49134   6.950   9.465   8.283 -0.4314 -0.6577 -0.4468
  373MOL0     C49135   6.817   9.470   8.308  0.8225  0.4507 -0.0746
  373MOL0     C49136   6.760   9.491   8.437 -0.6920  0.0962 -0.4456
  373MOL0     C49137   6.629   9.465   8.456  0.3121  0.0549  1.2344
  373MOL0     C49138   6.542   9.438   8.350  0.2247  0.0523 -0.4219
  373MOL0     O49139   6.405   9.446   8.382  0.7474 -0.2004  0.4494
  373MOL0     C49140   6.307   9.434   8.273 -0.2542  0.0273  0.1585
  373MOL0     C49141   6.253   9.294   8.245  0.9663  1.1675 -0.2151
  373MOL0     C49142   6.184   9.242   8.374  0.5302 -0.0044  0.5250
  373MOL0     C49143   6.074   9.137   8.348  0.8931 -0.0992  0.7395
  373MOL0     C49144   6.042   9.048   8.474  0.2686 -0.0534 -0.1799
  373MOL0     C49145   5.936   8.942   8.435 -0.0422 -0.0357 -0.2232
  373MOL0     C49146   5.795   8.999   8.440  0.3708 -0.5405  0.6119
  373MOL0     C49147   5.697   8.912   8.374  0.1100  0.9268  0.8476
  373MOL0    Cl49148   5.530   8.974   8.385 -0.0856  0.0189 -0.1074
  373MOL0     C49149   6.591   9.426   8.219 -0.4790 -0.6987  0.7644
  373MOL0     C49150   6.735   9.453   8.191 -0.5418  0.2140 -0.0723
  373MOL0     O49151   7.002   9.329   8.462  0.6703  0.1531  0.1717
  373MOL0     C49152   7.271   9.313   8.396 -0.3280  0.0529  0.8861
  373MOL0     C49153   7.407   9.317   8.355 -0.5893  0.3186 -1.1488
  373MOL0     N49154   8.126   9.604   8.414 -0.6603  0.4787  0.6046
  373MOL0     N49155   8.245   9.580   8.444  0.4572 -0.4912 -0.7114
  373MOL0     C49156   9.489   9.839   8.413 -0.3642  0.6554 -0.6293
  373MOL0     C49157   9.598   9.921   8.389  0.3488 -0.8293 -0.8579
  373MOL0     C49158   9.924  10.234   8.292  0.1129 -0.3367  0.5525
  373MOL0     C49159   9.991  10.325   8.372  0.6924 -0.4999 -1.0675
  373MOL0     C49160  10.109  10.391   8.327 -0.5730  0.3588 -0.6318
  373MOL0     C49161  10.153  10.375   8.199 -0.3974 -0.4039  0.8190
  373MOL0     O49162  10.260  10.440   8.141 -0.5805  0.0471 -0.2069
  373MOL0     C49163  10.357  10.516   8.221 -0.5256  0.0095  0.8995
  373MOL0     C49164  10.480  10.493   8.137  0.0992 -1.0268  0.1704
  373MOL0     C49165  10.590  10.593   8.162  0.6656 -0.2673  0.5894
  373MOL0     C49166  10.543  10.739   8.119 -0.1011 -0.3604 -0.1636
  373MOL0     C49167  10.516  10.823   8.243 -0.4131 -0.1059  0.0033
  373MOL0     C49168  10.485  10.887   8.345  0.5928 -0.5688 -0.0426
  373MOL0     C49169  10.076  10.288   8.118  0.4256  0.1328 -0.2735
  373MOL0     C49170   9.967  10.223   8.161  0.6730 -0.0759  0.4950
  373MOL0     H49171   9.535   9.994   8.063  2.9405 -0.4917  0.1115
  373MOL0     H49172   9.327   9.866   8.129  0.9934 -0.1490 -0.7498
  373MOL0     H49173   9.146   9.887   8.452 -3.1596 -1.2911  3.5730
  373MOL0     H49174   9.254   9.795   8.549  0.0769 -1.2188  0.4718
  373MOL0     H49175   9.148   9.586   8.493  1.2644  0.9512 -0.5014
  373MOL0     H49176   9.055   9.641   8.358  1.9007 -2.0858  0.8894
  373MOL0     H49177   8.939   9.801   8.533  0.6599 -0.1052  1.1338
  373MOL0     H49178   9.018   9.688   8.653 -0.0160  3.2333  1.0454
  373MOL0     H49179   8.898   9.499   8.560 -1.3516  0.0845  2.3023
  373MOL0     H49180   8.790   9.617   8.632  2.6543  0.7260  1.0775
  373MOL0     H49181   8.804   9.656   8.347  2.8665 -0.9851  0.1612
  373MOL0     H49182   8.694   9.719   8.474 -2.4721 -1.0169  0.4967
  373MOL0     H49183   8.623   9.490   8.535  0.4327  1.2250  0.2386
  373MOL0     H49184   8.715   9.430   8.391  0.4838  1.0398 -1.9129
  373MOL0     H49185   8.495   9.645   8.404  4.1824  0.2380  4.0089
  373MOL0     H49186   8.557   9.579   8.256 -1.1307  2.2437 -0.6671
  373MOL0     H49187   8.414   9.381   8.444 -0.4145  1.0713  0.8920
  373MOL0     H49188   8.432   9.380   8.264  1.4308  0.9207 -1.0585
  373MOL0     H49189   8.232   9.491   8.125  1.6682  2.5916 -0.8507
  373MOL0     H49190   7.991   9.573   8.105 -1.0083 -3.3358  0.0646
  373MOL0     H49191   7.959   9.723   8.193 -0.7063 -0.2479 -1.5589
  373MOL0     H49192   7.762   9.613   8.156 -1.4991  0.2775  0.6925
  373MOL0     H49193   7.798   9.599   8.335 -1.1972 -1.6060 -0.4267
  373MOL0     H49194   7.814   9.373   8.127 -1.1289 -1.1526  0.6629
  373MOL0     H49195   7.902   9.370   8.287  1.0180  2.3147 -0.7844
  373MOL0     H49196   7.688   9.390   8.400  1.3175 -1.3304 -0.1297
  373MOL0     H49197   7.686   9.253   8.287 -2.1350 -0.4760  4.4161
  373MOL0     H49198   7.388   9.579   8.133 -4.8615  0.3735 -0.9783
  373MOL0     H49199   7.140   9.540   8.170 -0.1322 -0.4741 -0.1320
  373MOL0     H49200   6.816   9.517   8.526 -0.8846 -0.9586 -0.0040
  373MOL0     H49201   6.588   9.483   8.555  0.6387  0.3544  1.3171
  373MOL0     H49202   6.341   9.472   8.176  0.6700 -0.9380  0.0871
  373MOL0     H49203   6.219   9.496   8.291 -0.1478  0.0884  0.4594
  373MOL0     H49204   6.330   9.228   8.204 -1.2572 -0.9132 -1.2967
  373MOL0     H49205   6.175   9.303   8.170 -1.0874 -1.2434  1.4700
  373MOL0     H49206   6.132   9.322   8.426  0.5028  0.7325 -0.6012
  373MOL0     H49207   6.257   9.199   8.444  0.0753 -0.6226  0.6275
  373MOL0     H49208   5.979   9.179   8.312  0.9258  0.7703  1.5971
  373MOL0     H49209   6.111   9.077   8.265  2.9368  0.7302  0.9936
  373MOL0     H49210   6.027   9.101   8.569  1.8645 -0.0430  0.0942
  373MOL0     H49211   6.140   9.004   8.490 -0.5083 -1.2168  1.7316
  373MOL0     H49212   5.935   8.861   8.508 -0.8307  1.0033  0.9696
  373MOL0     H49213   5.953   8.907   8.333 -0.0273  0.6052 -0.4502
  373MOL0     H49214   5.761   9.027   8.540  0.5094 -2.7007  1.3016
  373MOL0     H49215   5.805   9.091   8.382 -0.2389 -0.3807  0.7470
  373MOL0     H49216   5.700   8.819   8.432 -1.5553  0.2760 -0.0592
  373MOL0     H49217   5.718   8.897   8.268 -2.9237  0.3249  0.2490
  373MOL0     H49218   6.532   9.392   8.134 -1.5200  3.1692 -0.2613
  373MOL0     H49219   6.791   9.446   8.098 -1.5025 -3.8412 -0.5615
  373MOL0     H49220   7.244   9.241   8.472  3.3247 -1.2631  1.1112
  373MOL0     H49221   7.477   9.246   8.397  0.1385  1.9208  0.4940
  373MOL0     H49222   9.467   9.799   8.512 -2.6131 -0.9938 -1.6932
  373MOL0     H49223   9.679   9.937   8.459  0.5854  0.2280 -1.3510
  373MOL0     H49224   9.955  10.347   8.471 -2.5386  0.9283 -2.4040
  373MOL0     H49225  10.159  10.464   8.391 -3.1991  0.8915  0.9738
  373MOL0     H49226  10.377  10.491   8.326  1.7738  2.7528  1.2289
  373MOL0     H49227  10.339  10.624   8.221  2.1675  0.5558 -1.2168
  373MOL0     H49228  10.520  10.393   8.155 -0.5090 -1.1078  1.1394
  373MOL0     H49229  10.451  10.506   8.032 -1.1483  0.4684  0.6590
  373MOL0     H49230  10.684  10.568   8.112  0.5207 -3.4449  1.7038
  373MOL0     H49231  10.620  10.588   8.267  0.5728 -0.1606  0.6210
  373MOL0     H49232  10.630  10.788   8.076  0.0518 -0.9427 -0.5338
  373MOL0     H49233  10.454  10.730   8.056  0.3904 -4.2718 -0.5199
  373MOL0     H49234  10.465  10.941   8.436  1.2501 -2.0685  1.0337
  373MOL0     H49235  10.099  10.287   8.012  3.4051 -2.6172  0.2550
  373MOL0     H49236   9.909  10.171   8.085  1.8157 -0.8751  0.1553
  374MOL0     O49237   4.982   3.754   3.243  0.1195  0.3451  0.6403
  374MOL0     C49238   5.040   3.825   3.322  0.1437  0.1299  0.3770
  374MOL0     O49239   4.990   3.940   3.377 -0.4035  0.8183 -0.1072
  374MOL0     C49240   4.866   3.997   3.345 -0.2819  0.0427 -0.1319
  374MOL0     C49241   4.840   4.117   3.413 -0.5048  0.4050  0.4186
  374MOL0     C49242   4.714   4.169   3.414 -0.0287 -0.2008  0.2987
  374MOL0     C49243   4.610   4.104   3.332 -1.0000  0.1556 -0.6195
  374MOL0     O49244   4.491   4.157   3.305 -0.3313  0.1248 -0.2779
  374MOL0     C49245   4.437   4.250   3.402  1.3966  0.8104 -0.2420
  374MOL0     C49246   4.296   4.299   3.359 -0.2365 -0.2753 -0.6758
  374MOL0     C49247   4.225   4.362   3.478  1.1406 -0.0579 -0.6862
  374MOL0     C49248   4.082   4.402   3.440 -0.3306  0.2609 -0.3048
  374MOL0     C49249   4.031   4.473   3.563  0.0861 -0.1173 -0.2079
  374MOL0     C49250   3.887   4.539   3.564  0.1699 -0.2604 -0.0382
  374MOL0     C49251   3.779   4.440   3.573  0.1983 -1.1353 -0.3090
  374MOL0     C49252   3.634   4.499   3.562 -0.8580 -0.2903 -0.4242
  374MOL0     N49253   3.534   4.408   3.610  0.1853 -0.0691 -0.5038
  374MOL0     C49254   3.435   4.337   3.540  0.0350 -0.2604  0.8434
  374MOL0     C49255   3.372   4.257   3.629  0.6225 -0.4165  0.6276
  374MOL0     C49256   3.256   4.158   3.605  0.5615 -0.1130  0.2480
  374MOL0     C49257   3.147   4.226   3.522 -0.1876 -0.7364 -0.6590
  374MOL0     C49258   3.036   4.125   3.486 -0.4492 -1.0215 -0.1641
  374MOL0     C49259   2.925   4.192   3.398 -0.0253 -0.7267 -0.2967
  374MOL0     O49260   2.831   4.098   3.355 -0.3459  0.2383 -0.4033
  374MOL0     C49261   2.704   4.146   3.321  0.0611  0.4881  0.1703
  374MOL0     C49262   2.644   4.054   3.235 -0.3269 -0.8361 -0.1611
  374MOL0     C49263   2.512   4.073   3.199  0.1569 -0.5911  0.1606
  374MOL0     C49264   2.440   4.190   3.232  0.2844 -0.5905 -0.1755
  374MOL0     C49265   2.299   4.210   3.201 -0.1310  0.5140  0.9005
  374MOL0     O49266   2.241   4.135   3.104 -0.5440 -0.0454  0.0902
  374MOL0     C49267   2.108   4.103   3.098  0.0519  0.0414 -0.3407
  374MOL0     C49268   2.069   4.045   2.977 -0.3097 -0.4743 -0.6058
  374MOL0     C49269   1.946   3.983   2.968 -0.2181  0.2167 -0.1052
  374MOL0     C49270   1.867   3.984   3.081  0.6682 -1.4405 -0.6002
  374MOL0     O49271   1.744   3.932   3.093 -0.6856  0.0712 -0.0064
  374MOL0     C49272   1.692   3.845   2.995  0.4086  0.1383  0.7531
  374MOL0     C49273   1.551   3.820   3.018 -0.7621 -0.5339 -0.0642
  374MOL0     C49274   1.495   3.743   2.894 -0.5306 -0.0500 -0.3162
  374MOL0     C49275   1.384   3.642   2.931  0.1864 -0.0239 -0.2141
  374MOL0     C49276   1.352   3.547   2.809 -0.2461 -0.0289  0.2262
  374MOL0     C49277   1.228   3.468   2.821 -0.3639 -0.3032  0.3830
  374MOL0     C49278   1.221   3.356   2.706  0.2474 -0.4367 -0.8419
  374MOL0     C49279   1.078   3.312   2.686  0.3651  0.4542  0.3262
  374MOL0    Cl49280   1.016   3.223   2.826  0.1023 -0.1488 -0.1378
  374MOL0     C49281   1.906   4.049   3.199 -0.1126 -0.2997  0.1695
  374MOL0     C49282   2.032   4.111   3.206  0.7993 -0.1998 -0.5503
  374MOL0     O49283   2.241   4.299   3.267  0.1572  0.4001 -0.3019
  374MOL0     C49284   2.505   4.275   3.316  0.1059  0.1313 -0.1531
  374MOL0     C49285   2.638   4.268   3.356 -0.7332  0.0261 -0.1869
  374MOL0     N49286   3.435   4.273   3.753 -1.0262  0.0604 -0.4109
  374MOL0     N49287   3.529   4.367   3.750  0.2852 -1.2136 -0.1343
  374MOL0     C49288   4.636   3.992   3.266  0.2514 -0.2345  0.5419
  374MOL0     C49289   4.759   3.943   3.273 -0.2319  0.8158  0.5457
  374MOL0     C49290   5.176   3.780   3.343 -0.1917  0.2871 -0.0637
  374MOL0     C49291   5.271   3.878   3.383 -0.6910 -0.0840 -0.2156
  374MOL0     C49292   5.402   3.838   3.410  0.2409  0.6545 -0.3875
  374MOL0     C49293   5.451   3.712   3.370 -0.5348  0.1676 -0.5076
  374MOL0     O49294   5.583   3.680   3.387 -0.2210  0.6035  0.3928
  374MOL0     C49295   5.620   3.544   3.388 -0.4906 -0.4698 -0.6618
  374MOL0     C49296   5.737   3.535   3.473 -0.2927  0.9744  0.7986
  374MOL0     C49297   5.809   3.397   3.475  0.8477 -0.1478 -0.9611
  374MOL0     C49298   5.727   3.302   3.558  0.1884  0.4174 -0.1278
  374MOL0     C49299   5.800   3.171   3.571  0.0249 -0.9405 -0.0808
  374MOL0     C49300   5.839   3.063   3.598 -0.5433  0.8279  0.0108
  374MOL0     C49301   5.355   3.623   3.309 -0.1266  0.0624 -0.5601
  374MOL0     C49302   5.224   3.656   3.303  0.8254  0.6654 -0.0209
  374MOL0     H49303   4.926   4.177   3.440 -1.1202  1.0752  0.9299
  374MOL0     H49304   4.691   4.257   3.473  2.6879  0.8920 -0.0888
  374MOL0     H49305   4.507   4.332   3.422  4.4184 -1.6146 -0.1540
  374MOL0     H49306   4.416   4.197   3.495  0.3258 -2.5665 -2.2069
  374MOL0     H49307   4.232   4.215   3.327 -0.9966 -0.4532  1.2111
  374MOL0     H49308   4.290   4.379   3.284 -0.5464  0.5704  0.2352
  374MOL0     H49309   4.278   4.445   3.524 -0.3465  0.8206 -0.5105
  374MOL0     H49310   4.213   4.293   3.562  0.0550  1.0561  0.1038
  374MOL0     H49311   4.085   4.464   3.350 -1.0586 -1.0003 -1.2365
  374MOL0     H49312   4.017   4.316   3.420 -1.7420  0.9311  1.1346
  374MOL0     H49313   4.090   4.558   3.600  1.1174 -1.9012  2.5709
  374MOL0     H49314   4.035   4.402   3.646  2.0370  1.9836  1.6335
  374MOL0     H49315   3.880   4.595   3.471 -2.1771 -2.0626 -1.0397
  374MOL0     H49316   3.885   4.613   3.645  0.4014  0.4392 -0.6558
  374MOL0     H49317   3.794   4.365   3.494 -0.1686 -0.1365 -1.3644
  374MOL0     H49318   3.785   4.389   3.669  0.5643  1.2393  1.0117
  374MOL0     H49319   3.620   4.520   3.455  4.1361  1.4214 -1.0199
  374MOL0     H49320   3.624   4.597   3.607 -1.5452  0.0758 -1.3335
  374MOL0     H49321   3.403   4.344   3.437  0.1189 -0.5303  0.7977
  374MOL0     H49322   3.211   4.124   3.698  1.5953 -0.7815  0.5194
  374MOL0     H49323   3.294   4.070   3.551 -0.0592 -1.0241  1.2468
  374MOL0     H49324   3.188   4.282   3.438  0.8554  3.7536  2.5029
  374MOL0     H49325   3.092   4.300   3.581 -1.2231  0.0325 -2.4967
  374MOL0     H49326   3.079   4.037   3.438  3.2957  1.3392 -1.6003
  374MOL0     H49327   2.977   4.095   3.573 -2.8029  2.4790 -0.3740
  374MOL0     H49328   2.966   4.248   3.313  0.1446 -1.0420 -0.4210
  374MOL0     H49329   2.871   4.263   3.461 -0.0530 -0.8066 -0.2310
  374MOL0     H49330   2.684   3.959   3.201 -3.1164 -1.5495 -1.7376
  374MOL0     H49331   2.447   3.998   3.156 -1.5047  1.6977 -1.6168
  374MOL0     H49332   2.120   4.052   2.881  0.6148 -1.0377 -0.1699
  374MOL0     H49333   1.906   3.952   2.872  0.5120 -1.9998  0.2451
  374MOL0     H49334   1.756   3.757   2.999 -3.0027 -2.5068  1.5032
  374MOL0     H49335   1.695   3.889   2.895 -1.7644 -0.6137  0.2865
  374MOL0     H49336   1.495   3.912   3.031 -0.2900 -0.5922  2.9848
  374MOL0     H49337   1.533   3.771   3.114 -0.3664 -2.2775 -0.8266
  374MOL0     H49338   1.585   3.704   2.846 -0.5905 -0.2406 -0.2743
  374MOL0     H49339   1.444   3.800   2.816  0.1424  0.3804 -0.4408
  374MOL0     H49340   1.416   3.576   3.012 -1.0150  1.2044  1.3308
  374MOL0     H49341   1.302   3.699   2.976  0.3471 -0.7425  1.0262
  374MOL0     H49342   1.432   3.477   2.781  2.4179  1.5178  3.3271
  374MOL0     H49343   1.338   3.613   2.723 -0.8712 -1.3088 -0.6901
  374MOL0     H49344   1.138   3.529   2.825  0.5166  1.4352 -2.6811
  374MOL0     H49345   1.222   3.407   2.911 -4.5527 -1.2048 -0.2908
  374MOL0     H49346   1.251   3.411   2.617  1.0707  0.7235  0.1257
  374MOL0     H49347   1.276   3.263   2.727 -0.5421 -1.2452 -2.1707
  374MOL0     H49348   1.076   3.243   2.601 -3.9035  0.8571 -0.1383
  374MOL0     H49349   1.011   3.396   2.668  0.5499  1.0020  1.9616
  374MOL0     H49350   1.842   4.038   3.286  0.8246  0.6461  0.9989
  374MOL0     H49351   2.068   4.165   3.294  3.6702 -1.6452 -0.7074
  374MOL0     H49352   2.440   4.354   3.353 -0.3189 -0.0316 -0.5519
  374MOL0     H49353   2.665   4.338   3.434  0.4327 -0.5784 -0.0321
  374MOL0     H49354   4.554   3.944   3.212 -2.0113  2.1991  1.6131
  374MOL0     H49355   4.783   3.848   3.226 -2.1071 -0.3345  1.7770
  374MOL0     H49356   5.240   3.980   3.402 -2.3246 -1.1523  4.0814
  374MOL0     H49357   5.467   3.913   3.454  3.0146 -0.9204 -1.5336
  374MOL0     H49358   5.646   3.504   3.289  1.6818 -1.4262  0.2286
  374MOL0     H49359   5.540   3.488   3.438 -0.3240  1.4172  1.8730
  374MOL0     H49360   5.816   3.603   3.443 -0.6480  0.3340 -1.8798
  374MOL0     H49361   5.713   3.569   3.574 -2.3872 -1.8629  1.3873
  374MOL0     H49362   5.894   3.413   3.541 -1.1127  2.8027  1.1095
  374MOL0     H49363   5.837   3.343   3.385  0.4078 -1.3093 -0.4274
  374MOL0     H49364   5.712   3.340   3.660 -0.2672  0.2344 -0.1266
  374MOL0     H49365   5.636   3.290   3.499  0.6004  2.5967 -1.3502
  374MOL0     H49366   5.867   2.964   3.628 -0.9121  0.7288  0.0320
  374MOL0     H49367   5.389   3.536   3.253  0.3068  0.4840 -0.9488
  374MOL0     H49368   5.158   3.576   3.271  0.9990  0.5524 -0.0949
  375MOL0     O49369   0.462   6.145   2.712 -0.2966 -0.4252 -0.6696
  375MOL0     C49370   0.405   6.186   2.610 -1.6887 -0.2027 -0.5148
  375MOL0     O49371   0.465   6.195   2.484 -0.2864 -0.8805 -0.9362
  375MOL0     C49372   0.574   6.119   2.450 -0.3987 -0.8270 -0.1930
  375MOL0     C49373   0.667   6.078   2.542  0.9173 -0.1610 -0.3300
  375MOL0     C49374   0.793   6.023   2.521 -0.2127  0.0239 -0.9974
  375MOL0     C49375   0.828   6.002   2.391  0.3522 -0.5578  0.0001
  375MOL0     O49376   0.946   5.948   2.358  0.8432 -0.7478  1.1439
  375MOL0     C49377   1.060   6.036   2.344 -0.5177  0.0726  0.0018
  375MOL0     C49378   1.145   5.986   2.223  0.3401 -0.0570 -0.5914
  375MOL0     C49379   1.071   6.024   2.086 -0.0392  0.3339  0.2466
  375MOL0     C49380   1.049   6.169   2.057  0.9822 -0.2608  0.4342
  375MOL0     C49381   1.029   6.188   1.909  0.9833 -0.4508  0.2363
  375MOL0     C49382   0.896   6.129   1.858  0.1249  0.0187 -0.2907
  375MOL0     C49383   0.759   6.197   1.892  0.0157 -0.2370 -0.5486
  375MOL0     C49384   0.636   6.115   1.851 -0.3075 -0.2654  0.0831
  375MOL0     N49385   0.515   6.154   1.914  0.6289 -0.0421  0.3411
  375MOL0     C49386   0.408   6.076   1.959  1.0853  1.4313  0.2690
  375MOL0     C49387   0.335   6.153   2.047  0.1988  0.0186 -0.0842
  375MOL0     C49388   0.220   6.100   2.128 -0.0429  0.2922 -1.3300
  375MOL0     C49389   0.104   6.200   2.149  0.1876  0.5074 -0.7422
  375MOL0     C49390   0.017   6.243   2.039  0.4054  0.2385  0.0530
  375MOL0     C49391  -0.100   6.327   2.096 -0.4536 -0.4330  0.4942
  375MOL0     O49392  -0.150   6.405   1.985 -0.0105 -0.1704  0.6110
  375MOL0     C49393  -0.286   6.438   1.978 -0.1453  0.7509  0.4326
  375MOL0     C49394  -0.360   6.441   1.857  0.0959 -0.0376 -0.1071
  375MOL0     C49395  -0.500   6.453   1.864 -1.3479  0.6669  0.8519
  375MOL0     C49396  -0.567   6.475   1.986  0.6047 -0.2490 -1.0836
  375MOL0     C49397  -0.715   6.503   1.984  0.0261 -0.6590  0.3994
  375MOL0     O49398  -0.787   6.465   1.877 -0.4882 -0.6457  0.2467
  375MOL0     C49399  -0.924   6.483   1.863 -1.3407 -0.3063 -0.9055
  375MOL0     C49400  -0.976   6.539   1.750 -0.1507  0.3956  0.4363
  375MOL0     C49401  -1.115   6.538   1.730  0.3352 -0.3928  0.4151
  375MOL0     C49402  -1.207   6.513   1.837 -0.0738  0.4065  1.0840
  375MOL0     O49403  -1.339   6.553   1.820 -0.3690 -0.6186 -0.1284
  375MOL0     C49404  -1.416   6.579   1.933 -0.7099 -0.2751 -0.0163
  375MOL0     C49405  -1.541   6.658   1.895 -0.7469  0.0142 -0.9746
  375MOL0     C49406  -1.636   6.583   1.817  0.8953  1.2117 -0.2899
  375MOL0     C49407  -1.768   6.653   1.808 -0.4544 -0.2048 -0.3096
  375MOL0     C49408  -1.887   6.581   1.735 -0.2275  0.1317  0.1632
  375MOL0     C49409  -2.007   6.681   1.726  0.0810 -0.7132 -0.1747
  375MOL0     C49410  -2.142   6.605   1.747 -0.3606 -0.1957  0.7159
  375MOL0     C49411  -2.270   6.689   1.747 -0.1494 -0.8609  0.3977
  375MOL0    Cl49412  -2.283   6.777   1.586 -0.1368 -0.1047  0.0394
  375MOL0     C49413  -1.152   6.441   1.948 -0.0369 -0.0224 -0.9327
  375MOL0     C49414  -1.017   6.420   1.953 -0.4564  0.9579 -0.0150
  375MOL0     O49415  -0.757   6.556   2.084  0.4865 -0.1153  0.3929
  375MOL0     C49416  -0.490   6.475   2.108  0.3009 -0.1411  0.9389
  375MOL0     C49417  -0.352   6.457   2.102 -0.5749  0.0807  0.5774
  375MOL0     N49418   0.383   6.280   2.037  0.3048  0.0577  0.0942
  375MOL0     N49419   0.490   6.279   1.962 -0.6698 -0.4712 -0.0527
  375MOL0     C49420   0.729   6.037   2.294  0.8375 -0.2332  0.2152
  375MOL0     C49421   0.608   6.098   2.316 -0.1881  0.4208  0.0847
  375MOL0     C49422   0.258   6.196   2.614 -0.4071 -0.0681 -0.8602
  375MOL0     C49423   0.209   6.309   2.548  0.4003 -1.0413 -0.5221
  375MOL0     C49424   0.071   6.325   2.540  0.7955  0.1620 -1.0780
  375MOL0     C49425  -0.017   6.234   2.604 -0.8749 -0.4746 -0.5464
  375MOL0     O49426  -0.159   6.249   2.592  0.2400 -0.5945  0.0476
  375MOL0     C49427  -0.251   6.187   2.682  0.1764  0.4337  0.7823
  375MOL0     C49428  -0.388   6.255   2.680  0.6087  0.8390 -0.6710
  375MOL0     C49429  -0.449   6.260   2.539  0.5788  0.1218 -0.0786
  375MOL0     C49430  -0.602   6.265   2.541  0.2463  0.3082 -0.5053
  375MOL0     C49431  -0.675   6.265   2.418 -1.0676  0.1781  0.2293
  375MOL0     C49432  -0.745   6.293   2.321 -0.2754  0.7437  0.2628
  375MOL0     C49433   0.036   6.132   2.686 -0.8096 -0.3545  0.0259
  375MOL0     C49434   0.176   6.116   2.686  0.3096  0.3516  0.0487
  375MOL0     H49435   0.661   6.102   2.648 -6.3827  2.4687 -0.7865
  375MOL0     H49436   0.857   6.003   2.606 -0.8932 -2.3160 -0.9696
  375MOL0     H49437   1.127   6.040   2.430  1.6972 -1.9268 -1.4840
  375MOL0     H49438   1.031   6.139   2.322  0.3423  0.0797 -1.2611
  375MOL0     H49439   1.158   5.878   2.226  1.5519  0.0840 -0.0744
  375MOL0     H49440   1.245   6.033   2.224 -0.8578  2.9008 -2.7937
  375MOL0     H49441   0.974   5.974   2.075  0.4696 -0.5979 -0.1064
  375MOL0     H49442   1.147   5.986   2.017 -1.4824 -0.4724 -0.9626
  375MOL0     H49443   0.962   6.202   2.113  0.7217 -0.2542  0.0254
  375MOL0     H49444   1.137   6.221   2.097 -0.2855  1.9450  0.5180
  375MOL0     H49445   1.108   6.133   1.858  2.4784  1.1991  0.6884
  375MOL0     H49446   1.022   6.296   1.894 -5.4030 -0.4626  0.2334
  375MOL0     H49447   0.894   6.026   1.895  1.4051  0.1662  0.2617
  375MOL0     H49448   0.895   6.129   1.749 -0.6458  0.9568 -0.2927
  375MOL0     H49449   0.753   6.203   2.001  0.0070  1.8945 -0.6259
  375MOL0     H49450   0.762   6.301   1.859  2.3556 -0.7873 -2.3670
  375MOL0     H49451   0.649   6.009   1.875  0.3594  0.1928  1.8512
  375MOL0     H49452   0.628   6.129   1.742  1.2167 -0.3507 -0.0622
  375MOL0     H49453   0.380   5.973   1.943 -1.9267  2.0459  0.8788
  375MOL0     H49454   0.248   6.067   2.228 -1.7383  3.3516  0.2854
  375MOL0     H49455   0.172   6.013   2.082 -0.2262  0.8082 -2.1321
  375MOL0     H49456   0.141   6.290   2.200 -1.6520  1.8286 -1.5977
  375MOL0     H49457   0.044   6.158   2.231  0.5635  1.4060  0.0111
  375MOL0     H49458   0.075   6.293   1.962  1.6025  0.4073  1.0403
  375MOL0     H49459  -0.022   6.153   1.990  4.5882 -1.3608 -0.7518
  375MOL0     H49460  -0.049   6.386   2.173  3.7710 -3.4224  0.3183
  375MOL0     H49461  -0.176   6.262   2.141 -1.0238 -0.5925 -0.6508
  375MOL0     H49462  -0.302   6.421   1.768 -0.0223 -1.6414  0.1533
  375MOL0     H49463  -0.551   6.463   1.769 -1.5530 -0.2965  0.8560
  375MOL0     H49464  -0.906   6.568   1.672  2.2186  2.4523  3.1108
  375MOL0     H49465  -1.161   6.565   1.636 -0.9424 -0.7508  0.9170
  375MOL0     H49466  -1.357   6.628   2.011 -0.8101 -1.3399  0.7530
  375MOL0     H49467  -1.438   6.474   1.957 -0.5933 -0.8417 -2.1644
  375MOL0     H49468  -1.505   6.742   1.835 -0.6745 -0.7762 -2.0644
  375MOL0     H49469  -1.592   6.687   1.988  0.1217 -1.3920 -0.0325
  375MOL0     H49470  -1.658   6.488   1.868  2.0350  0.1461 -1.6789
  375MOL0     H49471  -1.596   6.557   1.718  0.6420 -0.3295 -0.0144
  375MOL0     H49472  -1.803   6.657   1.912 -2.4089 -1.8207 -0.8308
  375MOL0     H49473  -1.750   6.753   1.767 -0.6626 -0.1144 -0.1820
  375MOL0     H49474  -1.907   6.486   1.783 -2.0327  0.3555 -0.1014
  375MOL0     H49475  -1.854   6.567   1.631  1.3576  2.7223  0.1969
  375MOL0     H49476  -2.009   6.739   1.633 -1.2742 -0.7892 -0.2074
  375MOL0     H49477  -1.999   6.756   1.806  0.4607  0.5082 -1.3314
  375MOL0     H49478  -2.158   6.519   1.680 -0.5721  0.2320  0.2072
  375MOL0     H49479  -2.142   6.560   1.847  4.5854 -1.9258  0.1971
  375MOL0     H49480  -2.248   6.756   1.831  2.8557  1.4177 -1.9473
  375MOL0     H49481  -2.358   6.625   1.755 -1.6937  0.4926 -3.5562
  375MOL0     H49482  -1.215   6.400   2.027 -0.1307  0.0203 -0.9854
  375MOL0     H49483  -0.977   6.361   2.035 -0.0614 -1.8681 -2.0808
  375MOL0     H49484  -0.552   6.478   2.197 -0.1195  1.8688  0.6144
  375MOL0     H49485  -0.285   6.453   2.187  1.3013 -2.1843 -0.8934
  375MOL0     H49486   0.741   6.008   2.190 -3.3321 -1.1184 -0.2038
  375MOL0     H49487   0.537   6.132   2.242  1.1376 -1.0357 -1.9497
  375MOL0     H49488   0.279   6.375   2.497 -2.6339  0.9396 -2.4696
  375MOL0     H49489   0.026   6.412   2.494  1.0651  1.7005  1.3932
  375MOL0     H49490  -0.213   6.189   2.785  1.1906  0.6575  0.4079
  375MOL0     H49491  -0.246   6.085   2.645  1.0884  0.9312 -0.5463
  375MOL0     H49492  -0.443   6.198   2.756  1.5325  0.2990 -0.3984
  375MOL0     H49493  -0.391   6.360   2.711 -2.3698  0.3410  1.1816
  375MOL0     H49494  -0.418   6.177   2.475 -2.2521  0.9729 -2.8191
  375MOL0     H49495  -0.410   6.349   2.489 -1.0313 -0.5846 -2.8142
  375MOL0     H49496  -0.646   6.178   2.591 -1.0738  1.2746  0.0773
  375MOL0     H49497  -0.632   6.356   2.592 -1.8649 -1.3696  1.4779
  375MOL0     H49498  -0.806   6.324   2.239 -0.8116 -4.0896 -1.4613
  375MOL0     H49499  -0.014   6.063   2.754  0.5473 -1.5329 -0.1239
  375MOL0     H49500   0.214   6.040   2.754 -3.1596 -0.6009  1.1226
  376MOL0     O49501   0.193   9.646   3.035 -0.0364 -0.0723 -0.2289
  376MOL0     C49502   0.186   9.558   2.946 -0.0454 -0.0674  0.3993
  376MOL0     O49503   0.072   9.490   2.907 -1.0411 -0.1107 -0.5262
  376MOL0     C49504  -0.058   9.521   2.940 -0.7603 -0.3435  0.3348
  376MOL0     C49505  -0.149   9.413   2.944 -0.1004  0.5468 -0.0647
  376MOL0     C49506  -0.281   9.439   2.995 -0.4021 -0.0055  0.2297
  376MOL0     C49507  -0.312   9.567   3.026 -0.1938 -0.0357  0.9710
  376MOL0     O49508  -0.437   9.591   3.064 -0.0310 -0.2109 -0.0364
  376MOL0     C49509  -0.478   9.612   3.198 -0.7544  0.0088  0.1867
  376MOL0     C49510  -0.605   9.697   3.216 -0.2135  0.2762  0.2635
  376MOL0     C49511  -0.572   9.849   3.207  0.1198 -0.9648 -0.2570
  376MOL0     C49512  -0.689   9.930   3.272 -0.5125  0.3057  0.6485
  376MOL0     C49513  -0.835   9.895   3.223 -0.1894 -0.6184 -0.1518
  376MOL0     C49514  -0.853   9.938   3.074 -0.3405  0.0737 -0.0642
  376MOL0     C49515  -1.002   9.944   3.025 -0.2124 -0.1633  0.3597
  376MOL0     C49516  -1.101  10.041   3.099 -0.2824  0.0331  0.2381
  376MOL0     N49517  -1.060  10.183   3.078 -0.1970  0.3951 -0.3065
  376MOL0     C49518  -1.071  10.255   2.960 -0.3806  0.2674  1.7978
  376MOL0     C49519  -1.006  10.372   2.980  0.9431  0.1336  0.1961
  376MOL0     C49520  -1.014  10.497   2.899 -0.9248  0.6536  1.1574
  376MOL0     C49521  -1.128  10.581   2.955  0.5585 -0.0830  0.7057
  376MOL0     C49522  -1.125  10.736   2.916 -0.0634  0.0256  0.8825
  376MOL0     C49523  -1.249  10.810   2.952 -0.2762 -0.0358 -0.2344
  376MOL0     O49524  -1.374  10.761   2.904 -1.4400 -0.1562 -0.2631
  376MOL0     C49525  -1.477  10.752   2.986 -0.6662 -0.3107 -0.4752
  376MOL0     C49526  -1.463  10.687   3.111  0.4566  0.1027  0.2571
  376MOL0     C49527  -1.579  10.687   3.200 -0.0931 -0.0464 -1.0443
  376MOL0     C49528  -1.702  10.735   3.162  0.6440 -0.5398  1.2914
  376MOL0     C49529  -1.818  10.736   3.254 -0.8733 -0.3222  0.2865
  376MOL0     O49530  -1.924  10.799   3.209  0.3037 -0.5295  0.6619
  376MOL0     C49531  -2.039  10.783   3.277  0.3519 -0.9831 -0.6639
  376MOL0     C49532  -2.063  10.843   3.401 -0.1448 -0.0526 -0.2980
  376MOL0     C49533  -2.187  10.844   3.465 -0.2260  0.2716  0.3116
  376MOL0     C49534  -2.291  10.756   3.419 -0.7523 -0.6756  0.6518
  376MOL0     O49535  -2.415  10.763   3.479  0.6067 -0.4738  0.1893
  376MOL0     C49536  -2.534  10.796   3.395  0.0243  0.1134 -0.5271
  376MOL0     C49537  -2.540  10.950   3.389 -0.0950  0.6310 -0.5835
  376MOL0     C49538  -2.680  11.004   3.375 -0.4052 -0.6561 -0.9834
  376MOL0     C49539  -2.732  10.981   3.234  0.4192 -0.0274  0.0767
  376MOL0     C49540  -2.868  11.047   3.215  0.1299 -0.4727 -0.1981
  376MOL0     C49541  -2.927  10.993   3.094  0.3984  0.0138  0.4755
  376MOL0     C49542  -3.055  11.052   3.056 -0.8413  0.2908 -0.0174
  376MOL0     C49543  -3.101  11.007   2.921  0.2370  0.4580 -0.2186
  376MOL0    Cl49544  -2.987  11.037   2.789 -0.3178 -0.0387  0.0759
  376MOL0     C49545  -2.268  10.701   3.289 -0.7428  0.6041  0.3324
  376MOL0     C49546  -2.150  10.724   3.220  0.6669  0.3803  0.8770
  376MOL0     O49547  -1.807  10.688   3.368 -0.1035  0.2557  1.0999
  376MOL0     C49548  -1.710  10.787   3.033 -0.5822 -0.1592  0.3996
  376MOL0     C49549  -1.600  10.794   2.939 -0.3123 -0.3428  0.7365
  376MOL0     N49550  -0.941  10.360   3.108 -0.5382 -0.1857 -0.1357
  376MOL0     N49551  -0.976  10.250   3.161 -0.2440 -0.5386 -0.2302
  376MOL0     C49552  -0.231   9.673   3.010 -0.4084 -0.6571  0.6493
  376MOL0     C49553  -0.093   9.653   2.975 -0.3424  0.2458  0.1504
  376MOL0     C49554   0.309   9.523   2.876  0.3343 -1.4811  0.7692
  376MOL0     C49555   0.429   9.593   2.916  0.1337  0.1017 -0.9028
  376MOL0     C49556   0.539   9.565   2.848  0.4069 -1.1471 -0.1608
  376MOL0     C49557   0.539   9.493   2.728  0.0710  0.2719  0.1270
  376MOL0     O49558   0.644   9.494   2.633 -0.1198 -0.0478  0.9109
  376MOL0     C49559   0.749   9.593   2.630  0.1016 -0.8857 -0.2993
  376MOL0     C49560   0.811   9.564   2.491 -0.5660  0.4668 -0.7789
  376MOL0     C49561   0.953   9.628   2.484 -0.3199  0.1854  0.8742
  376MOL0     C49562   0.944   9.782   2.448 -0.7561 -0.0585 -0.3109
  376MOL0     C49563   1.068   9.834   2.382 -0.3800 -0.7573  0.1565
  376MOL0     C49564   1.163   9.877   2.312  1.1732  0.1516 -0.7560
  376MOL0     C49565   0.427   9.420   2.693 -0.1080 -0.7602  0.1103
  376MOL0     C49566   0.308   9.435   2.769  0.2254  0.4529  0.1735
  376MOL0     H49567  -0.121   9.310   2.926  0.2734  0.6866 -0.2905
  376MOL0     H49568  -0.343   9.354   3.020  2.2176 -1.0797  3.7429
  376MOL0     H49569  -0.392   9.650   3.254 -0.6818 -1.2810  0.9934
  376MOL0     H49570  -0.493   9.514   3.245 -0.5167 -0.7404 -1.2618
  376MOL0     H49571  -0.620   9.675   3.322  0.7156  1.4344  0.6513
  376MOL0     H49572  -0.687   9.665   3.152  2.3439 -2.1010 -2.0927
  376MOL0     H49573  -0.549   9.890   3.108  0.3546 -1.8638 -0.5815
  376MOL0     H49574  -0.482   9.856   3.269 -0.1478 -0.5607  0.0966
  376MOL0     H49575  -0.687   9.896   3.376 -1.0025 -1.3759  0.1406
  376MOL0     H49576  -0.670  10.037   3.277  4.1011 -0.3518  2.0230
  376MOL0     H49577  -0.908   9.934   3.294  1.0962  0.5555  0.5678
  376MOL0     H49578  -0.837   9.786   3.234  1.0671 -0.6274  0.2060
  376MOL0     H49579  -0.794   9.864   3.018  0.3457  0.8994 -0.4686
  376MOL0     H49580  -0.805  10.034   3.053  1.9026 -1.7079 -4.4800
  376MOL0     H49581  -1.011   9.963   2.918  1.5447 -0.5315  0.1168
  376MOL0     H49582  -1.047   9.846   3.040  1.0630 -0.6591  1.1572
  376MOL0     H49583  -1.107  10.030   3.207 -1.8283  0.3269  0.2043
  376MOL0     H49584  -1.202  10.018   3.064 -0.1107 -0.9212  0.3448
  376MOL0     H49585  -1.143  10.226   2.884  0.5273  1.0333  0.6002
  376MOL0     H49586  -1.038  10.479   2.794  1.0607  0.4895  0.6956
  376MOL0     H49587  -0.912  10.533   2.917  0.3921 -2.1204 -0.1126
  376MOL0     H49588  -1.138  10.576   3.063  0.9687 -4.1490  0.7144
  376MOL0     H49589  -1.218  10.530   2.918 -1.5275  3.5433  0.3481
  376MOL0     H49590  -1.037  10.786   2.957 -1.6470  2.2674  1.7689
  376MOL0     H49591  -1.110  10.747   2.808  1.7842 -2.1582  0.8582
  376MOL0     H49592  -1.235  10.910   2.912  1.4367 -0.1798 -0.0904
  376MOL0     H49593  -1.258  10.816   3.061 -1.1214 -0.7597 -0.2503
  376MOL0     H49594  -1.366  10.643   3.133  1.4612  0.8994 -2.2212
  376MOL0     H49595  -1.580  10.650   3.302 -2.2686  1.8327 -0.2726
  376MOL0     H49596  -1.984  10.892   3.457  1.0905 -0.4080 -1.6535
  376MOL0     H49597  -2.191  10.898   3.559  1.6718  3.4367 -1.2583
  376MOL0     H49598  -2.618  10.750   3.448  2.4190 -2.5960  1.1705
  376MOL0     H49599  -2.553  10.758   3.295 -2.5223 -0.3400  0.0526
  376MOL0     H49600  -2.469  10.985   3.313  2.5708 -0.8088  1.0884
  376MOL0     H49601  -2.502  10.979   3.487 -1.2292  3.2562 -0.8389
  376MOL0     H49602  -2.683  11.112   3.395  1.7097 -1.2252  3.3966
  376MOL0     H49603  -2.751  10.975   3.452  1.9211  1.4331  2.2008
  376MOL0     H49604  -2.672  11.035   3.159 -1.9335  2.4687 -0.1534
  376MOL0     H49605  -2.724  10.876   3.205 -2.4691 -0.8871  1.9676
  376MOL0     H49606  -2.860  11.156   3.205 -0.0661 -0.6793 -6.0094
  376MOL0     H49607  -2.934  11.021   3.297  1.3820 -0.8505  0.7124
  376MOL0     H49608  -2.952  10.887   3.104 -2.3477  0.6749  1.3340
  376MOL0     H49609  -2.865  11.001   3.004 -1.7925 -1.8208 -1.3257
  376MOL0     H49610  -3.126  11.033   3.137  1.8980 -2.3827  1.9662
  376MOL0     H49611  -3.043  11.161   3.055 -2.8781  0.5519 -1.1815
  376MOL0     H49612  -3.194  11.058   2.895  0.8002 -0.0776 -3.8351
  376MOL0     H49613  -3.118  10.899   2.919 -0.8285  0.6194 -1.6627
  376MOL0     H49614  -2.338  10.634   3.240  0.7178 -1.5061  1.0004
  376MOL0     H49615  -2.136  10.688   3.118  3.6460  0.2931  1.2125
  376MOL0     H49616  -1.806  10.818   2.995 -0.8409 -3.0979 -1.6939
  376MOL0     H49617  -1.605  10.837   2.839  1.9753  2.8464  1.8268
  376MOL0     H49618  -0.278   9.768   3.032 -1.0159 -0.3886 -1.5469
  376MOL0     H49619  -0.034   9.740   2.950  1.3905 -1.2987 -1.4068
  376MOL0     H49620   0.448   9.663   2.997 -1.4664 -1.2742  0.7461
  376MOL0     H49621   0.626   9.622   2.880 -1.4469  0.9854  1.3194
  376MOL0     H49622   0.821   9.587   2.712  0.3876 -2.2835 -0.6166
  376MOL0     H49623   0.718   9.697   2.618  3.4316  0.2712  0.1599
  376MOL0     H49624   0.838   9.458   2.485  0.8434  0.8056 -0.7711
  376MOL0     H49625   0.734   9.587   2.416 -1.0366 -0.0464 -0.4615
  376MOL0     H49626   1.008   9.576   2.405 -1.0203  0.5980  0.0878
  376MOL0     H49627   1.006   9.607   2.577  2.0820 -0.5987 -0.5919
  376MOL0     H49628   0.861   9.810   2.382 -1.3871 -0.4625  0.3064
  376MOL0     H49629   0.920   9.837   2.539 -1.1347  2.2311 -1.7027
  376MOL0     H49630   1.244   9.911   2.250  1.4792 -1.7780 -1.4832
  376MOL0     H49631   0.423   9.365   2.600 -1.5748  3.4555 -2.6179
  376MOL0     H49632   0.210   9.397   2.744  0.4719  0.6876 -1.2258
  377MOL0     O49633   1.676   4.586   1.693  0.5684  0.6109 -0.4341
  377MOL0     C49634   1.743   4.601   1.789 -0.5091  0.1338 -0.7583
  377MOL0     O49635   1.689   4.608   1.919  0.1587  0.5203  0.7359
  377MOL0     C49636   1.548   4.628   1.923 -0.1758 -0.4065 -0.4497
  377MOL0     C49637   1.488   4.741   1.852  0.8726 -0.2685 -0.0448
  377MOL0     C49638   1.353   4.771   1.878  0.5934 -0.0597  0.8782
  377MOL0     C49639   1.280   4.704   1.975  0.0605  0.5948 -0.2887
  377MOL0     O49640   1.149   4.746   1.994 -0.0896  0.5298  0.2750
  377MOL0     C49641   1.050   4.649   1.950  0.7340  0.9883 -0.2875
  377MOL0     C49642   1.024   4.654   1.797 -0.3599  0.3460 -0.3479
  377MOL0     C49643   0.915   4.552   1.780 -0.2700 -0.4134  0.5423
  377MOL0     C49644   0.871   4.542   1.628  0.0678  0.2306 -0.0570
  377MOL0     C49645   0.756   4.434   1.618  0.1842 -0.7757 -0.4843
  377MOL0     C49646   0.682   4.435   1.490  0.3443  0.5420  0.6758
  377MOL0     C49647   0.552   4.354   1.484 -0.5964  0.3302 -0.2692
  377MOL0     C49648   0.471   4.374   1.362  0.4794  0.3526  0.8499
  377MOL0     N49649   0.353   4.282   1.349 -0.8098  0.6652 -0.0532
  377MOL0     C49650   0.278   4.248   1.234 -0.7384  0.4699  0.6703
  377MOL0     C49651   0.150   4.203   1.273 -0.6932  0.3034 -0.1390
  377MOL0     C49652   0.050   4.171   1.169  0.3503 -0.8067  0.6518
  377MOL0     C49653  -0.051   4.068   1.226  0.3121 -0.0037 -0.5126
  377MOL0     C49654  -0.142   4.002   1.121 -1.3415 -0.2595  0.3040
  377MOL0     C49655  -0.198   3.874   1.169 -0.4935 -0.8307 -0.3773
  377MOL0     O49656  -0.298   3.811   1.088 -1.0145  0.0215 -0.5528
  377MOL0     C49657  -0.428   3.846   1.095  0.7710  0.1486  0.2031
  377MOL0     C49658  -0.515   3.760   1.025 -0.2134 -0.7903  0.5685
  377MOL0     C49659  -0.643   3.794   0.995 -0.1047  1.0530 -1.0458
  377MOL0     C49660  -0.703   3.892   1.081 -0.6510  0.4234  0.0750
  377MOL0     C49661  -0.841   3.929   1.071 -0.0159  1.0946 -0.7762
  377MOL0     O49662  -0.918   3.839   1.002  0.1499  0.2961 -0.4316
  377MOL0     C49663  -1.055   3.851   0.977  0.0632 -0.3328  0.4429
  377MOL0     C49664  -1.103   3.789   0.860  0.5967  0.3312 -0.9416
  377MOL0     C49665  -1.244   3.788   0.838 -0.5981  1.1380 -0.7636
  377MOL0     C49666  -1.328   3.867   0.921  0.1265  0.5421 -0.1438
  377MOL0     O49667  -1.468   3.874   0.938  0.0444  0.2221  0.5314
  377MOL0     C49668  -1.541   3.859   0.813 -0.8327 -0.4515 -0.0700
  377MOL0     C49669  -1.684   3.864   0.852  1.1169  0.5201 -0.0886
  377MOL0     C49670  -1.774   3.871   0.721  0.9095  0.5332 -0.8592
  377MOL0     C49671  -1.930   3.896   0.758 -0.6380 -0.2739  0.5389
  377MOL0     C49672  -2.035   3.929   0.646  0.0922  0.8327  0.1184
  377MOL0     C49673  -2.008   4.053   0.555 -0.0431  0.0661  0.5260
  377MOL0     C49674  -2.015   4.183   0.637 -0.6456 -0.0921 -0.5037
  377MOL0     C49675  -1.965   4.298   0.540 -0.4923  0.4400  0.1189
  377MOL0    Cl49676  -2.108   4.354   0.448 -0.2607 -0.0786 -0.4871
  377MOL0     C49677  -1.274   3.942   1.022  0.3082  0.7970  1.0260
  377MOL0     C49678  -1.142   3.933   1.053  0.8353 -0.6419 -0.0015
  377MOL0     O49679  -0.882   4.039   1.113 -0.0716 -0.1577  0.7446
  377MOL0     C49680  -0.624   3.977   1.166  0.0371 -0.1841 -0.0261
  377MOL0     C49681  -0.485   3.963   1.157  0.0847 -0.1370 -0.7179
  377MOL0     N49682   0.152   4.203   1.414 -0.8537 -0.2896  0.8253
  377MOL0     N49683   0.262   4.255   1.453  0.3949 -0.1686 -1.0735
  377MOL0     C49684   1.338   4.601   2.053  0.0706 -0.2962  0.1844
  377MOL0     C49685   1.474   4.566   2.028  0.3984 -0.0448  0.1967
  377MOL0     C49686   1.885   4.623   1.763 -0.9033  0.1915  0.0838
  377MOL0     C49687   1.936   4.682   1.651 -0.3883  1.2977  0.7124
  377MOL0     C49688   2.079   4.701   1.638  1.0119  0.1204 -0.1766
  377MOL0     C49689   2.172   4.666   1.738 -0.3455  0.2053  0.0699
  377MOL0     O49690   2.309   4.664   1.714  0.0563  0.4922  0.2954
  377MOL0     C49691   2.380   4.622   1.831  0.3266  0.8135  0.2661
  377MOL0     C49692   2.522   4.595   1.793  0.3152 -0.0964  0.1545
  377MOL0     C49693   2.583   4.505   1.905 -0.5289 -0.1341  0.6078
  377MOL0     C49694   2.668   4.575   2.009  0.2349  0.0857  0.2780
  377MOL0     C49695   2.601   4.664   2.105 -0.4785  0.2560  0.4676
  377MOL0     C49696   2.556   4.739   2.189  0.3490 -0.0600 -0.7900
  377MOL0     C49697   2.113   4.636   1.869  0.0047  0.0901 -0.4455
  377MOL0     C49698   1.970   4.620   1.876 -0.3447  0.7626 -0.3152
  377MOL0     H49699   1.547   4.803   1.786  1.5519 -1.5112 -0.6374
  377MOL0     H49700   1.299   4.847   1.822 -0.4425 -0.2489  1.5922
  377MOL0     H49701   0.963   4.678   2.009 -0.7430 -0.4028 -1.6619
  377MOL0     H49702   1.074   4.549   1.986 -0.1120  1.5097  1.8896
  377MOL0     H49703   1.115   4.627   1.743 -2.0630 -0.6831 -2.8628
  377MOL0     H49704   1.001   4.750   1.750  1.4236 -1.5233 -5.7502
  377MOL0     H49705   0.830   4.572   1.845  0.1227 -2.4774  1.7894
  377MOL0     H49706   0.959   4.454   1.802 -1.1448 -1.7644 -2.9104
  377MOL0     H49707   0.851   4.634   1.572 -3.3911 -1.1146 -1.3288
  377MOL0     H49708   0.957   4.500   1.576  0.3827 -1.4323  1.6939
  377MOL0     H49709   0.687   4.462   1.698  1.9607 -0.0514  0.8633
  377MOL0     H49710   0.790   4.341   1.663  0.5388  0.6995  2.5858
  377MOL0     H49711   0.742   4.393   1.409  1.5696  2.5243  0.4995
  377MOL0     H49712   0.660   4.538   1.462 -0.5516  0.6485  1.6870
  377MOL0     H49713   0.566   4.247   1.498 -2.2706  0.1012 -0.1642
  377MOL0     H49714   0.498   4.397   1.569  0.7429  0.1893  0.6816
  377MOL0     H49715   0.532   4.337   1.278 -1.5098 -3.1866  0.7642
  377MOL0     H49716   0.442   4.475   1.332 -0.7211 -0.4475 -0.8689
  377MOL0     H49717   0.316   4.255   1.132 -0.3983 -2.2681  0.5104
  377MOL0     H49718   0.089   4.121   1.080 -1.7382 -0.3979 -0.5593
  377MOL0     H49719  -0.006   4.260   1.142  2.4362  0.6943  0.9878
  377MOL0     H49720  -0.118   4.116   1.297 -0.1365 -0.7429 -0.4186
  377MOL0     H49721   0.005   3.989   1.277  1.4554  0.1320 -1.5060
  377MOL0     H49722  -0.215   4.076   1.087  1.4146  2.5146  0.0527
  377MOL0     H49723  -0.070   3.983   1.041 -1.4814  1.1329 -0.1620
  377MOL0     H49724  -0.223   3.879   1.275  0.8287  1.6120 -0.1123
  377MOL0     H49725  -0.121   3.796   1.162  0.8157  0.4440 -0.7430
  377MOL0     H49726  -0.472   3.680   0.966 -0.0557 -1.6003  1.7579
  377MOL0     H49727  -0.703   3.740   0.922 -1.0972  0.3780  0.2339
  377MOL0     H49728  -1.036   3.737   0.793 -0.4772 -0.5672 -1.3507
  377MOL0     H49729  -1.285   3.719   0.764  0.7342 -1.2502  0.5864
  377MOL0     H49730  -1.509   3.767   0.764  2.9076  0.8185 -0.3322
  377MOL0     H49731  -1.526   3.946   0.749  0.1598 -0.0735  0.6556
  377MOL0     H49732  -1.694   3.953   0.915 -0.6277  1.2956 -1.3831
  377MOL0     H49733  -1.716   3.776   0.907 -0.8354 -0.8159 -3.1023
  377MOL0     H49734  -1.776   3.770   0.680 -1.8458  0.5883 -1.0763
  377MOL0     H49735  -1.732   3.934   0.642  4.6829 -1.0492 -0.3277
  377MOL0     H49736  -1.961   3.818   0.828  0.2449 -1.0830  0.0443
  377MOL0     H49737  -1.945   3.984   0.822  1.6792 -0.8745  2.0416
  377MOL0     H49738  -2.139   3.934   0.680  0.3775 -0.5250  1.2719
  377MOL0     H49739  -2.038   3.843   0.579  1.8290  0.3705  0.5858
  377MOL0     H49740  -2.068   4.050   0.463  2.1021  1.0321 -0.9978
  377MOL0     H49741  -1.906   4.027   0.525  0.4315 -1.1501  2.9736
  377MOL0     H49742  -2.113   4.210   0.677 -1.2966 -0.4011 -1.8196
  377MOL0     H49743  -1.942   4.172   0.717  0.5347  1.3837 -1.3242
  377MOL0     H49744  -1.892   4.261   0.467 -2.8058  0.0918 -2.1834
  377MOL0     H49745  -1.917   4.376   0.601  0.4440 -2.7318  3.8568
  377MOL0     H49746  -1.336   3.993   1.096 -0.5417 -2.1776  2.5015
  377MOL0     H49747  -1.113   3.995   1.137  1.3476 -0.4568 -0.3066
  377MOL0     H49748  -0.656   4.067   1.217  1.5008  0.2297  0.2038
  377MOL0     H49749  -0.423   4.038   1.205  1.8365 -1.0476 -1.4738
  377MOL0     H49750   1.268   4.567   2.128  1.4466 -1.7440  0.8580
  377MOL0     H49751   1.511   4.474   2.072 -1.3658 -0.4166  1.0056
  377MOL0     H49752   1.880   4.709   1.563  2.3760  3.1353 -0.6105
  377MOL0     H49753   2.123   4.730   1.544 -2.0367  3.8048 -0.6729
  377MOL0     H49754   2.345   4.533   1.884  3.2215  0.2100  1.3704
  377MOL0     H49755   2.372   4.706   1.901  1.4467  1.6343 -0.5547
  377MOL0     H49756   2.512   4.543   1.697 -0.2354  1.1564 -0.4945
  377MOL0     H49757   2.578   4.687   1.777 -0.2501  0.2169 -0.0653
  377MOL0     H49758   2.645   4.441   1.842 -1.3800  0.5054 -0.9546
  377MOL0     H49759   2.516   4.441   1.963  0.3893 -2.8984 -1.1789
  377MOL0     H49760   2.722   4.501   2.070  2.8245 -0.5602 -2.5507
  377MOL0     H49761   2.746   4.627   1.954 -1.1638  1.5065 -0.4296
  377MOL0     H49762   2.508   4.797   2.265 -0.8781 -1.6275 -0.3202
  377MOL0     H49763   2.169   4.647   1.961 -0.5676  2.0915 -0.2892
  377MOL0     H49764   1.937   4.604   1.978 -0.9356  1.5006 -0.3844
  378MOL0     O49765   8.128   1.139   0.557 -0.2868  0.6263  0.0221
  378MOL0     C49766   8.219   1.174   0.631 -0.9530  0.1428  0.2227
  378MOL0     O49767   8.209   1.274   0.722 -0.1694  0.1224 -0.1182
  378MOL0     C49768   8.101   1.352   0.742 -0.6112  0.2441 -0.1057
  378MOL0     C49769   8.014   1.392   0.638 -0.6233 -0.6968  0.4370
  378MOL0     C49770   7.906   1.477   0.655  0.2924 -0.3772 -0.3176
  378MOL0     C49771   7.870   1.517   0.784  0.0566 -1.0989 -0.2148
  378MOL0     O49772   7.756   1.600   0.796 -0.6215 -0.8904 -0.0973
  378MOL0     C49773   7.750   1.675   0.926 -0.6114 -0.2450 -0.5312
  378MOL0     C49774   7.676   1.601   1.040 -0.8134 -0.8337  0.7586
  378MOL0     C49775   7.536   1.557   1.012  0.0254 -0.5115  0.2421
  378MOL0     C49776   7.517   1.432   0.930  0.4253  0.1545 -0.2568
  378MOL0     C49777   7.373   1.405   0.888 -0.0368 -0.4988  0.7659
  378MOL0     C49778   7.278   1.362   0.990 -0.3262  0.8202 -0.6801
  378MOL0     C49779   7.314   1.230   1.058  0.0405 -0.0406 -0.7421
  378MOL0     C49780   7.206   1.171   1.155 -0.2745 -0.0329  0.2396
  378MOL0     N49781   7.122   1.072   1.086 -0.8085 -0.2152  0.2259
  378MOL0     C49782   6.989   1.102   1.056  0.1293  0.8596 -0.3092
  378MOL0     C49783   6.946   0.988   0.995  0.9199 -0.4227 -0.2347
  378MOL0     C49784   6.800   0.968   0.953  1.6656  0.0957  0.3197
  378MOL0     C49785   6.703   1.092   0.952  0.6683  0.4119  0.5308
  378MOL0     C49786   6.571   1.047   0.900  0.7949 -0.0821  0.0445
  378MOL0     C49787   6.503   1.173   0.843  0.4631  0.5129  0.3701
  378MOL0     O49788   6.385   1.143   0.761 -0.0575  0.2712  0.6752
  378MOL0     C49789   6.264   1.094   0.812  0.3063 -0.1041 -0.6373
  378MOL0     C49790   6.163   1.040   0.727 -0.3150 -0.5552 -0.4216
  378MOL0     C49791   6.039   1.007   0.780 -0.5362  0.8550  0.4346
  378MOL0     C49792   6.011   1.014   0.926 -0.0970  1.0681 -0.0134
  378MOL0     C49793   5.872   0.979   0.975  0.9475 -0.2655  0.4391
  378MOL0     O49794   5.846   0.955   1.112  0.0202 -0.0155  0.1806
  378MOL0     C49795   5.729   0.909   1.162  0.1864  1.1906 -0.2792
  378MOL0     C49796   5.737   0.841   1.290 -0.0011  0.1897  0.5044
  378MOL0     C49797   5.615   0.797   1.353  0.1439 -0.6722 -0.0501
  378MOL0     C49798   5.485   0.831   1.293 -0.4527  0.0980  0.4356
  378MOL0     O49799   5.373   0.798   1.365  0.0600  0.4906  0.0996
  378MOL0     C49800   5.241   0.815   1.315  0.5047 -0.3165  0.8106
  378MOL0     C49801   5.138   0.810   1.423  0.8035 -0.5189 -0.0884
  378MOL0     C49802   5.169   0.906   1.543 -0.9057 -0.8003 -0.6168
  378MOL0     C49803   5.053   0.892   1.631 -1.4370  0.6025  0.7723
  378MOL0     C49804   5.083   0.946   1.774  1.7410  0.4486 -0.1917
  378MOL0     C49805   4.951   0.999   1.836 -0.5191 -0.6661 -0.4201
  378MOL0     C49806   4.977   1.093   1.951  0.3435 -0.7455 -0.2975
  378MOL0     C49807   4.867   1.206   1.966  0.1462 -0.0674 -0.8503
  378MOL0    Cl49808   4.859   1.298   1.813  0.4961  0.5253  0.1051
  378MOL0     C49809   5.482   0.886   1.168 -0.4141  0.1367  0.1174
  378MOL0     C49810   5.605   0.936   1.109  0.1627  0.4143 -0.0760
  378MOL0     O49811   5.785   0.996   0.893  0.0008  0.3578 -0.2545
  378MOL0     C49812   6.112   1.052   1.010  0.1833  0.2741  0.6127
  378MOL0     C49813   6.232   1.095   0.954 -0.4648  0.1412  0.0904
  378MOL0     N49814   7.051   0.892   0.988  0.5763 -0.0446  0.1477
  378MOL0     N49815   7.157   0.951   1.033  1.1474  0.0350  0.1740
  378MOL0     C49816   7.950   1.479   0.898 -0.4489 -0.1547  0.4333
  378MOL0     C49817   8.074   1.399   0.874  0.9134 -0.0541 -0.3161
  378MOL0     C49818   8.352   1.111   0.608 -0.2336 -0.8851  0.6743
  378MOL0     C49819   8.359   0.991   0.535 -0.0639  0.4057 -0.0811
  378MOL0     C49820   8.481   0.933   0.511  0.0329  0.8843 -0.1795
  378MOL0     C49821   8.600   0.983   0.566 -0.5987  1.0020 -0.9846
  378MOL0     O49822   8.705   0.894   0.555  0.5396  1.2483 -0.1100
  378MOL0     C49823   8.833   0.947   0.592  0.7689 -0.3205  0.4383
  378MOL0     C49824   8.935   0.826   0.585 -0.2602 -0.3260 -0.8163
  378MOL0     C49825   8.936   0.750   0.445  0.1653 -0.7122 -0.2909
  378MOL0     C49826   9.075   0.687   0.404  0.3153 -0.1829  0.5421
  378MOL0     C49827   9.092   0.562   0.471 -0.7829  0.1542 -0.3493
  378MOL0     C49828   9.097   0.460   0.536  0.0650 -0.8496  0.1234
  378MOL0     C49829   8.593   1.106   0.630 -0.1979 -0.3369 -0.4056
  378MOL0     C49830   8.471   1.175   0.647 -1.1348  0.9222 -0.1682
  378MOL0     H49831   8.047   1.370   0.536  0.1873  1.1379  0.2568
  378MOL0     H49832   7.849   1.511   0.569 -0.0482 -2.0216 -0.7601
  378MOL0     H49833   7.690   1.765   0.907  1.4522  0.9677 -1.6622
  378MOL0     H49834   7.848   1.710   0.959 -0.6926  0.6447 -1.2126
  378MOL0     H49835   7.678   1.649   1.138 -0.2587 -0.7738  0.7194
  378MOL0     H49836   7.738   1.513   1.061  3.8573  1.4479 -1.8522
  378MOL0     H49837   7.498   1.640   0.951  0.0467  0.5619  1.6404
  378MOL0     H49838   7.473   1.542   1.100  0.1612  0.0310  0.4331
  378MOL0     H49839   7.566   1.451   0.834  0.5775  2.6158  0.2397
  378MOL0     H49840   7.568   1.346   0.974  1.8377  1.2632  0.3250
  378MOL0     H49841   7.355   1.346   0.797  0.1904  2.1272 -1.1042
  378MOL0     H49842   7.337   1.503   0.856 -0.8569 -0.4875  1.6782
  378MOL0     H49843   7.183   1.345   0.939 -0.6354  0.4771 -0.0114
  378MOL0     H49844   7.261   1.440   1.065 -0.9281 -0.8531  1.0148
  378MOL0     H49845   7.351   1.153   0.989  0.9221 -0.1374 -0.1696
  378MOL0     H49846   7.399   1.248   1.124 -0.1554  3.5044 -1.2337
  378MOL0     H49847   7.146   1.253   1.196 -1.4166 -0.4341 -0.5780
  378MOL0     H49848   7.252   1.126   1.244 -1.7108  3.2992  2.8864
  378MOL0     H49849   6.921   1.184   1.076 -0.4971 -0.5120  4.6391
  378MOL0     H49850   6.751   0.894   1.018  0.6168  1.7867  1.5635
  378MOL0     H49851   6.803   0.924   0.853  0.2516 -0.1951  0.3809
  378MOL0     H49852   6.746   1.171   0.890  0.7058  0.5120  0.6833
  378MOL0     H49853   6.692   1.128   1.055  1.3930 -1.3775  1.2852
  378MOL0     H49854   6.576   0.976   0.816 -1.3782  1.3831 -1.4212
  378MOL0     H49855   6.504   0.996   0.971  2.8089 -1.3645  1.1367
  378MOL0     H49856   6.583   1.214   0.781  0.2921  0.5333  0.1608
  378MOL0     H49857   6.487   1.255   0.914 -0.6330 -0.1335  0.9011
  378MOL0     H49858   6.180   1.024   0.621  0.6741 -0.7703 -0.2416
  378MOL0     H49859   5.959   0.968   0.717  0.8092  0.7136 -1.2599
  378MOL0     H49860   5.838   0.817   1.320  0.8996  2.0794 -0.8117
  378MOL0     H49861   5.608   0.741   1.446 -2.1452 -1.7293 -0.7956
  378MOL0     H49862   5.209   0.737   1.245 -2.9026  0.3247  1.4419
  378MOL0     H49863   5.228   0.917   1.277 -0.3859 -1.0287 -0.9049
  378MOL0     H49864   5.142   0.706   1.459  0.7916 -1.0981 -1.6885
  378MOL0     H49865   5.037   0.839   1.394  2.3275  2.6916 -2.8490
  378MOL0     H49866   5.184   1.009   1.508 -0.8234 -0.7900 -0.5526
  378MOL0     H49867   5.259   0.882   1.601 -1.3056  0.0373  0.3847
  378MOL0     H49868   4.976   0.950   1.580 -0.0326 -0.3893 -2.7889
  378MOL0     H49869   5.019   0.788   1.642 -1.2279 -0.0699 -3.4208
  378MOL0     H49870   5.156   1.028   1.772  2.1272  0.1405 -2.7608
  378MOL0     H49871   5.122   0.865   1.836 -3.3027 -2.5245 -0.4002
  378MOL0     H49872   4.895   0.915   1.878  0.6538 -1.4007 -0.3021
  378MOL0     H49873   4.890   1.052   1.761 -1.4052  0.6093  1.1316
  378MOL0     H49874   4.994   1.034   2.042  1.0339 -0.7957 -0.4599
  378MOL0     H49875   5.068   1.151   1.938 -1.1589  2.0520  0.6871
  378MOL0     H49876   4.894   1.275   2.047 -1.0120 -0.0113 -0.4897
  378MOL0     H49877   4.774   1.150   1.983  0.2280  0.2217  0.7371
  378MOL0     H49878   5.384   0.905   1.126 -0.5378  0.3585  0.5026
  378MOL0     H49879   5.586   1.005   1.027  1.3926  1.6652  0.6604
  378MOL0     H49880   6.082   1.075   1.112  0.9351  1.4774  0.5731
  378MOL0     H49881   6.307   1.151   1.009 -0.2624  1.2730 -1.2714
  378MOL0     H49882   7.932   1.509   1.000 -0.7255  2.4033 -0.3015
  378MOL0     H49883   8.145   1.368   0.950 -0.8611  0.0286  1.4772
  378MOL0     H49884   8.268   0.935   0.515  0.4887 -0.0208 -1.5725
  378MOL0     H49885   8.488   0.835   0.465 -4.1216 -1.9884  4.3333
  378MOL0     H49886   8.835   0.992   0.692 -1.6173 -0.9071  0.7975
  378MOL0     H49887   8.860   1.020   0.515 -3.2800  0.5917 -0.3457
  378MOL0     H49888   9.033   0.875   0.591 -1.2053  1.7230 -1.1641
  378MOL0     H49889   8.911   0.755   0.664 -4.6620  1.5377 -0.1596
  378MOL0     H49890   8.915   0.813   0.358 -1.2604 -3.0008 -1.7322
  378MOL0     H49891   8.867   0.665   0.451 -0.6648  0.0334  1.2976
  378MOL0     H49892   9.072   0.669   0.296  1.7437 -0.1052  0.4707
  378MOL0     H49893   9.159   0.743   0.445 -0.0003 -1.5537  3.2963
  378MOL0     H49894   9.081   0.377   0.602 -1.4774  0.0401  0.9240
  378MOL0     H49895   8.686   1.146   0.668  0.2239 -2.0418  0.4242
  378MOL0     H49896   8.455   1.265   0.707 -2.4486 -0.3501  1.5064
  379MOL0     O49897   6.934   8.006   3.281 -0.4970 -0.3788 -0.6135
  379MOL0     C49898   7.004   7.923   3.343 -0.3115  0.3991 -0.5302
  379MOL0     O49899   7.030   7.938   3.477 -0.9343 -0.1480 -0.1412
  379MOL0     C49900   6.962   8.028   3.555 -0.1347 -0.0155 -0.1703
  379MOL0     C49901   6.822   8.034   3.572 -0.5375  0.2539  0.9682
  379MOL0     C49902   6.753   8.152   3.622 -0.3509  0.1588 -0.0191
  379MOL0     C49903   6.834   8.254   3.690  0.1017  0.1336 -0.4121
  379MOL0     O49904   6.778   8.375   3.736 -0.2069  0.3496  0.5615
  379MOL0     C49905   6.647   8.371   3.789 -0.2439  0.1313 -0.7718
  379MOL0     C49906   6.657   8.492   3.883 -0.6721  0.0617 -0.2874
  379MOL0     C49907   6.540   8.508   3.977  0.5511 -0.4549 -0.3029
  379MOL0     C49908   6.430   8.602   3.912  0.4669 -0.2976 -0.0087
  379MOL0     C49909   6.327   8.639   4.019  0.6654 -0.6415  0.0452
  379MOL0     C49910   6.223   8.717   3.939  0.9699  0.4146  0.1074
  379MOL0     C49911   6.126   8.788   4.025  0.5699 -0.4134  0.1651
  379MOL0     C49912   6.027   8.870   3.937  0.2512  0.4800 -0.7844
  379MOL0     N49913   5.909   8.912   4.011 -0.3850 -0.0967 -0.0051
  379MOL0     C49914   5.913   8.994   4.117 -0.1535  0.5950  0.3801
  379MOL0     C49915   5.790   8.986   4.156  0.5556  0.1452 -0.4719
  379MOL0     C49916   5.746   9.044   4.291 -0.7962  0.1770  0.0689
  379MOL0     C49917   5.643   9.156   4.274  0.6774  0.8756  1.0224
  379MOL0     C49918   5.586   9.212   4.410 -0.7512  0.5027  0.6348
  379MOL0     C49919   5.480   9.313   4.365  0.0895 -0.6438 -0.3624
  379MOL0     O49920   5.418   9.345   4.497 -0.3396 -0.9266  0.1611
  379MOL0     C49921   5.305   9.278   4.522  0.4419 -0.6560  0.6373
  379MOL0     C49922   5.302   9.161   4.597  0.2064 -0.7607  0.4374
  379MOL0     C49923   5.180   9.117   4.634 -0.3507  0.5144 -0.3672
  379MOL0     C49924   5.061   9.185   4.613  0.4005  0.6842 -1.2484
  379MOL0     C49925   4.924   9.122   4.644 -0.6169 -0.2937  0.4150
  379MOL0     O49926   4.920   9.036   4.745 -0.1132  0.0139 -0.1906
  379MOL0     C49927   4.793   8.994   4.781 -1.1003 -0.0598  1.4286
  379MOL0     C49928   4.750   8.884   4.726  0.5859  0.2495 -0.2377
  379MOL0     C49929   4.636   8.824   4.784  0.2665  0.8477 -0.2072
  379MOL0     C49930   4.568   8.878   4.902  0.1903 -0.3883  1.1046
  379MOL0     O49931   4.461   8.807   4.956 -0.0149  0.2254 -0.1604
  379MOL0     C49932   4.424   8.824   5.099  0.1283 -0.8705 -0.3335
  379MOL0     C49933   4.333   8.946   5.106  0.9723 -0.9399 -0.3989
  379MOL0     C49934   4.186   8.922   5.118  0.7526  0.8499 -0.3821
  379MOL0     C49935   4.105   9.051   5.101  0.1083  0.6816  0.2133
  379MOL0     C49936   3.960   9.020   5.091  0.8066 -0.3270 -0.4427
  379MOL0     C49937   3.898   9.039   5.233 -0.3976 -0.3894  0.0977
  379MOL0     C49938   3.744   9.033   5.236  0.4029  0.5557  0.1363
  379MOL0     C49939   3.702   9.064   5.376  0.4822  0.4697  0.2253
  379MOL0    Cl49940   3.743   9.230   5.401  0.0788 -0.2178  0.4072
  379MOL0     C49941   4.615   8.997   4.950 -0.3914  0.6023  0.1037
  379MOL0     C49942   4.726   9.058   4.891  1.0124  0.2003  0.2971
  379MOL0     O49943   4.827   9.147   4.567  0.2968  0.1970  0.7957
  379MOL0     C49944   5.069   9.293   4.530 -0.1696 -0.3888  0.3004
  379MOL0     C49945   5.188   9.334   4.479 -0.6106  0.1321 -0.7012
  379MOL0     N49946   5.701   8.923   4.076  0.0498  0.6829 -0.2192
  379MOL0     N49947   5.778   8.865   3.992  0.4678  1.0539  0.2863
  379MOL0     C49948   6.972   8.241   3.677  0.7829 -0.1839  0.1465
  379MOL0     C49949   7.034   8.137   3.609 -0.1159  0.8168 -0.2622
  379MOL0     C49950   7.061   7.802   3.280  0.8111 -0.5537 -0.1988
  379MOL0     C49951   7.117   7.687   3.347  0.2079 -1.2561  0.3172
  379MOL0     C49952   7.157   7.584   3.272  0.0495 -0.5914 -0.4188
  379MOL0     C49953   7.158   7.586   3.128 -1.0460 -0.4486 -0.1625
  379MOL0     O49954   7.195   7.481   3.044  0.8499 -0.2527 -0.3510
  379MOL0     C49955   7.164   7.349   3.094 -0.2605 -1.1905  0.7060
  379MOL0     C49956   7.292   7.273   3.078 -1.0292 -0.2165 -0.9088
  379MOL0     C49957   7.406   7.349   3.143  0.2818  0.5796  0.5040
  379MOL0     C49958   7.525   7.266   3.158 -0.2116 -0.6708  0.2655
  379MOL0     C49959   7.646   7.334   3.206 -0.1029  0.2657  0.2083
  379MOL0     C49960   7.753   7.373   3.245  0.2043  0.3747  0.2032
  379MOL0     C49961   7.104   7.701   3.069  0.4492 -0.6290 -0.6707
  379MOL0     C49962   7.053   7.806   3.141 -0.2392  0.1563  0.8199
  379MOL0     H49963   6.760   7.964   3.517 -0.2580  1.4282 -0.9489
  379MOL0     H49964   6.648   8.173   3.605 -0.5788 -0.1313  0.9933
  379MOL0     H49965   6.625   8.283   3.849  0.9145 -0.3822 -1.0702
  379MOL0     H49966   6.564   8.384   3.718  1.3271  1.3840 -2.4607
  379MOL0     H49967   6.688   8.579   3.823  1.1218  0.0474  0.5464
  379MOL0     H49968   6.742   8.471   3.949  0.8397  2.2963 -1.3841
  379MOL0     H49969   6.577   8.557   4.067  0.0130  1.7985 -1.2172
  379MOL0     H49970   6.500   8.411   4.007  0.0621  0.0662  0.7672
  379MOL0     H49971   6.477   8.687   3.862  1.9016 -1.1986 -0.2411
  379MOL0     H49972   6.377   8.535   3.844 -0.2422  0.5973 -0.3549
  379MOL0     H49973   6.361   8.700   4.103 -0.1948 -3.0062  2.2219
  379MOL0     H49974   6.285   8.547   4.060  3.1450 -3.7422 -3.5890
  379MOL0     H49975   6.171   8.643   3.877 -2.0231  1.2616  1.4024
  379MOL0     H49976   6.270   8.794   3.876  1.1686  0.1792 -0.0342
  379MOL0     H49977   6.071   8.725   4.096 -1.4864  0.3754 -0.6461
  379MOL0     H49978   6.178   8.862   4.087 -0.8314 -0.3214  1.2937
  379MOL0     H49979   6.001   8.813   3.847  0.1227 -0.1593 -0.3524
  379MOL0     H49980   6.082   8.956   3.899  1.9969 -1.1722 -2.2150
  379MOL0     H49981   6.000   9.036   4.166  0.9467 -3.1178  1.9754
  379MOL0     H49982   5.833   9.074   4.350  1.1231  0.1240 -2.5443
  379MOL0     H49983   5.699   8.962   4.347 -2.3606 -1.8752 -3.8757
  379MOL0     H49984   5.555   9.120   4.219  0.5419 -1.6879  2.7368
  379MOL0     H49985   5.696   9.241   4.230 -0.6667  2.0229  1.5597
  379MOL0     H49986   5.564   9.137   4.486  1.9289 -1.0570 -0.0006
  379MOL0     H49987   5.660   9.267   4.469 -1.2009 -0.6471  2.3636
  379MOL0     H49988   5.412   9.277   4.287 -1.0701 -0.4585  0.5351
  379MOL0     H49989   5.526   9.405   4.329  0.0091 -0.5338 -0.1869
  379MOL0     H49990   5.397   9.122   4.633  2.2008 -0.2348 -3.6746
  379MOL0     H49991   5.182   9.023   4.688  0.6362  2.7260  3.8671
  379MOL0     H49992   4.794   8.848   4.634 -3.8666 -0.9817 -2.1517
  379MOL0     H49993   4.595   8.731   4.746 -2.8748  2.3754 -0.8363
  379MOL0     H49994   4.506   8.823   5.171 -0.7032 -1.1949  0.6242
  379MOL0     H49995   4.363   8.736   5.123 -2.0462  0.3447 -1.0759
  379MOL0     H49996   4.347   9.018   5.025  2.3937  0.3201  0.8893
  379MOL0     H49997   4.361   8.998   5.198 -1.3150  0.7622 -0.5837
  379MOL0     H49998   4.152   8.878   5.213 -1.2989  0.7372 -1.0993
  379MOL0     H49999   4.153   8.839   5.055  0.1754 -0.4972  1.5843
  379MOL0     H50000   4.126   9.131   5.172 -0.2963  0.0013  1.1246
  379MOL0     H50001   4.138   9.084   5.002  1.1881 -2.7189 -0.7302
  379MOL0     H50002   3.937   8.915   5.069 -0.8803 -1.0908  3.9485
  379MOL0     H50003   3.923   9.092   5.018  1.4413 -1.6208 -2.1284
  379MOL0     H50004   3.936   9.132   5.278 -0.2374 -1.4442  2.2521
  379MOL0     H50005   3.944   8.955   5.286 -0.8022 -0.2854  0.6204
  379MOL0     H50006   3.701   9.110   5.172  3.0786  1.2847 -0.9154
  379MOL0     H50007   3.712   8.935   5.199  2.7858 -0.1154 -0.3321
  379MOL0     H50008   3.742   8.997   5.452 -1.6002 -1.5870 -0.3815
  379MOL0     H50009   3.594   9.048   5.371  0.7681 -1.3681 -3.1902
  379MOL0     H50010   4.565   9.028   5.042  1.0804 -3.3000  2.5071
  379MOL0     H50011   4.781   9.146   4.921 -0.5989  1.2090  0.4223
  379MOL0     H50012   4.977   9.343   4.501 -0.2491 -2.1738 -2.9477
  379MOL0     H50013   5.184   9.422   4.415 -2.3554 -1.7996 -3.4959
  379MOL0     H50014   7.038   8.317   3.716  0.5209 -0.5221  1.3006
  379MOL0     H50015   7.140   8.114   3.606  0.0738  1.6955 -0.4487
  379MOL0     H50016   7.110   7.657   3.451 -2.2703 -2.8602 -0.2493
  379MOL0     H50017   7.193   7.493   3.320 -1.1297 -1.6807 -1.4908
  379MOL0     H50018   7.087   7.311   3.027 -0.5380 -1.1863  1.0229
  379MOL0     H50019   7.113   7.354   3.190 -0.3640 -2.4140  0.7318
  379MOL0     H50020   7.264   7.184   3.135 -1.5228  0.0246 -0.7700
  379MOL0     H50021   7.326   7.256   2.976  2.3395 -1.7367  0.3118
  379MOL0     H50022   7.365   7.391   3.235 -2.4003 -0.1629 -0.2781
  379MOL0     H50023   7.433   7.437   3.083 -1.5077  1.6634  1.2260
  379MOL0     H50024   7.506   7.179   3.222  0.8402  1.5467  3.9024
  379MOL0     H50025   7.566   7.227   3.064  5.2223  0.5375  1.8010
  379MOL0     H50026   7.852   7.414   3.248 -0.0762  1.0402  0.7251
  379MOL0     H50027   7.101   7.702   2.960  2.3951 -3.0125 -0.8264
  379MOL0     H50028   6.987   7.880   3.097 -0.7067 -1.1661 -0.7599
  380MOL0     O50029  10.733   6.003   5.375  0.2595  0.1698  0.3741
  380MOL0     C50030  10.772   6.023   5.489 -0.1250  0.1706  0.6063
  380MOL0     O50031  10.707   6.102   5.569 -0.0361  0.2256 -0.0880
  380MOL0     C50032  10.580   6.145   5.543 -0.8361 -0.2431  0.6930
  380MOL0     C50033  10.558   6.276   5.516 -0.0872 -0.4002  0.4626
  380MOL0     C50034  10.431   6.325   5.482  0.2837  0.0669 -0.7615
  380MOL0     C50035  10.322   6.238   5.471 -0.7241  0.2538 -1.6753
  380MOL0     O50036  10.194   6.284   5.458 -0.2690  0.3362 -0.3612
  380MOL0     C50037  10.189   6.388   5.362 -0.0346 -0.1087  0.4431
  380MOL0     C50038  10.037   6.398   5.324 -0.4219  0.2378  0.5874
  380MOL0     C50039  10.001   6.470   5.204  0.4802 -0.6199  0.0982
  380MOL0     C50040  10.059   6.616   5.226  1.4799 -0.1292  0.4696
  380MOL0     C50041  10.040   6.699   5.098 -0.2883  0.2929 -0.1217
  380MOL0     C50042  10.059   6.849   5.133 -0.6758  0.1309  0.6240
  380MOL0     C50043  10.050   6.933   5.004  0.3227 -0.7353 -1.2040
  380MOL0     C50044   9.906   6.934   4.945 -0.2604 -0.4044  0.2778
  380MOL0     N50045   9.815   7.034   5.006 -0.7155  0.4695 -0.0526
  380MOL0     C50046   9.834   7.174   5.000 -0.1553 -0.0138  0.0445
  380MOL0     C50047   9.735   7.229   5.072  0.4087 -0.0844  0.2556
  380MOL0     C50048   9.705   7.371   5.107 -0.7247  0.8434 -0.6670
  380MOL0     C50049   9.555   7.423   5.079  0.1780  0.5775 -0.5616
  380MOL0     C50050   9.510   7.416   4.935 -0.1829  1.4242  0.4685
  380MOL0     C50051   9.358   7.448   4.915 -0.1411  0.2959  0.7295
  380MOL0     O50052   9.322   7.397   4.783  0.1082 -0.0614 -0.3534
  380MOL0     C50053   9.192   7.413   4.740  0.2621  0.1561 -0.8416
  380MOL0     C50054   9.154   7.341   4.622 -0.9612 -0.1339 -0.6105
  380MOL0     C50055   9.027   7.340   4.574  0.8458 -0.4684 -0.3633
  380MOL0     C50056   8.922   7.409   4.646  0.1644  0.7053  0.0747
  380MOL0     C50057   8.775   7.405   4.606  0.6890  0.3849  0.0395
  380MOL0     O50058   8.703   7.518   4.619 -0.6036  0.7411  0.0292
  380MOL0     C50059   8.560   7.524   4.622 -0.1958 -0.6601 -0.6341
  380MOL0     C50060   8.482   7.410   4.650 -0.5024 -0.5650 -0.0141
  380MOL0     C50061   8.345   7.432   4.635  0.4050  0.9037 -0.6830
  380MOL0     C50062   8.287   7.554   4.597  0.0986 -0.3394  0.2384
  380MOL0     O50063   8.146   7.555   4.595  0.0493 -1.0982  0.4572
  380MOL0     C50064   8.076   7.438   4.549  0.7164 -0.3738  0.2495
  380MOL0     C50065   7.927   7.465   4.545 -0.0473 -0.1360  0.2430
  380MOL0     C50066   7.871   7.474   4.685  0.2700 -0.2946  0.1557
  380MOL0     C50067   7.719   7.474   4.674 -0.3740 -0.2906  1.3261
  380MOL0     C50068   7.661   7.565   4.778 -0.3407 -0.6662  0.8007
  380MOL0     C50069   7.680   7.522   4.917 -0.3545  0.1832  0.3258
  380MOL0     C50070   7.647   7.653   4.996  0.3812 -0.2680  0.0330
  380MOL0     C50071   7.641   7.643   5.145 -0.0183  0.0990 -0.0948
  380MOL0    Cl50072   7.747   7.518   5.205  0.1347 -0.5665 -0.4189
  380MOL0     C50073   8.363   7.665   4.567 -0.6920  0.0158 -0.0473
  380MOL0     C50074   8.501   7.647   4.595  0.1209 -0.0599 -0.1099
  380MOL0     O50075   8.726   7.311   4.547 -0.4964  1.0867  0.1583
  380MOL0     C50076   8.963   7.478   4.761 -0.4892  1.1809  0.6278
  380MOL0     C50077   9.093   7.474   4.815 -0.9700 -0.2841  0.3532
  380MOL0     N50078   9.649   7.117   5.102 -0.4008  0.1748  0.2652
  380MOL0     N50079   9.710   7.011   5.082  1.0286  0.2320 -0.5307
  380MOL0     C50080  10.348   6.104   5.491  0.5908 -0.0785 -0.5771
  380MOL0     C50081  10.476   6.056   5.526 -0.3103  0.5499  0.6618
  380MOL0     C50082  10.908   5.969   5.535 -0.4907  0.2823  0.1628
  380MOL0     C50083  10.963   6.004   5.663  1.0952  0.5778 -0.7112
  380MOL0     C50084  11.085   5.964   5.703  0.6690 -0.3072  0.1100
  380MOL0     C50085  11.169   5.888   5.614  0.0810 -1.1819 -0.1676
  380MOL0     O50086  11.291   5.847   5.652 -0.2827 -0.5592 -0.9122
  380MOL0     C50087  11.394   5.838   5.552  0.5439  0.1206 -0.0024
  380MOL0     C50088  11.530   5.801   5.620 -0.1152 -0.5025  0.9819
  380MOL0     C50089  11.652   5.801   5.530  0.4882 -0.1485 -0.1800
  380MOL0     C50090  11.788   5.751   5.600  0.6917  0.2201  0.9138
  380MOL0     C50091  11.892   5.767   5.492 -0.2949  0.1817  0.0010
  380MOL0     C50092  11.965   5.763   5.393  0.2717 -0.2802  0.5100
  380MOL0     C50093  11.120   5.858   5.492  0.0262  0.3826  0.3582
  380MOL0     C50094  10.986   5.890   5.454  0.0350 -0.0717  1.4541
  380MOL0     H50095  10.639   6.349   5.511  0.2143 -0.5999  1.9703
  380MOL0     H50096  10.411   6.431   5.472 -4.6639 -0.4982  0.1455
  380MOL0     H50097  10.249   6.377   5.271  2.5339 -0.7011  2.1134
  380MOL0     H50098  10.216   6.484   5.406  2.9909 -1.1679  1.1440
  380MOL0     H50099   9.983   6.437   5.411 -2.0817 -1.4300  0.3701
  380MOL0     H50100  10.015   6.291   5.312  0.5561 -0.4687  3.8969
  380MOL0     H50101   9.892   6.471   5.197  0.4153 -0.6213  0.9820
  380MOL0     H50102  10.048   6.425   5.117 -0.6361 -1.2133 -0.2128
  380MOL0     H50103  10.002   6.671   5.302  1.7005  0.3210  0.3075
  380MOL0     H50104  10.166   6.614   5.245  1.5490 -2.4115  0.1259
  380MOL0     H50105   9.940   6.684   5.055 -1.3715 -0.0247  2.3313
  380MOL0     H50106  10.116   6.671   5.025  0.4828  1.2189  0.3177
  380MOL0     H50107  10.165   6.861   5.160 -0.4942  1.2133 -0.4195
  380MOL0     H50108   9.987   6.884   5.207 -0.7678 -1.1698  1.1586
  380MOL0     H50109  10.081   7.032   5.036  1.6078 -2.3897  3.4445
  380MOL0     H50110  10.119   6.882   4.935 -0.6692 -1.1526 -1.9246
  380MOL0     H50111   9.853   6.840   4.957 -0.1806 -0.5544 -0.5182
  380MOL0     H50112   9.908   6.954   4.838 -3.0536 -0.2366  0.1817
  380MOL0     H50113   9.915   7.226   4.949 -0.9672  1.2601 -0.0038
  380MOL0     H50114   9.772   7.429   5.043 -1.3183  0.0531 -2.0544
  380MOL0     H50115   9.723   7.371   5.215 -0.4882 -2.6279 -0.5824
  380MOL0     H50116   9.550   7.525   5.117 -1.9062  0.3372 -0.0661
  380MOL0     H50117   9.489   7.362   5.141 -3.3073  6.0665  1.9228
  380MOL0     H50118   9.574   7.476   4.870  0.7329  0.8067  0.7684
  380MOL0     H50119   9.514   7.315   4.896 -1.8009  1.3890  0.3245
  380MOL0     H50120   9.348   7.556   4.921  1.2888  0.4321  0.8700
  380MOL0     H50121   9.290   7.400   4.986  0.9136 -1.9533  0.3131
  380MOL0     H50122   9.228   7.285   4.565 -1.3690 -1.0413 -0.2807
  380MOL0     H50123   9.010   7.293   4.478  1.4476  3.0017 -2.3551
  380MOL0     H50124   8.525   7.312   4.667  1.2227  0.6847  4.5042
  380MOL0     H50125   8.289   7.348   4.675  1.3087 -0.0232 -1.3186
  380MOL0     H50126   8.091   7.356   4.619  4.1092  0.5851  0.8458
  380MOL0     H50127   8.123   7.406   4.455  2.1047 -1.2308  1.2050
  380MOL0     H50128   7.879   7.380   4.496 -2.6874 -0.5954  3.2575
  380MOL0     H50129   7.912   7.556   4.486  2.3535  0.7905  0.9445
  380MOL0     H50130   7.910   7.561   4.738  3.6188 -0.3450 -1.9236
  380MOL0     H50131   7.896   7.388   4.747 -0.3267  1.5078  3.1273
  380MOL0     H50132   7.684   7.489   4.572  0.2816 -1.4044  0.9152
  380MOL0     H50133   7.691   7.369   4.691  1.4302 -1.1531 -0.5774
  380MOL0     H50134   7.552   7.568   4.772 -0.5368 -4.4293  0.2041
  380MOL0     H50135   7.705   7.661   4.748  1.3847 -1.9886 -1.1847
  380MOL0     H50136   7.779   7.479   4.934 -0.9253 -2.4882 -2.3578
  380MOL0     H50137   7.604   7.445   4.937  0.5800 -1.1792 -1.1649
  380MOL0     H50138   7.730   7.721   4.979  1.6518 -1.7375  0.1346
  380MOL0     H50139   7.557   7.704   4.960  0.1069 -0.3150  0.6303
  380MOL0     H50140   7.539   7.623   5.180 -0.7584 -0.2292 -2.3107
  380MOL0     H50141   7.677   7.738   5.186  2.1965  0.4424 -2.6125
  380MOL0     H50142   8.314   7.758   4.539 -0.5140  0.2852  0.5107
  380MOL0     H50143   8.568   7.729   4.570 -0.9656  1.5591  1.9124
  380MOL0     H50144   8.884   7.528   4.816  0.3584  1.4314  1.6571
  380MOL0     H50145   9.125   7.534   4.900  2.2777  0.7287 -1.4063
  380MOL0     H50146  10.259   6.045   5.475 -0.1188  0.8292 -0.0864
  380MOL0     H50147  10.503   5.951   5.520 -0.7273  0.4481  0.4757
  380MOL0     H50148  10.906   6.067   5.730  1.4533 -0.2272  0.3881
  380MOL0     H50149  11.123   5.990   5.802  2.3170  1.3144 -0.8796
  380MOL0     H50150  11.403   5.939   5.511 -0.3919 -0.5304 -1.9408
  380MOL0     H50151  11.371   5.772   5.468 -1.2023  1.7146 -0.8335
  380MOL0     H50152  11.553   5.879   5.693  0.5610 -0.6857  0.9624
  380MOL0     H50153  11.526   5.699   5.659  1.2311 -0.9042  0.1203
  380MOL0     H50154  11.658   5.906   5.500 -0.0552  1.2725  4.0468
  380MOL0     H50155  11.632   5.735   5.445 -1.1630  0.8920 -0.6246
  380MOL0     H50156  11.802   5.811   5.690 -1.0798  0.9525  0.7353
  380MOL0     H50157  11.793   5.646   5.632 -0.0261  0.9791  3.8013
  380MOL0     H50158  12.012   5.755   5.297 -1.7987 -0.9317 -0.5263
  380MOL0     H50159  11.178   5.794   5.425  0.2337 -0.7491  1.5923
  380MOL0     H50160  10.937   5.865   5.361 -1.9564  4.2153  1.1321
  381MOL0     O50161   3.035   9.151   6.877  0.2052 -1.3770 -0.2125
  381MOL0     C50162   3.032   9.158   7.001  0.4375  0.3069 -0.8034
  381MOL0     O50163   2.929   9.198   7.080 -0.2577 -0.2955  0.4241
  381MOL0     C50164   2.806   9.226   7.022 -0.2514 -0.6129 -0.2249
  381MOL0     C50165   2.734   9.315   7.094 -0.4887  0.3923 -0.0731
  381MOL0     C50166   2.606   9.351   7.046  0.1549 -1.0454  0.1930
  381MOL0     C50167   2.558   9.295   6.924 -0.2338  0.1354 -0.3736
  381MOL0     O50168   2.451   9.362   6.876  0.1812 -0.2680 -0.1803
  381MOL0     C50169   2.388   9.330   6.748 -0.1044  0.1532 -0.3532
  381MOL0     C50170   2.264   9.413   6.711  0.2249 -0.0913  1.0868
  381MOL0     C50171   2.147   9.392   6.794  0.3542 -0.3399 -0.2495
  381MOL0     C50172   2.016   9.427   6.716 -0.1528  0.0410  0.2775
  381MOL0     C50173   2.010   9.570   6.674  0.3010  0.1261  0.3303
  381MOL0     C50174   1.886   9.585   6.583  0.0005 -0.6649  0.0183
  381MOL0     C50175   1.875   9.730   6.523  0.5956  0.5525 -0.0192
  381MOL0     C50176   1.740   9.762   6.449  0.3030  0.5077  0.7160
  381MOL0     N50177   1.618   9.733   6.529 -0.3322  0.4739  0.5462
  381MOL0     C50178   1.567   9.609   6.559 -0.1282  0.5226  0.1432
  381MOL0     C50179   1.432   9.627   6.572  0.0301 -0.0372 -0.2188
  381MOL0     C50180   1.335   9.513   6.592  0.0292  0.6370 -0.7292
  381MOL0     C50181   1.325   9.506   6.746 -0.7499 -0.6711  1.2783
  381MOL0     C50182   1.249   9.370   6.771 -0.4449  0.1810 -0.2666
  381MOL0     C50183   1.171   9.366   6.903 -0.0350  0.2709  0.4970
  381MOL0     O50184   1.247   9.393   7.020 -0.6638 -0.0489 -0.1988
  381MOL0     C50185   1.197   9.375   7.140  0.2935  0.4750 -0.0503
  381MOL0     C50186   1.218   9.260   7.212  0.0981 -0.4063 -0.1553
  381MOL0     C50187   1.180   9.252   7.348  0.3026 -0.3832  0.1441
  381MOL0     C50188   1.111   9.357   7.411  0.1027  0.0160  0.6621
  381MOL0     C50189   1.068   9.346   7.548  0.2167  0.6448 -0.2961
  381MOL0     O50190   0.995   9.447   7.608  0.2682  0.1352  0.0532
  381MOL0     C50191   0.927   9.430   7.728  0.3915 -0.3561  0.4536
  381MOL0     C50192   0.833   9.332   7.742  0.1924 -0.0254  0.5253
  381MOL0     C50193   0.758   9.317   7.860 -0.4250  0.4159  0.3262
  381MOL0     C50194   0.788   9.404   7.964  0.0716  0.1638 -0.1433
  381MOL0     O50195   0.715   9.384   8.082  0.0644 -0.2223  0.3205
  381MOL0     C50196   0.735   9.266   8.163 -0.0803  1.2275  0.1358
  381MOL0     C50197   0.668   9.294   8.292 -0.8256 -0.5696 -0.6425
  381MOL0     C50198   0.747   9.391   8.379 -0.9187 -0.5364  0.4459
  381MOL0     C50199   0.681   9.423   8.507 -0.3890  0.2816 -1.0394
  381MOL0     C50200   0.641   9.300   8.595  0.8922  0.4223 -0.1640
  381MOL0     C50201   0.580   9.364   8.727 -0.0571 -0.3434  0.3971
  381MOL0     C50202   0.547   9.258   8.833 -0.5081 -0.6951  0.2911
  381MOL0     C50203   0.464   9.312   8.951  0.1233  0.0818  0.9293
  381MOL0    Cl50204   0.459   9.162   9.063  0.1850 -0.3687 -0.1561
  381MOL0     C50205   0.887   9.502   7.952  0.6147 -0.7177 -0.8878
  381MOL0     C50206   0.946   9.528   7.828  0.5809  0.4168 -0.8052
  381MOL0     O50207   1.099   9.241   7.606  0.3979 -0.7767  0.1182
  381MOL0     C50208   1.100   9.477   7.338  0.1613  0.3563  0.2011
  381MOL0     C50209   1.145   9.487   7.201  0.1732  0.0738 -0.7568
  381MOL0     N50210   1.406   9.758   6.564  0.0180 -1.0181 -0.0315
  381MOL0     N50211   1.518   9.821   6.547  0.0666 -0.5219  0.3118
  381MOL0     C50212   2.633   9.209   6.854 -0.0956  0.1101 -0.1294
  381MOL0     C50213   2.747   9.161   6.908  0.7705 -0.3965 -0.2173
  381MOL0     C50214   3.157   9.119   7.065 -0.4994 -0.8081  0.0709
  381MOL0     C50215   3.267   9.088   6.986  0.0834  1.4136  0.6615
  381MOL0     C50216   3.374   9.030   7.042  0.1191 -0.2600 -0.6980
  381MOL0     C50217   3.384   9.000   7.179 -0.1996 -0.0486 -0.1522
  381MOL0     O50218   3.486   8.933   7.231 -0.0950 -0.9728  0.0275
  381MOL0     C50219   3.507   8.933   7.372 -0.3352 -0.3505  0.2998
  381MOL0     C50220   3.656   8.899   7.399 -0.2804  1.0708  0.3433
  381MOL0     C50221   3.685   8.754   7.368 -0.3782 -0.7547 -0.5905
  381MOL0     C50222   3.832   8.706   7.393  0.6986  0.3409  0.5262
  381MOL0     C50223   3.870   8.692   7.532  0.4925  0.2567 -0.4388
  381MOL0     C50224   3.894   8.702   7.649  0.0511 -0.8707  0.2032
  381MOL0     C50225   3.278   9.043   7.261 -0.0970 -0.0173  1.0710
  381MOL0     C50226   3.160   9.096   7.202  0.1946 -0.0448 -0.7678
  381MOL0     H50227   2.764   9.362   7.187 -0.3207 -0.1390  0.1397
  381MOL0     H50228   2.544   9.427   7.093  1.3195 -0.5027  0.8939
  381MOL0     H50229   2.359   9.224   6.751 -2.7387  0.6470 -3.1526
  381MOL0     H50230   2.468   9.342   6.674 -2.2527  0.7980 -2.7118
  381MOL0     H50231   2.234   9.384   6.610  0.5900  0.7835  0.7247
  381MOL0     H50232   2.289   9.519   6.709 -1.0787  0.2309  0.7724
  381MOL0     H50233   2.150   9.460   6.879 -1.1677 -2.5426  1.7013
  381MOL0     H50234   2.142   9.292   6.839  4.6016  0.5259  2.7854
  381MOL0     H50235   2.013   9.365   6.626  0.4540  0.1015  0.2154
  381MOL0     H50236   1.925   9.412   6.776  1.0240  1.7688  2.6366
  381MOL0     H50237   2.105   9.598   6.628  1.0742 -1.3206  0.9670
  381MOL0     H50238   1.992   9.627   6.765 -3.9303 -1.4009  0.6751
  381MOL0     H50239   1.804   9.558   6.649 -0.0253 -0.2608  0.1562
  381MOL0     H50240   1.895   9.506   6.507 -2.8266 -1.8033  0.7454
  381MOL0     H50241   1.871   9.794   6.612  0.4646 -2.7917  2.6171
  381MOL0     H50242   1.964   9.755   6.465  2.3357 -1.7964  1.4099
  381MOL0     H50243   1.749   9.703   6.358  1.0236 -1.3657  1.9426
  381MOL0     H50244   1.734   9.869   6.425 -4.0314  0.7239  1.9539
  381MOL0     H50245   1.609   9.510   6.545 -0.8896  0.2730 -0.4190
  381MOL0     H50246   1.374   9.419   6.554  2.6146  0.2410  2.4145
  381MOL0     H50247   1.239   9.529   6.542 -1.3548 -2.2020  0.7893
  381MOL0     H50248   1.273   9.591   6.791  1.4352  0.8618  1.0883
  381MOL0     H50249   1.425   9.499   6.790 -0.8826  0.0881  1.7133
  381MOL0     H50250   1.184   9.351   6.685  1.2010 -0.8833 -1.3307
  381MOL0     H50251   1.322   9.289   6.775 -0.8305 -0.1844 -0.6285
  381MOL0     H50252   1.114   9.272   6.898 -0.9572  0.8496 -2.7593
  381MOL0     H50253   1.083   9.429   6.885  0.3396  1.0954  1.4880
  381MOL0     H50254   1.281   9.182   7.171  2.1383 -0.2031  2.2909
  381MOL0     H50255   1.202   9.159   7.400  0.2286 -0.1319  0.6287
  381MOL0     H50256   0.813   9.261   7.662 -2.8814  0.7462  0.4927
  381MOL0     H50257   0.697   9.227   7.855  4.0564 -2.9533  0.0646
  381MOL0     H50258   0.841   9.244   8.179 -1.1953 -3.1722  3.4719
  381MOL0     H50259   0.699   9.174   8.117  5.5430 -1.4596  0.3062
  381MOL0     H50260   0.661   9.197   8.341  0.0148  0.1543  1.0197
  381MOL0     H50261   0.567   9.336   8.286 -0.5761  0.2421  0.4347
  381MOL0     H50262   0.765   9.484   8.325  0.2089  0.8269  2.9778
  381MOL0     H50263   0.850   9.352   8.388  0.4648  2.7215 -0.0548
  381MOL0     H50264   0.756   9.473   8.570 -0.1110 -2.1246  0.6893
  381MOL0     H50265   0.596   9.491   8.500 -0.6870  0.0032 -0.2129
  381MOL0     H50266   0.731   9.244   8.622 -0.2164 -1.0459  0.5965
  381MOL0     H50267   0.562   9.243   8.545 -2.1080  1.0921  3.3332
  381MOL0     H50268   0.488   9.421   8.709 -0.8289 -2.2196 -2.2584
  381MOL0     H50269   0.653   9.436   8.766 -0.4138 -0.1927  0.7886
  381MOL0     H50270   0.501   9.168   8.792  0.7733 -0.9322 -0.7107
  381MOL0     H50271   0.647   9.230   8.867  1.8344  0.9774 -4.2920
  381MOL0     H50272   0.367   9.334   8.906  1.0227  2.5277  0.0069
  381MOL0     H50273   0.518   9.399   8.991  2.7812 -0.9207 -0.2171
  381MOL0     H50274   0.900   9.575   8.031 -1.0903  0.7230 -1.8556
  381MOL0     H50275   1.023   9.603   7.811  0.8771  0.0465 -1.1291
  381MOL0     H50276   1.057   9.564   7.387 -1.5459 -0.2660 -0.1138
  381MOL0     H50277   1.130   9.581   7.148 -0.3059 -0.8185 -2.2445
  381MOL0     H50278   2.589   9.184   6.758 -1.1363  0.0898  0.3471
  381MOL0     H50279   2.796   9.080   6.855  1.1008  2.0983 -4.0973
  381MOL0     H50280   3.278   9.099   6.878  3.9681 -2.1138  0.3921
  381MOL0     H50281   3.460   9.015   6.977  3.6790  0.4998  3.3982
  381MOL0     H50282   3.438   8.871   7.432  0.8681 -0.3887  1.7119
  381MOL0     H50283   3.498   9.035   7.410  1.3902 -0.0431 -0.0538
  381MOL0     H50284   3.722   8.973   7.354  0.8847  0.5552  1.1452
  381MOL0     H50285   3.693   8.911   7.502  1.8807  2.3920 -0.5074
  381MOL0     H50286   3.659   8.736   7.263 -1.7339  0.0900 -0.4184
  381MOL0     H50287   3.629   8.682   7.429  0.3010 -1.8294 -1.1864
  381MOL0     H50288   3.827   8.606   7.349 -0.5490 -0.3683  2.1801
  381MOL0     H50289   3.909   8.761   7.338 -1.0032  0.3746 -1.9906
  381MOL0     H50290   3.905   8.724   7.754  1.2846 -1.5324  0.2385
  381MOL0     H50291   3.281   9.035   7.370  1.4033  0.9161  1.1256
  381MOL0     H50292   3.079   9.129   7.266  0.1463  0.3367 -1.0231
  382MOL0     O50293   0.491   8.231   0.955 -0.7411  0.4432  0.1458
  382MOL0     C50294   0.547   8.174   1.050  0.0358  0.7776 -0.2970
  382MOL0     O50295   0.488   8.082   1.144 -0.0163 -0.3429  0.2298
  382MOL0     C50296   0.354   8.054   1.154  0.0604 -0.1779  0.8838
  382MOL0     C50297   0.261   8.151   1.123  0.9296 -0.3115 -0.1127
  382MOL0     C50298   0.121   8.122   1.137  0.5036  0.7422 -0.0193
  382MOL0     C50299   0.073   8.003   1.202 -0.3056  0.3580  0.6424
  382MOL0     O50300  -0.062   7.985   1.217  0.9879  0.5813  0.1223
  382MOL0     C50301  -0.106   7.847   1.241  0.3299 -0.1899 -0.5885
  382MOL0     C50302  -0.253   7.843   1.192  0.1913  1.1010  0.3211
  382MOL0     C50303  -0.348   7.901   1.306  0.6368  0.3791  0.0348
  382MOL0     C50304  -0.497   7.907   1.276 -0.2710 -0.0096  0.5863
  382MOL0     C50305  -0.569   7.915   1.406 -0.8923  0.0065  0.1427
  382MOL0     C50306  -0.720   7.892   1.384 -0.6930 -0.2127 -0.3913
  382MOL0     C50307  -0.804   7.949   1.496  0.0112  0.1397  0.3707
  382MOL0     C50308  -0.951   7.883   1.497  0.4086  0.0880 -1.1238
  382MOL0     N50309  -0.955   7.749   1.554  0.5025 -0.2394 -0.4844
  382MOL0     C50310  -1.074   7.684   1.585 -0.0997  0.0589  0.5049
  382MOL0     C50311  -1.026   7.582   1.666  0.9722  0.2613  0.4110
  382MOL0     C50312  -1.098   7.481   1.747  0.3008 -0.0494  0.1666
  382MOL0     C50313  -1.208   7.402   1.676 -0.3165 -0.5013  0.6158
  382MOL0     C50314  -1.259   7.316   1.787  1.0575  0.2535  0.0356
  382MOL0     C50315  -1.391   7.237   1.764  0.0161 -0.0885  0.6507
  382MOL0     O50316  -1.488   7.328   1.722  0.4230 -0.0797  0.2447
  382MOL0     C50317  -1.534   7.326   1.592  0.1778 -0.2115 -0.3824
  382MOL0     C50318  -1.592   7.450   1.557  1.2293 -0.1332 -0.0043
  382MOL0     C50319  -1.644   7.464   1.433  0.0760 -0.2881  0.7668
  382MOL0     C50320  -1.636   7.358   1.335 -0.0465  0.1468 -0.5950
  382MOL0     C50321  -1.675   7.390   1.195  1.0188 -0.6350  0.2469
  382MOL0     O50322  -1.668   7.290   1.107  1.0436  0.2844  0.3055
  382MOL0     C50323  -1.723   7.313   0.986  0.9167  0.7693 -0.1733
  382MOL0     C50324  -1.857   7.295   0.965  0.0567  1.0744  0.6977
  382MOL0     C50325  -1.907   7.304   0.831  0.6734 -0.8568 -0.6053
  382MOL0     C50326  -1.817   7.337   0.725  0.7406 -0.1551 -0.2267
  382MOL0     O50327  -1.878   7.347   0.596 -0.3697 -0.3266  0.0119
  382MOL0     C50328  -1.809   7.378   0.478 -0.3460  0.1223  0.3811
  382MOL0     C50329  -1.916   7.409   0.375  0.0961 -0.1473 -0.3438
  382MOL0     C50330  -1.986   7.538   0.406 -0.3237 -0.1381  0.7612
  382MOL0     C50331  -1.893   7.661   0.386 -0.0008 -0.3920 -0.1084
  382MOL0     C50332  -1.951   7.798   0.429 -0.3530 -1.1432  0.1646
  382MOL0     C50333  -1.831   7.876   0.467  0.3270 -0.1116  0.8388
  382MOL0     C50334  -1.876   8.025   0.487  0.3131 -0.2209  0.0862
  382MOL0     C50335  -1.907   8.075   0.630 -0.3698 -0.2398  0.3906
  382MOL0    Cl50336  -2.054   8.179   0.622 -0.0533  0.2410  0.3075
  382MOL0     C50337  -1.682   7.343   0.746  0.5718 -0.7014  0.1309
  382MOL0     C50338  -1.634   7.330   0.880  0.0694  0.8049  0.2179
  382MOL0     O50339  -1.715   7.504   1.163 -0.5302 -0.2599  0.8268
  382MOL0     C50340  -1.582   7.232   1.373 -1.4745  0.2499  0.7760
  382MOL0     C50341  -1.521   7.217   1.500  0.2256  0.2109  0.0263
  382MOL0     N50342  -0.886   7.593   1.688  0.1595 -0.3225  1.9324
  382MOL0     N50343  -0.849   7.685   1.608 -0.2638 -0.2060  0.1971
  382MOL0     C50344   0.179   7.908   1.235  0.4850  0.0701 -1.6168
  382MOL0     C50345   0.312   7.933   1.205 -0.0693 -0.3740 -0.9173
  382MOL0     C50346   0.693   8.195   1.065  0.1638 -0.1548  0.0788
  382MOL0     C50347   0.767   8.133   1.167  0.1744  0.4511 -0.0829
  382MOL0     C50348   0.911   8.153   1.164  0.7513 -0.1311 -0.5193
  382MOL0     C50349   0.980   8.233   1.071  0.2104 -0.0344 -0.3848
  382MOL0     O50350   1.113   8.236   1.055 -0.3993  0.9627  0.1880
  382MOL0     C50351   1.202   8.164   1.149  0.3021 -0.3499  1.3730
  382MOL0     C50352   1.351   8.190   1.109  0.1759  0.4796 -0.7401
  382MOL0     C50353   1.430   8.069   1.179 -0.6171 -0.4430 -0.4683
  382MOL0     C50354   1.580   8.105   1.182  0.4186 -0.0322  0.0335
  382MOL0     C50355   1.623   8.236   1.257 -0.0779  0.3014 -0.9784
  382MOL0     C50356   1.677   8.338   1.306  0.1778 -0.0071  0.6936
  382MOL0     C50357   0.898   8.310   0.980 -0.2032 -0.4271 -0.6052
  382MOL0     C50358   0.755   8.295   0.987  0.1208 -0.2750 -0.6498
  382MOL0     H50359   0.276   8.243   1.067  0.3578 -0.7236 -0.9543
  382MOL0     H50360   0.058   8.197   1.090  3.8021  3.0598 -1.0819
  382MOL0     H50361  -0.106   7.812   1.345 -1.4002  0.3773 -0.3770
  382MOL0     H50362  -0.039   7.780   1.185  2.4565  0.2015  1.3315
  382MOL0     H50363  -0.283   7.740   1.172  1.7211  0.6152  0.3904
  382MOL0     H50364  -0.266   7.898   1.099  0.7306 -1.7722 -1.5934
  382MOL0     H50365  -0.318   8.000   1.341 -0.7056  0.3871  1.2870
  382MOL0     H50366  -0.334   7.841   1.397  1.1576 -1.1759 -1.0363
  382MOL0     H50367  -0.520   7.998   1.221 -0.8687  0.6404  1.8797
  382MOL0     H50368  -0.520   7.812   1.227 -2.4303  1.3521 -1.2211
  382MOL0     H50369  -0.547   8.018   1.436  1.9234 -0.7987  1.2054
  382MOL0     H50370  -0.534   7.842   1.479  0.6934 -0.5847 -1.1486
  382MOL0     H50371  -0.740   7.786   1.366  1.2937 -0.7782  0.4206
  382MOL0     H50372  -0.758   7.938   1.293 -3.4547 -0.2582  0.6205
  382MOL0     H50373  -0.756   7.941   1.594  0.7173  2.5917  0.2878
  382MOL0     H50374  -0.812   8.057   1.483  1.0391  0.0467 -1.2649
  382MOL0     H50375  -0.964   7.869   1.389  2.2497 -0.0812 -1.3681
  382MOL0     H50376  -1.028   7.950   1.536 -0.9678 -1.2426 -1.4387
  382MOL0     H50377  -1.169   7.718   1.546  0.3413 -0.9736 -1.6214
  382MOL0     H50378  -1.124   7.532   1.840  0.7781  0.2357  0.1502
  382MOL0     H50379  -1.027   7.400   1.769 -0.8118 -2.2913 -3.5442
  382MOL0     H50380  -1.156   7.343   1.600  1.2215  3.4775 -1.7664
  382MOL0     H50381  -1.273   7.472   1.622  0.8973  0.3875  0.2365
  382MOL0     H50382  -1.181   7.245   1.813  0.5958  0.0143  0.7906
  382MOL0     H50383  -1.273   7.372   1.880  0.9854 -0.8955  0.7312
  382MOL0     H50384  -1.418   7.185   1.857  0.3126 -3.1992 -0.8937
  382MOL0     H50385  -1.353   7.170   1.687 -0.5621  1.9631 -1.5452
  382MOL0     H50386  -1.607   7.532   1.626 -0.9979  1.9135 -2.6991
  382MOL0     H50387  -1.673   7.562   1.395  2.0915 -0.3977 -1.2750
  382MOL0     H50388  -1.917   7.272   1.052 -0.2263  3.7426  1.2762
  382MOL0     H50389  -2.013   7.306   0.806  0.6457  3.4853 -0.9281
  382MOL0     H50390  -1.755   7.289   0.443 -0.4062  0.8399 -1.7329
  382MOL0     H50391  -1.736   7.459   0.485 -0.0961  0.3709 -3.0706
  382MOL0     H50392  -2.001   7.339   0.376  0.7893 -1.1898 -3.5608
  382MOL0     H50393  -1.880   7.407   0.272  0.8423 -3.6138 -0.1358
  382MOL0     H50394  -2.024   7.538   0.508 -0.3830 -2.6315  0.8081
  382MOL0     H50395  -2.076   7.544   0.344 -0.9080  0.7458  1.6724
  382MOL0     H50396  -1.794   7.648   0.431 -1.0596  3.0383  3.8795
  382MOL0     H50397  -1.878   7.669   0.278  0.2326 -1.6176 -0.1875
  382MOL0     H50398  -2.011   7.778   0.518 -1.9395  0.3735 -0.5017
  382MOL0     H50399  -2.014   7.834   0.348 -1.2149 -0.9386  0.9074
  382MOL0     H50400  -1.768   7.889   0.378  1.0876  0.5878  1.4574
  382MOL0     H50401  -1.774   7.832   0.549  2.2565  1.4847  0.4289
  382MOL0     H50402  -1.802   8.097   0.449  0.9011  0.4124  2.2538
  382MOL0     H50403  -1.962   8.053   0.426  0.4049  2.6605  1.1045
  382MOL0     H50404  -1.826   8.132   0.676 -2.0578  1.5794  1.2425
  382MOL0     H50405  -1.930   7.987   0.690 -0.3984 -1.8950 -1.9311
  382MOL0     H50406  -1.614   7.350   0.661  0.5588 -1.4126  0.0527
  382MOL0     H50407  -1.530   7.326   0.908 -0.1126 -1.9048  0.7803
  382MOL0     H50408  -1.579   7.153   1.299  0.0827  3.2939 -2.7443
  382MOL0     H50409  -1.485   7.121   1.535 -0.4295  0.5626  1.7799
  382MOL0     H50410   0.140   7.825   1.293 -0.5141  1.3920 -0.3468
  382MOL0     H50411   0.386   7.857   1.225  1.5700  0.8779 -1.9428
  382MOL0     H50412   0.714   8.066   1.234  1.9420 -1.0311 -0.0793
  382MOL0     H50413   0.956   8.080   1.230 -0.9054  0.2820  1.1643
  382MOL0     H50414   1.177   8.058   1.151 -1.0035 -0.0530  1.7933
  382MOL0     H50415   1.194   8.203   1.251  0.3953  1.7931  0.6195
  382MOL0     H50416   1.371   8.180   1.002  0.9169 -0.3938 -0.5359
  382MOL0     H50417   1.379   8.288   1.147  2.1263 -0.6090  0.8862
  382MOL0     H50418   1.410   7.976   1.125 -0.0194  0.8742 -3.1182
  382MOL0     H50419   1.391   8.064   1.281  0.0123 -0.6527 -0.2367
  382MOL0     H50420   1.632   8.019   1.225 -1.1051 -3.0332 -3.5749
  382MOL0     H50421   1.626   8.107   1.083  0.4690 -2.1530 -0.0370
  382MOL0     H50422   1.730   8.424   1.339  1.4924 -0.7157  0.4909
  382MOL0     H50423   0.923   8.399   0.923  1.8899  1.3934  2.8199
  382MOL0     H50424   0.687   8.354   0.926 -3.5195 -0.8666  2.4101
  383MOL0     O50425  11.077   3.421   6.927 -0.2224  0.2878  0.4356
  383MOL0     C50426  11.082   3.300   6.897  0.0356  0.1235 -0.1503
  383MOL0     O50427  11.131   3.201   6.979 -0.1167 -0.0008  1.3748
  383MOL0     C50428  11.191   3.228   7.097 -0.2233  0.3912  0.3797
  383MOL0     C50429  11.198   3.349   7.173 -1.2755 -0.6742 -0.4429
  383MOL0     C50430  11.301   3.372   7.269 -0.6341  0.5487  0.6297
  383MOL0     C50431  11.399   3.281   7.294  1.7258  0.8736 -0.3311
  383MOL0     O50432  11.493   3.303   7.390  0.3261  0.5986 -0.0198
  383MOL0     C50433  11.467   3.257   7.520  0.3714 -0.2145 -1.3034
  383MOL0     C50434  11.572   3.326   7.612  0.2502 -0.3067  0.2786
  383MOL0     C50435  11.519   3.319   7.757 -0.2923 -0.6519  0.4572
  383MOL0     C50436  11.632   3.328   7.859 -0.2338 -0.3933  0.4162
  383MOL0     C50437  11.581   3.331   8.001  0.8071 -0.2844 -0.3746
  383MOL0     C50438  11.675   3.402   8.102  0.4901  0.0649  0.9546
  383MOL0     C50439  11.635   3.390   8.248 -0.2596  0.3416  0.0981
  383MOL0     C50440  11.522   3.489   8.263  0.1957  0.4528  0.2343
  383MOL0     N50441  11.370   3.453   8.265 -1.1252 -0.6287  0.9194
  383MOL0     C50442  11.302   3.365   8.350 -0.1803 -0.2035  0.1253
  383MOL0     C50443  11.170   3.411   8.340  0.3663 -0.8922 -0.7955
  383MOL0     C50444  11.064   3.368   8.427 -0.1533  0.2618  0.5262
  383MOL0     C50445  11.036   3.476   8.540  0.3552  0.6137  0.0134
  383MOL0     C50446  11.150   3.465   8.643 -0.0012 -0.1000  0.3781
  383MOL0     C50447  11.125   3.563   8.765  0.2765  1.1895 -0.7797
  383MOL0     O50448  11.256   3.568   8.835 -0.1210 -0.4007  0.1419
  383MOL0     C50449  11.254   3.528   8.970  0.5069 -0.6271  0.0637
  383MOL0     C50450  11.253   3.391   8.985 -0.4822  0.0103 -0.3836
  383MOL0     C50451  11.272   3.345   9.118 -0.5988  0.3072 -0.2088
  383MOL0     C50452  11.280   3.434   9.225  0.1982  0.2616  0.1026
  383MOL0     C50453  11.261   3.385   9.362  0.6972 -0.1345  0.3022
  383MOL0     O50454  11.222   3.253   9.387  0.0374  0.3102  0.4147
  383MOL0     C50455  11.173   3.215   9.514  1.0975 -0.2281 -0.3001
  383MOL0     C50456  11.037   3.208   9.535  0.2524  0.1394 -0.0152
  383MOL0     C50457  10.985   3.165   9.658 -0.7182  0.0150 -0.0015
  383MOL0     C50458  11.072   3.130   9.762 -0.4352  0.3009  0.5414
  383MOL0     O50459  11.018   3.079   9.869  1.1424 -0.3510  0.7589
  383MOL0     C50460  11.049   3.136   9.994  0.5441 -0.1875  0.2814
  383MOL0     C50461  10.975   3.275  10.008 -0.8384 -1.1988 -0.4845
  383MOL0     C50462  10.832   3.277   9.967  1.0002 -0.1480  0.4496
  383MOL0     C50463  10.735   3.239  10.080 -0.4852  0.4487  0.0334
  383MOL0     C50464  10.593   3.224  10.032 -0.4071  0.3087 -0.5455
  383MOL0     C50465  10.472   3.187  10.131 -0.2021 -0.3625  1.0271
  383MOL0     C50466  10.335   3.255  10.106 -0.7043 -0.3138  0.0161
  383MOL0     C50467  10.222   3.209  10.198  0.7322 -0.5397 -0.0079
  383MOL0    Cl50468  10.092   3.328  10.196 -0.6323 -0.1509 -0.1704
  383MOL0     C50469  11.212   3.141   9.745  0.3540 -0.1817 -0.5798
  383MOL0     C50470  11.258   3.170   9.615 -1.0806  0.1005  0.1108
  383MOL0     O50471  11.255   3.471   9.445 -0.9328 -0.9177 -0.1321
  383MOL0     C50472  11.274   3.564   9.197 -0.2693 -0.4069 -0.7663
  383MOL0     C50473  11.260   3.613   9.072 -0.1895 -0.1459 -0.9376
  383MOL0     N50474  11.163   3.494   8.236 -0.3001  0.1099 -0.5502
  383MOL0     N50475  11.279   3.528   8.195  0.3784 -0.0702 -0.1329
  383MOL0     C50476  11.390   3.159   7.225  1.1484  1.0035 -1.0192
  383MOL0     C50477  11.290   3.130   7.135 -0.6741 -0.6640  0.6804
  383MOL0     C50478  11.037   3.262   6.764 -0.0700 -0.1644 -0.8664
  383MOL0     C50479  10.978   3.353   6.680 -0.3707  0.6080 -0.1595
  383MOL0     C50480  10.940   3.316   6.544 -0.0495 -0.3047  0.5451
  383MOL0     C50481  10.958   3.190   6.495 -0.3342 -0.3331  0.4129
  383MOL0     O50482  10.913   3.172   6.373 -0.2015 -0.2833  1.0496
  383MOL0     C50483  10.941   3.051   6.299  0.9838 -0.0034  0.0245
  383MOL0     C50484  10.921   3.058   6.140  0.0135 -0.6154  0.8572
  383MOL0     C50485  11.024   3.151   6.073 -0.6590 -0.6556 -0.0502
  383MOL0     C50486  11.007   3.160   5.922 -0.9691 -0.3196  0.1316
  383MOL0     C50487  10.891   3.242   5.886 -1.7226  0.7885 -0.6843
  383MOL0     C50488  10.790   3.306   5.850  0.0281  0.1360 -0.7725
  383MOL0     C50489  11.016   3.095   6.582  0.0172 -0.2580  0.4032
  383MOL0     C50490  11.056   3.133   6.712 -0.0455 -0.4101 -0.9644
  383MOL0     H50491  11.127   3.431   7.171 -3.4142 -2.4417 -1.1837
  383MOL0     H50492  11.279   3.460   7.329 -1.8034  1.3358 -0.8984
  383MOL0     H50493  11.476   3.148   7.523 -0.5645 -0.3554  3.4596
  383MOL0     H50494  11.366   3.293   7.538  0.8522  1.7366 -2.1891
  383MOL0     H50495  11.582   3.432   7.588  2.3466 -0.4624  0.3353
  383MOL0     H50496  11.672   3.285   7.597  0.9248  1.8269 -1.7406
  383MOL0     H50497  11.462   3.227   7.771 -0.9293 -0.5042 -0.9707
  383MOL0     H50498  11.446   3.392   7.794 -0.6434 -1.4528  1.3846
  383MOL0     H50499  11.707   3.250   7.845 -1.1288 -1.3569  0.8100
  383MOL0     H50500  11.685   3.422   7.843 -0.8221 -0.0824  0.2406
  383MOL0     H50501  11.559   3.227   8.027 -1.2012 -0.2493 -1.7070
  383MOL0     H50502  11.491   3.394   8.003  1.2099  0.5726  4.5737
  383MOL0     H50503  11.693   3.503   8.064  1.2630 -0.2686  0.4200
  383MOL0     H50504  11.774   3.358   8.091  1.2918  2.4582 -3.2948
  383MOL0     H50505  11.602   3.287   8.262 -0.7494  0.5007  0.1466
  383MOL0     H50506  11.719   3.417   8.313 -0.1982  3.5422 -1.0930
  383MOL0     H50507  11.534   3.570   8.191  0.4484  0.1286 -0.0909
  383MOL0     H50508  11.537   3.536   8.361 -0.8271  0.8067  0.2343
  383MOL0     H50509  11.333   3.287   8.419 -2.5622 -1.0858  0.2729
  383MOL0     H50510  11.079   3.267   8.467  1.1068  0.5968  0.9458
  383MOL0     H50511  10.978   3.344   8.363  0.1017 -2.1353  0.9684
  383MOL0     H50512  10.940   3.459   8.590  1.0067  3.6799  2.6413
  383MOL0     H50513  11.025   3.577   8.500 -1.5228 -0.3812 -2.2870
  383MOL0     H50514  11.153   3.362   8.680 -3.7220 -1.5061 -2.5158
  383MOL0     H50515  11.242   3.504   8.597  0.0488  0.9433  1.3137
  383MOL0     H50516  11.045   3.516   8.823  0.9405  0.8625 -0.1078
  383MOL0     H50517  11.098   3.664   8.735 -2.6229  1.4160  2.0205
  383MOL0     H50518  11.249   3.333   8.893 -3.1607  2.3796 -1.9220
  383MOL0     H50519  11.272   3.237   9.135  3.6825 -0.1356 -1.9427
  383MOL0     H50520  10.973   3.242   9.454  0.9502 -1.1257 -1.1241
  383MOL0     H50521  10.877   3.157   9.655 -0.7185 -1.6433  2.2544
  383MOL0     H50522  11.158   3.145   9.999  0.5956  0.2212 -1.1590
  383MOL0     H50523  11.003   3.074  10.071 -2.9551 -0.8130 -2.0876
  383MOL0     H50524  11.018   3.349   9.942 -3.4912  2.8350  1.8794
  383MOL0     H50525  10.983   3.323  10.106  1.4458  0.3266 -1.3443
  383MOL0     H50526  10.810   3.201   9.891 -0.3829 -0.2338  0.9152
  383MOL0     H50527  10.794   3.372   9.928  1.5008 -0.8713 -2.0210
  383MOL0     H50528  10.769   3.155  10.142  1.1685 -0.2144 -1.6652
  383MOL0     H50529  10.737   3.323  10.150 -0.2610 -0.8556  1.6516
  383MOL0     H50530  10.592   3.157   9.945 -2.3487 -1.0626  0.4739
  383MOL0     H50531  10.580   3.327   9.996  0.2817  0.3685 -0.6537
  383MOL0     H50532  10.512   3.207  10.231 -0.1111 -0.8271  1.0865
  383MOL0     H50533  10.472   3.078  10.135  3.6165 -0.5854 -1.0840
  383MOL0     H50534  10.339   3.364  10.094 -2.2326  0.0712  2.3327
  383MOL0     H50535  10.310   3.215  10.007 -0.0730  1.0185 -0.7180
  383MOL0     H50536  10.260   3.191  10.299  0.9983  0.2211  0.0384
  383MOL0     H50537  10.181   3.111  10.170 -2.6068  0.3580  1.2358
  383MOL0     H50538  11.281   3.104   9.820 -0.4631 -1.0406 -0.2314
  383MOL0     H50539  11.364   3.186   9.603 -1.2530 -0.4628 -3.4556
  383MOL0     H50540  11.266   3.644   9.270  2.4985  0.3942 -1.2206
  383MOL0     H50541  11.271   3.718   9.049 -2.5362  1.0745  2.5788
  383MOL0     H50542  11.464   3.081   7.242  2.3056  2.5461  1.4633
  383MOL0     H50543  11.280   3.037   7.081 -0.5175 -0.8396  0.9490
  383MOL0     H50544  10.951   3.452   6.713 -0.3368  0.3623  0.6258
  383MOL0     H50545  10.903   3.392   6.476  1.5683  0.2177  0.2007
  383MOL0     H50546  10.878   2.975   6.345 -0.5622  0.2503 -1.5923
  383MOL0     H50547  11.045   3.019   6.316  1.1042 -0.6804 -1.7692
  383MOL0     H50548  10.921   2.960   6.092 -0.0767  0.3743 -1.2518
  383MOL0     H50549  10.819   3.096   6.126  0.5276  1.4989  2.4097
  383MOL0     H50550  11.119   3.117   6.115 -0.1649 -0.5420 -1.0595
  383MOL0     H50551  11.017   3.256   6.103  3.6303  0.1339 -1.1008
  383MOL0     H50552  11.096   3.213   5.884 -2.6714  2.1074 -0.6997
  383MOL0     H50553  10.994   3.064   5.872 -1.7671 -0.5143  0.6952
  383MOL0     H50554  10.706   3.371   5.839  0.4499  0.8643  0.1790
  383MOL0     H50555  11.033   2.994   6.546 -1.6257 -0.9220  1.3768
  383MOL0     H50556  11.108   3.058   6.769  2.9524  2.9392  1.0954
  384MOL0     O50557   2.138   4.962   0.896 -0.9118  0.1201 -0.5146
  384MOL0     C50558   2.107   4.895   0.802  0.4672  0.1887 -0.3661
  384MOL0     O50559   2.175   4.892   0.686 -0.0117  0.9695  0.0646
  384MOL0     C50560   2.300   4.946   0.676 -0.3937 -0.7953 -0.2375
  384MOL0     C50561   2.325   5.024   0.557  0.4860  0.4885 -0.0219
  384MOL0     C50562   2.440   5.098   0.539  0.8646 -0.0018  0.2344
  384MOL0     C50563   2.552   5.082   0.627 -0.3173 -0.2350  0.7869
  384MOL0     O50564   2.673   5.152   0.610  0.3960  0.2504  0.1398
  384MOL0     C50565   2.733   5.107   0.491 -0.7818 -0.1061 -0.5485
  384MOL0     C50566   2.776   5.215   0.395 -0.3893  0.7452  0.0394
  384MOL0     C50567   2.908   5.284   0.429  0.6285  1.1260 -0.3285
  384MOL0     C50568   2.983   5.376   0.328  0.0783  0.2874  0.7324
  384MOL0     C50569   3.038   5.310   0.200 -0.2092  0.3459 -0.0091
  384MOL0     C50570   3.064   5.403   0.083 -0.2299  0.0858 -0.0101
  384MOL0     C50571   3.127   5.341  -0.047  0.0939  0.0333 -0.5499
  384MOL0     C50572   3.278   5.311  -0.021  0.5977  0.5211  0.1800
  384MOL0     N50573   3.364   5.419   0.025 -0.6009 -1.0626 -1.1956
  384MOL0     C50574   3.430   5.425   0.149 -1.2542 -0.2180 -0.5895
  384MOL0     C50575   3.523   5.527   0.132 -0.3844 -0.1766 -0.4420
  384MOL0     C50576   3.626   5.554   0.237 -0.0484  0.3513  0.1688
  384MOL0     C50577   3.752   5.605   0.182  0.2425 -0.8411 -0.7368
  384MOL0     C50578   3.833   5.493   0.113  0.1663 -0.3770 -1.4626
  384MOL0     C50579   3.928   5.552   0.004 -0.7037 -0.9343 -0.2795
  384MOL0     O50580   4.015   5.666   0.047  0.1930  0.8244 -0.1624
  384MOL0     C50581   4.102   5.647   0.150 -0.6584 -0.3033  0.3340
  384MOL0     C50582   4.156   5.767   0.204  0.1662  0.5199  0.7980
  384MOL0     C50583   4.248   5.771   0.303 -0.1608  1.4240  0.2998
  384MOL0     C50584   4.293   5.642   0.351 -1.3661 -0.0980 -0.4494
  384MOL0     C50585   4.407   5.633   0.444  0.6370  0.1305 -0.7697
  384MOL0     O50586   4.517   5.554   0.412  0.3714  0.4007  0.7538
  384MOL0     C50587   4.625   5.539   0.498 -0.9246 -0.4103  0.5363
  384MOL0     C50588   4.707   5.654   0.536 -0.0926  0.0105  0.0273
  384MOL0     C50589   4.806   5.636   0.639  0.4020  0.2492 -0.1382
  384MOL0     C50590   4.822   5.510   0.707  0.4367 -0.5661 -0.2988
  384MOL0     O50591   4.912   5.494   0.810 -0.4072  0.3838 -0.5220
  384MOL0     C50592   5.043   5.452   0.771 -0.0720 -0.0810  0.4143
  384MOL0     C50593   5.151   5.566   0.777 -0.4730  0.0896 -0.0769
  384MOL0     C50594   5.180   5.619   0.641  0.1822 -0.3360  0.0872
  384MOL0     C50595   5.323   5.682   0.643 -0.6225  0.0630  0.1888
  384MOL0     C50596   5.359   5.750   0.510 -0.6117  0.4777  0.4524
  384MOL0     C50597   5.494   5.807   0.505 -0.5812 -0.0384 -0.2510
  384MOL0     C50598   5.508   5.905   0.384  0.4786 -0.3852 -0.0024
  384MOL0     C50599   5.554   6.046   0.434  0.3478  0.1027 -0.6073
  384MOL0    Cl50600   5.420   6.139   0.513 -0.3526 -0.1711 -0.5458
  384MOL0     C50601   4.731   5.407   0.672 -0.0077  0.6459  1.0620
  384MOL0     C50602   4.636   5.422   0.568 -0.1533  0.4284 -0.7652
  384MOL0     O50603   4.396   5.692   0.551  0.5833  0.3398 -0.7638
  384MOL0     C50604   4.241   5.526   0.303  1.5077  0.2806  0.1540
  384MOL0     C50605   4.146   5.526   0.204  0.3191 -0.8445  0.4591
  384MOL0     N50606   3.508   5.580   0.004 -0.0711 -0.8772  0.3462
  384MOL0     N50607   3.409   5.520  -0.054  0.0128  0.0667 -0.2039
  384MOL0     C50608   2.533   5.002   0.735 -0.3476 -0.5964 -0.1343
  384MOL0     C50609   2.411   4.927   0.764  0.4919  0.6773  0.1741
  384MOL0     C50610   1.984   4.825   0.813  0.3049  0.5107 -0.3578
  384MOL0     C50611   1.896   4.835   0.929  0.4078 -1.4373  1.0527
  384MOL0     C50612   1.777   4.770   0.930  0.1102  0.4717 -0.8891
  384MOL0     C50613   1.744   4.683   0.826 -0.1022  0.0030  0.3045
  384MOL0     O50614   1.630   4.613   0.850  0.1465  0.1102  0.5714
  384MOL0     C50615   1.609   4.500   0.771 -0.2082  0.9109  0.9883
  384MOL0     C50616   1.535   4.397   0.843  0.6259  0.6184 -0.5362
  384MOL0     C50617   1.523   4.266   0.772 -1.0514  1.1165 -0.2421
  384MOL0     C50618   1.395   4.190   0.803  0.5193  0.6346  0.2591
  384MOL0     C50619   1.409   4.145   0.941  0.1422 -0.2357 -0.2338
  384MOL0     C50620   1.419   4.099   1.051 -0.2291  0.3940 -1.2258
  384MOL0     C50621   1.827   4.672   0.710  0.0948 -0.7118 -0.1290
  384MOL0     C50622   1.950   4.737   0.717  0.1267 -0.1060 -0.0306
  384MOL0     H50623   2.247   5.036   0.483  0.6649  0.9351 -0.1434
  384MOL0     H50624   2.449   5.172   0.461 -0.4381  0.5436  0.5782
  384MOL0     H50625   2.676   5.033   0.434 -1.4636  0.7099 -0.9499
  384MOL0     H50626   2.826   5.059   0.524  2.0884  4.8655 -0.2359
  384MOL0     H50627   2.700   5.293   0.386 -0.4741  0.5960 -0.6601
  384MOL0     H50628   2.779   5.168   0.296 -0.3414  0.7742  0.0273
  384MOL0     H50629   2.986   5.213   0.459  0.1523 -0.8827 -3.4590
  384MOL0     H50630   2.895   5.337   0.524  1.1053  0.4575  0.1158
  384MOL0     H50631   2.921   5.461   0.298  0.4352 -0.2306 -1.7092
  384MOL0     H50632   3.060   5.428   0.386 -0.4362  2.2573 -0.2658
  384MOL0     H50633   2.972   5.228   0.168 -0.4675  1.3361 -2.1751
  384MOL0     H50634   3.134   5.267   0.226 -0.0845 -0.0876 -1.1022
  384MOL0     H50635   3.119   5.491   0.119 -0.1830  1.0661 -2.2548
  384MOL0     H50636   2.967   5.439   0.046 -1.2873 -0.9238  1.6510
  384MOL0     H50637   3.068   5.253  -0.073  0.1771  0.2694 -1.6144
  384MOL0     H50638   3.122   5.416  -0.127  1.5091  0.5527 -0.1792
  384MOL0     H50639   3.325   5.275  -0.113  1.2397  1.7470  0.0146
  384MOL0     H50640   3.281   5.230   0.053 -1.3064  0.6650  0.4546
  384MOL0     H50641   3.425   5.357   0.234  1.5743  1.3950  1.0501
  384MOL0     H50642   3.654   5.472   0.303  0.8313  0.3902 -0.1406
  384MOL0     H50643   3.574   5.626   0.301 -3.7402 -0.1235 -2.0125
  384MOL0     H50644   3.817   5.642   0.261  1.6265  0.1609 -2.2647
  384MOL0     H50645   3.725   5.686   0.113 -2.8312  0.6713  1.9848
  384MOL0     H50646   3.897   5.436   0.181 -0.5071  1.9950  1.3672
  384MOL0     H50647   3.762   5.431   0.057 -0.9026  0.1914 -0.7625
  384MOL0     H50648   3.862   5.583  -0.077  0.9355 -1.7995 -2.0134
  384MOL0     H50649   3.980   5.464  -0.033 -2.2694 -1.3749 -1.5134
  384MOL0     H50650   4.104   5.855   0.166  1.5371  0.5195 -1.1890
  384MOL0     H50651   4.286   5.865   0.341  0.3573  0.7089  1.6019
  384MOL0     H50652   4.677   5.752   0.501  1.4127 -0.4091 -2.6634
  384MOL0     H50653   4.872   5.716   0.674  1.1892 -0.0097 -0.9928
  384MOL0     H50654   5.038   5.404   0.673  0.7345  2.5210 -0.9961
  384MOL0     H50655   5.085   5.387   0.848 -0.5135  2.9603  3.4474
  384MOL0     H50656   5.238   5.524   0.828 -2.3119 -1.8789  1.6466
  384MOL0     H50657   5.108   5.647   0.838 -0.2268  1.9896 -2.3008
  384MOL0     H50658   5.108   5.693   0.605 -0.9758 -0.9774  0.9871
  384MOL0     H50659   5.199   5.534   0.576  2.0400 -0.1064  0.2758
  384MOL0     H50660   5.334   5.750   0.728 -1.2836 -0.0300  0.3562
  384MOL0     H50661   5.401   5.608   0.664  0.6281  0.4115 -2.7629
  384MOL0     H50662   5.286   5.829   0.494 -1.9158 -0.8316 -0.2530
  384MOL0     H50663   5.352   5.673   0.433  1.7060  0.2941  0.3537
  384MOL0     H50664   5.563   5.725   0.482 -0.7850 -0.5250  0.7997
  384MOL0     H50665   5.513   5.859   0.599  2.3962  1.9628 -1.8078
  384MOL0     H50666   5.593   5.877   0.322 -0.2645 -0.5027 -0.9959
  384MOL0     H50667   5.416   5.908   0.325  1.4588  0.1037 -1.5770
  384MOL0     H50668   5.579   6.109   0.348 -0.2344 -0.4315 -1.1760
  384MOL0     H50669   5.637   6.032   0.504  0.7478  1.6127 -0.7343
  384MOL0     H50670   4.745   5.309   0.715  0.4730 -2.0358 -4.3487
  384MOL0     H50671   4.572   5.339   0.541  0.2275  0.0216 -0.4258
  384MOL0     H50672   4.290   5.431   0.326 -0.2627 -1.7820 -3.6486
  384MOL0     H50673   4.112   5.429   0.168  1.8974 -1.3706  0.3379
  384MOL0     H50674   2.614   4.981   0.804 -1.3818 -0.3460  1.2110
  384MOL0     H50675   2.398   4.859   0.848  3.2040  0.2489  0.3334
  384MOL0     H50676   1.916   4.901   1.012  1.2810  2.0666 -1.6851
  384MOL0     H50677   1.720   4.776   1.022  0.3250  0.3488 -0.7463
  384MOL0     H50678   1.698   4.453   0.728 -1.2678  2.2415 -3.1044
  384MOL0     H50679   1.555   4.525   0.679  0.4273 -0.5326  0.1722
  384MOL0     H50680   1.594   4.385   0.934  2.9738  0.7291 -1.9667
  384MOL0     H50681   1.439   4.434   0.881  0.4036  0.4972 -0.9679
  384MOL0     H50682   1.607   4.206   0.808  0.1344  0.8590 -3.1619
  384MOL0     H50683   1.528   4.284   0.664 -3.6538  1.2533 -0.4011
  384MOL0     H50684   1.306   4.253   0.793  1.6902  2.4078  0.5623
  384MOL0     H50685   1.384   4.099   0.744 -0.1596  0.5313  0.5307
  384MOL0     H50686   1.427   4.070   1.154 -1.3189  2.6868 -0.4365
  384MOL0     H50687   1.800   4.625   0.615  0.3724  1.0301 -1.1101
  384MOL0     H50688   2.008   4.719   0.627 -1.2339  0.8686 -1.1496
  385MOL0     O50689   1.490   6.658   8.434  0.0126  0.0606  0.2553
  385MOL0     C50690   1.542   6.600   8.339  0.4975  0.6723  0.5789
  385MOL0     O50691   1.482   6.577   8.219 -0.3531  0.7309  0.0937
  385MOL0     C50692   1.353   6.614   8.191  0.2528  0.4573 -1.3688
  385MOL0     C50693   1.316   6.719   8.104 -0.7494  0.1197 -0.0943
  385MOL0     C50694   1.182   6.755   8.076 -0.2450  0.4678  0.1586
  385MOL0     C50695   1.081   6.671   8.121  0.2366  0.2516 -0.1189
  385MOL0     O50696   0.946   6.667   8.090  0.2900  0.5590  0.1118
  385MOL0     C50697   0.888   6.758   8.005 -0.3728  0.7442 -0.0669
  385MOL0     C50698   0.742   6.724   7.978 -0.3477 -0.3942  0.0329
  385MOL0     C50699   0.708   6.743   7.826 -0.4088 -0.0043 -0.1309
  385MOL0     C50700   0.562   6.708   7.789  0.8234  0.6744 -0.4211
  385MOL0     C50701   0.528   6.567   7.824 -0.4047  0.4049  0.9933
  385MOL0     C50702   0.612   6.454   7.745 -0.1720  0.4301 -0.8284
  385MOL0     C50703   0.588   6.317   7.805  0.7036  0.2173  0.1204
  385MOL0     C50704   0.491   6.230   7.730 -0.7714  0.0431 -0.1727
  385MOL0     N50705   0.363   6.283   7.695  0.0571  0.0066  0.2979
  385MOL0     C50706   0.255   6.314   7.785 -0.4385  0.0354 -0.5596
  385MOL0     C50707   0.144   6.361   7.714  0.0854 -0.0946 -1.4440
  385MOL0     C50708   0.010   6.418   7.754  0.9059  0.2219 -0.9073
  385MOL0     C50709  -0.024   6.542   7.659 -0.3803 -0.4121 -0.6501
  385MOL0     C50710  -0.169   6.585   7.671  0.7854 -0.1963  0.2727
  385MOL0     C50711  -0.192   6.655   7.814 -0.9768 -0.8582 -0.1921
  385MOL0     O50712  -0.320   6.720   7.831 -0.8786 -0.0748  0.4240
  385MOL0     C50713  -0.432   6.639   7.875 -0.1134 -0.3679  0.7566
  385MOL0     C50714  -0.429   6.499   7.901  0.4664 -1.3085 -0.0365
  385MOL0     C50715  -0.549   6.437   7.948  0.0368  0.1492 -0.0139
  385MOL0     C50716  -0.664   6.504   7.955 -0.4735 -0.5370 -0.1749
  385MOL0     C50717  -0.798   6.427   7.973 -0.2751 -0.7109  0.4570
  385MOL0     O50718  -0.788   6.294   7.962  0.9515 -0.0479 -0.7010
  385MOL0     C50719  -0.904   6.219   7.990  0.4871 -0.1505  1.3404
  385MOL0     C50720  -1.002   6.257   8.079  0.4042  0.3866  0.1509
  385MOL0     C50721  -1.112   6.169   8.103  0.0692 -0.1129 -0.4680
  385MOL0     C50722  -1.119   6.043   8.040 -0.2462 -0.6679  0.1522
  385MOL0     O50723  -1.217   5.952   8.054  0.4734  0.7294 -0.0501
  385MOL0     C50724  -1.341   5.970   8.137 -0.4073  0.5860 -0.0671
  385MOL0     C50725  -1.439   6.054   8.054  0.4508 -0.2174  0.0036
  385MOL0     C50726  -1.530   6.145   8.144 -0.5259 -0.1438  0.5249
  385MOL0     C50727  -1.678   6.111   8.152 -0.9843 -0.4370 -0.3770
  385MOL0     C50728  -1.705   5.977   8.233  0.0914 -0.6637 -0.1960
  385MOL0     C50729  -1.854   5.975   8.272 -0.2649 -0.4555 -0.3201
  385MOL0     C50730  -1.881   5.875   8.384  0.5928 -0.9002  0.2036
  385MOL0     C50731  -1.860   5.954   8.512  0.0915 -0.1621 -0.2231
  385MOL0    Cl50732  -2.010   6.058   8.543  0.2342  0.0018  0.1663
  385MOL0     C50733  -1.011   6.011   7.956 -0.3547  0.3481  0.5482
  385MOL0     C50734  -0.907   6.097   7.925 -1.6724 -0.3094 -0.6635
  385MOL0     O50735  -0.904   6.494   7.961 -0.1068 -0.2943 -0.3503
  385MOL0     C50736  -0.668   6.646   7.934 -0.8715  0.2605  0.5940
  385MOL0     C50737  -0.550   6.717   7.892  0.4002  0.5203  0.0655
  385MOL0     N50738   0.193   6.361   7.581 -1.0487  0.6037  0.5652
  385MOL0     N50739   0.308   6.307   7.578  0.0986  0.3279  0.4733
  385MOL0     C50740   1.110   6.576   8.223  0.0933  0.0982  0.4405
  385MOL0     C50741   1.245   6.544   8.247 -0.9499 -0.3667  0.1574
  385MOL0     C50742   1.685   6.571   8.346  0.4506 -0.5069 -0.5069
  385MOL0     C50743   1.755   6.539   8.231 -0.2710 -0.4195  0.3568
  385MOL0     C50744   1.895   6.521   8.240  0.0252 -0.2674 -0.3798
  385MOL0     C50745   1.966   6.562   8.351  1.1979  0.3187 -1.0155
  385MOL0     O50746   2.094   6.552   8.323 -0.3271 -0.3098  0.0106
  385MOL0     C50747   2.189   6.602   8.415  0.6628 -0.4357  0.5494
  385MOL0     C50748   2.333   6.627   8.356  0.4524  0.0164 -0.0502
  385MOL0     C50749   2.342   6.714   8.233 -0.3370 -0.6551  0.7609
  385MOL0     C50750   2.307   6.643   8.104 -0.3085 -0.5759 -0.0293
  385MOL0     C50751   2.340   6.728   7.992  0.7062 -0.0312 -0.4011
  385MOL0     C50752   2.354   6.806   7.903 -0.1667  0.1961 -0.4305
  385MOL0     C50753   1.896   6.612   8.468  0.2545  0.3146 -0.1355
  385MOL0     C50754   1.757   6.616   8.461 -0.1350  0.1150 -0.3124
  385MOL0     H50755   1.392   6.780   8.057 -2.0301  1.4146 -0.5501
  385MOL0     H50756   1.169   6.846   8.019  0.6319  2.1867  2.5105
  385MOL0     H50757   0.944   6.753   7.911  2.7949 -0.6652  1.7040
  385MOL0     H50758   0.900   6.860   8.042 -2.7760  0.9941  0.1806
  385MOL0     H50759   0.691   6.797   8.042  2.5518  1.9601 -0.1360
  385MOL0     H50760   0.732   6.618   8.004 -0.0112 -0.7572 -1.2599
  385MOL0     H50761   0.779   6.686   7.765  0.5316  2.1277 -1.1374
  385MOL0     H50762   0.726   6.849   7.811 -3.8612  1.0830  2.2311
  385MOL0     H50763   0.487   6.768   7.842 -1.5751 -0.7039 -2.0587
  385MOL0     H50764   0.548   6.730   7.682 -1.6871 -1.4637 -0.6520
  385MOL0     H50765   0.421   6.564   7.801 -0.0042 -2.4806 -1.0738
  385MOL0     H50766   0.532   6.545   7.931  3.0493 -0.7947  0.7485
  385MOL0     H50767   0.720   6.471   7.756  0.1091 -0.3211 -2.1247
  385MOL0     H50768   0.600   6.463   7.636 -0.2154  1.1132 -0.7712
  385MOL0     H50769   0.684   6.266   7.810 -0.0512 -1.2604  0.2561
  385MOL0     H50770   0.563   6.327   7.911  2.1864  0.4536  0.4653
  385MOL0     H50771   0.477   6.137   7.787 -0.1602 -0.5147 -0.9159
  385MOL0     H50772   0.546   6.186   7.647  2.7506 -0.0983  2.0153
  385MOL0     H50773   0.262   6.299   7.892 -2.4295 -3.3479 -0.7488
  385MOL0     H50774   0.015   6.453   7.857  0.2922 -0.2844 -0.6980
  385MOL0     H50775  -0.059   6.334   7.745  2.5978 -1.2990 -0.2199
  385MOL0     H50776  -0.015   6.508   7.556  1.5087  1.6269 -1.2351
  385MOL0     H50777   0.053   6.618   7.674 -0.0899 -0.7704 -0.2729
  385MOL0     H50778  -0.179   6.657   7.590  1.9946 -0.8573 -0.4998
  385MOL0     H50779  -0.227   6.494   7.653  1.2179 -0.3942 -0.1393
  385MOL0     H50780  -0.120   6.738   7.810 -0.3940 -1.4043 -2.9285
  385MOL0     H50781  -0.181   6.586   7.898  0.6825 -0.7007 -0.2443
  385MOL0     H50782  -0.342   6.438   7.881  1.1156 -0.3685 -0.1716
  385MOL0     H50783  -0.538   6.329   7.952  2.1109  0.2086 -1.8588
  385MOL0     H50784  -1.014   6.346   8.140  2.8890  2.7414 -2.5248
  385MOL0     H50785  -1.193   6.186   8.173  0.0376  0.3584 -0.6151
  385MOL0     H50786  -1.310   5.996   8.239 -3.0051 -4.1278  2.2713
  385MOL0     H50787  -1.369   5.866   8.159  0.7605  0.7022  2.3057
  385MOL0     H50788  -1.507   5.985   8.003 -2.0692  0.6568  1.9614
  385MOL0     H50789  -1.386   6.123   7.987  1.8664 -0.7649  0.5241
  385MOL0     H50790  -1.523   6.249   8.111 -1.0017 -0.0632  0.6662
  385MOL0     H50791  -1.479   6.146   8.241  1.9975 -1.0843 -0.6941
  385MOL0     H50792  -1.733   6.194   8.196 -0.7632  0.5044 -1.8235
  385MOL0     H50793  -1.714   6.114   8.049 -0.2465  1.7709 -0.6293
  385MOL0     H50794  -1.649   5.987   8.326  1.6568 -0.8510 -1.0971
  385MOL0     H50795  -1.668   5.886   8.185 -1.2784  0.0993 -2.8953
  385MOL0     H50796  -1.918   5.947   8.188  1.9084 -3.2160 -1.1854
  385MOL0     H50797  -1.890   6.077   8.293 -1.4912 -0.7444 -0.9498
  385MOL0     H50798  -1.983   5.837   8.380  0.6420 -1.1973  1.3089
  385MOL0     H50799  -1.831   5.778   8.368 -1.7310 -1.9360 -1.2701
  385MOL0     H50800  -1.774   6.021   8.496 -2.4173  2.8584 -2.3030
  385MOL0     H50801  -1.846   5.881   8.593  3.8550 -0.3030 -0.8368
  385MOL0     H50802  -1.009   5.915   7.904  0.7561  0.8116 -0.3176
  385MOL0     H50803  -0.831   6.076   7.850 -2.7500 -0.8720 -1.6352
  385MOL0     H50804  -0.761   6.702   7.929 -1.3042 -0.5113 -0.3889
  385MOL0     H50805  -0.565   6.823   7.874 -0.2528  0.2307 -1.2103
  385MOL0     H50806   1.039   6.523   8.285  0.6365 -1.8027 -0.4723
  385MOL0     H50807   1.265   6.459   8.311  0.3884 -1.2776 -1.3938
  385MOL0     H50808   1.698   6.504   8.145 -0.4230  0.1743  0.2105
  385MOL0     H50809   1.953   6.476   8.159 -2.6767 -3.8722 -0.5866
  385MOL0     H50810   2.184   6.540   8.505 -0.6479 -1.0870  0.0535
  385MOL0     H50811   2.167   6.703   8.449 -4.6645 -1.4472  0.9206
  385MOL0     H50812   2.389   6.677   8.436  2.7852 -0.5003 -1.2680
  385MOL0     H50813   2.383   6.531   8.341  0.4315 -0.0031  0.0050
  385MOL0     H50814   2.440   6.763   8.225 -1.5779  1.8157 -0.6817
  385MOL0     H50815   2.276   6.802   8.229 -0.9963 -1.1974 -1.3870
  385MOL0     H50816   2.364   6.550   8.094 -0.1851 -0.3935 -1.2868
  385MOL0     H50817   2.200   6.621   8.106 -2.0326  5.3245 -3.3638
  385MOL0     H50818   2.365   6.855   7.808 -0.9796 -1.4680 -1.4302
  385MOL0     H50819   1.940   6.650   8.560 -0.6807 -0.8053  0.8105
  385MOL0     H50820   1.713   6.668   8.546  3.5115  1.4598  0.9725
  386MOL0     O50821  10.185   6.002   3.260 -0.1197  0.2789  0.0856
  386MOL0     C50822  10.232   6.044   3.364 -0.9207  0.0111  0.4092
  386MOL0     O50823  10.156   6.077   3.475 -0.4022  0.8897  0.0397
  386MOL0     C50824  10.025   6.051   3.465  0.8905  0.6992 -0.0097
  386MOL0     C50825   9.940   6.159   3.493  0.4033  0.2278 -0.0859
  386MOL0     C50826   9.803   6.134   3.503  0.8218  1.3921  0.8673
  386MOL0     C50827   9.745   6.009   3.486 -0.3266  0.2516  0.1438
  386MOL0     O50828   9.604   5.992   3.478 -0.5951  1.1138  0.8397
  386MOL0     C50829   9.552   6.078   3.379 -0.0065 -0.5230  0.2128
  386MOL0     C50830   9.406   6.052   3.372 -0.3407 -0.4127  0.4137
  386MOL0     C50831   9.344   6.081   3.512  0.0336 -0.2729  1.1792
  386MOL0     C50832   9.184   6.113   3.499 -0.5822 -0.4930  0.3930
  386MOL0     C50833   9.110   5.994   3.424 -0.1691 -0.4637  0.2561
  386MOL0     C50834   8.957   6.014   3.428 -0.4194 -0.4350 -0.4202
  386MOL0     C50835   8.897   6.073   3.552  0.2299 -0.0796  0.0191
  386MOL0     C50836   8.750   6.032   3.567 -0.4632 -0.5114 -0.2574
  386MOL0     N50837   8.684   6.063   3.698 -0.0971  0.2652 -0.2171
  386MOL0     C50838   8.607   6.175   3.714 -0.1868 -0.1205  0.6381
  386MOL0     C50839   8.532   6.139   3.823 -0.6873  0.0072 -0.0874
  386MOL0     C50840   8.432   6.222   3.892 -0.1462 -0.4878 -0.3818
  386MOL0     C50841   8.315   6.150   3.954  1.1235  0.3369  0.4821
  386MOL0     C50842   8.233   6.247   4.057  0.5070  0.9133  0.4711
  386MOL0     C50843   8.087   6.197   4.072  0.8052 -0.3506  0.0355
  386MOL0     O50844   7.998   6.294   4.122 -0.1859  0.0675 -0.6527
  386MOL0     C50845   7.864   6.256   4.125  0.1704 -0.1907 -0.6354
  386MOL0     C50846   7.768   6.364   4.120 -0.6012  0.1679  1.1934
  386MOL0     C50847   7.629   6.354   4.130  0.4197 -0.6699 -0.1472
  386MOL0     C50848   7.577   6.221   4.137 -0.1699  0.2894  0.9884
  386MOL0     C50849   7.424   6.204   4.144 -0.7886 -0.5224 -0.2957
  386MOL0     O50850   7.378   6.086   4.185 -0.2157  0.2680 -0.3146
  386MOL0     C50851   7.250   6.084   4.235 -0.1879  0.3306 -0.7387
  386MOL0     C50852   7.149   6.018   4.169  0.1661  0.2218  0.3616
  386MOL0     C50853   7.025   5.998   4.231  0.8790 -0.1591  0.3663
  386MOL0     C50854   7.010   6.034   4.364  0.3929  0.7416  0.5727
  386MOL0     O50855   6.886   6.000   4.415 -0.0358 -0.5004 -0.5139
  386MOL0     C50856   6.831   6.074   4.527 -0.5262 -0.0905  0.0861
  386MOL0     C50857   6.684   6.021   4.556 -0.8560 -0.0231 -0.1570
  386MOL0     C50858   6.610   6.103   4.659  0.3096 -0.6311 -0.8895
  386MOL0     C50859   6.502   6.019   4.721 -0.9210  0.4461 -0.0855
  386MOL0     C50860   6.407   6.090   4.826 -0.0592 -0.2582 -0.6020
  386MOL0     C50861   6.269   6.021   4.819 -0.3116 -0.1617 -0.7145
  386MOL0     C50862   6.268   5.870   4.838 -0.1179 -0.0012  1.5548
  386MOL0     C50863   6.144   5.799   4.783  0.1891 -0.0898 -0.6980
  386MOL0    Cl50864   6.075   5.670   4.880  0.2339  0.0447 -0.4021
  386MOL0     C50865   7.116   6.093   4.436  0.9012 -0.1345 -0.4096
  386MOL0     C50866   7.232   6.120   4.371  0.2797 -0.0754 -0.1802
  386MOL0     O50867   7.353   6.300   4.116  0.1049  0.3492 -0.6414
  386MOL0     C50868   7.662   6.110   4.120  0.1363 -1.2230 -0.0280
  386MOL0     C50869   7.803   6.128   4.112 -1.0386  0.7251  0.8712
  386MOL0     N50870   8.554   6.012   3.857 -0.2920  0.7008  0.2080
  386MOL0     N50871   8.632   5.958   3.773 -0.3657 -1.1097  0.6516
  386MOL0     C50872   9.832   5.899   3.453 -0.7405 -0.4747  0.3414
  386MOL0     C50873   9.968   5.926   3.440  1.5543  0.1104  0.1029
  386MOL0     C50874  10.372   6.079   3.370 -1.0284 -0.0900 -0.1580
  386MOL0     C50875  10.438   6.116   3.488  0.6978  0.1610  0.3170
  386MOL0     C50876  10.578   6.128   3.504 -0.1068  0.5306 -0.5306
  386MOL0     C50877  10.661   6.087   3.405 -0.2378  0.0010 -0.0914
  386MOL0     O50878  10.799   6.089   3.402 -0.0354 -0.0042 -0.2757
  386MOL0     C50879  10.871   6.137   3.515  0.4083 -0.5880 -0.2220
  386MOL0     C50880  11.019   6.162   3.497 -0.4329  0.5181 -0.3574
  386MOL0     C50881  11.074   6.203   3.639  0.7787  0.0169  1.0607
  386MOL0     C50882  11.223   6.246   3.596  0.0107  0.0747 -0.5477
  386MOL0     C50883  11.308   6.260   3.714 -1.1295 -0.4222 -0.5723
  386MOL0     C50884  11.369   6.282   3.818 -0.3040 -0.4157  0.4650
  386MOL0     C50885  10.594   6.051   3.285 -0.4073  0.0358 -1.2100
  386MOL0     C50886  10.457   6.053   3.266  0.1981  0.7302 -0.6662
  386MOL0     H50887   9.980   6.256   3.523  2.7712 -0.8881  0.5976
  386MOL0     H50888   9.735   6.214   3.530 -1.2097 -0.5547  1.8366
  386MOL0     H50889   9.602   6.039   3.290 -1.4243  0.6675 -1.1595
  386MOL0     H50890   9.567   6.183   3.406 -2.0490 -0.1756  0.1383
  386MOL0     H50891   9.402   5.944   3.359  1.1443 -0.3608 -0.6055
  386MOL0     H50892   9.369   6.097   3.279 -0.1999 -1.5393 -0.1927
  386MOL0     H50893   9.393   6.167   3.558 -0.3197 -0.9353  2.8595
  386MOL0     H50894   9.348   6.000   3.585  1.4813 -0.5278  0.8516
  386MOL0     H50895   9.146   6.140   3.599  0.0753 -1.9922  1.0762
  386MOL0     H50896   9.178   6.195   3.428  1.5790 -0.8162 -0.2044
  386MOL0     H50897   9.142   5.898   3.466  0.6415 -0.1252  0.4365
  386MOL0     H50898   9.152   5.997   3.324  0.2044 -1.1133  0.3855
  386MOL0     H50899   8.915   5.915   3.408  3.0058 -1.5794 -2.8915
  386MOL0     H50900   8.925   6.084   3.349 -1.9462  2.0134  2.1771
  386MOL0     H50901   8.950   6.030   3.638  2.2539 -0.2018 -1.2457
  386MOL0     H50902   8.897   6.183   3.551 -1.8385 -0.0306  0.6649
  386MOL0     H50903   8.736   5.925   3.553 -0.3289 -0.5835  0.1311
  386MOL0     H50904   8.690   6.087   3.494 -0.9540  1.5800  1.5998
  386MOL0     H50905   8.601   6.264   3.652  0.6439  0.3591  1.2385
  386MOL0     H50906   8.404   6.308   3.831  2.5648  0.7897 -0.0067
  386MOL0     H50907   8.478   6.270   3.978 -3.0643  0.1229  0.9358
  386MOL0     H50908   8.353   6.067   4.013 -2.0231 -1.4919  0.1795
  386MOL0     H50909   8.241   6.118   3.880  1.7017  0.1675 -0.0254
  386MOL0     H50910   8.270   6.228   4.158  2.1593 -2.8250 -0.6628
  386MOL0     H50911   8.237   6.351   4.022  2.2359  1.5474  2.3716
  386MOL0     H50912   8.080   6.115   4.144 -1.5280  1.6026  2.2439
  386MOL0     H50913   8.039   6.167   3.979 -0.9136 -0.8689  1.0353
  386MOL0     H50914   7.825   6.456   4.111 -1.8520  0.7717 -2.6168
  386MOL0     H50915   7.567   6.443   4.123 -2.7780 -2.7803 -0.5346
  386MOL0     H50916   7.154   5.974   4.070  0.6086 -2.4688  1.5084
  386MOL0     H50917   6.952   5.926   4.196  1.2065 -0.2901 -0.0678
  386MOL0     H50918   6.823   6.179   4.500 -1.5257 -0.0889  0.3477
  386MOL0     H50919   6.899   6.066   4.612  0.6694  1.0335 -0.7503
  386MOL0     H50920   6.699   5.925   4.606  0.6775  1.2248  1.9812
  386MOL0     H50921   6.627   6.006   4.465 -1.7317  1.9928  0.0159
  386MOL0     H50922   6.561   6.187   4.609  1.0041 -0.3565 -1.1267
  386MOL0     H50923   6.673   6.163   4.725 -0.1084 -0.8235 -0.3152
  386MOL0     H50924   6.446   5.982   4.634  0.8124  0.1925 -1.1396
  386MOL0     H50925   6.549   5.927   4.757  1.3439 -0.2060 -4.0175
  386MOL0     H50926   6.389   6.195   4.799 -0.2819 -0.7694 -2.5862
  386MOL0     H50927   6.459   6.072   4.921  2.4537 -0.4713 -1.9286
  386MOL0     H50928   6.224   6.046   4.723 -3.7772 -2.1585  0.1714
  386MOL0     H50929   6.199   6.059   4.894 -2.2400 -1.2364 -1.8805
  386MOL0     H50930   6.357   5.826   4.793 -1.0898 -0.2304 -0.2335
  386MOL0     H50931   6.281   5.853   4.946 -2.4317  0.0910  1.9053
  386MOL0     H50932   6.174   5.769   4.682  0.8082  0.1505 -0.5887
  386MOL0     H50933   6.058   5.864   4.762 -2.2996 -3.4901 -1.7746
  386MOL0     H50934   7.104   6.128   4.538  0.9664  2.6793 -1.2866
  386MOL0     H50935   7.316   6.172   4.417  1.1894 -1.2699 -0.4164
  386MOL0     H50936   7.635   6.006   4.138  2.5124 -1.4550  3.1991
  386MOL0     H50937   7.863   6.038   4.105 -0.6672  1.0923 -3.7422
  386MOL0     H50938   9.792   5.799   3.434 -2.0806  0.2933 -1.0833
  386MOL0     H50939  10.038   5.848   3.413  0.4015 -0.7106 -0.6319
  386MOL0     H50940  10.368   6.132   3.569 -1.3147 -0.3301 -1.2217
  386MOL0     H50941  10.616   6.165   3.599  2.2212 -2.6747 -0.0653
  386MOL0     H50942  10.859   6.059   3.590  1.5092 -1.8965 -1.3539
  386MOL0     H50943  10.816   6.221   3.559 -0.0893 -0.4974 -0.9929
  386MOL0     H50944  11.056   6.065   3.465 -2.1107 -0.5639  0.7831
  386MOL0     H50945  11.024   6.232   3.413 -1.6089 -0.3350 -1.1757
  386MOL0     H50946  11.051   6.123   3.709 -2.8712  1.6375  1.9855
  386MOL0     H50947  11.009   6.286   3.671 -0.1716  0.1079 -0.9208
  386MOL0     H50948  11.268   6.184   3.518 -1.0024 -2.9841  1.1096
  386MOL0     H50949  11.216   6.347   3.557 -0.4063  0.4135  0.3629
  386MOL0     H50950  11.403   6.311   3.916  0.8592  1.0839 -0.3382
  386MOL0     H50951  10.653   6.028   3.197  1.5340 -0.0430  0.0590
  386MOL0     H50952  10.405   6.028   3.174 -1.3205 -0.5354  0.4722
  387MOL0     O50953   4.832   7.821  11.217 -0.7102 -0.0252  0.5514
  387MOL0     C50954   4.719   7.775  11.238  0.6819 -0.6090 -0.3366
  387MOL0     O50955   4.686   7.645  11.257  0.3470  0.2007  0.2016
  387MOL0     C50956   4.784   7.551  11.275 -0.4795  0.5881  0.2775
  387MOL0     C50957   4.875   7.569  11.371  0.2685  0.3146 -0.6764
  387MOL0     C50958   4.983   7.489  11.394  0.4574  0.2262 -0.5902
  387MOL0     C50959   5.005   7.377  11.319  0.1289  0.9697  0.2058
  387MOL0     O50960   5.097   7.278  11.363 -0.3976 -0.2303  0.5906
  387MOL0     C50961   5.084   7.147  11.311 -0.7307  0.8158 -0.5640
  387MOL0     C50962   5.171   7.053  11.392  0.0832  0.3631 -0.1814
  387MOL0     C50963   5.159   6.915  11.325  0.2825 -0.1075 -0.2599
  387MOL0     C50964   5.243   6.812  11.404 -0.2744  0.5809 -0.1039
  387MOL0     C50965   5.244   6.673  11.353 -0.4641 -0.5321  0.6242
  387MOL0     C50966   5.109   6.604  11.348 -0.7023 -0.3564 -0.4113
  387MOL0     C50967   5.112   6.448  11.354 -0.4873  0.2873  0.0681
  387MOL0     C50968   5.138   6.381  11.219 -0.5149 -0.1453  0.8391
  387MOL0     N50969   5.054   6.445  11.109  0.1928  0.3273 -0.0902
  387MOL0     C50970   5.096   6.542  11.016  0.1252 -0.4949  0.4259
  387MOL0     C50971   4.999   6.535  10.914 -0.3709 -0.2604  0.6911
  387MOL0     C50972   5.010   6.579  10.767  0.2878 -0.5085 -0.1619
  387MOL0     C50973   4.890   6.651  10.716  0.7929  0.3026  0.1012
  387MOL0     C50974   4.777   6.553  10.689  0.0813 -0.6151  0.2375
  387MOL0     C50975   4.643   6.612  10.679 -0.5656 -0.4817  0.4552
  387MOL0     O50976   4.640   6.739  10.615  0.3610 -0.0383  0.3688
  387MOL0     C50977   4.515   6.801  10.606  0.7192 -0.8559  0.2860
  387MOL0     C50978   4.525   6.933  10.557  0.2191  0.4002  0.0065
  387MOL0     C50979   4.411   6.998  10.532  0.1015 -0.9803 -0.3444
  387MOL0     C50980   4.286   6.951  10.572  0.4312  0.4108 -0.9111
  387MOL0     C50981   4.162   7.022  10.544  0.5055 -0.3360 -1.1276
  387MOL0     O50982   4.171   7.120  10.450  0.1347  0.6183  0.1885
  387MOL0     C50983   4.067   7.186  10.395  0.4145  0.0498 -0.8349
  387MOL0     C50984   4.060   7.327  10.371 -0.5947  0.7203 -0.4753
  387MOL0     C50985   3.949   7.380  10.309 -0.2394 -0.5901 -0.9082
  387MOL0     C50986   3.850   7.297  10.267  0.0208 -0.5749  0.3498
  387MOL0     O50987   3.755   7.374  10.197 -0.2152  0.4148  0.3873
  387MOL0     C50988   3.623   7.321  10.167  0.4833  0.6185 -0.3706
  387MOL0     C50989   3.515   7.389  10.236 -0.0005  0.4542 -0.2344
  387MOL0     C50990   3.377   7.322  10.202  1.0798  0.4401  0.9545
  387MOL0     C50991   3.337   7.333  10.051  0.1520 -0.2448  0.6055
  387MOL0     C50992   3.344   7.475   9.977  0.4657  0.8179  0.4539
  387MOL0     C50993   3.304   7.469   9.831  0.2472  0.2918  0.5986
  387MOL0     C50994   3.415   7.422   9.739  0.3969 -0.3534  0.2260
  387MOL0     C50995   3.381   7.420   9.590  1.1477 -0.6987  0.4190
  387MOL0    Cl50996   3.347   7.593   9.531  0.1656  0.6145 -0.0542
  387MOL0     C50997   3.851   7.157  10.288 -0.7440  0.2789  0.4494
  387MOL0     C50998   3.961   7.099  10.349  0.5453  0.3415 -0.6143
  387MOL0     O50999   4.057   6.978  10.599 -0.5798  0.1829  0.3014
  387MOL0     C51000   4.278   6.834  10.643 -0.2745 -0.2538  0.3873
  387MOL0     C51001   4.388   6.754  10.646 -0.2308  0.4414 -0.1749
  387MOL0     N51002   4.893   6.449  10.962 -0.0093 -0.8310 -0.2354
  387MOL0     N51003   4.929   6.394  11.070  0.4868  0.1775 -0.2070
  387MOL0     C51004   4.918   7.356  11.210 -0.6726  0.3757 -0.0520
  387MOL0     C51005   4.803   7.446  11.184 -0.8392 -0.1156 -0.0661
  387MOL0     C51006   4.603   7.861  11.234 -0.1050  0.1667 -1.1670
  387MOL0     C51007   4.472   7.816  11.255  0.3629  1.0120  0.7032
  387MOL0     C51008   4.358   7.902  11.265 -0.1741 -0.5320  0.4389
  387MOL0     C51009   4.380   8.046  11.257  0.3593  0.1517 -0.7352
  387MOL0     O51010   4.285   8.137  11.264  0.5792 -0.1294  0.1082
  387MOL0     C51011   4.167   8.112  11.334  0.5635  1.0686  0.9100
  387MOL0     C51012   4.148   8.182  11.468 -1.4691 -0.4290 -0.1075
  387MOL0     C51013   4.003   8.153  11.517 -0.6815  0.1650 -0.0170
  387MOL0     C51014   3.972   8.221  11.654  0.1290  0.5650 -0.4760
  387MOL0     C51015   3.835   8.191  11.712 -0.7680 -0.5056 -0.6029
  387MOL0     C51016   3.736   8.152  11.763  0.5831  0.3168  0.1348
  387MOL0     C51017   4.511   8.089  11.232  0.0448  0.9049 -0.2062
  387MOL0     C51018   4.620   7.996  11.226 -0.7805 -0.0781 -0.1680
  387MOL0     H51019   4.867   7.654  11.437 -0.1211 -0.8629  0.8703
  387MOL0     H51020   5.046   7.506  11.480 -1.3118  1.9049  0.4446
  387MOL0     H51021   5.123   7.144  11.209  2.4409  0.7004  0.5250
  387MOL0     H51022   4.982   7.108  11.318 -1.4856  2.8474  0.7605
  387MOL0     H51023   5.144   7.046  11.498  3.9825 -0.5555  0.9053
  387MOL0     H51024   5.278   7.073  11.396  0.6888 -2.1213 -1.6076
  387MOL0     H51025   5.197   6.926  11.223 -2.4407  0.3746 -1.3212
  387MOL0     H51026   5.054   6.886  11.314 -0.1339  1.2555 -0.1087
  387MOL0     H51027   5.347   6.845  11.402 -0.8578  2.7749 -3.3929
  387MOL0     H51028   5.220   6.822  11.510  3.8824  3.0926  0.7636
  387MOL0     H51029   5.315   6.622  11.419  0.4414  1.8168  1.5465
  387MOL0     H51030   5.290   6.684  11.254  0.9027 -2.0191  1.0437
  387MOL0     H51031   5.059   6.646  11.260  0.1951  0.9233 -0.3446
  387MOL0     H51032   5.048   6.641  11.430  0.5766  1.1392 -0.0894
  387MOL0     H51033   5.196   6.419  11.418 -0.8010 -0.3387  0.2043
  387MOL0     H51034   5.021   6.402  11.394 -1.7930  1.2093 -1.7190
  387MOL0     H51035   5.134   6.272  11.228 -0.5186 -0.4369 -1.8572
  387MOL0     H51036   5.240   6.401  11.185 -0.2595 -2.5993 -0.0160
  387MOL0     H51037   5.192   6.594  11.010 -0.6440  0.8756 -0.5273
  387MOL0     H51038   5.036   6.493  10.705  1.6710 -2.6346  3.0628
  387MOL0     H51039   5.093   6.649  10.762  1.5675 -1.9465  0.3204
  387MOL0     H51040   4.916   6.682  10.614  1.7007 -1.6967 -0.3435
  387MOL0     H51041   4.859   6.735  10.778  0.2596  1.2004 -1.3383
  387MOL0     H51042   4.807   6.501  10.598  0.0250  1.2924 -0.9330
  387MOL0     H51043   4.770   6.473  10.763 -0.1332 -0.9222 -0.1124
  387MOL0     H51044   4.601   6.625  10.779 -1.4257  2.9638 -0.2313
  387MOL0     H51045   4.578   6.537  10.632  0.9020 -1.5643  0.0740
  387MOL0     H51046   4.623   6.968  10.525  0.8323 -1.5272 -0.3124
  387MOL0     H51047   4.425   7.092  10.479  0.8612 -0.2336  1.1387
  387MOL0     H51048   4.146   7.390  10.394  0.1574  0.0401 -1.3536
  387MOL0     H51049   3.951   7.484  10.278 -0.1733 -0.8119 -1.6684
  387MOL0     H51050   3.620   7.217  10.198  0.6629  0.8814  0.5523
  387MOL0     H51051   3.611   7.335  10.059 -3.8134  1.4603  0.0543
  387MOL0     H51052   3.515   7.498  10.233  0.5501  0.4728  0.2495
  387MOL0     H51053   3.530   7.369  10.343 -1.9739  0.0500  0.0046
  387MOL0     H51054   3.294   7.353  10.267 -0.7949 -2.7698  0.2634
  387MOL0     H51055   3.397   7.218  10.229 -2.4614 -0.2494  1.5196
  387MOL0     H51056   3.407   7.268   9.998 -0.4050 -1.4116  1.2666
  387MOL0     H51057   3.236   7.291  10.042  0.0589  0.2418 -1.0894
  387MOL0     H51058   3.445   7.516   9.987  1.0733 -1.0301  2.6396
  387MOL0     H51059   3.277   7.540  10.035 -2.3285 -1.7062  0.2714
  387MOL0     H51060   3.264   7.563   9.790 -1.9714 -0.2377  1.3864
  387MOL0     H51061   3.226   7.396   9.808 -0.7653  2.1902 -2.7225
  387MOL0     H51062   3.498   7.493   9.751  0.5450 -0.3757 -0.5654
  387MOL0     H51063   3.451   7.324   9.772  0.9203 -0.7825 -1.5241
  387MOL0     H51064   3.299   7.348   9.577 -0.2973  1.2488 -2.3178
  387MOL0     H51065   3.465   7.389   9.527  0.1117  1.9120 -2.5319
  387MOL0     H51066   3.777   7.084  10.256 -1.7057  2.1603 -1.9549
  387MOL0     H51067   3.965   6.992  10.371  0.1628  0.6793  1.2954
  387MOL0     H51068   4.193   6.812  10.708  0.0195  1.9241  1.5941
  387MOL0     H51069   4.370   6.668  10.711  2.8778 -0.7739 -0.7697
  387MOL0     H51070   4.924   7.259  11.162 -0.1366  0.6975 -0.6468
  387MOL0     H51071   4.746   7.434  11.093  2.5727 -2.8251 -2.0734
  387MOL0     H51072   4.436   7.714  11.264 -0.4379  1.3621  1.5237
  387MOL0     H51073   4.262   7.853  11.252  0.4156 -1.4434 -0.6983
  387MOL0     H51074   4.152   8.004  11.342  0.1761  0.8544 -1.8109
  387MOL0     H51075   4.084   8.154  11.277 -0.1267 -2.4357 -0.9344
  387MOL0     H51076   4.218   8.133  11.536 -1.5368 -0.6925 -0.2247
  387MOL0     H51077   4.180   8.286  11.466  1.4876 -1.1692  2.0370
  387MOL0     H51078   4.019   8.046  11.532 -0.3525  0.3321  0.8631
  387MOL0     H51079   3.920   8.166  11.447 -0.6026  2.8275  0.2644
  387MOL0     H51080   4.051   8.185  11.721  0.3567 -2.5095 -2.1916
  387MOL0     H51081   3.968   8.330  11.646  0.7325  0.8423  2.0429
  387MOL0     H51082   3.647   8.104  11.798 -1.5843  1.7272 -2.9517
  387MOL0     H51083   4.521   8.197  11.222 -1.1981  1.1761  1.0119
  387MOL0     H51084   4.719   8.041  11.219  1.9490 -5.2743  0.4199
  388MOL0     O51085   0.325   8.860   2.533 -0.2858 -0.0416 -0.1415
  388MOL0     C51086   0.332   8.902   2.417  0.8309 -0.1478  0.2804
  388MOL0     O51087   0.237   8.969   2.358 -0.1418 -0.5527  0.8494
  388MOL0     C51088   0.133   9.015   2.433  0.6813 -0.1543  1.1977
  388MOL0     C51089  -0.003   8.990   2.402  0.9812 -0.7527  0.0499
  388MOL0     C51090  -0.114   9.035   2.486  0.3009  0.3201 -0.9626
  388MOL0     C51091  -0.085   9.112   2.602 -0.4491  0.6319  0.3412
  388MOL0     O51092  -0.185   9.159   2.683 -0.6107 -0.0653  0.5154
  388MOL0     C51093  -0.311   9.093   2.680 -0.3969  0.0359 -0.3215
  388MOL0     C51094  -0.377   9.150   2.798 -0.6696  1.0478  0.6010
  388MOL0     C51095  -0.523   9.098   2.795  0.0134 -0.5636  0.2215
  388MOL0     C51096  -0.615   9.173   2.894 -0.0209 -0.2675 -0.0821
  388MOL0     C51097  -0.634   9.323   2.855  0.1954 -0.8218 -0.2123
  388MOL0     C51098  -0.706   9.405   2.962  0.0294 -0.3747 -0.3164
  388MOL0     C51099  -0.858   9.383   2.971  0.5810  0.8922 -0.1787
  388MOL0     C51100  -0.913   9.457   3.088  1.3070 -0.0478 -0.7798
  388MOL0     N51101  -1.044   9.413   3.129 -0.1423  0.2031  0.0417
  388MOL0     C51102  -1.063   9.326   3.233 -1.0502  0.5902 -0.1533
  388MOL0     C51103  -1.195   9.324   3.254  0.2190  0.1697  0.5176
  388MOL0     C51104  -1.266   9.228   3.349 -0.0856 -0.9331  0.1313
  388MOL0     C51105  -1.419   9.253   3.357 -0.1537 -0.7585  0.0394
  388MOL0     C51106  -1.485   9.178   3.474 -0.5344  0.0958 -0.7377
  388MOL0     C51107  -1.634   9.198   3.483  0.3118 -1.2158 -0.1599
  388MOL0     O51108  -1.672   9.163   3.622  0.0827 -0.6687  0.1640
  388MOL0     C51109  -1.799   9.178   3.665  0.4441 -0.3575 -0.3415
  388MOL0     C51110  -1.906   9.188   3.581  0.1415 -0.3369 -0.3193
  388MOL0     C51111  -2.031   9.171   3.631  0.3808 -0.1937  0.0262
  388MOL0     C51112  -2.058   9.134   3.766 -0.4744  0.1457  0.1071
  388MOL0     C51113  -2.197   9.108   3.813  0.0383  0.1579  0.3763
  388MOL0     O51114  -2.208   9.096   3.950  0.9384  0.0133 -0.7791
  388MOL0     C51115  -2.338   9.081   3.997 -1.4261  0.0159 -0.1242
  388MOL0     C51116  -2.409   8.969   3.963  0.6240  0.7771 -0.1405
  388MOL0     C51117  -2.527   8.940   4.018  0.4015  0.0135 -0.2918
  388MOL0     C51118  -2.591   9.028   4.118 -0.9671 -0.5012  0.4715
  388MOL0     O51119  -2.714   8.991   4.167 -0.1292 -1.0836  0.4809
  388MOL0     C51120  -2.759   9.072   4.278  0.3510 -0.0452  0.1396
  388MOL0     C51121  -2.888   9.007   4.342  0.2400 -0.1756 -1.1135
  388MOL0     C51122  -2.983   8.952   4.244  0.1063  0.2720  0.5205
  388MOL0     C51123  -3.121   8.910   4.305 -0.4094 -0.6191 -0.4019
  388MOL0     C51124  -3.194   8.828   4.201  0.2007 -0.7700  0.4312
  388MOL0     C51125  -3.316   8.745   4.243 -0.1040  0.5312 -0.8760
  388MOL0     C51126  -3.298   8.632   4.348 -0.1229 -0.1652 -0.3972
  388MOL0     C51127  -3.410   8.531   4.370  0.0104  0.3874  0.0010
  388MOL0    Cl51128  -3.458   8.439   4.231  0.0116 -0.3129  0.0819
  388MOL0     C51129  -2.517   9.136   4.153 -0.0580 -0.6881  0.3435
  388MOL0     C51130  -2.395   9.168   4.086  0.7715  0.2588  0.6930
  388MOL0     O51131  -2.288   9.104   3.735 -0.1202  0.2360  0.4158
  388MOL0     C51132  -1.946   9.134   3.851 -0.6505 -0.8285  0.0278
  388MOL0     C51133  -1.818   9.167   3.804 -0.4569  0.4484  0.6310
  388MOL0     N51134  -1.253   9.403   3.162 -0.3471 -0.5808  0.5136
  388MOL0     N51135  -1.161   9.453   3.083  0.0460  0.2231 -0.0402
  388MOL0     C51136   0.043   9.147   2.626 -0.7085  0.4682  0.5659
  388MOL0     C51137   0.154   9.092   2.546  0.0660 -0.0667  0.2139
  388MOL0     C51138   0.452   8.863   2.349 -0.8597 -0.1305 -0.3739
  388MOL0     C51139   0.566   8.814   2.426 -0.4247  0.3691  0.2224
  388MOL0     C51140   0.691   8.789   2.362 -0.2187 -0.2802  0.2323
  388MOL0     C51141   0.697   8.807   2.223  0.5528 -0.2541 -0.3448
  388MOL0     O51142   0.801   8.775   2.131  0.2239  0.2607  0.1727
  388MOL0     C51143   0.918   8.706   2.187  0.3135  0.3245  0.2657
  388MOL0     C51144   1.030   8.720   2.089 -0.2596  0.3174 -0.8162
  388MOL0     C51145   1.029   8.610   1.981  0.1424  0.5498  0.9657
  388MOL0     C51146   1.123   8.653   1.869  0.6995  0.7434  0.5708
  388MOL0     C51147   1.238   8.557   1.872  0.3161 -0.0422 -0.2916
  388MOL0     C51148   1.323   8.472   1.883  0.5189 -0.6365 -0.3255
  388MOL0     C51149   0.589   8.861   2.153 -0.2977  0.2254  0.3213
  388MOL0     C51150   0.466   8.874   2.209 -0.0332 -1.0558  0.1612
  388MOL0     H51151  -0.014   8.932   2.311 -1.5211 -1.0094  0.4442
  388MOL0     H51152  -0.217   9.014   2.459  0.2072 -0.1816 -0.2419
  388MOL0     H51153  -0.294   8.985   2.683  2.9179  0.4770  0.4307
  388MOL0     H51154  -0.363   9.112   2.585  0.0659 -3.3671 -1.4008
  388MOL0     H51155  -0.370   9.259   2.789 -2.3264  1.0524 -1.1380
  388MOL0     H51156  -0.319   9.108   2.882 -2.4024 -0.4743  1.0943
  388MOL0     H51157  -0.520   8.991   2.818 -1.8524 -0.6283  0.3500
  388MOL0     H51158  -0.562   9.099   2.693  0.2047 -1.3806  0.1339
  388MOL0     H51159  -0.716   9.129   2.889  0.4578 -1.3086 -1.2547
  388MOL0     H51160  -0.577   9.167   2.996 -0.1997  0.8549  0.0621
  388MOL0     H51161  -0.697   9.341   2.767 -1.4049  1.8719  1.3172
  388MOL0     H51162  -0.533   9.363   2.843 -0.2526  0.6177  0.5665
  388MOL0     H51163  -0.685   9.512   2.951 -0.1434 -0.5725 -3.7905
  388MOL0     H51164  -0.664   9.379   3.059 -3.3122 -0.2066  1.3250
  388MOL0     H51165  -0.913   9.386   2.876 -2.6723 -0.3626  1.5122
  388MOL0     H51166  -0.863   9.281   3.009  0.3294  0.6795 -0.7756
  388MOL0     H51167  -0.924   9.563   3.061 -0.8925 -0.5116 -1.9581
  388MOL0     H51168  -0.843   9.447   3.171 -0.3101  1.7869  0.9070
  388MOL0     H51169  -0.980   9.277   3.281 -1.6766 -0.7250 -0.3653
  388MOL0     H51170  -1.228   9.247   3.449  0.1320  0.2623 -0.1541
  388MOL0     H51171  -1.243   9.123   3.331  2.7135 -0.6507  1.5752
  388MOL0     H51172  -1.457   9.212   3.263  0.2591  0.8974 -0.9077
  388MOL0     H51173  -1.451   9.357   3.341 -2.5652 -0.9685  2.7719
  388MOL0     H51174  -1.475   9.070   3.462 -2.5751 -0.3214  0.7661
  388MOL0     H51175  -1.434   9.209   3.566  0.2589  0.5800 -1.3303
  388MOL0     H51176  -1.676   9.131   3.407  4.0738 -3.1552 -0.7417
  388MOL0     H51177  -1.668   9.301   3.469 -2.4855 -2.2467 -1.7487
  388MOL0     H51178  -1.891   9.217   3.477  1.8668  0.9478  0.2293
  388MOL0     H51179  -2.117   9.188   3.568 -0.1454  1.1977  1.0583
  388MOL0     H51180  -2.368   8.887   3.905  1.9068  0.2567  1.4473
  388MOL0     H51181  -2.588   8.858   3.981 -2.7960  2.2820 -0.4543
  388MOL0     H51182  -2.784   9.170   4.235 -0.1455 -0.5984 -0.8554
  388MOL0     H51183  -2.677   9.074   4.350  0.0758 -4.6585  0.8605
  388MOL0     H51184  -2.926   9.071   4.423  2.6017  3.7912 -2.8226
  388MOL0     H51185  -2.853   8.921   4.400  1.4684 -0.1637 -1.8169
  388MOL0     H51186  -2.935   8.869   4.191  2.4218  0.2262  2.4908
  388MOL0     H51187  -3.005   9.023   4.164  3.3920  0.8075 -0.0468
  388MOL0     H51188  -3.109   8.852   4.397 -0.5916 -0.9134 -0.5645
  388MOL0     H51189  -3.183   8.996   4.333 -1.0741 -0.9394 -0.8766
  388MOL0     H51190  -3.123   8.774   4.138  0.1235  0.7761 -1.0603
  388MOL0     H51191  -3.224   8.906   4.130  1.9357  0.0885  0.6109
  388MOL0     H51192  -3.361   8.707   4.152 -0.5868  2.4326 -1.4800
  388MOL0     H51193  -3.387   8.813   4.291 -0.1732 -0.0720 -0.0964
  388MOL0     H51194  -3.207   8.573   4.328  0.7454  0.0447  2.4569
  388MOL0     H51195  -3.286   8.689   4.440 -1.3880  3.1777 -2.1416
  388MOL0     H51196  -3.502   8.578   4.406 -0.6356 -0.1221 -0.9463
  388MOL0     H51197  -3.375   8.454   4.439 -3.1569 -1.6208 -0.4307
  388MOL0     H51198  -2.557   9.203   4.229 -0.1863  3.1404 -2.8123
  388MOL0     H51199  -2.336   9.254   4.117 -0.1533  0.9320  0.5979
  388MOL0     H51200  -1.968   9.105   3.954 -5.3796 -0.2182 -0.5926
  388MOL0     H51201  -1.725   9.152   3.858 -1.9218 -1.6366  2.7678
  388MOL0     H51202   0.073   9.212   2.707  0.2052  0.4749  0.2391
  388MOL0     H51203   0.254   9.128   2.568  1.8753 -3.9953 -0.6766
  388MOL0     H51204   0.568   8.802   2.534  2.2337  2.7931  0.5559
  388MOL0     H51205   0.777   8.752   2.417  0.0417  0.9784  0.7051
  388MOL0     H51206   0.901   8.598   2.176 -1.1444  0.5877 -0.2959
  388MOL0     H51207   0.951   8.726   2.289  1.0730 -2.5315  0.6590
  388MOL0     H51208   1.021   8.818   2.042  1.8125  1.5121  1.0907
  388MOL0     H51209   1.128   8.711   2.138 -1.5655  0.2979  1.9402
  388MOL0     H51210   0.935   8.608   1.925 -0.2917  3.4401  1.4822
  388MOL0     H51211   1.049   8.510   2.021 -0.6861 -0.7823 -1.6983
  388MOL0     H51212   1.064   8.650   1.777 -1.2751  1.7569  1.7299
  388MOL0     H51213   1.171   8.750   1.888 -0.3661  1.1389  1.3781
  388MOL0     H51214   1.409   8.410   1.898  2.2507  1.1782 -2.0052
  388MOL0     H51215   0.607   8.875   2.047  0.5452 -3.8672 -0.2568
  388MOL0     H51216   0.391   8.911   2.140  0.3801 -1.2559 -0.4022
  389MOL0     O51217   2.234   7.151   6.826  0.0255 -0.0922 -0.2115
  389MOL0     C51218   2.226   7.167   6.697 -0.5071 -0.4405  0.3715
  389MOL0     O51219   2.110   7.178   6.625 -0.7812 -0.3852  0.6162
  389MOL0     C51220   1.994   7.181   6.689 -0.3114 -1.3122  0.2102
  389MOL0     C51221   1.927   7.069   6.743  0.0673 -0.3680  0.5110
  389MOL0     C51222   1.798   7.080   6.796  0.2549 -0.1395 -0.4115
  389MOL0     C51223   1.731   7.202   6.796  0.1288 -0.6290 -0.5403
  389MOL0     O51224   1.608   7.208   6.860 -0.1089 -0.4219 -0.5608
  389MOL0     C51225   1.572   7.347   6.907 -0.1643 -0.0236  0.2071
  389MOL0     C51226   1.471   7.329   7.017 -0.4050  0.0013  0.3359
  389MOL0     C51227   1.407   7.465   7.058 -0.2444 -0.6638 -0.4148
  389MOL0     C51228   1.264   7.455   7.112 -0.5376 -0.1753  0.0331
  389MOL0     C51229   1.222   7.592   7.165  0.2518  0.7760  0.5133
  389MOL0     C51230   1.069   7.590   7.178  0.8471 -0.2257 -1.5013
  389MOL0     C51231   1.020   7.716   7.253  0.5683 -0.8460 -0.1045
  389MOL0     C51232   0.872   7.711   7.294 -0.1771  0.4367 -0.5312
  389MOL0     N51233   0.794   7.842   7.291 -0.3171  0.9375 -0.0430
  389MOL0     C51234   0.663   7.854   7.246  0.3045 -0.2286 -0.4702
  389MOL0     C51235   0.623   7.970   7.301 -0.0413 -0.5717  0.4557
  389MOL0     C51236   0.491   8.030   7.262 -0.4073  0.0981 -0.1710
  389MOL0     C51237   0.371   7.938   7.279  0.8585  0.3326  1.1675
  389MOL0     C51238   0.241   8.019   7.233  0.2780  0.4232 -0.3596
  389MOL0     C51239   0.117   7.921   7.245 -0.4123 -0.7304  0.1141
  389MOL0     O51240   0.006   7.997   7.209 -0.1951  0.3755  0.6997
  389MOL0     C51241  -0.015   8.005   7.078  0.7139 -0.5819  0.2142
  389MOL0     C51242  -0.007   7.900   6.980  0.0601  0.5568 -0.4554
  389MOL0     C51243  -0.047   7.926   6.852 -0.4827  0.1808  0.4672
  389MOL0     C51244  -0.094   8.057   6.817 -0.3895  0.1634 -1.1600
  389MOL0     C51245  -0.099   8.101   6.676  0.1178  0.3561  0.0688
  389MOL0     O51246  -0.025   8.040   6.582 -0.1446 -0.3204 -1.1520
  389MOL0     C51247   0.001   8.117   6.470 -0.2877  0.1436 -0.3704
  389MOL0     C51248  -0.047   8.071   6.345 -0.0343 -0.0187 -1.0944
  389MOL0     C51249  -0.010   8.141   6.233  0.4567 -0.2031  0.1737
  389MOL0     C51250   0.052   8.263   6.233 -0.9526 -0.5184  0.3124
  389MOL0     O51251   0.065   8.325   6.113  0.3457  0.1788  0.2272
  389MOL0     C51252   0.152   8.440   6.124  0.5921 -0.1261  0.8166
  389MOL0     C51253   0.206   8.476   5.980  0.3197 -0.5226  0.1303
  389MOL0     C51254   0.321   8.381   5.936  0.0278 -0.5912  0.5556
  389MOL0     C51255   0.280   8.234   5.950 -0.1693 -0.6693 -0.2470
  389MOL0     C51256   0.395   8.154   5.886 -0.7311  0.4699 -0.8275
  389MOL0     C51257   0.384   8.009   5.916 -0.2950  0.7583 -0.8016
  389MOL0     C51258   0.460   7.934   5.819  0.4710 -0.3718 -0.7165
  389MOL0     C51259   0.462   7.787   5.839  0.6822 -0.0433  0.8827
  389MOL0    Cl51260   0.584   7.717   5.728 -0.2904  0.3245 -0.1508
  389MOL0     C51261   0.096   8.306   6.364 -0.2934 -0.8187 -0.8633
  389MOL0     C51262   0.068   8.229   6.476  0.0652 -1.1692  0.3404
  389MOL0     O51263  -0.177   8.191   6.654  0.5134 -0.8345  0.5181
  389MOL0     C51264  -0.104   8.156   6.913  0.2701 -0.6454 -0.2825
  389MOL0     C51265  -0.078   8.126   7.046 -0.3311 -0.8255  0.2430
  389MOL0     N51266   0.718   8.023   7.385  0.3107 -0.4485  0.1080
  389MOL0     N51267   0.820   7.951   7.370  0.5996  0.9919  0.0995
  389MOL0     C51268   1.787   7.311   6.737 -0.1179  0.1870  0.1601
  389MOL0     C51269   1.920   7.301   6.683 -0.2152 -0.3852  0.5262
  389MOL0     C51270   2.352   7.185   6.623  0.3046 -0.0566  0.2045
  389MOL0     C51271   2.368   7.183   6.478 -0.4901  0.2095 -0.4640
  389MOL0     C51272   2.491   7.221   6.412 -0.2824  0.4269  0.7138
  389MOL0     C51273   2.603   7.243   6.491 -0.4292  0.9614  0.8691
  389MOL0     O51274   2.717   7.297   6.432  0.2275 -0.0750  0.5747
  389MOL0     C51275   2.838   7.294   6.504  0.4745 -0.2353  0.6750
  389MOL0     C51276   2.952   7.288   6.405  0.0866 -1.0426  0.4489
  389MOL0     C51277   2.933   7.401   6.293  0.3505  0.4540 -0.2996
  389MOL0     C51278   3.065   7.418   6.221 -0.5835 -0.7857 -0.0147
  389MOL0     C51279   3.177   7.478   6.296  0.1437 -0.0480 -0.3478
  389MOL0     C51280   3.256   7.549   6.355 -0.2320  0.0902  0.2927
  389MOL0     C51281   2.594   7.233   6.628 -0.1757  0.2060  0.3977
  389MOL0     C51282   2.470   7.202   6.692  0.7344 -0.0686  0.4301
  389MOL0     H51283   1.976   6.973   6.736 -1.9196 -1.3070 -1.8866
  389MOL0     H51284   1.747   6.993   6.837  2.1339 -0.2885  1.8157
  389MOL0     H51285   1.535   7.403   6.821  1.9655 -2.1691 -2.3220
  389MOL0     H51286   1.663   7.388   6.952  0.2578 -0.6267 -0.0778
  389MOL0     H51287   1.520   7.281   7.103 -1.7621 -1.6952  0.2153
  389MOL0     H51288   1.387   7.266   6.987 -1.5255  0.8329  1.6309
  389MOL0     H51289   1.399   7.535   6.974 -3.4133 -3.2741 -2.5414
  389MOL0     H51290   1.472   7.511   7.133 -1.8237 -2.2128  2.0404
  389MOL0     H51291   1.193   7.425   7.035 -0.8660  3.7594 -1.4457
  389MOL0     H51292   1.280   7.387   7.196  4.4616  0.3516 -0.2115
  389MOL0     H51293   1.261   7.654   7.084  2.1001 -2.5794 -1.4199
  389MOL0     H51294   1.276   7.625   7.254  0.0117  0.4700  0.7747
  389MOL0     H51295   1.030   7.500   7.227 -1.3259  0.5156 -1.7818
  389MOL0     H51296   1.017   7.579   7.082 -0.8894 -2.8439 -0.3917
  389MOL0     H51297   1.078   7.761   7.334 -1.7170  3.0707 -0.4208
  389MOL0     H51298   1.024   7.796   7.179  1.4728 -0.7237  0.0652
  389MOL0     H51299   0.868   7.669   7.394  0.5641 -3.1196 -1.8416
  389MOL0     H51300   0.822   7.636   7.230  4.0052 -3.4292  0.2502
  389MOL0     H51301   0.604   7.794   7.178 -0.8256  0.1046  0.1920
  389MOL0     H51302   0.496   8.054   7.156 -1.7424  0.0877 -0.2496
  389MOL0     H51303   0.469   8.122   7.317 -0.8149  0.0571 -0.2655
  389MOL0     H51304   0.369   7.921   7.387  2.5582  0.1415  1.1904
  389MOL0     H51305   0.374   7.845   7.221  4.5017  0.4595  0.9676
  389MOL0     H51306   0.233   8.103   7.302 -0.3057  1.6066 -1.8120
  389MOL0     H51307   0.276   8.059   7.137  2.6081  1.9636  1.0442
  389MOL0     H51308   0.107   7.888   7.349  3.7265  0.8325  1.1909
  389MOL0     H51309   0.127   7.832   7.182  0.7259  0.5639 -1.6330
  389MOL0     H51310   0.020   7.798   7.006 -1.8169  0.0588 -0.2849
  389MOL0     H51311  -0.038   7.854   6.771 -0.5689  1.1439 -0.4323
  389MOL0     H51312  -0.098   7.976   6.337  0.7156 -0.8071  2.3041
  389MOL0     H51313  -0.032   8.116   6.130 -1.5938  1.7338  0.0693
  389MOL0     H51314   0.246   8.430   6.179  1.3644  1.4192 -0.1533
  389MOL0     H51315   0.093   8.522   6.168 -0.5139  0.5953 -1.8240
  389MOL0     H51316   0.245   8.579   5.976  2.0886 -1.1754 -2.0510
  389MOL0     H51317   0.126   8.477   5.905 -0.2413  0.4827  0.7262
  389MOL0     H51318   0.411   8.415   5.988  0.1929 -0.1736  0.0088
  389MOL0     H51319   0.338   8.394   5.829  0.8476 -1.7276  0.5345
  389MOL0     H51320   0.271   8.218   6.058  0.4432 -0.6569 -0.1904
  389MOL0     H51321   0.181   8.216   5.907 -0.8472  1.7808  0.1423
  389MOL0     H51322   0.495   8.192   5.910 -0.5669 -0.8354  0.7140
  389MOL0     H51323   0.387   8.181   5.780 -2.0138  2.7684 -0.2188
  389MOL0     H51324   0.281   7.973   5.927  0.6028 -1.4846  1.1919
  389MOL0     H51325   0.434   7.977   6.008 -2.2918 -0.7336 -0.1711
  389MOL0     H51326   0.416   7.954   5.722 -3.1322  2.0284  1.1966
  389MOL0     H51327   0.565   7.966   5.820  0.1213  0.8305 -0.8571
  389MOL0     H51328   0.365   7.738   5.832  1.9182 -2.7472  1.1854
  389MOL0     H51329   0.479   7.757   5.943 -2.6683 -0.8996  1.3029
  389MOL0     H51330   0.142   8.403   6.381  1.1580 -1.7160  0.6353
  389MOL0     H51331   0.099   8.263   6.574  0.7815 -3.1251  0.8272
  389MOL0     H51332  -0.128   8.261   6.895 -0.3037 -0.4611  1.3497
  389MOL0     H51333  -0.096   8.206   7.118  2.1631  0.6135 -0.5914
  389MOL0     H51334   1.737   7.406   6.721 -1.0068 -0.5521 -1.7000
  389MOL0     H51335   1.975   7.381   6.634 -1.1365 -0.1096 -0.1018
  389MOL0     H51336   2.282   7.157   6.417  1.0915 -0.7259 -2.4291
  389MOL0     H51337   2.497   7.211   6.304  0.1851  0.2370  0.7567
  389MOL0     H51338   2.851   7.206   6.568 -0.7276  0.3042  1.6979
  389MOL0     H51339   2.849   7.391   6.553 -1.8824  0.7602 -0.5916
  389MOL0     H51340   3.042   7.297   6.467 -0.1680  0.9503  0.5838
  389MOL0     H51341   2.955   7.187   6.362  2.2975 -2.2677  3.1350
  389MOL0     H51342   2.904   7.498   6.334 -0.1009 -0.3215  1.2682
  389MOL0     H51343   2.854   7.367   6.225 -0.4054 -0.7049  1.1041
  389MOL0     H51344   3.103   7.322   6.185  0.4884  0.0840 -1.2996
  389MOL0     H51345   3.039   7.486   6.139 -2.0903 -0.9347  0.3059
  389MOL0     H51346   3.323   7.610   6.412 -0.7791  0.6556  0.3511
  389MOL0     H51347   2.678   7.257   6.693  1.0976  2.2051 -1.7959
  389MOL0     H51348   2.476   7.191   6.800 -0.0141  1.7271  0.6863
  390MOL0     O51349   8.532   9.757   5.353  0.5360  1.1031  0.3694
  390MOL0     C51350   8.606   9.680   5.293  0.6002  0.8057  0.4311
  390MOL0     O51351   8.563   9.569   5.220  0.0112 -0.4420 -0.0134
  390MOL0     C51352   8.424   9.543   5.230 -0.3958 -0.9972  0.7382
  390MOL0     C51353   8.362   9.494   5.348 -0.4742 -0.0337 -0.4721
  390MOL0     C51354   8.230   9.448   5.344  1.2651  0.7412  0.1430
  390MOL0     C51355   8.154   9.434   5.230  0.4111 -0.2172 -0.3302
  390MOL0     O51356   8.020   9.391   5.241  0.4114 -0.2721  1.1737
  390MOL0     C51357   7.986   9.298   5.141  0.2007 -0.3197  0.1934
  390MOL0     C51358   7.845   9.239   5.149 -0.7663 -0.6094 -0.0066
  390MOL0     C51359   7.742   9.331   5.069  1.1944  0.9274  0.0226
  390MOL0     C51360   7.606   9.270   5.084 -0.0280 -0.2308 -0.4224
  390MOL0     C51361   7.503   9.331   4.992  0.5438  0.1414  0.3867
  390MOL0     C51362   7.381   9.237   4.965  0.0528 -0.2254  0.6742
  390MOL0     C51363   7.299   9.205   5.102 -0.3162  1.0054 -0.7903
  390MOL0     C51364   7.156   9.137   5.074 -0.9622 -0.6741 -0.2197
  390MOL0     N51365   7.163   8.992   5.060  0.2389 -0.0987  0.0717
  390MOL0     C51366   7.153   8.915   5.174 -0.7981  0.4762 -0.2627
  390MOL0     C51367   7.144   8.791   5.124 -0.5640 -0.4476 -0.2658
  390MOL0     C51368   7.117   8.678   5.214  0.6981 -0.2764 -0.2465
  390MOL0     C51369   6.964   8.661   5.238  0.3944  0.2443 -0.4578
  390MOL0     C51370   6.917   8.523   5.286 -0.1794  0.4477  0.0447
  390MOL0     C51371   6.976   8.481   5.415 -0.8243  0.4991  0.9188
  390MOL0     O51372   6.957   8.335   5.440  0.1986  0.4031 -0.4396
  390MOL0     C51373   6.845   8.304   5.513  0.6391  0.1606  0.6809
  390MOL0     C51374   6.810   8.169   5.545  0.6590 -0.7048  1.0043
  390MOL0     C51375   6.698   8.136   5.618  0.9979  0.3803  0.1151
  390MOL0     C51376   6.601   8.232   5.645 -0.2659 -0.3665  0.1027
  390MOL0     C51377   6.476   8.189   5.720  0.3765  0.1091  0.0795
  390MOL0     O51378   6.417   8.289   5.782  0.8203 -0.1995 -0.3705
  390MOL0     C51379   6.342   8.245   5.885  0.4206  0.5310  0.0159
  390MOL0     C51380   6.400   8.179   5.992 -0.3449 -0.2189 -0.8724
  390MOL0     C51381   6.323   8.120   6.098  1.1648 -0.4026 -0.0413
  390MOL0     C51382   6.185   8.126   6.097 -0.1135  0.3023 -0.1215
  390MOL0     O51383   6.096   8.073   6.190 -0.5209 -0.7753 -0.0790
  390MOL0     C51384   6.133   8.055   6.322  0.1271 -0.1187  0.0254
  390MOL0     C51385   6.021   7.998   6.408 -0.3146  0.9134  0.1139
  390MOL0     C51386   6.059   8.004   6.557  0.7963  0.4877  0.3459
  390MOL0     C51387   5.936   7.970   6.632  0.0631 -0.3574 -0.2217
  390MOL0     C51388   5.894   7.819   6.615  0.2078  0.6333 -0.2131
  390MOL0     C51389   5.933   7.726   6.725 -0.0539 -0.8300  0.5344
  390MOL0     C51390   5.833   7.761   6.848  0.9564  0.0373  0.6595
  390MOL0     C51391   5.848   7.662   6.964  0.4728 -0.3097  0.3260
  390MOL0    Cl51392   6.028   7.653   7.028 -0.0034  0.3664 -0.3190
  390MOL0     C51393   6.127   8.180   5.988 -0.3063  0.6287 -1.0230
  390MOL0     C51394   6.201   8.241   5.886 -0.6111  0.1571 -0.4164
  390MOL0     O51395   6.421   8.081   5.697  0.3471  0.0144  0.2888
  390MOL0     C51396   6.633   8.368   5.622  0.0110  0.4525 -0.5417
  390MOL0     C51397   6.746   8.394   5.554 -0.0988  0.1480  0.0285
  390MOL0     N51398   7.143   8.791   4.987 -0.0739  0.4247 -0.8596
  390MOL0     N51399   7.156   8.914   4.946  0.3502 -0.1491 -0.2582
  390MOL0     C51400   8.219   9.475   5.115 -0.0201  0.4851  0.4102
  390MOL0     C51401   8.349   9.530   5.115 -0.4484 -0.7472 -1.0851
  390MOL0     C51402   8.753   9.698   5.284  0.0161  0.0936  0.4808
  390MOL0     C51403   8.830   9.615   5.201  0.4524  0.2541  0.0092
  390MOL0     C51404   8.970   9.638   5.199  0.2408 -0.3801  0.5029
  390MOL0     C51405   9.020   9.750   5.265 -0.3238 -0.1991  0.2307
  390MOL0     O51406   9.152   9.787   5.252 -0.9059 -0.3548 -0.5514
  390MOL0     C51407   9.224   9.723   5.144  0.4282 -0.6771 -0.0177
  390MOL0     C51408   9.352   9.808   5.114  0.7229  0.2736 -0.6094
  390MOL0     C51409   9.327   9.958   5.078  0.3138 -0.2784  0.2368
  390MOL0     C51410   9.471  10.026   5.056  0.9873  0.3093  0.2534
  390MOL0     C51411   9.528   9.985   4.933 -0.0967  0.3465 -0.1508
  390MOL0     C51412   9.589   9.959   4.829  1.3267 -0.0356  0.4445
  390MOL0     C51413   8.939   9.832   5.347  0.0314  0.1890  1.0307
  390MOL0     C51414   8.804   9.808   5.350 -0.0013 -0.3343 -0.1324
  390MOL0     H51415   8.418   9.500   5.440 -1.0817 -1.2170 -0.0076
  390MOL0     H51416   8.199   9.409   5.441 -0.2092  0.1703 -0.5292
  390MOL0     H51417   8.057   9.215   5.134 -0.7903 -1.4241  2.2190
  390MOL0     H51418   7.974   9.344   5.042 -1.6769  1.1074  1.0240
  390MOL0     H51419   7.821   9.249   5.255 -1.9626  0.3600 -0.3348
  390MOL0     H51420   7.835   9.137   5.112 -1.0701  0.3430 -2.7614
  390MOL0     H51421   7.767   9.320   4.963 -1.5004 -2.3171 -0.4337
  390MOL0     H51422   7.735   9.438   5.092 -1.0498  1.0427 -0.8932
  390MOL0     H51423   7.614   9.164   5.058 -0.3568 -0.2572 -0.4189
  390MOL0     H51424   7.568   9.288   5.185 -1.0227  1.7381 -1.0803
  390MOL0     H51425   7.555   9.348   4.898  0.8694  0.9194  0.6969
  390MOL0     H51426   7.470   9.430   5.025 -0.1216  0.9303 -2.3755
  390MOL0     H51427   7.405   9.137   4.928  1.9293 -0.2960  1.9515
  390MOL0     H51428   7.321   9.284   4.886 -1.2949 -2.5544  0.2103
  390MOL0     H51429   7.370   9.153   5.166  0.8830  0.4641 -2.4930
  390MOL0     H51430   7.282   9.300   5.154  0.9160  1.8977 -1.9367
  390MOL0     H51431   7.134   9.200   4.987  2.7544  0.7744 -0.2925
  390MOL0     H51432   7.087   9.156   5.156 -1.4810 -1.2244 -0.5161
  390MOL0     H51433   7.156   8.939   5.280  1.7330  0.3327 -0.2221
  390MOL0     H51434   7.171   8.668   5.308 -0.9905  1.0256  0.9387
  390MOL0     H51435   7.148   8.594   5.150  0.7677  0.5842 -1.3819
  390MOL0     H51436   6.910   8.677   5.145 -1.9268  0.3756  0.8485
  390MOL0     H51437   6.930   8.743   5.302 -2.9114 -0.2332 -1.4319
  390MOL0     H51438   6.807   8.521   5.294 -0.0658 -1.4575  2.5015
  390MOL0     H51439   6.950   8.455   5.206 -0.8873 -1.7905  1.5450
  390MOL0     H51440   6.957   8.544   5.502 -3.4990 -0.0091  0.7829
  390MOL0     H51441   7.085   8.486   5.400 -0.9568 -2.8404 -2.9533
  390MOL0     H51442   6.874   8.086   5.516  0.6026  0.2355 -2.1581
  390MOL0     H51443   6.689   8.033   5.651  0.1672 -0.5863 -2.8233
  390MOL0     H51444   6.507   8.186   6.006 -0.4742  0.6907 -0.2117
  390MOL0     H51445   6.373   8.087   6.189  1.2606  2.2396  0.9426
  390MOL0     H51446   6.167   8.156   6.348 -2.2239  0.8953 -0.5561
  390MOL0     H51447   6.223   7.994   6.327  2.5548  3.1584  0.0422
  390MOL0     H51448   6.014   7.894   6.373  1.1592  1.4117 -1.7966
  390MOL0     H51449   5.927   8.047   6.379 -0.5360  0.5460  0.1975
  390MOL0     H51450   6.091   8.100   6.600 -3.1144  0.3804  4.2189
  390MOL0     H51451   6.139   7.933   6.577  0.4206 -0.0922 -0.1565
  390MOL0     H51452   5.953   7.993   6.738  3.5249 -0.3107 -0.6619
  390MOL0     H51453   5.861   8.043   6.603 -0.3414 -0.0486  1.5353
  390MOL0     H51454   5.925   7.767   6.524  0.5495 -0.3502  0.4413
  390MOL0     H51455   5.786   7.823   6.606  0.1001  0.2859  0.7615
  390MOL0     H51456   6.041   7.735   6.740 -0.0740 -0.1025  0.2902
  390MOL0     H51457   5.918   7.623   6.692  0.9809 -0.4899 -1.1128
  390MOL0     H51458   5.845   7.864   6.882  1.5345  1.3210 -2.9897
  390MOL0     H51459   5.729   7.753   6.813  0.7481 -1.4592  1.5037
  390MOL0     H51460   5.807   7.564   6.935  1.8830 -0.7588 -0.2550
  390MOL0     H51461   5.785   7.693   7.048 -2.5790  0.1110 -1.9210
  390MOL0     H51462   6.024   8.188   5.955 -0.5823  1.4824  0.0112
  390MOL0     H51463   6.161   8.282   5.793  0.3852  5.2254  1.0502
  390MOL0     H51464   6.590   8.460   5.662  3.1034  1.1298  1.6313
  390MOL0     H51465   6.753   8.497   5.522 -1.3437  0.5812  1.0629
  390MOL0     H51466   8.168   9.471   5.019 -3.8209 -1.8360  2.2888
  390MOL0     H51467   8.396   9.556   5.021  0.6336 -0.6664 -0.5464
  390MOL0     H51468   8.783   9.539   5.141 -0.3146  0.2508  0.6019
  390MOL0     H51469   9.039   9.572   5.146  1.7051  0.3817  1.3966
  390MOL0     H51470   9.173   9.720   5.048  1.3894 -1.4201 -0.5283
  390MOL0     H51471   9.256   9.624   5.179 -2.7810 -2.0503 -0.6593
  390MOL0     H51472   9.418   9.808   5.201  2.3880 -1.0708 -1.8234
  390MOL0     H51473   9.398   9.767   5.024  4.3350  4.0222 -0.7493
  390MOL0     H51474   9.265  10.011   5.151  1.4659  0.9661  0.3534
  390MOL0     H51475   9.264   9.964   4.989  0.0809  0.0453  0.4250
  390MOL0     H51476   9.445  10.132   5.049  1.1448  0.2372 -2.3441
  390MOL0     H51477   9.545  10.003   5.133  0.8720  3.4196  1.4178
  390MOL0     H51478   9.654   9.931   4.749  1.2291  0.7669  0.0735
  390MOL0     H51479   8.988   9.911   5.403  0.1924 -0.3581  1.6651
  390MOL0     H51480   8.741   9.871   5.413 -0.2049 -0.9303  0.2638
  391MOL0     O51481   0.663   7.340   8.905 -0.3679  0.1017 -0.0630
  391MOL0     C51482   0.599   7.313   9.000 -0.2729  0.6083 -0.7541
  391MOL0     O51483   0.653   7.308   9.129 -0.4822  0.0556  0.2321
  391MOL0     C51484   0.790   7.296   9.139 -0.4578 -0.1104 -0.7861
  391MOL0     C51485   0.867   7.211   9.059  0.2381  0.0535  0.8003
  391MOL0     C51486   1.008   7.197   9.083 -0.1666  0.2781  0.1499
  391MOL0     C51487   1.063   7.271   9.191  1.6876  1.3394  0.9142
  391MOL0     O51488   1.196   7.243   9.222  0.8289  0.1398 -0.1090
  391MOL0     C51489   1.245   7.273   9.356  0.3801  1.0823  0.5634
  391MOL0     C51490   1.397   7.237   9.358  0.7653 -0.3521 -0.4387
  391MOL0     C51491   1.479   7.296   9.242 -0.1540  0.4053  0.1400
  391MOL0     C51492   1.631   7.256   9.246  1.3942 -0.3270 -0.7127
  391MOL0     C51493   1.651   7.104   9.244 -0.5198 -0.7198  0.1030
  391MOL0     C51494   1.785   7.067   9.200 -0.1718 -0.1665 -0.4028
  391MOL0     C51495   1.815   6.921   9.229 -1.0111 -0.2255 -0.4625
  391MOL0     C51496   1.724   6.811   9.167  0.0689  0.5338  0.4305
  391MOL0     N51497   1.629   6.750   9.259 -0.4117  0.9806 -1.1860
  391MOL0     C51498   1.503   6.798   9.280  0.2594 -0.1247 -0.2690
  391MOL0     C51499   1.456   6.735   9.388  0.1564  0.2157  0.0588
  391MOL0     C51500   1.334   6.763   9.471 -0.1339  0.0598 -0.5599
  391MOL0     C51501   1.309   6.681   9.596  0.5695 -0.8239  0.3288
  391MOL0     C51502   1.292   6.534   9.564 -0.3801  0.5226  0.2821
  391MOL0     C51503   1.215   6.469   9.677  0.1603  0.1788 -0.3899
  391MOL0     O51504   1.078   6.511   9.691  0.7561  0.1632 -0.4297
  391MOL0     C51505   1.002   6.442   9.790 -0.3807  0.7263  0.2161
  391MOL0     C51506   1.046   6.324   9.860 -0.2684  0.8167 -0.1008
  391MOL0     C51507   0.975   6.269   9.963 -1.0827 -0.3722 -0.1612
  391MOL0     C51508   0.852   6.325  10.000 -0.9500  0.4535 -0.5289
  391MOL0     C51509   0.779   6.259  10.112  1.0410 -0.7696 -0.8520
  391MOL0     O51510   0.658   6.307  10.138 -0.0665 -0.3631 -0.0889
  391MOL0     C51511   0.565   6.235  10.208 -1.0436 -0.0879  0.0306
  391MOL0     C51512   0.582   6.192  10.342  0.2491 -0.3356 -0.0398
  391MOL0     C51513   0.482   6.129  10.415  0.4385  1.0547 -0.6703
  391MOL0     C51514   0.351   6.116  10.364  0.0117 -0.4488 -0.8234
  391MOL0     O51515   0.274   6.030  10.436 -0.1129  0.0446  0.1958
  391MOL0     C51516   0.134   6.062  10.434 -0.0384 -0.2746  0.2004
  391MOL0     C51517   0.079   5.999  10.557  0.3204 -0.0196  0.8975
  391MOL0     C51518  -0.075   6.019  10.571  0.0829 -0.3004 -0.1872
  391MOL0     C51519  -0.131   5.975  10.710 -0.0072  0.1073  0.6119
  391MOL0     C51520  -0.136   5.820  10.722  0.5244  0.9591  0.2478
  391MOL0     C51521  -0.180   5.781  10.864  0.4272  0.9918  0.2092
  391MOL0     C51522  -0.195   5.618  10.882 -0.0608  0.8614 -0.2086
  391MOL0     C51523  -0.339   5.581  10.855 -0.6378  0.4539  0.3345
  391MOL0    Cl51524  -0.443   5.648  10.985 -0.2601 -0.0545 -0.4842
  391MOL0     C51525   0.335   6.160  10.231 -0.8047  0.7017 -0.5534
  391MOL0     C51526   0.436   6.222  10.151 -1.4597 -0.2083 -0.6605
  391MOL0     O51527   0.833   6.170  10.174  0.2812  0.8925 -0.2105
  391MOL0     C51528   0.804   6.433   9.928 -0.4750  0.3697  1.4057
  391MOL0     C51529   0.876   6.493   9.831  0.0550  0.3232  0.3082
  391MOL0     N51530   1.548   6.633   9.415 -0.0664 -0.1756 -0.4363
  391MOL0     N51531   1.655   6.651   9.344 -0.5388  0.7340 -0.2871
  391MOL0     C51532   0.986   7.354   9.273 -0.3734 -0.0385  0.5389
  391MOL0     C51533   0.852   7.377   9.234  0.6162 -0.3980 -0.8270
  391MOL0     C51534   0.454   7.302   8.972  0.4183  0.1617  0.6221
  391MOL0     C51535   0.373   7.240   9.064 -0.0687 -0.1945 -0.0782
  391MOL0     C51536   0.239   7.241   9.056  0.2337  0.3373  0.4289
  391MOL0     C51537   0.172   7.302   8.950  0.2240  1.0622  0.5270
  391MOL0     O51538   0.035   7.305   8.940 -0.5532  0.1353 -0.4808
  391MOL0     C51539  -0.028   7.327   8.819 -0.0272 -0.3711  0.3865
  391MOL0     C51540  -0.172   7.270   8.830  0.5118  0.7131  0.0976
  391MOL0     C51541  -0.246   7.292   8.971 -0.7457 -0.0020  0.0045
  391MOL0     C51542  -0.398   7.309   8.954 -0.2967 -0.1046  0.1598
  391MOL0     C51543  -0.432   7.428   8.874 -0.2416 -0.2687  0.4528
  391MOL0     C51544  -0.472   7.537   8.829 -0.1857  0.1906 -0.1056
  391MOL0     C51545   0.250   7.370   8.851  0.8641 -0.1327 -0.4581
  391MOL0     C51546   0.393   7.360   8.857  0.2069  0.1124 -0.6692
  391MOL0     H51547   0.807   7.158   8.986  0.1189  0.2771  0.7328
  391MOL0     H51548   1.064   7.116   9.036  0.4937 -1.1303  3.1296
  391MOL0     H51549   1.182   7.216   9.424 -2.0596  1.2512 -1.4004
  391MOL0     H51550   1.237   7.373   9.397 -0.9303 -0.3970  4.3048
  391MOL0     H51551   1.413   7.129   9.353 -0.4589 -0.5114 -1.8483
  391MOL0     H51552   1.443   7.278   9.448  1.6882  0.5000 -1.2686
  391MOL0     H51553   1.476   7.405   9.245 -1.0863  0.3714  1.1922
  391MOL0     H51554   1.445   7.261   9.144  0.0148  0.6053  0.0097
  391MOL0     H51555   1.668   7.290   9.149 -0.3635  0.5189 -1.1195
  391MOL0     H51556   1.681   7.310   9.326  1.2967  2.2118 -2.2540
  391MOL0     H51557   1.576   7.065   9.173 -1.7389 -0.2376  1.0923
  391MOL0     H51558   1.628   7.071   9.346  1.1560 -0.4483  0.5958
  391MOL0     H51559   1.859   7.117   9.263  0.3737 -0.1925 -1.0164
  391MOL0     H51560   1.794   7.091   9.094 -2.5180  1.4506 -0.3156
  391MOL0     H51561   1.918   6.901   9.199 -0.4021  0.7104  0.9253
  391MOL0     H51562   1.813   6.905   9.337 -3.4584 -0.5181 -0.4903
  391MOL0     H51563   1.784   6.730   9.125  1.2944  1.5227  0.2043
  391MOL0     H51564   1.684   6.853   9.074  0.7178  2.7267  1.0910
  391MOL0     H51565   1.471   6.888   9.228  3.0447  0.3719 -1.3155
  391MOL0     H51566   1.247   6.759   9.405 -0.3410  0.1507 -0.2976
  391MOL0     H51567   1.345   6.866   9.506  0.1705  0.1156 -0.8140
  391MOL0     H51568   1.226   6.721   9.654  3.1191 -0.0071  3.7511
  391MOL0     H51569   1.398   6.700   9.657 -1.0988  1.4491  2.2121
  391MOL0     H51570   1.243   6.502   9.472 -3.9549  1.9053  1.5411
  391MOL0     H51571   1.394   6.495   9.568  1.2109  3.9618 -1.5730
  391MOL0     H51572   1.269   6.479   9.772  0.5841 -1.9887 -0.3520
  391MOL0     H51573   1.221   6.360   9.664 -1.3314  0.1286 -0.9230
  391MOL0     H51574   1.146   6.282   9.856 -0.5025  0.2297  0.0689
  391MOL0     H51575   1.028   6.195  10.022  1.7837  1.3448 -0.4433
  391MOL0     H51576   0.679   6.213  10.384 -0.1030 -1.5354  1.4728
  391MOL0     H51577   0.505   6.093  10.515 -0.6993  0.0853 -0.7378
  391MOL0     H51578   0.091   6.026  10.340 -1.2761  1.4538  0.0628
  391MOL0     H51579   0.122   6.170  10.447  1.0746 -0.2295  1.0119
  391MOL0     H51580   0.128   6.049  10.641  2.3605 -1.5697  0.7195
  391MOL0     H51581   0.100   5.891  10.557 -0.8672 -0.2785 -0.6847
  391MOL0     H51582  -0.135   5.975  10.491 -1.3367  2.0880 -0.5447
  391MOL0     H51583  -0.099   6.126  10.571  1.1721  0.0005  1.8634
  391MOL0     H51584  -0.074   6.025  10.789  1.0355 -4.0410  2.7790
  391MOL0     H51585  -0.237   6.003  10.705 -0.4111 -1.0943  1.8586
  391MOL0     H51586  -0.035   5.784  10.695  0.6779  1.1494  0.5687
  391MOL0     H51587  -0.200   5.786  10.640  3.0478  0.1094 -1.5400
  391MOL0     H51588  -0.281   5.820  10.885  0.0671 -0.3056  1.0625
  391MOL0     H51589  -0.112   5.820  10.939  1.2573 -0.3517  0.1891
  391MOL0     H51590  -0.129   5.568  10.810  2.4544 -0.1621  2.5742
  391MOL0     H51591  -0.159   5.588  10.981  0.5774 -1.8075 -1.1638
  391MOL0     H51592  -0.350   5.475  10.832 -0.3429  1.1511 -3.6171
  391MOL0     H51593  -0.370   5.628  10.761  1.7055  3.1756  0.7684
  391MOL0     H51594   0.235   6.142  10.194 -0.7366 -0.0662 -0.3912
  391MOL0     H51595   0.417   6.247  10.047 -0.7184  1.7530 -0.3716
  391MOL0     H51596   0.705   6.475   9.940 -1.5661 -1.7282  0.3849
  391MOL0     H51597   0.848   6.592   9.795  4.7153  2.3734  1.5425
  391MOL0     H51598   1.024   7.401   9.363  0.9560 -2.6255  1.4216
  391MOL0     H51599   0.782   7.444   9.281  0.3117  1.2229 -3.4287
  391MOL0     H51600   0.411   7.200   9.158 -1.3698 -0.2017  0.4617
  391MOL0     H51601   0.177   7.192   9.131  2.5194 -0.7374  1.7537
  391MOL0     H51602   0.025   7.270   8.743 -2.5396 -2.5818  0.1564
  391MOL0     H51603  -0.048   7.432   8.798 -0.6427  0.8044  5.4075
  391MOL0     H51604  -0.230   7.318   8.750  1.4062 -0.3642 -1.2463
  391MOL0     H51605  -0.170   7.166   8.796  0.5226  1.3481 -1.9773
  391MOL0     H51606  -0.215   7.390   9.010  0.8222 -0.6945  0.5572
  391MOL0     H51607  -0.208   7.214   9.038 -0.8426  2.5248  3.2879
  391MOL0     H51608  -0.439   7.223   8.900 -0.9584  0.7983 -0.8067
  391MOL0     H51609  -0.436   7.318   9.056  0.0955 -0.9235  0.3927
  391MOL0     H51610  -0.501   7.636   8.803 -0.0613 -0.1598 -1.6943
  391MOL0     H51611   0.210   7.413   8.759  2.3714 -1.4209 -1.7726
  391MOL0     H51612   0.453   7.406   8.779 -0.5777 -0.2992 -1.5341
  392MOL0     O51613   5.000   6.093  10.475 -0.0693 -0.0017 -0.0568
  392MOL0     C51614   4.964   6.135  10.586 -0.0809 -0.6929  0.4660
  392MOL0     O51615   4.839   6.196  10.610 -0.8183  0.1317 -0.3185
  392MOL0     C51616   4.736   6.188  10.523  0.9534 -0.5170 -0.1042
  392MOL0     C51617   4.625   6.260  10.555 -0.0765 -1.0516  1.0502
  392MOL0     C51618   4.517   6.261  10.463  0.2398  0.6336  0.4094
  392MOL0     C51619   4.507   6.175  10.353 -0.3021 -0.0560 -0.0528
  392MOL0     O51620   4.407   6.173  10.265  0.1695  0.1708  0.1473
  392MOL0     C51621   4.313   6.284  10.273 -0.0761  1.1608 -1.1683
  392MOL0     C51622   4.219   6.279  10.156 -0.6414 -0.5804 -0.1658
  392MOL0     C51623   4.135   6.407  10.144  0.1791 -0.2358 -0.4200
  392MOL0     C51624   3.982   6.383  10.150 -0.3429  0.1362 -0.2912
  392MOL0     C51625   3.888   6.496  10.151 -0.2095 -1.6750 -0.1662
  392MOL0     C51626   3.904   6.571  10.284  1.3530  0.4726  0.0311
  392MOL0     C51627   3.816   6.694  10.281  0.5283 -0.2364  0.0410
  392MOL0     C51628   3.808   6.755  10.425 -0.5471  0.3507 -0.3065
  392MOL0     N51629   3.712   6.866  10.431 -0.2238 -0.0486 -0.2963
  392MOL0     C51630   3.680   6.952  10.531 -0.1101 -0.0025 -0.5604
  392MOL0     C51631   3.594   7.037  10.482  0.3083 -0.3429 -0.1703
  392MOL0     C51632   3.557   7.164  10.558  0.3438 -0.6097  1.1611
  392MOL0     C51633   3.509   7.135  10.707  1.0800  0.5620 -0.1790
  392MOL0     C51634   3.417   7.016  10.721  0.0109  0.6825 -0.6163
  392MOL0     C51635   3.381   6.984  10.868 -0.4128  0.3918 -0.9490
  392MOL0     O51636   3.498   6.946  10.941 -0.1024  0.6276  0.2237
  392MOL0     C51637   3.583   6.839  10.907  1.0190  0.4222  0.2441
  392MOL0     C51638   3.708   6.851  10.971 -0.1516 -0.4249  0.2430
  392MOL0     C51639   3.810   6.757  10.948 -0.6903  1.1981 -0.2959
  392MOL0     C51640   3.785   6.640  10.867  0.0401  0.5118 -0.2008
  392MOL0     C51641   3.894   6.550  10.816  0.8424 -0.7936  0.4710
  392MOL0     O51642   4.021   6.603  10.807 -0.4093  0.6366  0.2826
  392MOL0     C51643   4.114   6.504  10.811  0.2044 -0.4291 -0.7055
  392MOL0     C51644   4.192   6.508  10.925 -0.5236 -0.4889 -0.3442
  392MOL0     C51645   4.310   6.436  10.942  1.5791 -1.1558  0.2670
  392MOL0     C51646   4.336   6.337  10.847  0.6087  1.5615  0.4208
  392MOL0     O51647   4.429   6.242  10.856 -0.1945  0.3602 -0.4283
  392MOL0     C51648   4.506   6.239  10.982 -0.1349  0.6535  0.6575
  392MOL0     C51649   4.600   6.111  10.979 -0.1994  0.2943 -0.0538
  392MOL0     C51650   4.691   6.102  11.107 -0.0411 -0.7658  0.1523
  392MOL0     C51651   4.787   5.989  11.090 -0.9763  0.7891 -0.0402
  392MOL0     C51652   4.864   5.975  11.223 -0.5816  0.3939  0.1822
  392MOL0     C51653   4.951   6.087  11.268 -0.0436  0.2290 -0.6491
  392MOL0     C51654   5.060   6.040  11.372  0.0063 -0.3183  0.1105
  392MOL0     C51655   5.008   5.995  11.509  0.7131 -1.0590 -0.1775
  392MOL0    Cl51656   5.133   5.885  11.583  0.2598 -0.1373  0.3775
  392MOL0     C51657   4.253   6.321  10.733  0.4212 -0.3237 -0.2612
  392MOL0     C51658   4.144   6.411  10.714  0.0834 -0.4246  0.3384
  392MOL0     O51659   3.861   6.432  10.795  0.2372 -0.1357  0.5942
  392MOL0     C51660   3.650   6.621  10.811 -1.2937  0.0771 -0.6469
  392MOL0     C51661   3.559   6.726  10.832  0.3541  0.3614 -0.5017
  392MOL0     N51662   3.554   7.000  10.358 -0.5686 -0.0444 -0.0205
  392MOL0     N51663   3.628   6.904  10.333 -0.4379 -0.0244 -0.7113
  392MOL0     C51664   4.614   6.085  10.338  0.0030  0.0930  0.3376
  392MOL0     C51665   4.727   6.095  10.422  0.1144  0.3789 -0.2533
  392MOL0     C51666   5.070   6.146  10.689  0.3561 -0.1839 -0.9377
  392MOL0     C51667   5.206   6.136  10.649  0.1924 -0.0574  0.3238
  392MOL0     C51668   5.308   6.134  10.742 -0.8035  0.1475  0.3507
  392MOL0     C51669   5.277   6.174  10.871  0.5601 -1.4321  0.3883
  392MOL0     O51670   5.363   6.195  10.971 -0.4216  0.4653  0.6133
  392MOL0     C51671   5.503   6.163  10.959 -0.6235 -0.0490  0.0991
  392MOL0     C51672   5.572   6.275  10.888  0.0184 -0.4054 -0.1225
  392MOL0     C51673   5.588   6.398  10.979  0.4583  0.6540 -0.7914
  392MOL0     C51674   5.533   6.520  10.905 -0.5654  0.3138  0.5699
  392MOL0     C51675   5.525   6.647  10.980 -0.3870 -0.1711  0.2382
  392MOL0     C51676   5.494   6.750  11.042 -0.1549  0.2792  0.8619
  392MOL0     C51677   5.145   6.189  10.906 -0.4596  0.4702  0.1326
  392MOL0     C51678   5.037   6.170  10.821  0.4849 -0.1603 -0.1371
  392MOL0     H51679   4.619   6.323  10.642 -0.8666  0.5073 -0.0974
  392MOL0     H51680   4.425   6.311  10.492 -0.6603 -0.6811 -0.0745
  392MOL0     H51681   4.368   6.378  10.273 -1.6994  2.2829  2.0936
  392MOL0     H51682   4.249   6.289  10.362  4.0033 -0.1690  2.1194
  392MOL0     H51683   4.165   6.185  10.171  1.0995 -1.7440 -0.8732
  392MOL0     H51684   4.280   6.254  10.069 -0.7160 -0.9608 -0.1150
  392MOL0     H51685   4.165   6.445  10.046  1.1219 -1.0920 -0.4789
  392MOL0     H51686   4.177   6.474  10.219 -0.7664 -0.4274  0.2943
  392MOL0     H51687   3.952   6.319  10.067  0.5673 -1.2081  0.3864
  392MOL0     H51688   3.963   6.325  10.241 -0.6016 -0.5700 -0.7888
  392MOL0     H51689   3.785   6.461  10.153 -1.9374  2.7183 -0.1820
  392MOL0     H51690   3.910   6.553  10.060  1.0202 -1.4606  0.2460
  392MOL0     H51691   4.009   6.601  10.293  0.8003  2.8113 -0.4945
  392MOL0     H51692   3.871   6.510  10.368  1.0836 -2.9900 -2.3822
  392MOL0     H51693   3.855   6.770  10.213 -1.4656 -0.4759 -1.4771
  392MOL0     H51694   3.716   6.658  10.253  1.4954 -1.7786 -1.6049
  392MOL0     H51695   3.913   6.777  10.441  0.5828 -2.0423 -3.3448
  392MOL0     H51696   3.785   6.684  10.504  0.1535 -2.8898 -2.7961
  392MOL0     H51697   3.712   6.962  10.634 -2.3466  2.3478 -0.0015
  392MOL0     H51698   3.483   7.220  10.501  1.8199  1.5376  1.2128
  392MOL0     H51699   3.647   7.226  10.553 -1.3892  1.9774  0.1501
  392MOL0     H51700   3.468   7.219  10.764  2.6281  0.1602  1.6260
  392MOL0     H51701   3.594   7.112  10.773 -1.3141 -1.9594  2.3131
  392MOL0     H51702   3.330   7.031  10.656 -1.0451 -0.3327  0.5179
  392MOL0     H51703   3.462   6.922  10.686  1.5518  0.9437  0.5420
  392MOL0     H51704   3.305   6.905  10.857  1.9075 -2.0284 -0.4432
  392MOL0     H51705   3.326   7.069  10.910 -2.1060 -0.5218 -1.2295
  392MOL0     H51706   3.727   6.942  11.026  1.7803  0.8980 -2.3771
  392MOL0     H51707   3.907   6.775  10.994 -1.3058 -0.5436  1.8838
  392MOL0     H51708   4.162   6.571  11.009 -3.3390  0.4854 -1.9740
  392MOL0     H51709   4.370   6.449  11.031  0.0204 -1.3331  1.3698
  392MOL0     H51710   4.447   6.239  11.074  0.4238 -2.3645  1.1225
  392MOL0     H51711   4.578   6.321  10.990 -0.8286  1.0883  3.1749
  392MOL0     H51712   4.672   6.107  10.896  1.2957  0.7195  1.1596
  392MOL0     H51713   4.541   6.020  10.973  0.2281 -0.2101  2.2578
  392MOL0     H51714   4.641   6.106  11.204  1.4082  0.7983  0.8916
  392MOL0     H51715   4.764   6.183  11.115 -1.2625  0.2906  0.9589
  392MOL0     H51716   4.732   5.895  11.083 -0.9104  0.7184  0.3600
  392MOL0     H51717   4.857   6.011  11.009  1.7915  0.2671  2.0723
  392MOL0     H51718   4.933   5.892  11.207 -1.1632 -0.6222  2.4424
  392MOL0     H51719   4.783   5.949  11.292 -0.7565  4.0481  1.6037
  392MOL0     H51720   4.883   6.164  11.307 -0.6026  0.5708 -2.2107
  392MOL0     H51721   5.007   6.115  11.178  4.0545 -0.5190  1.4205
  392MOL0     H51722   5.110   5.953  11.329 -1.3794 -1.1620  0.1665
  392MOL0     H51723   5.141   6.114  11.383 -0.1899  0.0083 -0.5635
  392MOL0     H51724   4.908   5.954  11.525  0.2663  0.5113  1.4683
  392MOL0     H51725   5.003   6.084  11.572  4.5404 -0.1651 -0.9215
  392MOL0     H51726   4.269   6.231  10.675  2.0081 -0.1355 -0.1506
  392MOL0     H51727   4.092   6.400  10.619  2.3094 -1.5354 -0.8327
  392MOL0     H51728   3.632   6.546  10.735  1.7658  2.1189 -3.6789
  392MOL0     H51729   3.465   6.713  10.779  0.3952 -2.2912 -0.0439
  392MOL0     H51730   4.601   6.000  10.272 -2.3280 -0.2949  1.2092
  392MOL0     H51731   4.791   6.014  10.388  1.1185  1.3135 -0.6433
  392MOL0     H51732   5.237   6.114  10.548 -0.2737 -2.5038  0.6562
  392MOL0     H51733   5.411   6.109  10.719 -0.8577 -1.4457  1.6875
  392MOL0     H51734   5.523   6.070  10.906 -2.8842  0.1284 -1.2191
  392MOL0     H51735   5.549   6.171  11.058 -1.0583  2.7014  0.1691
  392MOL0     H51736   5.672   6.244  10.857 -0.1727 -1.4837  0.2874
  392MOL0     H51737   5.528   6.285  10.789 -2.7188 -0.9213  0.9539
  392MOL0     H51738   5.693   6.410  11.008  1.0022  0.0782 -2.4237
  392MOL0     H51739   5.523   6.380  11.065  2.7452  1.8917  1.3128
  392MOL0     H51740   5.610   6.543  10.831  0.1244  0.5251  1.3342
  392MOL0     H51741   5.441   6.493  10.852  0.3210  1.6818 -1.7912
  392MOL0     H51742   5.477   6.834  11.107 -0.8334  1.2253 -0.5057
  392MOL0     H51743   5.131   6.210  11.011 -0.9940 -2.5056  0.7306
  392MOL0     H51744   4.935   6.162  10.857  0.6964 -2.6889  0.0619
  393MOL0     O51745   4.985   9.056   8.544 -0.2816 -0.2752  0.1974
  393MOL0     C51746   5.024   9.156   8.602  0.0843 -0.0456 -0.5230
  393MOL0     O51747   4.950   9.267   8.629  0.2659 -0.1498  0.0125
  393MOL0     C51748   4.810   9.266   8.619 -0.8888 -0.5707  0.3670
  393MOL0     C51749   4.730   9.173   8.552 -1.0695 -0.0909 -0.4525
  393MOL0     C51750   4.595   9.198   8.548  0.6820  0.0497 -0.5861
  393MOL0     C51751   4.542   9.301   8.626  0.4095 -0.3326  1.0084
  393MOL0     O51752   4.409   9.345   8.623 -0.2724  0.3695 -0.1479
  393MOL0     C51753   4.309   9.253   8.571  0.2379  0.1285  0.4243
  393MOL0     C51754   4.167   9.320   8.558  1.1534 -0.0945  0.3896
  393MOL0     C51755   4.138   9.362   8.711 -0.6729 -0.4445 -0.1554
  393MOL0     C51756   3.997   9.421   8.735  0.1147  0.1519  0.5112
  393MOL0     C51757   3.892   9.320   8.783 -0.6776  0.8129  0.4232
  393MOL0     C51758   3.757   9.385   8.806 -0.1077  0.2368  0.4262
  393MOL0     C51759   3.651   9.278   8.830 -0.1076  0.0395  0.0684
  393MOL0     C51760   3.513   9.336   8.840 -0.1362  0.1603  0.1408
  393MOL0     N51761   3.463   9.412   8.721 -0.7926 -0.4220 -0.4110
  393MOL0     C51762   3.417   9.550   8.724  0.0122  0.2723 -1.0401
  393MOL0     C51763   3.360   9.555   8.606  0.9373 -1.0594 -0.0530
  393MOL0     C51764   3.289   9.688   8.554 -1.3853 -0.4064 -0.1615
  393MOL0     C51765   3.351   9.761   8.437 -0.2568 -0.2001  0.2705
  393MOL0     C51766   3.506   9.726   8.405 -0.1612 -0.1396 -0.8953
  393MOL0     C51767   3.561   9.817   8.285 -0.1428 -0.1907 -0.4900
  393MOL0     O51768   3.495   9.762   8.171 -0.5345 -0.7941 -0.5728
  393MOL0     C51769   3.519   9.813   8.044 -0.0435  0.3603 -0.1030
  393MOL0     C51770   3.457   9.731   7.951  0.2333 -0.1792 -0.7185
  393MOL0     C51771   3.470   9.761   7.812 -1.0331 -0.1873 -0.2543
  393MOL0     C51772   3.532   9.883   7.777  0.3637  0.2789 -0.2371
  393MOL0     C51773   3.533   9.907   7.634  0.6138  0.4987 -0.2937
  393MOL0     O51774   3.437   9.846   7.550 -0.5307 -0.5090  0.1673
  393MOL0     C51775   3.444   9.861   7.409 -0.8025 -0.3435  0.9654
  393MOL0     C51776   3.569   9.858   7.345  0.5034 -0.0158 -0.1142
  393MOL0     C51777   3.573   9.883   7.211  0.6716  0.7021 -0.2474
  393MOL0     C51778   3.446   9.885   7.135  0.2276  0.0907  0.2933
  393MOL0     O51779   3.442   9.906   6.997  0.3843 -0.5209 -0.1109
  393MOL0     C51780   3.525   9.815   6.924 -0.6717 -0.4556 -0.1861
  393MOL0     C51781   3.506   9.843   6.770  0.4264 -0.0791 -0.4471
  393MOL0     C51782   3.584   9.963   6.726 -0.4252 -0.1919  0.0223
  393MOL0     C51783   3.582   9.982   6.581  0.5077  0.6023  0.0687
  393MOL0     C51784   3.609  10.133   6.540 -0.0375 -0.1044  0.6820
  393MOL0     C51785   3.653  10.129   6.397  0.6189  0.6777 -0.4743
  393MOL0     C51786   3.539  10.093   6.298  0.6811  0.5795 -0.6928
  393MOL0     C51787   3.600  10.054   6.167 -0.4416  0.3582 -0.1148
  393MOL0    Cl51788   3.660  10.182   6.062  0.0944 -0.0597 -0.5300
  393MOL0     C51789   3.329   9.896   7.202  0.5318 -0.7744  0.3729
  393MOL0     C51790   3.321   9.870   7.344 -0.3085  0.1137  0.1870
  393MOL0     O51791   3.620   9.986   7.600 -0.3820 -0.3658  0.6178
  393MOL0     C51792   3.582   9.967   7.873  0.6974 -0.0478 -0.5107
  393MOL0     C51793   3.587   9.929   8.003  0.2331 -0.5945  0.0023
  393MOL0     N51794   3.363   9.435   8.538  0.0685 -0.0371 -0.4585
  393MOL0     N51795   3.423   9.353   8.610  0.4718 -0.1314  0.4561
  393MOL0     C51796   4.615   9.395   8.692  0.2210 -0.6939 -1.0091
  393MOL0     C51797   4.755   9.370   8.689  1.0042 -0.4047 -0.0514
  393MOL0     C51798   5.164   9.157   8.640  0.1475 -0.1512  0.6092
  393MOL0     C51799   5.215   9.264   8.712  0.6963 -0.4595 -0.2616
  393MOL0     C51800   5.346   9.256   8.762  0.0558  0.5210 -0.3267
  393MOL0     C51801   5.425   9.140   8.741 -1.1068  0.1767  0.3418
  393MOL0     O51802   5.552   9.116   8.785 -0.2885 -0.2314 -0.3148
  393MOL0     C51803   5.596   9.194   8.898  0.4127  0.3351 -0.3833
  393MOL0     C51804   5.670   9.316   8.843  0.7472 -0.0673 -0.8818
  393MOL0     C51805   5.680   9.425   8.948  0.7130 -0.0686 -0.2801
  393MOL0     C51806   5.759   9.384   9.060 -0.0994  0.1465  0.0107
  393MOL0     C51807   5.896   9.354   9.020 -0.7293  0.6165 -0.8506
  393MOL0     C51808   6.015   9.324   9.002 -0.1588  0.9676  0.3239
  393MOL0     C51809   5.374   9.034   8.664 -0.0789  0.7741  0.2963
  393MOL0     C51810   5.247   9.040   8.621  0.7780  0.7314  0.0267
  393MOL0     H51811   4.777   9.087   8.507  2.1005  1.4502 -0.3763
  393MOL0     H51812   4.530   9.129   8.494 -1.6121 -1.8204  3.9770
  393MOL0     H51813   4.299   9.160   8.627 -1.1113 -2.3257 -3.4867
  393MOL0     H51814   4.331   9.216   8.471  3.4849 -0.4515  1.2316
  393MOL0     H51815   4.099   9.236   8.540  1.1278 -0.3368  1.5272
  393MOL0     H51816   4.160   9.389   8.473  0.5806 -1.1347 -0.4362
  393MOL0     H51817   4.206   9.438   8.750  0.5713 -1.5824 -0.0421
  393MOL0     H51818   4.162   9.276   8.776  1.0489  1.0959  1.3576
  393MOL0     H51819   4.005   9.489   8.821  1.4875 -1.3400  1.6275
  393MOL0     H51820   3.960   9.480   8.650  0.1202 -1.8443 -0.9511
  393MOL0     H51821   3.922   9.267   8.874  0.0175 -0.0978 -0.3077
  393MOL0     H51822   3.886   9.238   8.710 -2.5930  2.8589 -1.9091
  393MOL0     H51823   3.723   9.448   8.723  1.4212  0.6418  0.0817
  393MOL0     H51824   3.763   9.444   8.898  2.7007 -1.6185  1.5614
  393MOL0     H51825   3.651   9.217   8.739  0.4611  3.3511 -2.3339
  393MOL0     H51826   3.680   9.222   8.919  1.4779 -0.1169 -0.5252
  393MOL0     H51827   3.526   9.412   8.917 -0.7148 -2.5364  3.1449
  393MOL0     H51828   3.445   9.253   8.864  1.3202 -1.4124 -0.9156
  393MOL0     H51829   3.419   9.624   8.803  1.5587  2.2949 -2.8403
  393MOL0     H51830   3.283   9.765   8.632  1.3194  0.2309 -0.5169
  393MOL0     H51831   3.185   9.665   8.525 -1.1672  2.0556 -3.4537
  393MOL0     H51832   3.345   9.867   8.463 -0.0731  0.1030 -0.8666
  393MOL0     H51833   3.288   9.742   8.350  1.7804  0.3967 -1.4356
  393MOL0     H51834   3.570   9.754   8.490  2.0296 -1.8340 -1.9012
  393MOL0     H51835   3.504   9.620   8.381 -3.7570 -0.9696  2.1794
  393MOL0     H51836   3.670   9.814   8.282  0.1552  2.2362  2.4627
  393MOL0     H51837   3.546   9.918   8.326  0.2438  0.1058 -1.0678
  393MOL0     H51838   3.405   9.645   7.991  0.1331  0.9100  1.6572
  393MOL0     H51839   3.429   9.689   7.742 -1.1061 -1.8062  1.3916
  393MOL0     H51840   3.662   9.834   7.395  0.0512 -3.9816 -0.8585
  393MOL0     H51841   3.670   9.909   7.172  0.7019  1.1395  0.0970
  393MOL0     H51842   3.498   9.710   6.941 -0.3740 -0.7404 -1.4219
  393MOL0     H51843   3.626   9.837   6.959 -2.1463  1.9418  3.2294
  393MOL0     H51844   3.398   9.847   6.752  0.4204  0.5155 -0.2940
  393MOL0     H51845   3.538   9.756   6.712  2.4627  0.1178  0.3234
  393MOL0     H51846   3.686   9.953   6.764 -0.2678 -2.0994 -0.7705
  393MOL0     H51847   3.542  10.051   6.775 -1.7689 -0.9166  0.2204
  393MOL0     H51848   3.653   9.915   6.531  2.7367  1.6489  1.6619
  393MOL0     H51849   3.493   9.942   6.533 -0.8987  1.6594  1.6795
  393MOL0     H51850   3.688  10.170   6.607  0.8306 -0.4690 -0.1164
  393MOL0     H51851   3.515  10.185   6.558  0.1734 -0.2240  2.2992
  393MOL0     H51852   3.731  10.052   6.390  1.0895  0.9360  1.4396
  393MOL0     H51853   3.699  10.224   6.365 -0.6839  0.8631 -1.9299
  393MOL0     H51854   3.482  10.008   6.339 -0.0172  0.8796 -1.0324
  393MOL0     H51855   3.477  10.183   6.293  2.5773  2.0274  0.4394
  393MOL0     H51856   3.521   9.996   6.118 -0.6388  0.4571  0.0859
  393MOL0     H51857   3.683   9.984   6.186  2.1547  2.9984 -1.0451
  393MOL0     H51858   3.237   9.912   7.147 -0.1694 -1.6169  1.2504
  393MOL0     H51859   3.230   9.875   7.403 -1.1802  1.4360 -1.1938
  393MOL0     H51860   3.622  10.064   7.848 -0.6603  0.4372 -0.9186
  393MOL0     H51861   3.634   9.996   8.073 -1.2925 -0.7295  1.2021
  393MOL0     H51862   4.566   9.473   8.750 -1.8821 -2.4711 -0.2459
  393MOL0     H51863   4.812   9.447   8.741 -0.7481 -0.2456  1.7441
  393MOL0     H51864   5.167   9.360   8.729  2.7416  0.6629 -0.5589
  393MOL0     H51865   5.390   9.330   8.828 -0.0406  1.7436 -1.5833
  393MOL0     H51866   5.666   9.130   8.952 -1.8570 -3.2415 -1.3370
  393MOL0     H51867   5.514   9.214   8.968  1.0054 -0.0018  0.4200
  393MOL0     H51868   5.762   9.277   8.798  0.3343 -0.3362 -1.5115
  393MOL0     H51869   5.608   9.356   8.762 -0.7203  1.7855  1.0372
  393MOL0     H51870   5.582   9.466   8.972  0.4776 -0.3051 -0.8124
  393MOL0     H51871   5.723   9.513   8.898 -1.4305  0.3571 -1.4676
  393MOL0     H51872   5.759   9.461   9.138 -0.7517 -1.6731  1.8941
  393MOL0     H51873   5.720   9.295   9.109  0.8134  0.2191  0.9070
  393MOL0     H51874   6.112   9.279   8.997 -1.0358 -1.0634  0.7882
  393MOL0     H51875   5.435   8.951   8.630  0.6841  1.0047  1.0714
  393MOL0     H51876   5.207   8.974   8.545  1.6534  0.8564 -0.5504
  394MOL0     O51877   2.379   8.473   3.916 -0.9740 -0.7729  0.3917
  394MOL0     C51878   2.438   8.576   3.963 -0.3057 -0.6180 -0.5828
  394MOL0     O51879   2.389   8.669   4.055  0.1835 -0.3062  0.0650
  394MOL0     C51880   2.272   8.658   4.134 -0.3151  0.0816 -0.4321
  394MOL0     C51881   2.200   8.538   4.163 -0.7195 -1.2136 -0.1719
  394MOL0     C51882   2.091   8.546   4.252  0.7438 -0.4021 -0.7575
  394MOL0     C51883   2.041   8.672   4.300 -0.4709 -0.0781 -0.3488
  394MOL0     O51884   1.932   8.678   4.383  0.2255  0.1854  0.0376
  394MOL0     C51885   1.809   8.658   4.321  0.5485 -0.1403  0.2054
  394MOL0     C51886   1.707   8.702   4.435  0.1419 -0.1670 -0.4720
  394MOL0     C51887   1.566   8.719   4.382  1.0703 -0.7554  0.3766
  394MOL0     C51888   1.477   8.733   4.511 -0.2652 -0.0125 -0.3162
  394MOL0     C51889   1.332   8.758   4.480  0.1214 -0.0733 -0.9544
  394MOL0     C51890   1.250   8.795   4.602  1.3008  1.0286  0.2295
  394MOL0     C51891   1.107   8.825   4.557  1.3144 -1.0362 -0.0725
  394MOL0     C51892   0.994   8.714   4.565 -0.2545 -0.9430 -0.1802
  394MOL0     N51893   1.042   8.582   4.514 -0.1198 -0.4226  0.0465
  394MOL0     C51894   1.059   8.534   4.388  0.0098 -1.4754 -0.2243
  394MOL0     C51895   1.116   8.417   4.398  0.0507  0.7650  0.0350
  394MOL0     C51896   1.171   8.328   4.285  0.6404  0.6183 -0.3137
  394MOL0     C51897   1.325   8.344   4.277 -0.6529  0.6329 -0.1217
  394MOL0     C51898   1.398   8.303   4.405 -0.2806  0.5395  0.1688
  394MOL0     C51899   1.555   8.295   4.392 -0.2548 -0.0200 -0.7318
  394MOL0     O51900   1.598   8.211   4.281  0.2165  0.0996 -0.3690
  394MOL0     C51901   1.734   8.195   4.262 -0.6678  0.5936  0.1592
  394MOL0     C51902   1.773   8.130   4.148 -0.7224 -0.8116  0.2909
  394MOL0     C51903   1.903   8.099   4.140  0.5294  0.2452  0.2615
  394MOL0     C51904   2.000   8.134   4.235  0.9972 -0.0663 -0.4758
  394MOL0     C51905   2.144   8.092   4.214 -0.0082  0.3786  0.7353
  394MOL0     O51906   2.224   8.099   4.318 -0.8389  0.6413  0.5033
  394MOL0     C51907   2.354   8.106   4.302 -0.9974 -0.3535 -0.4883
  394MOL0     C51908   2.436   8.016   4.374  0.5381 -0.2834 -0.3365
  394MOL0     C51909   2.580   8.024   4.371 -0.0123  0.4909  0.1815
  394MOL0     C51910   2.641   8.120   4.286  0.4345  1.1068 -0.0169
  394MOL0     O51911   2.766   8.116   4.247 -0.4249  0.0520 -0.2177
  394MOL0     C51912   2.856   8.007   4.289  0.9028 -0.1875 -0.7383
  394MOL0     C51913   2.995   8.015   4.242  0.0522  0.3783 -1.0642
  394MOL0     C51914   3.015   8.073   4.109  0.2460  0.7137 -0.6520
  394MOL0     C51915   3.154   8.060   4.060 -0.7536 -0.5841 -0.0227
  394MOL0     C51916   3.215   8.205   4.073 -0.3741 -0.5732 -0.5794
  394MOL0     C51917   3.348   8.198   4.150 -0.1154  0.9962  0.5455
  394MOL0     C51918   3.390   8.351   4.180  0.3277 -0.2854  0.9710
  394MOL0     C51919   3.504   8.361   4.277 -0.8090  0.9101 -0.3117
  394MOL0    Cl51920   3.655   8.294   4.214 -0.0082 -0.2458  0.2292
  394MOL0     C51921   2.551   8.208   4.215 -0.6791 -0.0366  0.7754
  394MOL0     C51922   2.413   8.203   4.218 -1.6251 -0.2239 -0.2589
  394MOL0     O51923   2.173   8.075   4.095 -0.3954  0.3896 -0.5902
  394MOL0     C51924   1.960   8.212   4.347 -0.4138 -0.4801 -0.0789
  394MOL0     C51925   1.827   8.239   4.359  0.7406  0.3564  0.9103
  394MOL0     N51926   1.127   8.386   4.533 -0.3668  0.6351  0.3819
  394MOL0     N51927   1.090   8.484   4.596 -0.2168  0.3194  0.4456
  394MOL0     C51928   2.113   8.798   4.266 -0.1447  0.1334  0.2461
  394MOL0     C51929   2.227   8.785   4.188 -0.4620  0.2253  0.0570
  394MOL0     C51930   2.582   8.575   3.943 -0.2945 -0.5584  0.2606
  394MOL0     C51931   2.659   8.691   3.962  0.1800  0.0874  0.3173
  394MOL0     C51932   2.795   8.688   3.928 -0.0294  0.2813  1.3647
  394MOL0     C51933   2.866   8.568   3.907 -0.3440 -0.2513 -0.8878
  394MOL0     O51934   3.003   8.580   3.896 -0.2758 -0.5591  0.2847
  394MOL0     C51935   3.072   8.466   3.836  0.0034  0.5483 -0.6592
  394MOL0     C51936   3.208   8.510   3.788 -0.1683  0.9801 -0.4087
  394MOL0     C51937   3.216   8.635   3.707  0.3468 -0.9603 -0.0639
  394MOL0     C51938   3.134   8.636   3.573 -0.4250  0.6121  0.2922
  394MOL0     C51939   3.183   8.743   3.494 -0.9158 -0.0328 -0.0234
  394MOL0     C51940   3.231   8.827   3.412 -0.1247  0.7442 -0.6281
  394MOL0     C51941   2.789   8.450   3.890 -0.5139 -0.0248 -0.1835
  394MOL0     C51942   2.652   8.456   3.907  0.0465 -0.0127 -0.3965
  394MOL0     H51943   2.243   8.448   4.122  1.2805 -0.7844  0.8238
  394MOL0     H51944   2.045   8.455   4.291  0.0294  0.8050  1.4410
  394MOL0     H51945   1.798   8.552   4.295 -0.0011  0.3540 -1.7627
  394MOL0     H51946   1.789   8.713   4.228 -0.9167 -0.4573  0.3061
  394MOL0     H51947   1.748   8.796   4.472 -0.7135  0.9058 -2.1216
  394MOL0     H51948   1.702   8.630   4.517  0.7822  0.7929  0.4379
  394MOL0     H51949   1.532   8.631   4.327  2.4866 -2.1452  1.5972
  394MOL0     H51950   1.552   8.802   4.313 -3.4098 -0.5154  1.2763
  394MOL0     H51951   1.494   8.649   4.577  2.0993  1.3750  0.9823
  394MOL0     H51952   1.525   8.820   4.558  2.5003 -1.4064 -0.4115
  394MOL0     H51953   1.298   8.670   4.425 -2.3962 -0.2462  0.7280
  394MOL0     H51954   1.314   8.850   4.423 -5.0483  1.6332  2.7405
  394MOL0     H51955   1.283   8.883   4.656 -0.2690 -0.3236  3.6699
  394MOL0     H51956   1.251   8.716   4.678 -0.0978  1.7018  0.9685
  394MOL0     H51957   1.063   8.892   4.631 -0.4632 -5.3871  3.2121
  394MOL0     H51958   1.109   8.881   4.463 -0.3880 -1.3167 -0.3006
  394MOL0     H51959   0.908   8.735   4.502  1.6768 -2.4130 -3.5744
  394MOL0     H51960   0.964   8.713   4.670 -2.0113  4.7622 -0.2971
  394MOL0     H51961   1.024   8.595   4.306  2.2187  1.9252  1.1629
  394MOL0     H51962   1.133   8.366   4.189  2.9258 -0.0413 -1.5598
  394MOL0     H51963   1.140   8.224   4.300 -0.0679  0.1923 -3.7378
  394MOL0     H51964   1.345   8.449   4.252  3.4496 -0.3749 -1.9305
  394MOL0     H51965   1.364   8.276   4.201  0.6179 -2.1372  2.7679
  394MOL0     H51966   1.380   8.385   4.475 -0.3194  1.2962 -0.7019
  394MOL0     H51967   1.363   8.208   4.446  1.7735 -1.4201 -2.2960
  394MOL0     H51968   1.592   8.246   4.483  2.6697  2.2994 -0.5133
  394MOL0     H51969   1.596   8.396   4.398 -4.6966  1.8915  2.0170
  394MOL0     H51970   1.695   8.112   4.074  1.2984 -3.5925 -1.3207
  394MOL0     H51971   1.931   8.055   4.045  0.0735 -0.7754  0.5794
  394MOL0     H51972   2.377   7.953   4.439 -1.8081  2.8387  0.8382
  394MOL0     H51973   2.639   7.960   4.436 -1.3881 -0.6178  0.3969
  394MOL0     H51974   2.826   7.910   4.248  1.3582 -0.8836  0.5312
  394MOL0     H51975   2.862   8.005   4.398  0.7962  3.1378 -0.5619
  394MOL0     H51976   3.036   7.913   4.243  0.8987  0.6400  2.2665
  394MOL0     H51977   3.041   8.070   4.325  1.7946 -1.9224 -0.3935
  394MOL0     H51978   2.964   8.169   4.097 -1.1690 -0.1060 -1.4049
  394MOL0     H51979   2.953   8.008   4.047  2.2772 -3.7802  1.5528
  394MOL0     H51980   3.216   7.985   4.109  2.4697  0.3429 -2.3178
  394MOL0     H51981   3.153   8.035   3.954  1.3994  1.9459 -0.7679
  394MOL0     H51982   3.148   8.272   4.128  2.1466  2.7188 -1.1753
  394MOL0     H51983   3.239   8.246   3.974 -1.4408  0.6253 -0.3791
  394MOL0     H51984   3.421   8.133   4.103 -2.5433 -0.5388 -1.3378
  394MOL0     H51985   3.318   8.155   4.246  0.0281  1.7206  0.9257
  394MOL0     H51986   3.420   8.397   4.085  1.5333 -4.8291 -1.1410
  394MOL0     H51987   3.298   8.392   4.223 -0.3910  0.3914 -1.0902
  394MOL0     H51988   3.469   8.307   4.365 -0.4683  0.4138 -0.4766
  394MOL0     H51989   3.523   8.464   4.305 -1.1386  1.2445 -1.2535
  394MOL0     H51990   2.589   8.277   4.141 -1.1383 -0.7725 -0.1689
  394MOL0     H51991   2.364   8.279   4.157 -2.1976  0.8960  1.5075
  394MOL0     H51992   2.026   8.254   4.422 -1.3449 -1.4980  1.3540
  394MOL0     H51993   1.807   8.283   4.456 -0.1847 -0.1006  0.9466
  394MOL0     H51994   2.080   8.889   4.315 -1.9197 -2.5432  4.6388
  394MOL0     H51995   2.290   8.873   4.181 -0.8275  0.4042 -1.2850
  394MOL0     H51996   2.632   8.788   4.002 -0.9857 -0.4640  0.9299
  394MOL0     H51997   2.845   8.784   3.921 -0.4976  0.4067 -2.0024
  394MOL0     H51998   3.011   8.416   3.760 -0.4040  1.2502 -0.8020
  394MOL0     H51999   3.093   8.383   3.905  4.9018  1.6786 -0.4602
  394MOL0     H52000   3.274   8.513   3.875 -1.2369  0.2067  0.4645
  394MOL0     H52001   3.246   8.429   3.726 -1.4989  1.1428 -1.4890
  394MOL0     H52002   3.316   8.673   3.685 -0.4777  0.6455 -1.2423
  394MOL0     H52003   3.182   8.719   3.770 -2.2663  0.3769 -2.9388
  394MOL0     H52004   3.156   8.541   3.524  1.0453  0.8475  0.4434
  394MOL0     H52005   3.025   8.641   3.581 -0.5750  2.8559 -1.9596
  394MOL0     H52006   3.270   8.909   3.356  1.0593 -0.5649 -1.8312
  394MOL0     H52007   2.829   8.352   3.866 -1.4005 -0.2530 -0.7899
  394MOL0     H52008   2.595   8.364   3.907  0.7224 -0.4646  1.0575
  395MOL0     O52009   3.113   5.123   5.427 -0.0158 -0.0914 -0.9134
  395MOL0     C52010   3.168   5.192   5.349 -0.8817 -0.3054 -0.3598
  395MOL0     O52011   3.138   5.326   5.305  0.1890 -0.7783 -0.4849
  395MOL0     C52012   3.017   5.376   5.330 -0.4964  0.0248 -0.8216
  395MOL0     C52013   2.951   5.354   5.452 -0.2639  0.4262 -1.3122
  395MOL0     C52014   2.825   5.400   5.469  0.3193 -0.4632 -0.3455
  395MOL0     C52015   2.768   5.490   5.379  0.8153 -0.0445 -0.3334
  395MOL0     O52016   2.641   5.536   5.410  0.7381  0.1289  0.1369
  395MOL0     C52017   2.612   5.669   5.370  1.1918 -0.0293  0.6833
  395MOL0     C52018   2.482   5.714   5.438  0.6010 -0.8797 -0.4723
  395MOL0     C52019   2.444   5.858   5.431  0.0560 -1.0692 -1.1248
  395MOL0     C52020   2.453   5.923   5.297  0.2104 -0.1352  0.2384
  395MOL0     C52021   2.312   5.969   5.260  0.2262  0.9056 -0.4391
  395MOL0     C52022   2.240   6.065   5.368  0.0387  0.2395 -0.2773
  395MOL0     C52023   2.159   6.181   5.291  1.3287  0.3469 -0.0379
  395MOL0     C52024   2.027   6.137   5.208  0.3981 -0.0222  0.1952
  395MOL0     N52025   1.929   6.068   5.295  0.1103  0.2579 -0.0288
  395MOL0     C52026   1.829   6.127   5.363  0.2372  0.6636 -0.2484
  395MOL0     C52027   1.739   6.024   5.395  0.2654 -0.1972 -0.5465
  395MOL0     C52028   1.604   6.061   5.436  1.2420  0.6855  0.4701
  395MOL0     C52029   1.549   5.981   5.558  0.4670 -0.0736 -0.2269
  395MOL0     C52030   1.597   6.043   5.689 -0.2951 -0.0644 -0.8960
  395MOL0     C52031   1.752   6.052   5.696 -1.0819 -0.3854 -0.4796
  395MOL0     O52032   1.792   6.182   5.673  0.1261 -1.1259  0.0363
  395MOL0     C52033   1.931   6.195   5.681  0.1961 -0.2704  0.1941
  395MOL0     C52034   2.036   6.103   5.697 -0.4880 -0.3186 -0.3978
  395MOL0     C52035   2.168   6.147   5.693 -0.1778 -0.5970  0.1117
  395MOL0     C52036   2.205   6.274   5.649 -0.3358 -0.6958  0.0201
  395MOL0     C52037   2.349   6.306   5.628 -1.6240 -0.8590  0.5718
  395MOL0     O52038   2.443   6.204   5.627 -0.0658 -0.2595 -0.6819
  395MOL0     C52039   2.567   6.212   5.555  0.3494 -0.4603  1.1809
  395MOL0     C52040   2.682   6.150   5.600  0.3721  1.1854  0.1055
  395MOL0     C52041   2.793   6.155   5.517  0.5160  0.4088 -0.2305
  395MOL0     C52042   2.800   6.227   5.395  0.3158 -0.9915 -0.2366
  395MOL0     O52043   2.914   6.254   5.317  0.3973 -0.4878 -0.4651
  395MOL0     C52044   3.039   6.216   5.376  0.4619 -1.2818  0.0483
  395MOL0     C52045   3.146   6.224   5.268 -0.5666  0.2777  0.7406
  395MOL0     C52046   3.123   6.112   5.158 -0.6990 -0.1818  0.3272
  395MOL0     C52047   3.249   6.118   5.063  0.0074 -0.8103  0.3514
  395MOL0     C52048   3.250   6.015   4.957 -1.0615  0.0901  0.7260
  395MOL0     C52049   3.262   5.872   5.014 -0.5881 -0.0036  0.1488
  395MOL0     C52050   3.267   5.770   4.907  0.1553 -0.5961  0.0597
  395MOL0     C52051   3.226   5.631   4.951  0.4553 -0.5282 -0.8354
  395MOL0    Cl52052   3.334   5.578   5.076  0.2852  0.4264  0.0175
  395MOL0     C52053   2.682   6.283   5.357 -0.4893 -0.6570 -0.9353
  395MOL0     C52054   2.564   6.288   5.435 -1.7759 -0.4091  0.1484
  395MOL0     O52055   2.379   6.426   5.622 -0.1799 -0.2315  0.0244
  395MOL0     C52056   2.103   6.373   5.640 -0.6539 -0.7314 -0.4118
  395MOL0     C52057   1.967   6.328   5.661 -0.4333 -0.1783  0.8206
  395MOL0     N52058   1.801   5.907   5.360 -0.1951  0.2956 -0.1453
  395MOL0     N52059   1.910   5.932   5.305 -0.1767  0.3484  0.9306
  395MOL0     C52060   2.833   5.513   5.257 -0.8463 -0.5676  0.9375
  395MOL0     C52061   2.955   5.456   5.234  0.5560  0.6277 -0.2078
  395MOL0     C52062   3.305   5.135   5.319 -0.4051 -0.4504  0.0897
  395MOL0     C52063   3.319   4.997   5.315 -0.1272  0.2786 -0.2473
  395MOL0     C52064   3.445   4.938   5.290 -0.0817  0.1619  0.1143
  395MOL0     C52065   3.559   5.017   5.276 -0.1417  0.1054  0.5691
  395MOL0     O52066   3.690   4.978   5.251  0.4615 -0.4308 -0.0098
  395MOL0     C52067   3.730   4.835   5.260  0.1362 -0.2188  0.0006
  395MOL0     C52068   3.880   4.831   5.287  0.4844  0.7237 -0.9321
  395MOL0     C52069   3.912   4.848   5.440  0.9579 -0.8109  0.4577
  395MOL0     C52070   4.045   4.808   5.481  0.3555 -0.3118  0.2151
  395MOL0     C52071   4.155   4.881   5.413  0.3170  0.3177  0.4841
  395MOL0     C52072   4.236   4.948   5.349 -0.0541 -0.0469  0.2814
  395MOL0     C52073   3.542   5.155   5.286 -0.1402 -0.5316 -0.7850
  395MOL0     C52074   3.418   5.214   5.295 -0.3115 -0.8490  0.1470
  395MOL0     H52075   3.000   5.302   5.533 -0.6338 -0.9140 -1.9335
  395MOL0     H52076   2.771   5.399   5.564  1.0124 -0.4529  0.0561
  395MOL0     H52077   2.597   5.678   5.262  2.4507  2.2475  0.6354
  395MOL0     H52078   2.692   5.739   5.395  1.2828  1.1516 -2.4731
  395MOL0     H52079   2.485   5.692   5.545  1.1447  0.7648 -0.1193
  395MOL0     H52080   2.397   5.659   5.398 -1.2556  1.7566 -0.4182
  395MOL0     H52081   2.523   5.912   5.485 -2.4780  1.9223 -0.0746
  395MOL0     H52082   2.357   5.869   5.496  1.7126 -0.7951  1.1920
  395MOL0     H52083   2.525   6.006   5.293 -0.8262  0.8126 -3.8389
  395MOL0     H52084   2.497   5.855   5.223  3.5610  2.3249 -0.2592
  395MOL0     H52085   2.244   5.886   5.240 -0.7906  2.0795 -2.2060
  395MOL0     H52086   2.327   6.018   5.163  4.4349 -0.9699 -0.9213
  395MOL0     H52087   2.311   6.121   5.430 -0.8324  1.5743 -0.4384
  395MOL0     H52088   2.177   6.005   5.435  1.0780  0.0686  0.5797
  395MOL0     H52089   2.121   6.251   5.366  0.0040 -0.5783  0.1916
  395MOL0     H52090   2.216   6.245   5.223 -2.2491  3.3874 -0.4985
  395MOL0     H52091   2.051   6.069   5.126  0.3395  3.3817 -2.9284
  395MOL0     H52092   1.993   6.230   5.161 -0.6500 -0.5813 -0.1904
  395MOL0     H52093   1.813   6.234   5.361  0.3331  0.7149  1.1146
  395MOL0     H52094   1.537   6.042   5.351  0.8218  2.6101  0.3408
  395MOL0     H52095   1.585   6.162   5.471 -2.6398  0.1918  0.1934
  395MOL0     H52096   1.590   5.880   5.549 -0.7846 -0.6053 -0.2064
  395MOL0     H52097   1.439   5.984   5.553  0.3329 -1.3979  1.2313
  395MOL0     H52098   1.544   6.135   5.711 -1.1118 -0.5814 -0.6769
  395MOL0     H52099   1.548   5.975   5.759 -1.3050  1.0267 -0.5246
  395MOL0     H52100   1.804   5.987   5.627  0.9708  0.6865 -0.0254
  395MOL0     H52101   1.787   6.030   5.798  1.2702 -0.4716 -1.2550
  395MOL0     H52102   2.009   6.002   5.726 -1.7398 -0.4425 -1.8578
  395MOL0     H52103   2.234   6.061   5.699  1.9481  0.9998  1.0016
  395MOL0     H52104   2.675   6.090   5.690 -1.6359 -0.4790 -1.0689
  395MOL0     H52105   2.878   6.099   5.554 -0.0898 -1.3613 -1.3669
  395MOL0     H52106   3.030   6.114   5.413  1.6213 -0.9497  1.3315
  395MOL0     H52107   3.059   6.276   5.466 -0.5130  0.8298 -1.0636
  395MOL0     H52108   3.248   6.221   5.309  0.0167 -0.1921 -0.6925
  395MOL0     H52109   3.131   6.319   5.216 -1.9268 -0.1001  0.4137
  395MOL0     H52110   3.032   6.133   5.102  0.1029  0.9975 -0.5652
  395MOL0     H52111   3.125   6.013   5.207 -1.8774 -0.4640 -0.1516
  395MOL0     H52112   3.259   6.219   5.023 -2.3742 -0.4216  0.6127
  395MOL0     H52113   3.336   6.110   5.130  2.0710  1.4154 -1.8778
  395MOL0     H52114   3.327   6.032   4.882 -0.7076 -0.0127  1.0611
  395MOL0     H52115   3.157   6.017   4.900 -0.3448 -0.0609 -0.4785
  395MOL0     H52116   3.176   5.851   5.079 -0.9510  3.2344  0.8624
  395MOL0     H52117   3.352   5.861   5.076  0.0284 -0.3670 -0.7811
  395MOL0     H52118   3.196   5.800   4.830 -0.2474 -0.4907  0.4624
  395MOL0     H52119   3.367   5.774   4.862  0.5969  1.8044  1.0853
  395MOL0     H52120   3.235   5.563   4.865 -0.4431 -1.4453 -0.2275
  395MOL0     H52121   3.123   5.636   4.987  0.9799  0.7748  0.6054
  395MOL0     H52122   2.673   6.336   5.263  2.6174  0.2665 -0.8516
  395MOL0     H52123   2.473   6.333   5.396 -0.7798  1.7304  0.1520
  395MOL0     H52124   2.126   6.477   5.621  0.1614 -1.1214 -1.6924
  395MOL0     H52125   1.880   6.392   5.653 -0.4054 -0.0009  1.7908
  395MOL0     H52126   2.790   5.575   5.179 -3.0053 -0.2013  2.3328
  395MOL0     H52127   2.988   5.466   5.131  0.6590 -0.9841 -0.3637
  395MOL0     H52128   3.241   4.924   5.330 -2.5259  1.8131 -3.9830
  395MOL0     H52129   3.449   4.830   5.280 -1.6746 -0.0810  1.6289
  395MOL0     H52130   3.704   4.783   5.168  0.3616 -2.0209  0.9111
  395MOL0     H52131   3.677   4.788   5.343 -0.0924  1.1903  0.6871
  395MOL0     H52132   3.922   4.738   5.246  3.1003  1.5659 -0.3765
  395MOL0     H52133   3.923   4.918   5.237  0.6845 -0.2177 -2.4920
  395MOL0     H52134   3.835   4.792   5.494 -1.5220 -1.2015 -3.0857
  395MOL0     H52135   3.889   4.949   5.473 -2.2766 -1.5108  0.6917
  395MOL0     H52136   4.058   4.814   5.590 -0.0982  2.9797  0.1827
  395MOL0     H52137   4.055   4.702   5.456  0.0321 -0.6735  1.5445
  395MOL0     H52138   4.295   5.005   5.279  0.0653 -0.4933  0.0168
  395MOL0     H52139   3.627   5.222   5.273 -1.6310  1.6478  0.2101
  395MOL0     H52140   3.414   5.322   5.301  4.5992 -0.3434 -1.5198
  396MOL0     O52141   1.565   3.073   9.978  0.3049 -0.3763  0.6134
  396MOL0     C52142   1.497   3.163   9.932 -0.4498  0.0124  0.6399
  396MOL0     O52143   1.558   3.247   9.837 -0.3366 -0.4003  0.0596
  396MOL0     C52144   1.681   3.223   9.795  0.0106 -0.7283  0.4838
  396MOL0     C52145   1.790   3.296   9.852  1.3827  0.4285  0.0055
  396MOL0     C52146   1.922   3.253   9.821  0.8239  0.5478  0.5275
  396MOL0     C52147   1.945   3.148   9.731  0.7053  0.0533 -0.9075
  396MOL0     O52148   2.072   3.113   9.699  0.0239  0.7293 -0.0388
  396MOL0     C52149   2.193   3.189   9.735  0.3659 -0.5470 -0.4704
  396MOL0     C52150   2.320   3.124   9.703 -0.2501  0.3694 -0.9922
  396MOL0     C52151   2.323   2.978   9.760 -0.1694  0.4391  0.6363
  396MOL0     C52152   2.449   2.912   9.758  0.4556 -0.2717  0.5231
  396MOL0     C52153   2.443   2.768   9.797 -0.5205  0.3305  0.8732
  396MOL0     C52154   2.581   2.710   9.819 -0.3766 -0.5065 -0.4360
  396MOL0     C52155   2.578   2.563   9.881  0.0512 -0.6607 -0.0475
  396MOL0     C52156   2.523   2.569  10.020 -0.2895  0.0179 -0.6475
  396MOL0     N52157   2.388   2.517  10.028 -0.8723 -0.1248  0.4820
  396MOL0     C52158   2.342   2.390  10.007 -0.3901  0.1600  0.2306
  396MOL0     C52159   2.211   2.405  10.000  0.3732 -0.6495  0.9157
  396MOL0     C52160   2.110   2.293   9.970 -1.3719 -0.0563 -0.2443
  396MOL0     C52161   2.001   2.339   9.877 -0.2672 -0.4834  0.1454
  396MOL0     C52162   1.906   2.220   9.840 -0.6976 -0.6772  0.4785
  396MOL0     C52163   1.769   2.270   9.781 -0.1347  0.2410 -0.6013
  396MOL0     O52164   1.684   2.161   9.814  0.6944  0.0983 -0.1842
  396MOL0     C52165   1.551   2.183   9.807  0.3717  0.2697  0.2860
  396MOL0     C52166   1.470   2.094   9.881  0.0307  0.3454 -0.9599
  396MOL0     C52167   1.328   2.095   9.869  1.0366  0.0881  0.1911
  396MOL0     C52168   1.267   2.191   9.785  0.6755 -0.4660  0.5129
  396MOL0     C52169   1.119   2.185   9.761 -0.0787  0.1062  1.0998
  396MOL0     O52170   1.053   2.136   9.873  0.2089 -0.2511  0.3077
  396MOL0     C52171   0.919   2.105   9.876 -0.1407 -0.0116 -0.1434
  396MOL0     C52172   0.885   2.023   9.988  0.2669 -0.7294  0.3573
  396MOL0     C52173   0.748   2.002  10.009 -0.6973  0.3499 -0.4640
  396MOL0     C52174   0.647   2.040   9.916 -0.5667  0.4368 -0.2267
  396MOL0     O52175   0.513   2.000   9.937 -0.1282 -0.1393  0.4794
  396MOL0     C52176   0.427   1.977   9.815 -0.5480 -0.0094  0.1780
  396MOL0     C52177   0.278   1.966   9.839  0.5984 -1.1291 -1.6561
  396MOL0     C52178   0.186   1.928   9.726  0.4893 -0.5976 -0.4816
  396MOL0     C52179   0.046   1.907   9.776  0.2814 -0.4236  1.1484
  396MOL0     C52180  -0.025   1.841   9.660 -0.5592  0.0616 -0.8743
  396MOL0     C52181  -0.170   1.823   9.687 -0.0432 -0.2668  0.2545
  396MOL0     C52182  -0.246   1.745   9.582  0.5938  0.7119 -0.0596
  396MOL0     C52183  -0.249   1.818   9.455  0.3895 -0.6020  0.2824
  396MOL0    Cl52184  -0.360   1.739   9.354 -0.3558  0.4791  0.1012
  396MOL0     C52185   0.684   2.114   9.808  0.0723  0.0963  0.9823
  396MOL0     C52186   0.815   2.148   9.787 -0.1949  0.2220 -0.1031
  396MOL0     O52187   1.075   2.212   9.649  0.1271  0.3487  0.0783
  396MOL0     C52188   1.343   2.286   9.713 -0.1818 -0.0711  0.4388
  396MOL0     C52189   1.479   2.283   9.725  0.1846 -0.2752 -0.6569
  396MOL0     N52190   2.175   2.534  10.028  0.0876  0.2701 -0.0906
  396MOL0     N52191   2.287   2.598  10.056 -0.1586  0.2361  0.0951
  396MOL0     C52192   1.840   3.084   9.667 -0.1260 -0.6047 -0.9326
  396MOL0     C52193   1.710   3.121   9.705  1.0457  0.1932 -0.8119
  396MOL0     C52194   1.352   3.189   9.966  0.1481 -0.1664  0.0581
  396MOL0     C52195   1.283   3.080  10.033  0.5467 -0.0791  0.6779
  396MOL0     C52196   1.150   3.101  10.068 -0.3506  0.1177  0.1725
  396MOL0     C52197   1.076   3.215  10.026  0.1215  0.2628 -0.3049
  396MOL0     O52198   0.945   3.237  10.053  0.9476 -0.5948 -1.2872
  396MOL0     C52199   0.885   3.186  10.172  0.5995 -0.1930  0.0010
  396MOL0     C52200   0.770   3.277  10.241 -0.5708 -0.4578  0.7896
  396MOL0     C52201   0.682   3.368  10.153 -0.0187  0.9383  0.9963
  396MOL0     C52202   0.637   3.497  10.213 -0.4512 -0.4816  1.0196
  396MOL0     C52203   0.566   3.479  10.340 -0.7609 -0.2653 -0.2803
  396MOL0     C52204   0.474   3.450  10.415 -0.3422  0.0186  0.2452
  396MOL0     C52205   1.155   3.317   9.972  0.0767 -0.7942  0.4021
  396MOL0     C52206   1.285   3.308   9.937 -1.2939 -0.2381  0.5822
  396MOL0     H52207   1.778   3.372   9.929  4.0516 -0.9545  1.9555
  396MOL0     H52208   2.000   3.313   9.866 -0.3001  2.2747  0.2881
  396MOL0     H52209   2.181   3.211   9.842 -0.6106 -0.8227 -0.5116
  396MOL0     H52210   2.197   3.288   9.690 -1.7952 -0.1404  0.0900
  396MOL0     H52211   2.395   3.183   9.756 -1.2652  0.5226  0.3052
  396MOL0     H52212   2.336   3.121   9.595  0.5980  2.4580 -0.9598
  396MOL0     H52213   2.260   2.918   9.694  2.6496 -0.0547 -1.7930
  396MOL0     H52214   2.283   2.974   9.862  1.1888 -0.2393  1.1707
  396MOL0     H52215   2.486   2.937   9.658 -1.3141 -0.2096 -0.1481
  396MOL0     H52216   2.513   2.958   9.834  0.5611  1.2993 -0.4719
  396MOL0     H52217   2.399   2.696   9.728  1.6776 -0.5534  0.3007
  396MOL0     H52218   2.398   2.761   9.896 -5.6155 -1.3952 -1.2291
  396MOL0     H52219   2.622   2.774   9.898 -2.4602 -1.3207  1.4226
  396MOL0     H52220   2.647   2.706   9.732  1.0148 -1.9551  0.6503
  396MOL0     H52221   2.525   2.493   9.816 -0.6936 -1.1501  1.0648
  396MOL0     H52222   2.682   2.530   9.892 -0.1541 -1.3797 -0.2126
  396MOL0     H52223   2.534   2.662  10.076 -1.9532 -0.1739  0.0736
  396MOL0     H52224   2.592   2.504  10.074  0.0077  1.5821  0.9332
  396MOL0     H52225   2.398   2.297   9.999  1.5996  1.3988 -0.9412
  396MOL0     H52226   2.082   2.247  10.066  2.9290 -1.8241  0.3846
  396MOL0     H52227   2.158   2.214   9.912 -1.2353 -1.7918  2.0511
  396MOL0     H52228   2.038   2.399   9.793  2.2924 -1.3111  0.5861
  396MOL0     H52229   1.936   2.406   9.935 -1.1908 -0.0611 -1.3402
  396MOL0     H52230   1.960   2.151   9.775  2.4816 -0.3173  2.5481
  396MOL0     H52231   1.895   2.170   9.936  1.0180  1.2234  1.7347
  396MOL0     H52232   1.766   2.268   9.671 -2.1128 -0.4021 -0.5835
  396MOL0     H52233   1.735   2.368   9.814  0.7667  0.0539  0.9956
  396MOL0     H52234   1.521   2.035   9.957  0.7136  0.9756 -0.9149
  396MOL0     H52235   1.265   2.025   9.923 -1.7408  1.6150 -0.8687
  396MOL0     H52236   0.962   1.992  10.058 -0.4427 -2.4002  0.4452
  396MOL0     H52237   0.724   1.938  10.093  2.7510 -0.7990 -0.2262
  396MOL0     H52238   0.461   1.891   9.757  3.1135  0.4845  1.3762
  396MOL0     H52239   0.440   2.062   9.748 -1.6503 -1.2408 -1.7039
  396MOL0     H52240   0.251   2.060   9.889  0.2826 -1.3566 -1.3962
  396MOL0     H52241   0.266   1.885   9.911 -1.6548 -0.3704 -1.0853
  396MOL0     H52242   0.219   1.829   9.694  0.9187 -1.5286  2.5515
  396MOL0     H52243   0.178   2.003   9.647  1.7166  1.5023  1.2884
  396MOL0     H52244   0.028   1.839   9.860 -5.0717 -1.3234 -0.3574
  396MOL0     H52245   0.001   2.005   9.796  0.5652 -0.0372 -0.0581
  396MOL0     H52246   0.020   1.744   9.636  1.2012  0.5086  0.4317
  396MOL0     H52247  -0.012   1.917   9.583  0.5487 -1.5226 -2.3209
  396MOL0     H52248  -0.229   1.914   9.702 -0.2493 -0.4653  0.6890
  396MOL0     H52249  -0.188   1.762   9.776  2.3125 -0.9624  0.3282
  396MOL0     H52250  -0.198   1.647   9.573  1.9531  1.5152 -2.6026
  396MOL0     H52251  -0.348   1.733   9.621  1.1774  0.5603  1.5259
  396MOL0     H52252  -0.152   1.836   9.407 -0.7431  2.0756 -1.2157
  396MOL0     H52253  -0.293   1.918   9.466 -2.3509 -1.3065 -2.8500
  396MOL0     H52254   0.611   2.151   9.736 -0.9563 -0.7017  1.5898
  396MOL0     H52255   0.837   2.217   9.706 -4.5338  2.7032  0.4911
  396MOL0     H52256   1.288   2.361   9.658 -0.2689 -0.7182 -0.3857
  396MOL0     H52257   1.541   2.351   9.667 -0.8750 -0.7006 -2.3600
  396MOL0     H52258   1.850   3.009   9.589  3.7654 -1.8468  0.5160
  396MOL0     H52259   1.633   3.073   9.645  0.3795  3.6143 -2.9585
  396MOL0     H52260   1.325   2.987  10.071 -2.5713 -0.6379  3.2809
  396MOL0     H52261   1.099   3.028  10.130  0.2640  1.2455  2.1084
  396MOL0     H52262   0.952   3.158  10.253  0.5345 -1.7029 -0.4476
  396MOL0     H52263   0.834   3.091  10.153  0.1733  0.3578 -1.7732
  396MOL0     H52264   0.712   3.215  10.311 -2.4599 -1.2237 -1.3373
  396MOL0     H52265   0.823   3.345  10.307 -0.9259 -1.4518  2.1516
  396MOL0     H52266   0.596   3.308  10.119  2.8434 -2.2836 -1.2118
  396MOL0     H52267   0.733   3.402  10.063 -0.5277 -1.6441 -0.3969
  396MOL0     H52268   0.724   3.560  10.233  3.0400 -3.8141 -2.0496
  396MOL0     H52269   0.578   3.545  10.134  2.2960  0.3595 -0.6322
  396MOL0     H52270   0.413   3.415  10.496  0.5176 -0.8984  0.5130
  396MOL0     H52271   1.108   3.411   9.946  1.8790 -0.6260 -2.6672
  396MOL0     H52272   1.335   3.393   9.893 -0.3638 -0.0383  1.9531
  397MOL0     O52273   7.816   9.071   3.508  0.3693 -0.8709 -0.5764
  397MOL0     C52274   7.795   9.024   3.620  0.2837 -0.2599  1.1804
  397MOL0     O52275   7.691   9.060   3.706 -0.0325 -0.0062  1.2000
  397MOL0     C52276   7.591   9.140   3.653  0.7001  0.4945  0.4549
  397MOL0     C52277   7.460   9.108   3.676  0.9465  0.6349 -0.1958
  397MOL0     C52278   7.349   9.200   3.652 -0.5124  0.2885 -0.0055
  397MOL0     C52279   7.374   9.334   3.610 -1.4788  0.7358 -0.1390
  397MOL0     O52280   7.278   9.430   3.572 -0.0913  0.4684 -0.7615
  397MOL0     C52281   7.145   9.391   3.599  0.5002  0.1032 -0.1727
  397MOL0     C52282   7.063   9.516   3.594 -0.0296  0.2421 -0.8720
  397MOL0     C52283   7.025   9.547   3.456  0.8269 -0.7217 -0.3142
  397MOL0     C52284   6.995   9.702   3.444  0.0894  0.0510 -0.0903
  397MOL0     C52285   7.006   9.754   3.302  0.3332 -0.4457 -0.0142
  397MOL0     C52286   6.918   9.880   3.277  0.3089 -0.6421  0.4845
  397MOL0     C52287   6.956   9.959   3.152 -0.2366  0.1386  0.2430
  397MOL0     C52288   6.970   9.873   3.025  0.1700 -0.6659  0.1573
  397MOL0     N52289   6.847   9.807   2.992  0.1812 -0.2044  0.8797
  397MOL0     C52290   6.762   9.853   2.903 -0.1730  0.1187 -0.4849
  397MOL0     C52291   6.666   9.756   2.903  0.0123 -0.7012  0.7597
  397MOL0     C52292   6.534   9.769   2.828 -0.4522 -0.3481 -0.2080
  397MOL0     C52293   6.420   9.800   2.922  0.8525 -0.4409 -0.2968
  397MOL0     C52294   6.445   9.919   3.024 -0.1745  0.5268  1.0710
  397MOL0     C52295   6.312   9.948   3.099  0.1152 -0.1087  1.4707
  397MOL0     O52296   6.324  10.043   3.197  0.4443 -0.5179  0.1608
  397MOL0     C52297   6.245  10.039   3.307  0.5168 -0.1356 -0.0373
  397MOL0     C52298   6.106  10.034   3.289  1.0392  1.1858  0.1311
  397MOL0     C52299   6.014  10.040   3.397 -0.4359 -0.3409  0.2604
  397MOL0     C52300   6.067  10.042   3.525  0.5990  0.2685 -0.7032
  397MOL0     C52301   5.979  10.042   3.645  0.7358  0.2445 -0.2730
  397MOL0     O52302   5.844  10.049   3.641  0.2753  0.2565 -0.0938
  397MOL0     C52303   5.779  10.075   3.765 -0.2482 -0.3041 -0.1149
  397MOL0     C52304   5.688   9.984   3.800 -0.4117 -0.6443 -0.9800
  397MOL0     C52305   5.600   9.991   3.908  0.0385  0.3532 -0.4534
  397MOL0     C52306   5.617  10.101   3.996  0.6803  0.8319 -0.0658
  397MOL0     O52307   5.531  10.104   4.104 -0.0119 -0.4531  0.1931
  397MOL0     C52308   5.481  10.225   4.156 -0.5092 -0.7764 -0.4690
  397MOL0     C52309   5.348  10.196   4.222 -0.8131 -0.5768  0.8755
  397MOL0     C52310   5.231  10.149   4.139  0.0631  0.1212 -0.4949
  397MOL0     C52311   5.120  10.114   4.235 -0.0182  0.2627  0.6538
  397MOL0     C52312   4.976  10.104   4.167  0.5896  0.7172  0.7652
  397MOL0     C52313   4.958   9.986   4.055 -0.4380 -0.3882  0.4623
  397MOL0     C52314   4.812   9.945   4.026  0.0587  0.8396 -0.1224
  397MOL0     C52315   4.720  10.059   4.016 -0.0753  0.0027 -1.6320
  397MOL0    Cl52316   4.565  10.003   3.945  0.1801  0.1934 -0.2058
  397MOL0     C52317   5.720  10.197   3.965 -0.4462  0.5477 -1.3710
  397MOL0     C52318   5.793  10.189   3.843 -0.1145 -0.1473  0.5157
  397MOL0     O52319   6.042  10.045   3.752 -0.3379 -0.2452 -0.4952
  397MOL0     C52320   6.213  10.053   3.549  0.9606  0.5428  0.2786
  397MOL0     C52321   6.294  10.040   3.434  0.0378 -0.0873  0.2731
  397MOL0     N52322   6.692   9.659   2.987  1.0944  0.5704  0.2031
  397MOL0     N52323   6.797   9.693   3.047 -0.9861 -0.3977 -0.3163
  397MOL0     C52324   7.509   9.365   3.602 -0.0351 -0.0908 -0.3732
  397MOL0     C52325   7.614   9.276   3.624  0.0003  0.1712 -0.4828
  397MOL0     C52326   7.867   8.902   3.663 -1.0248 -0.0698 -0.4019
  397MOL0     C52327   7.874   8.849   3.791 -0.0138 -0.1368 -0.4572
  397MOL0     C52328   7.944   8.730   3.811 -0.5261  0.1189 -0.0167
  397MOL0     C52329   8.015   8.663   3.709  0.3222 -0.2610  0.1788
  397MOL0     O52330   8.087   8.556   3.728  0.2080  0.5319  0.4821
  397MOL0     C52331   8.060   8.474   3.840 -0.1309 -0.2064 -0.6735
  397MOL0     C52332   8.152   8.512   3.951  0.0945  0.2358  0.9329
  397MOL0     C52333   8.289   8.456   3.927  0.0408  0.2785 -0.4929
  397MOL0     C52334   8.386   8.512   4.032 -0.9274  0.5089 -0.6471
  397MOL0     C52335   8.524   8.458   4.026 -0.3673  0.3874 -0.8381
  397MOL0     C52336   8.649   8.448   4.031 -0.2919  0.1377 -0.3486
  397MOL0     C52337   8.013   8.721   3.585  0.1947 -0.7657 -0.2611
  397MOL0     C52338   7.932   8.828   3.564 -0.6706 -0.6768  1.0076
  397MOL0     H52339   7.424   9.010   3.706 -2.4995  1.8790  0.2147
  397MOL0     H52340   7.249   9.167   3.680  0.7832 -0.9256  3.7276
  397MOL0     H52341   7.147   9.347   3.699  3.0004  0.1301 -0.1247
  397MOL0     H52342   7.120   9.310   3.530  1.7039 -1.3405  1.0111
  397MOL0     H52343   7.138   9.586   3.631  1.2231 -1.5974  0.2559
  397MOL0     H52344   6.974   9.494   3.654  0.0212  0.5467 -0.6833
  397MOL0     H52345   6.935   9.493   3.422  1.2021 -1.2380 -0.4991
  397MOL0     H52346   7.117   9.524   3.402 -0.1886 -2.0710 -1.5566
  397MOL0     H52347   6.889   9.708   3.471  0.1217 -1.5019  0.4851
  397MOL0     H52348   7.060   9.761   3.509  2.7290 -1.8307 -0.8279
  397MOL0     H52349   6.967   9.685   3.227 -1.2507  0.6207 -0.2041
  397MOL0     H52350   7.110   9.775   3.272 -0.5890  0.8233 -2.6501
  397MOL0     H52351   6.921   9.947   3.363 -1.9304 -0.3243  0.3829
  397MOL0     H52352   6.811   9.855   3.271  0.6122 -2.3094  1.2784
  397MOL0     H52353   6.883  10.038   3.138 -0.2318  0.2050  0.5752
  397MOL0     H52354   7.054  10.006   3.169 -0.2312 -0.5941  2.6620
  397MOL0     H52355   7.049   9.798   3.032  1.1817  0.1209 -1.9190
  397MOL0     H52356   7.004   9.945   2.950 -0.5293 -0.5686 -0.0748
  397MOL0     H52357   6.766   9.950   2.853  1.9571  1.2354  1.6174
  397MOL0     H52358   6.519   9.679   2.768  0.0079  1.1252 -2.7023
  397MOL0     H52359   6.530   9.859   2.765 -1.4829  0.5753  1.1034
  397MOL0     H52360   6.404   9.703   2.969  4.2900 -1.1180 -0.2967
  397MOL0     H52361   6.339   9.830   2.855  0.4664 -0.7078  0.0492
  397MOL0     H52362   6.518   9.880   3.095  1.2322 -0.2554 -0.7345
  397MOL0     H52363   6.474  10.008   2.968  1.2195  0.1507  1.1800
  397MOL0     H52364   6.276   9.848   3.129  1.4330 -1.4006 -0.9497
  397MOL0     H52365   6.239   9.981   3.025  2.3671  2.2234  0.1348
  397MOL0     H52366   6.084  10.025   3.183  2.4570 -0.4242 -0.0630
  397MOL0     H52367   5.907  10.032   3.381 -0.5319  2.7158 -1.4553
  397MOL0     H52368   5.688   9.893   3.740  0.7471 -0.9158 -0.6056
  397MOL0     H52369   5.529   9.915   3.937 -0.3089  1.2201  1.0874
  397MOL0     H52370   5.463  10.305   4.085  0.1632  1.7409  2.0126
  397MOL0     H52371   5.555  10.259   4.230 -2.3168 -0.7355  1.4173
  397MOL0     H52372   5.325  10.294   4.265  0.3844  0.3951 -0.5957
  397MOL0     H52373   5.367  10.124   4.302  2.1114  3.1110  3.9416
  397MOL0     H52374   5.261  10.062   4.081 -0.5402 -1.1177  0.9751
  397MOL0     H52375   5.204  10.236   4.078  0.8851  2.2280  1.9199
  397MOL0     H52376   5.147  10.019   4.281 -0.8996  1.1991  3.2475
  397MOL0     H52377   5.117  10.185   4.317  1.4286 -0.9822  1.8549
  397MOL0     H52378   4.942  10.200   4.127 -0.3003  0.8151  1.7232
  397MOL0     H52379   4.907  10.080   4.248  1.0440  2.0828  1.5915
  397MOL0     H52380   5.021   9.901   4.084 -0.6636 -0.7803 -0.1933
  397MOL0     H52381   4.995  10.026   3.960  0.1606 -1.3226  0.2826
  397MOL0     H52382   4.805   9.884   3.936  1.0637 -1.9297  1.5393
  397MOL0     H52383   4.778   9.881   4.108  0.8124 -1.0066 -1.1953
  397MOL0     H52384   4.750  10.142   3.951  3.6259  0.2309  0.1567
  397MOL0     H52385   4.711  10.090   4.120 -2.5199 -0.5760 -1.5968
  397MOL0     H52386   5.731  10.288   4.022  3.8185 -0.8515  0.4993
  397MOL0     H52387   5.875  10.254   3.814  0.1280  0.4300  2.3511
  397MOL0     H52388   6.253  10.078   3.647 -3.2901 -0.0967  2.4110
  397MOL0     H52389   6.402  10.039   3.436  0.0364  0.3993  1.2623
  397MOL0     H52390   7.535   9.465   3.568  2.3198  0.0052  1.4830
  397MOL0     H52391   7.719   9.305   3.629  0.2917 -0.9525  0.4120
  397MOL0     H52392   7.812   8.886   3.872 -0.3075  0.9270 -1.1526
  397MOL0     H52393   7.935   8.679   3.907 -1.6893 -0.2501 -0.3003
  397MOL0     H52394   8.080   8.369   3.816 -0.0656 -0.2490 -0.4334
  397MOL0     H52395   7.956   8.466   3.876  0.1708 -1.1200  0.0360
  397MOL0     H52396   8.166   8.621   3.946 -1.6922  0.4370 -1.7954
  397MOL0     H52397   8.100   8.488   4.045 -0.4744 -0.4242  0.4594
  397MOL0     H52398   8.330   8.486   3.830  2.0009  2.4828  0.9129
  397MOL0     H52399   8.277   8.348   3.937 -1.0344  0.5955  4.6449
  397MOL0     H52400   8.406   8.618   4.018 -0.6435  0.3493 -1.5636
  397MOL0     H52401   8.337   8.483   4.126 -0.8727  0.1309 -0.7316
  397MOL0     H52402   8.755   8.453   4.043 -0.4451 -1.5336  3.3432
  397MOL0     H52403   8.065   8.677   3.501  0.1165 -2.3459  0.4624
  397MOL0     H52404   7.922   8.854   3.459  0.8017  2.0866  1.4477
  398MOL0     O52405   6.636   4.605   9.773 -0.3699  0.1594 -0.5705
  398MOL0     C52406   6.570   4.662   9.685  0.5468 -0.2594 -0.1891
  398MOL0     O52407   6.625   4.735   9.578  0.4485 -0.3972 -0.6608
  398MOL0     C52408   6.764   4.725   9.569 -0.3232 -0.8133 -0.1937
  398MOL0     C52409   6.833   4.662   9.467  0.0596 -0.4884 -0.3369
  398MOL0     C52410   6.975   4.652   9.474  0.3113 -0.4958  0.4011
  398MOL0     C52411   7.050   4.730   9.562 -0.3845  1.1403 -0.1647
  398MOL0     O52412   7.182   4.751   9.547 -0.6614  0.2093 -0.1660
  398MOL0     C52413   7.240   4.762   9.416 -0.3472  0.0471 -0.0957
  398MOL0     C52414   7.395   4.752   9.443 -0.4865  0.7810  0.4912
  398MOL0     C52415   7.439   4.606   9.444  0.3119 -0.0958  0.4115
  398MOL0     C52416   7.596   4.606   9.457  0.3607 -0.7150 -0.6588
  398MOL0     C52417   7.645   4.463   9.417 -0.4875  0.3319 -0.4185
  398MOL0     C52418   7.792   4.437   9.413 -0.1158  0.4205 -0.0443
  398MOL0     C52419   7.835   4.316   9.310  0.5580 -0.5770 -0.4821
  398MOL0     C52420   7.984   4.288   9.324 -0.5061 -0.1329  0.2806
  398MOL0     N52421   8.027   4.194   9.219  0.0605  0.6912  1.2884
  398MOL0     C52422   8.031   4.227   9.082 -0.2520  0.0452  0.0328
  398MOL0     C52423   8.090   4.114   9.026  0.2608 -0.1818  0.2633
  398MOL0     C52424   8.091   4.091   8.875  0.4518  0.3522  0.6651
  398MOL0     C52425   8.229   4.050   8.818 -1.1500  0.7316  0.3958
  398MOL0     C52426   8.224   4.006   8.662  0.0271  0.3602 -0.6585
  398MOL0     C52427   8.198   4.117   8.574  0.8658 -0.0353 -0.2191
  398MOL0     O52428   8.143   4.054   8.458  0.5376 -0.1180 -0.5660
  398MOL0     C52429   8.113   4.136   8.358  0.2547  0.1835  0.4559
  398MOL0     C52430   8.094   4.275   8.360 -0.4398  0.6161 -0.8362
  398MOL0     C52431   8.051   4.342   8.243  0.2315  0.1696 -0.2268
  398MOL0     C52432   8.027   4.276   8.126 -0.5458  0.2977  0.3520
  398MOL0     C52433   7.991   4.355   8.001  0.2202  0.8117  0.6436
  398MOL0     O52434   8.018   4.299   7.885  0.2098  0.3683  0.0995
  398MOL0     C52435   7.971   4.357   7.769  1.0727  0.8070  0.2882
  398MOL0     C52436   7.941   4.267   7.671  0.6678  0.6765 -0.3231
  398MOL0     C52437   7.899   4.305   7.542 -0.3221 -0.3097 -1.0186
  398MOL0     C52438   7.890   4.441   7.513 -0.5403 -0.1240  0.3117
  398MOL0     O52439   7.845   4.483   7.392 -0.5341  1.2860  0.0181
  398MOL0     C52440   7.700   4.501   7.380 -0.1882  0.2671 -0.4732
  398MOL0     C52441   7.620   4.371   7.386  0.5233  0.2436 -0.1068
  398MOL0     C52442   7.468   4.408   7.377 -0.0265 -0.1961 -0.8673
  398MOL0     C52443   7.387   4.280   7.407  0.2339  0.3524 -0.5728
  398MOL0     C52444   7.252   4.280   7.320  0.2498 -0.5631 -0.4846
  398MOL0     C52445   7.147   4.375   7.396 -1.2815 -0.1750  0.1031
  398MOL0     C52446   7.019   4.352   7.329 -0.1062  0.4561 -0.6551
  398MOL0     C52447   6.916   4.439   7.397  0.1785 -0.0008  0.8494
  398MOL0    Cl52448   6.759   4.447   7.310  0.5209 -0.2192 -0.2085
  398MOL0     C52449   7.912   4.537   7.608 -0.1870 -0.2662 -0.1354
  398MOL0     C52450   7.958   4.492   7.740  0.6768  0.0532  0.5865
  398MOL0     O52451   7.942   4.464   8.019  0.0508 -0.2615  0.4714
  398MOL0     C52452   8.051   4.140   8.121  0.0063 -0.6384 -0.8813
  398MOL0     C52453   8.078   4.073   8.244 -0.1628  0.5336  0.9664
  398MOL0     N52454   8.134   4.023   9.121  0.3142 -0.0374  0.8257
  398MOL0     N52455   8.112   4.083   9.233 -0.4731  0.1345  0.0818
  398MOL0     C52456   6.981   4.795   9.664  0.1681  0.1258  0.0099
  398MOL0     C52457   6.839   4.791   9.672 -0.6126 -0.4034  0.3214
  398MOL0     C52458   6.428   4.652   9.698 -0.6618 -1.7767 -0.2453
  398MOL0     C52459   6.369   4.558   9.783  0.4136  0.3215 -0.3106
  398MOL0     C52460   6.229   4.555   9.799  1.3684  0.2743 -0.4470
  398MOL0     C52461   6.139   4.635   9.727  0.8962 -1.4071 -0.6295
  398MOL0     O52462   6.003   4.622   9.721  0.6197 -0.0336 -0.5212
  398MOL0     C52463   5.944   4.516   9.798 -0.6470 -0.2912  0.7840
  398MOL0     C52464   5.785   4.521   9.788  0.4085 -0.3527  0.1220
  398MOL0     C52465   5.723   4.648   9.845 -0.2049  1.2890 -0.2380
  398MOL0     C52466   5.565   4.635   9.852 -0.1939  0.9531 -0.2501
  398MOL0     C52467   5.528   4.582   9.981 -0.4283 -0.4986  0.0429
  398MOL0     C52468   5.495   4.540  10.092 -0.3766 -0.8229  0.2138
  398MOL0     C52469   6.198   4.719   9.632 -0.6080 -0.8027 -0.0080
  398MOL0     C52470   6.336   4.738   9.629 -0.6070 -0.7984  0.2053
  398MOL0     H52471   6.775   4.612   9.390 -2.7723 -0.4632  1.6488
  398MOL0     H52472   7.022   4.604   9.389 -1.9509  2.1287 -2.5905
  398MOL0     H52473   7.213   4.856   9.367 -1.6035  1.1752  2.5508
  398MOL0     H52474   7.216   4.678   9.350 -1.3180  0.2587 -0.0250
  398MOL0     H52475   7.438   4.810   9.525 -0.9374  1.1388  0.4796
  398MOL0     H52476   7.446   4.787   9.353  0.0211  1.9516  1.2111
  398MOL0     H52477   7.396   4.554   9.358  1.9032  0.0840 -0.5371
  398MOL0     H52478   7.399   4.555   9.532 -4.9666  2.7046  0.0119
  398MOL0     H52479   7.647   4.682   9.398  1.1841  0.4260  1.3908
  398MOL0     H52480   7.622   4.620   9.563 -1.6458 -0.1450 -0.1870
  398MOL0     H52481   7.615   4.449   9.313  1.7225 -2.9053 -0.7787
  398MOL0     H52482   7.584   4.388   9.469 -0.6823 -0.0253 -1.1507
  398MOL0     H52483   7.833   4.427   9.514 -0.3340 -0.2386 -0.0181
  398MOL0     H52484   7.847   4.525   9.377 -0.9653  0.6400 -0.8368
  398MOL0     H52485   7.783   4.225   9.342  0.8703 -0.4435  0.4183
  398MOL0     H52486   7.802   4.351   9.211  0.4797  3.3133  0.7485
  398MOL0     H52487   7.991   4.233   9.418 -1.3995 -3.0456 -1.2483
  398MOL0     H52488   8.029   4.388   9.316 -1.8472  0.5236  0.6025
  398MOL0     H52489   7.985   4.307   9.025 -0.0357 -0.9626 -1.6226
  398MOL0     H52490   8.047   4.174   8.819  0.8871  0.4320  0.4325
  398MOL0     H52491   8.038   3.997   8.857  0.5955  0.4058 -0.0895
  398MOL0     H52492   8.278   3.977   8.882 -1.3180  0.5000  0.2642
  398MOL0     H52493   8.303   4.127   8.841  0.0878 -1.0829  3.0304
  398MOL0     H52494   8.320   3.967   8.628 -0.8355 -1.3774 -1.2122
  398MOL0     H52495   8.159   3.920   8.642 -0.7156  1.4368 -3.3627
  398MOL0     H52496   8.293   4.170   8.561  1.7151 -1.6207 -0.7375
  398MOL0     H52497   8.119   4.174   8.624  0.7886 -1.0010  0.7887
  398MOL0     H52498   8.110   4.335   8.449  1.6658  3.1508 -2.7172
  398MOL0     H52499   8.036   4.449   8.243  0.3787  0.2103 -1.9699
  398MOL0     H52500   7.953   4.160   7.685 -2.1735  0.2536 -0.5432
  398MOL0     H52501   7.883   4.223   7.472  0.4677 -0.6307 -0.8371
  398MOL0     H52502   7.665   4.549   7.289  0.9112 -1.8709 -2.1018
  398MOL0     H52503   7.673   4.565   7.465 -3.6052 -2.8742  1.0764
  398MOL0     H52504   7.640   4.316   7.478 -0.0042 -0.8708 -0.6380
  398MOL0     H52505   7.646   4.302   7.305 -3.2904 -2.5881  0.8007
  398MOL0     H52506   7.449   4.453   7.279  2.7671 -2.0458 -2.3680
  398MOL0     H52507   7.450   4.482   7.456 -0.7495 -0.9155 -0.3468
  398MOL0     H52508   7.427   4.183   7.377  0.9824  0.2135  0.8224
  398MOL0     H52509   7.366   4.273   7.514  1.1122 -2.3599 -0.4941
  398MOL0     H52510   7.216   4.177   7.325 -4.2034  0.7830  0.3640
  398MOL0     H52511   7.267   4.308   7.216 -1.9965 -2.0474 -1.2750
  398MOL0     H52512   7.181   4.479   7.389  1.0455 -0.9736 -1.7903
  398MOL0     H52513   7.134   4.349   7.501  2.1616 -3.3924 -0.0710
  398MOL0     H52514   7.025   4.377   7.223  0.5270  0.9561 -0.5098
  398MOL0     H52515   6.986   4.249   7.343  3.0593 -0.5476  0.1041
  398MOL0     H52516   6.944   4.545   7.401 -0.4531  0.1514  1.6634
  398MOL0     H52517   6.910   4.403   7.500 -0.7965 -0.4171  0.6582
  398MOL0     H52518   7.914   4.644   7.593  0.4517 -0.1794  0.4962
  398MOL0     H52519   7.987   4.571   7.809 -0.7034 -0.2204  1.5132
  398MOL0     H52520   8.038   4.085   8.028 -3.2412  0.3397 -1.1410
  398MOL0     H52521   8.073   3.966   8.230  1.1722  0.5312  0.3862
  398MOL0     H52522   7.039   4.847   9.740  3.8616 -3.4519 -0.0329
  398MOL0     H52523   6.790   4.852   9.748  0.2048  0.7725 -0.0564
  398MOL0     H52524   6.421   4.469   9.817 -2.3679 -1.0792  0.6007
  398MOL0     H52525   6.188   4.494   9.878  1.7274  3.1716  2.1828
  398MOL0     H52526   5.976   4.513   9.902 -4.7129 -2.4743  2.2096
  398MOL0     H52527   5.968   4.415   9.763 -1.5585 -0.5154  0.7727
  398MOL0     H52528   5.754   4.514   9.684  0.2141 -1.0151  0.2198
  398MOL0     H52529   5.752   4.437   9.850  0.2678  1.8247  3.2346
  398MOL0     H52530   5.743   4.732   9.777 -1.7208  0.0524 -2.3298
  398MOL0     H52531   5.763   4.660   9.947  0.7651 -2.8198  0.0379
  398MOL0     H52532   5.505   4.726   9.840 -0.6913  0.5991 -0.4471
  398MOL0     H52533   5.533   4.567   9.772 -0.5035  2.6441 -1.6438
  398MOL0     H52534   5.488   4.480  10.181  0.2503 -2.2500 -0.6474
  398MOL0     H52535   6.140   4.791   9.575  1.7784  0.5559 -0.8620
  398MOL0     H52536   6.363   4.822   9.566 -1.6336 -1.0538 -0.5808
  399MOL0     O52537  10.593   3.953   6.241  0.5617  0.3779 -0.4007
  399MOL0     C52538  10.627   3.878   6.154 -0.9144 -0.0226 -0.1200
  399MOL0     O52539  10.571   3.759   6.111  0.3972 -0.0139  0.6109
  399MOL0     C52540  10.453   3.708   6.169 -0.2838  0.3613  0.0033
  399MOL0     C52541  10.363   3.634   6.085 -0.3744  0.0076 -0.9056
  399MOL0     C52542  10.248   3.580   6.144  0.1146  0.2432 -0.8124
  399MOL0     C52543  10.211   3.594   6.281  0.0203 -0.5022 -0.0109
  399MOL0     O52544  10.094   3.526   6.315  0.3648  0.2068 -0.3209
  399MOL0     C52545   9.989   3.592   6.380 -0.5210  0.6191 -0.1775
  399MOL0     C52546   9.895   3.483   6.425  0.6810  0.2221 -0.1880
  399MOL0     C52547   9.965   3.381   6.522 -0.8012  0.4503  0.7548
  399MOL0     C52548   9.853   3.297   6.573 -0.0172  0.6122 -0.5292
  399MOL0     C52549   9.898   3.153   6.614 -0.0178  0.3086 -0.4978
  399MOL0     C52550   9.803   3.088   6.713  0.1982  0.9873 -0.6038
  399MOL0     C52551   9.668   3.074   6.655  0.3111  0.4226  0.7154
  399MOL0     C52552   9.603   2.961   6.715 -0.1171 -0.5979 -0.0488
  399MOL0     N52553   9.460   2.961   6.699 -0.0795 -0.9008 -0.2169
  399MOL0     C52554   9.385   2.921   6.594  1.6038  0.0501 -0.0992
  399MOL0     C52555   9.258   2.946   6.628  0.6078  0.2525  0.2195
  399MOL0     C52556   9.130   2.926   6.544 -0.4621  0.0548  0.2534
  399MOL0     C52557   9.028   2.841   6.611  0.5674 -0.0968 -0.3722
  399MOL0     C52558   8.948   2.902   6.732  0.2165  0.5095 -0.5522
  399MOL0     C52559   8.900   2.776   6.813 -0.0564 -1.1740 -0.6463
  399MOL0     O52560   8.809   2.702   6.741  0.0700 -0.1001 -0.1549
  399MOL0     C52561   8.680   2.759   6.721 -0.3643 -0.6973 -0.8671
  399MOL0     C52562   8.601   2.818   6.830 -0.1288  0.4380 -0.1491
  399MOL0     C52563   8.475   2.863   6.798  0.1757 -0.5394 -0.6184
  399MOL0     C52564   8.425   2.862   6.668  0.1262  0.4043 -1.0083
  399MOL0     C52565   8.289   2.922   6.646 -0.2446  0.1519  1.1114
  399MOL0     O52566   8.245   2.917   6.512  0.1153 -0.2303  0.7784
  399MOL0     C52567   8.133   2.994   6.474  0.1476 -1.0413  0.4689
  399MOL0     C52568   8.062   2.954   6.358  0.6791 -0.8020 -0.4951
  399MOL0     C52569   7.947   3.028   6.312  0.1349 -1.3656 -0.6793
  399MOL0     C52570   7.902   3.148   6.369 -1.2566  0.3757  0.1310
  399MOL0     O52571   7.781   3.200   6.339  0.6100  0.2501 -0.8274
  399MOL0     C52572   7.784   3.341   6.306  0.0491  0.8723 -0.2700
  399MOL0     C52573   7.654   3.396   6.354 -1.3587 -0.9076 -0.6636
  399MOL0     C52574   7.648   3.550   6.322 -0.1225  0.6408  0.8810
  399MOL0     C52575   7.503   3.594   6.348  0.5726  0.2613 -0.8482
  399MOL0     C52576   7.470   3.733   6.284  0.0073 -0.2975  0.4548
  399MOL0     C52577   7.572   3.848   6.326  0.4991 -1.1443  0.3464
  399MOL0     C52578   7.511   3.990   6.285  0.1945  0.4206 -0.2566
  399MOL0     C52579   7.594   4.103   6.339 -0.6662  0.2966  0.1409
  399MOL0    Cl52580   7.750   4.107   6.259  0.0019 -0.1646  0.2391
  399MOL0     C52581   7.975   3.185   6.488  0.5754 -0.0315  0.6361
  399MOL0     C52582   8.089   3.118   6.528  0.4678  0.8236 -0.0261
  399MOL0     O52583   8.220   2.955   6.746 -0.2488  0.9293  0.9429
  399MOL0     C52584   8.508   2.818   6.564 -0.3974 -0.2511  0.3954
  399MOL0     C52585   8.634   2.764   6.591  0.4430 -0.0015  0.1717
  399MOL0     N52586   9.260   2.985   6.755  0.3095 -0.3831  0.3537
  399MOL0     N52587   9.374   3.005   6.792  0.0798  0.6594 -0.0723
  399MOL0     C52588  10.297   3.682   6.357  0.5302  0.4860  0.3398
  399MOL0     C52589  10.418   3.730   6.306  0.6543 -0.2443  0.3638
  399MOL0     C52590  10.757   3.913   6.086 -0.1051  0.0313 -1.3060
  399MOL0     C52591  10.851   3.984   6.158 -1.1906 -0.4605  0.1310
  399MOL0     C52592  10.971   4.030   6.091  0.5891  0.4340 -0.1318
  399MOL0     C52593  10.992   4.005   5.957 -1.1711  0.0349 -0.1001
  399MOL0     O52594  11.098   4.067   5.894 -0.6007  0.2745  0.2314
  399MOL0     C52595  11.071   4.128   5.762  0.6010  1.1664 -0.8730
  399MOL0     C52596  11.197   4.189   5.723 -0.3560  0.6117  0.4642
  399MOL0     C52597  11.182   4.254   5.583 -0.1324  0.3291  0.0419
  399MOL0     C52598  11.294   4.349   5.554  0.2147  0.4079  0.6274
  399MOL0     C52599  11.269   4.487   5.606  0.3017  0.0051 -0.1517
  399MOL0     C52600  11.264   4.583   5.679 -0.1796 -0.4709 -0.0661
  399MOL0     C52601  10.898   3.928   5.898 -0.2301  0.0260 -0.0953
  399MOL0     C52602  10.778   3.886   5.952  0.0755  0.3080  0.7169
  399MOL0     H52603  10.378   3.616   5.979 -1.9944  0.1869 -1.1928
  399MOL0     H52604  10.181   3.528   6.077 -1.1664  2.8380 -1.7004
  399MOL0     H52605   9.935   3.657   6.311 -0.7869 -1.3088 -1.8667
  399MOL0     H52606  10.019   3.648   6.469 -1.2160  1.9963 -0.7918
  399MOL0     H52607   9.865   3.416   6.345  4.0996  0.2052 -1.6320
  399MOL0     H52608   9.811   3.536   6.470  0.9817  1.8020 -1.4063
  399MOL0     H52609  10.017   3.439   6.598 -0.3088  2.4638 -1.0051
  399MOL0     H52610  10.036   3.325   6.461 -1.0090  1.6092 -0.6196
  399MOL0     H52611   9.798   3.342   6.656 -1.7332  2.0098 -2.3292
  399MOL0     H52612   9.778   3.278   6.495 -0.6804 -1.4270  0.5278
  399MOL0     H52613   9.996   3.166   6.662  1.0190  0.5125 -2.5252
  399MOL0     H52614   9.906   3.099   6.519 -0.7139  0.7501 -0.8117
  399MOL0     H52615   9.802   3.147   6.805 -0.1123  0.2528 -0.1293
  399MOL0     H52616   9.854   2.993   6.729  0.5933  0.8767 -2.3238
  399MOL0     H52617   9.600   3.158   6.667  0.5936  0.4006  2.8493
  399MOL0     H52618   9.674   3.064   6.546  0.1228 -0.5141  0.7787
  399MOL0     H52619   9.629   2.951   6.821  2.5974  0.0232 -0.5904
  399MOL0     H52620   9.651   2.874   6.669  1.3752  0.3786 -0.3839
  399MOL0     H52621   9.423   2.882   6.500  1.7467 -1.3554  0.5181
  399MOL0     H52622   9.164   2.901   6.443  2.6623  3.1888  0.3244
  399MOL0     H52623   9.073   3.017   6.521  0.0106  0.3942  0.3973
  399MOL0     H52624   9.071   2.741   6.624  0.5659 -0.4098 -2.4879
  399MOL0     H52625   8.944   2.822   6.543  0.1170 -1.1034  0.4306
  399MOL0     H52626   9.006   2.970   6.796 -2.2602 -2.1150  5.2109
  399MOL0     H52627   8.866   2.961   6.690  0.9901  2.2123  0.2039
  399MOL0     H52628   8.869   2.808   6.913 -0.6287  0.5828 -1.3366
  399MOL0     H52629   8.981   2.707   6.833 -0.2455 -0.7556  1.9188
  399MOL0     H52630   8.659   2.803   6.921  1.4483 -2.9875 -1.5365
  399MOL0     H52631   8.421   2.908   6.881 -4.4166 -1.5220 -2.7754
  399MOL0     H52632   8.087   2.859   6.311 -0.3239 -1.4635  0.2621
  399MOL0     H52633   7.877   2.987   6.240  0.1432 -1.3912 -0.6730
  399MOL0     H52634   7.795   3.348   6.197 -2.0925  0.0300 -0.5845
  399MOL0     H52635   7.864   3.383   6.367 -1.4920 -0.5080  2.9056
  399MOL0     H52636   7.651   3.391   6.463  2.4083  4.6271  0.1229
  399MOL0     H52637   7.575   3.339   6.305 -1.0548 -0.9494 -1.1073
  399MOL0     H52638   7.669   3.566   6.216  1.3729  1.2713  1.2387
  399MOL0     H52639   7.730   3.606   6.368 -0.9892  1.6164  1.2620
  399MOL0     H52640   7.426   3.525   6.313 -1.2510  2.3056 -1.1423
  399MOL0     H52641   7.487   3.598   6.456 -0.9369  1.0234 -1.0621
  399MOL0     H52642   7.368   3.762   6.311 -1.7100 -0.9353 -4.4172
  399MOL0     H52643   7.463   3.719   6.176  2.9328  2.6772 -0.2921
  399MOL0     H52644   7.666   3.831   6.272  1.3302 -0.9115  1.6923
  399MOL0     H52645   7.601   3.850   6.431  2.0432  1.5637 -0.0462
  399MOL0     H52646   7.492   3.989   6.178 -0.9396 -0.1281 -0.0673
  399MOL0     H52647   7.409   4.000   6.325  0.2659 -1.4664  0.5443
  399MOL0     H52648   7.603   4.077   6.445 -1.3871  2.8791  0.9033
  399MOL0     H52649   7.536   4.193   6.321  2.0757  1.6446 -3.2333
  399MOL0     H52650   7.931   3.263   6.550 -0.6537 -0.8913  0.8969
  399MOL0     H52651   8.151   3.164   6.604  0.4676 -1.9544  1.8053
  399MOL0     H52652   8.468   2.809   6.464  1.0056  2.5842 -0.5332
  399MOL0     H52653   8.703   2.728   6.515  1.1450  2.7406 -0.6089
  399MOL0     H52654  10.260   3.717   6.453 -2.7007 -2.7366  0.4610
  399MOL0     H52655  10.485   3.786   6.369 -0.8948  1.1571  0.8372
  399MOL0     H52656  10.831   4.015   6.260  1.4243  1.4674  0.1673
  399MOL0     H52657  11.043   4.087   6.148  1.7228 -2.0601  1.0562
  399MOL0     H52658  10.997   4.208   5.769 -0.6554  0.0799 -1.0865
  399MOL0     H52659  11.029   4.056   5.691 -0.4138 -0.9520  1.6565
  399MOL0     H52660  11.225   4.276   5.783  0.0093  2.1437 -1.7717
  399MOL0     H52661  11.277   4.114   5.715  0.0147  1.0916 -0.4353
  399MOL0     H52662  11.091   4.314   5.572  0.6714  1.2641 -2.3527
  399MOL0     H52663  11.170   4.168   5.516  0.5007 -0.9661  1.5397
  399MOL0     H52664  11.386   4.300   5.586 -1.1199 -0.8883  2.7828
  399MOL0     H52665  11.301   4.360   5.445 -1.4323  1.4682  0.5872
  399MOL0     H52666  11.256   4.659   5.755  0.7176 -0.3263 -0.1038
  399MOL0     H52667  10.904   3.899   5.793 -1.1160  1.3651 -0.5512
  399MOL0     H52668  10.706   3.824   5.899 -1.3545  2.1789  0.3569
  400MOL0     O52669   3.234   6.774   6.811 -0.2792 -0.9510 -0.7928
  400MOL0     C52670   3.289   6.763   6.701  0.3726  0.1613  0.5094
  400MOL0     O52671   3.395   6.682   6.670 -0.7046  0.0144 -0.2640
  400MOL0     C52672   3.454   6.616   6.779  0.6595  0.5193  0.2086
  400MOL0     C52673   3.469   6.478   6.774 -0.1911  0.4523 -0.0811
  400MOL0     C52674   3.540   6.398   6.867  0.7397 -0.4237 -0.3725
  400MOL0     C52675   3.596   6.466   6.975 -0.0922  0.0292  0.3528
  400MOL0     O52676   3.647   6.386   7.078  0.4657 -0.4298  0.3211
  400MOL0     C52677   3.701   6.448   7.194 -0.2949  0.6219 -0.3205
  400MOL0     C52678   3.721   6.331   7.300 -0.0360  0.0503  0.3871
  400MOL0     C52679   3.831   6.234   7.269  0.8240 -0.0271 -0.6787
  400MOL0     C52680   3.834   6.124   7.375 -0.4337 -0.0450  0.3957
  400MOL0     C52681   3.964   6.033   7.371 -0.6636 -0.8885  0.3799
  400MOL0     C52682   3.978   5.933   7.491  0.0737 -0.0928  0.9610
  400MOL0     C52683   3.882   5.821   7.461  1.1156  0.4200  0.7496
  400MOL0     C52684   3.903   5.701   7.555  0.8384  0.3320  0.5104
  400MOL0     N52685   3.802   5.602   7.549 -0.3715  0.5629 -0.6005
  400MOL0     C52686   3.770   5.525   7.441 -0.1111 -0.1668 -0.0209
  400MOL0     C52687   3.667   5.450   7.496  0.6546 -0.6217  0.3750
  400MOL0     C52688   3.608   5.342   7.403  0.2570  0.4757  0.0428
  400MOL0     C52689   3.472   5.391   7.350 -0.8845 -0.1444  0.5578
  400MOL0     C52690   3.369   5.407   7.463 -0.4712  0.3803 -0.4759
  400MOL0     C52691   3.235   5.331   7.427  1.0315  0.5102  0.3789
  400MOL0     O52692   3.146   5.327   7.544  0.0520  0.1168 -0.3187
  400MOL0     C52693   3.047   5.418   7.558  0.0997  0.0958 -0.7313
  400MOL0     C52694   2.943   5.403   7.639 -0.8461 -0.0080 -0.4340
  400MOL0     C52695   2.826   5.480   7.634  0.3467  0.2727 -0.0815
  400MOL0     C52696   2.823   5.597   7.548 -0.2090  0.0315  0.5952
  400MOL0     C52697   2.705   5.683   7.541 -0.1074  0.1677  0.0227
  400MOL0     O52698   2.610   5.659   7.639 -0.6941  0.7330  0.2872
  400MOL0     C52699   2.486   5.713   7.624 -0.6512  0.4091  1.7683
  400MOL0     C52700   2.408   5.711   7.506 -0.3538 -0.6192  0.5673
  400MOL0     C52701   2.278   5.769   7.499 -1.0996 -0.1243  0.3312
  400MOL0     C52702   2.215   5.811   7.614 -0.0630 -0.2205  0.2333
  400MOL0     O52703   2.087   5.859   7.607  0.0925 -0.0428  1.3428
  400MOL0     C52704   2.029   5.922   7.723  0.3560  0.5392 -0.6640
  400MOL0     C52705   1.892   5.990   7.694 -0.2218  0.9877 -0.0833
  400MOL0     C52706   1.792   5.885   7.645 -0.6796 -1.3365  0.2716
  400MOL0     C52707   1.654   5.937   7.613 -0.4777 -0.1333  0.5658
  400MOL0     C52708   1.656   6.039   7.502 -0.4441  0.7182 -0.2890
  400MOL0     C52709   1.524   6.116   7.491  0.4666  1.2884  1.1985
  400MOL0     C52710   1.418   6.035   7.406  0.1121 -0.4883 -0.0401
  400MOL0     C52711   1.340   5.927   7.484 -0.6618 -0.4007  0.1764
  400MOL0    Cl52712   1.249   5.982   7.634  0.5673  0.1659  0.5842
  400MOL0     C52713   2.282   5.794   7.736 -0.1591  0.7942  0.9024
  400MOL0     C52714   2.419   5.752   7.740  0.3450 -0.0392 -0.2639
  400MOL0     O52715   2.697   5.773   7.460  0.0724 -0.1769 -0.0850
  400MOL0     C52716   2.933   5.627   7.474  0.0952  0.1348  0.3515
  400MOL0     C52717   3.042   5.539   7.476 -0.4140  0.4180 -0.3519
  400MOL0     N52718   3.633   5.495   7.632 -0.0298 -0.0061  0.0296
  400MOL0     N52719   3.716   5.589   7.656  0.8348  0.6203 -0.7657
  400MOL0     C52720   3.583   6.607   6.987  0.8071  0.5664  0.0136
  400MOL0     C52721   3.517   6.682   6.886  0.7220  0.1182  0.7449
  400MOL0     C52722   3.212   6.824   6.584 -0.2394  0.0717  1.6362
  400MOL0     C52723   3.266   6.826   6.455 -0.6489  0.1696  0.8676
  400MOL0     C52724   3.186   6.874   6.347 -0.8424  1.2977  0.0526
  400MOL0     C52725   3.062   6.937   6.364 -0.3735  0.4331 -0.5598
  400MOL0     O52726   2.992   6.994   6.260  0.1275 -0.2256 -0.2643
  400MOL0     C52727   3.024   6.967   6.125  0.0715 -0.0629  0.6849
  400MOL0     C52728   2.982   6.821   6.108  0.1264  0.0441  0.6271
  400MOL0     C52729   2.903   6.802   5.977 -0.2920 -0.5428 -0.3439
  400MOL0     C52730   2.839   6.667   5.974  0.2431 -0.0400  0.2822
  400MOL0     C52731   2.763   6.664   5.856 -1.0015 -0.2241  0.1674
  400MOL0     C52732   2.699   6.639   5.761  0.3845 -0.5137  0.5301
  400MOL0     C52733   3.021   6.943   6.499 -0.2959 -0.1584  0.8132
  400MOL0     C52734   3.095   6.896   6.602 -0.6111 -0.3208 -0.7075
  400MOL0     H52735   3.416   6.418   6.701  0.5828 -1.9076  1.2143
  400MOL0     H52736   3.549   6.290   6.863  0.0153 -0.5185  0.1577
  400MOL0     H52737   3.628   6.517   7.236 -0.1980 -0.2417  1.3519
  400MOL0     H52738   3.800   6.492   7.176  0.5060 -0.9037  0.1522
  400MOL0     H52739   3.624   6.281   7.303  0.0103 -0.4977 -2.9288
  400MOL0     H52740   3.735   6.377   7.398 -1.3273  0.1488  0.5420
  400MOL0     H52741   3.925   6.286   7.290  2.1480 -2.6636  0.5705
  400MOL0     H52742   3.824   6.191   7.169 -1.5779 -1.9581  0.2082
  400MOL0     H52743   3.814   6.173   7.471 -2.2474 -0.3476  0.2148
  400MOL0     H52744   3.745   6.061   7.363  0.0601 -0.3381 -2.1311
  400MOL0     H52745   4.056   6.092   7.376 -0.2190 -1.4094 -1.1716
  400MOL0     H52746   3.971   5.990   7.271 -2.1785  0.1147 -0.1982
  400MOL0     H52747   3.953   5.969   7.592 -0.3806 -1.9489  1.5507
  400MOL0     H52748   4.079   5.893   7.493  0.2696  0.2921 -0.4423
  400MOL0     H52749   3.777   5.848   7.469 -0.6216 -4.4859 -1.6817
  400MOL0     H52750   3.894   5.793   7.356  1.7531  1.4829  0.5202
  400MOL0     H52751   3.903   5.744   7.656  3.7471 -1.4389  1.3948
  400MOL0     H52752   4.003   5.659   7.548  1.4260  1.8663 -0.7648
  400MOL0     H52753   3.810   5.514   7.341  0.1033  0.8707 -0.0550
  400MOL0     H52754   3.592   5.253   7.465  0.6283  0.7165  0.4911
  400MOL0     H52755   3.677   5.316   7.322  0.2525  0.9006 -0.0965
  400MOL0     H52756   3.436   5.317   7.278  0.9383  1.8114 -2.5996
  400MOL0     H52757   3.487   5.479   7.286 -0.0483 -1.2710 -0.8678
  400MOL0     H52758   3.401   5.362   7.557  0.3484  1.4375 -0.2411
  400MOL0     H52759   3.358   5.515   7.470 -0.1752  0.3308  0.8722
  400MOL0     H52760   3.265   5.228   7.406 -0.0076  0.2157  0.2854
  400MOL0     H52761   3.193   5.361   7.331 -2.9453 -3.8949  0.4116
  400MOL0     H52762   2.943   5.308   7.692  1.3253 -0.5444 -1.3173
  400MOL0     H52763   2.742   5.436   7.687 -0.7722 -0.8148 -2.5800
  400MOL0     H52764   2.455   5.678   7.413 -0.4385 -0.9504  0.6386
  400MOL0     H52765   2.213   5.771   7.412 -0.4363 -2.9950 -0.3258
  400MOL0     H52766   2.094   5.996   7.769  3.7077 -1.7255 -1.3447
  400MOL0     H52767   2.007   5.852   7.804 -0.9512 -0.1216 -1.5417
  400MOL0     H52768   1.908   6.064   7.615 -2.9414  0.4177 -1.3036
  400MOL0     H52769   1.846   6.047   7.775 -1.4450 -2.5226  1.8939
  400MOL0     H52770   1.782   5.824   7.735 -0.2590  0.0917  1.3046
  400MOL0     H52771   1.838   5.820   7.569  2.9792 -1.8460  2.6622
  400MOL0     H52772   1.590   5.854   7.582 -3.0015  1.6442  0.7120
  400MOL0     H52773   1.614   5.985   7.703  0.4399  0.8677  0.4533
  400MOL0     H52774   1.674   5.985   7.408 -4.3616 -1.7314  0.1321
  400MOL0     H52775   1.739   6.108   7.521  0.4879 -0.7784  1.3273
  400MOL0     H52776   1.543   6.213   7.444 -0.5558  0.7733 -0.3528
  400MOL0     H52777   1.489   6.138   7.592  0.3982 -3.1820  2.3554
  400MOL0     H52778   1.338   6.104   7.379 -0.1496  0.0916  2.0305
  400MOL0     H52779   1.454   5.984   7.317 -3.9464 -3.6778 -0.0992
  400MOL0     H52780   1.396   5.834   7.499 -1.1236 -0.8686 -0.8604
  400MOL0     H52781   1.251   5.902   7.425  0.1804 -0.6413 -1.0387
  400MOL0     H52782   2.225   5.817   7.826 -0.2556 -0.3345  1.1484
  400MOL0     H52783   2.471   5.754   7.835  0.6752 -1.3342 -0.4038
  400MOL0     H52784   2.947   5.720   7.420  1.5628 -1.2239 -1.7412
  400MOL0     H52785   3.125   5.569   7.413  0.8993  0.7940  1.4828
  400MOL0     H52786   3.621   6.663   7.073  1.1416 -0.0936  0.3068
  400MOL0     H52787   3.532   6.789   6.874  1.6200 -0.0524  0.2584
  400MOL0     H52788   3.357   6.773   6.430 -1.3513 -0.6112 -0.1033
  400MOL0     H52789   3.221   6.858   6.246 -3.2430  1.0227 -0.8038
  400MOL0     H52790   3.130   6.976   6.100  0.0301 -2.9680 -1.0510
  400MOL0     H52791   2.965   7.027   6.055  1.0099 -1.0133 -1.0007
  400MOL0     H52792   3.072   6.759   6.108  0.2642  0.1071 -2.4298
  400MOL0     H52793   2.922   6.792   6.195 -1.3296  0.3522 -0.2432
  400MOL0     H52794   2.959   6.812   5.884  0.9546  1.5082  0.5488
  400MOL0     H52795   2.819   6.873   5.971 -0.1221 -0.4650 -2.6288
  400MOL0     H52796   2.923   6.596   5.980  2.2792  2.3377  4.2527
  400MOL0     H52797   2.770   6.641   6.055 -3.1892  1.1511 -2.0658
  400MOL0     H52798   2.634   6.613   5.681 -3.7699 -0.9416  3.6915
  400MOL0     H52799   2.933   7.002   6.524  0.1486 -0.0164  2.1216
  400MOL0     H52800   3.057   6.906   6.703  1.0303  1.9824 -0.2466
  401MOL0     O52801   3.760   1.060   6.572  0.1591 -0.1208  0.7150
  401MOL0     C52802   3.786   0.936   6.580  0.5400 -1.2640  0.3096
  401MOL0     O52803   3.729   0.850   6.670  0.0270  0.5852 -0.0547
  401MOL0     C52804   3.619   0.891   6.746  0.7648  0.4548  0.0409
  401MOL0     C52805   3.501   0.913   6.668 -0.1228  0.8203 -0.3627
  401MOL0     C52806   3.383   0.954   6.736  0.2701 -0.3280  0.1275
  401MOL0     C52807   3.389   0.976   6.879 -0.2875  0.0553 -0.1583
  401MOL0     O52808   3.277   1.035   6.942 -0.0375 -0.5521  0.2382
  401MOL0     C52809   3.266   1.021   7.086  0.5182  0.1419  0.1518
  401MOL0     C52810   3.119   1.042   7.125  0.2270  0.0799  0.0107
  401MOL0     C52811   3.038   0.917   7.073  0.1144 -0.6526 -0.1629
  401MOL0     C52812   2.900   0.895   7.140 -0.4835 -0.4124  0.0724
  401MOL0     C52813   2.797   0.820   7.057 -0.1161 -0.0917 -0.5042
  401MOL0     C52814   2.653   0.824   7.107 -0.0477  0.1739 -0.3631
  401MOL0     C52815   2.633   0.767   7.250  0.1212  0.3302 -0.2628
  401MOL0     C52816   2.502   0.816   7.310  0.0029 -0.1005 -0.1527
  401MOL0     N52817   2.381   0.768   7.241  0.4041  0.1464 -0.3344
  401MOL0     C52818   2.364   0.651   7.175  0.8015 -0.7860 -0.5273
  401MOL0     C52819   2.244   0.656   7.104 -0.4917  0.0107  0.0747
  401MOL0     C52820   2.206   0.560   6.992  0.1766  0.1945  0.2184
  401MOL0     C52821   2.053   0.565   6.968 -0.2771 -0.6615 -0.1959
  401MOL0     C52822   1.965   0.526   7.081  0.0294 -0.3952 -0.5698
  401MOL0     C52823   1.821   0.564   7.067  0.9372  1.1346 -1.0567
  401MOL0     O52824   1.747   0.508   7.185 -0.1397 -0.1018 -0.0866
  401MOL0     C52825   1.611   0.496   7.170 -0.1638  0.4567 -0.6965
  401MOL0     C52826   1.532   0.546   7.063 -0.5907  0.9293  0.1589
  401MOL0     C52827   1.395   0.528   7.054  0.9176  0.5533  0.2864
  401MOL0     C52828   1.322   0.487   7.167 -0.1300  0.7970 -0.1262
  401MOL0     C52829   1.177   0.503   7.173  0.5714 -0.2922  1.2051
  401MOL0     O52830   1.118   0.535   7.051  0.4465  0.1345 -0.4080
  401MOL0     C52831   0.988   0.581   7.067 -0.0595  0.5543  0.3147
  401MOL0     C52832   0.891   0.492   7.074 -0.1187 -0.1200 -0.2065
  401MOL0     C52833   0.770   0.532   7.111  0.2201 -0.8653 -0.8701
  401MOL0     C52834   0.732   0.665   7.128 -0.4525  0.1401 -0.2983
  401MOL0     O52835   0.608   0.705   7.176 -0.5025  0.7042  0.1777
  401MOL0     C52836   0.516   0.603   7.224 -0.0708  0.0938  0.0352
  401MOL0     C52837   0.381   0.690   7.207 -0.3078  0.2186  0.3876
  401MOL0     C52838   0.270   0.622   7.293 -0.1479  0.1882  1.2636
  401MOL0     C52839   0.129   0.685   7.289 -1.4381  0.0418 -0.5916
  401MOL0     C52840   0.085   0.694   7.144  0.1125  0.2177 -0.9915
  401MOL0     C52841  -0.065   0.699   7.131 -0.3522  0.6811 -0.4709
  401MOL0     C52842  -0.136   0.726   7.010 -0.5347 -0.2986  1.0233
  401MOL0     C52843  -0.290   0.709   7.033 -0.5765  0.0837  0.3120
  401MOL0    Cl52844  -0.336   0.541   7.013  0.0825  0.0287 -0.3195
  401MOL0     C52845   0.832   0.757   7.102  0.4228  0.4627  0.8227
  401MOL0     C52846   0.962   0.718   7.067  0.0519  0.2741 -0.5659
  401MOL0     O52847   1.122   0.503   7.283  0.1060  0.2451 -0.3897
  401MOL0     C52848   1.396   0.429   7.267  0.6920  0.4858  0.1787
  401MOL0     C52849   1.539   0.441   7.267  1.2371 -0.2492  0.0146
  401MOL0     N52850   2.191   0.774   7.140 -0.4039 -0.5886  0.8013
  401MOL0     N52851   2.265   0.844   7.223  0.3035 -0.3174  0.0179
  401MOL0     C52852   3.510   0.950   6.942  0.5470 -0.1651 -0.2697
  401MOL0     C52853   3.620   0.902   6.880 -1.0696 -0.3449 -1.2148
  401MOL0     C52854   3.899   0.886   6.498  0.1999  0.1371 -0.1843
  401MOL0     C52855   3.903   0.751   6.470  0.5150 -0.8842 -0.3847
  401MOL0     C52856   3.996   0.703   6.384 -0.3163 -0.0516 -0.7500
  401MOL0     C52857   4.096   0.787   6.326 -0.1483  0.0146 -0.3757
  401MOL0     O52858   4.180   0.735   6.230  0.3641 -0.0362  0.1151
  401MOL0     C52859   4.236   0.602   6.251 -0.4863 -1.1131  0.5178
  401MOL0     C52860   4.379   0.619   6.298  0.1271 -0.0521  0.6994
  401MOL0     C52861   4.444   0.485   6.263  0.0614  0.6771 -0.1073
  401MOL0     C52862   4.587   0.475   6.303 -0.0900 -0.0589 -0.1972
  401MOL0     C52863   4.667   0.572   6.226  0.1479  1.1929  0.0138
  401MOL0     C52864   4.749   0.629   6.164 -1.2905 -0.6360 -0.3427
  401MOL0     C52865   4.100   0.919   6.367  0.1444 -0.2497 -0.0896
  401MOL0     C52866   3.994   0.970   6.446 -0.2376 -0.6326 -0.8886
  401MOL0     H52867   3.498   0.900   6.561  1.4810 -0.2213 -0.3207
  401MOL0     H52868   3.292   0.981   6.683  0.5661  1.2985  0.3737
  401MOL0     H52869   3.322   1.098   7.139  0.3208  0.1508  0.3525
  401MOL0     H52870   3.313   0.926   7.113 -0.0487 -0.2655 -0.2443
  401MOL0     H52871   3.089   1.137   7.080  0.8538  0.2402 -0.0902
  401MOL0     H52872   3.112   1.057   7.233 -0.1396 -0.7894  0.1173
  401MOL0     H52873   3.100   0.831   7.101  0.4244 -0.7642 -1.1253
  401MOL0     H52874   3.037   0.912   6.963  0.2731  1.1880 -0.2666
  401MOL0     H52875   2.924   0.846   7.234  1.3367 -1.1971 -0.7477
  401MOL0     H52876   2.857   0.992   7.168  1.8025  0.2787  1.4044
  401MOL0     H52877   2.813   0.713   7.043 -0.5993  0.1990 -4.3507
  401MOL0     H52878   2.808   0.872   6.962 -0.0799 -0.5365 -0.7447
  401MOL0     H52879   2.588   0.772   7.037 -1.6202 -0.7048  1.6432
  401MOL0     H52880   2.619   0.928   7.104 -0.1820  0.1014 -2.5136
  401MOL0     H52881   2.635   0.658   7.259 -0.0476  0.2789 -0.8432
  401MOL0     H52882   2.714   0.809   7.311 -1.0017  2.0846  0.0646
  401MOL0     H52883   2.504   0.925   7.319  3.2429  0.0967 -1.9318
  401MOL0     H52884   2.504   0.779   7.413 -1.8975 -0.4925 -0.2225
  401MOL0     H52885   2.429   0.564   7.166 -0.9122 -2.0781 -1.1440
  401MOL0     H52886   2.223   0.458   7.029 -3.5518 -0.7799 -0.3157
  401MOL0     H52887   2.266   0.575   6.902 -1.4812  1.6644 -0.6983
  401MOL0     H52888   2.034   0.493   6.888 -0.1942 -3.2053  1.9169
  401MOL0     H52889   2.031   0.663   6.925  0.6280  0.2938  1.4324
  401MOL0     H52890   1.972   0.418   7.095  0.9081 -0.2459  0.2235
  401MOL0     H52891   2.005   0.558   7.178 -0.4097 -2.3270  0.2904
  401MOL0     H52892   1.785   0.531   6.969 -2.9943 -1.8204  1.0936
  401MOL0     H52893   1.800   0.670   7.052 -0.7865  0.6921 -1.9966
  401MOL0     H52894   1.580   0.581   6.971  2.1399 -0.7033  0.8308
  401MOL0     H52895   1.347   0.556   6.961  3.2576  0.7328 -0.9563
  401MOL0     H52896   0.921   0.388   7.067  1.7780  0.3358  0.3140
  401MOL0     H52897   0.706   0.447   7.135  1.6375 -2.1508 -1.4767
  401MOL0     H52898   0.520   0.575   7.329  1.9095 -1.4394 -0.3760
  401MOL0     H52899   0.505   0.516   7.158 -3.7053  0.0030  0.5466
  401MOL0     H52900   0.359   0.688   7.100  2.2688 -3.7034 -0.2771
  401MOL0     H52901   0.389   0.794   7.240 -0.8688  0.4559 -0.2100
  401MOL0     H52902   0.295   0.610   7.399 -0.2773 -1.9296  1.0904
  401MOL0     H52903   0.271   0.524   7.244  6.3559  0.4472 -0.0977
  401MOL0     H52904   0.076   0.617   7.356  4.0797 -2.0156  2.3263
  401MOL0     H52905   0.136   0.781   7.342  2.0876 -2.0275  3.2897
  401MOL0     H52906   0.119   0.612   7.080  0.5375 -1.0847  0.8435
  401MOL0     H52907   0.137   0.781   7.104  0.5441  0.7020  0.5608
  401MOL0     H52908  -0.106   0.772   7.202 -0.6752 -1.1421  1.3246
  401MOL0     H52909  -0.108   0.601   7.156 -1.2871  1.0899 -0.4569
  401MOL0     H52910  -0.113   0.830   6.982  3.5568 -1.5304 -1.0433
  401MOL0     H52911  -0.103   0.662   6.928  0.0738 -0.6029  1.4972
  401MOL0     H52912  -0.349   0.773   6.968 -1.5549 -0.5765  0.5313
  401MOL0     H52913  -0.325   0.746   7.129 -2.1555  0.0846 -0.2450
  401MOL0     H52914   0.814   0.863   7.113 -0.3006  0.0807  5.0209
  401MOL0     H52915   1.046   0.787   7.063  0.4951 -0.1410  1.0819
  401MOL0     H52916   1.335   0.381   7.342 -0.4083  1.2464 -0.2112
  401MOL0     H52917   1.593   0.402   7.353 -2.9946 -5.6275  0.7647
  401MOL0     H52918   3.512   0.964   7.050  0.1314 -0.1256 -0.2623
  401MOL0     H52919   3.714   0.890   6.934 -1.2107 -4.2954 -1.5248
  401MOL0     H52920   3.824   0.688   6.511 -0.9757  0.6493 -0.7535
  401MOL0     H52921   3.991   0.598   6.355 -0.2619 -1.7488  4.2560
  401MOL0     H52922   4.228   0.538   6.163  2.6136  0.9427 -1.4627
  401MOL0     H52923   4.185   0.548   6.331 -1.6856 -1.4246 -0.4376
  401MOL0     H52924   4.418   0.705   6.241 -1.0244  0.3435  0.4791
  401MOL0     H52925   4.376   0.654   6.402 -1.4819  2.8432 -0.2020
  401MOL0     H52926   4.444   0.475   6.154 -0.9669 -0.2040 -0.0464
  401MOL0     H52927   4.381   0.412   6.315 -0.5663  2.5835  1.9639
  401MOL0     H52928   4.582   0.491   6.411  2.2604 -0.1979 -0.0157
  401MOL0     H52929   4.624   0.373   6.291 -1.1035 -0.5382  0.5714
  401MOL0     H52930   4.807   0.679   6.089 -1.2206 -1.7654 -1.0609
  401MOL0     H52931   4.182   0.982   6.335  0.8542 -1.2716 -0.2992
  401MOL0     H52932   4.001   1.074   6.474  0.5779 -0.9321  0.0961
  402MOL0     O52933   9.888   9.158   4.015  0.1829  0.0399  0.1522
  402MOL0     C52934   9.803   9.234   4.058  0.1792 -0.0843  0.4223
  402MOL0     O52935   9.795   9.369   4.028  0.1375 -0.7212 -0.5043
  402MOL0     C52936   9.888   9.421   3.941 -0.0453 -0.6552 -0.6359
  402MOL0     C52937   9.921   9.374   3.815 -0.4555  0.2675  0.0381
  402MOL0     C52938  10.005   9.438   3.727 -0.6095  0.1262 -0.7216
  402MOL0     C52939  10.059   9.564   3.773  0.0622 -0.5700  0.1432
  402MOL0     O52940  10.155   9.640   3.711  0.4707  0.5255 -1.2395
  402MOL0     C52941  10.155   9.648   3.573 -0.3282 -0.4494  0.0752
  402MOL0     C52942  10.293   9.701   3.550  0.0554  0.2856 -0.2488
  402MOL0     C52943  10.391   9.585   3.589  0.0641 -0.1780  0.5266
  402MOL0     C52944  10.415   9.478   3.474  0.4457  0.7927 -0.1101
  402MOL0     C52945  10.553   9.423   3.484 -0.5171  0.8750  0.1656
  402MOL0     C52946  10.587   9.318   3.593 -0.4782  0.8271 -0.3547
  402MOL0     C52947  10.733   9.266   3.578 -1.1329  0.2511  0.3178
  402MOL0     C52948  10.763   9.199   3.436 -0.2410 -0.3221 -0.4174
  402MOL0     N52949  10.660   9.106   3.397  0.1308  0.6272  0.1644
  402MOL0     C52950  10.619   8.993   3.470 -0.1872 -0.3833 -0.4247
  402MOL0     C52951  10.493   8.957   3.423 -0.2986 -0.0064 -0.8698
  402MOL0     C52952  10.406   8.844   3.478  0.5487  0.0278 -0.3186
  402MOL0     C52953  10.259   8.875   3.443 -0.6267 -0.4895 -0.1949
  402MOL0     C52954  10.148   8.784   3.506 -0.2858 -0.2360 -0.8184
  402MOL0     C52955  10.014   8.793   3.426 -0.0019 -0.1398  0.2804
  402MOL0     O52956   9.893   8.776   3.503  0.1246  0.9072  0.2270
  402MOL0     C52957   9.771   8.803   3.443  0.5052 -0.1355 -0.6055
  402MOL0     C52958   9.650   8.788   3.517 -0.4302 -0.6373 -0.4832
  402MOL0     C52959   9.532   8.827   3.461 -0.9885 -0.8601  0.2532
  402MOL0     C52960   9.515   8.876   3.326 -0.7320 -0.6370 -0.3406
  402MOL0     C52961   9.388   8.928   3.273 -0.0591 -0.5778 -0.3484
  402MOL0     O52962   9.285   8.916   3.352  0.7500  0.2489 -0.6820
  402MOL0     C52963   9.170   8.994   3.345 -0.5356 -0.2025 -0.2097
  402MOL0     C52964   9.140   9.096   3.254 -0.6509  0.1568  0.3182
  402MOL0     C52965   9.019   9.160   3.266  0.9250 -0.2577 -0.5172
  402MOL0     C52966   8.914   9.129   3.361 -1.1265 -0.1462  0.0396
  402MOL0     O52967   8.795   9.190   3.344  0.1041 -0.5769 -0.2405
  402MOL0     C52968   8.689   9.137   3.414 -0.4120 -0.2652 -0.3310
  402MOL0     C52969   8.567   9.237   3.436 -0.8292  0.3818 -0.4236
  402MOL0     C52970   8.594   9.340   3.551 -0.0624 -0.3653  0.3729
  402MOL0     C52971   8.461   9.414   3.590  0.4421 -0.8208 -0.1809
  402MOL0     C52972   8.473   9.508   3.718 -0.7879 -0.1987  0.2986
  402MOL0     C52973   8.362   9.604   3.751  0.1847  0.2117  0.8799
  402MOL0     C52974   8.215   9.544   3.741 -0.1808 -0.1385 -0.9043
  402MOL0     C52975   8.105   9.648   3.763 -0.0017 -0.3617 -1.0023
  402MOL0    Cl52976   8.098   9.715   3.927 -0.2911  0.5472 -0.2906
  402MOL0     C52977   8.958   9.033   3.450 -0.3744  0.8940 -0.5702
  402MOL0     C52978   9.081   8.971   3.448  0.5976  0.7468  0.3682
  402MOL0     O52979   9.386   8.984   3.167 -0.2413  0.1971  0.2995
  402MOL0     C52980   9.634   8.885   3.255 -0.1151 -0.1909  0.5425
  402MOL0     C52981   9.760   8.849   3.310 -0.1931  0.9430 -0.9582
  402MOL0     N52982  10.460   9.030   3.315  0.6531 -0.2455  0.5086
  402MOL0     N52983  10.553   9.127   3.308  0.1542  0.5099  0.2064
  402MOL0     C52984  10.030   9.599   3.913 -0.0264 -1.1136  0.2457
  402MOL0     C52985   9.951   9.526   3.998 -0.1970  0.3762  0.4884
  402MOL0     C52986   9.690   9.167   4.134  0.1889 -0.3396 -0.5802
  402MOL0     C52987   9.578   9.240   4.177 -0.2016 -0.1404  0.9210
  402MOL0     C52988   9.475   9.176   4.240 -0.2222 -0.9557 -0.7815
  402MOL0     C52989   9.463   9.045   4.256  0.0592 -0.5598 -0.7661
  402MOL0     O52990   9.353   8.986   4.317 -0.1186  0.1180 -0.0481
  402MOL0     C52991   9.219   9.047   4.316 -0.1981  0.1210  0.1404
  402MOL0     C52992   9.126   8.979   4.408  1.0015 -0.0507 -0.5814
  402MOL0     C52993   9.009   9.061   4.459  0.4290  0.2156 -0.3396
  402MOL0     C52994   8.950   8.976   4.569  0.1249  0.3047 -0.5497
  402MOL0     C52995   8.836   9.055   4.627  0.0752  0.4397  0.2429
  402MOL0     C52996   8.743   9.120   4.673  0.5291  0.8080 -0.0027
  402MOL0     C52997   9.569   8.967   4.207  0.5297  0.2220  0.3466
  402MOL0     C52998   9.679   9.027   4.149  0.6816 -0.4559  0.6477
  402MOL0     H52999   9.883   9.278   3.784  1.1595 -0.1666 -0.7051
  402MOL0     H53000  10.013   9.400   3.626 -3.2809 -0.2301 -0.8842
  402MOL0     H53001  10.078   9.718   3.539  1.1606  1.6596  0.8097
  402MOL0     H53002  10.132   9.557   3.517  1.0897 -0.4412 -0.5606
  402MOL0     H53003  10.319   9.787   3.612 -3.8269  0.9352  0.7282
  402MOL0     H53004  10.302   9.716   3.442 -0.8912  2.2842 -0.1008
  402MOL0     H53005  10.365   9.529   3.680  0.2667 -0.6543  0.2973
  402MOL0     H53006  10.486   9.629   3.620  0.3334 -0.7679  0.5712
  402MOL0     H53007  10.350   9.391   3.477  1.4794 -0.1673 -2.6635
  402MOL0     H53008  10.400   9.526   3.377 -1.0880 -2.9677 -1.9241
  402MOL0     H53009  10.630   9.500   3.496  0.0785  0.9506 -3.0480
  402MOL0     H53010  10.572   9.370   3.390  1.9115 -0.8967  1.5262
  402MOL0     H53011  10.520   9.232   3.589  1.5747 -1.1666  3.1879
  402MOL0     H53012  10.568   9.380   3.682 -1.2132  0.1709 -0.0444
  402MOL0     H53013  10.812   9.341   3.594  2.1477 -3.1049  1.1816
  402MOL0     H53014  10.742   9.189   3.655 -2.8835  0.4044  0.7033
  402MOL0     H53015  10.848   9.132   3.451 -1.4007 -1.3080  2.2304
  402MOL0     H53016  10.786   9.269   3.355  3.5451 -0.2761  0.5237
  402MOL0     H53017  10.664   8.932   3.548  0.0593 -0.5765 -0.7198
  402MOL0     H53018  10.420   8.846   3.586 -0.5594 -0.0198 -0.1585
  402MOL0     H53019  10.417   8.743   3.436 -4.7360 -2.3007  2.8304
  402MOL0     H53020  10.253   8.864   3.335 -1.0485  1.2185 -0.3866
  402MOL0     H53021  10.233   8.981   3.453 -1.0907 -0.6506  0.3241
  402MOL0     H53022  10.179   8.681   3.526  0.2969  0.4972  2.6029
  402MOL0     H53023  10.126   8.825   3.605  0.7244 -3.2081  0.7409
  402MOL0     H53024  10.020   8.704   3.362 -0.2883 -0.8720  1.2544
  402MOL0     H53025  10.017   8.892   3.379  0.9194  0.8010  2.1938
  402MOL0     H53026   9.648   8.739   3.614 -1.3062  0.8629  0.3035
  402MOL0     H53027   9.444   8.810   3.522  0.1887  0.8550  2.5643
  402MOL0     H53028   9.210   9.144   3.187 -2.8748 -0.7943 -2.9567
  402MOL0     H53029   8.985   9.239   3.199  1.8343  1.5171  1.0052
  402MOL0     H53030   8.717   9.115   3.518  1.0145  2.3809 -0.0755
  402MOL0     H53031   8.662   9.043   3.365  0.0949  0.5639 -2.2852
  402MOL0     H53032   8.480   9.173   3.457  0.8925 -1.4562  1.6881
  402MOL0     H53033   8.546   9.283   3.339 -1.3296 -2.6189 -1.8506
  402MOL0     H53034   8.671   9.411   3.519 -0.6123  0.6215  1.1997
  402MOL0     H53035   8.629   9.285   3.639  0.3536  1.9580  1.7334
  402MOL0     H53036   8.441   9.474   3.501 -1.0871  4.5524  3.3146
  402MOL0     H53037   8.380   9.340   3.596 -1.9160  1.6611  0.2684
  402MOL0     H53038   8.565   9.567   3.718 -2.1926  2.3238 -2.6713
  402MOL0     H53039   8.466   9.433   3.798  1.1231 -0.6835  0.0494
  402MOL0     H53040   8.347   9.679   3.673 -0.4125 -1.8953 -1.1331
  402MOL0     H53041   8.362   9.639   3.855 -3.0925  0.4171  0.9239
  402MOL0     H53042   8.197   9.507   3.639 -0.9939  0.6773 -1.0736
  402MOL0     H53043   8.191   9.460   3.807  0.1427 -0.5125 -1.2537
  402MOL0     H53044   8.011   9.596   3.743 -0.3155 -1.2679  2.2234
  402MOL0     H53045   8.128   9.734   3.699  3.9277 -0.4367  0.0237
  402MOL0     H53046   8.887   8.995   3.524  1.1415 -1.4799 -0.2086
  402MOL0     H53047   9.098   8.884   3.511 -0.2925  0.3069  0.0220
  402MOL0     H53048   9.631   8.919   3.152 -1.7392 -1.0397  0.2694
  402MOL0     H53049   9.848   8.841   3.247 -1.4810 -0.2575 -2.7018
  402MOL0     H53050  10.073   9.688   3.958  0.1843 -1.0901 -0.0032
  402MOL0     H53051   9.924   9.552   4.100  1.1071 -0.6771  1.1266
  402MOL0     H53052   9.574   9.348   4.163 -2.2384 -0.4134 -1.2801
  402MOL0     H53053   9.406   9.238   4.297  0.6501 -0.3799 -0.3323
  402MOL0     H53054   9.177   9.045   4.215 -1.0958 -0.8956  0.5201
  402MOL0     H53055   9.224   9.153   4.344 -1.5206  0.3473 -0.3705
  402MOL0     H53056   9.090   8.899   4.343 -0.4052  1.6518 -2.0070
  402MOL0     H53057   9.187   8.935   4.487  0.8770 -1.3287 -1.1782
  402MOL0     H53058   8.942   9.088   4.378 -1.1918 -2.6226 -0.0794
  402MOL0     H53059   9.043   9.152   4.509 -0.0910 -1.0587  2.5520
  402MOL0     H53060   8.917   8.880   4.526 -0.8847 -0.0470  0.9556
  402MOL0     H53061   9.022   8.963   4.649  0.6865  1.6889 -0.8019
  402MOL0     H53062   8.656   9.174   4.705  0.3217 -0.3206  1.5035
  402MOL0     H53063   9.567   8.858   4.206 -2.1607  0.1839  2.1617
  402MOL0     H53064   9.752   8.961   4.105 -0.3538  0.7806 -3.2977
  403MOL0     O53065   0.803   0.447  10.722  0.4520  0.0120  0.5756
  403MOL0     C53066   0.791   0.501  10.831 -0.1630 -0.5650  0.4911
  403MOL0     O53067   0.680   0.497  10.906  0.3583  0.8739 -0.3270
  403MOL0     C53068   0.562   0.457  10.852  0.1882  0.0410 -0.3221
  403MOL0     C53069   0.453   0.539  10.855  0.9112  0.7621 -0.4525
  403MOL0     C53070   0.330   0.500  10.798 -0.0087 -0.6778  0.3049
  403MOL0     C53071   0.310   0.385  10.732 -0.0121  0.4740  0.3987
  403MOL0     O53072   0.187   0.368  10.681 -0.0628 -0.4318  0.4177
  403MOL0     C53073   0.163   0.271  10.573 -0.6283 -0.4680  1.1847
  403MOL0     C53074   0.040   0.328  10.521  0.8854  0.2642  0.7189
  403MOL0     C53075   0.005   0.238  10.400 -0.0376  0.0805 -0.7258
  403MOL0     C53076  -0.142   0.256  10.356  0.5728  0.6027 -0.9149
  403MOL0     C53077  -0.184   0.181  10.237 -0.1001  1.0749  0.7460
  403MOL0     C53078  -0.188   0.025  10.268 -0.3870 -0.2218 -0.5975
  403MOL0     C53079  -0.299  -0.051  10.188  0.4446 -0.2023 -0.0083
  403MOL0     C53080  -0.266  -0.192  10.154  0.3888  0.4450  0.3467
  403MOL0     N53081  -0.378  -0.268  10.104 -0.0598  0.6847  0.1619
  403MOL0     C53082  -0.485  -0.297  10.179  0.8542 -0.5426  1.0096
  403MOL0     C53083  -0.558  -0.374  10.087  0.2627 -1.0128 -0.3339
  403MOL0     C53084  -0.693  -0.431  10.116 -0.7626 -0.3545  0.3823
  403MOL0     C53085  -0.801  -0.409  10.008 -0.0501  0.0399  0.2639
  403MOL0     C53086  -0.850  -0.271   9.982  0.3913  0.2794 -0.8822
  403MOL0     C53087  -0.924  -0.269   9.852 -0.3678  0.1930  0.6426
  403MOL0     O53088  -1.039  -0.353   9.846  0.2040  0.1354 -0.8857
  403MOL0     C53089  -1.147  -0.309   9.923  0.1184 -0.1510  0.0736
  403MOL0     C53090  -1.255  -0.403   9.930  1.2820  0.1397  0.7840
  403MOL0     C53091  -1.376  -0.375   9.993  0.4141 -0.6712  0.4151
  403MOL0     C53092  -1.390  -0.251  10.053 -1.3162 -0.2191 -0.0423
  403MOL0     C53093  -1.511  -0.197  10.117 -0.2475 -0.0654 -0.8671
  403MOL0     O53094  -1.633  -0.234  10.074 -0.3917  0.3873  0.3108
  403MOL0     C53095  -1.745  -0.191  10.136 -0.8119 -1.1163 -0.4207
  403MOL0     C53096  -1.757  -0.137  10.269  0.4957  0.0630  0.7654
  403MOL0     C53097  -1.880  -0.080  10.302 -0.2976  0.5169 -0.1831
  403MOL0     C53098  -1.992  -0.093  10.224 -0.5480 -0.3759 -0.8089
  403MOL0     O53099  -2.098  -0.022  10.269  0.1920  0.1278 -0.3974
  403MOL0     C53100  -2.212  -0.005  10.182  0.5680 -0.1989 -0.4319
  403MOL0     C53101  -2.337   0.023  10.267 -0.3598  0.5047 -0.0451
  403MOL0     C53102  -2.423   0.133  10.195 -0.2082  1.0369 -1.0207
  403MOL0     C53103  -2.555   0.176  10.269 -0.4174 -0.0647 -0.2838
  403MOL0     C53104  -2.669   0.075  10.308 -0.7496 -0.2320 -0.6937
  403MOL0     C53105  -2.774   0.038  10.196 -0.8111  0.2717  0.1407
  403MOL0     C53106  -2.897   0.120  10.214 -0.3310 -0.2143 -0.7884
  403MOL0     C53107  -3.020   0.064  10.142 -0.2374  0.5440  0.1465
  403MOL0    Cl53108  -3.157   0.150  10.205 -0.4956 -0.3139  0.0443
  403MOL0     C53109  -1.985  -0.145  10.099 -0.2414 -0.0464 -0.3952
  403MOL0     C53110  -1.859  -0.200  10.057  0.6230 -0.2754  0.6967
  403MOL0     O53111  -1.488  -0.114  10.208  0.1660 -0.3987  0.7604
  403MOL0     C53112  -1.290  -0.155  10.042 -0.4220 -0.2777 -0.1742
  403MOL0     C53113  -1.168  -0.189   9.980 -0.7003 -1.1763  0.1534
  403MOL0     N53114  -0.496  -0.388   9.965 -0.0122  0.3240 -0.3295
  403MOL0     N53115  -0.390  -0.319   9.979 -0.6379 -0.3157  0.3610
  403MOL0     C53116   0.411   0.290  10.737 -0.5721 -0.3158 -0.3179
  403MOL0     C53117   0.544   0.331  10.785  0.8502  0.3061 -0.0226
  403MOL0     C53118   0.920   0.552  10.897  0.7721 -0.2866  0.4546
  403MOL0     C53119   0.910   0.628  11.012 -0.0347  0.0295 -0.4849
  403MOL0     C53120   1.028   0.675  11.069 -0.2888 -1.0285  0.0584
  403MOL0     C53121   1.153   0.656  11.010  0.6026 -0.5898 -1.1079
  403MOL0     O53122   1.261   0.716  11.071 -0.0747  0.7382  0.1283
  403MOL0     C53123   1.383   0.652  11.072  0.1518 -0.4809 -0.5168
  403MOL0     C53124   1.509   0.745  11.080 -0.0959  0.7088 -0.1686
  403MOL0     C53125   1.506   0.855  10.967  0.6466  0.5394  0.1804
  403MOL0     C53126   1.482   0.996  11.019 -0.5735  0.9500 -0.7333
  403MOL0     C53127   1.512   1.088  10.909 -0.5670  0.8871  0.0347
  403MOL0     C53128   1.549   1.162  10.819  0.5868  0.2983  0.1147
  403MOL0     C53129   1.152   0.599  10.888 -0.0637 -0.5908  1.3808
  403MOL0     C53130   1.041   0.547  10.827  0.2034 -0.2201 -0.0133
  403MOL0     H53131   0.452   0.632  10.910  0.9028 -0.3821  1.5815
  403MOL0     H53132   0.252   0.576  10.792 -0.7877 -1.5714 -1.8204
  403MOL0     H53133   0.163   0.167  10.607  1.3838 -0.5833  0.9782
  403MOL0     H53134   0.235   0.284  10.492 -1.8016  1.9506  0.4234
  403MOL0     H53135   0.063   0.431  10.494  1.5088 -0.8808 -4.1850
  403MOL0     H53136  -0.045   0.314  10.589 -0.1316  0.1542 -0.5449
  403MOL0     H53137   0.015   0.135  10.434  3.6888 -0.3406 -2.6337
  403MOL0     H53138   0.059   0.259  10.307  0.4315  0.5249 -0.3529
  403MOL0     H53139  -0.202   0.220  10.440  1.9637  1.2794  0.4217
  403MOL0     H53140  -0.167   0.363  10.352 -3.1197 -0.0203  0.7709
  403MOL0     H53141  -0.111   0.198  10.157  0.9534 -0.8117  1.2591
  403MOL0     H53142  -0.283   0.216  10.204 -0.1626  0.2441  0.0250
  403MOL0     H53143  -0.215   0.011  10.373 -0.8771  0.2082 -0.6624
  403MOL0     H53144  -0.093  -0.027  10.254 -1.2018 -1.8482 -0.2680
  403MOL0     H53145  -0.390  -0.053  10.249  0.5841 -1.8786  0.2040
  403MOL0     H53146  -0.324  -0.008  10.091 -1.3305 -3.9780 -1.4301
  403MOL0     H53147  -0.237  -0.248  10.243  1.0482  0.2077 -0.0176
  403MOL0     H53148  -0.177  -0.190  10.091  1.3504  1.5476  1.6851
  403MOL0     H53149  -0.503  -0.271  10.282  0.9015  1.0408  0.6407
  403MOL0     H53150  -0.715  -0.382  10.211 -1.6535  1.0253 -0.5001
  403MOL0     H53151  -0.685  -0.538  10.141 -1.5594 -0.4590  0.2271
  403MOL0     H53152  -0.884  -0.479  10.025 -0.0504  0.2463  1.1720
  403MOL0     H53153  -0.753  -0.446   9.918 -1.7096 -2.4907  0.3146
  403MOL0     H53154  -0.921  -0.252  10.062  0.8995 -3.5509  0.7320
  403MOL0     H53155  -0.766  -0.201   9.971  1.4710 -0.5915  1.2545
  403MOL0     H53156  -0.860  -0.309   9.773 -1.9731 -0.7549 -0.2216
  403MOL0     H53157  -0.950  -0.166   9.828  2.5057  0.6907 -0.8317
  403MOL0     H53158  -1.245  -0.495   9.873 -0.8208 -0.5533  1.4637
  403MOL0     H53159  -1.461  -0.442   9.983  1.8547 -2.1657 -3.4914
  403MOL0     H53160  -1.675  -0.131  10.341  2.0123  1.0002 -0.9502
  403MOL0     H53161  -1.897  -0.033  10.399 -0.0643 -2.7933  1.6225
  403MOL0     H53162  -2.236  -0.098  10.128  2.1971 -1.3691  0.7434
  403MOL0     H53163  -2.189   0.070  10.107 -2.2953 -1.1202 -2.3762
  403MOL0     H53164  -2.300   0.061  10.363 -1.0886 -0.6149  0.7050
  403MOL0     H53165  -2.396  -0.069  10.277  1.1910 -0.7510 -1.7478
  403MOL0     H53166  -2.452   0.088  10.100 -0.1510  3.1234 -2.0564
  403MOL0     H53167  -2.356   0.218  10.180  0.5531  0.3998 -1.3011
  403MOL0     H53168  -2.512   0.219  10.360 -2.8503  1.0867  0.4052
  403MOL0     H53169  -2.599   0.261  10.217  0.4851 -1.4652 -3.5807
  403MOL0     H53170  -2.714   0.100  10.404  1.3159 -2.0047  0.8569
  403MOL0     H53171  -2.617  -0.019  10.330  1.8635  1.0569 -0.9612
  403MOL0     H53172  -2.800  -0.067  10.211  0.4533 -0.0773  0.0461
  403MOL0     H53173  -2.734   0.046  10.094 -0.4724  3.1511  0.4317
  403MOL0     H53174  -2.922   0.118  10.321  1.9051  1.7263 -0.1580
  403MOL0     H53175  -2.893   0.225  10.184  1.7226  0.2768  0.9675
  403MOL0     H53176  -3.019  -0.042  10.167  1.9702 -0.0666 -2.0511
  403MOL0     H53177  -3.013   0.075  10.033 -0.1898  1.7576  0.2570
  403MOL0     H53178  -2.068  -0.150  10.030  0.1086  0.1901 -0.8389
  403MOL0     H53179  -1.862  -0.249   9.960 -2.6160 -0.2283  0.6642
  403MOL0     H53180  -1.297  -0.049  10.060  0.8902  0.1696 -1.9703
  403MOL0     H53181  -1.098  -0.106   9.979 -0.3908 -1.3984  1.3465
  403MOL0     H53182   0.403   0.193  10.688 -2.6498  0.4646 -1.6886
  403MOL0     H53183   0.617   0.251  10.784 -1.3394 -1.8675  1.6196
  403MOL0     H53184   0.814   0.655  11.053  0.5446  1.8045 -0.2284
  403MOL0     H53185   1.013   0.724  11.165  0.8535 -0.2960 -0.1136
  403MOL0     H53186   1.389   0.580  10.990 -1.2938 -0.9401 -0.2464
  403MOL0     H53187   1.377   0.586  11.159 -2.2303 -1.1176 -1.1037
  403MOL0     H53188   1.506   0.790  11.180 -3.5520  1.1572 -0.3668
  403MOL0     H53189   1.598   0.682  11.071  0.0036  0.6745  0.9688
  403MOL0     H53190   1.439   0.820  10.887  2.7186 -0.8106 -1.0474
  403MOL0     H53191   1.600   0.845  10.913  1.1430 -3.4225  1.4374
  403MOL0     H53192   1.380   1.016  11.053 -0.9615 -1.5791 -0.2678
  403MOL0     H53193   1.551   1.032  11.097 -0.7880  1.0098 -0.5707
  403MOL0     H53194   1.586   1.231  10.746 -2.3499 -0.3145 -2.1702
  403MOL0     H53195   1.237   0.604  10.820 -1.4074 -0.4714 -0.3452
  403MOL0     H53196   1.039   0.499  10.730 -1.1973  1.2907 -0.7643
  404MOL0     O53197   8.069   2.127   2.270  0.7975 -0.0459 -0.6689
  404MOL0     C53198   8.122   2.171   2.171 -0.3753 -0.0299  0.0956
  404MOL0     O53199   8.108   2.302   2.118 -0.8847  0.1763  0.0543
  404MOL0     C53200   8.021   2.383   2.198  0.6694  0.3219  0.2250
  404MOL0     C53201   8.069   2.452   2.307  0.4091  1.1702  0.8493
  404MOL0     C53202   7.979   2.528   2.384  0.3553  0.4900 -0.0474
  404MOL0     C53203   7.835   2.533   2.350 -0.4731  0.2942 -0.9522
  404MOL0     O53204   7.741   2.609   2.413  0.1238 -0.1590 -0.0414
  404MOL0     C53205   7.727   2.552   2.545 -0.1575 -0.0088 -0.1736
  404MOL0     C53206   7.631   2.657   2.611 -0.7374 -0.5956  0.2808
  404MOL0     C53207   7.498   2.657   2.535  0.4230 -0.3095 -0.4804
  404MOL0     C53208   7.406   2.751   2.604  0.3616  0.4476  0.9172
  404MOL0     C53209   7.297   2.785   2.510 -0.3854  0.3988  0.2610
  404MOL0     C53210   7.179   2.861   2.570 -1.4642 -0.0991 -0.3417
  404MOL0     C53211   7.102   2.933   2.464 -0.3319 -0.0668  0.9380
  404MOL0     C53212   7.075   2.843   2.337  0.2094 -0.2924  0.5042
  404MOL0     N53213   6.979   2.907   2.244 -0.6084  0.6659 -0.9660
  404MOL0     C53214   6.866   2.986   2.270  0.8738 -0.9171 -0.2664
  404MOL0     C53215   6.800   2.993   2.153 -0.0422 -0.6652 -0.2232
  404MOL0     C53216   6.688   3.082   2.117  0.2219 -0.6886 -0.2898
  404MOL0     C53217   6.588   3.111   2.230  0.1750  0.4410 -0.1060
  404MOL0     C53218   6.504   2.992   2.266  1.1137  0.3191 -0.0517
  404MOL0     C53219   6.391   2.966   2.173  0.0145  0.8677  0.2515
  404MOL0     O53220   6.313   3.083   2.148  0.5203 -0.0561  0.6642
  404MOL0     C53221   6.217   3.087   2.047  1.4564  0.2497 -0.1347
  404MOL0     C53222   6.172   3.216   2.015 -0.2442 -0.7486  0.5334
  404MOL0     C53223   6.067   3.230   1.916 -1.5526  0.2765  0.0338
  404MOL0     C53224   6.003   3.117   1.856 -0.3432 -0.9589 -0.7777
  404MOL0     C53225   5.907   3.138   1.750 -0.4934  0.1237  0.3384
  404MOL0     O53226   5.932   3.242   1.663  0.0118 -0.5691  0.3511
  404MOL0     C53227   5.857   3.276   1.554  0.8860 -0.2009 -0.9058
  404MOL0     C53228   5.759   3.205   1.487 -0.3176  0.4639  0.1964
  404MOL0     C53229   5.688   3.263   1.377 -1.5215 -0.0865 -0.6973
  404MOL0     C53230   5.720   3.386   1.327  0.1248  0.1779  0.0651
  404MOL0     O53231   5.643   3.448   1.228 -0.3431 -0.0407 -0.1740
  404MOL0     C53232   5.607   3.589   1.244  0.4180 -0.3369 -0.3118
  404MOL0     C53233   5.610   3.654   1.105  0.9875  0.0080 -0.1637
  404MOL0     C53234   5.489   3.612   1.014  0.8154 -0.8183 -0.1420
  404MOL0     C53235   5.356   3.594   1.076 -0.1855  0.0806 -0.2703
  404MOL0     C53236   5.238   3.596   0.974 -1.0468 -0.1238  0.4112
  404MOL0     C53237   5.102   3.594   1.049  0.3089 -0.3565  0.3966
  404MOL0     C53238   4.992   3.552   0.957 -0.6029 -0.5422 -0.2806
  404MOL0     C53239   4.855   3.563   1.005 -0.5031 -0.1143  0.0266
  404MOL0    Cl53240   4.753   3.501   0.870  0.8167 -0.1642  0.4226
  404MOL0     C53241   5.828   3.447   1.381 -1.2995 -0.2681  0.1833
  404MOL0     C53242   5.898   3.394   1.487 -0.4894 -0.0339 -1.4547
  404MOL0     O53243   5.821   3.063   1.737  0.2378 -0.1852  0.6930
  404MOL0     C53244   6.050   2.990   1.891  0.2231 -0.1082  0.5413
  404MOL0     C53245   6.144   2.979   1.986 -0.2680  0.5240 -0.8487
  404MOL0     N53246   6.865   2.922   2.070 -0.5702  0.1006  0.6588
  404MOL0     N53247   6.970   2.870   2.114 -0.5213  0.3217  0.6298
  404MOL0     C53248   7.792   2.454   2.245 -0.7248 -0.6292 -0.0538
  404MOL0     C53249   7.886   2.389   2.163 -0.0011  0.5476 -0.2302
  404MOL0     C53250   8.229   2.086   2.115 -0.0017 -0.9251  0.3838
  404MOL0     C53251   8.225   1.951   2.127  0.3486  0.2927 -0.5408
  404MOL0     C53252   8.314   1.876   2.062 -1.0913  0.5274  0.4083
  404MOL0     C53253   8.422   1.919   1.985  1.1203 -1.1843  0.5460
  404MOL0     O53254   8.525   1.841   1.934 -0.6383 -0.9677 -0.0762
  404MOL0     C53255   8.605   1.887   1.825  0.6000  0.0560  0.5022
  404MOL0     C53256   8.684   1.770   1.769 -0.4134  0.7918  0.3883
  404MOL0     C53257   8.791   1.832   1.676  0.2283 -0.1740  0.3557
  404MOL0     C53258   8.901   1.905   1.757  0.6994 -0.0578 -0.3292
  404MOL0     C53259   8.990   1.816   1.837  0.5109 -0.1443  0.0236
  404MOL0     C53260   9.048   1.731   1.909 -0.3678 -0.5576  0.9211
  404MOL0     C53261   8.402   2.054   1.949 -0.1401  0.2325 -0.0651
  404MOL0     C53262   8.310   2.136   2.014  0.9157 -0.0844  0.5073
  404MOL0     H53263   8.167   2.427   2.347 -0.4790 -1.7174  1.4445
  404MOL0     H53264   8.004   2.570   2.481 -4.1027 -3.0066  3.0586
  404MOL0     H53265   7.823   2.560   2.597 -0.6648  0.2980  0.7304
  404MOL0     H53266   7.682   2.453   2.541  0.1760 -0.1294 -2.4481
  404MOL0     H53267   7.683   2.753   2.610 -0.5758 -0.6834 -0.5415
  404MOL0     H53268   7.622   2.640   2.719 -0.5070 -1.2731  0.2031
  404MOL0     H53269   7.453   2.559   2.549 -2.1796  0.3147 -3.2786
  404MOL0     H53270   7.514   2.680   2.429  0.2904  1.1583 -0.2097
  404MOL0     H53271   7.367   2.706   2.696 -3.0665  1.6116  0.1643
  404MOL0     H53272   7.472   2.834   2.629  4.8230 -1.6574 -2.4497
  404MOL0     H53273   7.255   2.693   2.470  0.7807 -0.3470  0.7133
  404MOL0     H53274   7.335   2.838   2.422  0.2296 -0.8901 -0.2643
  404MOL0     H53275   7.225   2.930   2.641 -1.6193 -0.6466  0.3041
  404MOL0     H53276   7.110   2.793   2.620  1.2143 -2.6334  0.1569
  404MOL0     H53277   7.001   2.956   2.498 -1.5447  1.0720 -2.8903
  404MOL0     H53278   7.161   3.013   2.419  0.6085 -1.4437 -0.3750
  404MOL0     H53279   7.042   2.741   2.360 -0.7884 -0.0494  0.2082
  404MOL0     H53280   7.169   2.815   2.288 -0.7043 -1.4799 -0.6285
  404MOL0     H53281   6.848   3.046   2.358 -2.7141 -2.7234  0.4362
  404MOL0     H53282   6.643   3.057   2.021 -1.3758 -0.0553  0.2561
  404MOL0     H53283   6.731   3.181   2.101 -3.1493  1.8194  3.7329
  404MOL0     H53284   6.522   3.188   2.190  0.5008 -0.3013 -2.1534
  404MOL0     H53285   6.642   3.142   2.321  2.7031 -0.7842 -1.0896
  404MOL0     H53286   6.563   2.900   2.277  0.8899  0.4606  2.9218
  404MOL0     H53287   6.464   3.005   2.367  0.2641  0.6559 -0.4257
  404MOL0     H53288   6.319   2.890   2.205 -2.1711  1.6761 -2.3637
  404MOL0     H53289   6.441   2.931   2.082 -1.6580  2.0278 -1.1751
  404MOL0     H53290   6.209   3.304   2.066  1.7123 -1.8441  1.1210
  404MOL0     H53291   6.043   3.335   1.901 -0.8442  1.0709  3.5059
  404MOL0     H53292   5.738   3.102   1.515  1.1411  0.0802 -0.0605
  404MOL0     H53293   5.611   3.208   1.325 -0.7540 -1.6071 -0.3004
  404MOL0     H53294   5.667   3.653   1.310 -0.4767 -0.0885  0.2904
  404MOL0     H53295   5.509   3.599   1.292 -0.0692 -0.9105 -1.1707
  404MOL0     H53296   5.701   3.629   1.051 -0.9652 -2.1188 -2.7400
  404MOL0     H53297   5.594   3.761   1.127  0.8318 -0.2581  1.1140
  404MOL0     H53298   5.516   3.522   0.957  2.2082 -1.5176  1.5488
  404MOL0     H53299   5.480   3.690   0.938 -0.6898 -2.1063 -1.3835
  404MOL0     H53300   5.359   3.501   1.132  0.2008  1.4749  2.1539
  404MOL0     H53301   5.348   3.679   1.145  2.5234 -0.7757  1.2290
  404MOL0     H53302   5.253   3.507   0.912 -0.6183 -0.5464  1.1134
  404MOL0     H53303   5.243   3.683   0.908  1.3296 -0.7901 -0.3668
  404MOL0     H53304   5.082   3.700   1.069 -0.4790 -0.3311 -0.4441
  404MOL0     H53305   5.104   3.533   1.140 -2.1128 -0.7697  0.2587
  404MOL0     H53306   4.998   3.598   0.857  1.0026 -0.0359  0.0114
  404MOL0     H53307   5.008   3.446   0.937  0.6424 -0.4099 -0.0400
  404MOL0     H53308   4.828   3.669   1.008 -2.3997 -0.5719  0.6742
  404MOL0     H53309   4.840   3.509   1.099  1.9552 -0.8074  0.0880
  404MOL0     H53310   5.852   3.538   1.329 -1.7164  0.3438  1.0231
  404MOL0     H53311   5.987   3.448   1.517 -0.2411 -1.1223 -0.1260
  404MOL0     H53312   6.000   2.903   1.849  2.4947 -1.2848  0.1430
  404MOL0     H53313   6.162   2.875   2.014  0.1309 -0.0324 -2.9951
  404MOL0     H53314   7.689   2.459   2.212 -0.0096 -1.1009 -2.5699
  404MOL0     H53315   7.851   2.338   2.074 -3.0205  4.1184 -1.3030
  404MOL0     H53316   8.155   1.901   2.193  2.5232 -2.3765 -0.0725
  404MOL0     H53317   8.331   1.770   2.079 -1.7611  0.0553 -1.6132
  404MOL0     H53318   8.669   1.969   1.856  0.1330 -0.1155  2.0070
  404MOL0     H53319   8.540   1.915   1.742 -0.5557  1.0712  1.7012
  404MOL0     H53320   8.727   1.717   1.854 -0.4877 -2.9365 -1.7037
  404MOL0     H53321   8.620   1.695   1.722 -1.6349 -0.8171  4.1673
  404MOL0     H53322   8.748   1.900   1.602  1.8772 -0.5374 -1.0241
  404MOL0     H53323   8.834   1.752   1.615 -0.5421  0.8693 -1.6450
  404MOL0     H53324   8.964   1.949   1.679  1.8521 -0.7114  0.2018
  404MOL0     H53325   8.862   1.989   1.815 -1.3376 -1.9099  1.1373
  404MOL0     H53326   9.091   1.642   1.951 -0.2950 -0.7145  0.5163
  404MOL0     H53327   8.477   2.090   1.879 -0.2866 -2.0184 -1.4764
  404MOL0     H53328   8.297   2.240   1.984 -1.1386 -0.7100 -0.9181
  405MOL0     O53329   8.858   0.184   5.529  0.0367 -0.1052 -0.0282
  405MOL0     C53330   8.901   0.270   5.602 -0.7901  0.9095 -0.3946
  405MOL0     O53331   8.843   0.310   5.721  0.6350 -0.1019  0.7079
  405MOL0     C53332   8.710   0.278   5.762 -0.3216  0.2119  1.7720
  405MOL0     C53333   8.606   0.255   5.662  0.1694 -0.7915  0.1193
  405MOL0     C53334   8.486   0.204   5.692  1.2876 -0.2604  0.3512
  405MOL0     C53335   8.458   0.181   5.828  0.9123  0.6297 -0.0295
  405MOL0     O53336   8.343   0.121   5.874 -0.5345 -0.5942  0.0136
  405MOL0     C53337   8.236   0.208   5.878  0.5618  0.2915  0.4023
  405MOL0     C53338   8.100   0.136   5.885 -0.0390  0.1509  0.3142
  405MOL0     C53339   7.973   0.225   5.907  0.1381  0.4466  0.3645
  405MOL0     C53340   7.849   0.150   5.941  0.3297  0.6141  0.0086
  405MOL0     C53341   7.739   0.242   5.997  0.8981  0.5368 -0.2105
  405MOL0     C53342   7.601   0.178   6.004 -0.4648 -0.1052 -0.3696
  405MOL0     C53343   7.586   0.052   6.091  0.1809 -0.0938 -0.0528
  405MOL0     C53344   7.437   0.022   6.105 -0.5904  0.2339 -0.4962
  405MOL0     N53345   7.422  -0.070   6.224  1.1671 -0.2207 -0.4663
  405MOL0     C53346   7.458  -0.200   6.230 -0.0858  0.3507  0.2628
  405MOL0     C53347   7.406  -0.253   6.344 -1.0928 -0.1879 -0.1623
  405MOL0     C53348   7.425  -0.395   6.404  0.1376 -0.6147 -0.5104
  405MOL0     C53349   7.446  -0.385   6.556  0.5067 -0.2302  0.4308
  405MOL0     C53350   7.477  -0.521   6.621  0.4177 -0.0767 -0.1678
  405MOL0     C53351   7.335  -0.587   6.638  0.1367  0.2068 -0.2961
  405MOL0     O53352   7.352  -0.688   6.744 -0.7055  0.6510  0.3924
  405MOL0     C53353   7.261  -0.794   6.764 -0.5347 -0.5504 -0.1395
  405MOL0     C53354   7.296  -0.894   6.853  1.4508  0.3747  0.0961
  405MOL0     C53355   7.204  -1.001   6.874 -0.1434  0.3575  0.0262
  405MOL0     C53356   7.078  -1.005   6.812  0.1478 -0.0301  0.0846
  405MOL0     C53357   6.987  -1.120   6.833 -0.1177 -0.6917  0.2172
  405MOL0     O53358   7.048  -1.231   6.885 -0.2154 -0.7416 -0.6015
  405MOL0     C53359   6.974  -1.337   6.918 -0.3059 -0.1105 -0.0197
  405MOL0     C53360   7.013  -1.460   6.877 -0.0326 -0.5648  0.4816
  405MOL0     C53361   6.942  -1.571   6.910  0.6139  0.6410  0.4503
  405MOL0     C53362   6.821  -1.565   6.987  0.5893 -0.2267  0.2100
  405MOL0     O53363   6.738  -1.672   7.025  0.2281 -0.2580 -0.1522
  405MOL0     C53364   6.747  -1.775   6.934 -0.5051  1.0037 -0.1556
  405MOL0     C53365   6.841  -1.880   6.990 -0.5775  0.0149 -0.0439
  405MOL0     C53366   6.772  -1.958   7.105 -0.6131  0.0515  1.3900
  405MOL0     C53367   6.660  -2.051   7.069  1.0545 -1.0392 -0.7372
  405MOL0     C53368   6.609  -2.121   7.204 -0.6876  1.1348 -0.4972
  405MOL0     C53369   6.511  -2.234   7.183  0.0412 -0.7495 -0.4828
  405MOL0     C53370   6.481  -2.291   7.323  0.3115 -0.2246  0.0798
  405MOL0     C53371   6.377  -2.402   7.335 -0.2753  0.0073  0.2052
  405MOL0    Cl53372   6.364  -2.465   7.500 -0.2439 -0.1756 -0.2134
  405MOL0     C53373   6.787  -1.445   7.044  0.1252 -0.0838  0.6246
  405MOL0     C53374   6.862  -1.327   7.005  0.1186 -0.1582 -0.7512
  405MOL0     O53375   6.875  -1.111   6.785 -1.0714  0.6433 -0.6970
  405MOL0     C53376   7.048  -0.907   6.719 -0.9251 -0.5744  0.3110
  405MOL0     C53377   7.144  -0.802   6.694  0.7208  0.0625  0.8108
  405MOL0     N53378   7.324  -0.148   6.407 -0.2621 -0.2875  0.6426
  405MOL0     N53379   7.359  -0.036   6.345 -0.0795 -0.1274  0.0835
  405MOL0     C53380   8.559   0.216   5.925  0.3789 -0.6013  0.0540
  405MOL0     C53381   8.685   0.272   5.895  0.3434 -0.2549  0.0319
  405MOL0     C53382   9.022   0.350   5.568 -0.4834  0.5837  1.2688
  405MOL0     C53383   9.080   0.438   5.661 -0.4700  0.3607 -0.1400
  405MOL0     C53384   9.189   0.517   5.625 -0.2050 -0.9583  0.1652
  405MOL0     C53385   9.258   0.504   5.504 -0.8799  0.9892  0.6155
  405MOL0     O53386   9.377   0.568   5.470 -0.0165 -0.1317 -0.5462
  405MOL0     C53387   9.449   0.637   5.569 -0.2773  1.0525  0.1556
  405MOL0     C53388   9.519   0.756   5.498 -0.5381  0.5986 -0.5334
  405MOL0     C53389   9.636   0.798   5.581 -0.0856 -0.4569 -0.3620
  405MOL0     C53390   9.735   0.883   5.497  0.0793 -0.1657 -0.1514
  405MOL0     C53391   9.848   0.930   5.580 -0.2829 -0.9206 -0.3060
  405MOL0     C53392   9.948   0.954   5.656 -0.3296 -0.5683 -0.3180
  405MOL0     C53393   9.210   0.408   5.408 -0.0584 -0.0680 -0.3513
  405MOL0     C53394   9.085   0.332   5.438 -0.4465 -0.1750  0.0556
  405MOL0     H53395   8.628   0.266   5.556 -0.8553 -1.2516 -0.1542
  405MOL0     H53396   8.412   0.162   5.624  0.0278  0.2620  1.3592
  405MOL0     H53397   8.234   0.287   5.802  0.5154 -2.4421 -2.6720
  405MOL0     H53398   8.237   0.265   5.971 -2.8956  1.4680 -0.1274
  405MOL0     H53399   8.104   0.063   5.966 -0.5738 -0.2218  0.0087
  405MOL0     H53400   8.074   0.072   5.801 -0.5212 -1.0552  1.3457
  405MOL0     H53401   7.950   0.276   5.812 -0.6138 -1.6594 -0.6364
  405MOL0     H53402   7.991   0.304   5.981  3.6348  0.9387 -0.8553
  405MOL0     H53403   7.799   0.113   5.852 -2.5191  0.2007  1.6753
  405MOL0     H53404   7.871   0.073   6.016  0.4854  1.1527  0.5257
  405MOL0     H53405   7.730   0.326   5.927 -2.8764 -0.0436 -0.6381
  405MOL0     H53406   7.780   0.281   6.091  0.4574 -0.8077  0.5663
  405MOL0     H53407   7.571   0.153   5.901  0.6597  0.8349 -0.9541
  405MOL0     H53408   7.532   0.255   6.040 -0.9120 -0.4886 -0.4092
  405MOL0     H53409   7.651  -0.026   6.050 -1.0642 -1.0535 -0.2781
  405MOL0     H53410   7.623   0.069   6.193 -0.4244 -2.5212  0.6596
  405MOL0     H53411   7.397  -0.016   6.011  0.4470  0.7232 -1.1564
  405MOL0     H53412   7.377   0.112   6.122 -2.1451 -1.0268  1.1106
  405MOL0     H53413   7.529  -0.251   6.165  1.0491  1.8331  0.2878
  405MOL0     H53414   7.512  -0.431   6.349  2.5193  4.3817 -0.5761
  405MOL0     H53415   7.341  -0.462   6.384 -0.9550  0.8312 -0.9704
  405MOL0     H53416   7.365  -0.335   6.608 -3.3080 -3.5753 -1.7131
  405MOL0     H53417   7.536  -0.323   6.563  1.1888  0.4509 -6.6244
  405MOL0     H53418   7.544  -0.582   6.560 -2.9085  1.3540 -5.9967
  405MOL0     H53419   7.523  -0.501   6.719  1.4257  3.0352 -1.1712
  405MOL0     H53420   7.283  -0.621   6.548 -2.8618 -0.2749  1.4891
  405MOL0     H53421   7.274  -0.506   6.680 -1.4404 -0.9690 -0.2631
  405MOL0     H53422   7.396  -0.900   6.895  0.8972 -3.0529  1.2348
  405MOL0     H53423   7.226  -1.073   6.953  1.1969  0.6364 -0.0701
  405MOL0     H53424   7.097  -1.480   6.812 -1.2179 -1.2860 -0.8759
  405MOL0     H53425   6.985  -1.657   6.860 -1.9044 -0.0297 -0.6723
  405MOL0     H53426   6.778  -1.733   6.838  0.2349  2.3991  0.6516
  405MOL0     H53427   6.645  -1.812   6.920  0.2632 -2.1496  1.5837
  405MOL0     H53428   6.933  -1.826   7.012 -2.1311  3.7806 -1.9017
  405MOL0     H53429   6.863  -1.957   6.915 -2.4079 -2.3933  1.7239
  405MOL0     H53430   6.741  -1.876   7.171  0.0705  0.1909  1.5501
  405MOL0     H53431   6.844  -2.022   7.156 -0.7619  0.2919  1.9101
  405MOL0     H53432   6.572  -2.001   7.029  0.4377 -2.3014 -0.9898
  405MOL0     H53433   6.691  -2.126   6.995 -0.4818 -1.9248 -0.5151
  405MOL0     H53434   6.561  -2.048   7.270  1.0140 -0.7728  3.1771
  405MOL0     H53435   6.697  -2.165   7.252 -1.7279 -1.3416 -0.6817
  405MOL0     H53436   6.554  -2.316   7.126  2.3634  0.0394  0.0042
  405MOL0     H53437   6.421  -2.190   7.139  2.2202  3.0204 -1.6343
  405MOL0     H53438   6.579  -2.321   7.361  0.2355  1.6466  1.9205
  405MOL0     H53439   6.456  -2.212   7.395  3.2560 -1.0999  2.2658
  405MOL0     H53440   6.408  -2.480   7.265 -2.3987 -1.1410  0.4475
  405MOL0     H53441   6.277  -2.370   7.304 -0.7092 -2.6991 -1.4889
  405MOL0     H53442   6.703  -1.428   7.111  0.8026  2.3259  0.9757
  405MOL0     H53443   6.841  -1.234   7.057  1.1573  0.1932 -0.9208
  405MOL0     H53444   6.956  -0.902   6.660  0.1213 -1.4401 -1.4953
  405MOL0     H53445   7.115  -0.727   6.622 -0.1558 -1.7704 -0.8536
  405MOL0     H53446   8.524   0.197   6.026  0.2418 -0.4721  0.0311
  405MOL0     H53447   8.766   0.274   5.968  1.6245 -2.3395 -1.2317
  405MOL0     H53448   9.030   0.446   5.756  1.1705 -4.9546  1.5478
  405MOL0     H53449   9.228   0.579   5.705  1.8720 -0.5195 -1.1242
  405MOL0     H53450   9.511   0.555   5.608 -1.9195 -0.0735  0.4782
  405MOL0     H53451   9.393   0.679   5.654  1.1231  1.1359  1.0774
  405MOL0     H53452   9.560   0.724   5.402 -0.3978  2.8490 -1.2969
  405MOL0     H53453   9.450   0.840   5.485 -1.6269 -0.2645 -0.4273
  405MOL0     H53454   9.682   0.707   5.622  0.7682 -0.1787 -0.6962
  405MOL0     H53455   9.601   0.862   5.662  3.1916 -2.2193  2.7385
  405MOL0     H53456   9.765   0.815   5.417  1.3438 -0.3438  0.4447
  405MOL0     H53457   9.691   0.970   5.448 -3.0635 -1.4994  0.1070
  405MOL0     H53458  10.024   0.965   5.731 -0.2116  2.8005 -0.8007
  405MOL0     H53459   9.282   0.399   5.327  0.3250 -0.9294  0.0760
  405MOL0     H53460   9.056   0.248   5.376  0.2101  0.4529 -1.1209
  406MOL0     O53461   9.966   7.733   4.174  0.0467  0.0169  0.2599
  406MOL0     C53462   9.969   7.794   4.061  0.7781  0.1703  0.5676
  406MOL0     O53463  10.074   7.860   4.000  0.4294 -0.3588  0.5474
  406MOL0     C53464  10.190   7.867   4.066  0.6312 -0.5641 -0.7009
  406MOL0     C53465  10.242   7.769   4.153  0.3524 -0.1709 -0.2147
  406MOL0     C53466  10.365   7.777   4.223 -0.7146  0.4711 -0.3161
  406MOL0     C53467  10.439   7.893   4.203 -0.0979  0.9172 -0.0852
  406MOL0     O53468  10.562   7.910   4.267 -0.6026 -0.6534  0.0992
  406MOL0     C53469  10.674   7.936   4.173  0.9039 -0.7752 -0.3341
  406MOL0     C53470  10.722   7.800   4.120 -0.5418 -1.5651 -0.1166
  406MOL0     C53471  10.819   7.826   4.012 -0.2058 -0.3577 -0.1257
  406MOL0     C53472  10.863   7.686   3.964 -0.1889 -0.4137 -0.5361
  406MOL0     C53473  10.988   7.701   3.883 -0.1028  0.1201 -0.6205
  406MOL0     C53474  11.054   7.565   3.867  0.2141 -0.7288 -1.1427
  406MOL0     C53475  10.968   7.464   3.788 -1.0225 -0.3778 -0.0182
  406MOL0     C53476  11.049   7.340   3.734  0.0032 -0.6966  0.2691
  406MOL0     N53477  11.151   7.388   3.633 -1.1162  0.5791 -0.0347
  406MOL0     C53478  11.158   7.338   3.503 -0.2243  0.5961 -0.9087
  406MOL0     C53479  11.278   7.369   3.457 -0.4879  0.5352 -1.0038
  406MOL0     C53480  11.325   7.350   3.314  0.0265  0.3762  0.2347
  406MOL0     C53481  11.476   7.323   3.289 -0.0015  0.7396  0.6092
  406MOL0     C53482  11.577   7.431   3.338 -0.1164  0.4009 -0.1480
  406MOL0     C53483  11.713   7.398   3.300  0.3683  0.1625 -0.7556
  406MOL0     O53484  11.791   7.500   3.361 -0.2620 -0.0248 -0.2331
  406MOL0     C53485  11.927   7.504   3.338  0.3138  0.3881 -0.4640
  406MOL0     C53486  11.983   7.487   3.210  0.0944  0.8397 -0.1037
  406MOL0     C53487  12.122   7.499   3.199  1.1105 -0.6633  0.6477
  406MOL0     C53488  12.206   7.512   3.314  0.1544 -0.2562  0.1048
  406MOL0     C53489  12.351   7.505   3.305 -0.4330  0.1375 -0.0607
  406MOL0     O53490  12.401   7.478   3.178 -0.5416 -0.1349 -0.3265
  406MOL0     C53491  12.536   7.443   3.172 -0.4348 -0.5203 -0.6804
  406MOL0     C53492  12.583   7.340   3.252 -0.0924 -0.6139  0.4826
  406MOL0     C53493  12.715   7.292   3.230 -0.1036  0.6003  0.0001
  406MOL0     C53494  12.798   7.347   3.131  0.4423 -0.3852  0.2346
  406MOL0     O53495  12.936   7.316   3.127 -0.1515  0.3529 -0.0987
  406MOL0     C53496  13.005   7.266   3.244  0.5468 -0.8130  0.9318
  406MOL0     C53497  13.159   7.291   3.219  0.9469 -0.1280 -0.1676
  406MOL0     C53498  13.246   7.219   3.120 -0.1085 -0.8309 -0.2753
  406MOL0     C53499  13.239   7.072   3.147  0.1592 -0.0103  0.6310
  406MOL0     C53500  13.295   6.983   3.031  0.5276 -0.6113 -0.1430
  406MOL0     C53501  13.433   6.945   3.070 -0.6726 -0.0927  0.7653
  406MOL0     C53502  13.503   6.862   2.963 -1.4767 -0.0644 -0.0168
  406MOL0     C53503  13.548   6.940   2.838 -0.6456 -0.2285  0.8477
  406MOL0    Cl53504  13.403   6.962   2.723 -0.7279  0.4408 -0.0662
  406MOL0     C53505  12.747   7.450   3.055  0.0018 -0.0105 -0.1505
  406MOL0     C53506  12.609   7.493   3.071  0.4020 -0.2784 -0.2610
  406MOL0     O53507  12.424   7.516   3.402  0.5822  0.0527 -0.1093
  406MOL0     C53508  12.149   7.539   3.437 -0.8145  0.8270  0.4360
  406MOL0     C53509  12.010   7.533   3.448  0.0199  0.7375  0.4842
  406MOL0     N53510  11.356   7.425   3.556  0.2990  0.0185  0.0548
  406MOL0     N53511  11.280   7.428   3.661  0.5349 -0.3779  0.0397
  406MOL0     C53512  10.387   7.992   4.129  0.4032  0.8009 -0.2317
  406MOL0     C53513  10.263   7.984   4.059  0.1274 -0.0703  0.4353
  406MOL0     C53514   9.839   7.807   3.999 -0.1539 -0.8270  1.0917
  406MOL0     C53515   9.814   7.931   3.936 -0.0381  1.0483  0.1062
  406MOL0     C53516   9.688   7.950   3.864 -0.5514 -0.2617  0.2382
  406MOL0     C53517   9.599   7.842   3.853 -0.6776  0.2363  0.6472
  406MOL0     O53518   9.490   7.861   3.773 -0.3938 -0.2071 -0.7431
  406MOL0     C53519   9.497   7.808   3.642 -0.5730  0.2385 -0.2218
  406MOL0     C53520   9.361   7.827   3.573  0.7148 -0.3237 -0.3362
  406MOL0     C53521   9.256   7.725   3.630 -0.6714  0.4916  0.3726
  406MOL0     C53522   9.102   7.750   3.593 -0.2504  0.4909 -0.2384
  406MOL0     C53523   9.038   7.619   3.593 -0.1893 -1.1279 -0.2238
  406MOL0     C53524   8.996   7.504   3.576 -0.3408 -1.0639  0.2900
  406MOL0     C53525   9.617   7.719   3.931 -0.5345 -0.0678 -0.0707
  406MOL0     C53526   9.736   7.710   3.999  0.0363  0.5231 -0.6507
  406MOL0     H53527  10.188   7.675   4.157 -0.8538  0.4685 -0.8343
  406MOL0     H53528  10.395   7.705   4.299  1.6179  1.5571 -0.1263
  406MOL0     H53529  10.751   8.002   4.212  0.1772  1.3480 -2.2514
  406MOL0     H53530  10.639   7.978   4.078 -0.3279  1.5134  1.0507
  406MOL0     H53531  10.640   7.739   4.081 -1.4977  1.1962 -2.8702
  406MOL0     H53532  10.774   7.759   4.207  2.0333  1.0339 -0.2894
  406MOL0     H53533  10.904   7.888   4.043  0.1806  0.5835 -2.8113
  406MOL0     H53534  10.761   7.883   3.939  0.5599 -0.8363 -1.1316
  406MOL0     H53535  10.880   7.618   4.048  2.7826  0.8502  0.0223
  406MOL0     H53536  10.781   7.640   3.908 -1.9278  0.5433  1.0882
  406MOL0     H53537  11.059   7.771   3.927 -1.0003  1.2963 -1.0172
  406MOL0     H53538  10.969   7.738   3.782  0.9488  1.0673 -0.4898
  406MOL0     H53539  11.078   7.530   3.968  0.3477  1.8882 -0.1929
  406MOL0     H53540  11.151   7.577   3.820  0.6699 -1.4567 -0.4160
  406MOL0     H53541  10.892   7.424   3.857 -1.7687 -1.4790 -1.4129
  406MOL0     H53542  10.915   7.513   3.706 -0.1525  0.0944 -0.3090
  406MOL0     H53543  10.979   7.265   3.695  0.1280 -2.3596  2.9930
  406MOL0     H53544  11.097   7.290   3.819  1.4311 -4.4252 -2.4327
  406MOL0     H53545  11.075   7.299   3.446 -0.2684  0.6758 -0.8993
  406MOL0     H53546  11.289   7.436   3.259 -0.8565 -0.4614 -0.5313
  406MOL0     H53547  11.275   7.263   3.270  0.7260 -0.0012  0.1576
  406MOL0     H53548  11.474   7.305   3.181 -5.5412  0.1836  0.5086
  406MOL0     H53549  11.508   7.229   3.336 -2.7938  0.5859  2.4226
  406MOL0     H53550  11.546   7.524   3.291  2.0083  1.6870  0.8461
  406MOL0     H53551  11.573   7.430   3.447 -2.6424 -2.5396 -0.1089
  406MOL0     H53552  11.715   7.396   3.191  0.8183  0.6659 -0.7616
  406MOL0     H53553  11.741   7.299   3.339 -1.4505  0.1926  0.7676
  406MOL0     H53554  11.932   7.478   3.115  3.6981  0.9327 -2.2320
  406MOL0     H53555  12.158   7.482   3.098 -2.5334 -2.0462 -0.5865
  406MOL0     H53556  12.513   7.302   3.326 -1.8818  1.7610  0.1365
  406MOL0     H53557  12.761   7.212   3.287 -1.7587 -2.4056 -2.5832
  406MOL0     H53558  13.000   7.157   3.255  0.3839 -1.1961 -2.0823
  406MOL0     H53559  12.969   7.320   3.332 -2.1078  3.2494 -2.2668
  406MOL0     H53560  13.193   7.265   3.320  1.8057  0.7682 -0.2106
  406MOL0     H53561  13.168   7.400   3.212 -4.4341  0.6126  0.1289
  406MOL0     H53562  13.351   7.247   3.118  0.1369 -1.6894 -0.0353
  406MOL0     H53563  13.213   7.227   3.016  0.6978 -3.3396 -0.8080
  406MOL0     H53564  13.296   7.055   3.238 -1.0605 -2.4355  1.0307
  406MOL0     H53565  13.136   7.048   3.174  0.9579 -0.4866  3.5144
  406MOL0     H53566  13.301   7.037   2.936 -0.0601 -1.1381 -0.4928
  406MOL0     H53567  13.239   6.893   3.003 -0.3610 -0.3141  0.6456
  406MOL0     H53568  13.425   6.880   3.157 -0.4287 -2.7556 -1.0878
  406MOL0     H53569  13.500   7.025   3.101 -0.5301  2.4310 -4.9168
  406MOL0     H53570  13.591   6.811   3.003 -0.5890  0.5832 -1.0766
  406MOL0     H53571  13.442   6.783   2.917 -2.6104 -0.7797  2.5572
  406MOL0     H53572  13.614   6.870   2.785 -1.1429 -0.2700  0.2685
  406MOL0     H53573  13.607   7.027   2.869  1.5864 -0.2691 -2.7114
  406MOL0     H53574  12.815   7.511   2.996  2.5843 -1.4906  1.1029
  406MOL0     H53575  12.558   7.550   2.995  0.4109 -0.5279 -0.4556
  406MOL0     H53576  12.208   7.563   3.525  3.2736  0.0597 -1.8394
  406MOL0     H53577  11.954   7.552   3.539 -1.3542 -2.0105  0.3295
  406MOL0     H53578  10.441   8.085   4.120  0.5975  0.7403  0.2894
  406MOL0     H53579  10.224   8.067   4.002 -0.2869 -0.5001  0.0862
  406MOL0     H53580   9.901   7.997   3.935  0.7713  0.0179  0.5294
  406MOL0     H53581   9.665   8.043   3.814  1.1971  1.6714  2.8112
  406MOL0     H53582   9.518   7.701   3.653 -0.3590  0.2613 -0.3907
  406MOL0     H53583   9.576   7.853   3.581 -0.0881 -1.2995 -0.7858
  406MOL0     H53584   9.323   7.930   3.576 -1.1055 -0.9809  0.9616
  406MOL0     H53585   9.360   7.795   3.468  1.8463  1.2878 -0.8830
  406MOL0     H53586   9.254   7.727   3.739  0.3141 -1.3182  0.4631
  406MOL0     H53587   9.283   7.623   3.598 -2.9522  1.1760 -4.7290
  406MOL0     H53588   9.042   7.812   3.661 -1.4737 -1.8245  0.9103
  406MOL0     H53589   9.086   7.786   3.491 -2.4011 -0.6578 -0.3512
  406MOL0     H53590   8.968   7.405   3.547  0.2101 -1.5708  1.4468
  406MOL0     H53591   9.549   7.634   3.934  0.5097 -1.0786 -2.3359
  406MOL0     H53592   9.750   7.615   4.050 -2.4620  0.9297  0.9855
  407MOL0     O53593   4.585   8.882   2.302 -1.5981  0.2469  0.1964
  407MOL0     C53594   4.640   8.937   2.398  1.2700  0.2829 -0.8224
  407MOL0     O53595   4.570   9.019   2.497  0.0731  0.4977  0.1269
  407MOL0     C53596   4.431   9.002   2.515 -1.5219 -0.0303  0.2903
  407MOL0     C53597   4.335   8.941   2.430 -0.0973 -0.2165  0.3262
  407MOL0     C53598   4.199   8.948   2.460 -0.6376 -0.4686  0.7083
  407MOL0     C53599   4.161   8.994   2.583 -0.1386  0.4276 -0.1393
  407MOL0     O53600   4.031   8.985   2.608  0.2423 -0.3049  0.7519
  407MOL0     C53601   3.965   9.094   2.669 -0.0439  0.1520  0.4749
  407MOL0     C53602   3.821   9.056   2.717 -0.5446  0.5791  1.0964
  407MOL0     C53603   3.775   9.164   2.811 -0.8456  0.5763  0.1103
  407MOL0     C53604   3.649   9.119   2.890  0.0231 -0.5004 -0.8896
  407MOL0     C53605   3.635   9.210   3.021 -0.3392  0.2848  0.3758
  407MOL0     C53606   3.516   9.163   3.104  0.0778 -0.1541  0.6551
  407MOL0     C53607   3.540   9.179   3.254 -0.6978  0.5174  0.4867
  407MOL0     C53608   3.557   9.334   3.315 -0.1593  0.4683  0.0831
  407MOL0     N53609   3.437   9.399   3.266 -0.7976 -0.6627  0.2415
  407MOL0     C53610   3.310   9.355   3.297  0.2756  0.4115 -0.0992
  407MOL0     C53611   3.228   9.421   3.207  0.1045  0.1384  0.1932
  407MOL0     C53612   3.081   9.416   3.199 -0.2257  0.9516  0.0302
  407MOL0     C53613   3.032   9.543   3.256 -1.5449  0.3082 -0.2268
  407MOL0     C53614   2.881   9.541   3.271 -0.8496  0.3559  0.6082
  407MOL0     C53615   2.833   9.686   3.294  0.2235  0.0578  0.8254
  407MOL0     O53616   2.692   9.693   3.322  1.2342  0.1734  0.4087
  407MOL0     C53617   2.630   9.805   3.369 -0.2253 -0.8444  0.6990
  407MOL0     C53618   2.693   9.908   3.444 -0.0485  0.2415 -0.4374
  407MOL0     C53619   2.613  10.020   3.490 -0.7790  0.3081  0.0701
  407MOL0     C53620   2.477  10.027   3.469 -0.2204 -0.4045  0.0603
  407MOL0     C53621   2.404  10.139   3.525 -0.0210 -0.8136  0.9722
  407MOL0     O53622   2.273  10.125   3.519  0.0540  0.1585 -0.2598
  407MOL0     C53623   2.197  10.193   3.606  0.1012 -0.2144 -0.1023
  407MOL0     C53624   2.213  10.189   3.745 -0.0487 -0.0066  0.6814
  407MOL0     C53625   2.125  10.250   3.829  0.5676 -0.4179  1.0330
  407MOL0     C53626   2.009  10.316   3.782 -0.3537  0.9139  0.7399
  407MOL0     O53627   1.926  10.382   3.857 -0.8174 -0.3514  1.1164
  407MOL0     C53628   1.959  10.396   3.995 -0.5982 -1.0026 -0.3125
  407MOL0     C53629   1.841  10.480   4.064 -0.4597  0.4510  0.2244
  407MOL0     C53630   1.838  10.627   4.022  0.0028 -0.0125  0.5640
  407MOL0     C53631   1.748  10.715   4.108 -0.5119  1.0628  0.1941
  407MOL0     C53632   1.800  10.730   4.250 -0.1696 -1.1468  0.8903
  407MOL0     C53633   1.942  10.785   4.261 -0.8579  0.8045 -0.4187
  407MOL0     C53634   1.972  10.911   4.184  0.5424 -0.3566 -0.4347
  407MOL0     C53635   1.881  11.027   4.212  0.4232 -0.4251 -0.8730
  407MOL0    Cl53636   1.897  11.074   4.384  0.0639  0.1407 -0.3632
  407MOL0     C53637   1.984  10.313   3.646 -0.3466  0.4746 -0.1299
  407MOL0     C53638   2.084  10.253   3.560 -0.5846 -0.4224 -0.0480
  407MOL0     O53639   2.461  10.247   3.548 -0.0043  0.2322 -0.1759
  407MOL0     C53640   2.417   9.924   3.393 -0.7219  0.6625  0.2207
  407MOL0     C53641   2.493   9.814   3.340  0.8313  0.7357  0.0685
  407MOL0     N53642   3.314   9.510   3.132  0.5127  0.0766  0.4600
  407MOL0     N53643   3.435   9.498   3.173  0.5956  0.3715 -0.0419
  407MOL0     C53644   4.256   9.041   2.676  0.3313  0.1901 -0.2783
  407MOL0     C53645   4.383   9.051   2.636 -0.1709 -0.3899  0.2653
  407MOL0     C53646   4.785   8.912   2.432  0.0284  0.7066 -0.0919
  407MOL0     C53647   4.849   8.965   2.548  0.0466  0.2309  0.6314
  407MOL0     C53648   4.982   8.963   2.567  0.1554 -0.0201  0.6792
  407MOL0     C53649   5.068   8.895   2.471 -0.1310 -0.3406  0.1982
  407MOL0     O53650   5.209   8.902   2.485 -0.1655  0.0911 -0.2978
  407MOL0     C53651   5.277   8.785   2.518 -0.5944 -0.7007 -0.2870
  407MOL0     C53652   5.297   8.765   2.664 -0.2355 -0.3471  0.2482
  407MOL0     C53653   5.365   8.887   2.732  0.4246  0.1945 -0.6465
  407MOL0     C53654   5.509   8.892   2.701  0.2482 -0.4646 -0.2174
  407MOL0     C53655   5.592   8.768   2.698  0.7574 -0.3828 -0.1444
  407MOL0     C53656   5.649   8.666   2.691 -0.4151  0.3748 -0.5758
  407MOL0     C53657   5.001   8.823   2.369  0.4657 -0.1754 -0.1864
  407MOL0     C53658   4.866   8.831   2.346  0.0343  0.5309  0.4793
  407MOL0     H53659   4.363   8.899   2.334  1.7176 -2.3649  1.6931
  407MOL0     H53660   4.121   8.899   2.402 -0.6926 -0.1149  0.4800
  407MOL0     H53661   3.958   9.188   2.615  0.1560  0.3379  0.7754
  407MOL0     H53662   4.024   9.123   2.756  1.7588  0.6624 -0.8688
  407MOL0     H53663   3.826   8.959   2.767 -1.4432  0.3218  0.7106
  407MOL0     H53664   3.759   9.055   2.627 -0.5560  0.6889  1.1022
  407MOL0     H53665   3.760   9.261   2.762 -2.0570  1.1383  1.4988
  407MOL0     H53666   3.858   9.185   2.880 -0.5524  0.7365 -0.2901
  407MOL0     H53667   3.554   9.130   2.835 -1.7628 -2.5180  1.5527
  407MOL0     H53668   3.646   9.014   2.923  0.0437 -0.8465 -1.9468
  407MOL0     H53669   3.621   9.313   2.986 -0.9075 -0.2751 -1.1367
  407MOL0     H53670   3.724   9.202   3.083 -0.3584  0.8129  0.4765
  407MOL0     H53671   3.488   9.059   3.082 -0.8037 -0.1246  1.5737
  407MOL0     H53672   3.423   9.217   3.081 -1.8419 -2.7875  1.6307
  407MOL0     H53673   3.463   9.128   3.312 -0.8588  1.1768  0.8688
  407MOL0     H53674   3.636   9.130   3.275 -0.7400 -1.3866 -3.0455
  407MOL0     H53675   3.654   9.369   3.278  1.0468  1.1123  3.5126
  407MOL0     H53676   3.565   9.327   3.424 -0.8575 -1.5830  0.0611
  407MOL0     H53677   3.283   9.292   3.381  2.2677 -2.6815 -1.5792
  407MOL0     H53678   3.047   9.332   3.261 -1.2221 -0.2490 -2.0307
  407MOL0     H53679   3.055   9.400   3.094  1.8876  2.3420 -0.7508
  407MOL0     H53680   3.064   9.616   3.181  1.1908 -0.2686  0.2501
  407MOL0     H53681   3.075   9.566   3.354  0.4695  0.9193 -1.2166
  407MOL0     H53682   2.840   9.512   3.174 -1.7794  2.8933  0.1665
  407MOL0     H53683   2.841   9.489   3.358 -3.1305  0.1041 -0.5066
  407MOL0     H53684   2.864   9.761   3.221  2.3118  0.3643  1.9370
  407MOL0     H53685   2.888   9.717   3.384  0.1602 -0.5576  1.0778
  407MOL0     H53686   2.797   9.912   3.472 -0.5285  0.2032  1.4667
  407MOL0     H53687   2.662  10.094   3.552 -1.3853  0.3263  0.5424
  407MOL0     H53688   2.298  10.139   3.791  0.7342  0.6949  0.0419
  407MOL0     H53689   2.148  10.243   3.935  1.6948 -0.5599  0.7941
  407MOL0     H53690   2.047  10.458   4.015 -1.5034 -0.6136  2.9979
  407MOL0     H53691   1.971  10.305   4.053 -1.6228 -0.4549  0.8060
  407MOL0     H53692   1.855  10.475   4.173  0.9559  1.9057  0.1544
  407MOL0     H53693   1.740  10.442   4.050 -0.1552 -0.7324  1.0725
  407MOL0     H53694   1.817  10.624   3.914 -1.7378 -0.0492  0.8802
  407MOL0     H53695   1.936  10.675   4.019  0.7611 -1.4514 -2.6617
  407MOL0     H53696   1.743  10.812   4.058 -1.2962  1.5210  1.1241
  407MOL0     H53697   1.653  10.662   4.098 -1.3379  2.4508  0.3733
  407MOL0     H53698   1.794  10.633   4.301 -0.4378 -2.0398 -0.7927
  407MOL0     H53699   1.738  10.800   4.306 -1.8576  0.3733 -2.5905
  407MOL0     H53700   2.017  10.709   4.236  1.0046  2.6718 -0.7632
  407MOL0     H53701   1.957  10.799   4.368 -1.1384  0.1730 -0.2890
  407MOL0     H53702   2.072  10.944   4.213 -0.2414 -0.2881  2.5106
  407MOL0     H53703   1.982  10.894   4.076  0.2264 -0.4777 -0.4462
  407MOL0     H53704   1.784  10.994   4.174 -0.6037 -1.2213  2.1622
  407MOL0     H53705   1.923  11.110   4.155  2.1321 -1.0328 -0.5698
  407MOL0     H53706   1.893  10.353   3.602 -0.5951  2.2568  1.8759
  407MOL0     H53707   2.070  10.262   3.453  2.0186  1.0453 -0.3300
  407MOL0     H53708   2.309   9.915   3.393 -0.7956  0.7853  2.9534
  407MOL0     H53709   2.447   9.727   3.295  2.0385 -0.7519  1.5438
  407MOL0     H53710   4.227   9.056   2.780  1.4544 -0.3871  0.1304
  407MOL0     H53711   4.452   9.104   2.700 -1.6753  0.8524  0.9437
  407MOL0     H53712   4.789   9.011   2.626 -3.6293  0.6842 -2.2150
  407MOL0     H53713   5.020   9.016   2.654 -0.6715 -0.5979  1.4039
  407MOL0     H53714   5.376   8.787   2.470 -0.3699 -1.9821  0.0707
  407MOL0     H53715   5.234   8.695   2.473  0.6846 -1.9657  0.8971
  407MOL0     H53716   5.193   8.750   2.695 -0.0818 -1.3566  0.2897
  407MOL0     H53717   5.352   8.671   2.673 -0.2577 -0.2463  1.5544
  407MOL0     H53718   5.362   8.891   2.841  3.4042  0.8152 -0.5160
  407MOL0     H53719   5.322   8.982   2.698  1.1875  0.2628 -1.4629
  407MOL0     H53720   5.525   8.925   2.598 -0.9102 -2.5847 -1.1299
  407MOL0     H53721   5.548   8.977   2.759 -0.7220 -0.3826  0.3276
  407MOL0     H53722   5.710   8.578   2.688  0.6157  1.0596 -0.0061
  407MOL0     H53723   5.061   8.761   2.304 -2.7997 -0.7789 -2.9057
  407MOL0     H53724   4.818   8.772   2.268  1.0228  4.1784 -3.2811
  408MOL0     O53725   0.393   4.853   2.699 -0.0354  0.2178  0.3593
  408MOL0     C53726   0.421   4.879   2.580 -0.8556 -0.7161 -0.5875
  408MOL0     O53727   0.338   4.861   2.477  0.6738 -0.2500 -0.6116
  408MOL0     C53728   0.212   4.823   2.512 -0.7753 -1.2420 -0.5103
  408MOL0     C53729   0.122   4.918   2.559 -0.0390  0.5285  0.2403
  408MOL0     C53730  -0.007   4.887   2.590 -0.2095 -0.4373 -0.7079
  408MOL0     C53731  -0.058   4.763   2.558 -0.6457  0.2097 -0.8677
  408MOL0     O53732  -0.185   4.727   2.600 -0.3521 -0.0183  0.0722
  408MOL0     C53733  -0.278   4.714   2.495  0.3384  0.6085 -0.3958
  408MOL0     C53734  -0.369   4.832   2.481 -0.2632 -0.7567  0.3845
  408MOL0     C53735  -0.484   4.812   2.577 -0.1806 -0.0379 -0.1512
  408MOL0     C53736  -0.577   4.935   2.588  0.6379 -0.2157 -1.1680
  408MOL0     C53737  -0.658   4.960   2.461 -0.1420 -0.2664 -0.5340
  408MOL0     C53738  -0.761   4.852   2.434 -0.2262 -0.0727  0.2561
  408MOL0     C53739  -0.896   4.859   2.511 -1.1418 -0.2881  0.0818
  408MOL0     C53740  -0.998   4.754   2.463  0.9480 -0.2832 -0.5854
  408MOL0     N53741  -0.938   4.619   2.451 -0.1203  0.2558 -0.9494
  408MOL0     C53742  -0.918   4.523   2.549 -0.4675 -0.4475 -0.9056
  408MOL0     C53743  -0.874   4.409   2.495  0.0404  0.3604  1.2936
  408MOL0     C53744  -0.828   4.271   2.561 -0.2144  0.2307  0.4339
  408MOL0     C53745  -0.941   4.166   2.535 -0.3282 -0.3083  0.4286
  408MOL0     C53746  -1.065   4.204   2.613 -0.2404  0.3974  0.3069
  408MOL0     C53747  -1.160   4.075   2.635  0.3362 -1.1648  0.2709
  408MOL0     O53748  -1.296   4.113   2.661 -0.0598  0.0347  0.0644
  408MOL0     C53749  -1.408   4.035   2.648 -0.5141 -0.1118  0.4548
  408MOL0     C53750  -1.417   3.941   2.549  0.3545  0.0572 -0.4392
  408MOL0     C53751  -1.515   3.838   2.552  0.2436 -0.2358  0.3042
  408MOL0     C53752  -1.608   3.838   2.662  0.3918  0.5253 -0.1188
  408MOL0     C53753  -1.711   3.740   2.663  1.4313 -0.9110  0.7565
  408MOL0     O53754  -1.738   3.681   2.540  0.5714 -0.0764 -0.5660
  408MOL0     C53755  -1.823   3.571   2.536  0.4774  0.2306  0.1333
  408MOL0     C53756  -1.949   3.592   2.490 -0.9408 -0.1547  1.3344
  408MOL0     C53757  -2.030   3.483   2.458  0.9321  0.3463  0.1642
  408MOL0     C53758  -1.988   3.352   2.482  0.1438  0.0348 -0.5005
  408MOL0     O53759  -2.076   3.243   2.450  0.4165 -0.4740 -0.5715
  408MOL0     C53760  -2.028   3.110   2.444  0.3122  0.0479 -0.4411
  408MOL0     C53761  -2.124   3.006   2.398  0.3420  0.6652  0.4954
  408MOL0     C53762  -2.198   2.954   2.520 -0.2853  0.3634  0.2845
  408MOL0     C53763  -2.307   2.862   2.468  0.9718 -1.0402 -0.7635
  408MOL0     C53764  -2.366   2.805   2.594  0.0685 -0.2892 -0.0214
  408MOL0     C53765  -2.467   2.693   2.565 -0.3593 -0.0632 -0.9627
  408MOL0     C53766  -2.488   2.605   2.683 -0.0420 -0.5145  0.0494
  408MOL0     C53767  -2.598   2.513   2.660  0.2793  0.3327 -0.2419
  408MOL0    Cl53768  -2.569   2.368   2.755 -0.2109  0.4507  0.4272
  408MOL0     C53769  -1.854   3.326   2.525 -0.0776  0.1485  0.7543
  408MOL0     C53770  -1.780   3.439   2.560 -0.1856  0.0569 -0.1575
  408MOL0     O53771  -1.752   3.702   2.773 -0.9585 -0.3560 -0.3598
  408MOL0     C53772  -1.607   3.944   2.751 -0.5986 -0.3440  0.3454
  408MOL0     C53773  -1.510   4.046   2.738 -0.1274 -0.3325 -1.0709
  408MOL0     N53774  -0.892   4.430   2.361  0.7093 -0.2274 -0.4008
  408MOL0     N53775  -0.934   4.546   2.338  0.3193 -0.4506  0.5980
  408MOL0     C53776   0.023   4.668   2.500  1.1080  0.0111 -0.6966
  408MOL0     C53777   0.155   4.692   2.484 -0.5477  0.6170  0.0671
  408MOL0     C53778   0.555   4.936   2.560  1.2474  0.0434  0.5498
  408MOL0     C53779   0.645   4.965   2.669 -1.5035  0.7874 -0.1345
  408MOL0     C53780   0.776   4.985   2.642 -0.6414  0.8219  0.7674
  408MOL0     C53781   0.822   4.996   2.509  0.1698  0.7362 -0.3938
  408MOL0     O53782   0.953   5.011   2.467 -0.7616 -0.4926  0.5080
  408MOL0     C53783   1.049   5.041   2.574 -0.1759  0.7049 -0.3147
  408MOL0     C53784   1.178   5.095   2.502 -0.9079  0.7330  0.6569
  408MOL0     C53785   1.157   5.234   2.437 -0.3831  0.0154  0.2464
  408MOL0     C53786   1.292   5.304   2.412 -0.4105  0.9176  0.0354
  408MOL0     C53787   1.379   5.224   2.324  0.3770  0.2809  0.7436
  408MOL0     C53788   1.448   5.169   2.241  0.1188 -0.1967  0.2243
  408MOL0     C53789   0.731   4.987   2.401 -0.0108 -0.0629 -0.1488
  408MOL0     C53790   0.603   4.956   2.428  0.4083  0.2098  0.5678
  408MOL0     H53791   0.152   5.023   2.564  2.6985  0.0559 -2.8287
  408MOL0     H53792  -0.076   4.960   2.630 -0.9539 -2.9513  3.0615
  408MOL0     H53793  -0.337   4.624   2.515  0.7625 -0.1723 -2.4728
  408MOL0     H53794  -0.218   4.696   2.406  1.1408  0.6009  0.1307
  408MOL0     H53795  -0.394   4.846   2.375  0.8262 -1.1704  0.0533
  408MOL0     H53796  -0.315   4.922   2.514  0.7918 -0.7017 -1.3253
  408MOL0     H53797  -0.438   4.799   2.675  2.5990 -2.8704 -1.6517
  408MOL0     H53798  -0.537   4.720   2.553  0.0608 -0.0492 -0.6538
  408MOL0     H53799  -0.645   4.927   2.673  0.7610  1.8068 -0.8239
  408MOL0     H53800  -0.518   5.025   2.612 -0.3368  0.8549 -2.6345
  408MOL0     H53801  -0.575   4.966   2.389  1.0741 -0.7758  0.7772
  408MOL0     H53802  -0.711   5.055   2.465  1.8640  0.9485 -1.4390
  408MOL0     H53803  -0.713   4.757   2.457  0.7909  0.9209  2.6341
  408MOL0     H53804  -0.787   4.861   2.328  1.4202  2.3292 -0.0083
  408MOL0     H53805  -0.868   4.848   2.616 -0.3908  0.0753 -0.0737
  408MOL0     H53806  -0.937   4.960   2.498 -2.3589 -0.5466  1.5855
  408MOL0     H53807  -1.038   4.784   2.365  1.7520 -1.0093 -1.1559
  408MOL0     H53808  -1.073   4.743   2.542 -1.0810  1.5570 -2.1341
  408MOL0     H53809  -0.919   4.538   2.656  0.7884 -0.5055 -0.8687
  408MOL0     H53810  -0.811   4.290   2.667  0.1904  2.8473 -0.0410
  408MOL0     H53811  -0.738   4.235   2.510  0.6125 -1.1540  2.7320
  408MOL0     H53812  -0.919   4.061   2.559  0.0452 -0.5667 -0.9134
  408MOL0     H53813  -0.971   4.167   2.429  0.8639 -0.0563  0.0751
  408MOL0     H53814  -1.029   4.249   2.706  1.4997 -2.0042  0.8778
  408MOL0     H53815  -1.125   4.280   2.562 -0.0881  0.3604  0.0683
  408MOL0     H53816  -1.122   4.025   2.725 -0.5273  1.3144  2.1497
  408MOL0     H53817  -1.166   4.003   2.553 -1.8091 -0.9721  0.1888
  408MOL0     H53818  -1.343   3.942   2.470 -2.5605 -0.7604 -3.3860
  408MOL0     H53819  -1.526   3.762   2.476  0.9119  0.1173 -0.1573
  408MOL0     H53820  -1.985   3.693   2.473 -0.1386  0.2277  1.8548
  408MOL0     H53821  -2.128   3.495   2.413 -0.2721  1.3114  2.7833
  408MOL0     H53822  -2.007   3.083   2.548 -3.6941 -1.7719  0.1069
  408MOL0     H53823  -1.941   3.100   2.378  0.5201  2.5185 -0.6462
  408MOL0     H53824  -2.069   2.931   2.341 -1.6175 -0.6184  0.2160
  408MOL0     H53825  -2.200   3.045   2.330  1.8247  0.8526 -1.1359
  408MOL0     H53826  -2.238   3.038   2.578 -0.3938  0.9725 -0.6422
  408MOL0     H53827  -2.125   2.904   2.585 -0.2489 -2.1082 -1.4941
  408MOL0     H53828  -2.385   2.909   2.408 -1.2885 -6.7017 -2.9578
  408MOL0     H53829  -2.260   2.788   2.403  0.5072 -1.3197 -0.7854
  408MOL0     H53830  -2.422   2.888   2.639  1.3393  1.6033 -1.7610
  408MOL0     H53831  -2.285   2.769   2.658 -1.6220  0.1229  2.5317
  408MOL0     H53832  -2.437   2.635   2.478  0.8967  0.3010 -0.7947
  408MOL0     H53833  -2.558   2.746   2.533  0.4896  3.3585  1.6303
  408MOL0     H53834  -2.393   2.550   2.688  0.6469  0.4827 -1.4600
  408MOL0     H53835  -2.495   2.662   2.776 -2.0314 -1.6381  0.6464
  408MOL0     H53836  -2.590   2.475   2.558 -0.5141 -1.6161  0.3772
  408MOL0     H53837  -2.697   2.554   2.682 -1.0393 -3.1243  0.9610
  408MOL0     H53838  -1.798   3.234   2.521  0.7852  0.6091  1.7514
  408MOL0     H53839  -1.675   3.430   2.589  0.1148 -2.1095 -1.7442
  408MOL0     H53840  -1.690   3.943   2.821 -0.8025 -0.5697  0.1070
  408MOL0     H53841  -1.515   4.127   2.811  0.8782 -1.8010  0.6980
  408MOL0     H53842  -0.019   4.579   2.455  1.2485  0.8364 -2.5331
  408MOL0     H53843   0.214   4.616   2.434 -2.2266  1.1687 -3.0165
  408MOL0     H53844   0.623   4.948   2.774  1.5789  1.2371  0.6732
  408MOL0     H53845   0.841   4.997   2.728 -0.3905  1.5349  0.4828
  408MOL0     H53846   1.060   4.945   2.624 -3.3611 -0.0608 -0.8558
  408MOL0     H53847   1.011   5.124   2.635  0.9085  0.7883  0.2638
  408MOL0     H53848   1.255   5.102   2.580  0.8848 -1.9711 -0.7030
  408MOL0     H53849   1.221   5.016   2.440 -0.4932 -1.0198  3.0418
  408MOL0     H53850   1.104   5.298   2.508 -2.1598 -1.8765  0.7248
  408MOL0     H53851   1.095   5.234   2.347  0.5836  0.8530 -0.4356
  408MOL0     H53852   1.274   5.402   2.366  0.9291  0.7838 -0.8228
  408MOL0     H53853   1.340   5.330   2.506 -3.4984 -1.5257  2.5061
  408MOL0     H53854   1.507   5.131   2.161  0.4493  3.0564 -1.2009
  408MOL0     H53855   0.753   5.017   2.299  0.8046  0.8161  0.2706
  408MOL0     H53856   0.543   4.940   2.339  3.2810  1.8449 -1.8129
  409MOL0     O53857   4.570  10.821   8.632  0.4846  0.2300  0.0983
  409MOL0     C53858   4.623  10.923   8.600 -0.2243 -0.9402  0.3661
  409MOL0     O53859   4.564  11.043   8.620  0.2042  0.3559  0.7466
  409MOL0     C53860   4.469  11.067   8.712 -0.3967  0.2186 -0.2674
  409MOL0     C53861   4.476  11.004   8.838  0.2942  0.1415 -0.0251
  409MOL0     C53862   4.375  11.032   8.932  0.0523  1.2377 -0.2442
  409MOL0     C53863   4.275  11.122   8.906  0.6312 -0.9000 -0.5421
  409MOL0     O53864   4.189  11.149   9.004  0.7487  0.2218  0.4263
  409MOL0     C53865   4.244  11.226   9.113  0.6705  0.8818  0.9892
  409MOL0     C53866   4.137  11.310   9.175  0.5223  0.4189  0.2530
  409MOL0     C53867   4.019  11.230   9.254 -0.4708  0.2249  0.1911
  409MOL0     C53868   3.913  11.325   9.309 -0.2218  0.6413  0.1772
  409MOL0     C53869   3.845  11.272   9.430  0.1455 -0.9994 -0.0010
  409MOL0     C53870   3.764  11.148   9.403 -0.1701  0.7489 -0.4076
  409MOL0     C53871   3.673  11.111   9.517 -0.4238 -0.1643  0.1634
  409MOL0     C53872   3.730  11.122   9.660 -0.6866 -0.2532  0.3557
  409MOL0     N53873   3.648  11.047   9.757 -0.2750 -0.2221 -0.3781
  409MOL0     C53874   3.514  11.058   9.773 -1.1495 -0.2960 -0.2220
  409MOL0     C53875   3.472  10.944   9.832  0.3695 -0.0538 -0.7000
  409MOL0     C53876   3.331  10.901   9.857 -0.4455 -0.0156  0.7498
  409MOL0     C53877   3.328  10.846  10.000  0.1799 -0.1664  0.3922
  409MOL0     C53878   3.226  10.724  10.013  0.3462 -0.4857 -0.0955
  409MOL0     C53879   3.089  10.746   9.956  0.3291  0.7139  0.0992
  409MOL0     O53880   3.029  10.857  10.025  0.7507 -0.0213  1.1283
  409MOL0     C53881   2.898  10.892   9.993  0.3072 -0.3446 -0.5104
  409MOL0     C53882   2.813  10.818   9.914  1.0118  0.3932  0.4659
  409MOL0     C53883   2.678  10.862   9.889 -1.0400  0.0022  0.0965
  409MOL0     C53884   2.633  10.986   9.944  0.7269 -0.0169 -0.2666
  409MOL0     C53885   2.504  11.030   9.905 -0.3719 -0.2922  0.2644
  409MOL0     O53886   2.428  10.941   9.833  0.1794  1.1450 -0.1530
  409MOL0     C53887   2.312  10.994   9.772  0.0420  0.4485 -0.1901
  409MOL0     C53888   2.275  11.121   9.733  0.2230  0.5159 -0.7207
  409MOL0     C53889   2.144  11.154   9.702  0.2145 -0.3644  0.4347
  409MOL0     C53890   2.051  11.051   9.690 -0.0855 -0.1856 -0.1460
  409MOL0     O53891   1.926  11.091   9.636  0.0839  0.1764  0.4102
  409MOL0     C53892   1.846  10.992   9.575  0.2307 -1.0510 -0.2010
  409MOL0     C53893   1.713  11.044   9.520 -0.4200  0.2000 -0.7969
  409MOL0     C53894   1.720  11.132   9.399 -0.2249 -0.7456 -0.4462
  409MOL0     C53895   1.579  11.190   9.368 -0.3973  0.5153 -0.1182
  409MOL0     C53896   1.589  11.314   9.281 -0.2211  0.0727 -0.4894
  409MOL0     C53897   1.639  11.437   9.356  0.2368 -0.5882 -0.6067
  409MOL0     C53898   1.637  11.578   9.279  0.1736  0.0862  0.3592
  409MOL0     C53899   1.637  11.699   9.374  0.0000  0.4840 -0.2045
  409MOL0    Cl53900   1.470  11.721   9.428 -0.0388 -0.5939 -0.0450
  409MOL0     C53901   2.084  10.922   9.716 -0.6886 -0.0277 -0.1928
  409MOL0     C53902   2.212  10.892   9.759  0.0902  0.1272 -0.1866
  409MOL0     O53903   2.478  11.143   9.940  0.3642  0.0704 -0.3693
  409MOL0     C53904   2.719  11.064  10.023  0.0394  0.4155  0.2264
  409MOL0     C53905   2.847  11.013  10.048  0.4777 -0.9874 -0.0253
  409MOL0     N53906   3.581  10.862   9.845 -0.1258 -0.6372  0.1313
  409MOL0     N53907   3.682  10.923   9.791 -0.2088  0.0642  0.1378
  409MOL0     C53908   4.272  11.182   8.776  0.0255 -0.1606  0.0317
  409MOL0     C53909   4.373  11.159   8.682 -0.6094  0.2500  0.1817
  409MOL0     C53910   4.748  10.932   8.525 -0.6252  0.6708  0.2111
  409MOL0     C53911   4.814  11.053   8.508  0.5690  0.1054  1.3583
  409MOL0     C53912   4.910  11.056   8.406  0.0445  0.3973 -0.1672
  409MOL0     C53913   4.958  10.938   8.350  0.2998  0.3651  0.3706
  409MOL0     O53914   5.071  10.936   8.269 -0.1321 -0.3261  0.6687
  409MOL0     C53915   5.128  11.053   8.209 -0.4179 -0.1642 -0.7910
  409MOL0     C53916   5.242  11.016   8.120 -0.3268  0.1326 -0.0579
  409MOL0     C53917   5.334  11.135   8.086  0.2909 -0.0982 -0.2984
  409MOL0     C53918   5.466  11.092   8.021  0.5811  0.1672 -0.3635
  409MOL0     C53919   5.450  11.039   7.885  0.1217  0.1556 -0.3941
  409MOL0     C53920   5.452  10.997   7.770  0.6274  0.0936 -0.8400
  409MOL0     C53921   4.900  10.817   8.379  0.8124  0.1047 -0.7124
  409MOL0     C53922   4.787  10.807   8.462  0.2016  0.3875  0.3337
  409MOL0     H53923   4.553  10.932   8.861 -0.8717 -0.5163  2.1179
  409MOL0     H53924   4.382  10.983   9.029 -1.6941 -0.0055 -0.7130
  409MOL0     H53925   4.326  11.293   9.087  0.1844  1.9246  2.0802
  409MOL0     H53926   4.278  11.155   9.189  0.3273 -1.4603 -0.9091
  409MOL0     H53927   4.082  11.365   9.099  1.1340  0.9540  0.1878
  409MOL0     H53928   4.188  11.389   9.231  0.5373  2.0849 -1.9927
  409MOL0     H53929   4.056  11.174   9.340 -1.9470  1.0332  1.4106
  409MOL0     H53930   3.964  11.161   9.190 -1.3331  0.0320  1.1148
  409MOL0     H53931   3.951  11.428   9.318 -2.8391  1.8961 -1.8031
  409MOL0     H53932   3.834  11.331   9.234  0.3510 -2.6273 -0.8552
  409MOL0     H53933   3.782  11.349   9.476  2.1479 -1.1767  3.4045
  409MOL0     H53934   3.923  11.252   9.504  1.8146 -0.8206 -1.6447
  409MOL0     H53935   3.830  11.061   9.411 -1.4263 -0.0955  1.5263
  409MOL0     H53936   3.711  11.141   9.307  2.5039  0.5844 -2.0037
  409MOL0     H53937   3.589  11.181   9.516 -0.1037  0.3999  3.2146
  409MOL0     H53938   3.633  11.011   9.498  0.0543 -0.0628 -1.4787
  409MOL0     H53939   3.737  11.221   9.707 -2.1958  0.4788 -0.8519
  409MOL0     H53940   3.831  11.084   9.674 -0.9691 -0.5868  1.6213
  409MOL0     H53941   3.445  11.123   9.721 -2.4338 -0.5607  1.0965
  409MOL0     H53942   3.296  10.837   9.775  0.6367 -1.1545  1.1593
  409MOL0     H53943   3.275  10.996   9.861  2.8589  2.0754  1.4072
  409MOL0     H53944   3.300  10.915  10.080 -0.6431 -0.2544  0.1949
  409MOL0     H53945   3.427  10.810  10.029  0.6798  3.9056  5.0122
  409MOL0     H53946   3.269  10.631   9.974  0.6110  0.0163 -1.0354
  409MOL0     H53947   3.223  10.710  10.121 -1.6017 -0.1649 -0.0607
  409MOL0     H53948   3.032  10.653   9.968  0.0190  0.6524 -1.5632
  409MOL0     H53949   3.092  10.760   9.848 -3.2570  1.5033 -0.0211
  409MOL0     H53950   2.848  10.716   9.900  1.1209  0.3675  0.8949
  409MOL0     H53951   2.624  10.799   9.820 -0.9939 -0.9687  0.9215
  409MOL0     H53952   2.360  11.188   9.734  2.1494 -1.6766  2.6390
  409MOL0     H53953   2.128  11.261   9.688  1.3324 -0.3143 -0.6165
  409MOL0     H53954   1.819  10.907   9.639  0.3996 -2.2537 -1.6784
  409MOL0     H53955   1.907  10.940   9.501  0.6463  0.8018 -1.2152
  409MOL0     H53956   1.660  11.100   9.598  2.4874  0.3603  1.2244
  409MOL0     H53957   1.651  10.962   9.483 -0.3428  0.1554 -0.8287
  409MOL0     H53958   1.752  11.087   9.304 -1.2778 -1.2602 -0.5688
  409MOL0     H53959   1.793  11.210   9.423  0.1816 -0.2982 -2.8543
  409MOL0     H53960   1.512  11.116   9.323 -1.7394  0.0039  2.4980
  409MOL0     H53961   1.519  11.212   9.457 -1.3406 -2.1510 -0.0133
  409MOL0     H53962   1.489  11.343   9.247  0.5671 -1.2344 -4.5403
  409MOL0     H53963   1.626  11.302   9.179 -2.4855  0.1624 -1.3843
  409MOL0     H53964   1.741  11.427   9.395  0.0080  1.8576  0.8850
  409MOL0     H53965   1.574  11.445   9.444  0.2198 -1.0031 -0.5820
  409MOL0     H53966   1.719  11.598   9.209 -0.2630 -0.7886 -0.4371
  409MOL0     H53967   1.547  11.580   9.216  0.8743 -3.5128 -1.0239
  409MOL0     H53968   1.651  11.790   9.316 -1.2571  0.6611 -0.2520
  409MOL0     H53969   1.713  11.689   9.452  0.4553  1.5501 -0.5047
  409MOL0     H53970   2.018  10.839   9.691 -1.9636  1.0355 -0.5001
  409MOL0     H53971   2.235  10.791   9.790 -1.1608 -0.4024 -0.8941
  409MOL0     H53972   2.684  11.159  10.061  1.1391  1.1621 -0.5520
  409MOL0     H53973   2.920  11.061  10.113  0.4264 -1.6030  0.4840
  409MOL0     H53974   4.186  11.244   8.751 -0.2044 -1.2131 -2.0099
  409MOL0     H53975   4.372  11.215   8.589  3.1590  2.9407  1.5108
  409MOL0     H53976   4.780  11.143   8.559  0.7801  0.0384  1.6173
  409MOL0     H53977   4.946  11.154   8.377  1.2915 -0.1123 -0.4071
  409MOL0     H53978   5.161  11.125   8.284 -1.1184  0.8386 -1.4152
  409MOL0     H53979   5.054  11.105   8.147 -2.3858 -1.2657  0.5124
  409MOL0     H53980   5.301  10.936   8.165 -0.8748  0.9766  2.3314
  409MOL0     H53981   5.201  10.977   8.027  0.7004  1.5943 -1.1729
  409MOL0     H53982   5.354  11.193   8.177 -1.9995 -0.5890  0.5938
  409MOL0     H53983   5.272  11.203   8.028 -2.4899 -1.2829  1.0827
  409MOL0     H53984   5.519  11.187   8.010 -2.5934  2.0881 -0.2715
  409MOL0     H53985   5.531  11.030   8.084  0.9010 -1.2300 -1.9882
  409MOL0     H53986   5.441  10.958   7.671  0.9848 -1.0983 -0.4211
  409MOL0     H53987   4.941  10.729   8.331  3.8499  0.5328  0.8390
  409MOL0     H53988   4.720  10.722   8.462 -0.1203  0.5695  2.7637
  410MOL0     O53989   6.573   9.748  10.949 -0.7216 -0.0081 -0.5669
  410MOL0     C53990   6.523   9.642  10.989 -0.0849 -0.5940 -0.0212
  410MOL0     O53991   6.585   9.558  11.068 -0.1937  0.6167  1.1917
  410MOL0     C53992   6.725   9.543  11.052  0.2506  1.0152  0.2201
  410MOL0     C53993   6.805   9.539  11.162 -0.5210  0.0044 -0.0859
  410MOL0     C53994   6.948   9.541  11.150 -0.8942  0.3840 -0.2720
  410MOL0     C53995   7.007   9.537  11.022  0.0384 -0.4318  0.0070
  410MOL0     O53996   7.141   9.532  10.984  0.6307 -0.0219  0.0661
  410MOL0     C53997   7.227   9.463  11.066 -0.3620  0.0706 -0.1817
  410MOL0     C53998   7.355   9.446  10.981 -0.6589  0.4158  0.0979
  410MOL0     C53999   7.445   9.352  11.051 -0.7009  1.1462  0.3194
  410MOL0     C54000   7.583   9.346  10.988 -0.5912 -0.7396 -0.6537
  410MOL0     C54001   7.664   9.218  11.017 -0.8136 -0.1613 -0.6664
  410MOL0     C54002   7.805   9.234  10.978 -0.2638  0.0776  0.3468
  410MOL0     C54003   7.887   9.105  11.021  0.4371  0.4371  0.3691
  410MOL0     C54004   8.024   9.099  10.953  0.2734  0.6330 -0.9460
  410MOL0     N54005   8.116   9.194  11.006  0.3542  0.5171  0.4286
  410MOL0     C54006   8.121   9.323  10.976  0.4802  1.0936 -0.3678
  410MOL0     C54007   8.225   9.374  11.050 -0.8606 -0.4152  0.1088
  410MOL0     C54008   8.292   9.512  11.060  0.4686  0.9414  0.1538
  410MOL0     C54009   8.434   9.518  11.009  0.2185 -1.0234 -0.0818
  410MOL0     C54010   8.546   9.483  11.108 -0.3240 -0.2107 -0.9728
  410MOL0     C54011   8.676   9.510  11.027  0.0596  0.1096 -0.1321
  410MOL0     O54012   8.692   9.643  10.984 -0.5271 -0.7743 -0.0943
  410MOL0     C54013   8.815   9.674  10.930 -0.1228  0.9554  0.5585
  410MOL0     C54014   8.915   9.577  10.899  0.1851  0.0689 -0.2886
  410MOL0     C54015   9.022   9.617  10.818 -0.1476 -0.7641 -0.7240
  410MOL0     C54016   9.048   9.752  10.782  0.1246 -0.9102 -1.0005
  410MOL0     C54017   9.182   9.789  10.718 -0.6727 -0.3377 -0.3492
  410MOL0     O54018   9.280   9.693  10.721  0.3446 -0.0744 -0.6823
  410MOL0     C54019   9.392   9.713  10.652  0.0532  0.1273  0.1055
  410MOL0     C54020   9.473   9.824  10.663  0.3797  0.3339  0.2039
  410MOL0     C54021   9.595   9.833  10.597  0.5982  0.3644 -0.5895
  410MOL0     C54022   9.644   9.719  10.530  0.1623  1.0463  0.2222
  410MOL0     O54023   9.763   9.718  10.472 -0.0855  0.2600  0.6650
  410MOL0     C54024   9.860   9.702  10.567  0.3754  0.3867 -0.4719
  410MOL0     C54025   9.997   9.710  10.518 -0.1375  0.0148  1.2111
  410MOL0     C54026  10.031   9.615  10.399 -0.2029 -0.3774 -0.2916
  410MOL0     C54027  10.183   9.630  10.359  0.4145 -0.4604 -0.8363
  410MOL0     C54028  10.208   9.532  10.246  0.1217 -0.0490  0.5481
  410MOL0     C54029  10.357   9.510  10.216  1.0708 -1.1312  0.1973
  410MOL0     C54030  10.432   9.635  10.183  1.2962  0.1213  0.3622
  410MOL0     C54031  10.574   9.609  10.151 -0.0179  0.0626 -0.5038
  410MOL0    Cl54032  10.651   9.759  10.093  0.1487  0.1261  0.2677
  410MOL0     C54033   9.577   9.598  10.531  0.2480  0.1138  0.5002
  410MOL0     C54034   9.443   9.601  10.583  0.2859  0.7785  0.7701
  410MOL0     O54035   9.199   9.905  10.675 -0.3184  0.4852  0.1802
  410MOL0     C54036   8.953   9.846  10.824  0.7653 -0.0226  0.2495
  410MOL0     C54037   8.833   9.805  10.890  0.5231 -0.4257 -0.3049
  410MOL0     N54038   8.280   9.269  11.133 -0.1683 -0.1135 -0.2546
  410MOL0     N54039   8.215   9.164  11.098 -0.7766 -0.8720 -0.0642
  410MOL0     C54040   6.924   9.542  10.912 -0.4460  0.1484  0.1662
  410MOL0     C54041   6.785   9.541  10.927 -0.6963  0.5133 -0.5767
  410MOL0     C54042   6.378   9.624  10.964 -0.0423 -0.9542 -0.1775
  410MOL0     C54043   6.311   9.503  10.999  0.5900 -0.6794 -0.4495
  410MOL0     C54044   6.172   9.499  10.980  0.1309  0.1238 -0.2083
  410MOL0     C54045   6.095   9.595  10.927  0.9965  0.3960  0.4963
  410MOL0     O54046   5.966   9.560  10.897  0.5817  0.6897 -0.1086
  410MOL0     C54047   5.885   9.663  10.826 -0.4170  0.3143  0.2482
  410MOL0     C54048   5.756   9.607  10.779 -0.3467 -0.0976 -0.6798
  410MOL0     C54049   5.677   9.553  10.899  0.1925 -0.2812 -0.2094
  410MOL0     C54050   5.526   9.561  10.873  0.3347 -0.2339 -0.3749
  410MOL0     C54051   5.475   9.695  10.881  0.0378  0.3384 -0.4045
  410MOL0     C54052   5.429   9.812  10.885  0.3781  0.2147  0.3905
  410MOL0     C54053   6.158   9.721  10.896  0.1274  0.6110  0.6758
  410MOL0     C54054   6.301   9.731  10.913  0.2205 -0.6196 -0.1212
  410MOL0     H54055   6.751   9.553  11.255 -1.1278 -0.5748 -0.3464
  410MOL0     H54056   7.011   9.549  11.238 -1.7752  0.9175  0.3193
  410MOL0     H54057   7.179   9.369  11.098 -0.9184  0.6608  0.7724
  410MOL0     H54058   7.247   9.528  11.152 -1.8917  0.6088 -0.1953
  410MOL0     H54059   7.393   9.548  10.966  0.1178 -0.1987 -2.8261
  410MOL0     H54060   7.315   9.406  10.888 -2.6733 -3.5262  2.4079
  410MOL0     H54061   7.411   9.248  11.046  1.5615  0.3395  0.3048
  410MOL0     H54062   7.457   9.366  11.158 -1.5240  2.2299  0.2837
  410MOL0     H54063   7.548   9.347  10.884 -2.3385  0.2532 -0.0958
  410MOL0     H54064   7.642   9.436  11.006 -2.1410 -0.2860  2.8678
  410MOL0     H54065   7.615   9.136  10.964 -0.4789 -1.2552  0.6595
  410MOL0     H54066   7.658   9.189  11.123  4.0862 -1.4798 -0.5027
  410MOL0     H54067   7.854   9.324  11.017  0.9607  0.3710 -1.7378
  410MOL0     H54068   7.805   9.246  10.870  1.0131  2.2203  0.5268
  410MOL0     H54069   7.885   9.082  11.128 -2.6546  0.3623  0.3785
  410MOL0     H54070   7.837   9.021  10.972 -0.0347  2.6298 -3.2440
  410MOL0     H54071   8.015   9.112  10.845  0.7155  1.2171 -0.9213
  410MOL0     H54072   8.076   9.003  10.954  0.8269  0.8650 -3.1022
  410MOL0     H54073   8.053   9.375  10.909  0.8588  2.5875  0.3623
  410MOL0     H54074   8.288   9.537  11.167  0.2950  0.4782  0.2581
  410MOL0     H54075   8.225   9.584  11.013  0.8761  1.8344  0.9104
  410MOL0     H54076   8.449   9.620  10.973  0.6270 -0.9917  0.1766
  410MOL0     H54077   8.440   9.455  10.920  1.2160 -1.5958  0.3706
  410MOL0     H54078   8.541   9.548  11.196 -1.9888 -2.3524  0.6391
  410MOL0     H54079   8.542   9.383  11.152  1.5050  0.5851  1.2138
  410MOL0     H54080   8.674   9.438  10.944  4.7480 -3.2918  2.2466
  410MOL0     H54081   8.761   9.476  11.086 -0.4312 -0.3181  0.3373
  410MOL0     H54082   8.912   9.471  10.924  2.2849  0.2021  0.7803
  410MOL0     H54083   9.090   9.538  10.788 -0.3319 -1.1487 -0.1519
  410MOL0     H54084   9.442   9.914  10.715  0.3027 -0.2522  1.1878
  410MOL0     H54085   9.647   9.927  10.608 -0.7426  1.0835 -0.0887
  410MOL0     H54086   9.843   9.603  10.609  0.6134  0.1926 -0.8306
  410MOL0     H54087   9.851   9.775  10.648 -0.0605  0.5026 -0.6189
  410MOL0     H54088  10.065   9.701  10.603  1.1141 -2.5023  0.0613
  410MOL0     H54089  10.012   9.813  10.484  1.3674 -0.0653  1.5376
  410MOL0     H54090   9.966   9.640  10.315 -1.8778 -1.2109  0.7097
  410MOL0     H54091  10.020   9.510  10.428  2.1710 -0.4008  0.7391
  410MOL0     H54092  10.191   9.732  10.318 -0.8035  0.2172  0.5487
  410MOL0     H54093  10.248   9.614  10.446  3.2886 -2.5724 -3.1615
  410MOL0     H54094  10.166   9.557  10.148 -1.8389 -6.0112 -0.5221
  410MOL0     H54095  10.159   9.435  10.261 -1.0393  0.4530  0.1744
  410MOL0     H54096  10.368   9.445  10.129  2.2668 -1.0478  0.2611
  410MOL0     H54097  10.400   9.453  10.299  1.7920 -2.0959 -0.8140
  410MOL0     H54098  10.384   9.658  10.087 -3.6408 -1.7353  2.0709
  410MOL0     H54099  10.432   9.714  10.258  1.3740 -0.8518  1.4092
  410MOL0     H54100  10.579   9.525  10.082  0.1999 -1.3207  1.1322
  410MOL0     H54101  10.625   9.584  10.244  1.3034 -1.1706 -1.5239
  410MOL0     H54102   9.611   9.515  10.470 -1.4866 -0.8478  0.7843
  410MOL0     H54103   9.370   9.523  10.561 -0.2795  1.2043  1.1153
  410MOL0     H54104   8.965   9.949  10.790 -4.1691  0.6819 -0.0453
  410MOL0     H54105   8.745   9.867  10.901  2.0831  1.8913 -0.1275
  410MOL0     H54106   6.963   9.553  10.812  0.2667  0.6353  0.4836
  410MOL0     H54107   6.721   9.542  10.839 -1.3946  0.4803 -0.0787
  410MOL0     H54108   6.361   9.422  11.051 -1.6813 -1.4413  0.7135
  410MOL0     H54109   6.116   9.407  10.998  0.3878 -0.9254 -3.8945
  410MOL0     H54110   5.932   9.708  10.738  0.1981 -1.6878 -0.5079
  410MOL0     H54111   5.874   9.750  10.891 -1.1514 -1.6087  2.8587
  410MOL0     H54112   5.696   9.684  10.731 -0.3431  1.2324  1.3233
  410MOL0     H54113   5.766   9.518  10.716  0.8397 -1.6164  1.4988
  410MOL0     H54114   5.713   9.593  10.994  2.4651 -1.0902 -0.6723
  410MOL0     H54115   5.711   9.450  10.916 -0.0313  0.0884  3.0926
  410MOL0     H54116   5.486   9.510  10.785 -2.1307  0.3681  0.3436
  410MOL0     H54117   5.474   9.516  10.958 -3.2473  0.7467 -1.8901
  410MOL0     H54118   5.388   9.910  10.897  1.2773  0.4566  1.6208
  410MOL0     H54119   6.117   9.798  10.831  1.9842 -0.7267 -2.2995
  410MOL0     H54120   6.347   9.826  10.888 -1.6614  0.9163  1.8715
  411MOL0     O54121   1.223   4.616   4.666  0.3690 -0.2808 -0.0322
  411MOL0     C54122   1.298   4.591   4.570 -0.9433 -0.1090 -0.0504
  411MOL0     O54123   1.279   4.489   4.482  0.2645  0.0227  0.1583
  411MOL0     C54124   1.168   4.409   4.499 -0.1933 -0.0807 -0.2775
  411MOL0     C54125   1.037   4.470   4.501 -0.8277  0.5119 -0.2170
  411MOL0     C54126   0.932   4.393   4.547  0.1207  0.2650  0.1747
  411MOL0     C54127   0.946   4.250   4.582 -0.5243 -0.3952  0.3311
  411MOL0     O54128   0.851   4.178   4.641  0.5580  0.3140 -0.3900
  411MOL0     C54129   0.721   4.237   4.660 -0.3935  1.1320  0.5193
  411MOL0     C54130   0.624   4.135   4.725 -1.5370  0.5589 -0.3644
  411MOL0     C54131   0.475   4.155   4.690 -0.7039  0.3534 -0.1523
  411MOL0     C54132   0.397   4.027   4.718 -0.2915 -0.8499 -0.4361
  411MOL0     C54133   0.250   4.075   4.722 -0.2048  0.0970  0.9705
  411MOL0     C54134   0.144   3.966   4.730  0.2181  0.3056  0.8466
  411MOL0     C54135   0.010   4.016   4.794 -0.3210 -0.8150  1.2467
  411MOL0     C54136  -0.074   3.889   4.812  0.5512  1.3276 -0.4634
  411MOL0     N54137  -0.201   3.923   4.879  0.6972 -0.1050 -0.0393
  411MOL0     C54138  -0.322   3.866   4.857  1.2247  0.6706  0.2968
  411MOL0     C54139  -0.394   3.915   4.961  0.8725 -0.1520  0.8824
  411MOL0     C54140  -0.538   3.887   4.999  1.2233 -0.4204  0.4650
  411MOL0     C54141  -0.620   3.896   4.864  0.6715  0.5398 -1.2054
  411MOL0     C54142  -0.759   3.848   4.898 -0.0051 -0.2380  0.4940
  411MOL0     C54143  -0.855   3.865   4.773 -0.3724 -0.1829  0.1225
  411MOL0     O54144  -0.957   3.963   4.811  0.7529  0.7062 -0.4619
  411MOL0     C54145  -1.076   3.946   4.872  0.2841  0.4324 -0.1070
  411MOL0     C54146  -1.137   3.821   4.880 -0.1190 -0.2734 -0.2386
  411MOL0     C54147  -1.261   3.809   4.949 -0.4644  0.0004  0.3609
  411MOL0     C54148  -1.339   3.920   5.008 -0.7788  0.2821  0.5937
  411MOL0     C54149  -1.474   3.905   5.069  0.3572  0.1909  0.9394
  411MOL0     O54150  -1.545   4.024   5.084 -0.3851 -0.7242  0.3821
  411MOL0     C54151  -1.667   4.026   5.135 -0.2396  0.2350  0.5416
  411MOL0     C54152  -1.693   4.113   5.243  0.1316 -1.1822  0.0250
  411MOL0     C54153  -1.816   4.127   5.305  0.5312  0.4045  0.2837
  411MOL0     C54154  -1.920   4.046   5.255  1.2156 -0.2380 -0.3916
  411MOL0     O54155  -2.047   4.061   5.300  0.0488 -0.0825  0.1551
  411MOL0     C54156  -2.062   4.108   5.434  0.8572  0.3767 -0.9973
  411MOL0     C54157  -1.986   4.021   5.538 -0.0848  0.8792 -0.0912
  411MOL0     C54158  -2.010   3.863   5.521 -0.2245  0.0199 -0.3724
  411MOL0     C54159  -1.945   3.784   5.633  0.0844  0.4994  0.1496
  411MOL0     C54160  -1.936   3.622   5.607  1.2309 -0.2597 -0.8807
  411MOL0     C54161  -1.844   3.577   5.491 -0.0236 -0.4697  0.6092
  411MOL0     C54162  -1.703   3.632   5.508  0.5190  0.7191 -0.6054
  411MOL0     C54163  -1.609   3.584   5.400 -0.1586 -0.6443 -0.1418
  411MOL0    Cl54164  -1.620   3.408   5.387  0.3574 -0.0217  0.1318
  411MOL0     C54165  -1.897   3.979   5.134  0.1570  0.1899 -0.1950
  411MOL0     C54166  -1.777   3.955   5.079 -0.6039 -0.4073 -0.1651
  411MOL0     O54167  -1.523   3.789   5.083  0.1818  0.3955 -0.1287
  411MOL0     C54168  -1.271   4.051   4.993 -0.5366 -0.2347  1.1085
  411MOL0     C54169  -1.141   4.057   4.934  0.6929 -0.0137 -0.2886
  411MOL0     N54170  -0.323   4.007   5.027 -0.0825  1.0050  0.1039
  411MOL0     N54171  -0.213   4.010   4.984 -0.6295 -0.0796 -0.2518
  411MOL0     C54172   1.076   4.203   4.571 -0.3493  0.4916 -0.3237
  411MOL0     C54173   1.187   4.283   4.534  0.2756  0.8862  0.7217
  411MOL0     C54174   1.406   4.685   4.547  0.0422  0.3332  0.2339
  411MOL0     C54175   1.409   4.818   4.600  0.0243 -1.1044 -0.4743
  411MOL0     C54176   1.496   4.912   4.556 -0.2049  0.2547  0.5284
  411MOL0     C54177   1.607   4.879   4.478  0.0409 -0.2656  0.4012
  411MOL0     O54178   1.700   4.980   4.452 -0.0358  0.0932 -0.1808
  411MOL0     C54179   1.833   4.940   4.414 -0.4014 -1.1085 -0.0192
  411MOL0     C54180   1.937   5.052   4.424 -0.1638 -0.4500 -0.3617
  411MOL0     C54181   1.951   5.163   4.317 -0.3189 -0.8010  0.4055
  411MOL0     C54182   2.068   5.256   4.345  0.2151  0.4098 -0.1187
  411MOL0     C54183   2.034   5.349   4.450 -0.7185  0.7021 -0.1612
  411MOL0     C54184   2.010   5.434   4.536  0.5225 -1.2151  0.1530
  411MOL0     C54185   1.623   4.747   4.432 -0.0349  0.3002  0.4400
  411MOL0     C54186   1.513   4.655   4.462  0.7624 -0.2189  0.3376
  411MOL0     H54187   1.036   4.578   4.489  0.4923  0.7134  1.1100
  411MOL0     H54188   0.847   4.455   4.574 -0.5500 -0.3910 -0.3795
  411MOL0     H54189   0.674   4.274   4.568 -4.0051 -1.3716  1.1326
  411MOL0     H54190   0.728   4.321   4.730 -1.3761 -0.8671  3.2081
  411MOL0     H54191   0.632   4.153   4.832  3.2431 -1.1102 -0.2019
  411MOL0     H54192   0.653   4.033   4.699 -1.2945  0.5956 -0.2430
  411MOL0     H54193   0.479   4.180   4.584  0.9931 -2.6615 -0.9355
  411MOL0     H54194   0.451   4.238   4.756  3.9563  2.5143 -0.7494
  411MOL0     H54195   0.409   3.955   4.637 -0.9390 -0.1616 -1.1579
  411MOL0     H54196   0.422   3.989   4.817 -1.0525  1.5802  0.7758
  411MOL0     H54197   0.228   4.145   4.641 -1.0229 -1.1358  0.0713
  411MOL0     H54198   0.245   4.125   4.819 -1.4639  0.9083  0.5097
  411MOL0     H54199   0.184   3.884   4.790  2.2062  0.7309  0.1707
  411MOL0     H54200   0.125   3.929   4.629  2.4591 -1.7226  1.0877
  411MOL0     H54201   0.045   4.063   4.886 -1.5257  0.5487  1.0374
  411MOL0     H54202  -0.042   4.091   4.734 -0.1490 -1.5060  0.2123
  411MOL0     H54203  -0.023   3.812   4.871  0.6323  0.9864 -0.9685
  411MOL0     H54204  -0.113   3.837   4.724  0.9040  0.2690 -0.0124
  411MOL0     H54205  -0.362   3.793   4.787 -2.1918 -0.6137  3.2769
  411MOL0     H54206  -0.567   3.960   5.075 -0.2732  0.6601 -1.0565
  411MOL0     H54207  -0.540   3.789   5.047 -1.8282 -0.7720 -0.1626
  411MOL0     H54208  -0.584   3.843   4.775  1.9919  2.4266 -1.8454
  411MOL0     H54209  -0.643   4.000   4.841 -2.3585  0.3520  0.3935
  411MOL0     H54210  -0.747   3.743   4.926 -1.6789 -0.3789  0.7797
  411MOL0     H54211  -0.807   3.900   4.982 -0.9796 -1.3772  0.6692
  411MOL0     H54212  -0.894   3.766   4.747  4.4558 -2.2308 -0.2339
  411MOL0     H54213  -0.808   3.898   4.681 -3.1569 -0.1931 -1.4236
  411MOL0     H54214  -1.087   3.731   4.844  2.6959 -0.2020  2.9075
  411MOL0     H54215  -1.309   3.712   4.955  0.3353 -0.5971 -2.0683
  411MOL0     H54216  -1.606   4.168   5.277  1.1158 -2.9649  0.5875
  411MOL0     H54217  -1.835   4.190   5.392 -3.0030  0.3597 -0.2742
  411MOL0     H54218  -2.168   4.104   5.461  0.9359 -0.1135 -0.7376
  411MOL0     H54219  -2.035   4.212   5.449 -2.1649  0.7446  4.3256
  411MOL0     H54220  -2.027   4.040   5.638 -0.9389  0.4103 -0.3423
  411MOL0     H54221  -1.880   4.044   5.545  1.5803 -5.2398  1.3578
  411MOL0     H54222  -1.964   3.849   5.422 -0.3949  4.9240 -1.3832
  411MOL0     H54223  -2.112   3.825   5.524  0.6500 -2.6619 -1.0074
  411MOL0     H54224  -1.845   3.827   5.645  1.4564 -3.0075  2.9820
  411MOL0     H54225  -1.993   3.812   5.727 -0.8299  2.1241 -0.7450
  411MOL0     H54226  -2.031   3.569   5.613  2.1478 -1.8148  2.3546
  411MOL0     H54227  -1.892   3.586   5.701 -1.4672  0.0611  0.6052
  411MOL0     H54228  -1.879   3.603   5.391  0.7478  0.0699  0.4668
  411MOL0     H54229  -1.841   3.469   5.507 -0.5477 -0.4592  0.7950
  411MOL0     H54230  -1.698   3.741   5.500  1.2584  0.7685  0.2828
  411MOL0     H54231  -1.664   3.593   5.603 -0.8267  2.5913  0.7929
  411MOL0     H54232  -1.508   3.610   5.432 -0.5122 -0.1290  0.5650
  411MOL0     H54233  -1.636   3.637   5.308 -0.5783  2.2524  1.5365
  411MOL0     H54234  -1.974   3.918   5.088  1.0866 -3.3326  2.4369
  411MOL0     H54235  -1.760   3.886   4.997  1.7298 -0.6401  0.4373
  411MOL0     H54236  -1.310   4.146   5.028 -1.2337  0.3149 -1.0210
  411MOL0     H54237  -1.095   4.155   4.933 -0.3938  0.5150 -1.1443
  411MOL0     H54238   1.105   4.104   4.606 -1.6848 -0.3493 -1.4491
  411MOL0     H54239   1.291   4.253   4.534  0.1644  0.3134 -1.4048
  411MOL0     H54240   1.325   4.844   4.663  0.5242 -0.1205 -0.2108
  411MOL0     H54241   1.476   5.010   4.598 -0.9339 -0.0371  0.8752
  411MOL0     H54242   1.828   4.902   4.311  0.5590 -1.5374  0.0869
  411MOL0     H54243   1.866   4.857   4.478 -0.3873  1.9951  4.4281
  411MOL0     H54244   1.920   5.113   4.512 -0.2875 -1.3882  0.2849
  411MOL0     H54245   2.036   5.007   4.439  0.6713  1.8667  1.5242
  411MOL0     H54246   1.866   5.231   4.303  0.9377  0.3298 -2.8461
  411MOL0     H54247   1.968   5.111   4.222 -0.4578 -0.6888  0.3192
  411MOL0     H54248   2.156   5.196   4.368  2.5366  3.1097 -1.3931
  411MOL0     H54249   2.098   5.309   4.254 -1.4451  2.1940  0.3097
  411MOL0     H54250   1.987   5.520   4.595  2.2620  2.7226 -4.2882
  411MOL0     H54251   1.707   4.721   4.367  1.2822 -0.5421  2.3924
  411MOL0     H54252   1.520   4.556   4.419 -0.0233  1.2639 -3.5990
  412MOL0     O54253   3.115   1.265   4.703 -0.6320 -0.1886  0.2854
  412MOL0     C54254   3.197   1.303   4.781  0.6805 -0.7486  0.3562
  412MOL0     O54255   3.181   1.419   4.858 -0.9081  0.8649  0.2595
  412MOL0     C54256   3.069   1.493   4.865  0.3813 -0.4763 -0.0193
  412MOL0     C54257   2.972   1.517   4.761 -0.1785 -0.1523 -0.9090
  412MOL0     C54258   2.872   1.611   4.779 -0.3418 -1.1838  0.2404
  412MOL0     C54259   2.877   1.705   4.885  0.1643  0.3724  0.2908
  412MOL0     O54260   2.793   1.814   4.895 -0.2065 -0.3095 -0.2583
  412MOL0     C54261   2.829   1.933   4.831  0.2626 -0.1798  0.2906
  412MOL0     C54262   2.809   2.052   4.920 -0.4467 -0.9663  0.1222
  412MOL0     C54263   2.672   2.042   4.989 -0.3770  0.7533  0.1157
  412MOL0     C54264   2.629   2.172   5.060 -0.6245  0.0387 -0.1773
  412MOL0     C54265   2.488   2.179   5.123  0.1928 -0.1309 -0.4973
  412MOL0     C54266   2.475   2.308   5.209 -0.6564 -1.0463  0.0199
  412MOL0     C54267   2.346   2.305   5.292 -0.1416  0.2771  0.5690
  412MOL0     C54268   2.229   2.327   5.190 -0.2251 -0.7087 -0.2764
  412MOL0     N54269   2.103   2.265   5.255 -0.3379  0.6369  0.3640
  412MOL0     C54270   2.051   2.163   5.198 -0.3277  1.1874 -0.4219
  412MOL0     C54271   1.929   2.146   5.261 -0.5110  0.0581  0.2864
  412MOL0     C54272   1.832   2.041   5.234  0.5291  0.0273 -0.0264
  412MOL0     C54273   1.759   2.073   5.102 -0.5807 -1.2505  0.5964
  412MOL0     C54274   1.680   2.205   5.097  0.1032  0.6119  0.3058
  412MOL0     C54275   1.575   2.204   5.206 -0.3044 -0.5208  0.1638
  412MOL0     O54276   1.456   2.267   5.169  0.2505  0.8392  0.0774
  412MOL0     C54277   1.347   2.252   5.250  0.5259  0.0519 -0.0361
  412MOL0     C54278   1.233   2.193   5.193 -0.7059  0.2394  0.6677
  412MOL0     C54279   1.107   2.187   5.253 -0.7296  0.5083  0.4113
  412MOL0     C54280   1.107   2.247   5.384 -0.1166  0.5819 -0.1263
  412MOL0     C54281   0.980   2.248   5.465 -0.7327  1.1594  0.2125
  412MOL0     O54282   0.866   2.236   5.390 -0.0880 -0.7841  0.4548
  412MOL0     C54283   0.742   2.233   5.445  0.5290 -0.0575 -0.0451
  412MOL0     C54284   0.652   2.123   5.416 -0.6458  0.3842 -0.0085
  412MOL0     C54285   0.527   2.119   5.477  0.7870  0.1064  0.1507
  412MOL0     C54286   0.489   2.212   5.575  0.2580 -0.6166  1.4578
  412MOL0     O54287   0.386   2.204   5.657 -0.2994  0.1850 -0.5905
  412MOL0     C54288   0.305   2.094   5.656  0.1922 -0.5540  0.2465
  412MOL0     C54289   0.177   2.124   5.728 -0.4677  0.6554  0.1543
  412MOL0     C54290   0.069   2.015   5.750  0.1290  0.1096  0.0969
  412MOL0     C54291  -0.044   2.049   5.845  0.7178  0.3167 -0.2386
  412MOL0     C54292  -0.149   1.935   5.859 -0.4212  0.7943 -0.0534
  412MOL0     C54293  -0.272   1.993   5.931 -0.7940  0.7089  0.0941
  412MOL0     C54294  -0.338   1.886   6.014  0.4906 -0.5564 -0.5752
  412MOL0     C54295  -0.475   1.933   6.071 -0.2177  0.0688  0.8180
  412MOL0    Cl54296  -0.592   1.903   5.940 -0.4179  0.1595 -0.7229
  412MOL0     C54297   0.581   2.307   5.606  0.4191  0.3259 -0.0625
  412MOL0     C54298   0.703   2.321   5.542  1.0387  0.1656 -0.5827
  412MOL0     O54299   0.993   2.263   5.586 -0.4735 -0.4616 -0.2496
  412MOL0     C54300   1.220   2.309   5.439  0.8296  0.4424 -0.6018
  412MOL0     C54301   1.335   2.313   5.370 -0.2163  0.1736  0.5216
  412MOL0     N54302   1.910   2.253   5.349  0.6093 -0.1681 -0.3647
  412MOL0     N54303   2.008   2.332   5.330  0.1074  0.4606  0.2451
  412MOL0     C54304   2.962   1.678   4.995 -0.0012  0.5362 -0.2247
  412MOL0     C54305   3.061   1.575   4.983  0.2661  0.1320  0.6541
  412MOL0     C54306   3.322   1.236   4.803 -0.7681  0.0091  0.5347
  412MOL0     C54307   3.427   1.312   4.866  0.9628 -0.1231  0.7413
  412MOL0     C54308   3.554   1.262   4.887  0.2759 -0.0497 -1.0893
  412MOL0     C54309   3.585   1.135   4.835  1.0761 -1.0144 -0.6686
  412MOL0     O54310   3.714   1.082   4.858  0.6514  0.2221 -0.3543
  412MOL0     C54311   3.829   1.150   4.813 -0.4817  0.2755  0.3765
  412MOL0     C54312   3.847   1.130   4.670 -0.2671  0.0455 -0.0536
  412MOL0     C54313   3.896   0.990   4.625 -0.7034 -0.3559  0.0409
  412MOL0     C54314   3.922   0.983   4.476 -0.3694  0.9576  0.4543
  412MOL0     C54315   3.800   0.995   4.399 -0.8853 -0.9229  0.1336
  412MOL0     C54316   3.696   1.013   4.334 -0.6275  0.2709 -0.4116
  412MOL0     C54317   3.488   1.054   4.776  0.6217 -0.2820 -0.7968
  412MOL0     C54318   3.354   1.099   4.756  0.2047 -0.3679 -0.0565
  412MOL0     H54319   2.973   1.463   4.667  1.4774  2.0490 -2.2718
  412MOL0     H54320   2.795   1.628   4.704 -3.5435  0.5758  3.6340
  412MOL0     H54321   2.759   1.929   4.746  3.0784 -0.4522 -2.2016
  412MOL0     H54322   2.930   1.938   4.789  0.6937  3.0961  1.3913
  412MOL0     H54323   2.802   2.140   4.856 -0.9599 -1.4206 -0.4557
  412MOL0     H54324   2.889   2.061   4.994 -1.9158  0.8337  1.5790
  412MOL0     H54325   2.664   1.971   5.072 -1.6127  1.8561  0.9872
  412MOL0     H54326   2.596   2.023   4.913  0.7855 -4.3244 -0.1341
  412MOL0     H54327   2.712   2.205   5.124 -1.5077  2.2495 -0.0940
  412MOL0     H54328   2.627   2.247   4.980  2.7443  0.1254 -0.3336
  412MOL0     H54329   2.480   2.087   5.181 -2.1190 -0.2581 -0.9513
  412MOL0     H54330   2.415   2.200   5.045 -1.4286  5.4192  2.0149
  412MOL0     H54331   2.470   2.390   5.137 -0.8830 -0.2004  0.9733
  412MOL0     H54332   2.564   2.324   5.272 -0.6867  1.4435 -0.4801
  412MOL0     H54333   2.343   2.211   5.349  1.8705 -1.1324 -1.4952
  412MOL0     H54334   2.342   2.396   5.352  1.8589  1.9664 -1.6753
  412MOL0     H54335   2.241   2.278   5.093  1.9024  1.8600 -1.3976
  412MOL0     H54336   2.210   2.434   5.178  0.0394 -0.2867  2.4436
  412MOL0     H54337   2.085   2.093   5.122  0.4449 -0.0970  1.0566
  412MOL0     H54338   1.767   2.025   5.320  0.8824  0.5543  0.3476
  412MOL0     H54339   1.893   1.951   5.223  1.1033  0.2298  1.2505
  412MOL0     H54340   1.695   1.995   5.060 -2.3222 -0.1168  0.9922
  412MOL0     H54341   1.842   2.094   5.035 -1.8473 -1.6727 -1.1637
  412MOL0     H54342   1.751   2.285   5.120 -0.7955  2.9574 -3.9400
  412MOL0     H54343   1.639   2.227   4.998  0.7897  1.4551  0.1968
  412MOL0     H54344   1.618   2.241   5.299 -1.8266  0.2968  0.5879
  412MOL0     H54345   1.545   2.100   5.223  2.3832 -1.1535  1.5453
  412MOL0     H54346   1.251   2.162   5.091 -1.9512 -0.1697  0.5581
  412MOL0     H54347   1.022   2.138   5.207  0.9037  0.2066 -2.5039
  412MOL0     H54348   0.684   2.062   5.333  1.6163 -0.4436  1.3735
  412MOL0     H54349   0.472   2.028   5.454  1.4140 -0.2169 -0.0862
  412MOL0     H54350   0.355   2.020   5.719  0.3939  1.5923  2.7635
  412MOL0     H54351   0.285   2.056   5.555  0.3244 -4.0693  1.4289
  412MOL0     H54352   0.130   2.216   5.691 -4.1615 -0.8515  0.6522
  412MOL0     H54353   0.218   2.148   5.826  1.3410 -2.3582  0.2621
  412MOL0     H54354   0.113   1.920   5.783 -1.3942  0.3208  3.0551
  412MOL0     H54355   0.018   1.990   5.657  0.1295 -2.3012  0.6693
  412MOL0     H54356  -0.007   2.066   5.947 -2.8906 -2.1104  1.6995
  412MOL0     H54357  -0.098   2.141   5.823 -0.4260 -0.4819 -0.9299
  412MOL0     H54358  -0.102   1.858   5.922  2.1900  1.2985 -1.2733
  412MOL0     H54359  -0.192   1.890   5.769 -0.8749 -0.7049  0.8716
  412MOL0     H54360  -0.342   2.025   5.854  0.3188  0.7399 -0.9375
  412MOL0     H54361  -0.242   2.077   5.993 -0.1185 -1.2364  2.5803
  412MOL0     H54362  -0.351   1.789   5.966 -0.9751 -1.6540  1.8663
  412MOL0     H54363  -0.265   1.876   6.095  2.6434 -0.2641 -2.3595
  412MOL0     H54364  -0.471   2.036   6.107  1.0810 -0.7464  3.2460
  412MOL0     H54365  -0.494   1.874   6.161  1.5291  0.5957  1.5629
  412MOL0     H54366   0.555   2.378   5.684 -0.2740 -0.1018  0.1039
  412MOL0     H54367   0.777   2.397   5.567  1.6340 -0.5907 -0.0194
  412MOL0     H54368   1.209   2.361   5.534 -1.3451  0.6137 -0.8932
  412MOL0     H54369   1.420   2.361   5.419 -1.3940  2.4880  0.4382
  412MOL0     H54370   2.959   1.752   5.075  1.8638  1.5137 -0.9838
  412MOL0     H54371   3.132   1.550   5.062 -0.4063 -2.0941  0.6072
  412MOL0     H54372   3.399   1.411   4.899  1.9700  0.6850 -0.7174
  412MOL0     H54373   3.633   1.322   4.930  0.4476 -0.8270 -0.2728
  412MOL0     H54374   3.916   1.111   4.866  0.5951 -0.6009 -1.9384
  412MOL0     H54375   3.816   1.255   4.840 -1.7237  0.2644 -0.1070
  412MOL0     H54376   3.755   1.158   4.619 -0.1997 -2.7527 -1.9848
  412MOL0     H54377   3.911   1.206   4.625 -0.8257  0.9565  0.6708
  412MOL0     H54378   3.823   0.911   4.645  0.0545 -1.9530 -2.8722
  412MOL0     H54379   3.981   0.948   4.680 -0.8730  0.0589  0.6260
  412MOL0     H54380   3.992   1.065   4.459 -0.2426  1.0539  1.3685
  412MOL0     H54381   3.966   0.887   4.450  0.6546  1.3670  0.6305
  412MOL0     H54382   3.608   1.024   4.274 -1.1917  0.9182  0.5046
  412MOL0     H54383   3.518   0.953   4.750  2.1872 -0.6042  1.8064
  412MOL0     H54384   3.268   1.038   4.732 -1.3291 -1.5244  6.4339
  413MOL0     O54385   9.068   1.288   2.080 -0.2621 -0.0635  1.2457
  413MOL0     C54386   9.110   1.328   1.969 -1.3439  0.0978 -0.2022
  413MOL0     O54387   9.038   1.402   1.876 -0.0484 -0.0651  0.7590
  413MOL0     C54388   8.909   1.403   1.890 -0.0311  0.3435 -0.1135
  413MOL0     C54389   8.855   1.482   1.987 -0.5234  0.6935  0.5430
  413MOL0     C54390   8.720   1.481   2.013 -1.0005  0.0707  0.2391
  413MOL0     C54391   8.632   1.395   1.953  1.1830  0.0273  0.9600
  413MOL0     O54392   8.494   1.380   1.980  0.1519 -0.4786 -0.5275
  413MOL0     C54393   8.436   1.470   2.070 -0.6130 -0.5343 -0.5754
  413MOL0     C54394   8.291   1.477   2.034 -0.3868  0.8111 -0.6101
  413MOL0     C54395   8.260   1.536   1.890  0.7368  0.0875 -0.3039
  413MOL0     C54396   8.112   1.585   1.869 -0.2181  0.3078  0.2610
  413MOL0     C54397   8.023   1.465   1.897  0.0144 -0.9128 -0.3364
  413MOL0     C54398   7.868   1.485   1.866  0.0990  0.2151  0.3090
  413MOL0     C54399   7.839   1.490   1.716  0.8697 -1.3063  0.0222
  413MOL0     C54400   7.686   1.489   1.687 -0.0865  0.1895  0.7554
  413MOL0     N54401   7.618   1.605   1.720 -0.3770  0.3017  0.8308
  413MOL0     C54402   7.512   1.615   1.804 -0.9764  0.4053  0.4334
  413MOL0     C54403   7.469   1.748   1.791 -1.1260  0.1582  0.1045
  413MOL0     C54404   7.366   1.814   1.878 -0.2803 -0.3058  0.0438
  413MOL0     C54405   7.256   1.887   1.815  0.3376  0.3441  0.6418
  413MOL0     C54406   7.174   1.794   1.731 -0.4926  1.0567  0.4494
  413MOL0     C54407   7.035   1.848   1.709 -0.1627 -0.0143 -0.3388
  413MOL0     O54408   6.975   1.919   1.828 -0.8085  0.5042 -1.0737
  413MOL0     C54409   6.845   1.967   1.829 -0.3538  0.7633 -0.0188
  413MOL0     C54410   6.800   2.013   1.947  0.5812 -0.1292  0.6821
  413MOL0     C54411   6.663   2.059   1.953  0.7185  0.1769  0.0063
  413MOL0     C54412   6.570   2.047   1.845  0.0926 -0.1265 -0.3055
  413MOL0     C54413   6.435   2.107   1.855 -0.0937 -0.2125 -0.7986
  413MOL0     O54414   6.361   2.121   1.749 -0.2637 -0.6433  0.1816
  413MOL0     C54415   6.232   2.164   1.759 -0.2973  0.2269  1.2269
  413MOL0     C54416   6.195   2.291   1.714 -0.5822 -0.3865  0.9249
  413MOL0     C54417   6.057   2.320   1.708 -0.1883 -0.9672  0.1918
  413MOL0     C54418   5.963   2.237   1.767  0.2731 -0.5278 -1.0760
  413MOL0     O54419   5.834   2.268   1.755  0.2259 -0.2632 -0.6524
  413MOL0     C54420   5.755   2.242   1.869  0.5413 -0.7009  0.4957
  413MOL0     C54421   5.644   2.336   1.883  1.2344 -0.7139 -0.0977
  413MOL0     C54422   5.529   2.314   1.776  0.6742 -0.9305 -0.1109
  413MOL0     C54423   5.410   2.410   1.816 -1.0176  0.1638  0.4795
  413MOL0     C54424   5.314   2.414   1.698  0.3069 -0.2471  0.0924
  413MOL0     C54425   5.210   2.524   1.709 -0.1323  1.7153  0.1569
  413MOL0     C54426   5.111   2.512   1.597  0.4336 -1.0006  0.3822
  413MOL0     C54427   4.978   2.578   1.636  0.8002  0.2826  0.3283
  413MOL0    Cl54428   5.001   2.747   1.667 -0.1856 -0.1600 -0.0676
  413MOL0     C54429   6.002   2.116   1.821 -0.7541 -0.7157 -0.1828
  413MOL0     C54430   6.137   2.077   1.819 -0.2557  0.0357  0.6054
  413MOL0     O54431   6.393   2.112   1.969  0.1173 -0.3637  0.2814
  413MOL0     C54432   6.632   2.005   1.726  0.2698  0.4927 -0.0659
  413MOL0     C54433   6.763   1.968   1.713  0.3070  0.7881  0.4757
  413MOL0     N54434   7.564   1.817   1.714  0.1642  0.8561 -0.8168
  413MOL0     N54435   7.653   1.730   1.683 -0.1164 -0.8754  1.1306
  413MOL0     C54436   8.686   1.319   1.858  0.3910  0.9934  0.5648
  413MOL0     C54437   8.822   1.312   1.826  0.3471  0.6771 -0.2636
  413MOL0     C54438   9.260   1.321   1.949 -0.1134 -0.6906  0.9137
  413MOL0     C54439   9.298   1.352   1.820  0.2060  0.2936 -0.3992
  413MOL0     C54440   9.425   1.382   1.787  0.6021  0.4529  0.0155
  413MOL0     C54441   9.531   1.372   1.883  0.4797 -0.6558  0.3490
  413MOL0     O54442   9.661   1.404   1.841 -0.3207  0.4056  0.5053
  413MOL0     C54443   9.763   1.409   1.939  0.0378 -0.2716 -0.1044
  413MOL0     C54444   9.891   1.446   1.862  0.0008  0.0287 -0.4750
  413MOL0     C54445  10.013   1.447   1.957  0.3344 -0.0825  0.2541
  413MOL0     C54446  10.145   1.437   1.875 -0.2391 -0.3832 -0.2597
  413MOL0     C54447  10.209   1.313   1.896 -0.4128  0.6577  0.1252
  413MOL0     C54448  10.278   1.210   1.926  0.4099 -0.6400  0.0250
  413MOL0     C54449   9.493   1.333   2.014 -0.3463  0.0715  0.5934
  413MOL0     C54450   9.360   1.303   2.043 -0.1335  0.8122 -1.0199
  413MOL0     H54451   8.925   1.537   2.049  0.9677 -1.9948  1.3779
  413MOL0     H54452   8.692   1.548   2.093  1.2918  1.8940 -0.3604
  413MOL0     H54453   8.485   1.568   2.070  1.8706 -1.6944  0.2289
  413MOL0     H54454   8.455   1.439   2.174  0.3455  1.2241 -0.1905
  413MOL0     H54455   8.245   1.548   2.103 -1.1463  0.0522 -0.3286
  413MOL0     H54456   8.248   1.377   2.045  1.0738 -0.1493 -2.7784
  413MOL0     H54457   8.283   1.468   1.808 -0.5011 -1.2259  0.3885
  413MOL0     H54458   8.323   1.625   1.879 -2.9526  3.1886  1.0847
  413MOL0     H54459   8.092   1.673   1.930 -1.3039  1.3890 -1.5806
  413MOL0     H54460   8.097   1.611   1.764  1.7325  1.7917  0.2928
  413MOL0     H54461   8.025   1.437   2.003  3.4559  2.6322  0.7637
  413MOL0     H54462   8.061   1.375   1.849  0.7342 -2.2368  2.4648
  413MOL0     H54463   7.833   1.577   1.913 -0.3833  0.3838 -0.3714
  413MOL0     H54464   7.816   1.396   1.903  1.3592 -0.7092 -0.0487
  413MOL0     H54465   7.894   1.573   1.671  3.5196 -2.7452  0.3942
  413MOL0     H54466   7.889   1.402   1.673  0.2042 -1.1842 -1.0534
  413MOL0     H54467   7.645   1.400   1.737 -1.0418 -0.1843 -0.6267
  413MOL0     H54468   7.676   1.460   1.582 -0.8571 -0.3863  0.9766
  413MOL0     H54469   7.472   1.541   1.872 -1.4361 -0.1601 -0.4330
  413MOL0     H54470   7.415   1.885   1.946 -0.6074 -0.7835  0.7894
  413MOL0     H54471   7.328   1.734   1.941  0.8949 -0.8247  0.1206
  413MOL0     H54472   7.291   1.969   1.751 -3.4538  0.1983 -1.9061
  413MOL0     H54473   7.198   1.928   1.897  0.6127 -1.3230  1.7137
  413MOL0     H54474   7.227   1.770   1.638 -0.9511  2.4609 -0.2122
  413MOL0     H54475   7.177   1.695   1.777  0.7796 -1.2170 -3.9127
  413MOL0     H54476   6.963   1.772   1.678 -0.7297 -0.1015  1.1022
  413MOL0     H54477   7.039   1.929   1.635 -0.1107 -1.5185 -2.0549
  413MOL0     H54478   6.867   2.027   2.031  0.1284  4.8046  0.5061
  413MOL0     H54479   6.642   2.111   2.046 -1.2559  0.6000 -0.6320
  413MOL0     H54480   6.273   2.360   1.687 -1.0404 -0.6735 -1.2846
  413MOL0     H54481   6.025   2.410   1.656 -1.6348 -0.0022  2.6038
  413MOL0     H54482   5.818   2.244   1.959  1.7231 -0.3423 -0.3105
  413MOL0     H54483   5.716   2.140   1.863  0.1570 -0.5924  1.0561
  413MOL0     H54484   5.675   2.439   1.870  2.0243 -0.8845  0.3800
  413MOL0     H54485   5.616   2.335   1.988  1.6629  0.1110  0.0285
  413MOL0     H54486   5.488   2.212   1.773 -1.4872 -0.1993  1.6567
  413MOL0     H54487   5.576   2.339   1.681  2.3694 -1.1721  0.6239
  413MOL0     H54488   5.370   2.376   1.911 -2.3612 -0.1017 -0.1611
  413MOL0     H54489   5.445   2.513   1.827 -5.2097  1.6870  1.5206
  413MOL0     H54490   5.268   2.316   1.686  0.9712 -0.3034 -2.8420
  413MOL0     H54491   5.377   2.427   1.609  1.3423  0.4461  0.8997
  413MOL0     H54492   5.253   2.624   1.719 -3.0995  3.2403 -0.9902
  413MOL0     H54493   5.160   2.502   1.804 -0.5504 -2.0729 -0.7814
  413MOL0     H54494   5.141   2.568   1.508 -2.1696 -1.6669 -1.0059
  413MOL0     H54495   5.092   2.414   1.553  2.0914 -0.8835 -0.7016
  413MOL0     H54496   4.943   2.521   1.722 -1.5524 -1.8969 -1.8929
  413MOL0     H54497   4.905   2.565   1.555  1.2161 -0.2494  0.0294
  413MOL0     H54498   5.938   2.044   1.870  0.1348 -0.6245  1.1655
  413MOL0     H54499   6.169   1.978   1.849  0.2975 -0.6142 -1.8504
  413MOL0     H54500   6.585   2.000   1.629  2.3523 -2.5213 -1.0814
  413MOL0     H54501   6.797   1.936   1.615  1.6435  2.6257  0.2706
  413MOL0     H54502   8.617   1.259   1.800  0.9438 -1.1371  1.9838
  413MOL0     H54503   8.851   1.251   1.741 -0.5264 -0.6496  0.3405
  413MOL0     H54504   9.220   1.360   1.746 -0.3228 -0.0768  0.1100
  413MOL0     H54505   9.451   1.411   1.686  3.2125  0.1735  0.5488
  413MOL0     H54506   9.765   1.303   1.966 -1.6346 -0.7724 -1.7521
  413MOL0     H54507   9.737   1.471   2.025  0.2766  2.3671 -1.8271
  413MOL0     H54508   9.884   1.383   1.773 -0.5953  0.4859 -0.7631
  413MOL0     H54509   9.883   1.551   1.834  1.6458  1.2975  3.2169
  413MOL0     H54510  10.003   1.359   2.022  1.4114  0.3900  1.0989
  413MOL0     H54511  10.015   1.537   2.019  0.0906 -0.9958  1.6505
  413MOL0     H54512  10.134   1.444   1.766  1.9718 -0.2589 -0.5289
  413MOL0     H54513  10.207   1.521   1.907 -1.4339  0.2901  0.3452
  413MOL0     H54514  10.315   1.114   1.957  1.9862  0.3954  1.4761
  413MOL0     H54515   9.570   1.321   2.090  2.1230 -2.9911 -2.0447
  413MOL0     H54516   9.324   1.267   2.139  0.2992  0.3037 -1.0406
  414MOL0     O54517   6.642   1.085   2.192 -0.9536  0.8026  0.8302
  414MOL0     C54518   6.680   1.183   2.253 -0.9488  1.0001 -0.2551
  414MOL0     O54519   6.811   1.232   2.258  0.1615 -0.6294 -0.4748
  414MOL0     C54520   6.918   1.149   2.240 -0.2357 -0.8948 -0.4409
  414MOL0     C54521   7.042   1.207   2.194  0.4368 -0.2016 -1.0763
  414MOL0     C54522   7.165   1.133   2.187 -0.5570  0.8584 -0.3069
  414MOL0     C54523   7.163   0.999   2.223  0.0788  0.0625  1.0254
  414MOL0     O54524   7.276   0.923   2.195 -0.3263 -0.2587  0.5833
  414MOL0     C54525   7.306   0.807   2.276  0.0071  0.4399 -0.5438
  414MOL0     C54526   7.446   0.758   2.261 -0.0297 -0.0030  0.1346
  414MOL0     C54527   7.468   0.703   2.118 -0.3859 -0.4458 -0.3815
  414MOL0     C54528   7.616   0.642   2.112  0.8599  0.3365 -0.1118
  414MOL0     C54529   7.637   0.510   2.190 -0.7469  0.2259  0.4617
  414MOL0     C54530   7.778   0.452   2.155  0.8025  0.6800  0.1913
  414MOL0     C54531   7.906   0.517   2.221 -0.1732  0.4861  0.4461
  414MOL0     C54532   8.032   0.483   2.150 -0.4023  0.8417 -0.6099
  414MOL0     N54533   8.058   0.337   2.153  0.7785  0.7122 -0.0919
  414MOL0     C54534   8.105   0.269   2.268 -0.3661  0.4466 -0.4568
  414MOL0     C54535   8.090   0.135   2.246 -1.0055  0.0460  1.0686
  414MOL0     C54536   8.121   0.021   2.337 -0.2251  0.1552 -0.0712
  414MOL0     C54537   7.995  -0.033   2.417 -0.1399 -0.9136  0.8334
  414MOL0     C54538   8.037  -0.112   2.535 -0.2674 -1.0907 -1.5932
  414MOL0     C54539   7.915  -0.166   2.604  0.8125  0.6002  0.6416
  414MOL0     O54540   7.827  -0.057   2.658 -0.3295  0.4507  0.1484
  414MOL0     C54541   7.691  -0.060   2.642 -0.2887 -0.9958 -0.5823
  414MOL0     C54542   7.616   0.054   2.677 -0.1357 -0.6155  1.7183
  414MOL0     C54543   7.478   0.041   2.677 -0.2035  0.5381 -0.4221
  414MOL0     C54544   7.407  -0.070   2.634  0.0586  0.3135  0.4682
  414MOL0     C54545   7.262  -0.078   2.617 -0.0305  0.0159  0.1705
  414MOL0     O54546   7.194  -0.188   2.669  0.3250  0.7840  0.2788
  414MOL0     C54547   7.060  -0.186   2.699 -0.3938 -0.2347  0.5227
  414MOL0     C54548   6.995  -0.077   2.752 -0.3009 -1.2765  0.5590
  414MOL0     C54549   6.851  -0.088   2.769 -0.0131  0.2944 -0.6496
  414MOL0     C54550   6.775  -0.194   2.733 -0.4235  0.2466 -0.6022
  414MOL0     O54551   6.637  -0.211   2.733  0.5047 -1.1808 -0.3944
  414MOL0     C54552   6.548  -0.121   2.811 -0.0674 -0.3952 -0.1630
  414MOL0     C54553   6.410  -0.166   2.772  0.5030 -0.4416  0.0104
  414MOL0     C54554   6.312  -0.057   2.824 -0.0912  0.1726  0.1321
  414MOL0     C54555   6.173  -0.111   2.825  0.4022  0.1256 -0.0145
  414MOL0     C54556   6.071   0.004   2.823  1.2737  0.5907 -0.3693
  414MOL0     C54557   5.923  -0.035   2.840 -0.6789  1.1889 -0.2886
  414MOL0     C54558   5.817   0.082   2.860  0.0426  0.4243  0.0933
  414MOL0     C54559   5.673   0.036   2.878  0.3774 -0.1719 -0.0399
  414MOL0    Cl54560   5.565   0.182   2.843  0.2155  0.4916 -0.4872
  414MOL0     C54561   6.853  -0.309   2.692  0.4736 -0.1830 -0.1550
  414MOL0     C54562   6.992  -0.309   2.676  0.0417  0.0485 -0.9843
  414MOL0     O54563   7.210   0.028   2.581 -0.0398 -0.4902  0.1119
  414MOL0     C54564   7.487  -0.184   2.614 -0.0261 -0.5884  0.0176
  414MOL0     C54565   7.623  -0.176   2.611 -0.5690  0.1155  0.6529
  414MOL0     N54566   8.028   0.122   2.122  0.4320 -0.3727  0.5775
  414MOL0     N54567   8.007   0.234   2.066 -0.0587 -0.7762 -0.1077
  414MOL0     C54568   7.050   0.951   2.282 -0.1722  0.6165 -0.2204
  414MOL0     C54569   6.924   1.014   2.287  0.3097  0.1025  0.7150
  414MOL0     C54570   6.579   1.247   2.340 -0.7431  0.0613 -0.0182
  414MOL0     C54571   6.451   1.186   2.350 -0.1325  0.1569  0.2590
  414MOL0     C54572   6.357   1.250   2.437 -0.6543  0.9829  0.7604
  414MOL0     C54573   6.387   1.372   2.507 -0.2112  0.3144  0.3259
  414MOL0     O54574   6.294   1.444   2.578  0.3007 -0.3343  0.0583
  414MOL0     C54575   6.164   1.405   2.619  0.3664  0.2424 -0.4310
  414MOL0     C54576   6.074   1.523   2.576  0.2329 -0.7491 -0.0115
  414MOL0     C54577   6.034   1.529   2.427  0.1650 -0.0077  0.1929
  414MOL0     C54578   5.930   1.421   2.392 -0.0891  0.0508  0.6820
  414MOL0     C54579   5.799   1.476   2.420  0.2537 -0.8140 -0.2817
  414MOL0     C54580   5.687   1.515   2.427  0.9604  0.1037  0.0614
  414MOL0     C54581   6.517   1.419   2.504  0.1720 -0.0418 -0.0092
  414MOL0     C54582   6.613   1.353   2.423  0.2116 -0.0427  1.2342
  414MOL0     H54583   7.041   1.314   2.177  1.5202 -0.3371 -2.0301
  414MOL0     H54584   7.258   1.172   2.146  0.5365 -0.7853  0.5211
  414MOL0     H54585   7.237   0.724   2.258 -1.3733  0.9061  2.1234
  414MOL0     H54586   7.306   0.833   2.382  0.5705  2.9774 -1.0875
  414MOL0     H54587   7.460   0.682   2.339 -0.7663 -0.6766 -0.3742
  414MOL0     H54588   7.513   0.840   2.285  2.0814 -1.3203 -0.9478
  414MOL0     H54589   7.458   0.787   2.048 -1.6183  0.1574  0.4775
  414MOL0     H54590   7.395   0.625   2.096 -0.1176 -1.0243  0.7123
  414MOL0     H54591   7.645   0.636   2.007 -0.3187  0.3955 -0.4544
  414MOL0     H54592   7.676   0.729   2.141 -0.8212  2.2104 -1.8815
  414MOL0     H54593   7.559   0.441   2.158 -2.1393  0.6623  2.6558
  414MOL0     H54594   7.612   0.520   2.297 -2.9824  2.5566 -0.1634
  414MOL0     H54595   7.801   0.469   2.050  0.3095  0.0380 -0.0241
  414MOL0     H54596   7.786   0.346   2.178  1.2462  0.6804  0.0294
  414MOL0     H54597   7.899   0.626   2.211 -0.4500  0.2462 -3.1631
  414MOL0     H54598   7.909   0.485   2.325  1.4967  0.8930  0.5545
  414MOL0     H54599   8.116   0.539   2.191 -0.1963  0.6862 -0.8168
  414MOL0     H54600   8.025   0.513   2.045 -0.2925 -1.1600 -1.2321
  414MOL0     H54601   8.142   0.325   2.354 -1.6838  1.1247 -0.3128
  414MOL0     H54602   8.202   0.055   2.402 -0.8146  0.6834  0.3908
  414MOL0     H54603   8.158  -0.063   2.277 -3.6684 -0.5561 -1.4377
  414MOL0     H54604   7.947  -0.089   2.336  2.1993  1.1471 -2.2462
  414MOL0     H54605   7.931   0.052   2.444  0.6499  0.3688 -1.0973
  414MOL0     H54606   8.098  -0.198   2.505  1.8581 -1.4583  3.0179
  414MOL0     H54607   8.095  -0.055   2.608  1.8340 -3.2469 -1.4462
  414MOL0     H54608   7.948  -0.230   2.687  1.9880  1.1239  0.5920
  414MOL0     H54609   7.863  -0.232   2.533 -0.8533  0.9218  1.4911
  414MOL0     H54610   7.658   0.147   2.713 -0.0185  0.1124 -0.1995
  414MOL0     H54611   7.423   0.127   2.715  1.0508  0.5260  1.5695
  414MOL0     H54612   7.060   0.008   2.770 -1.5900 -0.4542  1.5796
  414MOL0     H54613   6.796  -0.005   2.812  0.4747  0.4703 -0.3530
  414MOL0     H54614   6.574  -0.020   2.778  2.5891 -1.1539 -0.6062
  414MOL0     H54615   6.570  -0.130   2.918  0.7292  0.0573 -0.2770
  414MOL0     H54616   6.394  -0.264   2.817 -2.5868 -0.4225 -0.7801
  414MOL0     H54617   6.384  -0.175   2.666 -3.3232  0.0507  0.7521
  414MOL0     H54618   6.316   0.028   2.757 -0.5708  0.8691  0.9590
  414MOL0     H54619   6.353  -0.038   2.924  1.2457 -0.2751 -0.3092
  414MOL0     H54620   6.158  -0.172   2.736  2.8371 -3.2686  1.6835
  414MOL0     H54621   6.159  -0.178   2.911 -3.4411 -0.0570 -0.5754
  414MOL0     H54622   6.082   0.073   2.739 -0.0987  1.2256 -0.0758
  414MOL0     H54623   6.084   0.055   2.919 -4.3948 -0.5157  1.4209
  414MOL0     H54624   5.927  -0.085   2.937 -1.7067  0.7814 -0.4513
  414MOL0     H54625   5.885  -0.103   2.764  2.1270 -2.4218  1.2356
  414MOL0     H54626   5.853   0.141   2.945 -0.6286 -2.6912  2.7902
  414MOL0     H54627   5.818   0.142   2.769  1.6103 -1.3496 -1.1489
  414MOL0     H54628   5.654  -0.011   2.975 -1.8089  1.6925  0.5347
  414MOL0     H54629   5.632  -0.025   2.797  0.6717  1.0474 -1.1287
  414MOL0     H54630   6.792  -0.396   2.672  0.4602 -0.1920 -0.0753
  414MOL0     H54631   7.052  -0.392   2.640 -1.5170 -1.4904 -0.1830
  414MOL0     H54632   7.432  -0.278   2.609 -2.7873  0.9317 -0.2905
  414MOL0     H54633   7.675  -0.270   2.596  0.7418  1.1277 -1.7169
  414MOL0     H54634   7.067   0.848   2.310  3.0909  0.9468 -0.6061
  414MOL0     H54635   6.842   0.954   2.323  0.0798  0.2171  0.3824
  414MOL0     H54636   6.412   1.102   2.294 -1.7166 -0.2013  1.7853
  414MOL0     H54637   6.253   1.220   2.444  0.3731 -2.6381  3.6795
  414MOL0     H54638   6.168   1.408   2.728 -0.0994 -1.6632 -0.3120
  414MOL0     H54639   6.116   1.310   2.590 -0.8208 -0.2706  2.7983
  414MOL0     H54640   5.983   1.518   2.636  1.0512  1.3956  1.5387
  414MOL0     H54641   6.122   1.612   2.618  1.4226 -1.6040  0.4976
  414MOL0     H54642   6.124   1.516   2.368  0.8399  0.1007  1.1719
  414MOL0     H54643   5.990   1.622   2.390  0.7296  1.0691  2.1021
  414MOL0     H54644   5.939   1.399   2.285  2.4890 -2.4614  1.2999
  414MOL0     H54645   5.946   1.330   2.449  3.5541 -0.7210 -1.2883
  414MOL0     H54646   5.584   1.544   2.439 -0.1536 -3.4002  0.1102
  414MOL0     H54647   6.542   1.487   2.585  0.8050 -2.2123  1.7401
  414MOL0     H54648   6.717   1.383   2.416  1.5408 -4.3491 -1.5171
  415MOL0     O54649  10.048   5.590   3.511 -0.0043 -0.2908 -0.8840
  415MOL0     C54650  10.090   5.486   3.454 -1.0431 -0.3585 -0.1318
  415MOL0     O54651  10.004   5.383   3.417 -0.0442 -0.4468  0.6375
  415MOL0     C54652   9.866   5.401   3.440  0.6455 -0.4866 -0.8164
  415MOL0     C54653   9.793   5.501   3.391  0.9087  0.5821  0.3335
  415MOL0     C54654   9.652   5.499   3.400  0.4038  0.5653  0.5769
  415MOL0     C54655   9.582   5.414   3.478 -0.2778  0.8876 -0.4348
  415MOL0     O54656   9.451   5.433   3.491  0.6011  0.5294  0.0473
  415MOL0     C54657   9.367   5.317   3.520 -0.1066  0.4487 -0.0319
  415MOL0     C54658   9.236   5.386   3.536  0.3429  0.7518 -0.2648
  415MOL0     C54659   9.176   5.443   3.405 -0.4115 -1.3805 -0.6689
  415MOL0     C54660   9.057   5.539   3.438 -0.0212  0.2721 -0.7948
  415MOL0     C54661   8.936   5.450   3.463 -0.2319 -0.6162 -0.6450
  415MOL0     C54662   8.807   5.533   3.445 -0.3421  0.1807  0.0051
  415MOL0     C54663   8.681   5.462   3.505 -0.3081  0.9033  0.8843
  415MOL0     C54664   8.538   5.528   3.487 -0.3501 -0.7221  0.0061
  415MOL0     N54665   8.424   5.452   3.550  0.0958  0.3940  0.2595
  415MOL0     C54666   8.398   5.318   3.555 -0.2235  0.7169  0.0735
  415MOL0     C54667   8.292   5.316   3.645  0.5882  0.9273  0.2181
  415MOL0     C54668   8.199   5.198   3.689 -0.4110  0.2868 -0.3788
  415MOL0     C54669   8.071   5.206   3.602  0.5259 -0.1369 -0.3679
  415MOL0     C54670   8.007   5.346   3.603 -0.5516 -0.5415 -0.9063
  415MOL0     C54671   7.862   5.347   3.548  0.4949 -0.4485 -0.3593
  415MOL0     O54672   7.772   5.287   3.638 -0.4838  0.9026  0.3521
  415MOL0     C54673   7.635   5.293   3.606 -1.0157  0.6494  0.7572
  415MOL0     C54674   7.583   5.239   3.489  0.4256 -0.4360  1.0186
  415MOL0     C54675   7.443   5.225   3.471 -0.4330 -0.4261 -0.3085
  415MOL0     C54676   7.351   5.275   3.567 -0.6030  0.3186 -0.8548
  415MOL0     C54677   7.208   5.262   3.542  0.4294  0.9611  0.2071
  415MOL0     O54678   7.114   5.309   3.629 -0.2747  0.7594  0.0778
  415MOL0     C54679   6.983   5.287   3.617 -1.0186  0.7731 -0.0778
  415MOL0     C54680   6.917   5.349   3.506 -0.1865  0.3281 -0.5229
  415MOL0     C54681   6.785   5.336   3.498  0.0708  1.0671  0.0690
  415MOL0     C54682   6.712   5.274   3.602 -0.1929  0.1503 -0.9260
  415MOL0     O54683   6.576   5.290   3.613  0.1940  0.2442 -0.0745
  415MOL0     C54684   6.522   5.409   3.547  0.0857 -0.6976 -0.0734
  415MOL0     C54685   6.368   5.424   3.571  0.3555 -0.5776 -1.0733
  415MOL0     C54686   6.351   5.448   3.725 -0.6206 -0.5739 -0.6306
  415MOL0     C54687   6.228   5.535   3.756 -0.2136  0.0168  0.3239
  415MOL0     C54688   6.204   5.571   3.899  0.4580 -1.2819  0.8245
  415MOL0     C54689   6.076   5.631   3.925  1.0552  0.1659  0.1235
  415MOL0     C54690   6.059   5.759   3.838  0.3886 -0.7302  0.2529
  415MOL0     C54691   5.946   5.851   3.892  0.0788 -0.5936 -0.0042
  415MOL0    Cl54692   5.808   5.749   3.933 -0.0791 -0.0090 -0.2077
  415MOL0     C54693   6.774   5.200   3.705 -0.2723 -0.5535 -0.4085
  415MOL0     C54694   6.915   5.215   3.721 -0.4343 -0.2837  0.0075
  415MOL0     O54695   7.176   5.186   3.445 -0.3226  0.0733 -0.4257
  415MOL0     C54696   7.405   5.333   3.683  0.6983  0.5327  0.1260
  415MOL0     C54697   7.545   5.335   3.706 -0.0083 -0.0321  0.2440
  415MOL0     N54698   8.266   5.436   3.697 -0.2921  0.8607 -0.1449
  415MOL0     N54699   8.347   5.515   3.637  0.1242 -0.1151  0.0899
  415MOL0     C54700   9.653   5.294   3.513  0.5160 -0.6347 -0.3829
  415MOL0     C54701   9.799   5.298   3.506 -0.1566  1.1596 -0.3886
  415MOL0     C54702  10.241   5.459   3.459  0.1455  0.1810 -0.7934
  415MOL0     C54703  10.291   5.334   3.478  0.1772 -0.0179 -0.2748
  415MOL0     C54704  10.430   5.306   3.478  1.1090  0.7483 -0.2781
  415MOL0     C54705  10.517   5.417   3.476  0.1736  0.7474 -0.0445
  415MOL0     O54706  10.647   5.396   3.484 -0.8003 -0.4479 -0.2012
  415MOL0     C54707  10.745   5.502   3.495 -0.2314  0.0505 -1.0399
  415MOL0     C54708  10.886   5.454   3.493  0.2562  0.1760  0.3175
  415MOL0     C54709  10.984   5.568   3.521 -0.4169  0.3784  0.5794
  415MOL0     C54710  10.961   5.695   3.598  0.9388  0.7382  1.0395
  415MOL0     C54711  11.092   5.758   3.617 -0.0335 -0.0828 -0.2289
  415MOL0     C54712  11.196   5.822   3.653 -0.4744 -0.0652 -0.5331
  415MOL0     C54713  10.468   5.544   3.470 -0.0342 -1.0875 -0.4972
  415MOL0     C54714  10.326   5.566   3.469 -0.0040  0.0478  0.9012
  415MOL0     H54715   9.842   5.586   3.345 -0.2209  2.7744  2.8839
  415MOL0     H54716   9.604   5.580   3.347  2.3226  0.6939 -1.0987
  415MOL0     H54717   9.396   5.273   3.615 -0.7579 -1.5585 -0.7046
  415MOL0     H54718   9.375   5.240   3.443  1.3540 -1.0221  1.5086
  415MOL0     H54719   9.241   5.451   3.624  0.8915  2.1544 -1.2898
  415MOL0     H54720   9.178   5.300   3.571  1.4620 -0.0080 -0.1976
  415MOL0     H54721   9.136   5.379   3.326 -0.8037  1.4425 -2.9384
  415MOL0     H54722   9.251   5.507   3.358 -0.1836  0.5462  2.0662
  415MOL0     H54723   9.081   5.594   3.529 -0.4005 -0.5034 -0.2094
  415MOL0     H54724   9.024   5.613   3.365 -0.8497  2.3565  1.5683
  415MOL0     H54725   8.951   5.402   3.560  0.1307 -0.9510 -0.8625
  415MOL0     H54726   8.931   5.363   3.397  1.0764 -2.4761  1.5565
  415MOL0     H54727   8.793   5.526   3.336  1.5505 -5.6901 -0.2195
  415MOL0     H54728   8.804   5.634   3.486  0.5084  0.1098  0.2632
  415MOL0     H54729   8.668   5.369   3.449 -3.4047  2.4087 -1.2015
  415MOL0     H54730   8.713   5.449   3.608 -0.9507 -2.6351  0.7752
  415MOL0     H54731   8.515   5.541   3.381 -0.3040 -1.3367 -0.0867
  415MOL0     H54732   8.544   5.622   3.542 -0.6634 -0.8672  0.2926
  415MOL0     H54733   8.429   5.233   3.495 -2.4650 -2.2458  2.7798
  415MOL0     H54734   8.170   5.201   3.794 -0.9597  0.3363 -0.5302
  415MOL0     H54735   8.241   5.098   3.675 -0.9154  0.2485 -1.8065
  415MOL0     H54736   8.003   5.130   3.639  0.3832 -1.1954 -2.6380
  415MOL0     H54737   8.096   5.185   3.497  0.3465  2.5311 -1.0307
  415MOL0     H54738   8.006   5.367   3.711 -1.0707  1.3870 -1.2400
  415MOL0     H54739   8.063   5.427   3.555  0.5352  0.2137  1.4488
  415MOL0     H54740   7.853   5.292   3.454 -4.7388 -1.1891  0.2772
  415MOL0     H54741   7.837   5.452   3.531 -1.0602 -0.7739 -0.1777
  415MOL0     H54742   7.652   5.219   3.408 -0.4109  3.0794 -0.7487
  415MOL0     H54743   7.415   5.181   3.376  1.5919 -0.4982 -0.9334
  415MOL0     H54744   6.969   5.414   3.436 -2.1086  0.8661 -1.5126
  415MOL0     H54745   6.744   5.400   3.420  1.3922  1.3670 -0.4105
  415MOL0     H54746   6.534   5.419   3.439 -0.9325  2.0267 -0.0012
  415MOL0     H54747   6.572   5.494   3.593  1.5023 -1.8305  0.5452
  415MOL0     H54748   6.311   5.335   3.541 -0.6570 -0.3596  0.1263
  415MOL0     H54749   6.347   5.519   3.523 -1.1526  0.1098  0.8231
  415MOL0     H54750   6.435   5.506   3.764 -1.4451 -0.4527  1.0264
  415MOL0     H54751   6.348   5.360   3.790 -1.1878  0.6289  1.0440
  415MOL0     H54752   6.240   5.635   3.712  1.9824  0.0835  0.9185
  415MOL0     H54753   6.139   5.500   3.704 -0.2382  0.8967 -0.2555
  415MOL0     H54754   6.278   5.645   3.932 -1.6033  1.5917 -0.4816
  415MOL0     H54755   6.226   5.481   3.955 -3.2156 -4.0207 -1.6380
  415MOL0     H54756   6.071   5.648   4.033 -0.8730  0.9575 -0.0496
  415MOL0     H54757   6.003   5.550   3.913  2.4166 -1.3910  1.6653
  415MOL0     H54758   6.147   5.821   3.853  1.1382 -1.9901  1.3566
  415MOL0     H54759   6.039   5.730   3.735 -0.8291 -2.9961  1.0519
  415MOL0     H54760   5.907   5.922   3.818 -2.4569 -2.4586 -0.5821
  415MOL0     H54761   5.980   5.899   3.985  0.4683 -0.4568 -0.2164
  415MOL0     H54762   6.728   5.151   3.791  2.6332  0.5708  1.9486
  415MOL0     H54763   6.978   5.162   3.791  1.2844 -1.7093 -2.4334
  415MOL0     H54764   7.331   5.377   3.749 -1.9186 -1.5299 -1.1858
  415MOL0     H54765   7.583   5.367   3.803  2.9764  0.7470 -1.0871
  415MOL0     H54766   9.601   5.215   3.567 -3.5632  2.1394  0.1939
  415MOL0     H54767   9.856   5.211   3.539 -1.4564 -0.7716 -2.8777
  415MOL0     H54768  10.221   5.251   3.473 -1.3020  1.2025 -0.6960
  415MOL0     H54769  10.482   5.212   3.494  0.5883  0.9116  3.2385
  415MOL0     H54770  10.734   5.565   3.584 -1.2998 -1.7818  0.1957
  415MOL0     H54771  10.735   5.563   3.405 -0.4885 -0.2130 -1.1880
  415MOL0     H54772  10.893   5.390   3.582 -2.0667  0.2215  0.6016
  415MOL0     H54773  10.910   5.407   3.398  1.4916  0.5585  0.4169
  415MOL0     H54774  11.002   5.601   3.418 -2.5373 -0.5675 -0.1496
  415MOL0     H54775  11.070   5.515   3.562 -2.2121 -2.1604  1.2942
  415MOL0     H54776  10.894   5.762   3.544  1.2176 -0.0000 -0.2638
  415MOL0     H54777  10.913   5.667   3.692 -2.6431 -1.3966 -1.1461
  415MOL0     H54778  11.285   5.870   3.688  0.5134 -1.5403 -0.9641
  415MOL0     H54779  10.524   5.637   3.476  1.0085 -1.8051  1.9979
  415MOL0     H54780  10.284   5.665   3.452 -3.0673 -1.7521 -3.8804
  416MOL0     O54781  10.240  10.902   1.491  0.9081  0.3802 -0.4879
  416MOL0     C54782  10.276  10.923   1.380  0.3289  0.1144 -0.6569
  416MOL0     O54783  10.277  10.836   1.289  0.2784  0.1784  0.1957
  416MOL0     C54784  10.180  10.744   1.290 -0.6168 -0.0823  0.4820
  416MOL0     C54785  10.189  10.618   1.350  0.1166 -0.2338  0.0439
  416MOL0     C54786  10.094  10.514   1.348  0.1297  1.0083  0.6621
  416MOL0     C54787   9.984  10.530   1.264  0.3785 -0.8486  0.0081
  416MOL0     O54788   9.876  10.444   1.248 -0.7411  0.5645 -0.0873
  416MOL0     C54789   9.793  10.416   1.361  0.5642  0.0508 -0.5586
  416MOL0     C54790   9.689  10.527   1.391  0.4620 -0.5759 -0.2988
  416MOL0     C54791   9.602  10.483   1.510 -0.4067  0.0346 -0.4191
  416MOL0     C54792   9.503  10.603   1.537  0.0936 -0.3260 -0.0085
  416MOL0     C54793   9.412  10.567   1.655  0.2831 -0.1139 -0.0104
  416MOL0     C54794   9.486  10.568   1.801 -1.3681  0.1915 -0.6339
  416MOL0     C54795   9.385  10.551   1.911  0.3295  0.0417 -0.2390
  416MOL0     C54796   9.443  10.548   2.053 -0.5242  0.4778 -0.3526
  416MOL0     N54797   9.357  10.545   2.176 -0.1598 -0.5758 -0.6778
  416MOL0     C54798   9.353  10.653   2.260  0.5667 -0.4389 -0.2597
  416MOL0     C54799   9.264  10.618   2.359  0.4483 -0.0644 -0.6006
  416MOL0     C54800   9.225  10.695   2.480  0.9434 -0.1550  0.6385
  416MOL0     C54801   9.071  10.745   2.462  0.2744  0.5306 -0.2408
  416MOL0     C54802   8.968  10.651   2.528 -0.1224  0.2164  0.1326
  416MOL0     C54803   8.837  10.687   2.480  0.4503 -1.7905  0.1018
  416MOL0     O54804   8.773  10.784   2.561 -0.0628 -0.6165 -0.7265
  416MOL0     C54805   8.651  10.804   2.520 -0.4099 -0.3244 -0.1880
  416MOL0     C54806   8.624  10.904   2.430 -0.3127 -0.2211  0.3796
  416MOL0     C54807   8.490  10.930   2.388 -0.1164  0.2503  0.0542
  416MOL0     C54808   8.376  10.856   2.437 -0.2024  0.1296 -0.9733
  416MOL0     C54809   8.233  10.893   2.406 -0.3069 -0.6520  0.3867
  416MOL0     O54810   8.135  10.822   2.463  0.2535 -0.7009 -0.5240
  416MOL0     C54811   8.001  10.824   2.430 -0.8774 -0.0630 -0.0176
  416MOL0     C54812   7.944  10.913   2.338  0.2435 -0.4515 -0.3934
  416MOL0     C54813   7.806  10.914   2.316  0.3387 -0.1414  0.0619
  416MOL0     C54814   7.724  10.816   2.383  0.1397 -1.3251 -0.1402
  416MOL0     O54815   7.594  10.816   2.352 -0.1384  0.3609 -0.3964
  416MOL0     C54816   7.513  10.794   2.466 -0.3861 -0.2311  0.4370
  416MOL0     C54817   7.366  10.836   2.442  0.1563 -0.2822 -1.0343
  416MOL0     C54818   7.268  10.755   2.526 -0.0665  0.1649 -0.5798
  416MOL0     C54819   7.135  10.750   2.461  0.2636  0.2328 -0.1233
  416MOL0     C54820   7.040  10.664   2.548  0.7500 -0.8633  0.4741
  416MOL0     C54821   6.903  10.641   2.470  0.0158 -0.0442  0.4029
  416MOL0     C54822   6.799  10.551   2.547 -0.5722  0.3552 -0.1618
  416MOL0     C54823   6.725  10.620   2.660 -0.4506 -0.1308 -0.3160
  416MOL0    Cl54824   6.566  10.540   2.687 -0.0037  0.0108  0.2921
  416MOL0     C54825   7.782  10.732   2.475  0.1007  0.4380 -0.3516
  416MOL0     C54826   7.921  10.734   2.501  0.1640  0.5375 -0.1556
  416MOL0     O54827   8.221  10.979   2.316 -0.6459 -0.4300  0.1055
  416MOL0     C54828   8.409  10.756   2.531 -0.3440 -0.0380 -0.5535
  416MOL0     C54829   8.546  10.726   2.564  0.3763 -0.2730 -0.2872
  416MOL0     N54830   9.209  10.494   2.317 -0.3453  0.1693 -0.4397
  416MOL0     N54831   9.265  10.451   2.211 -0.0724 -0.6675  0.0800
  416MOL0     C54832   9.970  10.650   1.195  0.1545 -0.4398  0.3854
  416MOL0     C54833  10.069  10.757   1.209  0.1743 -0.3703 -0.0914
  416MOL0     C54834  10.324  11.056   1.338  0.7632  0.4085 -0.2626
  416MOL0     C54835  10.351  11.085   1.203  0.3159  0.1129  0.5936
  416MOL0     C54836  10.399  11.212   1.164 -0.5585 -0.8203 -0.8339
  416MOL0     C54837  10.431  11.308   1.262 -1.2497  0.5657  0.4295
  416MOL0     O54838  10.475  11.433   1.239 -0.4930  0.0491 -0.2681
  416MOL0     C54839  10.510  11.483   1.107  0.8924  0.8719 -0.8602
  416MOL0     C54840  10.525  11.634   1.128  0.3734 -0.2687  0.5466
  416MOL0     C54841  10.534  11.700   0.991 -0.6246  0.5646  0.0192
  416MOL0     C54842  10.663  11.657   0.907  0.7006  0.0772 -0.1100
  416MOL0     C54843  10.670  11.740   0.788 -0.2298  0.3974  0.6641
  416MOL0     C54844  10.682  11.789   0.675 -0.0041 -0.1673 -0.3819
  416MOL0     C54845  10.409  11.275   1.393 -0.7476 -0.6322 -0.1539
  416MOL0     C54846  10.356  11.155   1.433 -0.0965  0.6496  0.6586
  416MOL0     H54847  10.277  10.613   1.413  0.9076 -0.5464 -1.0553
  416MOL0     H54848  10.116  10.422   1.401 -0.8770  1.2502  1.5266
  416MOL0     H54849   9.853  10.394   1.449 -0.3915 -4.0897 -0.7633
  416MOL0     H54850   9.727  10.333   1.334 -0.8506  0.9420  0.0103
  416MOL0     H54851   9.638  10.547   1.296  2.7582 -1.1655 -1.7701
  416MOL0     H54852   9.742  10.620   1.414  0.4674 -0.7999  0.6291
  416MOL0     H54853   9.669  10.437   1.583  3.7556 -0.9966 -4.4269
  416MOL0     H54854   9.538  10.396   1.490  0.6637 -1.3646  1.8559
  416MOL0     H54855   9.564  10.692   1.552  2.8489 -1.8327 -1.3125
  416MOL0     H54856   9.437  10.617   1.451  0.0413  0.6921  0.1867
  416MOL0     H54857   9.365  10.469   1.645 -2.8603  1.1335  1.2885
  416MOL0     H54858   9.330  10.640   1.649 -1.8201 -2.4632 -2.0517
  416MOL0     H54859   9.547  10.657   1.819  1.3017 -2.0358  2.6499
  416MOL0     H54860   9.564  10.492   1.801 -0.2601  1.2602 -2.0556
  416MOL0     H54861   9.315  10.632   1.894  2.4915  2.0590 -0.0165
  416MOL0     H54862   9.324  10.463   1.890 -1.1264  0.6097  1.3262
  416MOL0     H54863   9.506  10.637   2.061  1.2222 -0.8239  1.2768
  416MOL0     H54864   9.506  10.459   2.058 -0.7158  0.4118  1.2689
  416MOL0     H54865   9.415  10.742   2.253  0.2433 -0.1706  0.2034
  416MOL0     H54866   9.293  10.780   2.483  2.5586 -1.3956  1.0044
  416MOL0     H54867   9.236  10.646   2.577  0.6159 -1.3918  0.0704
  416MOL0     H54868   9.051  10.745   2.354  1.9961  0.4453 -0.6018
  416MOL0     H54869   9.058  10.846   2.501 -0.0469  0.6195 -0.5770
  416MOL0     H54870   8.998  10.550   2.496 -0.9588  0.1214 -0.3680
  416MOL0     H54871   8.968  10.649   2.637  0.3079 -2.8087  0.1725
  416MOL0     H54872   8.771  10.599   2.475 -1.7563 -0.1816 -4.1971
  416MOL0     H54873   8.843  10.732   2.381 -0.1447 -0.2757  0.7307
  416MOL0     H54874   8.711  10.966   2.415  1.8157 -2.8298  1.0622
  416MOL0     H54875   8.472  11.018   2.327 -3.2309  0.2787  0.8671
  416MOL0     H54876   7.986  10.998   2.285 -1.6039  1.4493  1.0437
  416MOL0     H54877   7.759  10.972   2.236 -0.4875 -1.7888 -0.6980
  416MOL0     H54878   7.568  10.840   2.549  3.0848  1.4498 -2.5258
  416MOL0     H54879   7.506  10.685   2.471  0.4048 -0.2573  1.1409
  416MOL0     H54880   7.344  10.808   2.338  2.2893 -2.3792 -0.9856
  416MOL0     H54881   7.350  10.943   2.461 -2.9340 -0.7807 -0.1537
  416MOL0     H54882   7.252  10.801   2.624 -1.5790  3.5435 -2.2532
  416MOL0     H54883   7.310  10.655   2.539  1.5614  0.9388  0.5521
  416MOL0     H54884   7.081  10.844   2.447 -1.1804 -0.4195  0.8433
  416MOL0     H54885   7.138  10.698   2.364  0.7072  2.2449 -1.2312
  416MOL0     H54886   7.023  10.722   2.638 -0.6301 -2.0250  0.9959
  416MOL0     H54887   7.083  10.568   2.579  1.6905  0.3584  3.2773
  416MOL0     H54888   6.916  10.595   2.372 -0.1751 -1.3209  0.9554
  416MOL0     H54889   6.852  10.734   2.442  0.6854 -0.5200 -2.8213
  416MOL0     H54890   6.726  10.516   2.473 -0.4592 -2.0008  0.7295
  416MOL0     H54891   6.860  10.469   2.587  0.9782  3.0366  3.4507
  416MOL0     H54892   6.702  10.725   2.640 -1.3182 -0.2248  0.1559
  416MOL0     H54893   6.782  10.609   2.753  2.6390 -0.0570 -2.0657
  416MOL0     H54894   7.716  10.655   2.515 -0.1382 -0.0243 -1.5841
  416MOL0     H54895   7.957  10.663   2.574  0.4066 -1.1798 -1.8619
  416MOL0     H54896   8.335  10.696   2.582 -0.0530 -0.6677 -0.8511
  416MOL0     H54897   8.584  10.636   2.612 -0.0838 -0.9626 -1.1946
  416MOL0     H54898   9.880  10.662   1.136  0.0816 -1.3757  0.2996
  416MOL0     H54899  10.057  10.839   1.139 -3.3900  1.6280  2.5377
  416MOL0     H54900  10.316  11.025   1.119 -0.1178 -1.4066  1.8193
  416MOL0     H54901  10.399  11.238   1.058  0.0177 -0.2685 -0.7097
  416MOL0     H54902  10.436  11.451   1.032  2.0657 -1.4319 -1.1292
  416MOL0     H54903  10.610  11.443   1.090  2.6800  3.4961  2.2858
  416MOL0     H54904  10.441  11.679   1.184 -1.6095  1.1045 -3.1641
  416MOL0     H54905  10.620  11.646   1.181  0.8524 -1.6706  0.0535
  416MOL0     H54906  10.544  11.807   1.009 -1.2998  0.3242  2.0345
  416MOL0     H54907  10.446  11.679   0.930 -0.1496  3.0542 -1.6881
  416MOL0     H54908  10.755  11.660   0.965  0.5284 -2.9194  0.4264
  416MOL0     H54909  10.659  11.553   0.876  4.6593  0.0055 -0.8722
  416MOL0     H54910  10.689  11.836   0.579 -0.1859  1.1786  0.2526
  416MOL0     H54911  10.428  11.352   1.467 -2.1081 -0.1869 -0.2321
  416MOL0     H54912  10.354  11.137   1.539 -0.7934 -1.1461  0.3720
  417MOL0     O54913   7.415   5.473   0.922 -0.0315 -0.2503  0.1309
  417MOL0     C54914   7.385   5.450   0.806  0.2923 -0.1299 -0.4836
  417MOL0     O54915   7.267   5.399   0.763  0.5060 -0.1248 -0.5046
  417MOL0     C54916   7.172   5.361   0.865  0.5187 -0.7381  0.5014
  417MOL0     C54917   7.194   5.279   0.972 -0.4721  0.4792  0.4445
  417MOL0     C54918   7.090   5.229   1.058  1.0368 -0.3395  0.2660
  417MOL0     C54919   6.958   5.282   1.051 -0.6134 -0.3626  0.3003
  417MOL0     O54920   6.873   5.254   1.145 -0.2983  0.1872 -0.5424
  417MOL0     C54921   6.738   5.271   1.135  0.3558  0.7339 -0.7298
  417MOL0     C54922   6.667   5.183   1.043 -0.5430  0.4395  0.3382
  417MOL0     C54923   6.520   5.201   1.015 -0.2990 -0.6621  0.1337
  417MOL0     C54924   6.446   5.093   0.927 -1.0765 -0.6256  0.1558
  417MOL0     C54925   6.323   5.147   0.851 -0.9967 -1.1315  0.1198
  417MOL0     C54926   6.206   5.171   0.951  0.6343  0.6411  0.2570
  417MOL0     C54927   6.073   5.183   0.881  0.1624 -0.3189 -0.0133
  417MOL0     C54928   5.968   5.247   0.970  0.0432  0.7362  0.1115
  417MOL0     N54929   5.827   5.232   0.920  0.0802  0.1000 -0.0285
  417MOL0     C54930   5.783   5.200   0.795  0.2611 -0.0380  0.0919
  417MOL0     C54931   5.650   5.220   0.797  0.2917  1.0721 -0.5350
  417MOL0     C54932   5.552   5.186   0.695  0.0983  0.5972 -0.0806
  417MOL0     C54933   5.441   5.302   0.681  0.0778  0.2852 -0.7233
  417MOL0     C54934   5.334   5.241   0.593  0.3075 -0.6433 -0.8916
  417MOL0     C54935   5.244   5.146   0.673  1.0808 -0.2682 -0.4248
  417MOL0     O54936   5.134   5.131   0.581 -0.3942  0.3041  0.6727
  417MOL0     C54937   5.013   5.082   0.622  0.5419  0.3039  0.4701
  417MOL0     C54938   4.988   5.029   0.750  0.0917 -0.8087 -0.1452
  417MOL0     C54939   4.867   4.976   0.792 -0.4252 -0.2245  0.2164
  417MOL0     C54940   4.753   4.988   0.711 -0.3795 -1.3760  0.7240
  417MOL0     C54941   4.614   4.962   0.760 -1.1522 -0.2351 -0.4247
  417MOL0     O54942   4.616   4.927   0.894  0.1578 -1.0782  0.2574
  417MOL0     C54943   4.520   4.856   0.967  0.2199 -0.3664  0.7181
  417MOL0     C54944   4.411   4.798   0.910  0.4614 -0.5376 -0.0990
  417MOL0     C54945   4.317   4.735   0.995 -1.3167  0.5236  0.4436
  417MOL0     C54946   4.333   4.731   1.133 -0.1977 -0.4996  0.5648
  417MOL0     O54947   4.240   4.681   1.228 -0.2639 -0.6569  1.0302
  417MOL0     C54948   4.100   4.677   1.193  0.7141  0.2429 -0.5341
  417MOL0     C54949   3.994   4.678   1.313  0.0477  0.1190  0.3684
  417MOL0     C54950   4.006   4.797   1.408 -0.3955  1.0000  0.4221
  417MOL0     C54951   3.953   4.926   1.360 -0.4846 -0.0655  0.2017
  417MOL0     C54952   4.035   5.038   1.413  0.0665 -0.0382 -0.0344
  417MOL0     C54953   4.048   5.031   1.567  0.4928 -0.0371  0.4395
  417MOL0     C54954   4.116   5.164   1.617  0.4909 -1.0247 -0.5746
  417MOL0     C54955   4.172   5.148   1.753 -0.4695 -0.5256  0.6642
  417MOL0    Cl54956   4.050   5.114   1.873  0.0897 -0.2455 -0.0780
  417MOL0     C54957   4.442   4.796   1.185 -0.4734  0.9108 -0.5706
  417MOL0     C54958   4.543   4.848   1.105  0.2713 -0.0051 -0.6369
  417MOL0     O54959   4.525   4.963   0.674 -0.7803  0.3701  1.0124
  417MOL0     C54960   4.773   5.049   0.585 -0.4569 -0.5208  0.0362
  417MOL0     C54961   4.902   5.079   0.534 -0.1680 -0.3177  0.6424
  417MOL0     N54962   5.616   5.258   0.927  0.2539  0.0935  0.3031
  417MOL0     N54963   5.723   5.272   0.997  0.4286  0.8993  0.6662
  417MOL0     C54964   6.929   5.363   0.943 -0.3558  0.1416 -0.5758
  417MOL0     C54965   7.037   5.401   0.846 -0.0314 -0.0353 -0.5194
  417MOL0     C54966   7.463   5.502   0.704 -0.9105  0.0857 -0.0156
  417MOL0     C54967   7.536   5.625   0.721  0.0308  0.2759 -0.3058
  417MOL0     C54968   7.603   5.682   0.611 -0.4884  0.0492  0.6829
  417MOL0     C54969   7.620   5.611   0.493 -0.1337 -0.3238  1.1002
  417MOL0     O54970   7.675   5.674   0.384 -0.4670  0.0758  0.0255
  417MOL0     C54971   7.814   5.652   0.369  0.0565 -0.0697  0.5562
  417MOL0     C54972   7.829   5.537   0.264  0.2890  0.4472 -0.0284
  417MOL0     C54973   7.747   5.576   0.137 -0.6768  0.2066  0.0856
  417MOL0     C54974   7.771   5.473   0.023  0.9571  0.0674  0.7987
  417MOL0     C54975   7.856   5.528  -0.087  0.7101  0.2237  0.1090
  417MOL0     C54976   7.923   5.572  -0.176 -0.3274 -0.4873  0.5974
  417MOL0     C54977   7.553   5.489   0.469 -0.4237  1.0203 -0.6606
  417MOL0     C54978   7.475   5.444   0.578  0.1096 -0.5561  0.4047
  417MOL0     H54979   7.294   5.247   1.002 -0.8634  0.1967  1.5160
  417MOL0     H54980   7.126   5.178   1.147  1.6929  1.7775  1.2890
  417MOL0     H54981   6.724   5.377   1.110  1.5900  0.9590 -0.5156
  417MOL0     H54982   6.696   5.259   1.235 -0.0912 -1.3958 -1.1246
  417MOL0     H54983   6.675   5.080   1.081 -0.9812  0.3046  0.0803
  417MOL0     H54984   6.721   5.182   0.948  2.5716 -3.6183  1.8467
  417MOL0     H54985   6.510   5.305   0.983  1.5603  0.8072  3.7381
  417MOL0     H54986   6.477   5.192   1.116 -2.6532  0.5761 -0.6919
  417MOL0     H54987   6.519   5.049   0.858 -0.3252 -0.0904  0.5942
  417MOL0     H54988   6.403   5.014   0.989 -1.0561 -0.6577  0.1294
  417MOL0     H54989   6.303   5.054   0.796  0.4636 -1.0699 -0.5459
  417MOL0     H54990   6.347   5.232   0.787 -0.7879 -1.4710 -0.2606
  417MOL0     H54991   6.215   5.268   1.001 -0.5041  1.2912 -0.7553
  417MOL0     H54992   6.203   5.094   1.029 -1.9643 -0.0841 -0.4529
  417MOL0     H54993   6.082   5.251   0.795  1.1880  1.2199  1.2506
  417MOL0     H54994   6.044   5.082   0.850  3.1590 -2.2816  2.9147
  417MOL0     H54995   5.989   5.348   1.006 -1.7454  1.6184 -1.1767
  417MOL0     H54996   5.955   5.186   1.060  0.2875 -0.5239 -0.6676
  417MOL0     H54997   5.836   5.171   0.705 -0.2177  0.2030 -0.2757
  417MOL0     H54998   5.502   5.092   0.719 -1.9460  2.2330  2.7485
  417MOL0     H54999   5.610   5.165   0.605  1.7465  2.0741  0.5755
  417MOL0     H55000   5.482   5.395   0.640 -0.6600  1.6923  1.5686
  417MOL0     H55001   5.398   5.322   0.779  0.4642  2.2554 -0.9207
  417MOL0     H55002   5.272   5.322   0.556  2.7315  2.0050  0.4141
  417MOL0     H55003   5.376   5.196   0.503  1.5581 -1.4675  0.0651
  417MOL0     H55004   5.214   5.194   0.766 -1.4466  1.4038 -1.9759
  417MOL0     H55005   5.297   5.052   0.693  5.1998  1.2605 -2.8441
  417MOL0     H55006   5.063   5.024   0.829  1.4092  0.8913 -1.2127
  417MOL0     H55007   4.863   4.955   0.898  1.3623  1.5114  0.6935
  417MOL0     H55008   4.397   4.789   0.803  0.6930 -0.8580 -0.1049
  417MOL0     H55009   4.245   4.670   0.946  0.6883 -2.3856  1.0730
  417MOL0     H55010   4.079   4.581   1.144  2.0781 -1.2038  1.5518
  417MOL0     H55011   4.074   4.748   1.114 -0.3914 -0.2299 -0.6088
  417MOL0     H55012   4.017   4.588   1.372  1.6197  0.7861  0.8482
  417MOL0     H55013   3.902   4.672   1.256  0.8766  2.0108 -1.2932
  417MOL0     H55014   4.108   4.823   1.437 -0.3110  2.2391 -0.8793
  417MOL0     H55015   3.950   4.772   1.499 -1.0849 -2.3503 -0.7819
  417MOL0     H55016   3.954   4.931   1.250  0.3440  1.7918  0.2631
  417MOL0     H55017   3.848   4.947   1.385  0.1346  4.7721 -0.3090
  417MOL0     H55018   4.002   5.135   1.376 -1.9101 -0.1417  1.3027
  417MOL0     H55019   4.136   5.032   1.370  0.5657 -3.1785  1.2259
  417MOL0     H55020   4.102   4.943   1.605  0.3808 -2.4287 -4.1959
  417MOL0     H55021   3.943   5.021   1.596 -0.3223  1.1831 -1.8474
  417MOL0     H55022   4.199   5.174   1.546 -2.2344  0.9485 -3.8541
  417MOL0     H55023   4.051   5.252   1.605  1.7062 -0.0399 -0.1320
  417MOL0     H55024   4.240   5.232   1.771  2.0729 -1.3821 -3.5326
  417MOL0     H55025   4.236   5.059   1.755 -0.5612 -0.6769 -1.4514
  417MOL0     H55026   4.462   4.801   1.292 -0.8041 -0.2515 -0.4397
  417MOL0     H55027   4.627   4.894   1.155 -0.6328  0.6731  0.3015
  417MOL0     H55028   4.683   5.053   0.525 -1.6736 -1.4796  1.7194
  417MOL0     H55029   4.903   5.131   0.439 -0.8131  0.6255  1.1403
  417MOL0     H55030   6.833   5.413   0.948 -0.8361 -0.8556  1.9456
  417MOL0     H55031   7.012   5.465   0.762  0.0793 -1.6309 -1.8355
  417MOL0     H55032   7.526   5.671   0.819  1.6951  0.1201 -0.0404
  417MOL0     H55033   7.644   5.782   0.618 -0.7702  0.2599 -0.5276
  417MOL0     H55034   7.868   5.622   0.459 -0.5077 -0.3256  0.8189
  417MOL0     H55035   7.865   5.746   0.348  1.4134 -1.2784 -2.0402
  417MOL0     H55036   7.934   5.524   0.236  0.2336 -1.3118  0.4667
  417MOL0     H55037   7.789   5.447   0.311  1.1674  0.6407  1.1218
  417MOL0     H55038   7.775   5.678   0.109 -4.1589  1.7207  1.5047
  417MOL0     H55039   7.639   5.582   0.155 -0.4294  0.4161  1.5982
  417MOL0     H55040   7.795   5.374   0.062 -0.4422 -0.1264  1.2009
  417MOL0     H55041   7.674   5.458  -0.024  0.9655  1.1313  0.3982
  417MOL0     H55042   7.982   5.612  -0.255 -0.0927  5.4179  3.2647
  417MOL0     H55043   7.566   5.428   0.381  0.0032  1.2007 -0.7225
  417MOL0     H55044   7.433   5.343   0.574 -2.3411  0.2724  2.5323
  418MOL0     O55045   0.487   1.741   5.620  0.2366 -0.3473  0.3825
  418MOL0     C55046   0.498   1.701   5.735  0.2089  0.7504  0.3730
  418MOL0     O55047   0.613   1.674   5.804 -0.4183 -0.1211 -0.7122
  418MOL0     C55048   0.724   1.695   5.726  0.4087 -0.1466  0.7205
  418MOL0     C55049   0.822   1.602   5.695 -0.2055  0.4464 -0.6652
  418MOL0     C55050   0.941   1.623   5.627  0.6622  1.0124  0.1800
  418MOL0     C55051   0.973   1.750   5.584 -0.2649  0.6275 -0.6804
  418MOL0     O55052   1.094   1.774   5.532 -0.8458  0.4924 -0.0048
  418MOL0     C55053   1.169   1.892   5.557  1.0582  0.2698 -0.4781
  418MOL0     C55054   1.323   1.876   5.544  0.2736 -0.6134 -0.0315
  418MOL0     C55055   1.374   1.846   5.402  0.3688 -0.1664  0.5674
  418MOL0     C55056   1.529   1.854   5.388  0.0105 -0.5493 -0.5384
  418MOL0     C55057   1.602   1.736   5.463  0.1573 -0.3293  0.4721
  418MOL0     C55058   1.752   1.750   5.421  0.4904 -0.6342  0.5703
  418MOL0     C55059   1.832   1.664   5.521 -0.6524  0.3600  0.1365
  418MOL0     C55060   1.984   1.665   5.505  0.2536 -1.2437  0.3381
  418MOL0     N55061   2.036   1.554   5.418  0.9421 -1.2942 -0.0283
  418MOL0     C55062   2.146   1.474   5.450  0.6442 -0.0146  0.1002
  418MOL0     C55063   2.153   1.385   5.343  0.1661  0.6676  0.1010
  418MOL0     C55064   2.241   1.258   5.338  0.5036 -0.6162 -0.1456
  418MOL0     C55065   2.293   1.213   5.197  0.9253  0.5571 -0.7871
  418MOL0     C55066   2.194   1.188   5.080  0.2715  0.2638 -0.0265
  418MOL0     C55067   2.101   1.078   5.109  0.4019  0.0951  0.2093
  418MOL0     O55068   2.004   1.051   5.011  0.8037 -0.6063 -0.3392
  418MOL0     C55069   1.874   1.111   5.024 -0.0895  0.0454  0.1621
  418MOL0     C55070   1.775   1.050   4.939 -0.3351 -0.5164 -0.4173
  418MOL0     C55071   1.640   1.092   4.933  0.1546 -0.0773  0.5053
  418MOL0     C55072   1.602   1.203   5.006  0.0733  0.5663  0.6189
  418MOL0     C55073   1.465   1.248   5.008  0.5203 -0.2508 -0.0058
  418MOL0     O55074   1.403   1.250   4.887  0.1315 -0.3801 -0.7396
  418MOL0     C55075   1.304   1.337   4.858  0.0764  0.5488 -0.6230
  418MOL0     C55076   1.312   1.421   4.748 -1.6387  0.5731  0.6383
  418MOL0     C55077   1.198   1.493   4.699  0.3074  0.2182 -0.2607
  418MOL0     C55078   1.079   1.482   4.765 -0.4676 -0.3589 -0.8976
  418MOL0     O55079   0.973   1.535   4.706 -0.9587  0.6279 -0.1369
  418MOL0     C55080   0.841   1.545   4.767  0.6813  0.5194 -1.0366
  418MOL0     C55081   0.744   1.586   4.668  0.7517  0.1446 -0.8919
  418MOL0     C55082   0.621   1.640   4.740  0.3957  0.1129  0.1830
  418MOL0     C55083   0.549   1.526   4.819 -0.3020  0.1565  0.1270
  418MOL0     C55084   0.410   1.574   4.865  0.7696 -0.2465 -0.1621
  418MOL0     C55085   0.328   1.460   4.916 -0.7026  0.1773 -0.0995
  418MOL0     C55086   0.189   1.488   4.973 -0.7252 -1.1933 -0.1055
  418MOL0     C55087   0.087   1.533   4.867 -0.9174 -0.3103 -0.1225
  418MOL0    Cl55088   0.031   1.381   4.786  0.1421  0.0438 -0.3405
  418MOL0     C55089   1.081   1.425   4.899 -0.7155 -0.3348  1.0512
  418MOL0     C55090   1.188   1.338   4.935 -0.5195 -0.2196 -0.2223
  418MOL0     O55091   1.431   1.307   5.117 -0.7695  0.7260  0.0314
  418MOL0     C55092   1.702   1.257   5.098  0.3922  0.5820  0.3881
  418MOL0     C55093   1.834   1.212   5.102  0.1547 -0.1859 -0.4690
  418MOL0     N55094   2.070   1.430   5.243 -0.7320  0.7180  0.7938
  418MOL0     N55095   1.998   1.525   5.289 -0.5372 -0.6869 -0.3279
  418MOL0     C55096   0.884   1.856   5.617  0.0589  0.4585 -0.2596
  418MOL0     C55097   0.758   1.827   5.682  1.0625  0.3347 -0.2042
  418MOL0     C55098   0.376   1.658   5.792 -0.0081 -1.2211 -0.2331
  418MOL0     C55099   0.310   1.552   5.743 -0.9277 -0.3781 -0.4099
  418MOL0     C55100   0.192   1.502   5.799  0.7103  0.4556  0.9884
  418MOL0     C55101   0.135   1.569   5.904  0.7032  0.7986  0.0829
  418MOL0     O55102   0.006   1.516   5.935  1.0338  0.4028  0.0724
  418MOL0     C55103  -0.042   1.541   6.074  0.2264  0.3124 -0.4439
  418MOL0     C55104  -0.170   1.455   6.098 -0.4425  0.3443  0.4510
  418MOL0     C55105  -0.156   1.301   6.084  0.7396  0.2090 -1.0848
  418MOL0     C55106  -0.235   1.223   6.195 -0.6278 -0.5869  0.3380
  418MOL0     C55107  -0.191   1.085   6.223 -0.3046  0.1108  0.0012
  418MOL0     C55108  -0.167   0.971   6.252  0.1936  0.5588  0.3035
  418MOL0     C55109   0.203   1.674   5.970  0.8880  1.0208  0.2185
  418MOL0     C55110   0.326   1.708   5.916  0.4177 -0.2478 -0.8540
  418MOL0     H55111   0.794   1.502   5.728  1.2854  0.4766  0.8470
  418MOL0     H55112   1.002   1.541   5.590  0.7559  0.3950  1.6440
  418MOL0     H55113   1.154   1.927   5.659  2.0206 -0.2236 -0.1560
  418MOL0     H55114   1.137   1.966   5.483 -0.8448 -1.8674 -1.9522
  418MOL0     H55115   1.363   1.794   5.605  1.2442 -0.2966 -0.2277
  418MOL0     H55116   1.362   1.967   5.590  1.6536 -1.2351  0.0755
  418MOL0     H55117   1.325   1.899   5.320  0.1530 -3.7304 -1.8229
  418MOL0     H55118   1.340   1.742   5.394  0.3882 -0.3454  2.3602
  418MOL0     H55119   1.557   1.861   5.282 -1.7646  0.3330 -0.9823
  418MOL0     H55120   1.561   1.945   5.441  0.1312 -1.1244  0.3892
  418MOL0     H55121   1.570   1.644   5.414 -0.1736 -0.2156  0.4706
  418MOL0     H55122   1.594   1.746   5.571 -1.1046 -1.3177  0.4999
  418MOL0     H55123   1.783   1.855   5.425 -2.2172  0.2036  2.5903
  418MOL0     H55124   1.776   1.714   5.321 -0.2075  3.8069 -1.4498
  418MOL0     H55125   1.803   1.700   5.620  2.3088  0.9989  0.8590
  418MOL0     H55126   1.812   1.556   5.516 -1.6580  0.5234  0.3891
  418MOL0     H55127   2.039   1.659   5.600  0.9483 -2.9054 -0.1212
  418MOL0     H55128   2.019   1.761   5.465  2.0361 -2.3039 -0.7852
  418MOL0     H55129   2.207   1.472   5.539  1.0658  0.5555 -0.1775
  418MOL0     H55130   2.177   1.181   5.383  2.5056 -0.8252  2.5810
  418MOL0     H55131   2.324   1.260   5.409  0.3490 -0.0922  0.0303
  418MOL0     H55132   2.342   1.116   5.207  0.5177  0.3546 -0.7629
  418MOL0     H55133   2.360   1.291   5.158 -0.5624  2.0997 -0.3890
  418MOL0     H55134   2.142   1.280   5.055  1.9807  1.2803 -0.0457
  418MOL0     H55135   2.250   1.170   4.988 -0.1522 -1.7298  0.0643
  418MOL0     H55136   2.035   1.093   5.195 -1.7398  1.6408 -1.5853
  418MOL0     H55137   2.164   0.990   5.126 -3.3330 -3.2436 -1.5537
  418MOL0     H55138   1.806   0.965   4.879  1.1710  1.1326 -2.1246
  418MOL0     H55139   1.577   1.047   4.857  1.0067  0.6617 -0.6726
  418MOL0     H55140   1.411   1.423   4.705 -2.4544 -0.1181 -1.4027
  418MOL0     H55141   1.197   1.552   4.608 -2.0674 -0.0687 -0.5000
  418MOL0     H55142   0.852   1.617   4.849  1.4508 -1.4150  0.6220
  418MOL0     H55143   0.809   1.448   4.805 -0.2242  0.7003 -1.3216
  418MOL0     H55144   0.717   1.501   4.605 -0.8109 -0.0488 -0.0202
  418MOL0     H55145   0.794   1.660   4.605 -0.3087  1.8197  0.1359
  418MOL0     H55146   0.557   1.688   4.665 -1.0412 -1.1937  0.5199
  418MOL0     H55147   0.643   1.710   4.821  2.7430 -0.3223 -0.0133
  418MOL0     H55148   0.537   1.435   4.760 -1.5515  1.4216 -1.7153
  418MOL0     H55149   0.606   1.501   4.909 -0.7731  0.6424  0.5710
  418MOL0     H55150   0.341   1.617   4.791 -1.6767  1.7018  2.9808
  418MOL0     H55151   0.421   1.647   4.946 -0.8166  1.2446 -1.2233
  418MOL0     H55152   0.387   1.413   4.995 -1.2652 -1.9915 -0.8950
  418MOL0     H55153   0.319   1.378   4.844  1.3432  1.1274 -1.5230
  418MOL0     H55154   0.143   1.405   5.027 -0.2667 -0.9211  0.7288
  418MOL0     H55155   0.209   1.569   5.044 -0.2821  1.8108 -3.3839
  418MOL0     H55156   0.131   1.600   4.791  0.9802 -2.8896 -1.4410
  418MOL0     H55157   0.005   1.584   4.919  0.7367  2.2900  0.1381
  418MOL0     H55158   0.993   1.428   4.962 -0.9628  4.0894  0.8057
  418MOL0     H55159   1.170   1.289   5.030 -0.0432  2.2441  1.2473
  418MOL0     H55160   1.689   1.349   5.153  1.0281  1.0924 -0.3011
  418MOL0     H55161   1.905   1.272   5.158 -0.1560  1.4436 -1.7259
  418MOL0     H55162   0.921   1.957   5.602 -0.9651  1.0001  0.7616
  418MOL0     H55163   0.687   1.904   5.710 -1.8572 -2.0617 -0.4753
  418MOL0     H55164   0.367   1.500   5.666 -0.4021 -1.2932  0.5599
  418MOL0     H55165   0.142   1.423   5.745 -1.9109  0.5552  3.1002
  418MOL0     H55166  -0.073   1.646   6.080  0.0185  0.2352 -0.1664
  418MOL0     H55167   0.036   1.521   6.149 -2.4311 -1.2504  2.0957
  418MOL0     H55168  -0.200   1.474   6.201  0.1989  1.6146  0.4358
  418MOL0     H55169  -0.244   1.489   6.025 -0.1919 -1.5549 -0.7326
  418MOL0     H55170  -0.053   1.268   6.073 -0.0166 -2.9055  0.0520
  418MOL0     H55171  -0.210   1.276   5.992  1.9597  0.4501 -1.8857
  418MOL0     H55172  -0.221   1.272   6.292 -1.4329  0.8318 -0.2383
  418MOL0     H55173  -0.337   1.232   6.157 -0.3659  0.2613 -0.1943
  418MOL0     H55174  -0.161   0.872   6.292 -0.6197 -0.1549 -1.2385
  418MOL0     H55175   0.155   1.733   6.048  0.2959  0.5194  0.2460
  418MOL0     H55176   0.380   1.784   5.972  1.4233 -0.3705 -1.6359
  419MOL0     O55177  10.772   5.053   1.525 -0.4031  0.0935 -0.4031
  419MOL0     C55178  10.787   4.970   1.616  2.0034  0.6287 -0.0279
  419MOL0     O55179  10.682   4.907   1.681 -0.7649  0.1163 -0.7387
  419MOL0     C55180  10.553   4.904   1.647  0.7836 -0.0738 -0.8412
  419MOL0     C55181  10.459   4.871   1.746 -0.4562 -0.2017  0.1415
  419MOL0     C55182  10.317   4.851   1.718  0.0671 -0.0835 -0.4127
  419MOL0     C55183  10.270   4.883   1.588  0.0013 -0.5452  0.3323
  419MOL0     O55184  10.139   4.853   1.559 -0.0802  0.3470  0.0825
  419MOL0     C55185  10.132   4.782   1.441  0.3376  0.2934 -0.0559
  419MOL0     C55186  10.004   4.704   1.426  1.0734  0.4459  0.0930
  419MOL0     C55187   9.911   4.785   1.339  0.9238  0.2939 -0.7701
  419MOL0     C55188   9.777   4.705   1.318  0.1813 -0.4257 -0.6517
  419MOL0     C55189   9.695   4.785   1.218 -0.2400  0.4097 -0.3976
  419MOL0     C55190   9.564   4.722   1.172 -0.0195 -0.1503 -0.6851
  419MOL0     C55191   9.483   4.815   1.087 -0.2600  0.1495 -0.3981
  419MOL0     C55192   9.401   4.931   1.139 -0.5052 -0.1014  0.0588
  419MOL0     N55193   9.325   5.021   1.054  0.7326  0.1659 -0.2749
  419MOL0     C55194   9.210   4.984   0.977  0.2911  0.3607  0.5832
  419MOL0     C55195   9.177   5.104   0.915  0.2623  0.1109 -0.1690
  419MOL0     C55196   9.040   5.141   0.853 -0.9042  0.1600  0.0532
  419MOL0     C55197   9.039   5.075   0.712 -0.0328 -0.5821  0.4863
  419MOL0     C55198   8.885   5.084   0.661 -0.1283 -0.9594  0.0394
  419MOL0     C55199   8.854   5.014   0.533 -0.2943  0.6489  0.2895
  419MOL0     O55200   8.866   4.871   0.549 -1.1586  0.3676  0.6369
  419MOL0     C55201   8.757   4.798   0.581 -0.4651  0.0362  0.6740
  419MOL0     C55202   8.772   4.654   0.582  0.5308 -0.2145 -0.9553
  419MOL0     C55203   8.670   4.565   0.622 -0.1011  0.2154  0.9167
  419MOL0     C55204   8.542   4.619   0.648 -0.0973 -0.0838 -0.1548
  419MOL0     C55205   8.428   4.527   0.664 -0.0140  0.1978 -0.2600
  419MOL0     O55206   8.306   4.588   0.635 -0.3452 -0.6656 -0.5855
  419MOL0     C55207   8.183   4.516   0.638 -0.1100  0.4594  0.2490
  419MOL0     C55208   8.170   4.390   0.693  0.1381  0.0987 -0.4198
  419MOL0     C55209   8.051   4.312   0.685  0.3869 -0.4732 -0.3378
  419MOL0     C55210   7.939   4.365   0.619  0.5624  0.4303  0.0292
  419MOL0     O55211   7.823   4.294   0.595  0.3260 -0.3179 -0.2335
  419MOL0     C55212   7.822   4.149   0.595  0.4031  0.6203  1.0170
  419MOL0     C55213   7.680   4.103   0.624  0.3272  0.3478  0.4429
  419MOL0     C55214   7.661   3.951   0.609  0.9971  0.7227 -0.2235
  419MOL0     C55215   7.548   3.920   0.511 -0.7581 -0.6526 -0.0514
  419MOL0     C55216   7.539   3.770   0.490  0.0708 -0.1853  0.5609
  419MOL0     C55217   7.413   3.744   0.403 -0.9028 -0.0702  0.1031
  419MOL0     C55218   7.275   3.776   0.464  0.6142 -0.0027 -0.1914
  419MOL0     C55219   7.167   3.679   0.453  0.3513 -0.5459  0.2339
  419MOL0    Cl55220   7.215   3.518   0.535 -0.6526  0.1860  0.0600
  419MOL0     C55221   7.946   4.493   0.565 -0.0702  0.0699  0.5309
  419MOL0     C55222   8.068   4.561   0.569 -0.7674 -0.1360  0.2229
  419MOL0     O55223   8.446   4.406   0.699 -0.7144 -0.5316  0.0767
  419MOL0     C55224   8.530   4.765   0.639 -0.0872 -0.2390 -0.2830
  419MOL0     C55225   8.628   4.849   0.605  0.2033 -0.0388  0.5924
  419MOL0     N55226   9.267   5.200   0.949  0.4476  0.5836  0.3790
  419MOL0     N55227   9.347   5.156   1.037  0.0288  0.2806  0.5348
  419MOL0     C55228  10.362   4.928   1.492  0.0510  0.0269 -0.8351
  419MOL0     C55229  10.497   4.937   1.522  0.4303  0.2790  0.1295
  419MOL0     C55230  10.917   4.958   1.663  0.6253  0.0148  0.0728
  419MOL0     C55231  10.938   4.890   1.788 -0.1638 -0.2428  0.1651
  419MOL0     C55232  11.068   4.892   1.837 -0.1851 -0.8007 -1.0010
  419MOL0     C55233  11.172   4.955   1.780  0.2315  0.2885  0.6221
  419MOL0     O55234  11.289   4.946   1.850  0.2430 -0.2778  0.6134
  419MOL0     C55235  11.363   5.070   1.839  1.0309  0.4327  0.7337
  419MOL0     C55236  11.461   5.090   1.956  0.5189 -0.3546 -0.4302
  419MOL0     C55237  11.541   4.965   2.008 -0.2011 -0.4450  0.3073
  419MOL0     C55238  11.667   5.017   2.094 -0.0721  0.0938  0.0199
  419MOL0     C55239  11.632   5.107   2.195  0.7717  0.5404  0.2692
  419MOL0     C55240  11.604   5.185   2.283 -0.7101 -0.2724 -0.3962
  419MOL0     C55241  11.150   5.022   1.658  0.7436 -1.0874  0.3845
  419MOL0     C55242  11.025   5.020   1.599 -0.2050 -0.5986  0.7640
  419MOL0     H55243  10.489   4.832   1.843  0.7864 -1.0516 -0.5588
  419MOL0     H55244  10.247   4.821   1.796 -1.5639  3.3484 -0.3397
  419MOL0     H55245  10.211   4.706   1.439 -0.3281 -0.5130  2.1925
  419MOL0     H55246  10.136   4.859   1.363  0.2157  0.4491  0.0938
  419MOL0     H55247   9.952   4.694   1.522 -1.5309 -0.8688 -1.3539
  419MOL0     H55248  10.020   4.610   1.372 -0.2058  0.2451  0.0526
  419MOL0     H55249   9.966   4.794   1.245  0.5649 -0.2949 -1.0373
  419MOL0     H55250   9.890   4.882   1.386 -1.2545  0.4816 -2.0125
  419MOL0     H55251   9.779   4.602   1.282 -0.5255 -0.4294 -0.6945
  419MOL0     H55252   9.716   4.701   1.409 -1.3035 -0.3834 -1.6160
  419MOL0     H55253   9.750   4.805   1.126  2.0698  1.3180  1.0817
  419MOL0     H55254   9.674   4.887   1.251 -0.3721  1.0978 -2.4716
  419MOL0     H55255   9.512   4.699   1.265 -0.0421 -0.3576 -0.7485
  419MOL0     H55256   9.568   4.624   1.125 -0.5927 -0.3607 -0.3068
  419MOL0     H55257   9.553   4.862   1.017  1.4793 -0.9293  0.5285
  419MOL0     H55258   9.407   4.754   1.038  1.6423 -1.4705 -1.5040
  419MOL0     H55259   9.483   4.993   1.176 -1.1797  0.6891  0.2765
  419MOL0     H55260   9.343   4.906   1.228  1.9121  0.3622  1.8624
  419MOL0     H55261   9.160   4.888   0.979 -0.3038  0.6819  1.5005
  419MOL0     H55262   9.038   5.250   0.842  1.7212  0.4738  1.7035
  419MOL0     H55263   8.950   5.105   0.904 -1.1096 -1.7487 -1.5354
  419MOL0     H55264   9.083   4.975   0.718  1.6766  0.1609  0.9932
  419MOL0     H55265   9.098   5.142   0.648  0.5533 -1.8415 -0.3270
  419MOL0     H55266   8.812   5.047   0.734 -1.4579  2.4117  0.6066
  419MOL0     H55267   8.865   5.191   0.651 -2.6233 -1.4615 -0.9735
  419MOL0     H55268   8.938   5.040   0.468  2.9994 -3.2522  2.4823
  419MOL0     H55269   8.758   5.040   0.487 -1.2219 -0.9741  1.1919
  419MOL0     H55270   8.871   4.616   0.557 -0.1404 -2.2528 -0.6824
  419MOL0     H55271   8.692   4.459   0.619 -2.1249 -0.2465  1.1981
  419MOL0     H55272   8.240   4.364   0.771  1.5508  3.0892 -0.5481
  419MOL0     H55273   8.049   4.212   0.726 -0.2017 -0.7725 -1.0854
  419MOL0     H55274   7.896   4.100   0.659  0.8165  1.0547  0.8827
  419MOL0     H55275   7.833   4.102   0.497  1.4131 -2.1248  2.3409
  419MOL0     H55276   7.610   4.161   0.563  1.4085  0.0695 -1.1394
  419MOL0     H55277   7.651   4.121   0.728  3.2728 -3.9879  2.3222
  419MOL0     H55278   7.630   3.913   0.707 -0.1117  0.3246 -0.7137
  419MOL0     H55279   7.754   3.904   0.577  2.5068  2.8833  0.7944
  419MOL0     H55280   7.454   3.966   0.544 -0.3690 -1.5898  2.5493
  419MOL0     H55281   7.573   3.958   0.411  0.6664  0.2103  0.6121
  419MOL0     H55282   7.530   3.708   0.580 -0.8955 -1.7271 -0.5396
  419MOL0     H55283   7.633   3.730   0.452 -0.2895 -2.5478  1.9741
  419MOL0     H55284   7.404   3.637   0.383 -2.4383 -0.1637  1.1017
  419MOL0     H55285   7.420   3.796   0.307 -2.2881 -0.7445 -0.3945
  419MOL0     H55286   7.287   3.793   0.572  1.1150  0.3995 -0.3067
  419MOL0     H55287   7.237   3.860   0.405 -0.8697 -0.9263 -0.6089
  419MOL0     H55288   7.129   3.670   0.351  0.1426 -1.7115  0.3981
  419MOL0     H55289   7.081   3.717   0.508  0.6134  0.7723 -0.2303
  419MOL0     H55290   7.867   4.525   0.498  0.6691  0.3073 -0.2477
  419MOL0     H55291   8.064   4.653   0.511 -1.2788  0.3555  1.0223
  419MOL0     H55292   8.437   4.817   0.662  1.0615  1.7554  0.0682
  419MOL0     H55293   8.607   4.955   0.597  3.1992  0.4621 -3.5823
  419MOL0     H55294  10.346   4.944   1.386  4.5727 -0.6636 -1.8173
  419MOL0     H55295  10.559   4.966   1.438  0.3542 -1.8012 -0.6871
  419MOL0     H55296  10.867   4.829   1.844  1.7767 -0.1375  2.9281
  419MOL0     H55297  11.097   4.842   1.929  1.0018  1.5839  0.0086
  419MOL0     H55298  11.294   5.154   1.848  1.6185  0.9989  0.0991
  419MOL0     H55299  11.415   5.074   1.743  0.1441 -2.1519  0.0483
  419MOL0     H55300  11.534   5.167   1.931  0.7986  0.8979  3.6419
  419MOL0     H55301  11.397   5.127   2.036 -0.3135 -3.1647  0.3311
  419MOL0     H55302  11.579   4.916   1.918 -0.8975  0.8628 -0.7415
  419MOL0     H55303  11.482   4.895   2.067  0.5231 -0.5376  0.9360
  419MOL0     H55304  11.730   4.936   2.132 -0.3792 -0.1085  0.1011
  419MOL0     H55305  11.733   5.073   2.027  1.5206 -2.1068 -0.3191
  419MOL0     H55306  11.603   5.249   2.369  0.1057  3.2796 -2.7734
  419MOL0     H55307  11.232   5.071   1.605  0.6048 -2.4159 -1.1246
  419MOL0     H55308  11.023   5.085   1.512  0.2323 -1.2351  0.2692
  420MOL0     O55309   8.594   6.574   8.924  0.2319  0.2178 -0.5878
  420MOL0     C55310   8.579   6.582   9.043 -0.3183 -0.3448 -0.0712
  420MOL0     O55311   8.464   6.627   9.106 -0.6789  0.3344 -0.1434
  420MOL0     C55312   8.349   6.660   9.038  0.5730 -0.1974 -0.6600
  420MOL0     C55313   8.273   6.770   9.082  0.6757 -0.0554 -0.2103
  420MOL0     C55314   8.149   6.796   9.035  0.0850  0.6881  0.3188
  420MOL0     C55315   8.089   6.723   8.930  0.2691 -0.4188 -0.3135
  420MOL0     O55316   7.963   6.748   8.875  0.4259  0.2437  0.2546
  420MOL0     C55317   7.860   6.805   8.952 -0.3849 -0.2440  0.2670
  420MOL0     C55318   7.727   6.777   8.881 -0.0734 -0.6451  0.4606
  420MOL0     C55319   7.721   6.802   8.736 -0.1295 -0.0947  0.4012
  420MOL0     C55320   7.581   6.803   8.676 -0.5662 -0.4970 -0.6341
  420MOL0     C55321   7.490   6.916   8.721  0.0423  0.7376  0.0073
  420MOL0     C55322   7.545   7.063   8.715  0.0248 -0.4418 -0.2013
  420MOL0     C55323   7.611   7.110   8.595 -0.3391 -1.0538  0.2357
  420MOL0     C55324   7.537   7.114   8.464 -0.6183  0.2569  0.4203
  420MOL0     N55325   7.400   7.158   8.479 -0.0852 -0.4820  0.4472
  420MOL0     C55326   7.291   7.078   8.502 -0.3857  0.2757  0.0921
  420MOL0     C55327   7.211   7.171   8.570  0.6782  0.7257 -0.8390
  420MOL0     C55328   7.082   7.161   8.646  0.0651 -0.6029 -0.1658
  420MOL0     C55329   7.006   7.040   8.611 -0.1378 -0.1361 -0.1757
  420MOL0     C55330   6.906   7.015   8.718 -0.7215 -0.5061  0.1158
  420MOL0     C55331   6.801   6.917   8.676 -0.2534  0.6963 -0.1572
  420MOL0     O55332   6.852   6.785   8.676 -0.1328  0.4509 -0.0013
  420MOL0     C55333   6.761   6.686   8.644 -0.1925  0.1762  0.7116
  420MOL0     C55334   6.794   6.552   8.621 -0.6849  0.2879  0.3418
  420MOL0     C55335   6.703   6.454   8.576 -0.5961  1.3218 -0.4108
  420MOL0     C55336   6.567   6.483   8.562  0.3832  1.0205  0.6654
  420MOL0     C55337   6.466   6.381   8.520  0.9869  0.9796 -0.2582
  420MOL0     O55338   6.341   6.422   8.541  0.3902  0.6713 -0.2562
  420MOL0     C55339   6.236   6.334   8.536  1.0700 -0.3662 -1.0047
  420MOL0     C55340   6.243   6.201   8.565  0.3106  1.3446  0.1086
  420MOL0     C55341   6.131   6.119   8.554  0.0629  0.0630 -0.0880
  420MOL0     C55342   6.006   6.177   8.516 -0.5252  0.1284  0.3838
  420MOL0     O55343   5.905   6.095   8.482  0.2726  0.2355 -0.2465
  420MOL0     C55344   5.766   6.131   8.515 -0.5412  0.1734 -0.0144
  420MOL0     C55345   5.684   5.998   8.509  1.0311  0.3229  0.1907
  420MOL0     C55346   5.536   6.020   8.549  0.3149  0.3260  0.1550
  420MOL0     C55347   5.463   5.892   8.580 -1.0684  0.2468 -0.9367
  420MOL0     C55348   5.315   5.905   8.619 -0.0032  0.3831 -0.3297
  420MOL0     C55349   5.263   5.758   8.610 -0.2437 -0.2793  0.0153
  420MOL0     C55350   5.114   5.742   8.638 -0.5269  0.4678 -0.2451
  420MOL0     C55351   5.065   5.782   8.786  0.1899  0.0592 -0.2936
  420MOL0    Cl55352   4.887   5.781   8.783 -0.2597 -0.0958  0.0247
  420MOL0     C55353   5.993   6.314   8.487 -0.6403 -0.7329 -0.4223
  420MOL0     C55354   6.109   6.394   8.497 -0.4463  0.4166  0.0471
  420MOL0     O55355   6.499   6.273   8.478  0.1133  0.1132  0.1035
  420MOL0     C55356   6.531   6.615   8.592 -0.0328 -0.1987 -0.4554
  420MOL0     C55357   6.623   6.709   8.632  0.5131 -0.6088  0.8079
  420MOL0     N55358   7.259   7.297   8.548  0.0959 -0.1100  0.1270
  420MOL0     N55359   7.369   7.288   8.489  0.2991  0.4531 -0.5725
  420MOL0     C55360   8.167   6.626   8.881 -0.3059  0.7583  0.4842
  420MOL0     C55361   8.293   6.589   8.932  0.0248  0.5123 -0.0359
  420MOL0     C55362   8.695   6.571   9.126 -0.4673  1.2723 -0.9487
  420MOL0     C55363   8.687   6.569   9.263  0.8266  0.2098 -0.5417
  420MOL0     C55364   8.804   6.567   9.347 -0.2151 -0.6362  0.4137
  420MOL0     C55365   8.936   6.557   9.287  0.5564 -0.2566 -0.1534
  420MOL0     O55366   9.055   6.578   9.346 -0.2413 -0.7272  0.4291
  420MOL0     C55367   9.061   6.592   9.489 -0.6661 -0.2315 -0.3988
  420MOL0     C55368   9.202   6.534   9.522  0.1515  0.4199  0.1592
  420MOL0     C55369   9.328   6.599   9.462  0.4327  0.9235 -0.0284
  420MOL0     C55370   9.452   6.506   9.467  0.5315 -0.2694  1.3663
  420MOL0     C55371   9.488   6.447   9.596  0.0896 -0.7390 -1.0750
  420MOL0     C55372   9.529   6.408   9.707  0.4221 -0.8257 -0.3330
  420MOL0     C55373   8.940   6.552   9.147 -0.5143 -0.6677  1.1917
  420MOL0     C55374   8.825   6.559   9.070  0.2218  0.7094 -0.0343
  420MOL0     H55375   8.312   6.840   9.155  0.4486  1.0852 -1.1560
  420MOL0     H55376   8.089   6.876   9.077 -2.5818 -1.4374  0.8202
  420MOL0     H55377   7.863   6.914   8.959  2.7563 -0.0786 -1.7817
  420MOL0     H55378   7.847   6.786   9.059 -0.1716 -0.0251  0.3339
  420MOL0     H55379   7.650   6.835   8.933  0.3754 -0.4590  0.9328
  420MOL0     H55380   7.699   6.673   8.899 -1.3307 -0.2859  0.6955
  420MOL0     H55381   7.779   6.723   8.689 -1.5782 -0.8448 -0.2137
  420MOL0     H55382   7.772   6.898   8.722 -0.3929  0.3614  2.3357
  420MOL0     H55383   7.583   6.787   8.568  1.4849 -1.3498 -0.5270
  420MOL0     H55384   7.531   6.714   8.716  0.1345 -0.1406  1.1372
  420MOL0     H55385   7.467   6.892   8.825  0.8919  0.8534  0.2368
  420MOL0     H55386   7.395   6.914   8.668 -1.6570 -0.4474  2.8898
  420MOL0     H55387   7.624   7.066   8.791  0.5041 -1.8357 -0.6099
  420MOL0     H55388   7.477   7.142   8.745  1.7156  0.8471  0.4211
  420MOL0     H55389   7.640   7.214   8.614 -0.3432 -1.0271  0.0924
  420MOL0     H55390   7.706   7.056   8.591 -0.6370 -2.2137  4.1903
  420MOL0     H55391   7.541   7.011   8.426 -0.5546 -0.0647  1.2727
  420MOL0     H55392   7.594   7.183   8.402  0.3926  1.0579  2.1765
  420MOL0     H55393   7.270   6.972   8.495 -3.5489  0.9009 -1.2072
  420MOL0     H55394   7.020   7.251   8.638 -1.0265 -1.2764  0.4613
  420MOL0     H55395   7.109   7.154   8.752 -1.7107 -1.8425  0.2522
  420MOL0     H55396   7.056   6.947   8.583  0.1446  0.2963 -1.1488
  420MOL0     H55397   6.951   7.071   8.521  0.9298 -1.1218 -1.2052
  420MOL0     H55398   6.963   6.997   8.810 -0.7456 -0.6481  0.1021
  420MOL0     H55399   6.852   7.108   8.740  0.1879  0.4811 -1.5465
  420MOL0     H55400   6.759   6.947   8.579 -3.0465 -1.3572  0.2920
  420MOL0     H55401   6.723   6.928   8.752  0.0019 -1.8416  0.5586
  420MOL0     H55402   6.892   6.522   8.655 -0.4569 -0.9480 -1.3046
  420MOL0     H55403   6.739   6.352   8.570 -1.0685  1.2004 -1.4365
  420MOL0     H55404   6.333   6.147   8.593 -0.5080  0.4368  1.1107
  420MOL0     H55405   6.141   6.018   8.592  0.2454  1.2253  3.2998
  420MOL0     H55406   5.730   6.204   8.441 -0.7581 -1.5803 -1.7178
  420MOL0     H55407   5.773   6.169   8.618  2.7349 -2.2091  0.8061
  420MOL0     H55408   5.727   5.920   8.573 -0.7910 -3.4986 -2.8230
  420MOL0     H55409   5.687   5.955   8.409  2.0023  1.7493 -0.4239
  420MOL0     H55410   5.487   6.073   8.466  2.9923  0.2734 -1.5681
  420MOL0     H55411   5.538   6.085   8.636  1.7353  0.5792 -0.0424
  420MOL0     H55412   5.463   5.846   8.481 -3.0733  0.4375 -1.0644
  420MOL0     H55413   5.518   5.839   8.659 -4.4502  0.2308  1.6457
  420MOL0     H55414   5.261   5.964   8.544 -0.0420 -2.9679 -3.2029
  420MOL0     H55415   5.306   5.956   8.715  1.2864 -0.5294  0.2975
  420MOL0     H55416   5.329   5.700   8.675  0.6060 -1.3633 -1.7415
  420MOL0     H55417   5.265   5.710   8.512 -0.4938 -1.8606  0.7417
  420MOL0     H55418   5.068   5.800   8.558 -2.2944 -0.3642  0.1140
  420MOL0     H55419   5.072   5.643   8.622 -0.1483  0.7439 -3.5758
  420MOL0     H55420   5.096   5.884   8.812  0.4494 -0.3845  1.2147
  420MOL0     H55421   5.112   5.711   8.855  1.2532 -1.3876 -2.3963
  420MOL0     H55422   5.897   6.345   8.447 -0.0761 -1.0464 -2.1069
  420MOL0     H55423   6.110   6.497   8.464 -0.6896 -0.7126 -3.9253
  420MOL0     H55424   6.430   6.651   8.578 -0.2607 -1.1820 -1.4431
  420MOL0     H55425   6.573   6.804   8.644  0.3131 -0.5420 -0.4069
  420MOL0     H55426   8.123   6.563   8.804 -1.9266 -0.4309  2.2862
  420MOL0     H55427   8.332   6.502   8.882 -2.6450 -1.3664  0.9236
  420MOL0     H55428   8.594   6.572   9.318  2.9103  1.2438  3.3061
  420MOL0     H55429   8.792   6.570   9.455 -1.5142 -1.1544  0.3070
  420MOL0     H55430   8.991   6.530   9.547 -0.2605  0.6130  1.0319
  420MOL0     H55431   9.055   6.694   9.527  0.6645 -0.9519  1.9560
  420MOL0     H55432   9.211   6.536   9.631  4.2484  0.2540 -0.0170
  420MOL0     H55433   9.207   6.430   9.487  2.2662  1.0049 -1.5671
  420MOL0     H55434   9.357   6.682   9.528 -1.1944  2.1657 -0.7910
  420MOL0     H55435   9.305   6.639   9.363 -2.4494 -2.2501 -0.7903
  420MOL0     H55436   9.429   6.428   9.394  1.6520  2.0640 -1.7246
  420MOL0     H55437   9.531   6.572   9.428 -1.4582  1.7090  0.4111
  420MOL0     H55438   9.582   6.381   9.796  1.8144  0.6234 -0.6866
  420MOL0     H55439   9.029   6.542   9.084 -2.8772 -0.5996 -2.4808
  420MOL0     H55440   8.827   6.569   8.962 -1.2653  0.0465 -0.1527
  421MOL0     O55441   0.521   8.603  10.046  0.7106  0.3042  0.1197
  421MOL0     C55442   0.471   8.718  10.031 -0.7660 -0.9535 -0.5374
  421MOL0     O55443   0.539   8.830  10.003 -1.1993 -0.2802  0.5389
  421MOL0     C55444   0.676   8.826   9.999  0.4278 -0.0672  0.4196
  421MOL0     C55445   0.730   8.876   9.879 -0.0748 -1.6657 -0.1265
  421MOL0     C55446   0.870   8.886   9.872  0.2211 -1.2535  1.1249
  421MOL0     C55447   0.952   8.851   9.981  0.2649 -0.4401 -0.3975
  421MOL0     O55448   1.091   8.860   9.968  0.4079 -0.0069  0.8147
  421MOL0     C55449   1.171   8.862  10.084  0.4260  0.6122  0.7572
  421MOL0     C55450   1.312   8.878  10.042  0.4805 -0.7107 -0.3794
  421MOL0     C55451   1.399   8.907  10.163 -0.3282 -0.0411 -0.5119
  421MOL0     C55452   1.547   8.954  10.124  0.0209 -0.1005  0.9468
  421MOL0     C55453   1.630   9.006  10.243  0.5093 -0.3816  0.7839
  421MOL0     C55454   1.771   9.076  10.210  0.2275  0.0143 -0.0068
  421MOL0     C55455   1.851   9.112  10.333  0.1023  0.3838  1.0545
  421MOL0     C55456   1.991   9.177  10.299 -0.4522  0.1069 -0.4353
  421MOL0     N55457   2.080   9.179  10.422  0.2085 -0.0633  0.1250
  421MOL0     C55458   2.206   9.141  10.422 -0.0949  0.8015  0.1934
  421MOL0     C55459   2.243   9.145  10.553  0.2482  0.1089  1.0247
  421MOL0     C55460   2.369   9.094  10.604 -0.9757  0.2488 -0.9685
  421MOL0     C55461   2.487   9.179  10.543 -0.4453 -0.0999  0.2961
  421MOL0     C55462   2.631   9.131  10.561  0.0583 -0.0142 -0.1969
  421MOL0     C55463   2.654   8.998  10.492 -0.2727 -0.1698  0.9202
  421MOL0     O55464   2.793   8.968  10.483 -0.1225 -0.0681 -0.0811
  421MOL0     C55465   2.833   8.879  10.392  0.1314 -0.7998  0.0391
  421MOL0     C55466   2.971   8.858  10.387 -0.6089 -0.5526 -0.0153
  421MOL0     C55467   3.025   8.765  10.303 -0.0078  0.5894  0.1010
  421MOL0     C55468   2.948   8.680  10.218  0.3253 -0.4795  0.2675
  421MOL0     C55469   3.025   8.584  10.135  1.1321  0.6280  0.4051
  421MOL0     O55470   2.948   8.494  10.079  0.5526 -0.0629  0.4498
  421MOL0     C55471   2.996   8.401   9.987  0.1940  0.2807  0.6125
  421MOL0     C55472   3.079   8.294  10.037 -0.5131 -0.5223  0.0355
  421MOL0     C55473   3.119   8.191   9.956  0.6529 -0.0697 -0.5062
  421MOL0     C55474   3.081   8.187   9.820  0.6422 -0.4395 -0.2461
  421MOL0     O55475   3.122   8.093   9.733  0.0336 -0.0154 -0.2981
  421MOL0     C55476   3.129   8.127   9.591  0.6077 -0.3512  0.3043
  421MOL0     C55477   3.199   8.014   9.516  0.2463  0.3874  0.8270
  421MOL0     C55478   3.330   7.965   9.577  0.1595 -0.5450 -0.7545
  421MOL0     C55479   3.441   8.083   9.564  0.5077  0.2792 -0.6130
  421MOL0     C55480   3.576   8.041   9.624 -0.6563 -0.0629  0.2997
  421MOL0     C55481   3.567   7.988   9.777  0.0841 -0.2875 -0.1125
  421MOL0     C55482   3.549   7.840   9.799  0.0979  0.5857  0.0061
  421MOL0     C55483   3.673   7.769   9.844 -0.5759 -0.0715 -0.5546
  421MOL0    Cl55484   3.808   7.800   9.727 -0.1074 -0.0577  0.0546
  421MOL0     C55485   3.000   8.292   9.775  1.3781  0.4217 -0.2694
  421MOL0     C55486   2.953   8.401   9.851 -0.4555  0.1298 -0.5873
  421MOL0     O55487   3.145   8.589  10.128 -0.2571  0.2281 -0.0005
  421MOL0     C55488   2.810   8.709  10.215  0.6720  0.6964 -0.1314
  421MOL0     C55489   2.753   8.806  10.302  0.2246  0.4588  0.6770
  421MOL0     N55490   2.135   9.200  10.618  0.0970  0.6650  1.1500
  421MOL0     N55491   2.037   9.208  10.539  0.2875 -0.9318 -0.6044
  421MOL0     C55492   0.887   8.808  10.097 -0.2642  0.2765  0.4633
  421MOL0     C55493   0.752   8.785  10.107 -0.7044 -0.4528 -0.3768
  421MOL0     C55494   0.324   8.728  10.044 -0.2944  0.3066  0.2817
  421MOL0     C55495   0.240   8.616  10.057  0.1996 -0.3351  0.3631
  421MOL0     C55496   0.103   8.623  10.050  0.1930  0.3784 -1.2224
  421MOL0     C55497   0.047   8.754  10.062 -0.4580 -0.1741 -0.1586
  421MOL0     O55498  -0.094   8.781  10.059 -0.1217 -0.1778 -0.4630
  421MOL0     C55499  -0.176   8.697  10.133  0.3130  0.4377  0.4170
  421MOL0     C55500  -0.257   8.594  10.051  0.4081 -0.6064  0.9279
  421MOL0     C55501  -0.354   8.668   9.942  0.9252 -0.2845 -0.5606
  421MOL0     C55502  -0.414   8.562   9.851 -0.2359  0.0625  0.5348
  421MOL0     C55503  -0.478   8.631   9.735  0.5759  0.7896  0.2081
  421MOL0     C55504  -0.544   8.657   9.638 -0.2047 -0.5482 -0.2590
  421MOL0     C55505   0.125   8.869  10.064  0.2892 -0.4295  0.4404
  421MOL0     C55506   0.267   8.849  10.071 -0.2071 -0.9388  0.9310
  421MOL0     H55507   0.669   8.912   9.798  1.6766  2.3884  0.1469
  421MOL0     H55508   0.917   8.913   9.778  0.5009 -4.2317  0.3207
  421MOL0     H55509   1.183   8.769  10.139  2.2496 -1.0697 -2.2378
  421MOL0     H55510   1.137   8.946  10.146 -0.7678 -0.0044  0.9512
  421MOL0     H55511   1.306   8.972   9.987 -1.8988 -0.0690  0.8178
  421MOL0     H55512   1.344   8.798   9.974 -1.9154 -0.6676 -1.6557
  421MOL0     H55513   1.413   8.808  10.207 -0.0574  0.8453  1.5160
  421MOL0     H55514   1.352   8.972  10.237 -0.7813  0.0475 -0.8697
  421MOL0     H55515   1.600   8.874  10.072 -0.1291 -0.7895  1.8219
  421MOL0     H55516   1.541   9.038  10.055  2.9372  2.1450  3.1616
  421MOL0     H55517   1.667   8.928  10.310  3.1165  1.2861  1.4625
  421MOL0     H55518   1.573   9.085  10.292  2.3889  2.2698 -0.9764
  421MOL0     H55519   1.759   9.160  10.141  2.9660  0.4123 -0.1287
  421MOL0     H55520   1.835   8.999  10.164  1.5783  1.9262 -1.4919
  421MOL0     H55521   1.788   9.174  10.397 -0.5788  1.0365 -0.2042
  421MOL0     H55522   1.862   9.016  10.385 -3.6110 -1.6617 -1.3610
  421MOL0     H55523   1.986   9.277  10.255  1.3404  0.8662  0.9563
  421MOL0     H55524   2.048   9.122  10.223  1.0128  1.0769 -0.0876
  421MOL0     H55525   2.271   9.118  10.338  1.5020  4.1091  0.3331
  421MOL0     H55526   2.362   8.988  10.576  0.9349 -0.6213  1.4621
  421MOL0     H55527   2.370   9.095  10.714  0.1124  3.5146 -0.9219
  421MOL0     H55528   2.473   9.283  10.575 -0.1028  0.0812 -0.1224
  421MOL0     H55529   2.477   9.183  10.434  0.8716 -0.4751  0.1442
  421MOL0     H55530   2.701   9.197  10.509 -0.8170  0.0641 -1.2968
  421MOL0     H55531   2.660   9.132  10.667  0.3241  0.1716 -0.2699
  421MOL0     H55532   2.601   9.005  10.396 -2.5103 -1.5593  1.9636
  421MOL0     H55533   2.597   8.923  10.548 -0.8800 -0.8541 -0.5469
  421MOL0     H55534   3.038   8.914  10.451  1.4076 -0.0335 -2.4108
  421MOL0     H55535   3.133   8.761  10.302 -0.0271  0.0330 -0.8121
  421MOL0     H55536   3.093   8.294  10.145 -1.1401  1.9244  0.1821
  421MOL0     H55537   3.182   8.118  10.007  0.3414  0.4861  0.7073
  421MOL0     H55538   3.178   8.224   9.578  2.9874 -1.7750 -2.4448
  421MOL0     H55539   3.026   8.135   9.554  0.4500  0.4775  0.8963
  421MOL0     H55540   3.222   8.050   9.415  4.1196 -0.9672  1.0337
  421MOL0     H55541   3.127   7.932   9.511  0.9983 -0.2703  0.4603
  421MOL0     H55542   3.361   7.872   9.527 -0.3159 -1.0225 -0.1736
  421MOL0     H55543   3.312   7.938   9.681  2.0350  1.7340  0.2506
  421MOL0     H55544   3.463   8.106   9.459  0.9556  3.8614  0.1054
  421MOL0     H55545   3.401   8.172   9.614  0.1181  1.3612 -2.7183
  421MOL0     H55546   3.643   8.127   9.610  2.5618 -2.3847  0.2790
  421MOL0     H55547   3.614   7.961   9.561 -0.9605 -0.1789  0.2629
  421MOL0     H55548   3.483   8.036   9.828  1.0598 -1.1880  2.4817
  421MOL0     H55549   3.654   8.018   9.836  1.8314 -1.8688 -1.7483
  421MOL0     H55550   3.463   7.816   9.863 -1.2407 -0.8819 -2.2126
  421MOL0     H55551   3.511   7.802   9.704 -0.2692  0.4472  0.2062
  421MOL0     H55552   3.662   7.662   9.865  0.4318  0.2620  2.0323
  421MOL0     H55553   3.709   7.821   9.933  0.4468 -4.3219  1.7797
  421MOL0     H55554   2.950   8.298   9.679  1.2873 -1.7685 -0.3888
  421MOL0     H55555   2.885   8.475   9.811 -1.0509  1.4586  2.5850
  421MOL0     H55556   2.765   8.652  10.134  3.0908 -0.2979 -0.8762
  421MOL0     H55557   2.646   8.822  10.303 -0.1816 -1.1617  4.5865
  421MOL0     H55558   0.946   8.776  10.182  0.6179  1.2902  0.2570
  421MOL0     H55559   0.705   8.747  10.197  0.4749 -3.2904 -0.8365
  421MOL0     H55560   0.279   8.514  10.052 -0.5030 -0.5774 -0.5164
  421MOL0     H55561   0.035   8.540  10.054 -0.6207  1.0369  2.1429
  421MOL0     H55562  -0.243   8.758  10.194 -2.1106  0.2931 -1.9212
  421MOL0     H55563  -0.113   8.635  10.198  1.4052 -1.9729 -2.7212
  421MOL0     H55564  -0.188   8.527  10.000  3.4016  1.1804  2.3946
  421MOL0     H55565  -0.321   8.528  10.110  1.5613 -1.4710  1.2365
  421MOL0     H55566  -0.289   8.742   9.894 -1.2588  1.6149 -0.7635
  421MOL0     H55567  -0.434   8.724   9.991 -0.2138 -2.1253 -0.2381
  421MOL0     H55568  -0.334   8.492   9.824 -0.2069 -0.0398  0.8784
  421MOL0     H55569  -0.495   8.512   9.905 -1.6896  0.3595 -1.2733
  421MOL0     H55570  -0.615   8.664   9.558 -0.3738 -3.0049 -0.4082
  421MOL0     H55571   0.086   8.970  10.068  1.4222  0.2108 -2.5765
  421MOL0     H55572   0.322   8.942  10.063 -2.5972  0.5232  0.2748
  422MOL0     O55573  10.413   1.228   7.114 -0.0865 -0.6741 -0.0737
  422MOL0     C55574  10.387   1.316   7.197 -0.0340  0.6859  0.2546
  422MOL0     O55575  10.462   1.419   7.222 -0.7398  0.1199 -0.7960
  422MOL0     C55576  10.551   1.464   7.127 -0.2831 -0.3604  0.4502
  422MOL0     C55577  10.631   1.563   7.176 -0.0718 -0.0702 -0.1570
  422MOL0     C55578  10.738   1.625   7.106  0.5426  0.0835  0.4713
  422MOL0     C55579  10.749   1.598   6.971  0.3639 -0.0745 -0.6347
  422MOL0     O55580  10.860   1.637   6.914 -0.1459  0.6009 -0.1627
  422MOL0     C55581  10.858   1.661   6.775  0.0121  0.1524 -0.1112
  422MOL0     C55582  10.972   1.579   6.723 -1.3929 -0.1492  0.1133
  422MOL0     C55583  10.943   1.428   6.691 -0.8147  0.3773  0.1843
  422MOL0     C55584  11.078   1.371   6.644  0.2220  0.1992 -0.4751
  422MOL0     C55585  11.096   1.219   6.664  0.7055 -0.7066  0.7067
  422MOL0     C55586  11.240   1.177   6.642 -0.0859 -0.2466  0.2601
  422MOL0     C55587  11.261   1.026   6.643 -0.6212 -0.0416 -0.2661
  422MOL0     C55588  11.404   0.996   6.607  0.1127  0.8992 -0.3736
  422MOL0     N55589  11.413   0.851   6.593  0.1433 -0.3170  0.9137
  422MOL0     C55590  11.445   0.765   6.695  1.3446 -0.7719 -0.0559
  422MOL0     C55591  11.405   0.648   6.649  1.0096  0.9101 -0.2374
  422MOL0     C55592  11.409   0.519   6.733 -0.1220 -0.0886  0.7799
  422MOL0     C55593  11.542   0.442   6.709  1.2936 -0.4546 -0.0941
  422MOL0     C55594  11.504   0.310   6.647 -0.1570 -0.4691 -0.2542
  422MOL0     C55595  11.637   0.231   6.611 -0.1182  0.5248  0.8980
  422MOL0     O55596  11.698   0.166   6.719 -0.3123  0.6672 -0.3009
  422MOL0     C55597  11.836   0.155   6.719  0.1411  0.0420 -0.5418
  422MOL0     C55598  11.895   0.029   6.748  0.6040 -0.1142 -0.3915
  422MOL0     C55599  12.031   0.020   6.770  1.5279  0.4133  0.2625
  422MOL0     C55600  12.118   0.141   6.758 -0.7595  0.4208 -0.3890
  422MOL0     C55601  12.265   0.117   6.769 -0.8950  0.0853 -0.3031
  422MOL0     O55602  12.345   0.222   6.762 -0.0435  0.5557  0.0747
  422MOL0     C55603  12.480   0.206   6.769 -0.3173 -0.1557 -0.9333
  422MOL0     C55604  12.551   0.209   6.890  0.5459 -0.3081 -1.2508
  422MOL0     C55605  12.691   0.196   6.894 -0.2667 -0.3382 -0.9052
  422MOL0     C55606  12.765   0.172   6.783  0.7521  0.7235 -0.0253
  422MOL0     O55607  12.895   0.145   6.781  0.0715 -0.2512  0.3246
  422MOL0     C55608  12.976   0.236   6.861 -0.4463  1.5790 -0.4017
  422MOL0     C55609  13.121   0.219   6.832 -0.0018  0.1640  0.1624
  422MOL0     C55610  13.181   0.088   6.895  1.0079 -0.7242 -0.3125
  422MOL0     C55611  13.329   0.073   6.866  0.0494  1.8099  0.5770
  422MOL0     C55612  13.427   0.167   6.932  0.4560  0.9590 -0.8960
  422MOL0     C55613  13.468   0.118   7.068 -0.7059  0.1951  0.2628
  422MOL0     C55614  13.569  -0.006   7.071  0.1185  0.3105 -1.6338
  422MOL0     C55615  13.613  -0.061   7.222  0.9437  0.0163  0.1657
  422MOL0    Cl55616  13.782  -0.026   7.257 -0.2540 -0.1134  0.1344
  422MOL0     C55617  12.695   0.161   6.668 -0.0423  0.0211  0.5188
  422MOL0     C55618  12.555   0.184   6.658 -0.6501 -0.5504 -0.8789
  422MOL0     O55619  12.301   0.008   6.804 -0.0043  0.2116  0.6461
  422MOL0     C55620  12.060   0.259   6.712 -0.3816 -0.4433  0.1960
  422MOL0     C55621  11.925   0.268   6.699 -0.7095 -0.1867 -0.2233
  422MOL0     N55622  11.351   0.666   6.525 -0.5678  0.6254 -0.0173
  422MOL0     N55623  11.347   0.788   6.497  0.4455 -0.7812  0.2828
  422MOL0     C55624  10.648   1.509   6.912 -1.1751 -1.5049  0.5066
  422MOL0     C55625  10.562   1.434   6.990  0.8446  0.4314 -0.0921
  422MOL0     C55626  10.261   1.311   7.278  0.4998 -0.8303  0.1096
  422MOL0     C55627  10.209   1.415   7.358  0.3586 -1.3188 -0.5017
  422MOL0     C55628  10.081   1.407   7.423  0.5496  0.2106  0.1477
  422MOL0     C55629   9.997   1.291   7.403 -0.1530  0.8199 -0.2429
  422MOL0     O55630   9.884   1.282   7.483 -0.9963 -0.4866  0.8055
  422MOL0     C55631   9.798   1.173   7.473  0.0680  1.0156  0.7477
  422MOL0     C55632   9.673   1.177   7.563 -0.6878 -0.1702  0.1081
  422MOL0     C55633   9.589   1.055   7.558 -0.2221 -0.4255 -0.2072
  422MOL0     C55634   9.445   1.066   7.612  0.5900  0.1197 -0.3320
  422MOL0     C55635   9.382   0.930   7.606  0.8830 -0.7235  0.2402
  422MOL0     C55636   9.336   0.824   7.595  0.1335  0.0209 -0.9155
  422MOL0     C55637  10.038   1.186   7.320 -0.2717 -0.8953  0.4582
  422MOL0     C55638  10.182   1.191   7.268  0.2517 -0.2504  0.3473
  422MOL0     H55639  10.615   1.581   7.282 -0.1242 -1.6030  0.1173
  422MOL0     H55640  10.804   1.682   7.170 -0.6775 -0.2458  2.0992
  422MOL0     H55641  10.870   1.769   6.769  1.0889  0.0585  0.3333
  422MOL0     H55642  10.761   1.640   6.728  0.1459 -1.3011  0.1986
  422MOL0     H55643  11.056   1.602   6.788  0.3591 -0.9755 -1.7502
  422MOL0     H55644  11.013   1.622   6.631  0.2815 -0.2498  0.7768
  422MOL0     H55645  10.862   1.419   6.618 -1.1046 -2.3371  0.7270
  422MOL0     H55646  10.904   1.362   6.769  1.4069 -1.6126 -0.2574
  422MOL0     H55647  11.090   1.395   6.538  1.1996  2.1506  0.0309
  422MOL0     H55648  11.164   1.427   6.682  1.4432 -0.4406 -2.1922
  422MOL0     H55649  11.028   1.181   6.588 -1.0441  0.7946  1.4584
  422MOL0     H55650  11.043   1.192   6.756 -1.4999  1.0874  0.0231
  422MOL0     H55651  11.296   1.222   6.724  0.5581  0.3163 -0.4787
  422MOL0     H55652  11.277   1.217   6.547  2.8107  2.0578  2.2003
  422MOL0     H55653  11.225   0.984   6.738 -2.2374 -1.1102 -1.2989
  422MOL0     H55654  11.193   0.991   6.565  0.2319  0.9290 -1.4689
  422MOL0     H55655  11.475   1.035   6.680 -1.1167  3.3093 -0.3856
  422MOL0     H55656  11.430   1.031   6.507 -1.0215 -1.2550 -1.4946
  422MOL0     H55657  11.488   0.781   6.793 -1.5398  1.1767  1.0143
  422MOL0     H55658  11.319   0.459   6.717  0.4279 -0.6685 -0.1514
  422MOL0     H55659  11.406   0.540   6.841 -0.3564  0.4807  0.6655
  422MOL0     H55660  11.585   0.416   6.807  2.3543 -2.2053 -0.9706
  422MOL0     H55661  11.613   0.494   6.644  1.9866 -0.2891  0.7759
  422MOL0     H55662  11.452   0.246   6.719 -1.6251  0.4492 -0.4690
  422MOL0     H55663  11.442   0.313   6.557  0.9678 -0.9964 -1.0725
  422MOL0     H55664  11.712   0.297   6.568  1.0618  0.4322  2.7173
  422MOL0     H55665  11.608   0.155   6.538  0.9275 -1.1814  2.1611
  422MOL0     H55666  11.836  -0.061   6.761  2.8614 -1.9128 -1.7006
  422MOL0     H55667  12.070  -0.076   6.804  2.0443  0.2235 -0.8040
  422MOL0     H55668  12.510   0.217   6.990  2.0584  0.5477 -0.6561
  422MOL0     H55669  12.730   0.193   6.995  2.3066 -1.3111 -1.8467
  422MOL0     H55670  12.953   0.225   6.967 -1.6888  1.8791 -0.6264
  422MOL0     H55671  12.941   0.336   6.834 -2.4140  1.4233  1.3651
  422MOL0     H55672  13.164   0.307   6.880  0.5544  2.8699 -4.6450
  422MOL0     H55673  13.144   0.222   6.725  0.8401  4.1494  0.3085
  422MOL0     H55674  13.128   0.000   6.859  0.9100 -1.1889  0.8975
  422MOL0     H55675  13.169   0.098   7.004 -1.6286 -0.4995 -0.5647
  422MOL0     H55676  13.366  -0.027   6.891  2.5665  1.9181 -2.0658
  422MOL0     H55677  13.350   0.077   6.758 -2.6472  1.0766 -0.0410
  422MOL0     H55678  13.400   0.273   6.942  1.1545  1.0592  0.0320
  422MOL0     H55679  13.518   0.182   6.873  0.8280  2.3159 -0.0232
  422MOL0     H55680  13.389   0.086   7.137  0.0438  2.4922  2.3517
  422MOL0     H55681  13.508   0.210   7.113 -1.5670  0.8602 -0.3174
  422MOL0     H55682  13.533  -0.085   7.005  0.5130  0.1075 -1.6112
  422MOL0     H55683  13.665   0.027   7.030  1.5278  0.1144  1.2769
  422MOL0     H55684  13.582  -0.166   7.229 -1.1841  0.6037  0.2956
  422MOL0     H55685  13.552  -0.008   7.296 -1.4908 -0.2324 -1.5250
  422MOL0     H55686  12.753   0.150   6.577 -1.3501  0.2108 -0.3715
  422MOL0     H55687  12.511   0.179   6.558  3.4499 -1.0496 -2.8512
  422MOL0     H55688  12.119   0.350   6.704 -1.5835  0.5088  1.6003
  422MOL0     H55689  11.878   0.362   6.671 -1.7607 -0.9327 -1.0564
  422MOL0     H55690  10.657   1.488   6.806 -0.9388 -1.1735  0.4573
  422MOL0     H55691  10.501   1.358   6.942 -1.3823  1.2284  1.2986
  422MOL0     H55692  10.260   1.511   7.351 -0.2835 -1.0911 -3.7347
  422MOL0     H55693  10.056   1.491   7.488  2.8305  1.5630 -0.6305
  422MOL0     H55694   9.854   1.083   7.498  1.3767  1.8822  1.0640
  422MOL0     H55695   9.768   1.177   7.368  2.9262 -3.1762 -0.4769
  422MOL0     H55696   9.708   1.204   7.663  0.5536  1.1480 -0.6609
  422MOL0     H55697   9.614   1.267   7.544 -2.3915 -0.9751  1.2989
  422MOL0     H55698   9.645   0.981   7.617  1.1122  1.4001  0.8954
  422MOL0     H55699   9.581   1.023   7.454 -0.3464 -0.6689 -0.1249
  422MOL0     H55700   9.443   1.089   7.719 -1.2190 -2.5305  0.3082
  422MOL0     H55701   9.386   1.143   7.562  0.0864  1.0834  1.6265
  422MOL0     H55702   9.314   0.719   7.589  0.1927 -0.0148 -0.5414
  422MOL0     H55703   9.981   1.097   7.295 -0.0036 -0.3508 -2.4614
  422MOL0     H55704  10.233   1.102   7.234 -1.3083 -2.2452  2.8463
  423MOL0     O55705   2.736   1.396   7.979  0.0138  0.2001  0.4523
  423MOL0     C55706   2.794   1.307   8.037 -0.2591  0.3371  0.6048
  423MOL0     O55707   2.798   1.289   8.167  0.2090  0.3077 -0.6758
  423MOL0     C55708   2.783   1.386   8.261  0.3809  0.4076  0.9341
  423MOL0     C55709   2.835   1.510   8.230 -0.2374 -0.3738  0.0585
  423MOL0     C55710   2.818   1.616   8.310 -0.9051 -0.3918  0.3062
  423MOL0     C55711   2.737   1.595   8.425 -0.3751 -1.1176  0.1086
  423MOL0     O55712   2.700   1.700   8.507 -0.0474  0.0970 -0.6849
  423MOL0     C55713   2.660   1.826   8.443 -0.4922 -0.4886  0.3678
  423MOL0     C55714   2.582   1.925   8.536 -0.2379  0.5201 -0.7311
  423MOL0     C55715   2.532   2.050   8.465 -0.7542  0.1816 -0.0864
  423MOL0     C55716   2.393   2.036   8.397  0.4105  0.3344 -0.2136
  423MOL0     C55717   2.360   2.171   8.334  0.0658  0.4246  0.2611
  423MOL0     C55718   2.247   2.162   8.229 -0.2302  0.2142  0.4926
  423MOL0     C55719   2.298   2.112   8.093 -0.4525  0.8162 -0.3240
  423MOL0     C55720   2.180   2.097   7.991  0.4190  0.5026 -0.3724
  423MOL0     N55721   2.219   2.031   7.869  0.1095  0.1300  1.5009
  423MOL0     C55722   2.200   2.085   7.745  0.6774  0.3856  1.2950
  423MOL0     C55723   2.205   1.981   7.657 -0.2951  1.2553  0.3072
  423MOL0     C55724   2.190   1.995   7.507 -0.7497  0.1544  0.5003
  423MOL0     C55725   2.081   1.910   7.439  0.7602 -0.1070 -0.1703
  423MOL0     C55726   1.942   1.974   7.447 -0.8002  0.1452 -0.3522
  423MOL0     C55727   1.854   1.870   7.367  0.6119 -0.1317  0.2766
  423MOL0     O55728   1.731   1.942   7.365 -0.8071 -0.3468  0.6440
  423MOL0     C55729   1.629   1.913   7.275 -0.1421  0.0382 -0.3635
  423MOL0     C55730   1.501   1.977   7.276  0.4428 -1.2446  0.0355
  423MOL0     C55731   1.392   1.930   7.203 -0.6459 -0.3199 -0.2536
  423MOL0     C55732   1.413   1.828   7.106 -0.0090  0.5175 -0.1055
  423MOL0     C55733   1.316   1.777   7.007  0.8496 -0.6228  0.7232
  423MOL0     O55734   1.218   1.872   6.990 -0.1218 -0.5611 -0.5145
  423MOL0     C55735   1.120   1.853   6.898 -0.6198  0.1879  0.8118
  423MOL0     C55736   1.018   1.771   6.934 -0.5136  0.1978 -0.0971
  423MOL0     C55737   0.930   1.740   6.840  0.4410  0.9047  1.0215
  423MOL0     C55738   0.926   1.798   6.714 -0.2153  0.6721 -0.7191
  423MOL0     O55739   0.837   1.755   6.612 -0.2484 -0.3132 -0.2308
  423MOL0     C55740   0.701   1.786   6.628  0.6617  0.4559 -0.6309
  423MOL0     C55741   0.631   1.761   6.501 -0.2021  0.0989 -0.0254
  423MOL0     C55742   0.495   1.825   6.489  0.6771 -0.0590 -0.4613
  423MOL0     C55743   0.497   1.972   6.429 -0.0138  0.5566 -0.4291
  423MOL0     C55744   0.543   1.972   6.283  0.1307 -0.2347 -0.8252
  423MOL0     C55745   0.504   2.109   6.206  0.5880  0.0985  0.7497
  423MOL0     C55746   0.469   2.087   6.056  0.2832  0.5850  0.3601
  423MOL0     C55747   0.581   2.024   5.972  0.0618 -0.4998  0.9081
  423MOL0    Cl55748   0.733   2.111   5.988 -0.1730 -0.3086 -0.2883
  423MOL0     C55749   1.040   1.883   6.681  0.0003  0.1412  0.3390
  423MOL0     C55750   1.138   1.908   6.772 -0.0688 -0.4409  0.6075
  423MOL0     O55751   1.327   1.674   6.941  0.2310 -0.0676  0.7147
  423MOL0     C55752   1.540   1.771   7.106 -0.4661 -0.8737  0.8250
  423MOL0     C55753   1.642   1.803   7.190 -0.1803 -0.0765  0.4038
  423MOL0     N55754   2.243   1.869   7.723  0.7874 -0.8122  0.5590
  423MOL0     N55755   2.238   1.900   7.848 -0.0231 -0.0353  0.1723
  423MOL0     C55756   2.696   1.469   8.464  0.4278 -0.6984 -0.9450
  423MOL0     C55757   2.712   1.360   8.370  1.3480 -0.4389 -0.2591
  423MOL0     C55758   2.862   1.204   7.954 -0.9942  0.5619  0.1729
  423MOL0     C55759   2.921   1.092   8.023 -0.2005  0.2620  0.2989
  423MOL0     C55760   3.001   0.993   7.952  0.3821  0.1020 -0.7525
  423MOL0     C55761   3.007   1.000   7.811  0.4163  0.1332 -0.4107
  423MOL0     O55762   3.087   0.905   7.744  0.1872  0.2522  0.2601
  423MOL0     C55763   3.120   0.922   7.600  0.0983 -0.8975 -0.0770
  423MOL0     C55764   3.215   0.817   7.549 -0.0232  0.1378 -0.5416
  423MOL0     C55765   3.131   0.694   7.505  0.2999  0.0328  0.4864
  423MOL0     C55766   3.206   0.580   7.444  1.1648 -0.9091 -1.4587
  423MOL0     C55767   3.248   0.626   7.314 -0.3441 -0.1552  0.4972
  423MOL0     C55768   3.306   0.658   7.211 -0.2248  0.8955 -0.6131
  423MOL0     C55769   2.955   1.116   7.748 -0.0374 -0.0935  0.6974
  423MOL0     C55770   2.886   1.213   7.818 -0.3788  0.4535  0.0670
  423MOL0     H55771   2.902   1.507   8.144 -1.8408  0.7765 -1.3137
  423MOL0     H55772   2.858   1.716   8.299 -0.5069 -0.6117 -0.2320
  423MOL0     H55773   2.588   1.802   8.363 -1.4918  1.1810  0.7229
  423MOL0     H55774   2.748   1.867   8.394  2.2904 -4.0079  1.9678
  423MOL0     H55775   2.645   1.945   8.623 -1.4790  0.5811  0.1901
  423MOL0     H55776   2.495   1.870   8.573  0.6411 -0.6387 -0.3463
  423MOL0     H55777   2.603   2.076   8.386 -0.5158 -0.3230 -0.0458
  423MOL0     H55778   2.523   2.134   8.534 -2.1076  2.0743 -2.4128
  423MOL0     H55779   2.392   1.954   8.325 -0.4601 -0.4747  0.6818
  423MOL0     H55780   2.314   2.009   8.468  1.3993  0.9924  1.2019
  423MOL0     H55781   2.450   2.216   8.292  2.2532 -1.9826  2.0645
  423MOL0     H55782   2.329   2.233   8.419  4.0328 -0.3059  2.4858
  423MOL0     H55783   2.205   2.262   8.214 -5.5145 -1.2111  3.3554
  423MOL0     H55784   2.168   2.099   8.270  2.2471 -2.0917  2.0668
  423MOL0     H55785   2.373   2.176   8.047  1.1287 -1.3794 -0.9706
  423MOL0     H55786   2.345   2.013   8.103  0.3686  1.1778 -0.5708
  423MOL0     H55787   2.130   2.191   7.966 -0.7538 -0.3813 -1.5534
  423MOL0     H55788   2.101   2.040   8.041 -0.3410  1.0216 -0.9454
  423MOL0     H55789   2.175   2.188   7.720  0.1786  0.4040  1.8567
  423MOL0     H55790   2.292   1.972   7.472 -0.7353  0.7690  0.1346
  423MOL0     H55791   2.164   2.099   7.487 -0.4038  0.0465 -0.5611
  423MOL0     H55792   2.073   1.809   7.482 -2.0034  0.3835  0.6447
  423MOL0     H55793   2.114   1.919   7.335 -0.5389 -1.3000 -0.7300
  423MOL0     H55794   1.905   1.983   7.550 -1.8659  1.9160 -0.8341
  423MOL0     H55795   1.951   2.070   7.396  0.5520 -0.0052 -0.4301
  423MOL0     H55796   1.839   1.765   7.393  0.2587  0.3705  2.2622
  423MOL0     H55797   1.903   1.869   7.269 -0.8810  1.0361 -0.5170
  423MOL0     H55798   1.479   2.051   7.353 -0.5518 -1.1913 -0.2884
  423MOL0     H55799   1.290   1.963   7.221 -1.7180 -3.1187 -0.7203
  423MOL0     H55800   1.027   1.729   7.034  2.0412  0.2458 -0.2389
  423MOL0     H55801   0.854   1.667   6.864  0.9221 -0.1211 -0.4373
  423MOL0     H55802   0.685   1.889   6.662  1.7189  0.0053  1.4143
  423MOL0     H55803   0.656   1.713   6.696 -1.6177  2.2218 -0.0980
  423MOL0     H55804   0.611   1.654   6.491  0.2154 -0.2222  2.0876
  423MOL0     H55805   0.686   1.799   6.415  0.6220  0.4308  0.6320
  423MOL0     H55806   0.446   1.830   6.587 -0.1194  0.2864 -0.8655
  423MOL0     H55807   0.429   1.771   6.421 -0.4360  3.4345 -2.3924
  423MOL0     H55808   0.395   2.007   6.446  0.0860  1.2622 -1.2086
  423MOL0     H55809   0.552   2.032   6.501  0.2900 -0.4269  0.1789
  423MOL0     H55810   0.472   1.903   6.236 -0.1411 -2.5849  2.6737
  423MOL0     H55811   0.645   1.941   6.260  0.2867  0.1909 -0.7113
  423MOL0     H55812   0.589   2.177   6.220 -0.2366  0.6834  3.7060
  423MOL0     H55813   0.420   2.159   6.256 -0.1568 -0.1651 -0.2163
  423MOL0     H55814   0.389   2.012   6.053  1.9707 -1.3202 -3.5650
  423MOL0     H55815   0.444   2.176   5.999  2.8882  0.8361 -0.5204
  423MOL0     H55816   0.547   2.029   5.868  0.4974 -0.1643  0.7798
  423MOL0     H55817   0.595   1.918   5.996 -0.1265 -0.6963  0.1917
  423MOL0     H55818   1.058   1.928   6.584 -0.3359 -1.3157 -0.4242
  423MOL0     H55819   1.235   1.952   6.752  0.8938 -2.8330 -0.3140
  423MOL0     H55820   1.550   1.690   7.034 -1.2021 -0.2311 -0.0212
  423MOL0     H55821   1.735   1.746   7.181 -0.5493 -0.6524  0.1859
  423MOL0     H55822   2.640   1.454   8.556 -0.3078 -1.0023 -1.4297
  423MOL0     H55823   2.676   1.260   8.389 -1.8379  0.0838 -2.7938
  423MOL0     H55824   2.907   1.069   8.128 -4.0288 -2.2188 -0.5579
  423MOL0     H55825   3.039   0.899   7.991 -0.9797 -0.8895 -1.7201
  423MOL0     H55826   3.180   1.013   7.588 -2.8679  0.7829 -5.1350
  423MOL0     H55827   3.025   0.942   7.549  0.0788  2.6544  1.0938
  423MOL0     H55828   3.280   0.836   7.463 -0.9232 -1.4847 -1.6328
  423MOL0     H55829   3.275   0.782   7.634  0.8768 -2.3686 -2.1200
  423MOL0     H55830   3.050   0.724   7.438  0.3515  2.4671  1.4039
  423MOL0     H55831   3.081   0.667   7.598  3.8564  0.3478  2.6653
  423MOL0     H55832   3.292   0.551   7.504 -0.7820  0.3497  2.2530
  423MOL0     H55833   3.143   0.491   7.442  1.2018 -1.0427  0.7692
  423MOL0     H55834   3.366   0.703   7.135 -1.6065  0.8390 -1.7869
  423MOL0     H55835   2.950   1.154   7.647  0.2303  2.1460  1.4592
  423MOL0     H55836   2.845   1.304   7.774 -0.3118  1.4001  1.8297
  424MOL0     O55837   0.760   7.265  10.171  0.4718  0.2221 -0.0254
  424MOL0     C55838   0.737   7.156  10.231 -0.1279 -0.0031 -1.2627
  424MOL0     O55839   0.617   7.116  10.270  0.9824  0.0900  0.4035
  424MOL0     C55840   0.496   7.180  10.220 -0.1172  0.3684 -0.1605
  424MOL0     C55841   0.487   7.237  10.089 -0.0089  0.5597 -0.3265
  424MOL0     C55842   0.354   7.275  10.050  0.0474  1.1951  0.1885
  424MOL0     C55843   0.245   7.264  10.133 -0.4698 -0.9441  0.0047
  424MOL0     O55844   0.126   7.314  10.095 -0.0387  0.0938 -0.0332
  424MOL0     C55845   0.027   7.211  10.085  0.3150 -0.3546 -0.8933
  424MOL0     C55846  -0.123   7.268  10.085  0.9199 -0.7695  0.3171
  424MOL0     C55847  -0.134   7.367   9.972 -0.3759  0.2444  0.0144
  424MOL0     C55848  -0.275   7.426   9.954  1.0710 -0.5041  0.4728
  424MOL0     C55849  -0.284   7.502   9.824 -0.7168  0.6029  0.0888
  424MOL0     C55850  -0.426   7.565   9.813  0.4271  0.0991 -0.0456
  424MOL0     C55851  -0.544   7.470   9.829  0.0677  0.0297  0.1440
  424MOL0     C55852  -0.569   7.382   9.695  0.6422 -0.7349  0.3377
  424MOL0     N55853  -0.557   7.235   9.729 -0.4247  0.0449 -0.1193
  424MOL0     C55854  -0.625   7.181   9.829  0.1902 -0.0531 -0.7313
  424MOL0     C55855  -0.557   7.070   9.869 -0.2711 -0.0743 -0.0152
  424MOL0     C55856  -0.584   6.988   9.998  0.7539 -1.1388 -0.2419
  424MOL0     C55857  -0.559   7.074  10.128 -0.2237  1.6289  0.3845
  424MOL0     C55858  -0.585   6.970  10.246 -0.5695 -1.0411  0.7831
  424MOL0     C55859  -0.610   7.027  10.388  0.1575  1.2135  0.8635
  424MOL0     O55860  -0.723   7.112  10.386 -0.1204 -0.4921  0.2443
  424MOL0     C55861  -0.851   7.060  10.392  0.3236 -0.0338  0.5958
  424MOL0     C55862  -0.959   7.146  10.345 -0.4493  0.1660  0.4449
  424MOL0     C55863  -1.096   7.115  10.367  0.2590 -0.2804 -0.5928
  424MOL0     C55864  -1.126   6.986  10.420 -0.6327 -0.1067 -0.1983
  424MOL0     C55865  -1.260   6.942  10.445 -0.0023 -0.1679 -0.0595
  424MOL0     O55866  -1.268   6.830  10.529 -0.0598 -0.0426  0.1513
  424MOL0     C55867  -1.386   6.773  10.565 -0.9967 -0.2356  0.3800
  424MOL0     C55868  -1.504   6.839  10.567  0.5829 -0.4279 -0.2148
  424MOL0     C55869  -1.621   6.763  10.591  0.3061 -0.5327  0.8723
  424MOL0     C55870  -1.619   6.624  10.611 -0.0882 -0.1375  0.7871
  424MOL0     O55871  -1.727   6.543  10.629 -0.6313 -0.3802 -0.1605
  424MOL0     C55872  -1.857   6.605  10.638 -0.7313 -0.3110 -0.8857
  424MOL0     C55873  -1.969   6.507  10.658  0.1976 -0.0948 -0.1500
  424MOL0     C55874  -2.106   6.578  10.693  0.1964  1.0919 -0.0517
  424MOL0     C55875  -2.217   6.471  10.700  0.1466 -0.7842  0.5654
  424MOL0     C55876  -2.354   6.538  10.726  0.0005  0.1057  0.5472
  424MOL0     C55877  -2.399   6.625  10.605 -0.0798  0.2447 -0.2661
  424MOL0     C55878  -2.540   6.703  10.631 -1.3508 -0.3716  0.1887
  424MOL0     C55879  -2.664   6.609  10.640  1.1870 -1.1540  0.6654
  424MOL0    Cl55880  -2.802   6.724  10.659 -0.5932  0.1357 -0.6187
  424MOL0     C55881  -1.500   6.560  10.604  0.6945  0.1114 -0.3748
  424MOL0     C55882  -1.382   6.632  10.571  0.4111  0.8823  0.4353
  424MOL0     O55883  -1.356   6.997  10.393 -0.9202  0.0080 -0.1179
  424MOL0     C55884  -1.014   6.905  10.460  0.0133 -0.1045  0.0199
  424MOL0     C55885  -0.882   6.944  10.444 -0.6439  1.1949  0.7815
  424MOL0     N55886  -0.450   7.057   9.781  0.3334  0.6270 -0.0276
  424MOL0     N55887  -0.450   7.162   9.705 -0.7130  0.4484 -0.3307
  424MOL0     C55888   0.259   7.202  10.257 -0.4011 -0.0842  1.5389
  424MOL0     C55889   0.390   7.162  10.297  0.6625  0.6877  0.1680
  424MOL0     C55890   0.849   7.080  10.292  0.2046  0.5101  0.0733
  424MOL0     C55891   0.981   7.090  10.235  1.3337 -1.2204 -0.1652
  424MOL0     C55892   1.092   7.022  10.298 -0.1423 -0.2987 -0.4479
  424MOL0     C55893   1.073   6.945  10.416 -1.0787  0.7150  0.1718
  424MOL0     O55894   1.166   6.876  10.490 -0.4492 -0.4159 -0.4807
  424MOL0     C55895   1.294   6.864  10.430 -0.6209  0.5205 -0.0990
  424MOL0     C55896   1.369   6.803  10.549  0.1159  0.2479 -0.5807
  424MOL0     C55897   1.506   6.750  10.521  0.3204 -0.0605  0.4584
  424MOL0     C55898   1.522   6.624  10.444 -1.0089  0.2785  0.1379
  424MOL0     C55899   1.659   6.599  10.406  0.2557 -0.9222  0.7034
  424MOL0     C55900   1.781   6.577  10.385  0.1526  0.4822  0.1314
  424MOL0     C55901   0.941   6.941  10.460  0.0337  0.1587 -1.2956
  424MOL0     C55902   0.838   7.000  10.399  0.6748 -0.2370  0.0133
  424MOL0     H55903   0.572   7.240  10.022  0.1392 -2.0432 -0.3538
  424MOL0     H55904   0.331   7.315   9.952  0.8581 -1.6364 -1.2547
  424MOL0     H55905   0.029   7.137  10.166 -0.4383  1.5077  0.9084
  424MOL0     H55906   0.045   7.163   9.988 -0.6282  0.3052 -1.4163
  424MOL0     H55907  -0.142   7.313  10.182 -1.2261  2.0266 -1.2374
  424MOL0     H55908  -0.197   7.190  10.065 -0.4196  0.2083  1.3062
  424MOL0     H55909  -0.094   7.324   9.879 -0.7269  0.8266 -0.4153
  424MOL0     H55910  -0.068   7.451   9.993 -0.3232  0.8817 -2.3498
  424MOL0     H55911  -0.333   7.334   9.941  1.0597 -0.3401 -0.7437
  424MOL0     H55912  -0.313   7.475  10.045 -3.6617  0.6377 -1.7697
  424MOL0     H55913  -0.265   7.436   9.739  1.9087  1.4914 -0.0935
  424MOL0     H55914  -0.195   7.565   9.818 -0.1735 -0.3141 -3.5722
  424MOL0     H55915  -0.426   7.630   9.725  0.0271  4.2363  2.7113
  424MOL0     H55916  -0.437   7.634   9.897 -0.3971  0.6133 -0.5636
  424MOL0     H55917  -0.533   7.416   9.924 -0.1429 -1.2949 -0.5584
  424MOL0     H55918  -0.635   7.530   9.835  0.4140  0.6430 -0.6412
  424MOL0     H55919  -0.492   7.418   9.626  0.5936  4.0867  2.3412
  424MOL0     H55920  -0.666   7.406   9.650  2.2355  4.5329 -1.0299
  424MOL0     H55921  -0.718   7.228   9.861 -1.9441 -3.8809 -0.6358
  424MOL0     H55922  -0.514   6.904  10.008  1.1622 -0.6867  0.7834
  424MOL0     H55923  -0.683   6.941   9.992 -0.7608  1.9119 -1.0960
  424MOL0     H55924  -0.639   7.148  10.135 -1.0728  0.8843 -1.0463
  424MOL0     H55925  -0.460   7.119  10.131  0.6525  0.0539 -2.0914
  424MOL0     H55926  -0.671   6.903  10.241 -0.4088 -1.1616 -0.7615
  424MOL0     H55927  -0.503   6.899  10.264 -0.2229 -0.6770  0.6420
  424MOL0     H55928  -0.525   7.094  10.402 -0.9726  2.3816  2.4029
  424MOL0     H55929  -0.604   6.954  10.469  1.0429  1.5332  1.1007
  424MOL0     H55930  -0.938   7.243  10.302 -1.7529 -0.6694 -2.2610
  424MOL0     H55931  -1.178   7.178  10.333  3.3826  3.1323 -2.6069
  424MOL0     H55932  -1.503   6.947  10.566 -0.2562 -0.4045  0.5388
  424MOL0     H55933  -1.720   6.808  10.601  0.8797  0.7505  0.9625
  424MOL0     H55934  -1.873   6.683  10.564 -2.1673  0.0245 -0.2685
  424MOL0     H55935  -1.853   6.657  10.734  3.3476 -1.2247 -0.3853
  424MOL0     H55936  -1.942   6.440  10.741  1.5763  0.3846 -0.1808
  424MOL0     H55937  -1.975   6.465  10.557 -0.2492  0.3978 -0.3284
  424MOL0     H55938  -2.131   6.655  10.619  1.6257  1.9695  0.3373
  424MOL0     H55939  -2.106   6.638  10.785  0.5804 -0.7552  1.2127
  424MOL0     H55940  -2.215   6.417  10.604 -2.2703  1.1191 -0.6518
  424MOL0     H55941  -2.194   6.397  10.777  2.7605 -2.4398 -1.5781
  424MOL0     H55942  -2.350   6.590  10.822 -0.6565 -1.7201  1.6104
  424MOL0     H55943  -2.415   6.450  10.746  0.7911 -0.7191 -0.5167
  424MOL0     H55944  -2.398   6.562  10.516  2.6790 -2.4982  1.5048
  424MOL0     H55945  -2.325   6.703  10.582  0.0833  0.2570  0.2748
  424MOL0     H55946  -2.533   6.767  10.719 -4.5273  2.4435 -1.3561
  424MOL0     H55947  -2.560   6.774  10.550  1.0708 -1.2439 -1.2504
  424MOL0     H55948  -2.658   6.554  10.735  3.3616  1.5499  2.2578
  424MOL0     H55949  -2.681   6.551  10.550  1.5744 -0.4642  0.1359
  424MOL0     H55950  -1.508   6.452  10.604 -1.5287  0.1298  2.7773
  424MOL0     H55951  -1.290   6.580  10.545  0.0004 -0.1561  1.0103
  424MOL0     H55952  -1.016   6.815  10.521  2.8018  1.1830  2.2384
  424MOL0     H55953  -0.809   6.885  10.499 -0.6285 -0.9138 -1.3151
  424MOL0     H55954   0.186   7.181  10.335  0.2433  0.7528  2.3831
  424MOL0     H55955   0.410   7.108  10.389 -2.9345 -2.1644 -0.5012
  424MOL0     H55956   1.007   7.156  10.153 -1.6037  1.8853  1.1840
  424MOL0     H55957   1.197   7.038  10.273 -0.7846  0.2700 -3.0284
  424MOL0     H55958   1.332   6.963  10.403 -3.8613  2.4427  1.7801
  424MOL0     H55959   1.282   6.801  10.341 -1.0247  0.4722 -0.0120
  424MOL0     H55960   1.382   6.890  10.614  2.0900  0.7672 -1.5619
  424MOL0     H55961   1.317   6.721  10.599 -0.1804  1.0567  0.4827
  424MOL0     H55962   1.554   6.741  10.619 -0.3651  1.7514  0.9947
  424MOL0     H55963   1.554   6.839  10.480 -1.6094  1.0005  0.3797
  424MOL0     H55964   1.480   6.534  10.491  0.8916 -0.6170  0.2200
  424MOL0     H55965   1.457   6.636  10.357 -2.9445 -1.2838  1.2811
  424MOL0     H55966   1.885   6.551  10.387 -0.7659 -4.2864 -1.6518
  424MOL0     H55967   0.908   6.883  10.546 -2.1191  4.4102  1.0716
  424MOL0     H55968   0.735   6.980  10.425 -0.1241  1.0249 -1.9495
  425MOL0     O55969   2.085   9.484   8.876  0.4549  0.3403 -0.1285
  425MOL0     C55970   2.028   9.456   8.770  0.2054  0.0959 -0.1110
  425MOL0     O55971   2.083   9.445   8.643 -0.4701 -0.4250 -1.0264
  425MOL0     C55972   2.210   9.488   8.624 -0.0076  0.1855 -0.1231
  425MOL0     C55973   2.301   9.393   8.570  0.1033  0.0750 -0.5057
  425MOL0     C55974   2.435   9.423   8.558  0.3047 -0.2485  0.1208
  425MOL0     C55975   2.483   9.556   8.594  0.7569  0.2807  0.8428
  425MOL0     O55976   2.622   9.584   8.583 -0.6707 -0.2839  0.2943
  425MOL0     C55977   2.712   9.626   8.688 -0.3706  0.1326 -0.6890
  425MOL0     C55978   2.760   9.780   8.678  0.4740  0.0456  0.2107
  425MOL0     C55979   2.818   9.820   8.538  0.0520  0.5974  0.3583
  425MOL0     C55980   2.881   9.959   8.527  0.3741 -0.2333 -0.7217
  425MOL0     C55981   2.969   9.978   8.403 -0.5940 -0.2273 -0.3736
  425MOL0     C55982   3.052  10.113   8.422 -0.1107  0.2366  0.1797
  425MOL0     C55983   3.110  10.161   8.299 -0.6879 -0.3599  0.4501
  425MOL0     C55984   3.235  10.091   8.266  0.7617 -0.3565 -0.3816
  425MOL0     N55985   3.302  10.131   8.146 -0.3795 -0.2856  0.5518
  425MOL0     C55986   3.267  10.091   8.018  0.1208 -0.1072 -0.2583
  425MOL0     C55987   3.330  10.184   7.947  1.2028  0.0386  0.1699
  425MOL0     C55988   3.328  10.215   7.796 -0.2019 -0.0634  0.2887
  425MOL0     C55989   3.221  10.126   7.732  0.2108 -0.1730  0.0958
  425MOL0     C55990   3.094  10.209   7.681 -0.4071  0.4161  0.7212
  425MOL0     C55991   2.991  10.236   7.793 -0.1695  0.6527 -0.1256
  425MOL0     O55992   2.931  10.121   7.848 -0.5650  0.6577 -0.5612
  425MOL0     C55993   2.844  10.131   7.952 -0.9537  0.1674 -0.6043
  425MOL0     C55994   2.836  10.019   8.035  0.5035 -0.6777 -0.1693
  425MOL0     C55995   2.730  10.007   8.128 -0.7589 -0.6346 -0.6181
  425MOL0     C55996   2.632  10.106   8.145  0.1383  1.0100 -0.1529
  425MOL0     C55997   2.515  10.080   8.230  0.1040 -0.7949  0.1505
  425MOL0     O55998   2.416  10.167   8.228 -0.1115 -0.0599  0.3086
  425MOL0     C55999   2.308  10.153   8.311  0.5888  0.2346 -1.1079
  425MOL0     C56000   2.185  10.139   8.242 -0.0402  1.0048  0.2397
  425MOL0     C56001   2.066  10.123   8.312 -0.6969 -0.5059  0.2332
  425MOL0     C56002   2.068  10.129   8.455  0.1508 -0.8186  0.3182
  425MOL0     O56003   1.947  10.137   8.518  0.1261 -0.1987 -0.2561
  425MOL0     C56004   1.922  10.178   8.651  0.5714  0.1724 -0.8834
  425MOL0     C56005   1.761  10.187   8.672 -0.0968 -0.5343  0.1751
  425MOL0     C56006   1.684  10.058   8.674  0.0953 -0.2652  0.0833
  425MOL0     C56007   1.539  10.092   8.646 -0.1303 -0.0590  0.0323
  425MOL0     C56008   1.447   9.969   8.628 -0.1079 -0.3570  0.2983
  425MOL0     C56009   1.308  10.011   8.657 -0.3312 -0.5040 -0.0483
  425MOL0     C56010   1.216   9.904   8.640 -0.5222  0.2611  0.2764
  425MOL0     C56011   1.103   9.911   8.746 -1.0029  0.2670  1.4215
  425MOL0    Cl56012   0.987   9.771   8.708 -0.1256 -0.6219  0.1674
  425MOL0     C56013   2.191  10.131   8.521  0.2623 -0.0194  0.3997
  425MOL0     C56014   2.314  10.148   8.458  0.0781  0.2970 -0.0585
  425MOL0     O56015   2.518   9.982   8.300 -0.7978 -0.4355 -0.4577
  425MOL0     C56016   2.643  10.226   8.067 -0.1954  0.5352 -0.1191
  425MOL0     C56017   2.741  10.229   7.964 -0.0350  0.3495  0.3224
  425MOL0     N56018   3.402  10.271   8.022 -0.6995 -0.2762  0.5292
  425MOL0     N56019   3.384  10.235   8.141 -0.8855  0.2756 -0.1149
  425MOL0     C56020   2.401   9.651   8.647  0.1099 -0.6972 -0.0218
  425MOL0     C56021   2.269   9.614   8.659 -1.0972 -0.2617  0.7861
  425MOL0     C56022   1.886   9.412   8.793  0.5497 -0.6592  0.7224
  425MOL0     C56023   1.800   9.396   8.686 -0.1999  1.2559  0.2229
  425MOL0     C56024   1.672   9.335   8.706  0.0505 -0.1562 -0.4682
  425MOL0     C56025   1.627   9.305   8.836 -0.6561 -0.3423 -0.5640
  425MOL0     O56026   1.505   9.245   8.863 -0.1752 -0.4099  0.1515
  425MOL0     C56027   1.396   9.245   8.764  0.2249 -0.5718 -1.2761
  425MOL0     C56028   1.351   9.100   8.755  0.5811 -0.1987  0.2014
  425MOL0     C56029   1.470   8.989   8.748  0.5161 -0.4017  0.2755
  425MOL0     C56030   1.408   8.849   8.748 -0.0956  0.5575 -0.0748
  425MOL0     C56031   1.501   8.752   8.689  0.4475  0.4553 -0.0034
  425MOL0     C56032   1.579   8.686   8.626 -0.0222  0.3220  0.0049
  425MOL0     C56033   1.713   9.330   8.945 -0.3121  0.4995  0.6119
  425MOL0     C56034   1.842   9.376   8.923 -0.3654  0.3644 -0.1032
  425MOL0     H56035   2.278   9.289   8.549  2.2238 -0.9464  1.7241
  425MOL0     H56036   2.511   9.355   8.523  3.7851  1.7885  3.0452
  425MOL0     H56037   2.809   9.575   8.689  0.8832  2.3636  0.3970
  425MOL0     H56038   2.668   9.601   8.785  0.9756 -0.8221 -0.2948
  425MOL0     H56039   2.825   9.799   8.763  1.1138 -1.0848 -0.0002
  425MOL0     H56040   2.683   9.857   8.687  1.8895  1.6477 -0.8548
  425MOL0     H56041   2.740   9.809   8.462 -0.8969  1.8434  1.1172
  425MOL0     H56042   2.886   9.737   8.516 -2.5065 -1.2943 -0.9540
  425MOL0     H56043   2.800  10.032   8.528  1.4314  1.0471  2.4067
  425MOL0     H56044   2.947   9.977   8.613  1.2415 -3.8862 -0.4256
  425MOL0     H56045   2.898   9.982   8.320  1.8242 -3.9408 -2.9539
  425MOL0     H56046   3.031   9.891   8.380 -0.5783  0.3838 -2.9152
  425MOL0     H56047   3.128  10.100   8.499  1.3220 -1.6218 -1.4204
  425MOL0     H56048   2.980  10.190   8.452 -1.1042  0.1262 -1.7635
  425MOL0     H56049   3.041  10.159   8.214  0.1679 -0.6081 -0.2549
  425MOL0     H56050   3.131  10.266   8.323  0.9787 -1.3497  4.1841
  425MOL0     H56051   3.213   9.984   8.265  0.9363 -0.4111  0.6458
  425MOL0     H56052   3.299  10.106   8.354 -0.5079  1.1211  0.3260
  425MOL0     H56053   3.210  10.004   7.986 -1.6229  1.0513 -0.4678
  425MOL0     H56054   3.424  10.173   7.764  0.4529 -0.3049  2.4607
  425MOL0     H56055   3.321  10.321   7.768  2.3645  0.0870 -0.0096
  425MOL0     H56056   3.165  10.060   7.799 -0.3659  1.3535  1.1781
  425MOL0     H56057   3.270  10.073   7.649  0.7318  0.6168 -0.1200
  425MOL0     H56058   3.120  10.310   7.647 -2.6359  0.6126 -0.6053
  425MOL0     H56059   3.059  10.153   7.594  1.1022  2.4235 -1.3147
  425MOL0     H56060   2.918  10.298   7.741  0.1148  1.3793  0.3209
  425MOL0     H56061   3.033  10.299   7.873 -1.1628 -0.5517  1.3874
  425MOL0     H56062   2.906   9.937   8.022  1.2675 -0.2489  1.0517
  425MOL0     H56063   2.717   9.915   8.185 -0.5579  0.5696  1.4571
  425MOL0     H56064   2.185  10.125   8.135  1.0150 -1.8877  0.5468
  425MOL0     H56065   1.968  10.112   8.265 -1.8532  0.7159  2.2039
  425MOL0     H56066   1.961  10.280   8.659  3.0132 -0.8311  2.4496
  425MOL0     H56067   1.966  10.111   8.726  0.5478  3.3679  2.2591
  425MOL0     H56068   1.720  10.248   8.590 -0.8178 -2.0555 -0.6318
  425MOL0     H56069   1.739  10.235   8.767  1.1466  0.1022  0.1569
  425MOL0     H56070   1.701  10.003   8.766  2.2563  2.0599  1.1856
  425MOL0     H56071   1.706   9.996   8.587 -0.3463 -1.3850  0.7581
  425MOL0     H56072   1.504  10.154   8.729 -3.1801 -2.5978  0.8401
  425MOL0     H56073   1.529  10.165   8.566 -2.1034 -0.9326 -0.5587
  425MOL0     H56074   1.468   9.894   8.705 -0.4371 -0.7164  0.0428
  425MOL0     H56075   1.448   9.917   8.531  2.2149 -2.6148  1.4134
  425MOL0     H56076   1.293  10.092   8.585 -2.8938  1.2345  2.2180
  425MOL0     H56077   1.302  10.059   8.756 -4.0451  2.6490 -1.5487
  425MOL0     H56078   1.175   9.889   8.540 -0.5017 -0.1853  0.3301
  425MOL0     H56079   1.260   9.805   8.656 -4.8156 -1.9448 -0.1887
  425MOL0     H56080   1.063  10.012   8.730 -3.0756 -0.6084  0.7153
  425MOL0     H56081   1.139   9.902   8.849  0.6660  2.1397  1.0681
  425MOL0     H56082   2.197  10.146   8.628  0.5817  1.8060  0.1495
  425MOL0     H56083   2.404  10.156   8.518 -0.7449  0.5946  1.1724
  425MOL0     H56084   2.579  10.313   8.076 -1.3809 -0.4738  1.6868
  425MOL0     H56085   2.751  10.314   7.896  2.8035 -2.2300 -2.8695
  425MOL0     H56086   2.435   9.752   8.669 -0.1819 -0.5137 -0.4090
  425MOL0     H56087   2.219   9.697   8.709  0.9463  0.3846  1.8564
  425MOL0     H56088   1.840   9.430   8.592  5.8704 -2.0902  1.0344
  425MOL0     H56089   1.611   9.323   8.617 -2.5306  1.6621  0.9101
  425MOL0     H56090   1.424   9.287   8.666  0.5234  0.8787 -0.5966
  425MOL0     H56091   1.314   9.309   8.797  1.0486  0.5592 -1.3791
  425MOL0     H56092   1.277   9.070   8.829 -1.9425  2.1204 -1.2173
  425MOL0     H56093   1.285   9.096   8.668 -0.7441 -1.5493  1.2167
  425MOL0     H56094   1.538   9.001   8.833 -2.0650  1.3256  2.2416
  425MOL0     H56095   1.524   8.991   8.653  0.2320 -0.0595  0.1192
  425MOL0     H56096   1.393   8.820   8.853 -0.1360  1.9734  0.3296
  425MOL0     H56097   1.316   8.853   8.689 -0.3909 -0.4362  0.3032
  425MOL0     H56098   1.656   8.633   8.574  1.1232  0.4977  1.4657
  425MOL0     H56099   1.690   9.295   9.045  0.6377  0.9765  1.0069
  425MOL0     H56100   1.909   9.385   9.008  0.0289  0.7485 -0.4491
  426MOL0     O56101  11.085   7.448   5.779  0.2896  0.2429 -0.1570
  426MOL0     C56102  10.991   7.480   5.699 -0.9288 -0.7385 -0.3987
  426MOL0     O56103  10.948   7.400   5.603  0.2535 -0.2264  0.4209
  426MOL0     C56104  11.014   7.281   5.577  0.1501 -0.7711 -1.2083
  426MOL0     C56105  10.932   7.180   5.556 -0.2520  1.1301 -0.5006
  426MOL0     C56106  10.977   7.052   5.508 -0.3589  0.1057  0.2441
  426MOL0     C56107  11.113   7.036   5.483  0.0127 -0.5673 -0.9283
  426MOL0     O56108  11.161   6.918   5.434 -0.1241  0.0552  0.0144
  426MOL0     C56109  11.163   6.936   5.289 -0.3504  1.1484  0.0404
  426MOL0     C56110  11.261   6.841   5.223  0.0569  0.6905 -0.5094
  426MOL0     C56111  11.230   6.699   5.278  0.0886  0.8458 -0.1895
  426MOL0     C56112  11.301   6.594   5.195 -0.1741 -0.0709 -0.7034
  426MOL0     C56113  11.456   6.595   5.214 -0.0595  0.7709  0.9548
  426MOL0     C56114  11.521   6.477   5.139 -0.6726  0.0624  0.0712
  426MOL0     C56115  11.496   6.332   5.189 -0.2170  0.0823 -0.7460
  426MOL0     C56116  11.604   6.225   5.149  0.7966 -0.7082 -0.9404
  426MOL0     N56117  11.562   6.089   5.192  0.5398 -0.5804 -0.3072
  426MOL0     C56118  11.651   5.982   5.166  0.6462  0.3718 -0.2548
  426MOL0     C56119  11.570   5.876   5.185  0.2340 -0.1339 -0.3261
  426MOL0     C56120  11.606   5.737   5.148  0.1724 -0.2105 -0.2687
  426MOL0     C56121  11.591   5.707   4.995  0.2052  0.2433 -0.8143
  426MOL0     C56122  11.460   5.762   4.923 -0.7048  0.5150 -1.1623
  426MOL0     C56123  11.458   5.909   4.871  0.0536 -0.0046  0.4918
  426MOL0     O56124  11.523   5.911   4.734  0.0558  0.8117  0.2876
  426MOL0     C56125  11.456   5.834   4.638  0.1912  0.2645 -0.1017
  426MOL0     C56126  11.320   5.816   4.629  0.0451  0.7441 -0.3303
  426MOL0     C56127  11.254   5.729   4.541 -0.3532  0.0121  0.0512
  426MOL0     C56128  11.335   5.674   4.437  0.0250  0.4864  0.0750
  426MOL0     C56129  11.277   5.587   4.339  0.1070 -0.1249  0.4592
  426MOL0     O56130  11.157   5.621   4.301  0.0238 -0.0222  0.1117
  426MOL0     C56131  11.099   5.546   4.203  0.0967 -0.5386  1.0486
  426MOL0     C56132  11.048   5.616   4.094 -0.6054  0.2477  0.2555
  426MOL0     C56133  10.994   5.540   3.988  0.2733 -0.8397  0.1972
  426MOL0     C56134  10.967   5.404   3.990 -1.0754  0.3746 -0.0058
  426MOL0     O56135  10.899   5.347   3.887 -0.5786  0.1696  0.8475
  426MOL0     C56136  10.850   5.212   3.899 -0.7964  0.2498 -0.5456
  426MOL0     C56137  10.779   5.175   3.776 -0.2874  1.1416  0.9115
  426MOL0     C56138  10.724   5.030   3.777  0.9335 -0.6352  0.1739
  426MOL0     C56139  10.593   5.019   3.863 -0.4223 -0.4799 -0.1146
  426MOL0     C56140  10.567   4.875   3.888  0.0566  0.2722 -0.9691
  426MOL0     C56141  10.424   4.856   3.948 -0.5947 -0.6534 -0.9284
  426MOL0     C56142  10.398   4.710   3.960 -0.1602 -1.1955  0.1497
  426MOL0     C56143  10.254   4.675   4.018 -0.2925  0.2998 -0.0877
  426MOL0    Cl56144  10.127   4.780   3.947  0.3499 -0.0880  0.3020
  426MOL0     C56145  11.022   5.336   4.101 -0.5208  0.4191  0.3971
  426MOL0     C56146  11.083   5.408   4.204 -0.2513 -0.4827 -0.5088
  426MOL0     O56147  11.346   5.493   4.302 -0.0464 -0.9393  0.5698
  426MOL0     C56148  11.471   5.705   4.438  0.6196 -0.1344  0.2390
  426MOL0     C56149  11.529   5.777   4.538  0.8717 -0.4645  0.5263
  426MOL0     N56150  11.444   5.916   5.230  1.0285 -0.0779  0.5091
  426MOL0     N56151  11.443   6.048   5.237  1.0738  0.1315 -0.0830
  426MOL0     C56152  11.197   7.147   5.509  0.5295 -0.1922  0.3052
  426MOL0     C56153  11.150   7.266   5.552  0.9974 -0.9891  0.8282
  426MOL0     C56154  10.915   7.607   5.729 -0.1478  0.5104  0.4277
  426MOL0     C56155  10.964   7.703   5.822  0.1131  0.0665 -0.0814
  426MOL0     C56156  10.892   7.818   5.855  0.4088  0.3721 -0.0974
  426MOL0     C56157  10.777   7.841   5.781  0.1896  0.2699 -0.0171
  426MOL0     O56158  10.716   7.961   5.797 -0.4011  0.3210 -0.1434
  426MOL0     C56159  10.577   7.965   5.844  0.8978  0.4502  0.1870
  426MOL0     C56160  10.556   7.916   5.982 -0.2864 -0.3604 -0.4083
  426MOL0     C56161  10.425   7.952   6.039 -0.1678 -0.1267 -0.9627
  426MOL0     C56162  10.388   8.097   6.053 -0.3136  0.1217  0.3063
  426MOL0     C56163  10.480   8.173   6.132 -0.4712  0.8052 -0.4829
  426MOL0     C56164  10.553   8.252   6.197 -0.7308  0.8472  0.0757
  426MOL0     C56165  10.726   7.761   5.679 -0.5263 -0.4462  0.3716
  426MOL0     C56166  10.798   7.638   5.659  0.2407 -0.4677  0.0713
  426MOL0     H56167  10.824   7.187   5.562 -0.5089 -2.3502  1.4217
  426MOL0     H56168  10.904   6.977   5.481 -0.5472  0.3518  0.0599
  426MOL0     H56169  11.194   7.035   5.258 -2.0193  0.8124 -3.0759
  426MOL0     H56170  11.062   6.913   5.253  0.5099  0.1212 -1.8310
  426MOL0     H56171  11.365   6.870   5.244  0.9662 -1.7226 -1.2529
  426MOL0     H56172  11.247   6.844   5.115  0.6706  4.2058 -0.6163
  426MOL0     H56173  11.124   6.674   5.273 -0.0339  0.7905  1.7692
  426MOL0     H56174  11.258   6.693   5.384 -0.4988  5.4044  0.4389
  426MOL0     H56175  11.265   6.492   5.211  1.1095 -0.2952  1.0652
  426MOL0     H56176  11.290   6.605   5.087 -0.3015 -3.6774 -1.1926
  426MOL0     H56177  11.481   6.563   5.315 -0.5336  2.3158  1.5856
  426MOL0     H56178  11.495   6.696   5.198 -3.7409  2.4832  1.8030
  426MOL0     H56179  11.630   6.482   5.136 -0.4665 -2.8130 -2.7055
  426MOL0     H56180  11.486   6.475   5.035  0.2410 -0.3719 -0.2367
  426MOL0     H56181  11.503   6.341   5.298  1.4772 -1.2647 -0.7079
  426MOL0     H56182  11.394   6.299   5.165 -0.0625 -1.2120  0.2584
  426MOL0     H56183  11.699   6.250   5.196 -0.7773 -2.3301  3.5591
  426MOL0     H56184  11.615   6.234   5.040  0.7073  1.1591 -0.8209
  426MOL0     H56185  11.751   5.992   5.126  0.6115 -1.8628 -1.0266
  426MOL0     H56186  11.536   5.672   5.201 -0.2785 -1.0134 -1.7914
  426MOL0     H56187  11.710   5.717   5.174  0.6777  1.0421 -1.1919
  426MOL0     H56188  11.594   5.597   4.990 -2.1419  0.0961 -0.1638
  426MOL0     H56189  11.679   5.750   4.944 -2.0431  4.4109 -1.6005
  426MOL0     H56190  11.444   5.684   4.849 -0.9478  1.1114 -1.7427
  426MOL0     H56191  11.369   5.752   4.982 -2.3687  0.6276 -3.5810
  426MOL0     H56192  11.513   5.969   4.944 -2.0481  1.0301  1.3346
  426MOL0     H56193  11.360   5.957   4.860  0.3926  0.2627 -1.9471
  426MOL0     H56194  11.251   5.863   4.700  0.9512  1.5688  0.0262
  426MOL0     H56195  11.147   5.716   4.555 -0.6863 -2.0505 -3.3254
  426MOL0     H56196  11.063   5.723   4.089 -0.3104  0.2668  1.2113
  426MOL0     H56197  10.977   5.591   3.893  3.0486  0.7386  0.4112
  426MOL0     H56198  10.775   5.215   3.980 -0.2810  3.2790 -0.0796
  426MOL0     H56199  10.932   5.141   3.915 -0.2139  0.6710 -1.5957
  426MOL0     H56200  10.834   5.184   3.682  0.2988 -0.0707  1.1174
  426MOL0     H56201  10.693   5.240   3.765 -0.3516  1.1710  1.5543
  426MOL0     H56202  10.797   4.958   3.814 -0.0094 -3.2525 -2.7070
  426MOL0     H56203  10.687   4.991   3.682 -3.7998 -3.3356  2.7150
  426MOL0     H56204  10.603   5.062   3.964  4.2042 -2.3329  0.4722
  426MOL0     H56205  10.522   5.079   3.806  1.3971  0.9730 -0.9535
  426MOL0     H56206  10.647   4.827   3.946 -1.2896 -1.1041 -0.1848
  426MOL0     H56207  10.571   4.831   3.789 -1.5162 -2.0753 -0.0630
  426MOL0     H56208  10.355   4.913   3.884 -0.6674  1.2978  0.7655
  426MOL0     H56209  10.431   4.894   4.051  2.7452 -3.5862  0.1170
  426MOL0     H56210  10.397   4.664   3.861 -1.4863  0.7274 -0.7982
  426MOL0     H56211  10.475   4.658   4.018  0.6872 -0.7156 -0.5220
  426MOL0     H56212  10.262   4.679   4.127 -1.5769  0.7436  0.0107
  426MOL0     H56213  10.234   4.569   3.997  3.5523 -0.5235 -0.2902
  426MOL0     H56214  11.008   5.228   4.104  0.1222  0.3349  2.9913
  426MOL0     H56215  11.113   5.360   4.296  2.4464  0.8134 -0.5895
  426MOL0     H56216  11.540   5.673   4.361 -0.3345 -0.9813 -0.2872
  426MOL0     H56217  11.635   5.800   4.536  1.1255 -1.3262  2.4747
  426MOL0     H56218  11.304   7.137   5.490  0.3634  0.1068 -0.8879
  426MOL0     H56219  11.217   7.351   5.559 -0.2754  0.1437 -0.1279
  426MOL0     H56220  11.056   7.694   5.880 -0.0618  1.5788  0.4593
  426MOL0     H56221  10.944   7.891   5.916  4.6430  0.2344 -3.1061
  426MOL0     H56222  10.512   7.914   5.772  0.2849 -0.0079  1.0499
  426MOL0     H56223  10.558   8.072   5.854  2.4751  0.7999 -0.2779
  426MOL0     H56224  10.571   7.808   5.996  1.2887 -0.0831  0.2952
  426MOL0     H56225  10.636   7.956   6.045  1.1336 -1.2529 -1.5737
  426MOL0     H56226  10.396   7.900   6.131  1.9347 -1.9252 -1.2116
  426MOL0     H56227  10.364   7.905   5.962  0.1417  0.0172 -1.3004
  426MOL0     H56228  10.364   8.142   5.956 -0.0228  0.1624  0.2518
  426MOL0     H56229  10.297   8.112   6.112 -0.7360  4.0014 -1.1091
  426MOL0     H56230  10.625   8.310   6.251  0.9144  0.3395 -1.4669
  426MOL0     H56231  10.640   7.787   5.618  0.2744  3.3174  0.6343
  426MOL0     H56232  10.760   7.573   5.581  1.4000  0.6572 -1.4848
  427MOL0     O56233   7.433   5.728   5.052 -0.0196  0.0665  0.4911
  427MOL0     C56234   7.429   5.847   5.073  0.4967 -0.5330 -0.9018
  427MOL0     O56235   7.527   5.934   5.056  0.3713 -1.1382 -0.0645
  427MOL0     C56236   7.654   5.878   5.059 -0.1529  0.4874  1.1312
  427MOL0     C56237   7.716   5.841   4.943 -0.1079  0.0002  0.9730
  427MOL0     C56238   7.850   5.791   4.946 -0.0721 -0.7831  0.0193
  427MOL0     C56239   7.924   5.790   5.054 -0.6954  0.5732 -1.3225
  427MOL0     O56240   8.056   5.761   5.030  0.4043 -0.1170 -0.1326
  427MOL0     C56241   8.149   5.767   5.140 -0.3985  0.8869 -0.8910
  427MOL0     C56242   8.289   5.718   5.113 -0.2056  0.1057 -0.5915
  427MOL0     C56243   8.348   5.811   4.998 -0.5393 -0.5050  0.4779
  427MOL0     C56244   8.489   5.769   4.976 -0.8809  0.1381  0.1527
  427MOL0     C56245   8.535   5.838   4.842 -0.5152 -0.1735  0.0519
  427MOL0     C56246   8.683   5.811   4.814  0.8016 -0.3790 -0.0926
  427MOL0     C56247   8.784   5.886   4.896  0.4690  0.3916  0.9221
  427MOL0     C56248   8.923   5.860   4.847 -0.0401  0.3937 -0.1771
  427MOL0     N56249   8.964   5.967   4.751 -0.0083 -0.0849 -0.1688
  427MOL0     C56250   8.975   5.956   4.611  0.0048 -0.1125 -0.0066
  427MOL0     C56251   9.026   6.078   4.575  0.1122  1.7867 -0.4345
  427MOL0     C56252   9.066   6.113   4.435  0.1550 -0.0011  0.1927
  427MOL0     C56253   9.220   6.143   4.412  0.2349  0.0193 -0.0123
  427MOL0     C56254   9.261   6.283   4.468 -0.8548  0.4999  0.7121
  427MOL0     C56255   9.406   6.310   4.426 -0.2989  0.7030 -0.5826
  427MOL0     O56256   9.456   6.440   4.472 -0.0307  0.2929  0.3993
  427MOL0     C56257   9.572   6.477   4.415  0.3315  0.1791 -0.5820
  427MOL0     C56258   9.574   6.517   4.278  0.2368 -0.5607 -0.6620
  427MOL0     C56259   9.685   6.583   4.229  0.1584  0.7583 -0.9019
  427MOL0     C56260   9.793   6.595   4.312 -0.4683  0.0779  0.6292
  427MOL0     C56261   9.925   6.635   4.257 -0.2098  0.4262  0.7100
  427MOL0     O56262   9.987   6.739   4.313  0.3033  0.2560 -0.5022
  427MOL0     C56263  10.109   6.769   4.278  0.2814 -0.5739 -0.4316
  427MOL0     C56264  10.213   6.729   4.367  0.4470 -0.5813  0.4944
  427MOL0     C56265  10.342   6.760   4.334 -0.5020 -0.4596 -0.0001
  427MOL0     C56266  10.376   6.824   4.214  0.5794  0.2969  0.1237
  427MOL0     O56267  10.505   6.837   4.167 -0.1137  0.1886  0.2532
  427MOL0     C56268  10.590   6.724   4.205 -0.3840  0.1932  0.1931
  427MOL0     C56269  10.728   6.732   4.128  0.4383 -0.0881 -0.5650
  427MOL0     C56270  10.834   6.637   4.189 -0.1445 -0.3263  0.3895
  427MOL0     C56271  10.775   6.495   4.226  0.0684  0.4084  0.9314
  427MOL0     C56272  10.878   6.393   4.268 -0.6293  0.5144 -0.4302
  427MOL0     C56273  10.913   6.408   4.419  0.2105 -0.5802 -0.5907
  427MOL0     C56274  11.018   6.302   4.459 -0.1790  0.9154  0.5650
  427MOL0     C56275  11.032   6.306   4.606 -0.5345 -0.1261  1.2352
  427MOL0    Cl56276  11.193   6.233   4.652  0.3442  0.3054 -0.4598
  427MOL0     C56277  10.274   6.881   4.135  0.2492  0.7759 -0.2521
  427MOL0     C56278  10.139   6.853   4.172  1.4322  0.2850  0.5256
  427MOL0     O56279   9.971   6.567   4.172 -0.4316 -0.3252  0.3805
  427MOL0     C56280   9.793   6.560   4.446 -0.2501  0.5725  0.1261
  427MOL0     C56281   9.678   6.498   4.498 -1.0022  0.0699 -0.3264
  427MOL0     N56282   9.056   6.150   4.692  0.0305  0.3579 -0.5038
  427MOL0     N56283   9.010   6.089   4.790 -0.6482  0.0503 -0.1235
  427MOL0     C56284   7.872   5.834   5.173  0.7662 -0.5888 -0.9533
  427MOL0     C56285   7.734   5.881   5.174  0.7115  0.9736 -0.2037
  427MOL0     C56286   7.310   5.902   5.136  0.0122 -0.9669 -0.3098
  427MOL0     C56287   7.193   5.830   5.130 -0.5161 -0.7991  0.1887
  427MOL0     C56288   7.080   5.882   5.193 -1.0900  0.0195 -0.1133
  427MOL0     C56289   7.081   6.014   5.252 -0.8332 -0.4319  1.2501
  427MOL0     O56290   6.969   6.077   5.312  0.5382 -0.1168  0.2940
  427MOL0     C56291   6.905   5.996   5.407  0.3158 -0.0832  0.7694
  427MOL0     C56292   6.905   6.079   5.537  0.5201  0.4031  0.1799
  427MOL0     C56293   6.848   5.984   5.633  0.2076 -0.1695  0.0449
  427MOL0     C56294   6.799   6.061   5.757 -0.0279  0.6203 -0.7042
  427MOL0     C56295   6.712   5.964   5.824  0.5924  0.2697  0.0594
  427MOL0     C56296   6.630   5.898   5.874  0.6679  0.3276  0.3673
  427MOL0     C56297   7.200   6.089   5.256 -0.0993 -0.2036  0.2253
  427MOL0     C56298   7.309   6.026   5.206 -0.2960  0.0526  0.0806
  427MOL0     H56299   7.652   5.850   4.855  2.0622  0.3242 -0.6581
  427MOL0     H56300   7.891   5.751   4.854 -1.0040  0.4915 -0.9835
  427MOL0     H56301   8.110   5.701   5.217 -2.3327  3.3919  0.4143
  427MOL0     H56302   8.158   5.868   5.183 -0.8492  1.6298 -2.4657
  427MOL0     H56303   8.273   5.614   5.084  0.4307 -0.0946 -0.2383
  427MOL0     H56304   8.345   5.737   5.205 -0.6801 -2.2038  0.2368
  427MOL0     H56305   8.350   5.920   5.009 -3.8076 -0.2511 -0.3066
  427MOL0     H56306   8.282   5.797   4.912  0.5897  1.6053 -0.8068
  427MOL0     H56307   8.561   5.798   5.052  0.8297  0.9396 -1.6848
  427MOL0     H56308   8.489   5.660   4.962  0.2227 -0.1089  1.8898
  427MOL0     H56309   8.521   5.945   4.826 -0.2710 -0.3191 -1.2885
  427MOL0     H56310   8.482   5.786   4.762 -0.8478  1.5769 -0.9180
  427MOL0     H56311   8.699   5.838   4.709  0.7575 -0.3693 -0.0968
  427MOL0     H56312   8.700   5.703   4.823 -1.3144 -0.7616  0.0163
  427MOL0     H56313   8.758   5.992   4.907  1.5556  0.7715 -0.0365
  427MOL0     H56314   8.774   5.842   4.996 -1.4025 -2.3937 -0.3669
  427MOL0     H56315   8.936   5.762   4.800  2.0359  2.1637 -3.7193
  427MOL0     H56316   8.986   5.869   4.936 -1.0390 -1.6653  0.8007
  427MOL0     H56317   8.921   5.890   4.544  0.5537 -0.9147  0.3198
  427MOL0     H56318   9.012   6.204   4.408  1.1105  0.3350 -0.6201
  427MOL0     H56319   9.039   6.042   4.356  4.1182  0.6108 -1.9303
  427MOL0     H56320   9.236   6.145   4.303  4.3024 -3.0160  0.3006
  427MOL0     H56321   9.276   6.064   4.462  0.3224 -0.9867 -1.6405
  427MOL0     H56322   9.198   6.366   4.434  0.1495  0.5732 -1.0839
  427MOL0     H56323   9.247   6.283   4.576 -2.9410  2.5643  0.5175
  427MOL0     H56324   9.417   6.303   4.317  2.7251  2.2513 -0.4600
  427MOL0     H56325   9.457   6.225   4.472  0.2241  0.0266 -2.2962
  427MOL0     H56326   9.499   6.492   4.204 -0.1525  0.6827 -0.7148
  427MOL0     H56327   9.697   6.616   4.126  2.1266 -1.0789 -1.3372
  427MOL0     H56328  10.204   6.680   4.464  1.7031  0.0719  0.9563
  427MOL0     H56329  10.420   6.725   4.400  0.7715  3.4498  0.8192
  427MOL0     H56330  10.539   6.630   4.181  0.3690  0.3886 -2.3940
  427MOL0     H56331  10.614   6.729   4.312  1.5945  2.5401 -0.2759
  427MOL0     H56332  10.768   6.831   4.151  0.0033  0.1996 -1.0143
  427MOL0     H56333  10.715   6.722   4.020  0.6330  0.5081 -0.6467
  427MOL0     H56334  10.865   6.671   4.288  1.4250 -0.8648  0.1230
  427MOL0     H56335  10.928   6.630   4.133 -0.3224 -2.0041  0.2398
  427MOL0     H56336  10.704   6.506   4.308 -1.2742  1.7890 -0.3628
  427MOL0     H56337  10.719   6.459   4.140  0.5028  2.3707 -0.2444
  427MOL0     H56338  10.973   6.397   4.214  0.2935 -3.1282  0.6310
  427MOL0     H56339  10.844   6.290   4.260  0.1943  0.1395  0.7238
  427MOL0     H56340  10.826   6.384   4.481  0.5391 -4.0661 -1.2853
  427MOL0     H56341  10.959   6.505   4.441 -1.3860  0.1413 -0.3098
  427MOL0     H56342  10.985   6.203   4.427  3.0972  0.2400 -1.1690
  427MOL0     H56343  11.114   6.329   4.416 -0.5985  0.9799 -0.3597
  427MOL0     H56344  10.956   6.245   4.654  0.2242 -3.1965 -1.1397
  427MOL0     H56345  11.017   6.411   4.634 -0.3076  0.4540 -0.6470
  427MOL0     H56346  10.293   6.928   4.039 -1.9186  0.7615 -0.7330
  427MOL0     H56347  10.059   6.888   4.108 -1.5212 -1.6110  2.8631
  427MOL0     H56348   9.878   6.582   4.509 -0.1549  0.3469  0.0775
  427MOL0     H56349   9.678   6.475   4.604  3.2875  1.4265  0.1843
  427MOL0     H56350   7.915   5.837   5.272 -2.8988  1.4079  0.8097
  427MOL0     H56351   7.710   5.920   5.272 -0.0589 -2.5065  1.1482
  427MOL0     H56352   7.182   5.733   5.082 -0.0096 -1.0310  0.5369
  427MOL0     H56353   6.983   5.833   5.198 -0.8171 -0.4962  0.2189
  427MOL0     H56354   6.958   5.903   5.428  2.7592  0.4411 -2.3146
  427MOL0     H56355   6.803   5.972   5.376  0.7420  0.6536 -1.3554
  427MOL0     H56356   7.001   6.114   5.575  0.9136 -1.0127  0.5329
  427MOL0     H56357   6.843   6.168   5.520  0.5155  0.8939  2.4999
  427MOL0     H56358   6.915   5.905   5.667  0.0944 -0.0517  0.5439
  427MOL0     H56359   6.761   5.940   5.583  1.4501 -2.3906 -0.3120
  427MOL0     H56360   6.877   6.088   5.829 -0.9179 -2.2861  1.5775
  427MOL0     H56361   6.736   6.147   5.735 -2.4319 -0.5096  1.2250
  427MOL0     H56362   6.549   5.838   5.910 -0.0358 -0.2041 -1.8919
  427MOL0     H56363   7.201   6.189   5.297 -0.0134  0.3989 -1.1826
  427MOL0     H56364   7.398   6.087   5.202 -1.0024  1.1415  0.4999
  428MOL0     O56365   1.475   8.000   1.764 -0.0636 -0.4418  0.3267
  428MOL0     C56366   1.514   7.991   1.640 -0.2334 -0.4994 -0.3304
  428MOL0     O56367   1.456   8.050   1.534  0.9186 -0.0747 -0.2806
  428MOL0     C56368   1.331   8.108   1.551 -0.4323  0.1333 -0.7417
  428MOL0     C56369   1.227   8.036   1.617 -0.2569 -0.2444 -0.3314
  428MOL0     C56370   1.103   8.104   1.622 -0.2526  0.2432 -0.3627
  428MOL0     C56371   1.081   8.233   1.574 -0.1708 -0.4758  0.8339
  428MOL0     O56372   0.959   8.285   1.604  0.9401 -0.5750 -0.0505
  428MOL0     C56373   0.919   8.415   1.582  0.1335  1.5383 -0.2353
  428MOL0     C56374   0.764   8.427   1.573  0.2212 -0.5095 -1.1135
  428MOL0     C56375   0.707   8.391   1.436 -0.1788 -0.5344  0.1838
  428MOL0     C56376   0.552   8.382   1.434 -0.0567  0.1251  0.2460
  428MOL0     C56377   0.496   8.282   1.531  1.2272  0.1405 -0.4689
  428MOL0     C56378   0.343   8.251   1.502 -0.2342 -0.1474 -0.6051
  428MOL0     C56379   0.290   8.141   1.605  0.0790  0.3277 -0.0248
  428MOL0     C56380   0.146   8.103   1.578 -0.1489 -0.1944  0.9456
  428MOL0     N56381   0.079   8.040   1.691  0.1682  0.1981  0.6379
  428MOL0     C56382  -0.054   8.055   1.725 -0.5620 -0.3573  0.1024
  428MOL0     C56383  -0.082   7.987   1.840 -0.6217 -0.2448  0.4027
  428MOL0     C56384  -0.198   8.011   1.930 -0.2931  0.8884 -0.2044
  428MOL0     C56385  -0.300   7.896   1.924 -0.1643  0.5253  0.1958
  428MOL0     C56386  -0.393   7.904   1.802  0.4368  0.3703 -1.0804
  428MOL0     C56387  -0.510   7.811   1.836 -0.9430  0.4587  0.6044
  428MOL0     O56388  -0.573   7.856   1.958 -0.0882  0.7126 -0.7697
  428MOL0     C56389  -0.690   7.792   1.993 -0.2537  0.7028 -0.2330
  428MOL0     C56390  -0.756   7.852   2.096  0.1670  1.0967  0.0422
  428MOL0     C56391  -0.869   7.793   2.145 -0.4897 -1.1196 -0.1086
  428MOL0     C56392  -0.918   7.672   2.089 -0.2707 -0.5372 -0.3982
  428MOL0     C56393  -1.038   7.606   2.136  0.6439  1.0024  0.0835
  428MOL0     O56394  -1.080   7.646   2.260  0.5740  0.8460 -1.3019
  428MOL0     C56395  -1.161   7.557   2.323  0.9547  0.2370  0.0189
  428MOL0     C56396  -1.301   7.560   2.313 -0.1777 -0.8709  0.0525
  428MOL0     C56397  -1.386   7.471   2.385 -0.9254  0.4504 -0.8296
  428MOL0     C56398  -1.324   7.377   2.472  1.2179  0.1513  0.8851
  428MOL0     O56399  -1.425   7.299   2.533 -0.6368 -0.7167 -0.0360
  428MOL0     C56400  -1.393   7.244   2.657 -0.4554  0.6624 -0.9777
  428MOL0     C56401  -1.492   7.145   2.734  0.8012 -0.0926  1.1659
  428MOL0     C56402  -1.636   7.206   2.738 -0.1489  0.3459 -0.2418
  428MOL0     C56403  -1.702   7.197   2.874 -0.3791  0.6601 -0.5281
  428MOL0     C56404  -1.842   7.255   2.884 -0.1591  0.1794  0.3389
  428MOL0     C56405  -1.903   7.214   3.019  0.1068  0.0140  0.1087
  428MOL0     C56406  -1.977   7.332   3.093 -0.3516 -1.1250 -0.5040
  428MOL0     C56407  -2.089   7.284   3.183  0.5598 -0.0542 -0.6176
  428MOL0    Cl56408  -2.136   7.421   3.295  0.0595  0.2864  0.1413
  428MOL0     C56409  -1.182   7.368   2.474 -0.1153  0.3330 -0.1396
  428MOL0     C56410  -1.100   7.465   2.408  0.5934  0.8140 -1.2661
  428MOL0     O56411  -1.096   7.524   2.063 -0.3643 -0.5348 -0.0690
  428MOL0     C56412  -0.851   7.610   1.987 -0.2061  0.3054 -0.2204
  428MOL0     C56413  -0.736   7.671   1.942  0.3393 -1.0616 -0.5324
  428MOL0     N56414   0.043   7.929   1.867 -0.3621 -0.4596  0.6427
  428MOL0     N56415   0.138   7.953   1.777  0.2236 -0.7903 -0.1834
  428MOL0     C56416   1.189   8.301   1.516  0.1830  0.2530 -0.5056
  428MOL0     C56417   1.312   8.234   1.498 -0.0194  0.1735  0.1597
  428MOL0     C56418   1.638   7.911   1.607  0.0694 -1.1300  0.5099
  428MOL0     C56419   1.728   7.882   1.708 -0.8452 -0.4421 -1.0868
  428MOL0     C56420   1.837   7.802   1.668 -0.0173  0.2019 -0.4353
  428MOL0     C56421   1.859   7.773   1.534 -0.2710 -0.0237 -1.3226
  428MOL0     O56422   1.971   7.709   1.486 -0.5745  1.1891  0.4547
  428MOL0     C56423   2.085   7.791   1.500 -0.0745  0.6520  0.0528
  428MOL0     C56424   2.115   7.892   1.389  0.7330  0.5249  0.6375
  428MOL0     C56425   2.118   7.832   1.251 -0.3867 -0.7137 -0.5282
  428MOL0     C56426   2.158   7.930   1.143  0.4777  0.0292 -0.0533
  428MOL0     C56427   2.066   8.037   1.115 -0.1137  0.3541  0.4859
  428MOL0     C56428   2.002   8.132   1.095  0.0036  1.2527 -0.8760
  428MOL0     C56429   1.774   7.815   1.437 -0.1181  1.0607 -0.3018
  428MOL0     C56430   1.664   7.885   1.472  0.3166 -0.1403 -0.5884
  428MOL0     H56431   1.243   7.937   1.658  1.3875  0.5849  1.1711
  428MOL0     H56432   1.022   8.048   1.668 -2.0276  0.5618 -2.9079
  428MOL0     H56433   0.968   8.450   1.491  0.6848 -1.1225 -1.0313
  428MOL0     H56434   0.958   8.466   1.670  0.1401  0.9207  0.1260
  428MOL0     H56435   0.729   8.524   1.611 -1.8741 -1.8199  0.5942
  428MOL0     H56436   0.721   8.358   1.647 -0.8911 -0.3810 -1.6151
  428MOL0     H56437   0.749   8.296   1.403 -1.2608 -1.4431  1.3313
  428MOL0     H56438   0.734   8.469   1.364 -1.2560  0.0060  0.3469
  428MOL0     H56439   0.519   8.481   1.466  0.0999  0.4770 -0.6427
  428MOL0     H56440   0.500   8.355   1.341  1.7550 -0.0800 -0.7566
  428MOL0     H56441   0.505   8.326   1.631  1.4915  0.6200 -0.6967
  428MOL0     H56442   0.548   8.186   1.527 -1.2830 -1.2760 -0.9260
  428MOL0     H56443   0.331   8.216   1.398  0.1615 -0.2397 -0.6210
  428MOL0     H56444   0.276   8.337   1.514 -1.1350 -0.9312  0.1932
  428MOL0     H56445   0.351   8.054   1.580 -1.6946  0.1173 -4.4918
  428MOL0     H56446   0.310   8.179   1.706  3.4692  2.1458 -1.2333
  428MOL0     H56447   0.133   8.026   1.501 -1.9280 -0.5799  1.5872
  428MOL0     H56448   0.088   8.192   1.550  0.0145 -0.6407 -0.9455
  428MOL0     H56449  -0.126   8.119   1.675 -2.4558 -1.3939  1.3858
  428MOL0     H56450  -0.237   8.113   1.921  0.6884  1.3614  0.6530
  428MOL0     H56451  -0.138   8.003   2.021  0.5852  2.3489 -0.6257
  428MOL0     H56452  -0.351   7.900   2.021 -0.2654  0.5347  0.1431
  428MOL0     H56453  -0.242   7.803   1.925  4.0764  2.9242  1.8245
  428MOL0     H56454  -0.420   8.008   1.783  0.2576  0.3212 -1.0899
  428MOL0     H56455  -0.347   7.864   1.711 -2.8895  0.6747 -3.0537
  428MOL0     H56456  -0.466   7.712   1.846  2.1327  1.3790 -2.1319
  428MOL0     H56457  -0.579   7.820   1.751  0.4775 -0.3412 -0.6741
  428MOL0     H56458  -0.717   7.940   2.147  0.2125  0.7052  0.6973
  428MOL0     H56459  -0.916   7.835   2.233  1.9164 -2.2975  1.8639
  428MOL0     H56460  -1.341   7.632   2.243 -2.6901 -3.8099 -1.7861
  428MOL0     H56461  -1.494   7.487   2.382 -0.9311  1.2475  1.6312
  428MOL0     H56462  -1.383   7.326   2.728 -2.6846 -0.9794  1.4192
  428MOL0     H56463  -1.301   7.184   2.660 -2.1113 -2.0420 -1.1981
  428MOL0     H56464  -1.454   7.119   2.834  1.3700 -1.2736  0.6657
  428MOL0     H56465  -1.489   7.052   2.677  1.0708  0.6149  0.0042
  428MOL0     H56466  -1.696   7.161   2.658 -0.7976 -0.1309  0.4924
  428MOL0     H56467  -1.626   7.311   2.710 -0.1640  1.1055  2.3266
  428MOL0     H56468  -1.705   7.095   2.914  2.9801  0.0311 -1.5706
  428MOL0     H56469  -1.633   7.250   2.941 -2.2021  0.4396  1.6308
  428MOL0     H56470  -1.898   7.207   2.804 -1.1992 -2.1365  2.3475
  428MOL0     H56471  -1.832   7.364   2.878  3.5353  0.2816  3.6426
  428MOL0     H56472  -1.831   7.162   3.083  0.7317  0.0898 -0.5246
  428MOL0     H56473  -1.984   7.143   2.999  1.6534 -2.0367  0.7323
  428MOL0     H56474  -1.902   7.387   3.151  1.1771 -2.6843 -0.9164
  428MOL0     H56475  -2.030   7.401   3.027 -1.1104  0.2756  1.4722
  428MOL0     H56476  -2.060   7.203   3.251  0.1341  1.4875  1.4898
  428MOL0     H56477  -2.173   7.248   3.123  1.5952 -1.4768 -1.2807
  428MOL0     H56478  -1.139   7.307   2.554 -2.9508 -1.9897 -0.2201
  428MOL0     H56479  -0.992   7.460   2.418  0.4951  0.1101 -0.3583
  428MOL0     H56480  -0.889   7.511   1.964 -1.3075  0.9542 -1.3082
  428MOL0     H56481  -0.689   7.624   1.856  1.1550  0.2563 -0.8399
  428MOL0     H56482   1.178   8.406   1.491  3.5643  1.3002  1.5731
  428MOL0     H56483   1.383   8.288   1.435 -0.7152  0.0778 -0.7282
  428MOL0     H56484   1.721   7.907   1.813  1.7107  3.3777 -1.6194
  428MOL0     H56485   1.908   7.756   1.737 -1.2202  1.7452  2.0107
  428MOL0     H56486   2.175   7.729   1.508  0.0552  1.0634  2.5853
  428MOL0     H56487   2.080   7.833   1.601  1.3693  0.2355  0.3265
  428MOL0     H56488   2.043   7.974   1.387 -0.4334 -0.4071  2.0653
  428MOL0     H56489   2.206   7.947   1.414  0.1020  1.0547  1.8488
  428MOL0     H56490   2.020   7.790   1.228 -1.7783  1.7754  0.4847
  428MOL0     H56491   2.189   7.749   1.263 -1.7748 -1.6006  2.9434
  428MOL0     H56492   2.254   7.978   1.167  1.0642  0.8419 -3.5548
  428MOL0     H56493   2.162   7.878   1.047 -0.3033  1.0502 -0.6617
  428MOL0     H56494   1.949   8.223   1.072 -0.0374  1.5074  0.1486
  428MOL0     H56495   1.789   7.796   1.331  1.8994 -0.3424  0.1722
  428MOL0     H56496   1.597   7.893   1.387  0.8560  0.6423 -0.9555
  429MOL0     O56497   9.170   1.975   7.623  0.0627 -1.0406  1.0405
  429MOL0     C56498   9.264   2.002   7.548 -0.2731 -0.9089 -0.2215
  429MOL0     O56499   9.274   1.953   7.429 -0.1320 -0.4526 -0.5891
  429MOL0     C56500   9.163   1.909   7.356 -0.4330 -0.7385 -0.6152
  429MOL0     C56501   9.180   1.805   7.274 -0.3047  0.4663  1.3312
  429MOL0     C56502   9.083   1.766   7.174  0.7909 -1.6426 -0.8021
  429MOL0     C56503   8.961   1.835   7.175  0.6671  0.6202  0.0711
  429MOL0     O56504   8.862   1.805   7.084 -0.5455  0.2608 -0.0654
  429MOL0     C56505   8.725   1.816   7.133  0.1717 -0.8042  0.7384
  429MOL0     C56506   8.646   1.701   7.078 -0.6683  1.0476 -0.0691
  429MOL0     C56507   8.516   1.682   7.161 -0.7978 -0.7914  0.8115
  429MOL0     C56508   8.419   1.595   7.069 -1.0939 -1.1023 -0.6065
  429MOL0     C56509   8.301   1.543   7.151  0.7220  0.2555 -0.0780
  429MOL0     C56510   8.208   1.477   7.045  0.4362  1.1013  0.2722
  429MOL0     C56511   8.065   1.440   7.095 -0.5305  0.0346  0.6386
  429MOL0     C56512   8.084   1.372   7.224 -0.4670  1.4076 -0.1700
  429MOL0     N56513   7.949   1.311   7.249  0.1271 -0.3052 -0.2139
  429MOL0     C56514   7.834   1.367   7.297 -0.2625 -0.8108 -1.3608
  429MOL0     C56515   7.747   1.267   7.329  0.9437 -0.6450 -0.2318
  429MOL0     C56516   7.603   1.298   7.370 -0.3318  1.3645 -0.4313
  429MOL0     C56517   7.492   1.242   7.282  0.2981  0.7970  0.6497
  429MOL0     C56518   7.358   1.247   7.369 -0.3250 -0.4033 -0.8906
  429MOL0     C56519   7.229   1.177   7.321 -0.1638 -0.2078 -0.3710
  429MOL0     O56520   7.215   1.216   7.184 -0.1383  0.3859  0.0768
  429MOL0     C56521   7.091   1.257   7.170  0.4828 -0.1820  0.4116
  429MOL0     C56522   7.058   1.383   7.111  0.1546  0.9506 -0.6304
  429MOL0     C56523   6.931   1.418   7.071 -0.4079 -0.0151 -0.6742
  429MOL0     C56524   6.820   1.334   7.087 -0.3935  0.2384 -0.0364
  429MOL0     C56525   6.678   1.372   7.054  0.0958 -0.0355 -0.3306
  429MOL0     O56526   6.582   1.287   7.108  0.4286 -0.1980 -0.1457
  429MOL0     C56527   6.446   1.284   7.080 -0.1395 -0.6863 -0.7763
  429MOL0     C56528   6.369   1.194   7.155  0.6076 -0.4019 -0.2188
  429MOL0     C56529   6.228   1.177   7.130 -0.3235  0.2827  0.6144
  429MOL0     C56530   6.169   1.251   7.021 -1.0319 -0.0726  0.9977
  429MOL0     O56531   6.046   1.249   6.964  0.3058 -0.1033 -0.2836
  429MOL0     C56532   5.947   1.159   7.023  0.9734  0.0342  0.4149
  429MOL0     C56533   5.979   1.015   6.966 -0.2613  0.1905  0.4242
  429MOL0     C56534   5.922   0.894   7.048  0.7281  0.2697  0.4780
  429MOL0     C56535   5.933   0.768   6.955  0.4431  1.1863 -0.6845
  429MOL0     C56536   5.893   0.636   7.031 -0.5769  0.8702 -0.2428
  429MOL0     C56537   5.931   0.511   6.947 -0.3339  0.2279  0.3094
  429MOL0     C56538   5.885   0.503   6.803 -0.0051 -0.2559  0.6752
  429MOL0     C56539   5.959   0.399   6.717 -0.1589  0.5583 -0.0565
  429MOL0    Cl56540   5.994   0.251   6.814 -0.3494  0.6082  0.9401
  429MOL0     C56541   6.254   1.340   6.951  0.0786  0.2145 -0.0209
  429MOL0     C56542   6.388   1.357   6.985  1.0657 -0.4615  0.1614
  429MOL0     O56543   6.659   1.480   7.000  0.7882 -1.0317 -0.1067
  429MOL0     C56544   6.852   1.208   7.147  0.0969  0.3225 -0.4865
  429MOL0     C56545   6.979   1.170   7.186 -0.2339 -0.5850 -0.0870
  429MOL0     N56546   7.812   1.152   7.300  1.5570 -0.7210 -1.1707
  429MOL0     N56547   7.931   1.176   7.257 -0.4713  0.0758 -0.4546
  429MOL0     C56548   8.952   1.954   7.258  0.3811  0.2665  0.2873
  429MOL0     C56549   9.053   1.991   7.353 -0.1536  0.5182 -0.1586
  429MOL0     C56550   9.374   2.078   7.598 -0.0024 -1.2606 -0.5393
  429MOL0     C56551   9.395   2.112   7.732  0.3990 -0.9024  0.0162
  429MOL0     C56552   9.502   2.192   7.775 -0.0732 -1.1821  0.7108
  429MOL0     C56553   9.607   2.216   7.699 -0.5246 -0.1783 -0.2456
  429MOL0     O56554   9.718   2.288   7.751  0.2888  1.0401  0.6335
  429MOL0     C56555   9.827   2.300   7.672 -0.2032  0.4835  0.4151
  429MOL0     C56556   9.895   2.419   7.730 -0.3192 -0.4425  0.6285
  429MOL0     C56557  10.004   2.471   7.629  0.8373 -0.1781 -0.0679
  429MOL0     C56558  10.085   2.596   7.689  0.3467  0.5876  0.2095
  429MOL0     C56559  10.183   2.539   7.791  0.4633  0.8268  0.2376
  429MOL0     C56560  10.277   2.495   7.855  0.6820  0.1018  0.2151
  429MOL0     C56561   9.601   2.164   7.564 -0.6382 -0.2552  0.5301
  429MOL0     C56562   9.486   2.107   7.518 -0.6180 -0.4384  0.6744
  429MOL0     H56563   9.269   1.743   7.281 -0.4563 -0.0765 -0.7193
  429MOL0     H56564   9.090   1.684   7.103 -2.4988 -1.5673 -1.3674
  429MOL0     H56565   8.686   1.905   7.082  0.9575 -0.9804 -0.1909
  429MOL0     H56566   8.706   1.822   7.241  0.8526 -0.4116  0.8462
  429MOL0     H56567   8.703   1.608   7.072  0.8534  1.9151  0.2904
  429MOL0     H56568   8.621   1.723   6.974 -0.2959  3.0227  0.2157
  429MOL0     H56569   8.466   1.780   7.167 -1.4337 -0.7181 -2.9614
  429MOL0     H56570   8.524   1.634   7.258  2.6677  1.3274  1.7478
  429MOL0     H56571   8.388   1.661   6.987  0.7077  2.7973  1.5602
  429MOL0     H56572   8.471   1.509   7.026  1.8501  1.0230 -1.6323
  429MOL0     H56573   8.257   1.623   7.210  2.0837 -1.0283  2.8909
  429MOL0     H56574   8.319   1.473   7.234 -1.2817  3.1741  3.0875
  429MOL0     H56575   8.260   1.389   7.008  0.5962  0.5864  1.6589
  429MOL0     H56576   8.196   1.542   6.958  0.4188 -0.1683 -0.6856
  429MOL0     H56577   8.009   1.533   7.100  0.5414  0.7520 -0.2056
  429MOL0     H56578   8.011   1.373   7.027 -2.6702 -0.2517  2.4743
  429MOL0     H56579   8.117   1.440   7.304 -0.9165  0.1447  1.1259
  429MOL0     H56580   8.156   1.290   7.215 -2.0467 -0.3928  2.2666
  429MOL0     H56581   7.817   1.475   7.305  0.2396 -0.8564  2.1759
  429MOL0     H56582   7.576   1.403   7.387 -0.6241  1.4892 -1.5720
  429MOL0     H56583   7.591   1.247   7.466  1.8110 -0.6695 -1.1654
  429MOL0     H56584   7.515   1.137   7.259  2.1174  0.9513  1.5271
  429MOL0     H56585   7.480   1.299   7.190 -0.7274  1.1145  0.9730
  429MOL0     H56586   7.370   1.199   7.467 -1.3558 -2.1919 -1.5795
  429MOL0     H56587   7.321   1.349   7.370  5.4366  2.0876 -1.4917
  429MOL0     H56588   7.152   1.212   7.390  0.2129  1.5847 -0.8294
  429MOL0     H56589   7.229   1.067   7.318 -2.8032 -0.2585 -3.4692
  429MOL0     H56590   7.141   1.446   7.079  0.4436  0.9069  0.0225
  429MOL0     H56591   6.916   1.518   7.030 -0.1630  1.7891  3.1499
  429MOL0     H56592   6.408   1.141   7.241 -4.4161  0.0892  2.7654
  429MOL0     H56593   6.166   1.110   7.188  1.7467 -2.7642 -0.4292
  429MOL0     H56594   5.845   1.182   6.990 -0.0267 -0.7727  2.7071
  429MOL0     H56595   5.937   1.166   7.132 -2.0750 -0.6426  0.2723
  429MOL0     H56596   6.087   1.006   6.952 -0.2340  1.7291 -0.5704
  429MOL0     H56597   5.939   1.015   6.864 -0.3363  0.0255  0.4541
  429MOL0     H56598   5.815   0.909   7.069 -0.0142 -1.5179 -1.6324
  429MOL0     H56599   5.990   0.874   7.131  1.6635 -1.9466 -0.7425
  429MOL0     H56600   5.867   0.787   6.870 -1.6881  1.4214  0.9630
  429MOL0     H56601   6.037   0.761   6.919  0.5723  0.5939 -0.2078
  429MOL0     H56602   5.784   0.649   7.034 -0.4118  2.2924  0.6548
  429MOL0     H56603   5.935   0.633   7.132 -1.6746  1.1788  0.2369
  429MOL0     H56604   5.886   0.424   6.995 -0.9801  0.9515  1.0323
  429MOL0     H56605   6.039   0.502   6.952 -0.5347 -2.8340  0.9163
  429MOL0     H56606   5.776   0.495   6.810 -0.3385  3.9775  3.4659
  429MOL0     H56607   5.913   0.587   6.739 -1.4616 -2.2712 -2.9662
  429MOL0     H56608   6.056   0.446   6.699 -0.9970  3.1587  1.6545
  429MOL0     H56609   5.900   0.383   6.627 -0.8883  0.8348  0.3605
  429MOL0     H56610   6.213   1.402   6.872  2.3110  1.7246 -0.1122
  429MOL0     H56611   6.432   1.436   6.925  0.2830 -0.0138  0.1680
  429MOL0     H56612   6.769   1.140   7.161 -1.1677  1.8157 -0.3310
  429MOL0     H56613   6.993   1.077   7.241 -2.5682  0.2401  2.0739
  429MOL0     H56614   8.858   2.008   7.263  0.4759  0.3776  0.8954
  429MOL0     H56615   9.054   2.076   7.421  2.0570 -1.2339  2.1797
  429MOL0     H56616   9.306   2.087   7.790 -1.0798  2.0043 -0.8092
  429MOL0     H56617   9.506   2.245   7.870 -2.6739  0.2683  0.1116
  429MOL0     H56618   9.789   2.337   7.576 -2.8614 -1.8878  0.4121
  429MOL0     H56619   9.888   2.209   7.667  1.6981  1.6786  0.7578
  429MOL0     H56620   9.832   2.501   7.765  3.1232  3.0178 -0.5126
  429MOL0     H56621   9.948   2.384   7.819  1.8494  0.7413 -0.1077
  429MOL0     H56622   9.954   2.502   7.537 -0.8836 -0.5483  0.7078
  429MOL0     H56623  10.076   2.391   7.607  2.0571 -0.6306  4.4863
  429MOL0     H56624  10.135   2.638   7.601  0.5517  1.5117  0.7543
  429MOL0     H56625  10.007   2.659   7.731 -2.3904 -0.1327 -3.3352
  429MOL0     H56626  10.360   2.445   7.900  0.0934 -0.7738  0.3535
  429MOL0     H56627   9.670   2.188   7.485 -3.1639  1.0421 -1.4160
  429MOL0     H56628   9.491   2.081   7.413  3.6295  1.0889  0.2799
  430MOL0     O56629   1.888   3.358  10.651 -0.6335  0.1562 -0.2638
  430MOL0     C56630   1.961   3.449  10.693  0.6145  0.3818 -0.1930
  430MOL0     O56631   1.915   3.537  10.785 -0.0094  0.7961  0.6919
  430MOL0     C56632   1.784   3.547  10.817  0.1807 -0.2019  0.8325
  430MOL0     C56633   1.677   3.540  10.732  0.9451  0.3455  0.4647
  430MOL0     C56634   1.544   3.548  10.782 -0.0100 -0.4423 -0.3574
  430MOL0     C56635   1.520   3.568  10.916  0.0049 -0.9249 -0.5354
  430MOL0     O56636   1.395   3.568  10.979 -0.3788 -0.6967  0.3654
  430MOL0     C56637   1.273   3.607  10.906  0.2085 -0.2864  0.5512
  430MOL0     C56638   1.157   3.641  11.002  0.7039  0.7445 -0.9453
  430MOL0     C56639   1.180   3.772  11.073 -1.1428  0.2674  0.0849
  430MOL0     C56640   1.056   3.817  11.149  0.5353 -0.8301 -0.4401
  430MOL0     C56641   1.083   3.930  11.250  0.3612  0.4083 -0.1743
  430MOL0     C56642   0.961   3.991  11.316 -0.7623  0.9816 -0.1574
  430MOL0     C56643   0.860   4.051  11.215  1.0278  0.0955  0.5887
  430MOL0     C56644   0.731   4.082  11.290  0.1758 -0.2479  0.0823
  430MOL0     N56645   0.617   4.133  11.209 -0.5781 -0.3015  0.1944
  430MOL0     C56646   0.490   4.135  11.250 -0.2417  0.2273 -0.1728
  430MOL0     C56647   0.430   4.226  11.167  0.4070 -0.0215 -1.1139
  430MOL0     C56648   0.286   4.278  11.187  0.7764 -0.3631 -0.3561
  430MOL0     C56649   0.286   4.371  11.305 -0.6207  0.1853 -0.3881
  430MOL0     C56650   0.148   4.437  11.319 -0.7026 -0.8399 -0.3503
  430MOL0     C56651   0.047   4.365  11.401  0.4002 -0.1693  0.0482
  430MOL0     O56652  -0.077   4.443  11.404 -0.6748 -0.7146  0.3761
  430MOL0     C56653  -0.175   4.420  11.320  0.1687  0.5342  0.0053
  430MOL0     C56654  -0.296   4.429  11.378  0.6758  0.6498  0.0240
  430MOL0     C56655  -0.414   4.407  11.303  0.6455 -0.4441 -0.6245
  430MOL0     C56656  -0.414   4.369  11.169  0.1726 -0.0014  0.7429
  430MOL0     C56657  -0.532   4.339  11.088  0.3468  0.0909  0.0041
  430MOL0     O56658  -0.646   4.313  11.160  0.0572  0.1082 -0.1387
  430MOL0     C56659  -0.768   4.296  11.091  0.6218  0.5221 -0.3828
  430MOL0     C56660  -0.862   4.210  11.143 -0.1943  0.1192 -0.0602
  430MOL0     C56661  -0.983   4.192  11.075 -0.4526  0.3567 -0.1306
  430MOL0     C56662  -1.020   4.273  10.962 -0.1891  0.5230 -0.5754
  430MOL0     O56663  -1.143   4.254  10.913  0.6824  0.2261  0.9682
  430MOL0     C56664  -1.222   4.361  10.866 -0.0652  0.0096  1.0151
  430MOL0     C56665  -1.359   4.321  10.833  0.0122 -0.7329  0.2130
  430MOL0     C56666  -1.370   4.238  10.708  0.0597  0.5943 -0.0038
  430MOL0     C56667  -1.316   4.309  10.585 -0.3562 -0.0802  0.7524
  430MOL0     C56668  -1.394   4.256  10.460  0.0733 -1.1000 -0.4813
  430MOL0     C56669  -1.332   4.119  10.419  0.9786 -0.2687 -0.4482
  430MOL0     C56670  -1.400   4.059  10.295  0.2886 -0.4638 -0.1702
  430MOL0     C56671  -1.373   4.119  10.160 -0.7055  0.7409  0.9478
  430MOL0    Cl56672  -1.223   4.059  10.090  0.5087  0.3922 -0.3330
  430MOL0     C56673  -0.939   4.377  10.927  0.0884  0.4284  0.0984
  430MOL0     C56674  -0.810   4.379  10.988 -0.6140  0.9097  0.1258
  430MOL0     O56675  -0.527   4.332  10.971  0.4479 -0.3726  0.1386
  430MOL0     C56676  -0.286   4.358  11.110  0.1432 -0.7269  0.6444
  430MOL0     C56677  -0.166   4.386  11.181  0.5319 -0.2394 -0.2118
  430MOL0     N56678   0.529   4.279  11.081  0.3518 -0.5441 -0.1183
  430MOL0     N56679   0.630   4.208  11.097 -0.0916 -0.2118  0.0752
  430MOL0     C56680   1.629   3.582  11.003  0.0709  0.7707 -0.4289
  430MOL0     C56681   1.763   3.569  10.955  0.3103 -0.4912  0.2406
  430MOL0     C56682   2.103   3.452  10.659 -0.5443  0.8603  0.6399
  430MOL0     C56683   2.160   3.349  10.582  0.8353 -0.1102  0.4674
  430MOL0     C56684   2.282   3.359  10.523  0.7826 -0.4941 -0.4015
  430MOL0     C56685   2.366   3.463  10.551 -0.1782 -0.2330 -0.1468
  430MOL0     O56686   2.496   3.453  10.508 -0.5414 -0.0255  0.0306
  430MOL0     C56687   2.597   3.542  10.543 -0.3285 -0.3181  0.0333
  430MOL0     C56688   2.660   3.521  10.682  0.6071 -0.7866  0.3189
  430MOL0     C56689   2.666   3.369  10.725  0.3251  0.2237 -0.3035
  430MOL0     C56690   2.785   3.299  10.651  0.1922 -0.1599 -0.2976
  430MOL0     C56691   2.914   3.343  10.733  1.0228 -0.1110  0.3906
  430MOL0     C56692   3.015   3.370  10.788 -0.2228 -0.4358  0.0022
  430MOL0     C56693   2.310   3.566  10.633  0.7112 -0.4237 -0.6125
  430MOL0     C56694   2.185   3.562  10.686  0.4972  0.3777 -0.9143
  430MOL0     H56695   1.696   3.515  10.628 -0.6354 -1.4058  0.5463
  430MOL0     H56696   1.462   3.549  10.710 -0.3763 -1.8480  0.0105
  430MOL0     H56697   1.237   3.527  10.841 -0.2803  1.2628 -1.1606
  430MOL0     H56698   1.298   3.696  10.848 -0.5722 -1.4949 -1.8202
  430MOL0     H56699   1.142   3.560  11.073 -1.5775  1.7854 -0.1674
  430MOL0     H56700   1.060   3.650  10.954 -1.8567 -1.4110  3.2942
  430MOL0     H56701   1.215   3.840  10.994 -1.6244  0.7894  0.3159
  430MOL0     H56702   1.262   3.764  11.145 -0.1713  4.6678 -0.2306
  430MOL0     H56703   0.984   3.838  11.069 -0.2568 -2.0474 -0.0759
  430MOL0     H56704   1.012   3.734  11.205 -0.9853  1.4974  2.0097
  430MOL0     H56705   1.134   4.003  11.186 -2.1185 -0.1407 -3.0129
  430MOL0     H56706   1.141   3.890  11.333 -0.1935  0.0584  0.0437
  430MOL0     H56707   0.994   4.071  11.384 -1.2022  0.6990  0.3895
  430MOL0     H56708   0.917   3.911  11.375 -0.1166 -0.0507 -1.0342
  430MOL0     H56709   0.886   4.148  11.171 -1.5093 -0.6554 -3.0203
  430MOL0     H56710   0.833   3.984  11.133 -0.7429  0.3209  0.9471
  430MOL0     H56711   0.751   4.170  11.352 -0.4853  1.5193 -2.0803
  430MOL0     H56712   0.709   3.999  11.358 -1.2051  0.8907  1.1029
  430MOL0     H56713   0.450   4.110  11.348  1.6006  3.2616  1.5219
  430MOL0     H56714   0.218   4.200  11.223  0.6097  0.1263  0.4186
  430MOL0     H56715   0.246   4.324  11.096 -5.2695  2.7475  3.2237
  430MOL0     H56716   0.363   4.447  11.289  1.2100 -1.4401  0.3033
  430MOL0     H56717   0.304   4.324  11.402  0.9589  3.9992  1.3663
  430MOL0     H56718   0.145   4.535  11.369 -1.9417 -0.6249 -0.8111
  430MOL0     H56719   0.108   4.468  11.222 -3.5218 -3.5396 -0.2030
  430MOL0     H56720   0.092   4.362  11.501  1.6128  0.9703 -0.4390
  430MOL0     H56721   0.036   4.264  11.362 -2.1821 -1.4011  3.4529
  430MOL0     H56722  -0.293   4.464  11.481 -2.8417  3.7025 -0.6943
  430MOL0     H56723  -0.509   4.411  11.354 -0.4555 -0.0946 -2.5788
  430MOL0     H56724  -0.848   4.161  11.239 -0.6918 -0.3780 -0.2378
  430MOL0     H56725  -1.049   4.121  11.124 -1.7810  0.4228 -1.7467
  430MOL0     H56726  -1.179   4.403  10.774  1.7851  1.8515  2.6367
  430MOL0     H56727  -1.230   4.443  10.938  0.6778  1.7300 -0.7604
  430MOL0     H56728  -1.407   4.417  10.812 -0.5107 -0.5489  2.0313
  430MOL0     H56729  -1.397   4.274  10.925 -0.2134 -1.8650 -0.4466
  430MOL0     H56730  -1.470   4.195  10.701 -0.6300  1.8086  1.7676
  430MOL0     H56731  -1.299   4.158  10.734  0.0203  1.1871  2.1097
  430MOL0     H56732  -1.323   4.418  10.588  0.4024 -0.0222  0.7425
  430MOL0     H56733  -1.211   4.278  10.573 -0.0701  1.4546 -1.3057
  430MOL0     H56734  -1.373   4.326  10.379  1.1008 -1.9908 -1.0170
  430MOL0     H56735  -1.500   4.243  10.482  0.5568  0.1160  3.0943
  430MOL0     H56736  -1.323   4.050  10.504  5.1252  1.2069  0.5046
  430MOL0     H56737  -1.227   4.128  10.393  1.0963 -3.6147 -1.5710
  430MOL0     H56738  -1.358   3.959  10.295  0.6838 -0.3328  2.0031
  430MOL0     H56739  -1.509   4.062  10.310  0.0982  0.3446 -1.5271
  430MOL0     H56740  -1.360   4.226  10.179 -4.1273  1.2018  1.4675
  430MOL0     H56741  -1.460   4.098  10.097 -2.0905 -0.7107  3.1575
  430MOL0     H56742  -0.966   4.453  10.855  1.7401  1.4389  0.4725
  430MOL0     H56743  -0.744   4.465  10.979 -1.5882  1.8095  1.2573
  430MOL0     H56744  -0.268   4.318  11.011 -1.2822 -1.3791  0.6287
  430MOL0     H56745  -0.069   4.364  11.138  1.5623  2.3794  0.5498
  430MOL0     H56746   1.606   3.593  11.108  0.7757 -1.4179 -0.0099
  430MOL0     H56747   1.844   3.590  11.024  0.6585  2.1061 -0.8474
  430MOL0     H56748   2.106   3.257  10.557  0.6731  0.4803 -1.5290
  430MOL0     H56749   2.324   3.278  10.465 -1.3066 -1.4813 -0.6281
  430MOL0     H56750   2.561   3.646  10.541  0.8678  0.2810  3.0880
  430MOL0     H56751   2.677   3.524  10.471  0.8732  1.7565  0.7555
  430MOL0     H56752   2.763   3.560  10.679  0.2367  0.1916 -0.2053
  430MOL0     H56753   2.596   3.578  10.750  1.2697  1.6866 -0.9858
  430MOL0     H56754   2.579   3.314  10.691 -0.2739  0.4051  0.8758
  430MOL0     H56755   2.671   3.347  10.832 -2.8826  0.2585 -0.0394
  430MOL0     H56756   2.777   3.191  10.660  2.4904 -0.2650  1.9769
  430MOL0     H56757   2.792   3.324  10.545 -1.0222  0.7441 -0.1915
  430MOL0     H56758   3.112   3.391  10.828  0.7021 -1.6976 -1.4700
  430MOL0     H56759   2.349   3.659  10.673 -1.2201 -0.7116  2.2537
  430MOL0     H56760   2.158   3.652  10.740 -0.5031 -0.0375 -0.6923
  431MOL0     O56761   5.325   5.915   7.892 -0.4718 -0.2424  0.3423
  431MOL0     C56762   5.361   5.951   8.000 -0.0120  0.1416  0.2057
  431MOL0     O56763   5.314   5.903   8.119  0.1367  0.1874 -0.3891
  431MOL0     C56764   5.225   5.802   8.114  0.6344 -0.8260 -0.5370
  431MOL0     C56765   5.263   5.683   8.062  0.2491 -0.0249  0.6221
  431MOL0     C56766   5.176   5.569   8.064  0.1127 -0.7391  0.2237
  431MOL0     C56767   5.057   5.574   8.141 -0.4906 -0.5078  0.3387
  431MOL0     O56768   4.979   5.454   8.144  0.1610 -0.2052 -0.2318
  431MOL0     C56769   4.890   5.439   8.258 -0.2779 -0.4900  0.2969
  431MOL0     C56770   4.833   5.298   8.270  0.2301 -0.3769  0.3857
  431MOL0     C56771   4.802   5.221   8.133  0.3830 -0.5835  0.2520
  431MOL0     C56772   4.728   5.084   8.143 -0.1661 -0.7821  0.4595
  431MOL0     C56773   4.684   5.032   8.000 -0.0294 -0.3288 -0.2792
  431MOL0     C56774   4.766   4.910   7.949 -1.5465  0.2116  0.4294
  431MOL0     C56775   4.758   4.779   8.031 -0.4628 -0.1275 -0.1400
  431MOL0     C56776   4.617   4.722   8.022  0.2392 -0.4783  0.2541
  431MOL0     N56777   4.587   4.658   7.894  0.0414  0.0472  0.7579
  431MOL0     C56778   4.543   4.722   7.777 -0.7537 -0.2414  0.5110
  431MOL0     C56779   4.508   4.620   7.693 -0.3168 -0.0605 -0.2952
  431MOL0     C56780   4.458   4.641   7.551 -0.6087 -0.7943  0.4275
  431MOL0     C56781   4.579   4.643   7.452  0.2950 -0.3912 -0.5501
  431MOL0     C56782   4.630   4.784   7.432 -1.1603 -0.0151  1.1585
  431MOL0     C56783   4.739   4.773   7.320  0.1825 -0.7491  0.4178
  431MOL0     O56784   4.678   4.751   7.187  0.4083 -0.4208  0.0429
  431MOL0     C56785   4.742   4.783   7.073 -0.1451 -0.3382 -0.6616
  431MOL0     C56786   4.727   4.704   6.960 -0.2953 -0.0561  0.4506
  431MOL0     C56787   4.796   4.736   6.844  0.0052 -0.5170  0.2827
  431MOL0     C56788   4.869   4.857   6.833  1.1167 -0.0753  0.4031
  431MOL0     C56789   4.938   4.897   6.711  0.6504 -0.0710 -0.6875
  431MOL0     O56790   5.057   4.977   6.714 -0.2762  0.7607 -0.4491
  431MOL0     C56791   5.131   5.012   6.605 -0.5422  0.2253  0.4083
  431MOL0     C56792   5.174   5.146   6.605  0.4813 -0.4989  0.5537
  431MOL0     C56793   5.240   5.188   6.492 -0.5002  0.1615  0.8513
  431MOL0     C56794   5.289   5.105   6.390 -0.0032 -0.3676  0.5861
  431MOL0     O56795   5.365   5.173   6.297  0.3701  0.5987 -0.1283
  431MOL0     C56796   5.401   5.103   6.180  0.9887  0.1245 -0.1036
  431MOL0     C56797   5.459   5.200   6.076  0.1489 -0.7115 -0.1710
  431MOL0     C56798   5.585   5.276   6.134  0.3089 -0.4461 -0.3803
  431MOL0     C56799   5.660   5.344   6.014  0.8623 -0.4494  0.9379
  431MOL0     C56800   5.795   5.416   6.041 -0.1364 -0.2890  0.1470
  431MOL0     C56801   5.787   5.514   6.157  0.5779 -0.7391 -0.6558
  431MOL0     C56802   5.926   5.572   6.172  0.3945  0.4671 -0.1463
  431MOL0     C56803   5.955   5.682   6.072 -0.0278 -0.1599  0.6950
  431MOL0    Cl56804   5.860   5.829   6.130 -0.0973 -0.2619  0.1833
  431MOL0     C56805   5.247   4.971   6.392  0.3602  0.1351 -0.3206
  431MOL0     C56806   5.163   4.929   6.496 -0.1949  0.5561 -0.0415
  431MOL0     O56807   4.891   4.849   6.611 -0.1817 -0.7059  0.0804
  431MOL0     C56808   4.890   4.932   6.948  0.3768  0.4977 -0.2697
  431MOL0     C56809   4.830   4.886   7.065 -0.2349 -0.3095  0.5891
  431MOL0     N56810   4.537   4.499   7.758  0.7438  0.8952  0.0884
  431MOL0     N56811   4.588   4.523   7.875  0.1946  0.4862 -0.4745
  431MOL0     C56812   5.021   5.691   8.200  0.5203 -0.4221 -0.2149
  431MOL0     C56813   5.096   5.809   8.182  0.6979 -0.9062  0.5005
  431MOL0     C56814   5.432   6.080   8.004  1.2150 -0.3032 -0.5266
  431MOL0     C56815   5.456   6.159   7.888  0.6237 -0.3174 -0.2618
  431MOL0     C56816   5.524   6.277   7.889  0.2581  0.4834 -0.3712
  431MOL0     C56817   5.581   6.321   8.006 -0.3346 -0.2883 -0.2754
  431MOL0     O56818   5.656   6.439   8.005 -0.6316 -0.0103  0.1244
  431MOL0     C56819   5.682   6.521   7.884  0.0573 -0.7602 -0.4109
  431MOL0     C56820   5.792   6.626   7.936  1.1142 -0.0831 -0.4987
  431MOL0     C56821   5.823   6.736   7.834 -0.0307  0.1745  0.3644
  431MOL0     C56822   5.930   6.832   7.883  1.0212  0.4338 -0.1441
  431MOL0     C56823   6.068   6.778   7.864  0.3214  0.5695 -0.0427
  431MOL0     C56824   6.164   6.712   7.837  1.0978  0.8489 -0.4212
  431MOL0     C56825   5.546   6.254   8.133 -0.6267 -0.3735 -0.3258
  431MOL0     C56826   5.473   6.134   8.123  0.2655  0.0340  0.2957
  431MOL0     H56827   5.365   5.678   8.027 -0.5190  2.4214 -2.4879
  431MOL0     H56828   5.213   5.477   8.019  0.5178 -1.1544  1.3705
  431MOL0     H56829   4.798   5.493   8.233  1.4884  2.9728  0.5344
  431MOL0     H56830   4.929   5.488   8.347  0.3791 -0.0915 -0.1991
  431MOL0     H56831   4.743   5.288   8.331 -0.1488 -2.6339 -0.4757
  431MOL0     H56832   4.906   5.238   8.324  1.0647  0.5010  0.2608
  431MOL0     H56833   4.895   5.218   8.075 -1.8122  2.9866 -4.0628
  431MOL0     H56834   4.733   5.291   8.084 -1.3841 -0.5944  2.5809
  431MOL0     H56835   4.793   5.011   8.192  0.6307  0.4731  1.3078
  431MOL0     H56836   4.638   5.088   8.206 -0.6185  0.8990 -0.2380
  431MOL0     H56837   4.682   5.113   7.927  1.8073 -0.7291 -0.8135
  431MOL0     H56838   4.577   5.006   7.991 -0.4473  0.9247  0.8822
  431MOL0     H56839   4.871   4.939   7.933 -1.1010 -1.7111 -0.5769
  431MOL0     H56840   4.732   4.910   7.845  1.5509  4.4908 -0.8635
  431MOL0     H56841   4.825   4.703   7.991  0.4943  0.3234  0.5839
  431MOL0     H56842   4.779   4.800   8.137  2.0158 -0.4908 -0.5095
  431MOL0     H56843   4.544   4.799   8.048 -0.8792 -2.0592  2.0119
  431MOL0     H56844   4.607   4.645   8.099 -0.3866  0.0696  0.7333
  431MOL0     H56845   4.535   4.830   7.774 -0.8717 -0.2660 -0.2420
  431MOL0     H56846   4.404   4.735   7.539 -0.4872 -0.3244  3.0650
  431MOL0     H56847   4.395   4.552   7.534 -0.4145 -1.2798  2.0904
  431MOL0     H56848   4.532   4.600   7.364 -3.4161 -0.7888  1.4023
  431MOL0     H56849   4.667   4.594   7.496  0.8593  1.7104  0.8590
  431MOL0     H56850   4.553   4.854   7.400 -0.6006 -0.3944 -1.2026
  431MOL0     H56851   4.688   4.824   7.515 -0.4450  0.2663  0.5309
  431MOL0     H56852   4.790   4.677   7.337 -0.7335 -0.7624  3.7381
  431MOL0     H56853   4.811   4.856   7.320 -0.4825 -0.1564 -0.5069
  431MOL0     H56854   4.680   4.606   6.963  1.9609 -1.2243  0.5457
  431MOL0     H56855   4.796   4.667   6.760 -1.0918 -1.4289  0.9935
  431MOL0     H56856   5.145   5.212   6.686  0.4749 -0.6007  0.6352
  431MOL0     H56857   5.259   5.295   6.489 -1.5212  0.3638 -3.0306
  431MOL0     H56858   5.306   5.058   6.153  1.4664 -1.4442  0.7254
  431MOL0     H56859   5.473   5.021   6.185 -0.0113 -0.6940  1.6003
  431MOL0     H56860   5.397   5.286   6.049  3.1455  2.0852  1.1328
  431MOL0     H56861   5.481   5.156   5.978 -0.0060 -0.9900 -0.0825
  431MOL0     H56862   5.645   5.209   6.196 -2.2699 -0.5317  2.2050
  431MOL0     H56863   5.547   5.355   6.200 -0.8848 -1.3893  0.1154
  431MOL0     H56864   5.676   5.281   5.926 -0.4519  1.0310 -0.4235
  431MOL0     H56865   5.588   5.415   5.973  2.0558  0.8752  1.0450
  431MOL0     H56866   5.830   5.452   5.944  1.5245 -3.2881 -0.4834
  431MOL0     H56867   5.871   5.340   6.058 -0.7953 -0.6385  1.7983
  431MOL0     H56868   5.763   5.444   6.237  4.5623 -1.0226  0.5234
  431MOL0     H56869   5.708   5.586   6.134  1.4862  0.9783  1.2069
  431MOL0     H56870   5.947   5.615   6.270  0.9359 -0.6249  0.2294
  431MOL0     H56871   5.995   5.489   6.154 -0.6903 -0.3061 -0.8981
  431MOL0     H56872   5.924   5.646   5.973  0.2426  1.2674  0.0708
  431MOL0     H56873   6.062   5.704   6.081  0.0277 -0.3734  0.5641
  431MOL0     H56874   5.280   4.895   6.322  0.8619  0.3310 -0.3005
  431MOL0     H56875   5.118   4.831   6.511 -2.1708  1.3996 -0.1917
  431MOL0     H56876   4.945   5.025   6.945 -0.0888  0.7564 -2.0893
  431MOL0     H56877   4.852   4.950   7.150  2.5210  1.4519 -1.2740
  431MOL0     H56878   4.924   5.694   8.250  0.1735 -0.1038 -0.8923
  431MOL0     H56879   5.073   5.911   8.210 -0.4144 -0.6074 -1.3214
  431MOL0     H56880   5.414   6.128   7.793  0.2440  0.1941 -0.2678
  431MOL0     H56881   5.550   6.330   7.798  0.8156 -2.1490 -1.8624
  431MOL0     H56882   5.595   6.577   7.848  0.6565  1.7684  1.7928
  431MOL0     H56883   5.725   6.457   7.806  2.1867 -1.0367  0.8934
  431MOL0     H56884   5.753   6.672   8.028  1.4109 -0.9407  0.0800
  431MOL0     H56885   5.886   6.579   7.965  1.2040  0.7907  0.7385
  431MOL0     H56886   5.734   6.793   7.807 -0.0435  0.5797  1.2312
  431MOL0     H56887   5.858   6.687   7.743 -1.7150  1.6361 -1.1433
  431MOL0     H56888   5.926   6.921   7.819 -0.7815  0.6734  0.2713
  431MOL0     H56889   5.905   6.862   7.985 -1.0407 -2.3374  0.2701
  431MOL0     H56890   6.245   6.656   7.794 -0.4537 -2.4249  0.6334
  431MOL0     H56891   5.598   6.288   8.222  1.3369 -2.0102 -0.7654
  431MOL0     H56892   5.458   6.078   8.215  0.1332  1.1051  0.9408
  432MOL0     O56893   2.037   3.928   9.771  0.0316 -0.7283  0.3246
  432MOL0     C56894   2.135   3.897   9.837  0.4001 -0.0348  0.6232
  432MOL0     O56895   2.127   3.892   9.971  0.0738 -0.2773 -0.2278
  432MOL0     C56896   2.028   3.954  10.041 -0.3359  0.3744  0.0417
  432MOL0     C56897   2.053   4.084  10.083 -0.7507 -0.6730  0.6675
  432MOL0     C56898   1.954   4.158  10.141 -0.0501  1.1806 -0.0387
  432MOL0     C56899   1.835   4.105  10.178 -0.0230  0.6111 -0.3073
  432MOL0     O56900   1.771   4.182  10.267 -0.0586  0.2288  0.0561
  432MOL0     C56901   1.640   4.120  10.291 -0.2058  0.4511  0.5322
  432MOL0     C56902   1.572   4.203  10.405 -0.0834  0.7018 -0.4576
  432MOL0     C56903   1.514   4.343  10.341 -0.2985 -1.0077  0.6300
  432MOL0     C56904   1.477   4.423  10.468  0.4561 -0.5296  0.7494
  432MOL0     C56905   1.396   4.546  10.431  0.1960 -0.4631  0.0648
  432MOL0     C56906   1.366   4.638  10.553  0.5316  0.2835 -1.2760
  432MOL0     C56907   1.268   4.746  10.517 -0.4625  0.2630 -0.3305
  432MOL0     C56908   1.224   4.845  10.636  0.1767 -0.0741  0.9983
  432MOL0     N56909   1.115   4.917  10.574 -0.0575 -0.0650 -0.1573
  432MOL0     C56910   0.985   4.869  10.585 -0.5958 -0.2903 -0.7471
  432MOL0     C56911   0.918   4.928  10.482 -0.0976 -0.1121 -0.9460
  432MOL0     C56912   0.773   4.902  10.442  1.0942 -0.6712 -0.2256
  432MOL0     C56913   0.733   4.750  10.453  0.6442 -0.1686 -1.6140
  432MOL0     C56914   0.607   4.741  10.545 -0.1822 -0.2895 -0.1775
  432MOL0     C56915   0.565   4.587  10.564 -0.7582 -0.6775  0.0906
  432MOL0     O56916   0.501   4.565  10.692  0.0086  0.5140 -0.0611
  432MOL0     C56917   0.365   4.537  10.696  0.7046  0.4751 -0.3992
  432MOL0     C56918   0.310   4.454  10.796  0.4448  0.6632 -0.1494
  432MOL0     C56919   0.173   4.421  10.814  0.4711 -0.3807 -0.0757
  432MOL0     C56920   0.082   4.480  10.720  0.0730 -0.6378  0.4858
  432MOL0     C56921  -0.065   4.468  10.751 -0.6602 -0.6070 -0.7825
  432MOL0     O56922  -0.141   4.467  10.632 -0.0081  0.4064 -0.4851
  432MOL0     C56923  -0.277   4.472  10.639 -0.1593  0.6391  0.0687
  432MOL0     C56924  -0.347   4.358  10.673 -0.1444  0.6479  0.6444
  432MOL0     C56925  -0.477   4.353  10.644  0.7765  0.4299 -0.1326
  432MOL0     C56926  -0.554   4.465  10.599  0.5810 -0.8259  0.5420
  432MOL0     O56927  -0.690   4.464  10.566 -0.2304  0.5187  0.3969
  432MOL0     C56928  -0.766   4.351  10.607 -0.7908  0.3564  0.6605
  432MOL0     C56929  -0.768   4.243  10.492  0.1260  0.8465  0.1601
  432MOL0     C56930  -0.865   4.136  10.543 -0.2028  0.2953  0.4971
  432MOL0     C56931  -0.842   3.992  10.480 -0.2696 -0.0795 -0.1186
  432MOL0     C56932  -0.938   3.889  10.539 -0.3088  0.8836 -0.8748
  432MOL0     C56933  -0.918   3.746  10.467  0.5522 -0.3758 -0.0238
  432MOL0     C56934  -1.019   3.645  10.520  0.9906 -0.5169 -0.4436
  432MOL0     C56935  -1.135   3.609  10.425 -0.4064 -0.4718 -0.4433
  432MOL0    Cl56936  -1.233   3.473  10.480  0.2087 -0.1146  0.0051
  432MOL0     C56937  -0.484   4.581  10.566  0.7641 -0.0273  0.6958
  432MOL0     C56938  -0.348   4.582  10.583 -0.7008  0.2564 -0.3456
  432MOL0     O56939  -0.110   4.454  10.861 -0.7278 -0.0181 -1.1489
  432MOL0     C56940   0.135   4.567  10.618  0.6639 -0.2236  0.6175
  432MOL0     C56941   0.272   4.590  10.599  0.7321  0.0214 -0.4878
  432MOL0     N56942   0.993   5.023  10.428  0.0241 -0.3458  0.2330
  432MOL0     N56943   1.113   5.010  10.476 -0.3227 -0.7760 -0.2554
  432MOL0     C56944   1.810   3.970  10.143 -0.9940  0.2612  0.0344
  432MOL0     C56945   1.905   3.892  10.073  0.3683  0.5064  0.3107
  432MOL0     C56946   2.263   3.862   9.772 -0.1960  1.4662  1.1351
  432MOL0     C56947   2.306   3.885   9.638  0.6402 -0.3075  0.2312
  432MOL0     C56948   2.434   3.859   9.583  0.3353 -0.1785 -0.1658
  432MOL0     C56949   2.538   3.811   9.666  0.5644 -0.0140 -0.7835
  432MOL0     O56950   2.668   3.793   9.618 -0.4264  0.6962 -0.6847
  432MOL0     C56951   2.709   3.836   9.489  0.3366  0.2610 -0.9112
  432MOL0     C56952   2.859   3.827   9.491 -0.0910  0.3707  0.0276
  432MOL0     C56953   2.926   3.841   9.354  0.3711  0.6334 -0.6449
  432MOL0     C56954   3.079   3.804   9.354 -0.4971 -0.0914 -0.1111
  432MOL0     C56955   3.151   3.894   9.448 -0.5988  0.3385 -0.1675
  432MOL0     C56956   3.212   3.968   9.526 -0.4773  0.1050 -0.1264
  432MOL0     C56957   2.495   3.758   9.792 -0.4751  0.4077 -0.5284
  432MOL0     C56958   2.365   3.788   9.838  0.9286 -0.5910 -1.1498
  432MOL0     H56959   2.149   4.132  10.067 -1.5430  0.0506 -2.9501
  432MOL0     H56960   1.983   4.255  10.180  2.3362  0.5700 -0.1852
  432MOL0     H56961   1.641   4.020  10.334 -1.7243  1.6313  3.5939
  432MOL0     H56962   1.576   4.127  10.202 -0.0706 -0.5549  0.3370
  432MOL0     H56963   1.642   4.218  10.488 -3.0235 -0.0073  2.3532
  432MOL0     H56964   1.487   4.151  10.450 -1.6525  1.7763 -2.0333
  432MOL0     H56965   1.435   4.333  10.267  1.6152  0.1750 -1.7120
  432MOL0     H56966   1.593   4.399  10.291  0.0150 -2.0603 -0.0898
  432MOL0     H56967   1.412   4.364  10.533 -1.4983  1.1300  0.3966
  432MOL0     H56968   1.572   4.457  10.511  0.0518  1.5987  0.0838
  432MOL0     H56969   1.309   4.507  10.377  0.8980 -3.5776  1.0101
  432MOL0     H56970   1.451   4.611  10.362 -1.3137  1.8709  0.9389
  432MOL0     H56971   1.458   4.692  10.577  1.5221 -1.6377 -0.5253
  432MOL0     H56972   1.332   4.578  10.638  3.4294  2.2891  1.5610
  432MOL0     H56973   1.331   4.810  10.456  3.0060  0.0614  2.7128
  432MOL0     H56974   1.184   4.703  10.461  0.3170 -0.3653 -1.0478
  432MOL0     H56975   1.314   4.901  10.662  1.1804 -1.6872  1.1411
  432MOL0     H56976   1.196   4.794  10.728  0.7496  0.6344  1.5715
  432MOL0     H56977   0.948   4.796  10.656  0.3002  1.2741  1.4170
  432MOL0     H56978   0.761   4.937  10.339 -3.1181  1.0287  0.6716
  432MOL0     H56979   0.705   4.967  10.497 -3.9117 -4.4478 -1.1499
  432MOL0     H56980   0.801   4.674  10.493  0.0572 -0.6319 -1.4783
  432MOL0     H56981   0.696   4.726  10.353 -2.7223  2.7020 -1.2617
  432MOL0     H56982   0.619   4.776  10.648 -0.9783 -0.0864 -0.1414
  432MOL0     H56983   0.526   4.788  10.488  1.4536  1.9236 -0.7762
  432MOL0     H56984   0.654   4.523  10.554 -1.7951 -2.1136 -0.2520
  432MOL0     H56985   0.515   4.558  10.471  2.6322  1.7680 -2.8358
  432MOL0     H56986   0.378   4.414  10.870  0.5876  2.5361  0.7775
  432MOL0     H56987   0.118   4.373  10.894 -1.6595  1.2907 -0.4511
  432MOL0     H56988  -0.299   4.275  10.723 -1.7003 -0.2537  0.7036
  432MOL0     H56989  -0.521   4.254  10.651 -1.4280  1.1062 -2.5954
  432MOL0     H56990  -0.865   4.391  10.631 -0.6211  1.0576  0.2107
  432MOL0     H56991  -0.724   4.309  10.699  0.7203  0.9047  0.2529
  432MOL0     H56992  -0.674   4.196  10.462 -2.0257 -4.3346  0.5075
  432MOL0     H56993  -0.808   4.272  10.395  0.0991  0.5145  0.0695
  432MOL0     H56994  -0.968   4.163  10.520  0.4369  1.1234 -1.6925
  432MOL0     H56995  -0.861   4.122  10.652  0.9618  0.7707  0.5393
  432MOL0     H56996  -0.857   3.983  10.372 -0.4931  3.8013 -0.5555
  432MOL0     H56997  -0.741   3.955  10.497 -0.3809 -0.0111  0.6869
  432MOL0     H56998  -1.040   3.928  10.531 -1.2965 -1.4980 -0.6481
  432MOL0     H56999  -0.926   3.876  10.647 -2.3315  0.6836 -0.6268
  432MOL0     H57000  -0.819   3.709  10.494  0.8107 -1.1363 -1.8617
  432MOL0     H57001  -0.927   3.764  10.359 -2.7629 -1.0182  0.0535
  432MOL0     H57002  -0.976   3.552  10.558  1.3958 -0.4391 -0.6905
  432MOL0     H57003  -1.065   3.673  10.615 -1.6858 -2.5852 -1.0198
  432MOL0     H57004  -1.095   3.577  10.329 -0.0541 -0.6103 -0.2506
  432MOL0     H57005  -1.189   3.704  10.415  4.1599  2.3603 -1.1105
  432MOL0     H57006  -0.538   4.670  10.534 -0.9973 -1.0997  0.5594
  432MOL0     H57007  -0.294   4.671  10.552 -0.9280  1.7665  3.1363
  432MOL0     H57008   0.064   4.617  10.552  0.0250 -0.8928  0.7767
  432MOL0     H57009   0.316   4.653  10.523  0.6183  1.0809  0.3121
  432MOL0     H57010   1.720   3.916  10.173  0.6579 -2.3544  0.5987
  432MOL0     H57011   1.890   3.788  10.046 -0.1568  0.7877 -0.5383
  432MOL0     H57012   2.227   3.930   9.577  1.7176 -0.7842 -1.5889
  432MOL0     H57013   2.462   3.876   9.480  0.2868 -1.0130 -0.3239
  432MOL0     H57014   2.680   3.941   9.476  0.7549  1.0827  3.2193
  432MOL0     H57015   2.667   3.781   9.405  2.7830  2.7025 -3.9816
  432MOL0     H57016   2.881   3.921   9.544 -0.3034 -0.0313  0.8486
  432MOL0     H57017   2.883   3.734   9.543 -2.5762 -3.2399 -4.4852
  432MOL0     H57018   2.916   3.941   9.311 -4.0246  0.8843  0.4919
  432MOL0     H57019   2.867   3.773   9.291  0.7079  0.3874 -0.7015
  432MOL0     H57020   3.095   3.699   9.381  0.6498  0.6493  2.4060
  432MOL0     H57021   3.121   3.815   9.254  1.4311  2.0346  0.8351
  432MOL0     H57022   3.269   4.035   9.588 -0.3807  1.7466 -1.8752
  432MOL0     H57023   2.571   3.715   9.857 -1.1819 -0.3833 -0.2211
  432MOL0     H57024   2.345   3.756   9.939 -1.0989 -1.9882 -1.9141
  433MOL0     O57025   8.686   5.212   2.748  0.6404  0.5337 -0.1277
  433MOL0     C57026   8.646   5.125   2.671 -0.5946  0.2123  1.1164
  433MOL0     O57027   8.723   5.069   2.572 -1.0733 -0.6363  0.4065
  433MOL0     C57028   8.864   5.081   2.588  0.6680  0.6994 -0.5113
  433MOL0     C57029   8.929   5.149   2.488 -0.8819  0.4792  0.2934
  433MOL0     C57030   9.067   5.171   2.501 -0.0027 -0.1492 -0.1487
  433MOL0     C57031   9.141   5.140   2.613  0.1119  0.5486  0.1441
  433MOL0     O57032   9.270   5.174   2.612 -0.0903 -0.6127 -0.3249
  433MOL0     C57033   9.357   5.096   2.695  0.4766  0.8438 -0.0966
  433MOL0     C57034   9.494   5.146   2.669 -0.1056 -0.1322  0.2860
  433MOL0     C57035   9.530   5.109   2.524  0.5470 -0.3518 -0.5436
  433MOL0     C57036   9.664   5.027   2.508  1.0718  0.9664 -0.3452
  433MOL0     C57037   9.676   5.000   2.353  0.0970  0.1267  0.4784
  433MOL0     C57038   9.655   4.848   2.330  1.1164 -0.6805 -0.7941
  433MOL0     C57039   9.675   4.815   2.180  0.0765  0.8571 -0.0728
  433MOL0     C57040   9.821   4.840   2.126  0.2400  0.9484 -0.6476
  433MOL0     N57041   9.941   4.791   2.195  0.1036  0.0600  0.5078
  433MOL0     C57042   9.952   4.653   2.207 -0.4266  0.4776  0.2984
  433MOL0     C57043  10.031   4.625   2.309  0.1641 -0.2951 -0.3920
  433MOL0     C57044  10.078   4.491   2.364 -0.6460 -0.0339  0.8057
  433MOL0     C57045   9.957   4.389   2.370  0.6895 -0.0615  0.0680
  433MOL0     C57046   9.874   4.438   2.485  0.7954  0.0210  0.0877
  433MOL0     C57047   9.759   4.334   2.512  0.3589  0.4886 -0.4424
  433MOL0     O57048   9.655   4.353   2.413 -0.8459  0.3099 -0.3601
  433MOL0     C57049   9.555   4.439   2.441  0.6645  0.3225  0.1634
  433MOL0     C57050   9.569   4.539   2.542 -0.0513 -0.7470  0.2228
  433MOL0     C57051   9.459   4.627   2.570 -0.4995  0.5745  0.0766
  433MOL0     C57052   9.334   4.611   2.507 -0.8849 -0.2589 -0.4622
  433MOL0     C57053   9.212   4.672   2.572 -0.0006  0.3950  0.1926
  433MOL0     O57054   9.099   4.667   2.491 -0.7634  0.0757 -0.0482
  433MOL0     C57055   8.973   4.682   2.546  1.4523 -0.9712  0.4295
  433MOL0     C57056   8.943   4.632   2.668  0.6261 -0.0317  0.2329
  433MOL0     C57057   8.816   4.639   2.726 -0.5159 -0.0684  0.7576
  433MOL0     C57058   8.713   4.707   2.666 -0.5682  0.2523  0.4046
  433MOL0     O57059   8.582   4.721   2.714  0.2831  0.2386 -0.0167
  433MOL0     C57060   8.576   4.687   2.852 -0.2932  0.7319  0.5176
  433MOL0     C57061   8.441   4.720   2.902 -0.8861 -0.4918 -1.1049
  433MOL0     C57062   8.344   4.610   2.851  0.0636  0.3421  0.3280
  433MOL0     C57063   8.206   4.631   2.897  0.6357 -0.2256 -0.3595
  433MOL0     C57064   8.132   4.506   2.857  0.7947  0.2269  0.1113
  433MOL0     C57065   7.989   4.514   2.915  0.0263  0.0695  1.1309
  433MOL0     C57066   7.919   4.392   2.845  0.1695  0.0682 -0.1663
  433MOL0     C57067   7.804   4.341   2.941 -0.1203 -0.1258 -0.0954
  433MOL0    Cl57068   7.708   4.463   3.027 -0.3109 -0.1305 -0.3186
  433MOL0     C57069   8.740   4.761   2.535  0.5579 -0.1150 -0.3526
  433MOL0     C57070   8.867   4.737   2.469  0.2396  0.2443 -0.2155
  433MOL0     O57071   9.227   4.730   2.683 -0.0580 -0.1588  0.2125
  433MOL0     C57072   9.318   4.514   2.403 -0.3824 -0.2744  0.3005
  433MOL0     C57073   9.430   4.432   2.373 -0.6898 -0.1008 -0.6210
  433MOL0     N57074  10.058   4.748   2.363  0.2522  0.6669 -0.1083
  433MOL0     N57075  10.010   4.845   2.297  0.5709  0.8621  0.5257
  433MOL0     C57076   9.074   5.070   2.715  1.4230  1.4386 -0.8617
  433MOL0     C57077   8.937   5.034   2.705  0.2504  0.0195  0.2557
  433MOL0     C57078   8.509   5.073   2.663 -0.3930 -1.0848  0.3587
  433MOL0     C57079   8.447   5.003   2.555 -0.3160  0.4688  1.2059
  433MOL0     C57080   8.319   4.960   2.564  0.2907 -0.1340  0.1661
  433MOL0     C57081   8.236   4.994   2.672  0.4915  0.4658 -0.0835
  433MOL0     O57082   8.103   4.954   2.665  1.3318 -0.4107  0.3478
  433MOL0     C57083   8.015   4.990   2.769  0.2303  0.5583 -0.2181
  433MOL0     C57084   7.872   4.977   2.723 -0.0405  0.6253 -0.7912
  433MOL0     C57085   7.844   4.826   2.734 -0.4928  0.2703  0.5665
  433MOL0     C57086   7.709   4.788   2.678  0.6081  0.4319  0.3933
  433MOL0     C57087   7.691   4.638   2.674  0.7232 -1.0456  0.4855
  433MOL0     C57088   7.657   4.523   2.681  0.5085 -0.3134  0.2766
  433MOL0     C57089   8.304   5.063   2.782  0.6791 -0.0306 -0.5190
  433MOL0     C57090   8.435   5.103   2.783 -0.8168 -0.4358 -0.3800
  433MOL0     H57091   8.877   5.190   2.401 -0.6945 -0.1001 -0.0936
  433MOL0     H57092   9.121   5.227   2.426 -1.5626  0.5347 -0.7952
  433MOL0     H57093   9.351   4.989   2.674  1.2427  0.8369 -0.2742
  433MOL0     H57094   9.330   5.118   2.799 -1.0208 -0.4096 -0.1807
  433MOL0     H57095   9.564   5.113   2.746 -0.7918  0.8780  1.3926
  433MOL0     H57096   9.492   5.256   2.675 -1.7242 -0.1724  1.0422
  433MOL0     H57097   9.543   5.199   2.463  1.6849  0.0762  0.2853
  433MOL0     H57098   9.455   5.048   2.474  1.2529 -0.8293 -1.0475
  433MOL0     H57099   9.743   5.084   2.558 -0.0498  0.3853  2.2831
  433MOL0     H57100   9.649   4.935   2.566 -4.3564  1.4389 -0.4836
  433MOL0     H57101   9.776   5.034   2.323 -0.3935  3.2319  1.9398
  433MOL0     H57102   9.598   5.060   2.305  0.7663  1.0700  0.5301
  433MOL0     H57103   9.556   4.808   2.357 -1.2966  3.5427 -2.3616
  433MOL0     H57104   9.724   4.793   2.394  0.0946  1.0458  1.9781
  433MOL0     H57105   9.634   4.716   2.161 -1.5058  1.2502  1.1074
  433MOL0     H57106   9.606   4.873   2.118  0.5206  2.3517  0.7845
  433MOL0     H57107   9.826   4.949   2.131 -0.5047  0.9451  0.6048
  433MOL0     H57108   9.829   4.807   2.022 -3.5491 -0.5899 -0.6250
  433MOL0     H57109   9.902   4.579   2.145  3.8870 -2.3370 -0.1998
  433MOL0     H57110  10.113   4.508   2.466 -0.7450  0.5569  0.7450
  433MOL0     H57111  10.160   4.462   2.298 -1.6021 -0.5844 -0.1682
  433MOL0     H57112   9.991   4.287   2.389  1.3364  0.5800  2.7252
  433MOL0     H57113   9.903   4.382   2.275 -0.7604 -2.9548  0.9649
  433MOL0     H57114   9.930   4.449   2.578 -1.2577 -0.8576  1.4833
  433MOL0     H57115   9.827   4.535   2.462 -1.2914 -1.4775 -2.6418
  433MOL0     H57116   9.706   4.340   2.607  0.1603 -1.8251 -0.3685
  433MOL0     H57117   9.802   4.233   2.505 -1.9179 -0.7466  1.8701
  433MOL0     H57118   9.655   4.554   2.606  1.0807  1.0282 -1.6110
  433MOL0     H57119   9.461   4.707   2.644 -3.9270  0.7533  0.1364
  433MOL0     H57120   9.020   4.583   2.726  0.2613  0.2297  0.9447
  433MOL0     H57121   8.806   4.581   2.817 -0.4759 -2.9511 -0.9437
  433MOL0     H57122   8.653   4.746   2.902 -1.3631  4.5768 -1.9790
  433MOL0     H57123   8.604   4.585   2.880  0.3782  1.1160  1.2977
  433MOL0     H57124   8.421   4.822   2.867  1.3128  0.4195  0.0886
  433MOL0     H57125   8.437   4.721   3.011  2.7838  2.6629 -0.8024
  433MOL0     H57126   8.385   4.514   2.884  2.5927  1.6175  1.1619
  433MOL0     H57127   8.343   4.619   2.742 -1.8659  1.9512  0.4333
  433MOL0     H57128   8.202   4.648   3.005 -1.5633  2.7462 -0.7873
  433MOL0     H57129   8.154   4.720   2.861 -1.1732 -0.8881  0.4413
  433MOL0     H57130   8.176   4.414   2.895 -1.0064  0.2759  2.5600
  433MOL0     H57131   8.135   4.513   2.748  1.8431 -0.0414  0.1189
  433MOL0     H57132   7.943   4.613   2.902  0.0313 -0.2390 -1.8048
  433MOL0     H57133   7.999   4.505   3.024 -0.4024  2.0424  1.3788
  433MOL0     H57134   7.877   4.422   2.748 -3.6826 -1.7232  0.7449
  433MOL0     H57135   7.993   4.316   2.819 -0.5493 -0.8078  0.2683
  433MOL0     H57136   7.838   4.266   3.012  2.5620 -1.4851 -2.5812
  433MOL0     H57137   7.744   4.290   2.866 -1.6171  0.3496  0.7392
  433MOL0     H57138   8.646   4.800   2.497 -0.0845  2.0176  2.9438
  433MOL0     H57139   8.872   4.767   2.365 -2.4975  1.0112 -0.2186
  433MOL0     H57140   9.228   4.493   2.346  0.1191 -0.5879 -0.3931
  433MOL0     H57141   9.425   4.357   2.294  2.8267 -2.1718  0.8743
  433MOL0     H57142   9.140   5.033   2.793 -0.7668  1.0598  0.9187
  433MOL0     H57143   8.881   4.997   2.790  0.0125  1.0392  0.5557
  433MOL0     H57144   8.505   4.987   2.464  1.1683 -0.4523  2.2783
  433MOL0     H57145   8.264   4.917   2.481  0.0259  3.5342 -1.7639
  433MOL0     H57146   8.029   5.098   2.784  0.3974  0.7957 -1.8759
  433MOL0     H57147   8.037   4.934   2.860 -0.3020  1.3866  0.4338
  433MOL0     H57148   7.804   5.037   2.783 -0.4806  1.3131 -1.9511
  433MOL0     H57149   7.868   5.004   2.617  0.8106 -1.1574 -1.3259
  433MOL0     H57150   7.858   4.804   2.840 -0.4557 -0.4532  0.4156
  433MOL0     H57151   7.920   4.774   2.675  0.1537  1.1669  0.5809
  433MOL0     H57152   7.638   4.835   2.746  1.2799  0.4480  1.0976
  433MOL0     H57153   7.706   4.822   2.575 -0.5761  3.5201  1.3375
  433MOL0     H57154   7.641   4.418   2.690  0.6798 -0.8196 -3.7525
  433MOL0     H57155   8.254   5.053   2.878  1.7965 -1.8210 -0.0670
  433MOL0     H57156   8.481   5.149   2.870 -1.5365  0.0248 -0.2383
  434MOL0     O57157  10.877  10.711   6.083  0.3941  0.2477  0.8794
  434MOL0     C57158  10.807  10.797   6.036  0.6914 -0.1519 -0.5811
  434MOL0     O57159  10.838  10.894   5.946  0.0624 -1.0482  0.3818
  434MOL0     C57160  10.969  10.899   5.892  1.1107 -0.5288  0.9759
  434MOL0     C57161  10.969  10.937   5.755  0.2569  0.8933 -1.2304
  434MOL0     C57162  11.098  10.935   5.686 -1.1287 -0.3197 -0.2307
  434MOL0     C57163  11.218  10.932   5.756 -1.4093  0.1711 -1.0019
  434MOL0     O57164  11.333  10.923   5.683 -0.2680  0.7843  0.2127
  434MOL0     C57165  11.433  11.021   5.716 -0.2856  0.3361 -0.5291
  434MOL0     C57166  11.553  10.995   5.619 -0.0960 -0.0448  0.9715
  434MOL0     C57167  11.614  10.862   5.654 -0.3607 -0.2022 -0.2854
  434MOL0     C57168  11.710  10.810   5.543  0.7574 -0.6883  0.3034
  434MOL0     C57169  11.856  10.863   5.548 -0.1893  0.8134 -0.1525
  434MOL0     C57170  11.936  10.812   5.427  0.6901 -0.1697 -0.0347
  434MOL0     C57171  12.080  10.816   5.443 -1.2585  0.2452 -0.7145
  434MOL0     C57172  12.153  10.839   5.311  0.4978  0.2945 -0.1685
  434MOL0     N57173  12.293  10.873   5.332  0.0665  1.1397  0.3937
  434MOL0     C57174  12.341  11.005   5.342 -0.0132  0.8000  0.3516
  434MOL0     C57175  12.475  10.981   5.363  0.7311  0.7421 -0.9202
  434MOL0     C57176  12.573  11.091   5.396  0.1929 -0.5071  0.1213
  434MOL0     C57177  12.671  11.065   5.513 -0.2619  0.2343  0.8108
  434MOL0     C57178  12.785  11.158   5.520  0.6772  0.0569  1.0582
  434MOL0     C57179  12.897  11.121   5.603 -0.3989  0.3274  0.5314
  434MOL0     O57180  12.983  11.234   5.597 -0.5820  0.2705  0.2015
  434MOL0     C57181  13.088  11.236   5.506 -0.8773  0.5263 -0.5491
  434MOL0     C57182  13.119  11.357   5.450  0.0788 -1.1500  0.0669
  434MOL0     C57183  13.226  11.375   5.370 -1.0625  0.5938  0.1590
  434MOL0     C57184  13.310  11.273   5.337 -0.7102  0.9093 -0.0595
  434MOL0     C57185  13.436  11.293   5.253 -0.8925 -0.6426 -0.9094
  434MOL0     O57186  13.532  11.201   5.248  0.1350 -0.7082  0.2661
  434MOL0     C57187  13.650  11.227   5.185 -1.3657 -0.3872  0.0432
  434MOL0     C57188  13.765  11.174   5.250 -0.5468  0.1812  0.8646
  434MOL0     C57189  13.891  11.185   5.193 -0.0912  1.0727  1.0892
  434MOL0     C57190  13.905  11.244   5.072 -0.2355 -0.3187  0.4201
  434MOL0     O57191  14.032  11.251   5.026 -0.4654 -0.2551 -0.9244
  434MOL0     C57192  14.101  11.369   5.013  0.6630  0.0076 -0.1308
  434MOL0     C57193  14.237  11.358   5.077  0.7359 -0.2567 -0.4040
  434MOL0     C57194  14.333  11.477   5.050  0.2580  0.0378 -0.0146
  434MOL0     C57195  14.268  11.618   5.064  1.1118 -0.3697 -0.9175
  434MOL0     C57196  14.381  11.718   5.093 -0.0324 -1.2908  0.5581
  434MOL0     C57197  14.322  11.857   5.124  0.3527  0.7139 -0.5732
  434MOL0     C57198  14.419  11.959   5.181  0.4746 -0.2613 -0.0681
  434MOL0     C57199  14.385  12.105   5.166 -0.2067 -0.0224 -0.5574
  434MOL0    Cl57200  14.245  12.128   5.274  0.0508  0.0072  0.0590
  434MOL0     C57201  13.795  11.299   5.002 -0.2907  0.1324  0.8693
  434MOL0     C57202  13.663  11.286   5.061  0.6207 -0.1375 -0.4897
  434MOL0     O57203  13.423  11.392   5.177 -0.9669  0.2369 -0.6096
  434MOL0     C57204  13.270  11.147   5.388  0.1296 -0.5714 -0.1343
  434MOL0     C57205  13.163  11.131   5.468  0.3845  0.4836 -0.2841
  434MOL0     N57206  12.506  10.842   5.357 -0.7273  0.1843  0.3932
  434MOL0     N57207  12.390  10.777   5.341 -0.3050 -0.7840  0.0669
  434MOL0     C57208  11.207  10.887   5.892 -0.5289 -0.6149 -0.3442
  434MOL0     C57209  11.089  10.879   5.954 -0.2826 -0.1590 -0.3475
  434MOL0     C57210  10.664  10.785   6.074  0.8191 -0.0121  0.2706
  434MOL0     C57211  10.630  10.699   6.182 -0.0140 -1.2607  0.1910
  434MOL0     C57212  10.494  10.688   6.216 -0.4470  0.2482 -0.8288
  434MOL0     C57213  10.393  10.762   6.157  0.6682 -0.3147  0.4174
  434MOL0     O57214  10.256  10.754   6.195 -0.7633  0.4407 -0.0888
  434MOL0     C57215  10.211  10.649   6.283 -0.5785 -0.5660 -0.7431
  434MOL0     C57216  10.203  10.677   6.434  0.3547  0.0038 -0.1103
  434MOL0     C57217  10.101  10.782   6.464  0.2827  1.5656 -1.1158
  434MOL0     C57218   9.963  10.706   6.483  0.7443 -0.2970  0.1828
  434MOL0     C57219   9.843  10.794   6.484 -0.0516 -0.1552 -0.1235
  434MOL0     C57220   9.745  10.868   6.472 -0.1852 -0.1319 -0.9208
  434MOL0     C57221  10.434  10.839   6.045  0.7119  1.0956  0.3315
  434MOL0     C57222  10.563  10.853   6.001 -0.4245  0.1151  0.7377
  434MOL0     H57223  10.876  10.943   5.700  0.0584 -2.6600 -1.5211
  434MOL0     H57224  11.101  10.945   5.578 -1.1400  2.6190 -0.0539
  434MOL0     H57225  11.464  11.012   5.821  0.1878 -2.0595 -0.8124
  434MOL0     H57226  11.397  11.121   5.693  1.8368  1.0307 -1.0105
  434MOL0     H57227  11.631  11.073   5.617 -1.2600  1.1640  1.1076
  434MOL0     H57228  11.513  11.003   5.518  0.3335  1.9857  0.9175
  434MOL0     H57229  11.538  10.790   5.687 -0.2591 -0.1805 -0.0016
  434MOL0     H57230  11.669  10.869   5.748  0.4953 -0.1518 -0.7741
  434MOL0     H57231  11.706  10.702   5.556  0.4427 -0.8041 -0.6338
  434MOL0     H57232  11.674  10.847   5.446  1.8727  1.6338  0.7033
  434MOL0     H57233  11.904  10.823   5.638 -1.2796 -1.2490 -0.4390
  434MOL0     H57234  11.852  10.972   5.562  1.0587  1.0362 -1.3183
  434MOL0     H57235  11.911  10.854   5.329  1.5351 -0.3157 -0.3239
  434MOL0     H57236  11.909  10.707   5.412  0.7961 -0.2576  0.3761
  434MOL0     H57237  12.120  10.895   5.507  0.9266 -0.4618 -1.1504
  434MOL0     H57238  12.106  10.718   5.482  0.0132  1.2700  1.1472
  434MOL0     H57239  12.115  10.924   5.255  0.8839  0.5475 -0.0533
  434MOL0     H57240  12.134  10.748   5.253  3.8228 -2.4787  2.6075
  434MOL0     H57241  12.284  11.095   5.363  0.0699  1.2333 -1.1745
  434MOL0     H57242  12.518  11.183   5.417  1.5167  0.5849 -1.0071
  434MOL0     H57243  12.629  11.103   5.303  1.0099  1.7906  0.8491
  434MOL0     H57244  12.702  10.961   5.503  1.8739  0.9381 -0.4798
  434MOL0     H57245  12.613  11.063   5.606 -0.9510 -1.6147  0.3825
  434MOL0     H57246  12.826  11.183   5.422 -2.1408 -2.7718 -1.0480
  434MOL0     H57247  12.748  11.251   5.565  3.7295  1.8740  0.0803
  434MOL0     H57248  12.926  11.023   5.565  0.8782  0.2889  1.5071
  434MOL0     H57249  12.868  11.105   5.707 -0.7695 -3.0387 -0.0049
  434MOL0     H57250  13.058  11.443   5.477  1.5362 -0.4532  1.3118
  434MOL0     H57251  13.229  11.474   5.325  0.7179  0.5797  0.1483
  434MOL0     H57252  13.763  11.128   5.348  4.4851  2.4652  2.3572
  434MOL0     H57253  13.971  11.133   5.244 -2.9019 -1.8061  2.9735
  434MOL0     H57254  14.050  11.458   5.050 -0.2363 -0.4285 -0.2959
  434MOL0     H57255  14.132  11.394   4.911 -1.3413 -1.6645 -1.2206
  434MOL0     H57256  14.282  11.262   5.049 -0.2189  0.2203 -4.0879
  434MOL0     H57257  14.220  11.353   5.185  1.1485  0.9392 -0.2711
  434MOL0     H57258  14.361  11.472   4.945 -1.9742  2.7564 -0.8743
  434MOL0     H57259  14.417  11.458   5.118  1.1570 -1.1183 -1.3904
  434MOL0     H57260  14.210  11.647   4.976  1.6555 -0.9843 -1.4793
  434MOL0     H57261  14.197  11.621   5.148  1.9475  0.9511 -0.2276
  434MOL0     H57262  14.439  11.727   5.000  0.3524 -0.2970  0.8748
  434MOL0     H57263  14.432  11.683   5.183  0.1089  1.2997  1.5729
  434MOL0     H57264  14.240  11.830   5.191 -1.6218  1.8743 -2.3714
  434MOL0     H57265  14.263  11.900   5.042  0.2662 -0.6139 -1.2370
  434MOL0     H57266  14.440  11.926   5.283 -1.2728 -1.4868 -0.0610
  434MOL0     H57267  14.510  11.949   5.121 -0.2794 -1.1635 -1.0858
  434MOL0     H57268  14.367  12.136   5.063  0.7754 -2.4340 -1.5269
  434MOL0     H57269  14.468  12.164   5.206 -0.4833 -0.1818  0.2780
  434MOL0     H57270  13.802  11.351   4.906 -3.7780 -0.1348  0.3515
  434MOL0     H57271  13.580  11.331   5.006  2.1193  0.2744 -2.5634
  434MOL0     H57272  13.336  11.061   5.381  2.2452  0.6460  2.7755
  434MOL0     H57273  13.138  11.033   5.506  0.4179  0.2786 -0.7728
  434MOL0     H57274  11.302  10.861   5.937  1.1035  2.6951 -1.5198
  434MOL0     H57275  11.083  10.857   6.060 -1.5063  3.4008  0.4925
  434MOL0     H57276  10.704  10.644   6.240 -0.0920 -0.0226  1.5184
  434MOL0     H57277  10.471  10.621   6.298 -3.4125  0.5277 -1.3053
  434MOL0     H57278  10.278  10.562   6.283 -0.1125 -0.3718  2.9883
  434MOL0     H57279  10.114  10.615   6.246 -0.7360  1.7275 -2.6840
  434MOL0     H57280  10.174  10.594   6.499  0.3558  0.6905  0.7853
  434MOL0     H57281  10.301  10.710   6.470  0.6688 -0.9952 -0.0115
  434MOL0     H57282  10.107  10.855   6.383 -1.6593  1.1524 -1.6833
  434MOL0     H57283  10.131  10.828   6.558 -1.7441  1.5454 -0.4177
  434MOL0     H57284   9.952  10.633   6.402  0.3628 -2.8881  2.3989
  434MOL0     H57285   9.964  10.649   6.577 -1.5399 -0.6403  0.0450
  434MOL0     H57286   9.658  10.931   6.466  1.1330  1.7460 -1.1844
  434MOL0     H57287  10.363  10.899   5.989  1.6647  1.0426 -1.0023
  434MOL0     H57288  10.579  10.916   5.914  1.7146 -1.4849 -0.0891
  435MOL0     O57289   6.640   7.781   7.552 -0.3527 -0.1931  0.5175
  435MOL0     C57290   6.736   7.811   7.624  0.0315  0.0282  0.4386
  435MOL0     O57291   6.717   7.846   7.758 -0.2268  0.1869  0.4154
  435MOL0     C57292   6.595   7.887   7.796 -0.3982 -0.6602  0.0496
  435MOL0     C57293   6.588   8.022   7.842  1.5848  0.4592  0.2620
  435MOL0     C57294   6.470   8.073   7.890  0.1452  0.8399  0.1711
  435MOL0     C57295   6.352   7.985   7.878  0.4565  0.2377  0.3011
  435MOL0     O57296   6.234   8.046   7.901 -0.3905 -0.7177 -0.5455
  435MOL0     C57297   6.112   7.985   7.863  0.8639 -0.4315  0.3140
  435MOL0     C57298   6.029   8.097   7.920  0.5252  0.4127 -0.7560
  435MOL0     C57299   5.993   8.205   7.819 -0.3471 -0.9081  0.0439
  435MOL0     C57300   5.883   8.295   7.874  0.1415 -0.0650  0.2588
  435MOL0     C57301   5.856   8.418   7.782 -0.5825 -0.4191  0.2487
  435MOL0     C57302   5.736   8.491   7.833  0.1422 -0.5199 -1.0377
  435MOL0     C57303   5.771   8.587   7.942  0.1357 -0.7133  0.0010
  435MOL0     C57304   5.871   8.698   7.891  0.3492 -0.5919  0.1854
  435MOL0     N57305   5.851   8.833   7.957  0.3581 -0.5166  0.3946
  435MOL0     C57306   5.726   8.889   8.007  0.2206 -0.0051  0.3450
  435MOL0     C57307   5.748   9.023   8.025  0.0091  0.1031 -0.6452
  435MOL0     C57308   5.654   9.129   8.077 -0.8191  0.1432 -0.3386
  435MOL0     C57309   5.517   9.132   8.001  0.1535 -0.4310  0.2436
  435MOL0     C57310   5.412   9.228   8.061 -0.5898  0.1067  0.7829
  435MOL0     C57311   5.431   9.378   8.033 -0.9349  0.6042  0.3513
  435MOL0     O57312   5.550   9.432   8.081  0.1922  0.3473  0.3694
  435MOL0     C57313   5.566   9.565   8.081 -0.3916 -0.2758  0.2459
  435MOL0     C57314   5.480   9.677   8.087 -0.2846  1.3142 -0.8201
  435MOL0     C57315   5.540   9.806   8.092 -0.0463  0.7344 -0.0905
  435MOL0     C57316   5.687   9.821   8.107  0.0302 -0.0021 -0.1954
  435MOL0     C57317   5.733   9.956   8.159 -0.4100  0.1144 -0.0728
  435MOL0     O57318   5.846   9.948   8.243  0.3343  0.4381  1.0258
  435MOL0     C57319   5.915  10.055   8.293 -0.4570 -0.2453 -1.1168
  435MOL0     C57320   5.910  10.179   8.230  0.9264 -0.3069 -0.3759
  435MOL0     C57321   5.971  10.295   8.288 -0.4740  0.3397 -0.5247
  435MOL0     C57322   6.046  10.281   8.411  0.1545 -1.1831 -0.4833
  435MOL0     O57323   6.130  10.378   8.446  0.3857 -0.2993 -0.1315
  435MOL0     C57324   6.103  10.520   8.427  0.5704 -0.6397 -0.4367
  435MOL0     C57325   6.157  10.601   8.548  0.7446 -1.0600 -0.9861
  435MOL0     C57326   6.060  10.669   8.631  0.1534 -1.0980 -0.9274
  435MOL0     C57327   6.120  10.720   8.761 -0.3866  0.0204 -0.3198
  435MOL0     C57328   6.016  10.759   8.861  0.8999  0.7956  0.0219
  435MOL0     C57329   6.073  10.834   8.979 -0.8534  1.0779  0.2203
  435MOL0     C57330   5.962  10.878   9.063 -0.1083 -0.1676 -0.2529
  435MOL0     C57331   6.021  10.959   9.179 -0.8190 -0.1742  0.0185
  435MOL0    Cl57332   5.900  11.025   9.301  0.0195 -0.1941 -0.2899
  435MOL0     C57333   6.048  10.160   8.469 -0.2365  1.2609  0.8307
  435MOL0     C57334   5.982  10.049   8.412 -0.7811 -0.4496 -0.1723
  435MOL0     O57335   5.660  10.049   8.144  0.3207  0.1404  0.0467
  435MOL0     C57336   5.763   9.715   8.089 -0.1884 -0.5467  0.3694
  435MOL0     C57337   5.710   9.585   8.070 -0.0013  0.1434 -1.2186
  435MOL0     N57338   5.878   9.046   7.979 -0.8008 -0.9002 -0.8594
  435MOL0     N57339   5.929   8.941   7.928  0.0446 -0.3257 -0.1471
  435MOL0     C57340   6.360   7.855   7.833  1.0869  0.4414 -0.3852
  435MOL0     C57341   6.479   7.801   7.804 -0.5758 -0.1958  0.1190
  435MOL0     C57342   6.881   7.790   7.578 -0.8452 -0.5169  0.2444
  435MOL0     C57343   6.986   7.801   7.657 -0.8662  1.0969 -0.7174
  435MOL0     C57344   7.110   7.764   7.616 -0.4123  0.2096  0.1131
  435MOL0     C57345   7.136   7.724   7.486 -0.0905  0.3335  0.3764
  435MOL0     O57346   7.259   7.695   7.434 -0.3283 -0.0831  0.8429
  435MOL0     C57347   7.380   7.719   7.498 -0.0320  0.6016  0.0276
  435MOL0     C57348   7.428   7.863   7.491  1.0129  0.2636 -0.6475
  435MOL0     C57349   7.578   7.894   7.507  0.0233  0.3889  0.3958
  435MOL0     C57350   7.650   7.814   7.614  0.6633 -1.0017 -0.3619
  435MOL0     C57351   7.680   7.686   7.559  0.2308  0.0415  0.2814
  435MOL0     C57352   7.725   7.585   7.520 -0.8248 -0.7579 -0.2716
  435MOL0     C57353   7.025   7.729   7.395 -0.2101  1.0796 -0.2291
  435MOL0     C57354   6.891   7.754   7.438 -0.0196 -0.0087  0.6781
  435MOL0     H57355   6.681   8.076   7.852  2.5273 -0.9341 -0.6452
  435MOL0     H57356   6.451   8.170   7.934  0.4770 -0.5738  3.7281
  435MOL0     H57357   6.097   7.890   7.914  2.3384 -0.5073  0.6598
  435MOL0     H57358   6.089   7.972   7.757 -3.3222 -2.4668  1.2764
  435MOL0     H57359   6.051   8.129   8.022  0.3397 -0.3159 -0.4827
  435MOL0     H57360   5.931   8.054   7.942  1.1962 -0.4606  0.6969
  435MOL0     H57361   5.972   8.149   7.728  0.6503 -0.4518 -0.4803
  435MOL0     H57362   6.085   8.261   7.799  0.9113 -1.5712  3.4400
  435MOL0     H57363   5.792   8.236   7.888  0.2980 -0.1632  0.9199
  435MOL0     H57364   5.903   8.334   7.974 -0.0121  0.4581  0.0847
  435MOL0     H57365   5.850   8.374   7.682  0.5784 -4.3113  1.6913
  435MOL0     H57366   5.936   8.492   7.773 -1.0658 -0.1107 -2.1653
  435MOL0     H57367   5.667   8.419   7.877 -0.1541  1.1332  1.4160
  435MOL0     H57368   5.695   8.546   7.747  0.2365  0.5124 -0.4314
  435MOL0     H57369   5.677   8.636   7.971  0.0220 -0.5074 -0.6962
  435MOL0     H57370   5.820   8.528   8.019  1.8344 -1.1472 -1.3403
  435MOL0     H57371   5.864   8.719   7.784 -0.8110 -2.0841 -0.0649
  435MOL0     H57372   5.972   8.659   7.908  0.6256  0.1734  0.3364
  435MOL0     H57373   5.631   8.849   8.038  0.5153 -1.2708 -0.2960
  435MOL0     H57374   5.706   9.225   8.071  1.0544 -0.8453 -0.6463
  435MOL0     H57375   5.640   9.122   8.185  2.9203  3.6609  0.5692
  435MOL0     H57376   5.484   9.027   8.008  1.4761 -0.9309 -0.6348
  435MOL0     H57377   5.528   9.165   7.897  0.8784 -0.7640  0.2070
  435MOL0     H57378   5.315   9.208   8.014 -0.8589  0.0174  1.3729
  435MOL0     H57379   5.402   9.199   8.166  0.2314 -0.4715  0.7140
  435MOL0     H57380   5.348   9.434   8.079 -1.7239 -0.1073 -0.1855
  435MOL0     H57381   5.430   9.390   7.925 -0.0788 -0.1073  0.2581
  435MOL0     H57382   5.373   9.660   8.080 -0.0899 -2.9490  2.6437
  435MOL0     H57383   5.476   9.893   8.100 -2.9966 -1.2183 -0.5216
  435MOL0     H57384   5.861  10.184   8.134  4.2966  0.2619 -2.1934
  435MOL0     H57385   5.989  10.379   8.223 -0.8762 -0.9756 -2.4266
  435MOL0     H57386   5.994  10.529   8.417  0.6237 -1.3698 -2.0296
  435MOL0     H57387   6.138  10.558   8.330 -1.3988  2.6009 -0.0353
  435MOL0     H57388   6.230  10.677   8.522 -1.0610  0.9436 -0.5502
  435MOL0     H57389   6.207  10.526   8.610  0.5102 -2.6692 -2.6503
  435MOL0     H57390   5.970  10.611   8.654 -2.0522  2.1815 -0.5357
  435MOL0     H57391   6.031  10.758   8.574  0.4189  0.8974  1.8059
  435MOL0     H57392   6.173  10.642   8.815 -2.6154  0.2313  2.4086
  435MOL0     H57393   6.190  10.798   8.732 -0.2048 -1.0905 -3.3041
  435MOL0     H57394   5.965  10.673   8.905  2.0006  1.3609  2.5117
  435MOL0     H57395   5.937  10.816   8.810 -1.0489 -1.5954  0.1696
  435MOL0     H57396   6.137  10.914   8.939  2.4511 -1.9714 -1.1638
  435MOL0     H57397   6.144  10.762   9.021  0.0084  0.9737 -1.3397
  435MOL0     H57398   5.890  10.935   9.003 -0.6336  1.1828  1.5710
  435MOL0     H57399   5.902  10.792   9.095 -3.0023  1.5575 -0.6256
  435MOL0     H57400   6.088  11.036   9.139  1.2908 -2.0541 -0.2953
  435MOL0     H57401   6.087  10.887   9.228 -0.7143 -0.2477 -0.2269
  435MOL0     H57402   6.103  10.143   8.561  1.0124  1.2497  0.1030
  435MOL0     H57403   5.977   9.952   8.462  3.9905 -0.8111  0.0432
  435MOL0     H57404   5.870   9.729   8.101  0.0071 -1.4055 -0.1863
  435MOL0     H57405   5.775   9.499   8.057  0.9497  0.8776 -1.4214
  435MOL0     H57406   6.274   7.790   7.826  1.3275  0.2776 -4.2501
  435MOL0     H57407   6.476   7.700   7.763 -3.2693 -0.1526  0.0332
  435MOL0     H57408   6.983   7.807   7.766  1.1563 -0.1743 -0.5374
  435MOL0     H57409   7.187   7.770   7.692  0.4999  0.5425 -0.8146
  435MOL0     H57410   7.449   7.651   7.447  0.9086 -0.3145  2.3940
  435MOL0     H57411   7.366   7.681   7.599  1.4213  0.0866  0.0624
  435MOL0     H57412   7.396   7.899   7.392 -1.1365 -0.6744 -0.3372
  435MOL0     H57413   7.363   7.917   7.560 -2.3447 -3.8541 -0.2394
  435MOL0     H57414   7.586   7.999   7.538  3.7013  0.2054  0.4331
  435MOL0     H57415   7.617   7.872   7.407  1.0113  0.0607  0.8458
  435MOL0     H57416   7.747   7.862   7.631 -0.1927  0.3182  1.0908
  435MOL0     H57417   7.580   7.802   7.698 -0.2082  0.1567 -0.8959
  435MOL0     H57418   7.767   7.502   7.467 -0.7354 -1.0787  0.2902
  435MOL0     H57419   7.043   7.716   7.288 -0.1839 -2.7128  0.1192
  435MOL0     H57420   6.814   7.774   7.364  0.7955  2.2061  0.3429
  436MOL0     O57421   7.136   4.222  10.931  0.1662  0.4569 -0.5277
  436MOL0     C57422   7.223   4.153  10.879 -0.7554 -0.1324 -0.0129
  436MOL0     O57423   7.219   4.081  10.768  0.6050  0.2781 -0.2068
  436MOL0     C57424   7.098   4.073  10.704 -0.0971  1.1931  0.9331
  436MOL0     C57425   7.071   4.145  10.588  0.6750  0.0722  0.1552
  436MOL0     C57426   6.944   4.140  10.537 -0.4251 -0.1744  0.4854
  436MOL0     C57427   6.842   4.063  10.593  0.5779  0.2681  0.4423
  436MOL0     O57428   6.729   4.064  10.530 -0.4793  0.4864  0.1226
  436MOL0     C57429   6.613   4.040  10.611  0.6321  0.7553  1.1367
  436MOL0     C57430   6.501   4.109  10.537  0.3221 -0.5265 -0.0118
  436MOL0     C57431   6.453   4.025  10.415  0.2717  0.4352  0.0228
  436MOL0     C57432   6.333   4.075  10.325  0.0548 -0.5104  0.0932
  436MOL0     C57433   6.215   4.127  10.411 -0.0386  0.4219 -0.6912
  436MOL0     C57434   6.099   4.171  10.323  0.3735 -1.0042 -0.4391
  436MOL0     C57435   5.965   4.175  10.398 -1.2891 -0.3493  0.3086
  436MOL0     C57436   5.845   4.170  10.304 -0.5639  0.0450 -0.6494
  436MOL0     N57437   5.718   4.163  10.373  0.8373 -0.1698 -0.7500
  436MOL0     C57438   5.668   4.067  10.466 -1.2163 -1.1460 -0.7925
  436MOL0     C57439   5.536   4.091  10.477  0.6370 -0.0222  0.1341
  436MOL0     C57440   5.446   4.000  10.560  0.3129  1.0700 -0.4354
  436MOL0     C57441   5.287   4.010  10.542 -0.2510 -0.4476  1.0100
  436MOL0     C57442   5.229   4.138  10.605  0.2833  0.3425  0.6521
  436MOL0     C57443   5.076   4.142  10.618  0.9842  0.0644 -0.1356
  436MOL0     O57444   5.049   4.022  10.693  0.1746 -0.2235 -0.7213
  436MOL0     C57445   4.928   3.991  10.737 -0.6514 -0.3118  0.0764
  436MOL0     C57446   4.921   3.874  10.813  0.8617  0.4838 -0.7106
  436MOL0     C57447   4.804   3.823  10.873  0.3587  0.4737  0.1799
  436MOL0     C57448   4.682   3.893  10.854 -1.8200  0.1638 -0.4989
  436MOL0     C57449   4.558   3.833  10.891  0.7719 -0.4626  0.8067
  436MOL0     O57450   4.448   3.904  10.848 -0.2601  0.7981  0.1202
  436MOL0     C57451   4.343   3.906  10.933 -0.8795  0.7764 -0.1985
  436MOL0     C57452   4.307   4.041  10.965 -0.4577  0.2496  0.0532
  436MOL0     C57453   4.191   4.065  11.039 -0.7954 -0.3384 -0.3297
  436MOL0     C57454   4.095   3.963  11.060  0.2139  0.3563 -0.3563
  436MOL0     O57455   3.974   3.980  11.118  0.1505  0.4642 -0.0751
  436MOL0     C57456   3.890   4.075  11.044 -0.5612 -0.1831 -0.1182
  436MOL0     C57457   3.796   4.154  11.146 -0.3187  0.9279  0.1978
  436MOL0     C57458   3.698   4.043  11.217  0.2383 -0.3152 -0.9555
  436MOL0     C57459   3.614   3.947  11.127  0.4347 -0.0773  0.7468
  436MOL0     C57460   3.505   3.883  11.207 -0.1285  0.6740  0.3511
  436MOL0     C57461   3.567   3.807  11.329  0.3051 -0.2652  0.2261
  436MOL0     C57462   3.672   3.698  11.292 -0.0054  0.4390  0.1905
  436MOL0     C57463   3.714   3.619  11.411 -0.5652  0.3881 -0.7526
  436MOL0    Cl57464   3.877   3.535  11.396 -0.6277 -0.1745  0.1279
  436MOL0     C57465   4.132   3.829  11.013  0.8615 -1.5311 -0.7461
  436MOL0     C57466   4.257   3.797  10.958 -0.2466  0.6068  0.6416
  436MOL0     O57467   4.558   3.712  10.915  0.6337  0.3909 -0.2591
  436MOL0     C57468   4.680   4.016  10.784 -0.4207 -0.3515  1.0912
  436MOL0     C57469   4.806   4.061  10.724  0.3497 -0.2241 -0.4115
  436MOL0     N57470   5.501   4.186  10.384 -1.1858  0.3057  0.4224
  436MOL0     N57471   5.606   4.229  10.330  0.6257  0.3155  0.3280
  436MOL0     C57472   6.871   3.983  10.704 -0.0639  0.1986  0.3688
  436MOL0     C57473   7.000   3.992  10.760  0.4911  0.0863  0.0382
  436MOL0     C57474   7.351   4.146  10.942  0.3404 -0.1793  0.2668
  436MOL0     C57475   7.455   4.076  10.886 -0.0709  0.5449 -0.2754
  436MOL0     C57476   7.581   4.084  10.943  0.4086 -0.0870 -0.0468
  436MOL0     C57477   7.612   4.140  11.067 -0.6592 -0.1617  0.7200
  436MOL0     O57478   7.736   4.134  11.133  0.2555 -0.6057  0.6131
  436MOL0     C57479   7.833   4.037  11.092  1.1076  0.3020  0.2869
  436MOL0     C57480   7.940   4.121  11.017  0.6004 -0.9083  0.0236
  436MOL0     C57481   8.077   4.054  11.007  0.8542  0.1550  0.0061
  436MOL0     C57482   8.163   4.136  10.912 -0.6924 -0.6371  0.0412
  436MOL0     C57483   8.291   4.075  10.875 -0.2208  0.6925 -0.0739
  436MOL0     C57484   8.404   4.028  10.856  0.5310 -0.5325 -0.2693
  436MOL0     C57485   7.506   4.218  11.119 -0.4774 -0.2226  0.0130
  436MOL0     C57486   7.380   4.215  11.060 -0.2916 -0.0100 -0.2560
  436MOL0     H57487   7.155   4.192  10.538  1.3866 -4.2298 -3.2785
  436MOL0     H57488   6.924   4.207  10.454  0.6947 -0.7805 -0.3071
  436MOL0     H57489   6.626   4.076  10.713  0.5244 -2.7583  2.5572
  436MOL0     H57490   6.585   3.934  10.605 -3.4405  1.4969  3.1459
  436MOL0     H57491   6.546   4.205  10.510  0.4188 -0.6649 -0.3491
  436MOL0     H57492   6.421   4.128  10.610  0.7402 -0.4048  0.4189
  436MOL0     H57493   6.434   3.925  10.456 -1.8310  0.4416 -0.8484
  436MOL0     H57494   6.542   4.026  10.350  0.5298 -1.9726  0.2539
  436MOL0     H57495   6.362   4.161  10.264 -0.8544 -1.4742 -1.7989
  436MOL0     H57496   6.304   3.988  10.264 -3.6020 -0.4875  1.5457
  436MOL0     H57497   6.252   4.213  10.467 -3.3244 -0.9161  4.2187
  436MOL0     H57498   6.175   4.054  10.482  0.2910 -1.9917 -2.8377
  436MOL0     H57499   6.082   4.109  10.235 -3.5075 -0.2006 -0.4114
  436MOL0     H57500   6.121   4.269  10.280 -2.2168 -0.3974 -0.5587
  436MOL0     H57501   5.949   4.094  10.470  1.4758 -0.9204  0.4122
  436MOL0     H57502   5.970   4.271  10.451  0.1454  1.4588 -2.8305
  436MOL0     H57503   5.855   4.085  10.236 -0.8545  1.6867 -2.8594
  436MOL0     H57504   5.847   4.253  10.232  3.7586 -0.8243 -1.8371
  436MOL0     H57505   5.722   3.987  10.514  0.7525  1.6265  2.0555
  436MOL0     H57506   5.469   4.013  10.666 -1.1066  0.2825 -0.0049
  436MOL0     H57507   5.475   3.896  10.543  1.0976  0.7441  2.3274
  436MOL0     H57508   5.242   3.924  10.593 -3.8543  1.2005  0.9431
  436MOL0     H57509   5.262   4.014  10.436 -2.8337  2.3490  1.5899
  436MOL0     H57510   5.260   4.123  10.709  0.4352  0.2895  0.5996
  436MOL0     H57511   5.268   4.226  10.554 -2.8849  0.8575 -1.1094
  436MOL0     H57512   5.040   4.134  10.515  2.0929  0.4957 -0.5701
  436MOL0     H57513   5.047   4.233  10.670 -3.0624 -0.8211 -0.5347
  436MOL0     H57514   5.012   3.818  10.829 -0.3915 -1.0793  1.4831
  436MOL0     H57515   4.797   3.729  10.928  3.3972  0.0860  0.0923
  436MOL0     H57516   4.373   4.122  10.935 -4.3326  3.3096 -1.1049
  436MOL0     H57517   4.179   4.164  11.080 -1.0904 -0.5132  0.0116
  436MOL0     H57518   3.825   4.014  10.980 -2.0073 -1.9758  2.8164
  436MOL0     H57519   3.951   4.140  10.981 -1.8971  0.0860 -1.1597
  436MOL0     H57520   3.742   4.232  11.091 -0.0890 -0.8721 -2.8504
  436MOL0     H57521   3.864   4.195  11.221 -0.3952 -1.8871  1.9512
  436MOL0     H57522   3.631   4.103  11.278  0.6282  2.9808 -3.4659
  436MOL0     H57523   3.765   3.985  11.281  3.0960 -0.0665 -3.4465
  436MOL0     H57524   3.570   4.001  11.043  1.3368 -1.3969 -0.6273
  436MOL0     H57525   3.685   3.881  11.075  1.4026  2.1729 -0.9504
  436MOL0     H57526   3.452   3.802  11.157 -0.5207 -0.4981  2.5551
  436MOL0     H57527   3.438   3.961  11.244  1.2592  1.3836  1.5041
  436MOL0     H57528   3.481   3.764  11.381  0.2965 -0.7870 -0.2070
  436MOL0     H57529   3.613   3.874  11.402  0.9628  0.6157 -0.9577
  436MOL0     H57530   3.634   3.623  11.221  2.3852 -2.6464  1.9145
  436MOL0     H57531   3.764   3.746  11.257  1.5343 -2.7070 -0.3982
  436MOL0     H57532   3.636   3.546  11.436 -2.2777  1.2052 -3.2934
  436MOL0     H57533   3.728   3.693  11.490  2.4199  1.3912 -2.0920
  436MOL0     H57534   4.050   3.759  11.013  0.3173 -0.9405 -2.2967
  436MOL0     H57535   4.280   3.696  10.925  2.9718  0.6903  2.2218
  436MOL0     H57536   4.592   4.078  10.771  0.9566  1.4608 -0.0483
  436MOL0     H57537   4.816   4.148  10.660  0.8351  1.8821  2.3889
  436MOL0     H57538   6.791   3.916  10.733 -0.2076  0.1854 -0.0546
  436MOL0     H57539   7.017   3.912  10.831 -0.6489 -1.0539 -0.9307
  436MOL0     H57540   7.449   4.023  10.791 -3.4858 -0.3158  0.2998
  436MOL0     H57541   7.664   4.048  10.883 -1.0199  0.0632 -2.1977
  436MOL0     H57542   7.795   3.960  11.024 -0.5989 -0.0430  1.5547
  436MOL0     H57543   7.886   3.999  11.180  3.3467 -1.2586 -1.6197
  436MOL0     H57544   7.912   4.133  10.912  0.5542  1.4378  0.2471
  436MOL0     H57545   7.944   4.219  11.066  0.8208 -1.1068  0.4139
  436MOL0     H57546   8.065   3.953  10.968  1.2154  0.3331 -0.5926
  436MOL0     H57547   8.134   4.046  11.099  1.7570 -3.6672 -0.7063
  436MOL0     H57548   8.103   4.169  10.826 -2.2808  0.1869  1.4017
  436MOL0     H57549   8.201   4.220  10.971 -0.6548 -0.3455 -0.3873
  436MOL0     H57550   8.506   3.999  10.845  0.0216 -2.0050 -1.3198
  436MOL0     H57551   7.522   4.283  11.205  2.1094  2.8074 -2.5112
  436MOL0     H57552   7.300   4.273  11.105  1.2720  0.8400  1.5748
  437MOL0     O57553   7.349   7.829   5.156 -0.1518 -0.4175 -0.8698
  437MOL0     C57554   7.285   7.923   5.117 -0.2908 -0.0815  0.1883
  437MOL0     O57555   7.239   7.937   4.986  0.0038 -0.1111 -0.2887
  437MOL0     C57556   7.264   7.839   4.895  0.0586  0.2365  0.3443
  437MOL0     C57557   7.214   7.709   4.911  0.3731 -0.1303  0.4883
  437MOL0     C57558   7.233   7.620   4.808 -0.5990  0.6240  0.6360
  437MOL0     C57559   7.300   7.657   4.694 -0.7020  0.0515  0.6261
  437MOL0     O57560   7.320   7.561   4.594 -0.2591 -0.1136 -0.0109
  437MOL0     C57561   7.196   7.525   4.523 -0.7434 -0.5498  0.1022
  437MOL0     C57562   7.161   7.642   4.420 -0.2171 -0.5458 -0.1934
  437MOL0     C57563   7.268   7.662   4.304 -0.1959  0.6009  0.2459
  437MOL0     C57564   7.239   7.755   4.183  0.0438  0.4633 -0.6837
  437MOL0     C57565   7.140   7.698   4.090  0.2855  0.2507 -0.1119
  437MOL0     C57566   7.113   7.772   3.955 -0.5913  0.7624 -0.5931
  437MOL0     C57567   7.014   7.720   3.860 -0.1057  0.3145  0.4296
  437MOL0     C57568   7.011   7.558   3.849 -0.3454 -0.9039  0.2636
  437MOL0     N57569   6.941   7.512   3.729  0.1466 -0.0408 -0.2548
  437MOL0     C57570   6.810   7.535   3.716  0.5598  0.8743  0.0827
  437MOL0     C57571   6.798   7.506   3.578 -0.2762  0.1901 -0.2857
  437MOL0     C57572   6.676   7.526   3.495  0.1539  0.2730 -0.2241
  437MOL0     C57573   6.691   7.649   3.405 -0.1815 -0.7595  0.4725
  437MOL0     C57574   6.590   7.644   3.289 -0.1375 -0.6355 -0.8181
  437MOL0     C57575   6.597   7.768   3.202  0.1367  0.9787  0.9097
  437MOL0     O57576   6.501   7.748   3.096  0.6163  0.4214 -0.1152
  437MOL0     C57577   6.371   7.797   3.105  0.7156 -0.0904 -0.5193
  437MOL0     C57578   6.272   7.762   3.008 -0.1003  0.3422  0.4829
  437MOL0     C57579   6.142   7.817   3.011 -0.6948 -0.6256 -0.2156
  437MOL0     C57580   6.098   7.910   3.117 -0.0521  0.1835 -0.7704
  437MOL0     C57581   5.961   7.946   3.128 -0.1804 -0.2996 -0.2444
  437MOL0     O57582   5.882   7.953   3.018  0.5691 -0.2490  0.2244
  437MOL0     C57583   5.750   7.968   3.022  0.4574  0.5404 -0.8019
  437MOL0     C57584   5.693   8.071   3.099  0.3569 -0.2680 -0.6831
  437MOL0     C57585   5.555   8.090   3.109 -0.1946 -0.1266  0.5357
  437MOL0     C57586   5.474   8.005   3.026  0.2600 -0.2980 -0.5126
  437MOL0     O57587   5.337   8.011   3.005  0.8970 -0.2215 -0.5925
  437MOL0     C57588   5.262   8.124   3.073  0.0291  0.1754 -1.0972
  437MOL0     C57589   5.115   8.099   3.073  0.2299 -0.3312 -0.0970
  437MOL0     C57590   5.054   8.092   2.933  0.1944 -0.4633 -0.0211
  437MOL0     C57591   4.901   8.086   2.937  0.3394 -0.1774 -1.1002
  437MOL0     C57592   4.833   8.196   3.011 -0.7746  0.5087  0.7006
  437MOL0     C57593   4.675   8.188   2.994  0.3646  0.6673  0.0928
  437MOL0     C57594   4.601   8.286   3.086 -0.1413 -0.2019 -0.1352
  437MOL0     C57595   4.571   8.424   3.011  0.2355  0.2181 -0.3598
  437MOL0    Cl57596   4.440   8.406   2.876 -0.1396 -0.1271 -0.5282
  437MOL0     C57597   5.530   7.908   2.942  0.5824  0.9196 -0.9366
  437MOL0     C57598   5.671   7.896   2.932  0.9398 -0.5907  0.0490
  437MOL0     O57599   5.917   7.955   3.243 -0.3861  0.3265 -0.3303
  437MOL0     C57600   6.203   7.955   3.199  0.2209  0.5696  0.0729
  437MOL0     C57601   6.331   7.899   3.192 -0.3518  0.7294 -0.1478
  437MOL0     N57602   6.918   7.449   3.526 -0.5997 -0.5853 -0.3412
  437MOL0     N57603   7.006   7.468   3.615  0.0982  0.0586 -0.0560
  437MOL0     C57604   7.357   7.787   4.675 -0.2548  1.2032 -0.6316
  437MOL0     C57605   7.332   7.876   4.781  0.0811  0.4660 -0.4359
  437MOL0     C57606   7.293   8.041   5.206 -0.5498 -0.4996 -0.8162
  437MOL0     C57607   7.372   8.041   5.331  0.1790  0.3287 -0.7847
  437MOL0     C57608   7.364   8.150   5.419  0.8706 -0.5081  0.5592
  437MOL0     C57609   7.295   8.263   5.383  0.4426 -0.2613  0.8371
  437MOL0     O57610   7.286   8.370   5.468 -0.2539  0.2036 -0.9067
  437MOL0     C57611   7.383   8.386   5.566  0.0173 -0.6695 -0.3815
  437MOL0     C57612   7.345   8.316   5.696 -0.0541  0.0680 -0.0075
  437MOL0     C57613   7.204   8.356   5.746 -0.4034  0.5449 -0.6561
  437MOL0     C57614   7.169   8.371   5.900  0.3096  0.5345  0.0708
  437MOL0     C57615   7.027   8.409   5.903 -0.0734  0.8029 -0.1956
  437MOL0     C57616   6.903   8.427   5.890  0.9650 -0.2480 -0.1213
  437MOL0     C57617   7.226   8.259   5.261 -0.3750 -0.4467  0.4134
  437MOL0     C57618   7.225   8.156   5.179 -0.2132 -0.5205 -0.8632
  437MOL0     H57619   7.175   7.656   4.997 -1.6713 -0.7516 -0.7710
  437MOL0     H57620   7.218   7.513   4.815 -0.3794  0.2244 -3.0865
  437MOL0     H57621   7.115   7.509   4.594 -0.8525 -3.3308 -0.5327
  437MOL0     H57622   7.202   7.433   4.463  0.9925  0.0549 -0.7286
  437MOL0     H57623   7.143   7.733   4.478  0.2264 -0.3365 -0.3756
  437MOL0     H57624   7.067   7.631   4.365  1.7347  2.2785 -4.6816
  437MOL0     H57625   7.281   7.565   4.253 -1.2260  1.1664 -1.1716
  437MOL0     H57626   7.365   7.687   4.347  0.3117 -0.9932  0.1079
  437MOL0     H57627   7.201   7.853   4.214 -1.7824 -0.1574 -0.8698
  437MOL0     H57628   7.333   7.767   4.129 -1.6125  1.8841 -3.4221
  437MOL0     H57629   7.048   7.702   4.149  0.5797  0.8291  0.3119
  437MOL0     H57630   7.151   7.589   4.083 -2.9194 -0.3882  2.1804
  437MOL0     H57631   7.201   7.765   3.889 -1.1986  2.9763 -1.7518
  437MOL0     H57632   7.090   7.878   3.969 -0.0505  0.8948 -0.6758
  437MOL0     H57633   6.916   7.740   3.904 -0.1844  0.0625  0.3698
  437MOL0     H57634   7.019   7.770   3.762  1.5593 -3.6858 -1.7447
  437MOL0     H57635   6.957   7.523   3.938 -0.2543  0.5329  0.9120
  437MOL0     H57636   7.113   7.518   3.849  0.0419  0.0543  0.2699
  437MOL0     H57637   6.725   7.562   3.778 -2.2006 -0.5911 -2.7367
  437MOL0     H57638   6.595   7.547   3.565  0.3450  0.2347  0.0114
  437MOL0     H57639   6.655   7.434   3.439  2.6855 -0.5969  0.1075
  437MOL0     H57640   6.795   7.652   3.369  0.5526 -0.8989  2.4703
  437MOL0     H57641   6.673   7.744   3.457  1.3697 -0.0775 -0.1692
  437MOL0     H57642   6.628   7.564   3.224  0.8169  2.7960 -4.9608
  437MOL0     H57643   6.486   7.631   3.320  0.5428 -1.3092  1.3505
  437MOL0     H57644   6.698   7.768   3.158 -1.2952 -0.8939 -2.7876
  437MOL0     H57645   6.587   7.856   3.267 -1.1195  0.8338  0.9216
  437MOL0     H57646   6.294   7.689   2.931  2.2674  2.7779 -1.3756
  437MOL0     H57647   6.059   7.791   2.947  1.0317 -2.6402 -1.8190
  437MOL0     H57648   5.758   8.139   3.153  1.4974 -1.8002 -0.0485
  437MOL0     H57649   5.507   8.171   3.164  0.9275  2.5696 -2.1297
  437MOL0     H57650   5.272   8.225   3.033  1.0985 -0.6111 -2.9429
  437MOL0     H57651   5.299   8.116   3.176 -0.9012 -0.4104 -0.7888
  437MOL0     H57652   5.076   8.185   3.129  0.4899 -0.9173  1.0037
  437MOL0     H57653   5.095   8.002   3.120  0.2880  0.2598  1.1855
  437MOL0     H57654   5.103   8.013   2.875  1.6063  1.0672 -1.0161
  437MOL0     H57655   5.080   8.182   2.875  3.3376 -1.2902 -0.1070
  437MOL0     H57656   4.862   8.080   2.835  1.6473  0.4712 -1.6537
  437MOL0     H57657   4.866   7.995   2.989  2.7759 -0.5919 -0.0009
  437MOL0     H57658   4.880   8.293   2.989  2.7436 -0.4664  3.1286
  437MOL0     H57659   4.856   8.186   3.117  0.6135  3.0739  0.7108
  437MOL0     H57660   4.649   8.087   3.028  1.9407  0.9265  2.2846
  437MOL0     H57661   4.641   8.184   2.890  2.2265  0.9564 -0.5574
  437MOL0     H57662   4.497   8.259   3.103  0.2238 -0.8527  1.1662
  437MOL0     H57663   4.653   8.298   3.182  0.8257  1.0239 -0.7747
  437MOL0     H57664   4.664   8.452   2.960  1.7666  1.5897  2.8937
  437MOL0     H57665   4.530   8.496   3.082 -1.2387 -0.2217 -0.7123
  437MOL0     H57666   5.456   7.853   2.883 -0.5657  2.2596 -0.7907
  437MOL0     H57667   5.726   7.831   2.865  3.9588 -0.1475  1.9432
  437MOL0     H57668   6.195   8.020   3.286  3.8772 -1.0966  1.8784
  437MOL0     H57669   6.409   7.934   3.259  1.4274 -1.1138 -1.1611
  437MOL0     H57670   7.416   7.807   4.586  0.7977 -0.9415 -0.4826
  437MOL0     H57671   7.376   7.975   4.774  0.0455  0.3840 -3.9067
  437MOL0     H57672   7.410   7.944   5.362  0.3521  0.3438 -0.9463
  437MOL0     H57673   7.404   8.136   5.519  0.2610 -0.7379  0.7739
  437MOL0     H57674   7.382   8.494   5.586 -3.4027 -1.2704  4.4679
  437MOL0     H57675   7.481   8.351   5.532  0.2418 -0.3441 -0.0780
  437MOL0     H57676   7.344   8.207   5.692 -0.2187  0.0160  1.0916
  437MOL0     H57677   7.427   8.338   5.765  0.2064 -4.4075  1.4258
  437MOL0     H57678   7.134   8.292   5.692 -0.2447 -0.4207  0.2528
  437MOL0     H57679   7.169   8.442   5.688 -0.5202  0.9738  0.0287
  437MOL0     H57680   7.183   8.278   5.956 -1.7645 -0.1598 -0.4922
  437MOL0     H57681   7.224   8.455   5.945  0.4550  0.2501  0.4234
  437MOL0     H57682   6.803   8.453   5.863  1.8755 -0.2689 -4.1454
  437MOL0     H57683   7.158   8.344   5.256  0.9833  0.7461  1.2811
  437MOL0     H57684   7.171   8.164   5.085  0.2190  1.5739 -0.9889
  438MOL0     O57685   7.615   8.991   5.301 -0.0158 -0.4412  0.2637
  438MOL0     C57686   7.547   8.886   5.316  0.2859 -0.0362  0.7490
  438MOL0     O57687   7.454   8.863   5.418 -0.3319 -0.3245  0.9773
  438MOL0     C57688   7.456   8.938   5.530 -0.7005  0.6469  0.2193
  438MOL0     C57689   7.442   9.080   5.520  0.3581 -0.0289 -0.8884
  438MOL0     C57690   7.439   9.158   5.639  0.5591  0.0580 -0.2598
  438MOL0     C57691   7.430   9.095   5.769  0.0277 -0.5630 -0.8604
  438MOL0     O57692   7.430   9.162   5.892  0.0642 -0.7257  0.0915
  438MOL0     C57693   7.377   9.289   5.882  0.6821  0.8006  0.2049
  438MOL0     C57694   7.387   9.352   6.024 -0.3655  0.0239 -0.5963
  438MOL0     C57695   7.297   9.478   6.046  0.9778  0.3130  0.2508
  438MOL0     C57696   7.324   9.560   6.180  1.3402  0.3598  0.1852
  438MOL0     C57697   7.475   9.595   6.190 -0.4118 -1.0742  0.4447
  438MOL0     C57698   7.525   9.668   6.062  0.1798  0.1109  0.0706
  438MOL0     C57699   7.667   9.733   6.086  0.6507 -0.0309 -0.4797
  438MOL0     C57700   7.733   9.763   5.957 -0.1730 -0.8928 -0.4392
  438MOL0     N57701   7.671   9.868   5.874 -0.4319  0.2884  0.3825
  438MOL0     C57702   7.554   9.866   5.805  1.0041  0.3128 -0.0259
  438MOL0     C57703   7.552   9.980   5.742 -0.7853 -0.2822  0.6159
  438MOL0     C57704   7.438  10.040   5.652 -0.5855 -0.7017 -0.2756
  438MOL0     C57705   7.373   9.938   5.565 -0.8419 -1.2199  0.9063
  438MOL0     C57706   7.303   9.989   5.445  0.1144  0.6764  0.9071
  438MOL0     C57707   7.207  10.102   5.484  0.1612 -1.0122  0.1601
  438MOL0     O57708   7.155  10.131   5.353  0.2675  0.4546  1.1384
  438MOL0     C57709   7.026  10.184   5.348 -0.6537 -0.1825 -0.8315
  438MOL0     C57710   6.974  10.265   5.456  0.7813  0.0051  1.1133
  438MOL0     C57711   6.843  10.318   5.444  0.5495  0.7981  0.6835
  438MOL0     C57712   6.773  10.305   5.320  1.1484 -0.0306 -0.0450
  438MOL0     C57713   6.639  10.370   5.288  0.3933 -0.1987 -0.3497
  438MOL0     O57714   6.587  10.423   5.392 -0.4082 -0.9963  0.3113
  438MOL0     C57715   6.470  10.492   5.377 -0.3141 -0.2617  1.1582
  438MOL0     C57716   6.356  10.455   5.450 -0.1683 -0.0676  0.4168
  438MOL0     C57717   6.230  10.505   5.426  0.2247 -0.6573  0.3537
  438MOL0     C57718   6.212  10.607   5.325 -0.4409  0.6630  0.5339
  438MOL0     O57719   6.093  10.667   5.294  0.9151  0.7931  0.1666
  438MOL0     C57720   5.978  10.647   5.383  0.3897 -0.0870  0.6642
  438MOL0     C57721   5.863  10.740   5.345 -1.0503  0.0904 -0.3773
  438MOL0     C57722   5.825  10.736   5.193 -0.5697 -0.4439 -0.2825
  438MOL0     C57723   5.718  10.841   5.159  0.3514  0.5759 -0.2129
  438MOL0     C57724   5.673  10.825   5.012  0.7688  0.2085  0.2156
  438MOL0     C57725   5.761  10.892   4.911  0.5132  0.0514  0.0134
  438MOL0     C57726   5.675  10.927   4.791 -0.8225  0.6139 -0.5778
  438MOL0     C57727   5.631  10.811   4.705  0.5775  0.2124  0.4406
  438MOL0    Cl57728   5.746  10.688   4.679  0.2126 -0.0925  0.1339
  438MOL0     C57729   6.330  10.663   5.263 -0.2627  1.1099  0.4616
  438MOL0     C57730   6.459  10.600   5.285 -0.2836  0.0771  0.4992
  438MOL0     O57731   6.596  10.360   5.177  0.2266  0.0902 -0.1294
  438MOL0     C57732   6.823  10.219   5.219 -0.1780  0.0704  0.0363
  438MOL0     C57733   6.952  10.161   5.236  0.0113  0.6918  0.0805
  438MOL0     N57734   7.656  10.060   5.775  0.2771  0.1629 -0.1039
  438MOL0     N57735   7.728   9.991   5.860 -0.1875 -0.0407 -0.1603
  438MOL0     C57736   7.432   8.953   5.777  0.2013 -0.1705  0.0014
  438MOL0     C57737   7.452   8.876   5.662  0.8194  0.6605  0.6414
  438MOL0     C57738   7.547   8.775   5.209 -0.2622 -0.7610 -0.8117
  438MOL0     C57739   7.606   8.802   5.090  0.0533  0.7561 -0.6995
  438MOL0     C57740   7.585   8.714   4.983 -0.0188  0.1428  0.3531
  438MOL0     C57741   7.511   8.595   4.997 -0.3418  0.3248 -0.0996
  438MOL0     O57742   7.515   8.501   4.894  0.0270 -0.1632 -0.7892
  438MOL0     C57743   7.383   8.434   4.869 -0.8232 -0.4613  0.0070
  438MOL0     C57744   7.300   8.530   4.791 -0.7496 -0.6847 -0.3440
  438MOL0     C57745   7.154   8.490   4.791  0.0307  0.6916  0.2682
  438MOL0     C57746   7.112   8.403   4.683  0.5650  1.4009 -0.3081
  438MOL0     C57747   7.182   8.270   4.665 -0.5990  0.4023 -0.1909
  438MOL0     C57748   7.231   8.163   4.647  0.1136  0.3003  1.0748
  438MOL0     C57749   7.449   8.576   5.122 -0.8590  0.3794 -0.1101
  438MOL0     C57750   7.471   8.662   5.230 -0.1060 -0.2037  0.4228
  438MOL0     H57751   7.438   9.140   5.429 -0.1277 -0.0733 -0.8965
  438MOL0     H57752   7.437   9.266   5.628  1.2892 -0.1342 -3.5278
  438MOL0     H57753   7.273   9.283   5.850  0.1153  0.5376  1.9474
  438MOL0     H57754   7.435   9.354   5.816 -1.3892  1.5609 -0.9516
  438MOL0     H57755   7.494   9.376   6.034 -0.6041  1.8251 -1.8629
  438MOL0     H57756   7.363   9.280   6.103 -1.7204  1.2795  0.1971
  438MOL0     H57757   7.196   9.442   6.025  1.5163 -1.2069  0.1436
  438MOL0     H57758   7.303   9.549   5.964 -1.6807 -1.3990 -1.5878
  438MOL0     H57759   7.261   9.649   6.193 -0.0262 -0.7256  1.3493
  438MOL0     H57760   7.298   9.505   6.270 -0.6760  4.3626  2.3337
  438MOL0     H57761   7.535   9.505   6.209 -0.2244 -0.7663  1.3724
  438MOL0     H57762   7.494   9.655   6.280  0.7971 -0.7405 -0.0205
  438MOL0     H57763   7.451   9.749   6.060  1.7744  1.6336 -1.8768
  438MOL0     H57764   7.508   9.631   5.960 -2.6254  0.3090  0.3817
  438MOL0     H57765   7.662   9.817   6.156 -1.3237 -0.5010  0.0028
  438MOL0     H57766   7.735   9.658   6.129  0.7406  0.4374  0.2190
  438MOL0     H57767   7.726   9.671   5.896 -0.7265 -0.3374 -1.2366
  438MOL0     H57768   7.841   9.777   5.965 -0.5802  1.4065  2.7879
  438MOL0     H57769   7.471   9.796   5.806  1.7466 -0.5802  0.8501
  438MOL0     H57770   7.483  10.110   5.581  1.3161 -0.4073  1.1375
  438MOL0     H57771   7.363  10.100   5.702  0.1354 -0.9437  1.1497
  438MOL0     H57772   7.304   9.881   5.629 -2.4852 -0.9877 -0.5851
  438MOL0     H57773   7.447   9.865   5.534  1.1561  1.2996 -0.6366
  438MOL0     H57774   7.373  10.027   5.369  0.5848 -0.1255  0.9291
  438MOL0     H57775   7.241   9.905   5.415 -0.1232  1.3788 -0.6876
  438MOL0     H57776   7.259  10.193   5.515 -0.5533 -0.3516 -0.5484
  438MOL0     H57777   7.128  10.077   5.556  0.0351 -1.0112  0.0223
  438MOL0     H57778   7.032  10.283   5.546 -2.0564  0.0119  3.0930
  438MOL0     H57779   6.792  10.370   5.525 -4.7646  0.1444 -1.8147
  438MOL0     H57780   6.383  10.378   5.520 -2.3964  0.7585  2.3146
  438MOL0     H57781   6.148  10.473   5.489  0.1013 -0.9507  0.0498
  438MOL0     H57782   6.013  10.687   5.478 -0.2656 -1.4955  1.5245
  438MOL0     H57783   5.947  10.542   5.387  0.0646 -0.1237 -1.5912
  438MOL0     H57784   5.893  10.843   5.368 -0.6737 -0.7030  3.3040
  438MOL0     H57785   5.785  10.697   5.409  2.2479 -2.8998  1.9773
  438MOL0     H57786   5.783  10.637   5.176  0.0641 -0.1959 -4.2421
  438MOL0     H57787   5.914  10.743   5.130 -1.2615  2.3207 -1.0888
  438MOL0     H57788   5.636  10.802   5.220  0.4429  2.6836  1.3250
  438MOL0     H57789   5.745  10.943   5.185 -1.4396  1.3176 -1.1040
  438MOL0     H57790   5.574  10.869   5.024  1.7984  2.1140  2.6069
  438MOL0     H57791   5.666  10.718   4.987  1.4583  0.2555 -0.2120
  438MOL0     H57792   5.844  10.821   4.900  0.3889 -0.9594  3.8976
  438MOL0     H57793   5.798  10.982   4.960 -0.7604 -0.8155  2.7855
  438MOL0     H57794   5.590  10.992   4.814 -0.9098 -0.1291  1.4159
  438MOL0     H57795   5.740  10.992   4.732  0.6556  3.2990  3.5681
  438MOL0     H57796   5.599  10.845   4.606  0.8274 -1.0127 -0.0803
  438MOL0     H57797   5.542  10.767   4.752  2.1148 -0.3292  3.0449
  438MOL0     H57798   6.320  10.742   5.189  3.7796  3.2631  1.8737
  438MOL0     H57799   6.546  10.639   5.234 -1.0560  1.7281  0.3801
  438MOL0     H57800   6.776  10.212   5.122  0.2752 -3.6882 -0.0335
  438MOL0     H57801   6.989  10.098   5.156 -0.5609  1.9926 -1.2539
  438MOL0     H57802   7.421   8.898   5.869  0.2852  0.9627  0.7022
  438MOL0     H57803   7.435   8.769   5.672  0.2179  0.7099  0.2107
  438MOL0     H57804   7.667   8.892   5.081 -0.1216  1.0543  0.8699
  438MOL0     H57805   7.630   8.731   4.885 -0.1910  0.8972  0.3927
  438MOL0     H57806   7.336   8.410   4.964 -1.1674  0.0696 -0.0238
  438MOL0     H57807   7.407   8.339   4.821  1.7284 -0.2162  0.6400
  438MOL0     H57808   7.301   8.627   4.843 -2.3447 -0.5740 -0.4862
  438MOL0     H57809   7.332   8.533   4.687 -0.0477 -0.9500 -0.1431
  438MOL0     H57810   7.087   8.574   4.808  0.0884  0.6846  0.5330
  438MOL0     H57811   7.147   8.427   4.881 -0.2644  1.1100  0.5398
  438MOL0     H57812   7.005   8.385   4.689  0.9807 -1.7932 -0.7875
  438MOL0     H57813   7.127   8.461   4.592 -3.4007  3.3586  0.0814
  438MOL0     H57814   7.267   8.063   4.630  1.1017  1.0366 -1.6248
  438MOL0     H57815   7.391   8.485   5.130  2.7071 -2.5558 -3.4780
  438MOL0     H57816   7.415   8.652   5.323 -0.0818 -2.6369  0.2383
  439MOL0     O57817   3.429   7.250   6.579  0.6940 -0.1667 -0.1536
  439MOL0     C57818   3.380   7.178   6.664  0.5200 -0.1662 -0.1049
  439MOL0     O57819   3.430   7.052   6.699  0.3830  0.0440 -0.3318
  439MOL0     C57820   3.537   6.996   6.628  0.1290  0.1021 -0.7807
  439MOL0     C57821   3.547   6.992   6.494 -0.6177 -0.7220 -0.0721
  439MOL0     C57822   3.639   6.919   6.421 -0.5157  0.6709 -0.1768
  439MOL0     C57823   3.737   6.840   6.484  0.1238  0.0755  0.5653
  439MOL0     O57824   3.820   6.749   6.426 -0.3829  0.7456 -0.1443
  439MOL0     C57825   3.851   6.790   6.288  0.0897  0.5604  0.1997
  439MOL0     C57826   3.983   6.745   6.237 -0.1448 -0.0300 -0.0159
  439MOL0     C57827   3.976   6.633   6.127  0.2216 -1.2028 -0.0910
  439MOL0     C57828   3.947   6.680   5.983 -0.4762  0.0116  0.8550
  439MOL0     C57829   3.801   6.653   5.961  0.4921 -0.3421 -0.5942
  439MOL0     C57830   3.764   6.650   5.814  0.4527 -0.5241 -0.1696
  439MOL0     C57831   3.626   6.609   5.790  0.1054  1.1510  0.8281
  439MOL0     C57832   3.522   6.713   5.843 -0.1301  0.1626 -0.4070
  439MOL0     N57833   3.383   6.702   5.786 -0.2221  0.0542 -0.5962
  439MOL0     C57834   3.351   6.721   5.657  0.5223  0.1527 -0.3404
  439MOL0     C57835   3.215   6.704   5.655 -0.1271 -0.4022  0.4512
  439MOL0     C57836   3.131   6.723   5.536 -0.5643  0.0824 -0.6529
  439MOL0     C57837   3.115   6.586   5.461  0.1890 -0.0712 -0.1110
  439MOL0     C57838   3.010   6.608   5.341 -0.3633 -0.7692  1.0343
  439MOL0     C57839   2.863   6.626   5.381  0.2227 -0.1019  0.2862
  439MOL0     O57840   2.785   6.650   5.259 -0.9813  1.1663  0.2360
  439MOL0     C57841   2.648   6.650   5.269  0.6870  0.8604  0.2820
  439MOL0     C57842   2.577   6.691   5.385 -0.4459  0.2087 -0.5360
  439MOL0     C57843   2.443   6.694   5.397  1.3919 -0.5060 -0.3131
  439MOL0     C57844   2.363   6.654   5.289  0.5565  1.0944 -0.0108
  439MOL0     C57845   2.218   6.630   5.300 -0.1612  0.0728  1.3498
  439MOL0     O57846   2.153   6.684   5.393 -0.1188 -0.0679  0.2992
  439MOL0     C57847   2.017   6.683   5.399 -0.5348 -0.8705  0.1602
  439MOL0     C57848   1.931   6.576   5.383 -0.0885  0.6812  0.9357
  439MOL0     C57849   1.796   6.598   5.388 -0.8200 -0.1560  0.1901
  439MOL0     C57850   1.745   6.727   5.401  0.4046 -0.9042  0.1583
  439MOL0     O57851   1.606   6.743   5.395 -0.1285  0.4450 -0.0790
  439MOL0     C57852   1.553   6.851   5.465  0.1913  0.9191  0.7430
  439MOL0     C57853   1.406   6.832   5.488  0.4900  0.0269  0.1357
  439MOL0     C57854   1.335   6.917   5.596  0.3611  0.1351 -0.9303
  439MOL0     C57855   1.417   6.934   5.732  0.5693  0.1102  1.1132
  439MOL0     C57856   1.338   7.001   5.854 -0.9673  1.1783 -0.3837
  439MOL0     C57857   1.195   6.968   5.870  0.3511 -0.2417  0.0498
  439MOL0     C57858   1.137   7.010   6.007  0.1076  0.7532 -0.4563
  439MOL0     C57859   1.093   7.151   6.011 -0.1843 -0.7876  0.4680
  439MOL0    Cl57860   0.936   7.173   5.927 -0.6343  0.0452 -0.1479
  439MOL0     C57861   1.832   6.836   5.411 -0.4520  0.1927  0.1975
  439MOL0     C57862   1.971   6.811   5.428 -0.1070 -0.3718 -0.2394
  439MOL0     O57863   2.164   6.564   5.205  0.1471 -0.1533 -0.2608
  439MOL0     C57864   2.435   6.619   5.170  0.9495  0.5499  0.4489
  439MOL0     C57865   2.572   6.614   5.163  0.6575 -0.0815 -0.0229
  439MOL0     N57866   3.174   6.656   5.778  0.0371  1.5765  0.5011
  439MOL0     N57867   3.275   6.654   5.849  0.1505  0.0906 -0.1503
  439MOL0     C57868   3.740   6.853   6.630 -0.2899  0.0430 -0.0936
  439MOL0     C57869   3.638   6.925   6.698 -1.0552 -0.2576  0.3470
  439MOL0     C57870   3.249   7.205   6.731 -0.0877  0.5778  0.9430
  439MOL0     C57871   3.189   7.333   6.709  0.1756 -0.1674 -0.7838
  439MOL0     C57872   3.073   7.360   6.782  0.5158  0.7717  0.6574
  439MOL0     C57873   3.008   7.270   6.869 -0.4694  0.0879  0.1952
  439MOL0     O57874   2.893   7.311   6.932  0.1181 -0.2353  0.3852
  439MOL0     C57875   2.846   7.235   7.043  0.0630 -0.5350  0.6524
  439MOL0     C57876   2.733   7.149   6.993 -0.5839 -0.0604  0.3323
  439MOL0     C57877   2.645   7.082   7.094  0.4835  0.0669  0.7865
  439MOL0     C57878   2.551   7.171   7.178 -0.4609 -0.9372  0.9679
  439MOL0     C57879   2.616   7.214   7.299  0.6340  0.9412 -0.1945
  439MOL0     C57880   2.687   7.261   7.389  0.1143  0.2283 -0.6351
  439MOL0     C57881   3.060   7.147   6.880 -0.2711 -0.1427 -0.7855
  439MOL0     C57882   3.186   7.112   6.820  0.4630 -0.1538 -0.2241
  439MOL0     H57883   3.478   7.055   6.440  1.4026  1.3549 -0.4222
  439MOL0     H57884   3.631   6.928   6.313  0.7662  0.6658 -0.2886
  439MOL0     H57885   3.859   6.898   6.273  1.1463  0.2918 -1.3536
  439MOL0     H57886   3.774   6.740   6.229  2.8622 -2.0050 -1.5306
  439MOL0     H57887   4.047   6.701   6.313  1.8014 -0.0273 -1.5809
  439MOL0     H57888   4.039   6.827   6.191  0.1131 -1.8764 -3.3296
  439MOL0     H57889   3.914   6.552   6.166  1.3031 -1.3092  1.4736
  439MOL0     H57890   4.076   6.590   6.128  1.5512  1.5547 -2.3231
  439MOL0     H57891   3.973   6.785   5.966 -1.9710  0.6434  2.1882
  439MOL0     H57892   4.005   6.620   5.912  0.1029 -2.0835  2.9383
  439MOL0     H57893   3.757   6.743   6.005  1.8436  1.1804 -2.1853
  439MOL0     H57894   3.760   6.566   6.013  0.4458  0.8323  1.4790
  439MOL0     H57895   3.828   6.571   5.772 -0.8884 -1.0945 -1.2068
  439MOL0     H57896   3.789   6.743   5.762 -1.7367 -1.3466 -2.9152
  439MOL0     H57897   3.606   6.596   5.684  0.8968  4.7990  0.0754
  439MOL0     H57898   3.610   6.516   5.845  1.4666 -0.5629 -1.5166
  439MOL0     H57899   3.555   6.813   5.814  2.1645 -0.0184  1.3470
  439MOL0     H57900   3.520   6.712   5.953  1.1763  2.6118 -0.2938
  439MOL0     H57901   3.403   6.762   5.570  2.0919  1.4075  1.1171
  439MOL0     H57902   3.194   6.793   5.481  0.5979 -0.0549  0.4725
  439MOL0     H57903   3.034   6.759   5.571 -2.4415 -5.9115  1.5241
  439MOL0     H57904   3.069   6.513   5.529 -2.1811  0.3954 -1.1121
  439MOL0     H57905   3.211   6.542   5.432 -0.1015 -1.7521  1.2853
  439MOL0     H57906   3.041   6.698   5.288  1.6813 -0.9786  1.7960
  439MOL0     H57907   3.010   6.520   5.275  0.1337 -0.7334  0.9867
  439MOL0     H57908   2.848   6.707   5.453  0.0918 -0.1644  0.3289
  439MOL0     H57909   2.840   6.528   5.422 -0.0479 -0.7459 -1.3134
  439MOL0     H57910   2.633   6.732   5.468 -1.0477 -1.1100  0.5423
  439MOL0     H57911   2.391   6.719   5.489  3.4784 -2.7126  1.5979
  439MOL0     H57912   1.978   6.480   5.366 -1.1134  0.4176 -0.6348
  439MOL0     H57913   1.731   6.512   5.384 -1.1666  0.1382 -2.4736
  439MOL0     H57914   1.577   6.943   5.412  0.5965 -0.3232 -1.3459
  439MOL0     H57915   1.607   6.844   5.560  2.6728  0.7043 -0.6069
  439MOL0     H57916   1.386   6.732   5.528  2.5462 -0.0682  1.0470
  439MOL0     H57917   1.364   6.846   5.388 -0.9703  0.2149  0.7401
  439MOL0     H57918   1.237   6.873   5.619  1.3132 -0.5670  2.2308
  439MOL0     H57919   1.324   7.020   5.559  1.6794  1.2086  1.4692
  439MOL0     H57920   1.445   6.833   5.765  2.7585  0.5095  0.6088
  439MOL0     H57921   1.503   6.994   5.705  0.2296 -0.3890 -1.2837
  439MOL0     H57922   1.353   7.110   5.855  1.2794  0.9149  0.7877
  439MOL0     H57923   1.383   6.962   5.945  0.0888  0.7048 -1.0924
  439MOL0     H57924   1.187   6.859   5.862  0.7622 -0.5031  2.4914
  439MOL0     H57925   1.154   7.027   5.787  0.8692 -1.1663 -0.8795
  439MOL0     H57926   1.053   6.944   6.032 -0.4519  1.8774  0.7914
  439MOL0     H57927   1.216   7.001   6.083 -0.2885 -0.3389 -0.1505
  439MOL0     H57928   1.175   7.210   5.969 -0.4048 -1.8195 -1.5281
  439MOL0     H57929   1.079   7.183   6.115  0.4886  0.1474  0.2813
  439MOL0     H57930   1.796   6.939   5.413 -2.6480 -0.5225  1.4951
  439MOL0     H57931   2.021   6.899   5.468  0.3731 -0.9839  0.5265
  439MOL0     H57932   2.393   6.609   5.070  1.8810  3.6814 -0.3524
  439MOL0     H57933   2.609   6.595   5.063  4.2285 -0.8360  1.2767
  439MOL0     H57934   3.792   6.796   6.707 -0.9726 -1.8871 -1.0038
  439MOL0     H57935   3.649   6.954   6.802 -0.2277  0.5065  0.0563
  439MOL0     H57936   3.238   7.411   6.652 -1.9518  0.7992 -1.3917
  439MOL0     H57937   3.033   7.461   6.778  0.4336  0.7420  0.7536
  439MOL0     H57938   2.805   7.310   7.111  0.6595  0.5322 -0.1316
  439MOL0     H57939   2.911   7.178   7.110 -0.7154  0.9864  2.7949
  439MOL0     H57940   2.667   7.213   6.933 -1.7170 -1.3268  0.1742
  439MOL0     H57941   2.784   7.087   6.917  0.7977 -0.0145  1.1853
  439MOL0     H57942   2.698   7.019   7.166 -1.6697 -0.9328  1.5526
  439MOL0     H57943   2.584   7.018   7.030  0.0823 -0.2187  1.4473
  439MOL0     H57944   2.529   7.260   7.119  0.8503 -1.2011  0.0393
  439MOL0     H57945   2.460   7.114   7.200 -0.5887 -2.1372 -2.1820
  439MOL0     H57946   2.740   7.293   7.476  0.0397 -3.3305  0.8577
  439MOL0     H57947   3.010   7.073   6.941  3.2697  1.3601  4.7581
  439MOL0     H57948   3.212   7.007   6.820  0.8021 -0.1051 -2.2364
  440MOL0     O57949   1.661   8.584   4.070  0.2256  0.6837  0.1629
  440MOL0     C57950   1.637   8.544   3.961  0.1239  1.2910  0.2896
  440MOL0     O57951   1.527   8.580   3.886 -0.4540 -0.1677 -0.3847
  440MOL0     C57952   1.439   8.678   3.930  0.3604  0.1909 -1.1748
  440MOL0     C57953   1.395   8.767   3.838  0.5071 -0.8974  0.1790
  440MOL0     C57954   1.296   8.866   3.860 -0.3031 -1.0941  0.4906
  440MOL0     C57955   1.254   8.882   3.996 -0.1234  0.6094 -0.4253
  440MOL0     O57956   1.164   8.988   4.026 -0.5903  0.2624  0.0695
  440MOL0     C57957   1.032   8.976   4.097 -0.2633  0.4031 -0.0956
  440MOL0     C57958   0.914   8.968   4.011  0.5456 -1.1806  0.6414
  440MOL0     C57959   0.784   9.003   4.085  1.0548  0.6595 -0.6735
  440MOL0     C57960   0.655   8.954   4.016 -0.4321  1.5925 -0.6026
  440MOL0     C57961   0.530   8.976   4.108  0.7859 -0.3879  0.0387
  440MOL0     C57962   0.411   8.972   4.011 -0.0334  0.3232  0.1947
  440MOL0     C57963   0.391   8.850   3.924  0.6385 -0.5580 -0.3676
  440MOL0     C57964   0.254   8.843   3.859 -0.0865 -0.3967  0.1357
  440MOL0     N57965   0.155   8.806   3.956  0.3643  0.5851  0.8626
  440MOL0     C57966   0.129   8.676   3.986 -0.2113  1.4986  0.1383
  440MOL0     C57967   0.035   8.687   4.084 -0.3526  0.4087  0.4010
  440MOL0     C57968  -0.054   8.579   4.144 -0.4666  0.3616  0.5501
  440MOL0     C57969  -0.163   8.530   4.055 -0.3706 -0.3936 -0.0301
  440MOL0     C57970  -0.287   8.496   4.134  0.5803  0.0313 -0.2561
  440MOL0     C57971  -0.414   8.467   4.052 -0.7244 -0.6759  0.0266
  440MOL0     O57972  -0.401   8.344   3.973 -0.2689  0.2534  1.2192
  440MOL0     C57973  -0.508   8.305   3.903  1.8390  0.8287 -0.0837
  440MOL0     C57974  -0.631   8.280   3.959  0.0030  0.2274 -0.3306
  440MOL0     C57975  -0.753   8.269   3.882  0.6419 -1.1756 -0.3194
  440MOL0     C57976  -0.751   8.273   3.742 -0.8901 -1.0905  0.0338
  440MOL0     C57977  -0.870   8.255   3.671  1.2074  0.6628 -0.3614
  440MOL0     O57978  -0.870   8.310   3.548  0.2579 -0.3026 -0.2145
  440MOL0     C57979  -0.971   8.283   3.464  0.1674  0.1939 -0.5938
  440MOL0     C57980  -0.964   8.170   3.380  0.1114  0.5495  0.0204
  440MOL0     C57981  -1.073   8.137   3.299  0.5115  0.2375  0.8116
  440MOL0     C57982  -1.182   8.228   3.285  0.6262  0.7526 -1.0149
  440MOL0     O57983  -1.288   8.189   3.196  0.5560 -0.7450 -0.6722
  440MOL0     C57984  -1.410   8.265   3.211 -0.7352  0.0231  0.9827
  440MOL0     C57985  -1.521   8.196   3.138  0.1581  0.1242  0.2856
  440MOL0     C57986  -1.550   8.059   3.208  0.4038 -0.1537 -0.0569
  440MOL0     C57987  -1.684   8.001   3.166  0.2035 -0.4583  0.3897
  440MOL0     C57988  -1.736   7.868   3.232 -0.9428 -0.4265  0.9752
  440MOL0     C57989  -1.624   7.767   3.234  0.7038 -0.3564  0.4486
  440MOL0     C57990  -1.665   7.637   3.303  1.0213  0.7149 -0.1728
  440MOL0     C57991  -1.542   7.530   3.289  0.4303 -0.0027  1.0434
  440MOL0    Cl57992  -1.552   7.462   3.127 -0.2675  0.0347  0.1163
  440MOL0     C57993  -1.178   8.352   3.361 -0.0886 -0.1161 -0.3434
  440MOL0     C57994  -1.076   8.375   3.451  0.2673 -0.2884 -0.7624
  440MOL0     O57995  -0.966   8.213   3.733  0.1005  0.4682 -0.1933
  440MOL0     C57996  -0.623   8.303   3.684  0.2668 -0.2443  0.2639
  440MOL0     C57997  -0.510   8.320   3.765 -0.1676 -0.3657  1.0495
  440MOL0     N57998   0.011   8.812   4.100  0.4386 -0.4005 -0.1043
  440MOL0     N57999   0.074   8.889   4.026 -0.4695 -0.1700 -0.3180
  440MOL0     C58000   1.300   8.793   4.102  0.0861  0.3112 -0.5411
  440MOL0     C58001   1.391   8.687   4.069  0.0376 -0.1956  0.5015
  440MOL0     C58002   1.732   8.450   3.903  1.1510  0.0376 -0.2760
  440MOL0     C58003   1.849   8.406   3.976 -0.4615  0.1687  1.6152
  440MOL0     C58004   1.947   8.321   3.919  0.3590 -0.5827 -0.3544
  440MOL0     C58005   1.923   8.274   3.790  1.2880 -0.4902 -0.1485
  440MOL0     O58006   2.017   8.194   3.722  0.0154 -0.3709  0.3107
  440MOL0     C58007   2.160   8.208   3.741 -0.1561  0.3574 -0.4525
  440MOL0     C58008   2.241   8.115   3.642  0.0111 -0.0887  0.6469
  440MOL0     C58009   2.392   8.110   3.678 -0.6674  0.1465 -0.2989
  440MOL0     C58010   2.429   8.082   3.823 -0.0775  0.1848  0.0598
  440MOL0     C58011   2.579   8.065   3.824 -0.8291 -0.3382 -0.2255
  440MOL0     C58012   2.707   8.065   3.817  0.5534 -0.4391  0.0660
  440MOL0     C58013   1.804   8.303   3.715  0.3741  0.2820 -0.0748
  440MOL0     C58014   1.719   8.399   3.766 -0.0400  0.7710 -1.0996
  440MOL0     H58015   1.433   8.759   3.737 -1.4615  2.5145 -1.0222
  440MOL0     H58016   1.272   8.941   3.786 -1.2466 -1.5963  0.2699
  440MOL0     H58017   1.014   9.072   4.146 -1.2055  1.1104 -1.7569
  440MOL0     H58018   1.026   8.899   4.175  1.5232  2.5167  2.2895
  440MOL0     H58019   0.906   8.867   3.969 -1.9621 -0.2880 -1.3349
  440MOL0     H58020   0.918   9.025   3.918  1.5774 -3.2874 -0.6938
  440MOL0     H58021   0.764   9.110   4.094 -4.2249 -0.0779 -0.6216
  440MOL0     H58022   0.800   8.961   4.185  1.6463  2.1086 -0.1259
  440MOL0     H58023   0.642   9.016   3.927 -1.4768  2.1153 -0.1076
  440MOL0     H58024   0.656   8.848   3.991 -1.2702  1.0628  1.4226
  440MOL0     H58025   0.542   9.073   4.156 -0.1468  1.0599 -2.4996
  440MOL0     H58026   0.512   8.904   4.189  0.5102 -0.2767  0.0749
  440MOL0     H58027   0.414   9.055   3.940 -1.3527 -2.4922 -3.5224
  440MOL0     H58028   0.314   8.988   4.059 -3.2356 -2.6460 -4.4180
  440MOL0     H58029   0.454   8.856   3.835  1.4698 -0.0966  0.2427
  440MOL0     H58030   0.410   8.757   3.979  5.1077 -0.7920 -1.8749
  440MOL0     H58031   0.257   8.771   3.777 -1.3405 -1.3177  0.8555
  440MOL0     H58032   0.223   8.938   3.815  0.3779 -0.4647 -0.3462
  440MOL0     H58033   0.157   8.582   3.939 -3.2518  0.4671  0.1217
  440MOL0     H58034  -0.094   8.629   4.232 -1.2179  0.4067  0.1961
  440MOL0     H58035   0.006   8.492   4.172 -0.3681 -0.1520 -1.1466
  440MOL0     H58036  -0.126   8.439   4.007  0.0894 -1.7768  2.8057
  440MOL0     H58037  -0.188   8.610   3.984  0.8471  0.0839  0.0487
  440MOL0     H58038  -0.259   8.404   4.187  3.1282  0.6789 -0.3495
  440MOL0     H58039  -0.313   8.569   4.212  2.1447  2.1325 -1.6109
  440MOL0     H58040  -0.435   8.544   3.978 -0.8240 -1.4103 -0.7248
  440MOL0     H58041  -0.501   8.458   4.118 -0.4043 -1.2995  0.3769
  440MOL0     H58042  -0.619   8.275   4.067  0.5140 -1.3490 -0.4450
  440MOL0     H58043  -0.842   8.224   3.925  0.3414  0.8704  1.3801
  440MOL0     H58044  -0.879   8.104   3.395  3.1389  4.4300  1.6973
  440MOL0     H58045  -1.069   8.045   3.241 -0.9916 -0.4242  1.6930
  440MOL0     H58046  -1.409   8.367   3.172  0.5509 -0.2576  0.2091
  440MOL0     H58047  -1.424   8.269   3.319  1.6869 -1.7893  1.4635
  440MOL0     H58048  -1.490   8.175   3.035 -0.5808 -1.7362  0.3942
  440MOL0     H58049  -1.611   8.258   3.137  0.2918  0.3312  0.8400
  440MOL0     H58050  -1.547   8.085   3.314  1.9565  0.9712 -0.3304
  440MOL0     H58051  -1.465   7.992   3.189  1.1724 -0.2493  3.1357
  440MOL0     H58052  -1.762   8.073   3.195  0.1946 -1.4340  3.0221
  440MOL0     H58053  -1.684   7.976   3.059  0.1245 -1.2420  0.5698
  440MOL0     H58054  -1.821   7.827   3.176  1.2116  0.3721 -3.3479
  440MOL0     H58055  -1.760   7.894   3.335  0.1267  0.4245  1.0271
  440MOL0     H58056  -1.525   7.793   3.274  1.4837 -3.5457  0.8609
  440MOL0     H58057  -1.608   7.744   3.128 -2.6940  2.6050 -0.9369
  440MOL0     H58058  -1.680   7.650   3.410 -1.8080  0.3259 -0.4615
  440MOL0     H58059  -1.760   7.605   3.259  2.3601 -0.6351 -2.2770
  440MOL0     H58060  -1.547   7.456   3.369  0.8452  1.5016  2.5376
  440MOL0     H58061  -1.443   7.576   3.303  1.3725 -1.1591 -1.2177
  440MOL0     H58062  -1.255   8.427   3.347 -0.3514 -0.2507  0.3723
  440MOL0     H58063  -1.081   8.468   3.506 -3.2226 -0.8467  0.1505
  440MOL0     H58064  -0.610   8.305   3.576 -2.8909 -0.6657 -0.2390
  440MOL0     H58065  -0.424   8.357   3.711 -1.1331 -0.9113 -0.9579
  440MOL0     H58066   1.266   8.809   4.204  0.0683 -0.2003 -0.4687
  440MOL0     H58067   1.430   8.621   4.145 -0.8428  1.2191  2.2576
  440MOL0     H58068   1.861   8.431   4.081  3.3384 -0.9234  1.5649
  440MOL0     H58069   2.032   8.287   3.977  2.0056 -0.1397 -2.3931
  440MOL0     H58070   2.188   8.164   3.837 -2.0219 -3.6170 -1.5112
  440MOL0     H58071   2.176   8.316   3.731 -0.1055  0.5917  1.6892
  440MOL0     H58072   2.205   8.012   3.651 -0.0811  0.0638  2.3529
  440MOL0     H58073   2.231   8.153   3.540  0.8086 -0.6388  0.3525
  440MOL0     H58074   2.450   8.198   3.649  0.1652 -0.8961 -1.9317
  440MOL0     H58075   2.437   8.033   3.615 -0.7025 -1.7118  1.8195
  440MOL0     H58076   2.401   8.170   3.881 -2.5848  1.9414 -3.4870
  440MOL0     H58077   2.369   7.999   3.863 -1.3379  0.9463 -0.2241
  440MOL0     H58078   2.813   8.065   3.831  0.6377 -0.9620 -0.5164
  440MOL0     H58079   1.791   8.284   3.609 -1.8111  0.2030  0.1516
  440MOL0     H58080   1.634   8.420   3.702 -0.4233 -2.5717 -1.8507
  441MOL0     O58081   6.223   4.295   3.742 -1.2878 -0.7066  0.2702
  441MOL0     C58082   6.138   4.260   3.658  0.6975 -0.4177  0.5046
  441MOL0     O58083   6.104   4.134   3.622 -0.3652  0.1266 -0.4779
  441MOL0     C58084   6.180   4.033   3.675 -0.1895  0.6152  0.1935
  441MOL0     C58085   6.274   3.957   3.601 -1.5736 -0.5423 -0.0906
  441MOL0     C58086   6.337   3.840   3.650 -0.2743  0.4550  0.4936
  441MOL0     C58087   6.309   3.806   3.784  0.7770  0.0281 -0.3550
  441MOL0     O58088   6.355   3.692   3.837  0.1492 -1.0375 -0.2664
  441MOL0     C58089   6.491   3.697   3.876  0.2706  0.0080  0.9430
  441MOL0     C58090   6.534   3.558   3.931  0.4537  0.0613 -0.2228
  441MOL0     C58091   6.550   3.562   4.082 -0.5491 -0.6150 -0.0927
  441MOL0     C58092   6.533   3.427   4.150 -0.7558 -0.2275 -0.5778
  441MOL0     C58093   6.538   3.446   4.304  0.7516  0.1226  0.5567
  441MOL0     C58094   6.529   3.313   4.389 -0.1178 -0.0101 -0.7483
  441MOL0     C58095   6.557   3.347   4.531 -0.4658 -0.1821 -0.4835
  441MOL0     C58096   6.542   3.216   4.607  0.5374  1.1326 -0.1692
  441MOL0     N58097   6.551   3.223   4.750 -0.0654 -0.8662  0.3109
  441MOL0     C58098   6.666   3.184   4.820 -0.0608  0.8232  0.0807
  441MOL0     C58099   6.619   3.151   4.942  0.1776  0.5649 -0.8608
  441MOL0     C58100   6.708   3.095   5.052  1.7389  0.5497 -0.7766
  441MOL0     C58101   6.646   3.064   5.190 -0.6614  0.1190  0.0026
  441MOL0     C58102   6.745   2.986   5.292  0.0401 -0.3800  0.7328
  441MOL0     C58103   6.779   3.063   5.426  0.1420 -0.2037 -0.5935
  441MOL0     O58104   6.871   2.969   5.493 -0.7022 -0.5318  0.7328
  441MOL0     C58105   6.882   2.967   5.625  0.4479  0.2284  0.6886
  441MOL0     C58106   6.837   3.069   5.712 -0.6634 -0.0879 -0.1448
  441MOL0     C58107   6.855   3.064   5.852 -0.3128  0.3086  0.0037
  441MOL0     C58108   6.900   2.946   5.906 -0.7487 -0.7921  1.3437
  441MOL0     C58109   6.930   2.944   6.057 -0.9772 -0.7852 -0.7143
  441MOL0     O58110   6.933   2.815   6.102  0.2125 -0.9123  0.0227
  441MOL0     C58111   6.969   2.803   6.233  0.4407  0.0755 -0.0601
  441MOL0     C58112   6.866   2.807   6.331 -0.4452  0.3252  0.1830
  441MOL0     C58113   6.905   2.782   6.466 -0.1014 -0.1999  0.7758
  441MOL0     C58114   7.035   2.759   6.503 -0.4414  0.6872 -1.2825
  441MOL0     O58115   7.066   2.750   6.635 -0.1168 -0.5487 -0.4142
  441MOL0     C58116   7.201   2.708   6.666 -0.3692 -0.0199  0.2781
  441MOL0     C58117   7.224   2.680   6.814 -0.6570  0.0768 -0.1501
  441MOL0     C58118   7.371   2.684   6.839  0.1467  0.2171 -1.3948
  441MOL0     C58119   7.390   2.650   6.988 -1.0766  0.1817  0.1426
  441MOL0     C58120   7.537   2.634   7.021  0.6896  0.5672 -0.4204
  441MOL0     C58121   7.558   2.652   7.171 -0.3961 -0.3722  0.3523
  441MOL0     C58122   7.696   2.629   7.235 -0.4982 -0.7515  0.3428
  441MOL0     C58123   7.684   2.611   7.381 -0.2118  0.4353 -0.4104
  441MOL0    Cl58124   7.839   2.570   7.453  0.2448 -0.2259 -0.4383
  441MOL0     C58125   7.130   2.755   6.403  0.3708 -0.4542  0.4697
  441MOL0     C58126   7.098   2.771   6.271  0.0852  0.4014 -0.2145
  441MOL0     O58127   6.947   3.052   6.116 -0.2282 -0.4564 -0.4438
  441MOL0     C58128   6.948   2.844   5.823  1.1254 -0.7417 -0.0239
  441MOL0     C58129   6.923   2.855   5.684 -0.2590  0.8002 -0.8417
  441MOL0     N58130   6.485   3.191   4.947  0.1166 -0.5978 -0.1417
  441MOL0     N58131   6.448   3.231   4.830  0.9627  0.0340 -0.2495
  441MOL0     C58132   6.226   3.880   3.867 -0.5715  0.5984  0.2351
  441MOL0     C58133   6.173   3.997   3.812  0.1721  0.6367 -0.2089
  441MOL0     C58134   6.046   4.370   3.608  0.7984  1.1956  0.2745
  441MOL0     C58135   5.939   4.347   3.518 -0.6260 -0.7951  0.8263
  441MOL0     C58136   5.867   4.452   3.463 -1.2150 -0.0110 -0.4098
  441MOL0     C58137   5.899   4.582   3.509  0.7413  0.3538 -0.8190
  441MOL0     O58138   5.832   4.694   3.480  0.1658 -0.7019  0.1560
  441MOL0     C58139   5.742   4.694   3.357  0.4217 -0.6379 -0.3354
  441MOL0     C58140   5.682   4.839   3.336 -1.2142  0.1985  0.4871
  441MOL0     C58141   5.572   4.849   3.238 -0.4491  0.1601  0.4112
  441MOL0     C58142   5.515   4.990   3.225  0.9818 -0.7901 -0.2008
  441MOL0     C58143   5.445   5.041   3.341  1.0873  0.5319  0.0147
  441MOL0     C58144   5.386   5.088   3.444  0.2285  0.4292 -0.0418
  441MOL0     C58145   6.001   4.610   3.608 -0.0033 -0.2768  0.4956
  441MOL0     C58146   6.076   4.503   3.647 -0.1023 -0.0397 -0.2997
  441MOL0     H58147   6.282   3.994   3.500 -3.3278  1.4157  0.4154
  441MOL0     H58148   6.404   3.774   3.596  0.9635  3.0609 -1.3807
  441MOL0     H58149   6.529   3.781   3.935 -0.0646  1.2648 -0.5371
  441MOL0     H58150   6.551   3.707   3.785  2.3048  0.4312  2.2654
  441MOL0     H58151   6.629   3.529   3.885 -0.9998  0.1085 -3.5064
  441MOL0     H58152   6.459   3.480   3.919 -0.4655  0.9035 -0.1180
  441MOL0     H58153   6.465   3.621   4.117 -0.8802  0.0319 -1.8876
  441MOL0     H58154   6.649   3.599   4.113  0.5237 -3.3904  0.0925
  441MOL0     H58155   6.434   3.386   4.130 -1.6226 -0.6035  3.5807
  441MOL0     H58156   6.614   3.359   4.122  3.6473  4.2676 -0.1396
  441MOL0     H58157   6.437   3.488   4.306  1.3544  1.9063 -2.1383
  441MOL0     H58158   6.608   3.518   4.348 -0.2903  0.6152  1.4493
  441MOL0     H58159   6.609   3.243   4.360 -0.2795  0.2620 -1.9058
  441MOL0     H58160   6.431   3.268   4.373 -0.1260  0.2144 -1.3626
  441MOL0     H58161   6.662   3.377   4.537  0.0172 -1.7016 -0.7389
  441MOL0     H58162   6.483   3.422   4.561 -1.3899 -1.2167 -0.0952
  441MOL0     H58163   6.635   3.166   4.579  0.7007  1.1541  0.3267
  441MOL0     H58164   6.454   3.160   4.575 -1.2954  3.5339  0.4047
  441MOL0     H58165   6.769   3.177   4.788 -0.3581  0.0748 -0.7474
  441MOL0     H58166   6.780   3.173   5.077 -0.2911  1.8224  1.4348
  441MOL0     H58167   6.759   3.013   5.001 -1.2860 -0.8592 -1.7711
  441MOL0     H58168   6.560   2.997   5.181  0.6972 -1.9992  1.7463
  441MOL0     H58169   6.614   3.165   5.219  1.1078  0.9771 -0.8689
  441MOL0     H58170   6.691   2.894   5.318 -2.9627  1.4922  1.5937
  441MOL0     H58171   6.835   2.966   5.233  0.0850 -0.5601  0.8623
  441MOL0     H58172   6.686   3.071   5.484  0.5953 -1.7022  0.4024
  441MOL0     H58173   6.822   3.162   5.407 -0.3576  0.0457 -0.4419
  441MOL0     H58174   6.796   3.161   5.673  0.3815  0.3813 -0.1717
  441MOL0     H58175   6.823   3.148   5.912  0.0421 -0.9255  2.0021
  441MOL0     H58176   6.760   2.825   6.315  0.0451  1.4960 -2.2638
  441MOL0     H58177   6.822   2.802   6.533 -0.4951  1.3619 -0.1162
  441MOL0     H58178   7.276   2.779   6.628  1.9979 -0.7253  3.2428
  441MOL0     H58179   7.201   2.614   6.610 -2.6876  1.0860 -1.7460
  441MOL0     H58180   7.186   2.584   6.848 -1.2655 -0.1464 -1.3794
  441MOL0     H58181   7.179   2.765   6.867 -1.0533  0.0228 -0.3920
  441MOL0     H58182   7.420   2.780   6.821 -2.6186  2.1314  0.4225
  441MOL0     H58183   7.426   2.609   6.781  0.1255  0.1823 -1.3700
  441MOL0     H58184   7.350   2.728   7.055 -1.1063 -1.2430  1.8667
  441MOL0     H58185   7.328   2.565   7.018 -0.3863 -0.2810  0.2795
  441MOL0     H58186   7.590   2.716   6.973  0.6418  0.7854 -0.1048
  441MOL0     H58187   7.585   2.544   6.982 -3.6488 -2.3568  0.2079
  441MOL0     H58188   7.495   2.591   7.236  2.1135  0.4464  3.8679
  441MOL0     H58189   7.534   2.758   7.189 -1.9227 -0.5590 -0.4232
  441MOL0     H58190   7.728   2.531   7.198  1.9966  0.4673 -0.9712
  441MOL0     H58191   7.768   2.704   7.202  0.0090 -1.0253  0.8168
  441MOL0     H58192   7.618   2.528   7.408 -0.7734  0.3719 -1.8721
  441MOL0     H58193   7.647   2.705   7.424  1.5271  0.8556  0.2586
  441MOL0     H58194   7.235   2.739   6.428  0.9536  0.3428 -1.3277
  441MOL0     H58195   7.178   2.775   6.198 -0.7369  0.9808 -1.0975
  441MOL0     H58196   7.004   2.757   5.857  1.9735 -0.2032 -0.0408
  441MOL0     H58197   6.953   2.770   5.623 -2.0249  0.8473 -1.8356
  441MOL0     H58198   6.207   3.857   3.972 -2.5866  0.6620 -0.0834
  441MOL0     H58199   6.113   4.064   3.873  1.2618  1.1771  0.2969
  441MOL0     H58200   5.917   4.248   3.479 -0.7017  0.2308 -2.0458
  441MOL0     H58201   5.788   4.427   3.393 -1.3034  1.1576 -0.7437
  441MOL0     H58202   5.665   4.617   3.365 -0.1362  0.1096  2.6520
  441MOL0     H58203   5.804   4.663   3.272  3.2954 -5.9562  3.1431
  441MOL0     H58204   5.653   4.881   3.434  1.0162 -0.8938  1.6885
  441MOL0     H58205   5.760   4.895   3.284 -4.3344  1.2710 -3.5576
  441MOL0     H58206   5.487   4.783   3.259 -2.3982  0.6985 -4.4452
  441MOL0     H58207   5.596   4.820   3.135 -0.9324 -0.0735  0.3598
  441MOL0     H58208   5.590   5.067   3.203  0.6844 -0.9469 -1.9223
  441MOL0     H58209   5.434   4.989   3.151 -0.0952 -1.9900  0.9562
  441MOL0     H58210   5.332   5.130   3.527  2.1315  1.2804  0.8278
  441MOL0     H58211   6.004   4.707   3.656 -2.9488 -0.8052  1.9662
  441MOL0     H58212   6.148   4.520   3.726  0.5253 -1.3267 -0.5618
  442MOL0     O58213   1.871   1.805   8.523 -0.3468  0.0690  0.9137
  442MOL0     C58214   1.884   1.808   8.399 -0.3173 -0.1906  0.5089
  442MOL0     O58215   1.794   1.861   8.316  0.0597  0.3715  0.1603
  442MOL0     C58216   1.660   1.853   8.344  0.1356  0.0081  0.9653
  442MOL0     C58217   1.597   1.760   8.429 -0.6375  1.1473  0.5793
  442MOL0     C58218   1.461   1.763   8.445  0.4024  0.3815 -0.8402
  442MOL0     C58219   1.391   1.877   8.394  0.7097 -0.5530  0.2612
  442MOL0     O58220   1.251   1.883   8.411  0.3123  0.3223  0.2298
  442MOL0     C58221   1.189   1.781   8.486  0.3593 -0.3652 -0.9910
  442MOL0     C58222   1.036   1.816   8.492 -0.5708 -0.4201  0.2216
  442MOL0     C58223   0.995   1.890   8.622  0.1771  0.0136  0.1121
  442MOL0     C58224   0.841   1.906   8.641 -0.1916 -0.8492  1.0296
  442MOL0     C58225   0.776   1.774   8.679  0.5967 -0.7674  0.7173
  442MOL0     C58226   0.627   1.789   8.697  0.0632  1.2036  0.1038
  442MOL0     C58227   0.562   1.667   8.768 -0.1162 -0.8939  0.0556
  442MOL0     C58228   0.412   1.699   8.800 -0.6911 -0.3678  1.3200
  442MOL0     N58229   0.338   1.584   8.827 -0.4779 -0.1420 -0.7613
  442MOL0     C58230   0.260   1.520   8.735 -0.2035  0.0303 -0.0108
  442MOL0     C58231   0.182   1.423   8.796 -0.8046 -0.1492 -0.3059
  442MOL0     C58232   0.089   1.315   8.740  0.1004 -0.4370  0.1280
  442MOL0     C58233   0.157   1.223   8.637 -0.6437 -0.1322  0.0906
  442MOL0     C58234   0.064   1.123   8.572  0.3918  0.1257  0.0216
  442MOL0     C58235  -0.063   1.191   8.508 -0.3261 -0.3741 -0.2348
  442MOL0     O58236  -0.143   1.212   8.621 -0.3000 -1.1573 -0.0118
  442MOL0     C58237  -0.277   1.223   8.608 -0.2031  0.5992 -0.4055
  442MOL0     C58238  -0.342   1.242   8.482 -0.9584 -0.4269 -0.5279
  442MOL0     C58239  -0.478   1.260   8.480  0.1098 -0.4366  0.6169
  442MOL0     C58240  -0.547   1.254   8.597  0.3666 -0.3152 -0.7484
  442MOL0     C58241  -0.693   1.286   8.591  0.5238  0.1046  0.3151
  442MOL0     O58242  -0.771   1.236   8.697  0.5634  0.1954 -0.6641
  442MOL0     C58243  -0.905   1.251   8.703  0.3148 -0.3383  0.9032
  442MOL0     C58244  -0.998   1.292   8.597  0.2880  0.0754  0.4260
  442MOL0     C58245  -1.136   1.310   8.613 -0.4944 -1.0183 -0.3557
  442MOL0     C58246  -1.183   1.273   8.743  0.0547  0.0287  1.4466
  442MOL0     O58247  -1.312   1.296   8.751  0.9946 -0.6297  0.0767
  442MOL0     C58248  -1.392   1.270   8.866  0.2178 -0.0426 -0.6092
  442MOL0     C58249  -1.534   1.307   8.843 -0.0029 -0.5780  0.1524
  442MOL0     C58250  -1.611   1.314   8.975  0.4640  0.1768 -0.1591
  442MOL0     C58251  -1.758   1.339   8.946 -0.0798  0.0782  0.2452
  442MOL0     C58252  -1.823   1.423   9.064 -0.2490  0.3572  0.1232
  442MOL0     C58253  -1.820   1.348   9.199 -0.2074  0.4367  0.1622
  442MOL0     C58254  -1.886   1.431   9.308  0.2227 -0.5933 -0.8465
  442MOL0     C58255  -1.874   1.369   9.445  0.5832 -0.2943 -0.6748
  442MOL0    Cl58256  -1.955   1.212   9.452 -0.1883 -0.0874 -0.4749
  442MOL0     C58257  -1.104   1.228   8.840  0.3197  0.1518  0.7062
  442MOL0     C58258  -0.966   1.220   8.824  0.6260  0.3134 -0.5097
  442MOL0     O58259  -0.731   1.360   8.498 -0.0143 -0.3054 -0.0097
  442MOL0     C58260  -0.482   1.238   8.719  0.6097 -0.3704  0.2893
  442MOL0     C58261  -0.351   1.228   8.733 -0.0148  0.5566 -0.0309
  442MOL0     N58262   0.220   1.437   8.928  0.6780  0.6547 -0.4818
  442MOL0     N58263   0.312   1.535   8.950  0.4136  0.1953 -0.2585
  442MOL0     C58264   1.445   1.963   8.300  0.7560 -0.4210  0.6634
  442MOL0     C58265   1.581   1.955   8.279  0.3252 -0.9288  0.2786
  442MOL0     C58266   2.010   1.765   8.350  0.2918 -0.3400 -0.0047
  442MOL0     C58267   2.114   1.724   8.430  0.3767 -0.0641 -0.3399
  442MOL0     C58268   2.238   1.688   8.385  0.0392  0.4155  1.0725
  442MOL0     C58269   2.268   1.697   8.247 -0.2011 -0.0806 -0.1293
  442MOL0     O58270   2.394   1.659   8.202  0.3956 -0.4706 -0.6896
  442MOL0     C58271   2.416   1.600   8.072 -0.6593 -0.4652  0.2403
  442MOL0     C58272   2.356   1.457   8.066 -0.0874 -0.2922  0.1387
  442MOL0     C58273   2.406   1.365   8.180  0.3916 -0.6057 -0.9499
  442MOL0     C58274   2.350   1.220   8.182 -0.6223 -0.1260  0.2293
  442MOL0     C58275   2.438   1.145   8.084  0.9737 -0.0771  0.0429
  442MOL0     C58276   2.514   1.079   8.016  0.5802  0.1821  0.6395
  442MOL0     C58277   2.168   1.746   8.165  0.1063 -0.0936  0.0358
  442MOL0     C58278   2.042   1.774   8.212 -0.2567  0.3797 -0.1011
  442MOL0     H58279   1.657   1.679   8.470 -1.0134  1.2276  1.3071
  442MOL0     H58280   1.415   1.690   8.511 -1.7921  0.7799 -1.8477
  442MOL0     H58281   1.229   1.775   8.588 -1.7558 -1.1999 -0.1461
  442MOL0     H58282   1.195   1.690   8.427  1.3574  0.3467 -2.0291
  442MOL0     H58283   0.982   1.722   8.477  0.5608 -1.1852  0.8279
  442MOL0     H58284   1.000   1.881   8.411 -0.4695 -0.8171 -0.1453
  442MOL0     H58285   1.057   1.980   8.624  2.9486 -1.6803 -1.8816
  442MOL0     H58286   1.030   1.825   8.704  1.6190 -1.1138 -1.3217
  442MOL0     H58287   0.831   1.980   8.722  2.0134  0.5641  0.1163
  442MOL0     H58288   0.804   1.942   8.545  1.8618  2.6624  1.3717
  442MOL0     H58289   0.823   1.720   8.762  0.3294 -1.5392  0.3834
  442MOL0     H58290   0.787   1.703   8.596 -0.9020  1.7650 -1.8203
  442MOL0     H58291   0.588   1.820   8.599  2.4129 -1.1000 -1.7168
  442MOL0     H58292   0.601   1.862   8.774 -3.1249  0.0445  0.2535
  442MOL0     H58293   0.554   1.585   8.696 -0.4992 -1.4553  0.7228
  442MOL0     H58294   0.611   1.632   8.860  1.1563 -1.0763 -0.6699
  442MOL0     H58295   0.372   1.756   8.716  0.0656 -2.9573 -0.9358
  442MOL0     H58296   0.395   1.769   8.882 -2.3681 -1.2171  1.7210
  442MOL0     H58297   0.263   1.543   8.629  0.1167 -0.9217 -0.2182
  442MOL0     H58298   0.013   1.366   8.680 -0.6262 -4.8279 -3.2398
  442MOL0     H58299   0.035   1.262   8.819 -3.0027  0.7063 -1.0585
  442MOL0     H58300   0.234   1.168   8.690  2.1047  0.3769 -3.0698
  442MOL0     H58301   0.193   1.292   8.560 -1.7180 -0.2754 -0.5611
  442MOL0     H58302   0.126   1.073   8.497 -0.3136  2.2584 -2.1137
  442MOL0     H58303   0.027   1.057   8.651 -1.5838  1.0402 -0.0724
  442MOL0     H58304  -0.100   1.116   8.438 -0.9847  1.0475 -1.4665
  442MOL0     H58305  -0.038   1.285   8.458 -0.3797  0.1678  0.7227
  442MOL0     H58306  -0.285   1.252   8.390  0.1302 -0.2141  0.1482
  442MOL0     H58307  -0.520   1.286   8.384 -3.3870 -1.5169  1.6870
  442MOL0     H58308  -0.957   1.306   8.498  2.1624  0.1940  1.1756
  442MOL0     H58309  -1.207   1.344   8.538 -0.5712  1.7438  0.8585
  442MOL0     H58310  -1.351   1.322   8.953  0.8538  0.2502 -1.0791
  442MOL0     H58311  -1.396   1.163   8.889  2.6641  0.3059  2.0818
  442MOL0     H58312  -1.578   1.239   8.769 -3.2158  1.1317  0.2869
  442MOL0     H58313  -1.550   1.405   8.796 -1.8627  0.1758  2.1562
  442MOL0     H58314  -1.572   1.402   9.027 -0.0528 -0.5601  1.5641
  442MOL0     H58315  -1.594   1.224   9.035 -1.7510 -0.0703  0.1700
  442MOL0     H58316  -1.772   1.397   8.855 -1.4999  0.0298  0.4121
  442MOL0     H58317  -1.803   1.239   8.940  2.2770 -0.9735 -1.2198
  442MOL0     H58318  -1.923   1.451   9.028 -0.1247 -1.1579 -1.5328
  442MOL0     H58319  -1.773   1.519   9.080  0.8444 -0.1347 -0.2422
  442MOL0     H58320  -1.721   1.319   9.234 -1.5784  0.9233  5.3558
  442MOL0     H58321  -1.863   1.249   9.185 -0.4624  0.5855 -0.1234
  442MOL0     H58322  -1.832   1.526   9.307  0.8360 -0.8586  1.7559
  442MOL0     H58323  -1.991   1.454   9.287  0.3212 -1.1154 -2.0043
  442MOL0     H58324  -1.924   1.426   9.523  2.3927  2.4375 -1.3854
  442MOL0     H58325  -1.769   1.356   9.472  0.2696 -0.6308  0.4162
  442MOL0     H58326  -1.153   1.198   8.932 -1.2085  3.0218  0.9176
  442MOL0     H58327  -0.898   1.180   8.899  0.8072  0.8561 -0.3786
  442MOL0     H58328  -0.549   1.255   8.802 -1.5274  0.7065 -1.5532
  442MOL0     H58329  -0.300   1.223   8.829 -0.8986  2.0723  0.5429
  442MOL0     H58330   1.380   2.036   8.252  1.8434  0.4528  0.4923
  442MOL0     H58331   1.629   2.017   8.204 -1.9486  1.9820  1.0175
  442MOL0     H58332   2.086   1.719   8.535 -3.2360  1.1694 -1.0881
  442MOL0     H58333   2.318   1.654   8.448 -0.3092 -1.4121  0.5717
  442MOL0     H58334   2.523   1.605   8.050 -0.9943  2.0074 -1.2954
  442MOL0     H58335   2.369   1.652   7.988  1.8640 -2.1223 -2.4132
  442MOL0     H58336   2.248   1.467   8.051 -0.4963 -0.7991  2.3740
  442MOL0     H58337   2.393   1.409   7.975  0.0164 -0.7721  0.4362
  442MOL0     H58338   2.382   1.421   8.271 -0.3756 -0.6758 -1.1010
  442MOL0     H58339   2.515   1.365   8.183  0.5090  2.7967 -0.3937
  442MOL0     H58340   2.370   1.160   8.271 -1.2193 -0.5078  0.1097
  442MOL0     H58341   2.241   1.220   8.171 -0.7247  0.0140  1.1493
  442MOL0     H58342   2.602   1.034   7.976  1.4234  2.0965  0.1958
  442MOL0     H58343   2.175   1.753   8.057 -1.7467  0.1534 -0.0967
  442MOL0     H58344   1.971   1.806   8.138  1.0944  0.5644 -1.3594
  443MOL0     O58345   2.097   6.289   4.867 -0.2290 -0.2793  0.8098
  443MOL0     C58346   2.065   6.409   4.875  0.1883  0.1713  0.0205
  443MOL0     O58347   1.938   6.452   4.908  0.2934  1.2633  0.2177
  443MOL0     C58348   1.843   6.360   4.935  0.8589 -0.1053 -0.8940
  443MOL0     C58349   1.783   6.373   5.063  1.2591 -0.6573  0.2107
  443MOL0     C58350   1.673   6.286   5.099 -0.2660 -0.6194 -0.1791
  443MOL0     C58351   1.633   6.191   5.009  0.0859  0.6339  0.3607
  443MOL0     O58352   1.542   6.093   5.059  0.1441  0.7781 -0.1958
  443MOL0     C58353   1.456   6.027   4.972  0.4513  0.0106 -0.6807
  443MOL0     C58354   1.337   6.116   4.956  0.6829 -0.1344 -0.4419
  443MOL0     C58355   1.229   6.040   4.869  0.2555 -0.1206 -0.4435
  443MOL0     C58356   1.106   6.123   4.870 -0.2356  0.1059 -1.6833
  443MOL0     C58357   0.978   6.054   4.819  0.6964  0.3206 -0.7097
  443MOL0     C58358   0.982   6.034   4.673  0.3006  0.0495 -0.3815
  443MOL0     C58359   0.840   5.983   4.620  0.3850  0.3153 -0.3257
  443MOL0     C58360   0.816   5.997   4.470  0.2271 -0.7253 -0.2826
  443MOL0     N58361   0.701   5.905   4.429 -0.2578  0.3583  0.6358
  443MOL0     C58362   0.705   5.808   4.330 -0.5196  0.0936  0.1104
  443MOL0     C58363   0.596   5.738   4.349 -0.7235  0.6089 -0.8951
  443MOL0     C58364   0.544   5.620   4.286 -0.2834  1.1287 -0.1304
  443MOL0     C58365   0.584   5.491   4.370 -0.1223  0.2939 -0.1392
  443MOL0     C58366   0.734   5.448   4.360 -0.6444  0.3273  0.3841
  443MOL0     C58367   0.827   5.500   4.470 -0.3999  0.0649  0.2482
  443MOL0     O58368   0.966   5.448   4.450  0.2150 -0.4899 -0.2583
  443MOL0     C58369   1.056   5.550   4.483 -0.1072  0.4434  0.3680
  443MOL0     C58370   1.119   5.631   4.398 -1.0673 -0.1236  0.1620
  443MOL0     C58371   1.219   5.721   4.431  0.1760 -0.8652  0.0671
  443MOL0     C58372   1.260   5.729   4.567  0.6523  0.8997  0.8581
  443MOL0     C58373   1.373   5.809   4.609  1.1540 -0.1477  0.1826
  443MOL0     O58374   1.437   5.879   4.513 -0.2071 -0.5798 -0.0146
  443MOL0     C58375   1.574   5.896   4.512 -1.0238  0.0275 -0.5622
  443MOL0     C58376   1.624   6.005   4.444  0.5972 -0.4473 -0.1124
  443MOL0     C58377   1.755   6.052   4.456  0.8857 -1.0826 -0.5909
  443MOL0     C58378   1.846   5.982   4.539 -0.0638  0.3867  1.2278
  443MOL0     O58379   1.973   6.029   4.550 -0.1806 -0.3306 -0.6157
  443MOL0     C58380   2.048   5.967   4.653  0.2176 -0.3568 -0.4395
  443MOL0     C58381   2.172   6.040   4.675 -0.7364 -0.4043  0.1931
  443MOL0     C58382   2.251   6.010   4.800 -0.9254 -0.1407 -0.8230
  443MOL0     C58383   2.388   6.074   4.795 -0.1193  0.9971 -0.1772
  443MOL0     C58384   2.461   6.058   4.924 -0.0731  0.3417  0.5771
  443MOL0     C58385   2.598   6.118   4.924  0.1396 -0.6143  0.4930
  443MOL0     C58386   2.678   6.098   5.053 -0.4397  0.7855 -0.4465
  443MOL0     C58387   2.726   5.956   5.059  0.3055 -0.3919  0.7460
  443MOL0    Cl58388   2.863   5.937   5.191  0.0490  0.0712  0.4068
  443MOL0     C58389   1.799   5.868   4.606  0.7186 -0.6264 -0.2483
  443MOL0     C58390   1.666   5.823   4.594 -1.1338  0.6038  0.4715
  443MOL0     O58391   1.414   5.796   4.726  0.3662  0.2827 -0.0231
  443MOL0     C58392   1.189   5.647   4.658 -0.9387 -0.5932 -0.1494
  443MOL0     C58393   1.092   5.562   4.619  1.0797 -0.4495 -0.2963
  443MOL0     N58394   0.523   5.783   4.455  0.0943  0.4813  0.0470
  443MOL0     N58395   0.584   5.883   4.506  0.0675 -0.1973 -0.9174
  443MOL0     C58396   1.698   6.187   4.888 -0.1659  0.6897  0.0830
  443MOL0     C58397   1.799   6.258   4.847 -0.2926 -0.5085  0.7537
  443MOL0     C58398   2.158   6.512   4.836  0.0472  0.0632  0.0853
  443MOL0     C58399   2.297   6.478   4.832  0.0818 -0.3548  0.0368
  443MOL0     C58400   2.395   6.566   4.784  0.5787 -1.0416 -0.1272
  443MOL0     C58401   2.361   6.707   4.748 -0.9389  0.0196 -0.7403
  443MOL0     O58402   2.444   6.815   4.727 -0.9780  0.5329 -0.3107
  443MOL0     C58403   2.590   6.798   4.713  0.3336  0.4817 -0.0829
  443MOL0     C58404   2.659   6.772   4.846 -0.2219  0.4036  0.1223
  443MOL0     C58405   2.804   6.807   4.836  0.0736  0.6768 -0.4079
  443MOL0     C58406   2.872   6.797   4.969 -0.2624 -0.1764 -0.9150
  443MOL0     C58407   3.001   6.866   4.974  0.6190 -0.5053 -0.3206
  443MOL0     C58408   3.116   6.914   4.992  0.0634 -0.0222 -0.2330
  443MOL0     C58409   2.230   6.730   4.757  0.2797 -0.0703 -0.2380
  443MOL0     C58410   2.132   6.639   4.796  0.7455 -0.4310  0.7848
  443MOL0     H58411   1.812   6.448   5.135 -3.2735  0.6893  0.9540
  443MOL0     H58412   1.627   6.274   5.197  2.2285 -0.5033  1.1086
  443MOL0     H58413   1.423   5.939   5.028 -1.4479  1.4672  0.6258
  443MOL0     H58414   1.507   6.000   4.880 -0.0184 -1.0302 -0.6477
  443MOL0     H58415   1.369   6.205   4.900  2.2617 -1.9167 -2.5512
  443MOL0     H58416   1.289   6.138   5.052  1.2713 -1.8017  0.2719
  443MOL0     H58417   1.215   5.943   4.919  0.2041  0.0053 -0.2094
  443MOL0     H58418   1.261   6.018   4.767  1.5486  1.5855 -0.4450
  443MOL0     H58419   1.087   6.160   4.971  2.6880 -0.5343 -0.8008
  443MOL0     H58420   1.113   6.215   4.812 -1.1277  1.3330  0.0804
  443MOL0     H58421   0.902   6.130   4.839  0.3214 -0.4985  1.1466
  443MOL0     H58422   0.961   5.955   4.861  0.8741  0.6582  0.1794
  443MOL0     H58423   1.059   5.962   4.643 -2.1147 -2.8224 -0.1150
  443MOL0     H58424   1.003   6.128   4.621  0.1410  0.8086  0.8789
  443MOL0     H58425   0.841   5.877   4.645  0.6495  0.1866 -0.8703
  443MOL0     H58426   0.760   6.029   4.678 -0.1843  0.1909 -1.0112
  443MOL0     H58427   0.902   5.978   4.405 -0.7545  2.7752 -2.9045
  443MOL0     H58428   0.786   6.100   4.449  2.9598  1.3882  4.4116
  443MOL0     H58429   0.785   5.795   4.258 -0.4842 -1.8357  0.4347
  443MOL0     H58430   0.585   5.601   4.186  0.8334 -4.0833  1.0103
  443MOL0     H58431   0.435   5.622   4.281 -0.5085  3.6576  2.5867
  443MOL0     H58432   0.520   5.406   4.347  3.1300 -3.1842  2.4931
  443MOL0     H58433   0.579   5.506   4.479  2.1810 -0.1294  0.0712
  443MOL0     H58434   0.735   5.338   4.358 -0.0646  0.3159 -2.0761
  443MOL0     H58435   0.777   5.477   4.263  1.3362  1.1722  1.4695
  443MOL0     H58436   0.796   5.460   4.567  2.7819 -0.7419  1.0368
  443MOL0     H58437   0.819   5.607   4.486 -2.3295  0.0439 -0.3142
  443MOL0     H58438   1.109   5.610   4.292  3.1521 -2.4470 -0.0102
  443MOL0     H58439   1.275   5.781   4.360 -0.5921 -0.4478 -0.1965
  443MOL0     H58440   1.558   6.057   4.375  4.3434  2.1364 -2.0884
  443MOL0     H58441   1.774   6.146   4.406 -1.0169  0.7565  1.8854
  443MOL0     H58442   2.075   5.864   4.629  0.9557 -0.1431 -0.5650
  443MOL0     H58443   2.003   5.962   4.753  2.6307  0.9010  0.7868
  443MOL0     H58444   2.165   6.148   4.660 -0.6690 -0.4645 -0.2831
  443MOL0     H58445   2.232   6.002   4.591  3.1471  0.5273  2.2813
  443MOL0     H58446   2.265   5.903   4.822  2.0754  0.5162  0.9211
  443MOL0     H58447   2.199   6.059   4.883  1.7080  0.0986  0.7944
  443MOL0     H58448   2.450   6.025   4.719  2.8653  2.7410  0.9557
  443MOL0     H58449   2.378   6.178   4.759  0.1919  0.6671 -1.2700
  443MOL0     H58450   2.453   5.953   4.953 -2.0368  0.9852  2.7465
  443MOL0     H58451   2.404   6.106   5.005 -1.3436  0.9594 -0.6495
  443MOL0     H58452   2.566   6.223   4.927  0.5600 -0.4789  3.7494
  443MOL0     H58453   2.655   6.111   4.831 -0.3849 -1.7836  0.2377
  443MOL0     H58454   2.758   6.169   5.076 -0.6253  0.1413  2.4854
  443MOL0     H58455   2.604   6.122   5.130 -1.0913  2.7607 -1.6044
  443MOL0     H58456   2.771   5.923   4.965  0.9410  1.7473  0.2297
  443MOL0     H58457   2.646   5.887   5.088  1.1284 -0.9138  1.8549
  443MOL0     H58458   1.867   5.793   4.646  0.1078  0.3430  2.8249
  443MOL0     H58459   1.637   5.738   4.655 -4.5283  0.7074 -0.8030
  443MOL0     H58460   1.227   5.652   4.760 -1.7840 -1.0789  0.2013
  443MOL0     H58461   1.049   5.500   4.698  1.7826 -2.6086 -1.5206
  443MOL0     H58462   1.674   6.109   4.817  1.9703  0.2112 -0.1744
  443MOL0     H58463   1.845   6.235   4.752 -1.0599 -2.4048  0.8027
  443MOL0     H58464   2.317   6.372   4.843 -2.3657 -0.9070 -0.2128
  443MOL0     H58465   2.492   6.517   4.780 -0.1935 -2.5160 -2.4633
  443MOL0     H58466   2.632   6.889   4.669  1.0499  0.3570  0.3207
  443MOL0     H58467   2.596   6.720   4.637 -5.2648  1.2068 -1.7318
  443MOL0     H58468   2.609   6.835   4.921 -2.5170 -1.6062  0.4052
  443MOL0     H58469   2.645   6.670   4.882  1.4477  0.6549  1.6351
  443MOL0     H58470   2.793   6.914   4.817 -1.8306  0.6174  0.1742
  443MOL0     H58471   2.861   6.762   4.754 -0.0670 -1.2405  0.4929
  443MOL0     H58472   2.812   6.846   5.047 -0.5594  0.9279 -1.8092
  443MOL0     H58473   2.891   6.694   4.999 -2.5610 -0.3481  0.2051
  443MOL0     H58474   3.218   6.937   5.014 -0.0997 -0.8445  1.5764
  443MOL0     H58475   2.200   6.832   4.732 -1.7112 -1.3142 -3.5295
  443MOL0     H58476   2.029   6.668   4.781  0.7192 -1.7988 -2.6608
  444MOL0     O58477  10.103   7.508   3.921  0.0744  0.8059  0.7940
  444MOL0     C58478  10.172   7.413   3.961  0.5823 -0.5749 -0.0342
  444MOL0     O58479  10.144   7.319   4.052  0.1427 -0.0409 -0.0007
  444MOL0     C58480  10.013   7.324   4.091  0.3865  0.2071  0.3225
  444MOL0     C58481   9.988   7.388   4.212 -0.0896 -0.3087  0.4775
  444MOL0     C58482   9.862   7.398   4.266 -0.2646  0.3406  0.0437
  444MOL0     C58483   9.752   7.345   4.197 -0.4293 -0.2106  0.0004
  444MOL0     O58484   9.629   7.377   4.247  0.8345  0.6527 -0.5647
  444MOL0     C58485   9.611   7.490   4.345 -0.5830 -1.4898 -0.3408
  444MOL0     C58486   9.461   7.483   4.367 -0.3458  0.0697  0.1644
  444MOL0     C58487   9.363   7.517   4.257 -0.1105  0.4228 -0.9199
  444MOL0     C58488   9.382   7.656   4.204 -1.0524  0.0136  0.4624
  444MOL0     C58489   9.305   7.695   4.080  0.1790 -0.7677  0.9422
  444MOL0     C58490   9.150   7.674   4.099 -0.7187  0.4792  0.5113
  444MOL0     C58491   9.091   7.801   4.156 -0.1395  0.2748  0.7460
  444MOL0     C58492   9.061   7.907   4.047 -0.2427 -0.4408 -0.3328
  444MOL0     N58493   9.003   8.027   4.100 -0.8442 -0.4902  0.3541
  444MOL0     C58494   9.060   8.111   4.195 -0.2804 -0.2953 -0.2680
  444MOL0     C58495   8.970   8.218   4.201  0.5133 -0.1404 -0.3488
  444MOL0     C58496   8.977   8.349   4.275  0.2487 -0.4669  0.7058
  444MOL0     C58497   9.108   8.380   4.334 -0.4657  0.2013  0.8006
  444MOL0     C58498   9.210   8.425   4.234  0.1376  1.0656  0.1357
  444MOL0     C58499   9.350   8.408   4.291 -0.0718  0.0626 -0.0777
  444MOL0     O58500   9.367   8.484   4.414 -0.0426  0.2959 -0.0588
  444MOL0     C58501   9.492   8.535   4.444 -0.7023  0.3136 -0.1042
  444MOL0     C58502   9.615   8.461   4.428  0.1892 -0.2127 -0.3253
  444MOL0     C58503   9.743   8.528   4.445  0.6398  0.2767 -0.0313
  444MOL0     C58504   9.747   8.672   4.464  0.5273  0.4443 -0.5245
  444MOL0     C58505   9.877   8.744   4.463 -0.2709  0.2000  0.6635
  444MOL0     O58506   9.987   8.673   4.459  0.3077  0.2551 -0.5278
  444MOL0     C58507  10.100   8.737   4.484 -0.5939  0.0086  0.2216
  444MOL0     C58508  10.170   8.707   4.600 -0.1272 -0.7214 -0.6236
  444MOL0     C58509  10.295   8.757   4.613 -0.3129  0.1045  0.3720
  444MOL0     C58510  10.355   8.840   4.521 -0.1085 -0.1440  0.5447
  444MOL0     O58511  10.480   8.886   4.557 -0.8505  0.5916 -0.0922
  444MOL0     C58512  10.495   9.022   4.535  0.3820  0.0699  0.1262
  444MOL0     C58513  10.635   9.056   4.481 -0.4189 -0.5699  0.5652
  444MOL0     C58514  10.678   8.997   4.338 -0.2746 -0.0146  0.0605
  444MOL0     C58515  10.802   9.065   4.279 -0.1693 -0.3098  1.5878
  444MOL0     C58516  10.821   9.052   4.122  0.0713 -0.3327 -0.3491
  444MOL0     C58517  10.856   8.904   4.093  0.2036  0.2011 -0.2504
  444MOL0     C58518  10.871   8.880   3.943  0.6314  0.0743  0.7034
  444MOL0     C58519  11.012   8.919   3.904  0.7130  0.1885 -0.4971
  444MOL0    Cl58520  11.028   9.008   3.760  0.6184 -0.5468 -0.0414
  444MOL0     C58521  10.292   8.848   4.391  0.0373 -0.3652 -0.3624
  444MOL0     C58522  10.165   8.810   4.377  0.6150 -0.1862 -0.2656
  444MOL0     O58523   9.873   8.872   4.462 -0.0522  0.1936  0.8907
  444MOL0     C58524   9.623   8.732   4.491 -0.6014  0.4347  0.7395
  444MOL0     C58525   9.505   8.664   4.482 -0.3155  0.4680  0.4537
  444MOL0     N58526   8.866   8.196   4.109  0.9337  0.2908 -0.0801
  444MOL0     N58527   8.885   8.075   4.056  0.2445 -0.3738 -0.8001
  444MOL0     C58528   9.767   7.275   4.078  0.1244 -0.6796 -0.1086
  444MOL0     C58529   9.899   7.267   4.020 -0.1731  0.0819  0.6018
  444MOL0     C58530  10.293   7.391   3.887  0.5079  0.3757 -0.5086
  444MOL0     C58531  10.392   7.293   3.924 -0.4222 -1.1942 -0.4962
  444MOL0     C58532  10.509   7.277   3.849 -0.1546  0.1446 -0.7308
  444MOL0     C58533  10.524   7.346   3.734 -0.8767 -0.7510 -1.2534
  444MOL0     O58534  10.638   7.311   3.660  1.0136  0.9222  0.7371
  444MOL0     C58535  10.594   7.263   3.529 -0.2008  0.3028  0.2660
  444MOL0     C58536  10.682   7.324   3.413 -0.6127 -0.1484 -0.0502
  444MOL0     C58537  10.703   7.474   3.409  0.8590  0.3640  0.1165
  444MOL0     C58538  10.741   7.528   3.272 -0.1162  0.4703 -0.1379
  444MOL0     C58539  10.876   7.480   3.236 -0.3521  0.1034 -0.1960
  444MOL0     C58540  10.989   7.442   3.217 -0.3275 -0.1494  1.5372
  444MOL0     C58541  10.433   7.449   3.695 -0.9914 -0.0981  0.0785
  444MOL0     C58542  10.317   7.472   3.772 -0.3639 -0.0871  0.9865
  444MOL0     H58543  10.066   7.434   4.273 -0.0088  1.6562 -1.0051
  444MOL0     H58544   9.843   7.446   4.361 -0.6500  0.5658 -0.1421
  444MOL0     H58545   9.656   7.584   4.313  0.8981 -2.2069 -0.4498
  444MOL0     H58546   9.651   7.473   4.446 -3.6647  0.3687  1.3494
  444MOL0     H58547   9.449   7.560   4.444  1.0660 -0.2151  0.7113
  444MOL0     H58548   9.435   7.380   4.393 -1.5600  0.7059  1.6642
  444MOL0     H58549   9.267   7.500   4.307  0.9363 -2.1004  0.4053
  444MOL0     H58550   9.376   7.436   4.184  2.0455 -0.8127  0.7529
  444MOL0     H58551   9.362   7.724   4.288 -3.4591 -0.4307  0.3061
  444MOL0     H58552   9.489   7.659   4.183 -1.0908  0.6393  0.3176
  444MOL0     H58553   9.338   7.641   3.990  0.3766 -1.9940  1.7263
  444MOL0     H58554   9.321   7.801   4.056 -1.0258 -0.9085 -0.7009
  444MOL0     H58555   9.134   7.591   4.168  0.8958 -0.6141 -0.3553
  444MOL0     H58556   9.097   7.641   4.010  0.7721  1.4672 -0.8104
  444MOL0     H58557   8.997   7.772   4.203 -1.8351 -4.2839 -4.4085
  444MOL0     H58558   9.171   7.840   4.220  0.1175  1.5152 -0.2946
  444MOL0     H58559   8.995   7.869   3.968 -2.4267  0.7810  0.7883
  444MOL0     H58560   9.150   7.934   3.990  0.7022 -3.0382 -0.1811
  444MOL0     H58561   9.160   8.096   4.234  0.4302  1.4913 -1.2719
  444MOL0     H58562   8.897   8.347   4.349 -1.2068 -2.1697 -0.8035
  444MOL0     H58563   8.947   8.418   4.195 -2.3305 -0.6961  1.3699
  444MOL0     H58564   9.143   8.293   4.391  3.5404  0.4925 -0.8711
  444MOL0     H58565   9.099   8.464   4.403 -1.2571  2.3749 -1.7889
  444MOL0     H58566   9.205   8.350   4.155 -0.1641  0.0330  1.1063
  444MOL0     H58567   9.192   8.529   4.207 -0.4598  0.8729 -0.2233
  444MOL0     H58568   9.422   8.428   4.211 -1.8306  1.1000 -1.4772
  444MOL0     H58569   9.356   8.302   4.317 -0.3002 -0.2941 -1.4418
  444MOL0     H58570   9.620   8.357   4.398  0.2106 -0.2471 -0.2016
  444MOL0     H58571   9.827   8.463   4.423  0.7537 -0.0066  1.1982
  444MOL0     H58572  10.124   8.638   4.671 -0.2389  1.2043  1.2669
  444MOL0     H58573  10.354   8.725   4.698 -0.3205  2.1615  1.2202
  444MOL0     H58574  10.482   9.083   4.625  1.9331  1.5820 -0.6192
  444MOL0     H58575  10.427   9.058   4.457  1.6241 -0.1485 -1.1051
  444MOL0     H58576  10.707   9.021   4.555 -0.1498 -4.2541 -1.2313
  444MOL0     H58577  10.634   9.165   4.469  1.5291 -0.7215 -1.8160
  444MOL0     H58578  10.601   9.019   4.263  1.5666  0.7599 -1.6948
  444MOL0     H58579  10.684   8.888   4.345 -1.9324 -0.1152  0.3476
  444MOL0     H58580  10.808   9.171   4.307  2.1622 -0.4117  1.6624
  444MOL0     H58581  10.894   9.026   4.323  0.2642 -0.7752  0.3282
  444MOL0     H58582  10.896   9.116   4.074  0.7378 -1.2670 -0.5738
  444MOL0     H58583  10.732   9.085   4.067  0.8233 -0.4453 -1.6726
  444MOL0     H58584  10.776   8.842   4.135  0.9509 -0.4815  0.1826
  444MOL0     H58585  10.940   8.892   4.161  1.6221  4.1395 -1.0275
  444MOL0     H58586  10.863   8.773   3.921  1.0277  0.2922 -0.5911
  444MOL0     H58587  10.800   8.941   3.886  0.0045 -0.2787  1.0891
  444MOL0     H58588  11.078   8.832   3.896  0.2641 -0.0270 -2.2728
  444MOL0     H58589  11.057   8.986   3.978 -0.0283 -1.0524  1.1298
  444MOL0     H58590  10.331   8.909   4.311 -1.1550  0.4088 -0.3875
  444MOL0     H58591  10.101   8.827   4.291  2.8136 -3.4062 -2.8334
  444MOL0     H58592   9.622   8.837   4.518  2.8165  0.5397  0.8826
  444MOL0     H58593   9.413   8.721   4.487 -0.2345  0.9890 -2.3718
  444MOL0     H58594   9.678   7.230   4.035  3.0769 -3.8783 -3.5404
  444MOL0     H58595   9.917   7.209   3.929 -0.5571 -2.5888  2.1281
  444MOL0     H58596  10.381   7.229   4.011  0.8054  0.8418  1.2335
  444MOL0     H58597  10.591   7.218   3.890  2.3194  3.8753  0.1963
  444MOL0     H58598  10.488   7.288   3.518 -0.3477  0.1242  1.1361
  444MOL0     H58599  10.600   7.154   3.519 -0.3615  0.4355 -1.5673
  444MOL0     H58600  10.774   7.264   3.408 -0.1534  0.6156 -4.3476
  444MOL0     H58601  10.629   7.301   3.320  1.4909  0.1886 -1.3992
  444MOL0     H58602  10.787   7.498   3.476  0.8462  2.0941 -0.4230
  444MOL0     H58603  10.616   7.532   3.440  1.2361 -0.0594  2.1148
  444MOL0     H58604  10.666   7.504   3.197  0.3356 -3.2206  0.4267
  444MOL0     H58605  10.769   7.634   3.278  0.9951  0.2136 -0.5812
  444MOL0     H58606  11.087   7.406   3.191 -0.5586 -0.7168  1.4560
  444MOL0     H58607  10.451   7.497   3.600  0.4649 -0.2733  0.2558
  444MOL0     H58608  10.244   7.545   3.740 -1.5567 -1.0516  1.4014
  445MOL0     O58609   8.333   9.682   7.488  0.6222 -0.4801 -0.0363
  445MOL0     C58610   8.366   9.787   7.432  0.8181  0.1059 -0.2813
  445MOL0     O58611   8.282   9.887   7.398 -0.6942  0.0084 -0.4543
  445MOL0     C58612   8.140   9.887   7.415 -0.4484 -0.9550  1.1626
  445MOL0     C58613   8.059   9.792   7.482  0.4372 -0.7796  1.0756
  445MOL0     C58614   7.914   9.815   7.483  0.3192  0.1702  0.2634
  445MOL0     C58615   7.854   9.923   7.416  0.5863  0.2236 -0.2885
  445MOL0     O58616   7.715   9.928   7.430  0.0063 -0.0028  0.2953
  445MOL0     C58617   7.641  10.029   7.355  1.0156 -0.4454  0.1750
  445MOL0     C58618   7.492  10.006   7.362 -0.7627  0.6120 -0.0860
  445MOL0     C58619   7.411  10.074   7.260  0.1742  0.0232 -0.0069
  445MOL0     C58620   7.438  10.227   7.293 -0.3836  0.0321  0.6278
  445MOL0     C58621   7.343  10.323   7.213 -0.4072  0.6468 -0.6270
  445MOL0     C58622   7.207  10.318   7.285 -0.0333 -0.4706  0.0704
  445MOL0     C58623   7.107  10.399   7.218 -1.3345 -0.3955  0.3111
  445MOL0     C58624   7.038  10.492   7.324 -0.3804  0.2292  0.4625
  445MOL0     N58625   6.954  10.409   7.406  0.6356 -0.3803 -0.6312
  445MOL0     C58626   6.856  10.319   7.379  1.1071 -0.2156  0.0030
  445MOL0     C58627   6.840  10.239   7.483 -0.6261 -0.3869  0.0551
  445MOL0     C58628   6.760  10.116   7.485  0.1757 -0.3904  0.5763
  445MOL0     C58629   6.622  10.151   7.543 -1.1846  0.0919 -0.7267
  445MOL0     C58630   6.539  10.250   7.457  0.3926  0.5106  0.2594
  445MOL0     C58631   6.413  10.307   7.514  0.1626 -0.2845  0.2227
  445MOL0     O58632   6.341  10.218   7.609 -0.0504  0.1794  0.5041
  445MOL0     C58633   6.239  10.282   7.675 -0.1394 -0.2698 -0.2768
  445MOL0     C58634   6.109  10.299   7.619  0.0123 -0.7994 -0.7094
  445MOL0     C58635   6.007  10.366   7.695 -0.7093  0.8600 -0.2416
  445MOL0     C58636   6.036  10.395   7.832  0.6117 -0.4195  0.5960
  445MOL0     C58637   5.931  10.461   7.908 -1.0183 -0.2255 -0.2414
  445MOL0     O58638   5.810  10.447   7.865  0.2423  0.1624 -0.9496
  445MOL0     C58639   5.707  10.492   7.941 -0.1472 -0.5590 -1.1962
  445MOL0     C58640   5.649  10.404   8.031 -0.5430 -0.2970  0.0033
  445MOL0     C58641   5.539  10.449   8.109 -0.1876 -0.0599  0.1409
  445MOL0     C58642   5.497  10.582   8.106  1.1356 -0.3842  1.5661
  445MOL0     O58643   5.394  10.646   8.166 -0.4673  0.4687 -0.3305
  445MOL0     C58644   5.308  10.567   8.248  0.0032 -0.2710  0.5317
  445MOL0     C58645   5.234  10.667   8.336  0.5894  0.5989 -0.2255
  445MOL0     C58646   5.155  10.588   8.450 -1.3883 -0.1802  0.1304
  445MOL0     C58647   5.237  10.519   8.562  0.2429 -0.2529 -0.3002
  445MOL0     C58648   5.205  10.571   8.702  1.1834  0.5276 -0.6210
  445MOL0     C58649   5.296  10.515   8.811  0.8260 -0.1911 -0.3818
  445MOL0     C58650   5.233  10.545   8.947  0.4519  0.2209 -0.3157
  445MOL0     C58651   5.224  10.690   8.980  0.1010  0.4121 -0.3543
  445MOL0    Cl58652   5.158  10.713   9.142 -0.2742 -0.2793  0.1554
  445MOL0     C58653   5.569  10.671   8.020 -0.8147  0.0675  0.4417
  445MOL0     C58654   5.661  10.622   7.928  0.4551  0.2700  0.8916
  445MOL0     O58655   5.966  10.506   8.015  0.0160  0.3011 -0.2819
  445MOL0     C58656   6.163  10.371   7.881 -1.1391  0.2502  0.0515
  445MOL0     C58657   6.263  10.317   7.806 -0.3999 -0.2354  0.2839
  445MOL0     N58658   6.919  10.295   7.587  0.3482  1.3060 -0.1783
  445MOL0     N58659   6.987  10.387   7.535 -0.1120  0.0945  0.4572
  445MOL0     C58660   7.939  10.017   7.364  0.3578 -0.5397  0.3632
  445MOL0     C58661   8.077   9.999   7.365 -1.2519 -0.0269  1.1351
  445MOL0     C58662   8.505   9.789   7.393 -0.0845  0.0550 -0.1851
  445MOL0     C58663   8.605   9.701   7.448  0.9491  0.6939  0.5705
  445MOL0     C58664   8.739   9.706   7.407  0.0157 -0.8033  0.0688
  445MOL0     C58665   8.779   9.806   7.319  0.1869  1.0566  1.2451
  445MOL0     O58666   8.907   9.787   7.302 -0.6167 -0.6632  0.4337
  445MOL0     C58667   8.974   9.901   7.237  0.1182 -0.6643  1.3381
  445MOL0     C58668   8.983   9.886   7.083  0.6418 -0.7871 -0.6862
  445MOL0     C58669   9.013  10.011   7.020  0.7288 -0.0713 -0.1204
  445MOL0     C58670   9.164  10.018   6.999 -0.9467 -0.1652  0.0176
  445MOL0     C58671   9.194  10.146   6.936 -0.4640  0.6527  0.5669
  445MOL0     C58672   9.250  10.310   6.852  0.7785  0.1055  0.0843
  445MOL0     C58673   8.685   9.905   7.274  0.5045 -0.1018  0.2920
  445MOL0     C58674   8.551   9.890   7.305 -0.4343  0.7993 -0.4673
  445MOL0     H58675   8.097   9.699   7.522  2.3506  0.6466  2.8047
  445MOL0     H58676   7.846   9.740   7.521 -0.1171 -0.5343 -1.7654
  445MOL0     H58677   7.656  10.033   7.247 -0.2665  0.7962 -0.0002
  445MOL0     H58678   7.663  10.130   7.392 -0.0153  1.1439 -3.1897
  445MOL0     H58679   7.443  10.020   7.459 -1.8920 -0.0066 -0.5520
  445MOL0     H58680   7.480   9.898   7.349 -1.5436  0.7723 -0.7270
  445MOL0     H58681   7.308  10.038   7.266  0.0250  0.1268 -1.5118
  445MOL0     H58682   7.444  10.041   7.161 -2.6985  0.7597 -1.3111
  445MOL0     H58683   7.454  10.244   7.400  1.8295  2.6966  0.0057
  445MOL0     H58684   7.540  10.251   7.261 -0.7162 -0.7893 -1.1900
  445MOL0     H58685   7.334  10.285   7.111  1.4642  0.8334 -0.8981
  445MOL0     H58686   7.387  10.424   7.213 -0.0550  0.5252  0.9460
  445MOL0     H58687   7.212  10.348   7.390  1.1937  2.1063 -0.6338
  445MOL0     H58688   7.184  10.211   7.286  2.5815 -1.1080 -0.6461
  445MOL0     H58689   7.170  10.462   7.154  1.0798 -1.7373  1.2378
  445MOL0     H58690   7.026  10.345   7.168 -1.6737 -2.4231  2.8638
  445MOL0     H58691   6.970  10.562   7.276 -1.5416 -2.1572 -1.5793
  445MOL0     H58692   7.103  10.543   7.396  3.1795 -3.1908 -0.0071
  445MOL0     H58693   6.810  10.303   7.282  1.6954  1.9539 -0.6889
  445MOL0     H58694   6.811  10.035   7.538  0.0748 -0.4528  0.5772
  445MOL0     H58695   6.740  10.075   7.386 -1.2970 -2.7762  1.7733
  445MOL0     H58696   6.629  10.206   7.638 -0.1707  3.0810 -2.3809
  445MOL0     H58697   6.575  10.059   7.578  0.7665 -0.0702  1.7470
  445MOL0     H58698   6.599  10.337   7.427  0.2425  0.5483  0.0606
  445MOL0     H58699   6.505  10.189   7.373  0.7209 -2.4426  2.1402
  445MOL0     H58700   6.344  10.324   7.430 -0.2238 -2.5449  0.0201
  445MOL0     H58701   6.444  10.398   7.566 -0.3948 -0.3861  0.7386
  445MOL0     H58702   6.093  10.266   7.517 -0.7569  2.2714 -1.7018
  445MOL0     H58703   5.912  10.377   7.643  0.0420  4.7904 -1.1152
  445MOL0     H58704   5.682  10.301   8.043 -1.2867 -0.4201  1.1127
  445MOL0     H58705   5.499  10.376   8.178  2.9716  1.7491  4.3469
  445MOL0     H58706   5.363  10.498   8.313  0.6953 -2.7535 -2.4577
  445MOL0     H58707   5.229  10.513   8.194  1.2877  0.8416 -2.6700
  445MOL0     H58708   5.169  10.716   8.263  2.1074  2.0627 -0.6408
  445MOL0     H58709   5.303  10.734   8.388  3.2642  0.6267 -3.4734
  445MOL0     H58710   5.093  10.514   8.398 -0.6817  1.2818 -3.0171
  445MOL0     H58711   5.080  10.653   8.496 -0.7829  1.5977 -1.2892
  445MOL0     H58712   5.226  10.411   8.569 -1.8508  0.0424  3.1470
  445MOL0     H58713   5.345  10.533   8.552  0.4867  0.7187  2.6486
  445MOL0     H58714   5.099  10.552   8.719  1.1949  1.9311  1.3699
  445MOL0     H58715   5.210  10.680   8.703 -1.8532  0.7968 -2.5754
  445MOL0     H58716   5.387  10.573   8.795  0.0710  0.9949 -0.5322
  445MOL0     H58717   5.308  10.407   8.807 -1.2270 -0.4147 -2.2842
  445MOL0     H58718   5.129  10.510   8.945  0.2774  0.6727  0.2595
  445MOL0     H58719   5.291  10.497   9.026 -2.4407 -2.7941  0.1956
  445MOL0     H58720   5.153  10.742   8.915 -0.9296 -1.1389 -0.5114
  445MOL0     H58721   5.322  10.737   8.994  0.7679 -0.7559 -0.9769
  445MOL0     H58722   5.539  10.772   7.997 -1.4724  0.3773  2.4585
  445MOL0     H58723   5.704  10.691   7.856  3.2698 -1.4582  0.7808
  445MOL0     H58724   6.192  10.409   7.979 -2.8243 -0.7513  1.0061
  445MOL0     H58725   6.360  10.304   7.852 -1.2665  1.2280  2.6963
  445MOL0     H58726   7.909  10.101   7.302  3.1722 -0.4674 -1.0312
  445MOL0     H58727   8.147  10.069   7.319 -1.2218 -0.4756  0.4840
  445MOL0     H58728   8.566   9.622   7.513 -1.7437  0.8601 -0.6848
  445MOL0     H58729   8.807   9.637   7.456  0.0584 -1.4201 -0.8493
  445MOL0     H58730   9.078   9.909   7.272 -0.5977  3.6300  3.0606
  445MOL0     H58731   8.929   9.994   7.273 -0.0600  0.9250 -2.5061
  445MOL0     H58732   9.046   9.802   7.053 -0.2982 -1.7750  0.0346
  445MOL0     H58733   8.881   9.858   7.056  0.2889  0.5936 -0.8369
  445MOL0     H58734   8.997  10.095   7.089 -2.2768 -2.2692  2.0924
  445MOL0     H58735   8.957  10.025   6.927  3.0444  0.6591 -1.5077
  445MOL0     H58736   9.209  10.023   7.098 -0.6741  2.0307 -0.1590
  445MOL0     H58737   9.212   9.934   6.948 -0.9534 -0.5947  0.7097
  445MOL0     H58738   9.276  10.395   6.793 -0.2313  0.7651  0.5571
  445MOL0     H58739   8.724   9.988   7.216 -2.0225  0.4606 -0.7204
  445MOL0     H58740   8.489   9.974   7.276  0.4667  2.5849  2.3646
  446MOL0     O58741   7.528   9.972   2.145 -1.0956 -0.9006 -0.5176
  446MOL0     C58742   7.561   9.955   2.030 -0.1353  0.2438 -0.3929
  446MOL0     O58743   7.681   9.925   1.992  0.3750 -0.0125  0.6440
  446MOL0     C58744   7.795   9.949   2.058  0.2627 -0.8238  0.0898
  446MOL0     C58745   7.822  10.003   2.185  0.3211 -0.2453  0.7812
  446MOL0     C58746   7.956  10.019   2.226  0.2533  0.5538  1.0968
  446MOL0     C58747   8.069   9.993   2.145  0.1344 -0.0961  0.6514
  446MOL0     O58748   8.198  10.043   2.174  0.9080  0.0914  0.5172
  446MOL0     C58749   8.209  10.162   2.246  0.4311  0.1875  0.4154
  446MOL0     C58750   8.357  10.195   2.253 -0.4720 -0.7337  0.4850
  446MOL0     C58751   8.401  10.276   2.372 -0.4493  0.0368 -0.3228
  446MOL0     C58752   8.559  10.293   2.374 -0.1899  0.3710 -1.0591
  446MOL0     C58753   8.607  10.394   2.268 -0.9190  0.2051  0.9840
  446MOL0     C58754   8.743  10.348   2.219 -0.1438 -0.7458 -0.0138
  446MOL0     C58755   8.789  10.434   2.101 -0.0620 -0.1718 -0.0794
  446MOL0     C58756   8.937  10.435   2.082 -0.2258  0.7059  0.2997
  446MOL0     N58757   8.985  10.528   1.979  0.1937 -0.2192 -0.4256
  446MOL0     C58758   8.946  10.527   1.853 -0.9254  0.0031  0.9336
  446MOL0     C58759   8.987  10.643   1.802 -0.1297 -0.2843 -0.3554
  446MOL0     C58760   8.999  10.687   1.656  0.0345 -1.1855  0.4741
  446MOL0     C58761   8.874  10.689   1.561  0.4591  0.4173  0.8870
  446MOL0     C58762   8.790  10.806   1.599 -0.5357  0.6369 -0.3337
  446MOL0     C58763   8.659  10.826   1.517 -0.7031 -0.6262  0.2578
  446MOL0     O58764   8.585  10.940   1.567  0.0251 -0.0339  0.0943
  446MOL0     C58765   8.452  10.947   1.536  0.2132  0.8524 -0.2383
  446MOL0     C58766   8.387  11.057   1.592  0.2130  0.0544  0.2585
  446MOL0     C58767   8.244  11.076   1.584  0.5953 -0.2268  1.3019
  446MOL0     C58768   8.170  10.983   1.513  0.2373  0.1831  1.1638
  446MOL0     C58769   8.026  10.990   1.483  0.0571 -0.7818 -0.0628
  446MOL0     O58770   7.976  10.877   1.438 -0.2188 -0.6488 -0.3458
  446MOL0     C58771   7.834  10.867   1.416 -0.3907 -0.2635  0.8349
  446MOL0     C58772   7.764  10.967   1.339  0.6685 -0.3393  0.3432
  446MOL0     C58773   7.626  10.955   1.310  1.0778 -0.6828 -0.0686
  446MOL0     C58774   7.554  10.836   1.345 -0.0802 -0.3090  0.6975
  446MOL0     O58775   7.425  10.826   1.303 -0.2717 -0.0825  0.2231
  446MOL0     C58776   7.382  10.682   1.278  0.1073 -0.9244 -0.5757
  446MOL0     C58777   7.260  10.681   1.184  0.0775  0.6206  0.4259
  446MOL0     C58778   7.134  10.681   1.271  0.3715  0.0977 -0.3454
  446MOL0     C58779   7.006  10.674   1.190 -0.2362 -0.1786 -0.4303
  446MOL0     C58780   6.892  10.665   1.289  0.5173  0.1790  0.8289
  446MOL0     C58781   6.763  10.734   1.236  0.3257 -0.4310  0.0544
  446MOL0     C58782   6.653  10.700   1.332 -0.1939  0.3543  0.5657
  446MOL0     C58783   6.515  10.739   1.272  0.2398 -0.1996  0.0107
  446MOL0    Cl58784   6.374  10.694   1.377 -0.5207  0.4279 -0.0846
  446MOL0     C58785   7.621  10.749   1.436 -0.0779 -0.2333  0.2204
  446MOL0     C58786   7.759  10.760   1.461  0.3144  0.2322  0.1659
  446MOL0     O58787   7.963  11.088   1.529 -0.2072 -0.0502 -0.3326
  446MOL0     C58788   8.247  10.877   1.453 -0.5923  0.1245  0.3522
  446MOL0     C58789   8.381  10.854   1.463 -0.8814  0.2342 -0.1371
  446MOL0     N58790   9.047  10.713   1.903  0.3297 -0.4330  0.2043
  446MOL0     N58791   9.057  10.639   1.997 -0.0501 -0.4969  0.1856
  446MOL0     C58792   8.037   9.929   2.030 -0.4526 -0.0230  1.2937
  446MOL0     C58793   7.902   9.895   1.989  0.0637 -0.1669 -0.2855
  446MOL0     C58794   7.457   9.962   1.930  0.3732  0.8033 -0.4560
  446MOL0     C58795   7.327   9.950   1.972 -0.7493 -0.3360 -0.9933
  446MOL0     C58796   7.225   9.945   1.883  0.2242 -0.3618 -0.0136
  446MOL0     C58797   7.249   9.952   1.744  0.8916  0.0899 -0.1531
  446MOL0     O58798   7.151   9.957   1.642  0.1886  0.5423  0.3174
  446MOL0     C58799   7.025   9.903   1.671 -0.1030  0.9453  0.1112
  446MOL0     C58800   6.926   9.941   1.564 -0.9722  0.2804  0.1925
  446MOL0     C58801   6.771   9.916   1.587  1.4154 -1.0171  1.3870
  446MOL0     C58802   6.712   9.876   1.456  0.7259  1.3706  0.0951
  446MOL0     C58803   6.583   9.804   1.478  0.8640  0.5554  0.3836
  446MOL0     C58804   6.477   9.734   1.488  0.1995  0.0364 -0.1276
  446MOL0     C58805   7.387   9.952   1.702  0.5825 -0.2817  0.0765
  446MOL0     C58806   7.485   9.964   1.793 -1.2556 -0.3010 -0.8621
  446MOL0     H58807   7.734  10.030   2.242 -1.9232 -0.5653 -2.2783
  446MOL0     H58808   7.969  10.060   2.325  0.5050  2.6161  0.2643
  446MOL0     H58809   8.173  10.150   2.349  4.4792  3.4290  2.5198
  446MOL0     H58810   8.158  10.248   2.200  1.3270 -0.7391 -2.5240
  446MOL0     H58811   8.387  10.229   2.153 -0.2841 -3.3859 -0.4316
  446MOL0     H58812   8.415  10.103   2.263  0.9062  0.3194  3.5647
  446MOL0     H58813   8.374  10.211   2.456  0.6675  1.3944  1.1362
  446MOL0     H58814   8.344  10.368   2.387  1.2005  0.8605  1.2900
  446MOL0     H58815   8.584  10.321   2.477  0.8132 -0.4744 -1.0632
  446MOL0     H58816   8.590  10.189   2.360 -1.5877 -0.0210 -1.3827
  446MOL0     H58817   8.612  10.496   2.306  2.0264  0.0619  1.1966
  446MOL0     H58818   8.548  10.389   2.176  2.7546 -1.7344 -1.5184
  446MOL0     H58819   8.743  10.240   2.200 -0.1765 -0.9070  0.8577
  446MOL0     H58820   8.801  10.367   2.310 -2.7138 -0.9988  1.7654
  446MOL0     H58821   8.737  10.389   2.016 -3.7798 -0.1440  1.9762
  446MOL0     H58822   8.755  10.537   2.111  1.5080  0.8241 -3.3980
  446MOL0     H58823   8.979  10.337   2.059 -0.0863  1.0517 -1.0206
  446MOL0     H58824   8.990  10.453   2.176  2.3627 -0.1910 -0.8876
  446MOL0     H58825   8.898  10.455   1.787 -2.4303  1.5946  0.2259
  446MOL0     H58826   9.072  10.622   1.607  2.0044  0.4657  1.1072
  446MOL0     H58827   9.037  10.789   1.664  0.2116 -1.0178 -1.8969
  446MOL0     H58828   8.818  10.595   1.549  0.7287  0.5855 -2.7618
  446MOL0     H58829   8.919  10.701   1.462 -0.1925 -1.7764  0.2504
  446MOL0     H58830   8.768  10.793   1.705  3.3138 -0.7824  0.4230
  446MOL0     H58831   8.848  10.898   1.587  0.3759  0.7982  3.9101
  446MOL0     H58832   8.603  10.732   1.512  0.5903 -1.4135  0.1129
  446MOL0     H58833   8.674  10.859   1.413 -0.4080  0.8208  0.7294
  446MOL0     H58834   8.459  11.127   1.632  2.5597 -2.5515  0.9417
  446MOL0     H58835   8.195  11.161   1.631  2.6630  0.1530  2.9380
  446MOL0     H58836   7.813  11.062   1.317 -0.2732  0.0687 -0.0598
  446MOL0     H58837   7.589  11.036   1.248  0.5673 -0.1287  0.9460
  446MOL0     H58838   7.364  10.620   1.366 -0.3560  0.1924  0.1252
  446MOL0     H58839   7.468  10.644   1.222  2.7663  4.9392 -1.2453
  446MOL0     H58840   7.249  10.602   1.109  1.0419 -0.5621  1.4973
  446MOL0     H58841   7.271  10.772   1.124 -1.3704 -0.4881 -1.6720
  446MOL0     H58842   7.128  10.777   1.322 -1.3833 -0.2202  0.1099
  446MOL0     H58843   7.132  10.594   1.338  0.7944 -0.2095 -0.7211
  446MOL0     H58844   7.011  10.761   1.124  0.5396 -0.1730 -0.3678
  446MOL0     H58845   7.009  10.586   1.126  1.1237 -1.4315  1.2466
  446MOL0     H58846   6.935  10.709   1.379  3.1396 -1.5327  0.5080
  446MOL0     H58847   6.877  10.560   1.314  0.6197  0.4247  1.9706
  446MOL0     H58848   6.738  10.705   1.134 -1.2134 -1.9845  0.7979
  446MOL0     H58849   6.776  10.842   1.241 -0.8979 -0.2550 -0.3521
  446MOL0     H58850   6.658  10.595   1.363 -1.2463 -0.0671 -0.6049
  446MOL0     H58851   6.661  10.761   1.423  0.6585  0.3331  0.5153
  446MOL0     H58852   6.515  10.701   1.169 -0.1458  5.0329 -2.2357
  446MOL0     H58853   6.510  10.848   1.258  0.0317  0.4819  4.2414
  446MOL0     H58854   7.575  10.654   1.462  3.1371 -2.4668 -1.5231
  446MOL0     H58855   7.802  10.686   1.527 -3.8977  0.4772  3.6602
  446MOL0     H58856   8.198  10.804   1.390 -1.9393  2.7553 -1.8840
  446MOL0     H58857   8.424  10.769   1.412  2.3254  1.7074 -0.1481
  446MOL0     H58858   8.128   9.910   1.974 -0.3199  1.5639  0.9200
  446MOL0     H58859   7.892   9.846   1.893  1.7559 -1.2928  0.0574
  446MOL0     H58860   7.302   9.956   2.078  4.2271  2.0505  0.3371
  446MOL0     H58861   7.124   9.936   1.921  0.6694 -0.9682  1.0699
  446MOL0     H58862   6.988   9.946   1.765  1.6062  1.3281  0.6520
  446MOL0     H58863   7.029   9.794   1.661 -1.8196  1.0190 -2.0944
  446MOL0     H58864   6.938  10.050   1.556  1.3197  0.2304  1.8001
  446MOL0     H58865   6.971   9.886   1.481  2.9630 -0.7079  2.6634
  446MOL0     H58866   6.746  10.010   1.638  0.7262 -2.6649  4.3056
  446MOL0     H58867   6.766   9.827   1.650  1.7711 -1.2611  1.0739
  446MOL0     H58868   6.699   9.960   1.387  0.9401  0.9498 -0.4674
  446MOL0     H58869   6.784   9.806   1.411 -1.6854  0.1526 -2.1543
  446MOL0     H58870   6.379   9.701   1.517  0.5945  0.9824  2.6243
  446MOL0     H58871   7.416   9.940   1.598  1.7550  1.3466  0.1875
  446MOL0     H58872   7.591   9.961   1.767 -1.0562  0.7383 -0.2260
  447MOL0     O58873   8.058   1.692   9.580 -0.1753  0.4048 -0.2522
  447MOL0     C58874   7.947   1.727   9.614  0.0718  0.9889 -0.6936
  447MOL0     O58875   7.907   1.756   9.742 -0.7497  0.5293  0.3881
  447MOL0     C58876   8.005   1.781   9.827 -0.3399  0.5230 -0.4097
  447MOL0     C58877   8.056   1.907   9.853  0.9427 -0.9895  0.2923
  447MOL0     C58878   8.146   1.938   9.958  0.0833 -0.3469  0.2419
  447MOL0     C58879   8.205   1.837  10.031 -0.0513 -0.3206 -0.1874
  447MOL0     O58880   8.306   1.853  10.125 -0.0661  0.6436  0.8102
  447MOL0     C58881   8.424   1.924  10.078  0.9131  0.7236  0.0729
  447MOL0     C58882   8.510   1.954  10.196  0.4193 -0.3384  0.3780
  447MOL0     C58883   8.544   1.832  10.276  0.3132  0.3482  0.8119
  447MOL0     C58884   8.680   1.871  10.346 -0.1297 -0.1339 -0.4848
  447MOL0     C58885   8.719   1.767  10.450  0.3228  0.3707 -0.3134
  447MOL0     C58886   8.751   1.624  10.400 -0.0859 -0.3667  0.0743
  447MOL0     C58887   8.782   1.532  10.517 -0.2135 -0.1771 -0.6519
  447MOL0     C58888   8.892   1.582  10.620 -0.1057  0.6629 -0.4840
  447MOL0     N58889   9.021   1.607  10.564 -0.0292  0.9088 -0.5649
  447MOL0     C58890   9.089   1.526  10.473 -0.2261  0.1006 -0.4109
  447MOL0     C58891   9.213   1.578  10.468 -0.4219 -0.1898  0.2632
  447MOL0     C58892   9.320   1.524  10.386  1.2588 -0.5381 -0.3377
  447MOL0     C58893   9.348   1.591  10.256  0.1584  0.2174  0.9338
  447MOL0     C58894   9.426   1.492  10.159 -0.0396 -0.1391 -0.9034
  447MOL0     C58895   9.560   1.457  10.215  0.1128 -0.1947 -0.3484
  447MOL0     O58896   9.646   1.567  10.231  0.3260  0.8526  0.6129
  447MOL0     C58897   9.780   1.535  10.243  0.2836 -0.4260 -0.1305
  447MOL0     C58898   9.873   1.637  10.221  0.4850 -0.0189  0.7344
  447MOL0     C58899  10.006   1.605  10.215 -0.4371  0.1913  0.2527
  447MOL0     C58900  10.061   1.483  10.238  0.0011  0.9059 -0.3519
  447MOL0     C58901  10.206   1.447  10.224 -0.0653 -0.2938  1.0869
  447MOL0     O58902  10.293   1.550  10.209  1.3828 -0.5509  0.0678
  447MOL0     C58903  10.415   1.521  10.165 -0.7624  0.5256  0.1495
  447MOL0     C58904  10.524   1.513  10.246 -0.6878  0.4064 -0.3549
  447MOL0     C58905  10.652   1.483  10.198 -0.3918 -0.4177 -0.0985
  447MOL0     C58906  10.682   1.472  10.062 -0.2071  0.3907 -0.1347
  447MOL0     O58907  10.807   1.477  10.012  0.0573  0.3213  0.2181
  447MOL0     C58908  10.844   1.389   9.908 -0.0072  0.4152 -1.0699
  447MOL0     C58909  10.987   1.354   9.918 -0.7979 -0.5712 -0.0004
  447MOL0     C58910  11.028   1.270  10.040  0.1465 -0.3160 -0.2658
  447MOL0     C58911  11.183   1.259  10.045 -0.5825  0.1927  0.0983
  447MOL0     C58912  11.224   1.113  10.054 -0.2738  0.1084  0.6423
  447MOL0     C58913  11.189   1.048  10.190  0.4479 -0.0368 -0.8076
  447MOL0     C58914  11.276   0.929  10.227 -0.4566 -0.0463 -0.2786
  447MOL0     C58915  11.219   0.804  10.176  0.1088  0.3247 -0.4238
  447MOL0    Cl58916  11.336   0.665  10.202  0.0767 -0.0888  0.0949
  447MOL0     C58917  10.572   1.492   9.979 -0.2037 -0.7717  0.8543
  447MOL0     C58918  10.442   1.504  10.027 -0.5759  0.0281  0.5780
  447MOL0     O58919  10.228   1.325  10.215 -0.2373 -0.5524  0.1027
  447MOL0     C58920   9.964   1.382  10.273 -0.0316 -0.3443  0.0387
  447MOL0     C58921   9.828   1.405  10.263 -0.8234 -0.8039 -0.4831
  447MOL0     N58922   9.219   1.684  10.545 -0.0788 -1.0111  0.3843
  447MOL0     N58923   9.102   1.706  10.599  0.0026 -0.1164  0.0108
  447MOL0     C58924   8.159   1.707   9.996 -0.2498  0.3227 -0.1257
  447MOL0     C58925   8.064   1.684   9.902 -0.5194  0.4624  0.4248
  447MOL0     C58926   7.844   1.732   9.512  0.1562 -0.0541 -0.1056
  447MOL0     C58927   7.870   1.732   9.379 -0.3765 -0.1430 -0.2024
  447MOL0     C58928   7.770   1.740   9.284  0.8578  0.1440  0.0464
  447MOL0     C58929   7.626   1.733   9.319  0.3772 -0.2193 -0.3069
  447MOL0     O58930   7.533   1.716   9.215  0.6962  0.3913 -0.8204
  447MOL0     C58931   7.392   1.755   9.242 -0.3136 -0.3658  0.0488
  447MOL0     C58932   7.331   1.824   9.119 -0.4875  0.8142 -0.1129
  447MOL0     C58933   7.349   1.724   8.999  0.0761  0.2247 -0.8754
  447MOL0     C58934   7.298   1.786   8.866  0.4061  0.1558  0.0210
  447MOL0     C58935   7.148   1.784   8.863 -0.1571 -0.8093 -0.4009
  447MOL0     C58936   7.028   1.801   8.852 -0.3509 -0.3190 -0.6175
  447MOL0     C58937   7.603   1.711   9.458 -1.4047 -0.0075  0.2302
  447MOL0     C58938   7.702   1.732   9.547 -0.0863 -0.2081 -1.0778
  447MOL0     H58939   8.029   1.988   9.786 -2.0854 -1.3446  0.9634
  447MOL0     H58940   8.192   2.036   9.968  0.8342 -0.3153 -2.6802
  447MOL0     H58941   8.405   2.012  10.016  1.5149 -0.1873 -1.4566
  447MOL0     H58942   8.481   1.856  10.013 -0.8017 -0.9546  0.2296
  447MOL0     H58943   8.459   2.032  10.253 -1.5250 -1.0457 -0.3187
  447MOL0     H58944   8.599   2.006  10.160 -0.9430  0.7713 -1.5013
  447MOL0     H58945   8.558   1.749  10.207  0.2100 -0.7295  2.0469
  447MOL0     H58946   8.475   1.808  10.357  1.5418 -0.8280  1.5526
  447MOL0     H58947   8.763   1.880  10.276 -0.4954 -1.6873 -1.1569
  447MOL0     H58948   8.668   1.964  10.401  2.0962 -0.3000  0.3725
  447MOL0     H58949   8.630   1.752  10.513  2.2840 -0.6711  2.4023
  447MOL0     H58950   8.799   1.802  10.516 -0.6418  1.2000  0.4478
  447MOL0     H58951   8.835   1.643  10.334  0.2411  2.9329  1.2640
  447MOL0     H58952   8.673   1.584  10.335  0.5624 -2.0195  0.2703
  447MOL0     H58953   8.697   1.514  10.582  2.1423  2.2983  3.5631
  447MOL0     H58954   8.812   1.438  10.469 -1.9332 -0.6033 -0.9469
  447MOL0     H58955   8.894   1.503  10.696  0.5716 -0.1346 -1.3192
  447MOL0     H58956   8.860   1.679  10.661 -0.4288 -0.2121  1.4244
  447MOL0     H58957   9.047   1.438  10.427 -0.2476  0.0709 -0.3350
  447MOL0     H58958   9.294   1.418  10.377  0.9170 -0.2649 -4.0287
  447MOL0     H58959   9.409   1.538  10.449  1.7815  3.1464 -1.6355
  447MOL0     H58960   9.402   1.687  10.260 -0.0797  0.3116  3.3826
  447MOL0     H58961   9.255   1.604  10.200 -0.1936 -1.5334  1.0538
  447MOL0     H58962   9.363   1.405  10.141 -1.3087  0.6375 -0.3521
  447MOL0     H58963   9.440   1.542  10.062  2.5632 -0.1570 -0.6045
  447MOL0     H58964   9.596   1.386  10.140 -2.7046 -0.0728 -1.9429
  447MOL0     H58965   9.541   1.400  10.307 -3.2666 -0.4343 -1.0805
  447MOL0     H58966   9.838   1.738  10.203  0.3841  0.1024  1.5647
  447MOL0     H58967  10.082   1.682  10.215  1.8916 -1.9628 -0.4498
  447MOL0     H58968  10.518   1.527  10.353  3.3747 -1.7413  0.3454
  447MOL0     H58969  10.733   1.472  10.269 -0.9235 -0.2120  0.5461
  447MOL0     H58970  10.815   1.429   9.811 -0.5767 -1.2453 -1.6075
  447MOL0     H58971  10.794   1.292   9.917  1.1393 -0.0552  0.9592
  447MOL0     H58972  11.037   1.451   9.908 -3.1514  0.7740  0.5957
  447MOL0     H58973  11.005   1.308   9.820  2.2376 -0.1742  0.2497
  447MOL0     H58974  10.982   1.172  10.021  3.3801 -2.5685  2.3459
  447MOL0     H58975  10.987   1.308  10.133 -1.1801 -1.5298 -0.3299
  447MOL0     H58976  11.222   1.300   9.952  1.3714  0.5275  1.0176
  447MOL0     H58977  11.210   1.319  10.133  0.6094  3.8073 -2.5094
  447MOL0     H58978  11.331   1.113  10.036 -0.1605  0.1334  1.2931
  447MOL0     H58979  11.180   1.059   9.970  0.1849  0.7501 -0.0200
  447MOL0     H58980  11.082   1.029  10.179 -0.0571 -0.8923  3.5514
  447MOL0     H58981  11.209   1.125  10.265 -0.3092 -2.0346  1.5762
  447MOL0     H58982  11.382   0.937  10.203  0.5361  0.7709  3.6765
  447MOL0     H58983  11.276   0.910  10.335 -1.5675 -2.4522 -0.6342
  447MOL0     H58984  11.197   0.825  10.071  2.3386  2.0453 -0.6175
  447MOL0     H58985  11.121   0.776  10.215  1.4464 -1.8595  1.6797
  447MOL0     H58986  10.585   1.502   9.872  1.2522  0.6807  1.1250
  447MOL0     H58987  10.361   1.482   9.959 -0.2082 -1.3286  0.5443
  447MOL0     H58988  10.001   1.281  10.289 -1.4603 -1.2328 -1.8829
  447MOL0     H58989   9.761   1.323  10.287 -2.5890  0.9662  0.9820
  447MOL0     H58990   8.199   1.627  10.059  0.6474 -0.2579 -1.3944
  447MOL0     H58991   8.033   1.581   9.889 -1.8471  0.5366  2.5362
  447MOL0     H58992   7.970   1.743   9.340 -0.1383 -1.0695  0.1346
  447MOL0     H58993   7.794   1.747   9.178 -0.7312  2.0907 -0.2310
  447MOL0     H58994   7.390   1.829   9.322  0.9623  0.0143 -0.2413
  447MOL0     H58995   7.327   1.669   9.261 -1.3982  0.2094 -0.9734
  447MOL0     H58996   7.225   1.839   9.140 -0.4115 -0.1638  1.0751
  447MOL0     H58997   7.390   1.914   9.103  2.7257 -1.2638 -1.0163
  447MOL0     H58998   7.315   1.622   9.021  2.5339  0.0060  3.0450
  447MOL0     H58999   7.459   1.722   8.992  0.5632 -2.6605  3.3422
  447MOL0     H59000   7.319   1.891   8.844 -1.5475  0.0008 -3.2422
  447MOL0     H59001   7.327   1.724   8.781 -0.0890 -0.5353  0.3441
  447MOL0     H59002   6.921   1.794   8.847 -0.2692 -1.3081 -1.1107
  447MOL0     H59003   7.505   1.678   9.492 -1.5393 -0.4604 -0.5743
  447MOL0     H59004   7.682   1.731   9.654 -1.4189  1.7403 -1.2536
  448MOL0     O59005   6.794   0.676   4.968  1.0079 -0.4737  0.3947
  448MOL0     C59006   6.760   0.565   4.932  0.9804 -0.4638  0.1199
  448MOL0     O59007   6.627   0.522   4.921 -0.3865  0.6328  0.7413
  448MOL0     C59008   6.529   0.613   4.906 -0.3004  0.0371 -0.1030
  448MOL0     C59009   6.401   0.567   4.925 -0.8280 -1.1434 -0.3992
  448MOL0     C59010   6.293   0.655   4.900 -1.1058  0.6797  0.6746
  448MOL0     C59011   6.310   0.770   4.822 -1.0938 -0.4983 -0.0237
  448MOL0     O59012   6.192   0.836   4.786  0.2322  0.2924 -0.0966
  448MOL0     C59013   6.195   0.979   4.782 -0.4785 -0.3342  1.1287
  448MOL0     C59014   6.057   1.027   4.709  0.3026  0.2026  0.9804
  448MOL0     C59015   5.954   0.995   4.817 -0.2672 -0.2999  0.5359
  448MOL0     C59016   5.832   1.082   4.799 -0.1004  0.5136  0.0129
  448MOL0     C59017   5.722   1.060   4.903  0.6197  0.2818 -0.6060
  448MOL0     C59018   5.590   1.132   4.867  0.2938  0.2581 -0.2283
  448MOL0     C59019   5.472   1.105   4.962 -0.0327  0.4314  0.9240
  448MOL0     C59020   5.486   1.180   5.089 -0.1903 -0.3027  0.4229
  448MOL0     N59021   5.406   1.143   5.205 -0.7866 -0.0542 -0.2322
  448MOL0     C59022   5.271   1.120   5.210  0.1691  0.4038  0.0742
  448MOL0     C59023   5.248   1.074   5.330 -0.4497  0.8174 -0.3000
  448MOL0     C59024   5.124   1.040   5.402  0.3195  0.2843  0.4947
  448MOL0     C59025   5.037   1.166   5.395  1.0890  0.3716  0.4151
  448MOL0     C59026   4.901   1.150   5.473 -0.2091  0.9586  0.8687
  448MOL0     C59027   4.834   1.290   5.480 -0.0625  0.4568  0.8382
  448MOL0     O59028   4.910   1.395   5.537  0.7011 -0.6898 -0.5624
  448MOL0     C59029   4.858   1.520   5.508 -0.1005 -1.1342  0.5242
  448MOL0     C59030   4.944   1.633   5.533 -0.3485  0.2331 -0.1301
  448MOL0     C59031   4.901   1.764   5.499  0.2519 -0.9141 -0.0463
  448MOL0     C59032   4.776   1.790   5.444  0.2581 -0.1794  0.0694
  448MOL0     C59033   4.733   1.931   5.404  0.2685  0.4668 -0.9860
  448MOL0     O59034   4.605   1.939   5.396  0.2475 -0.1621  0.8568
  448MOL0     C59035   4.545   2.063   5.374 -0.2519  0.2424  0.0298
  448MOL0     C59036   4.575   2.183   5.445  0.3435  0.5354  0.3924
  448MOL0     C59037   4.513   2.301   5.402  0.1803 -0.8157 -0.1864
  448MOL0     C59038   4.413   2.299   5.303 -0.7590  0.2090 -1.1584
  448MOL0     O59039   4.361   2.422   5.275  0.3671 -0.0492  0.7195
  448MOL0     C59040   4.237   2.419   5.201  0.1099  0.9922 -0.1594
  448MOL0     C59041   4.201   2.572   5.189 -0.2263  0.3110  0.2305
  448MOL0     C59042   4.059   2.577   5.149  0.3698  0.7194  0.1254
  448MOL0     C59043   3.998   2.710   5.162  0.8114 -1.0146 -0.7884
  448MOL0     C59044   3.846   2.717   5.130 -0.0755 -0.1402  0.1738
  448MOL0     C59045   3.761   2.615   5.201 -1.2153 -0.0520  0.4261
  448MOL0     C59046   3.785   2.597   5.341  0.9612  0.0347 -0.5234
  448MOL0     C59047   3.649   2.552   5.407 -0.1819  0.0462 -0.4398
  448MOL0    Cl59048   3.526   2.688   5.390  0.0520  0.1488  0.3638
  448MOL0     C59049   4.387   2.182   5.237 -0.1657  1.0107  0.1806
  448MOL0     C59050   4.452   2.064   5.268  1.2158 -0.4856 -0.3375
  448MOL0     O59051   4.811   2.020   5.421  0.1534  0.0618  0.8893
  448MOL0     C59052   4.697   1.681   5.411  0.7947  0.4266  0.6374
  448MOL0     C59053   4.732   1.555   5.438 -0.7816  0.3224  0.0944
  448MOL0     N59054   5.371   1.058   5.393 -0.7290 -0.4182  0.2160
  448MOL0     N59055   5.465   1.105   5.325 -0.3221 -0.6390  0.2452
  448MOL0     C59056   6.446   0.811   4.798  0.1494 -0.3372 -0.6695
  448MOL0     C59057   6.549   0.733   4.842 -0.5360 -0.4648 -0.5359
  448MOL0     C59058   6.864   0.463   4.916 -0.6155  0.3121 -0.4777
  448MOL0     C59059   6.837   0.329   4.931 -0.6221 -0.6651 -0.4526
  448MOL0     C59060   6.937   0.232   4.925 -0.5270 -0.6057  0.2771
  448MOL0     C59061   7.071   0.266   4.909 -0.0915 -0.5394 -0.5194
  448MOL0     O59062   7.167   0.169   4.884  0.2876  0.2127 -0.3161
  448MOL0     C59063   7.303   0.198   4.936 -0.7547  0.1277  0.3210
  448MOL0     C59064   7.392   0.089   4.900 -0.5799  0.3233  0.3289
  448MOL0     C59065   7.335  -0.052   4.961 -0.1728 -0.5481 -0.0368
  448MOL0     C59066   7.365  -0.061   5.114  0.6230  1.0531 -0.4792
  448MOL0     C59067   7.511  -0.076   5.135  0.3220 -0.2917  0.2729
  448MOL0     C59068   7.626  -0.108   5.152 -0.9138  0.0246 -0.9060
  448MOL0     C59069   7.100   0.402   4.885 -1.1588 -0.1947  0.0115
  448MOL0     C59070   6.999   0.507   4.892  0.1854  0.1688  0.1132
  448MOL0     H59071   6.368   0.468   4.956 -1.2325 -0.1888  2.4869
  448MOL0     H59072   6.190   0.630   4.925 -1.5317  2.7083  1.1723
  448MOL0     H59073   6.277   1.010   4.717 -2.2243 -0.9070 -1.5025
  448MOL0     H59074   6.207   1.029   4.879  0.3190 -0.6859  1.2169
  448MOL0     H59075   6.036   0.961   4.624 -0.7566 -0.3677  1.6546
  448MOL0     H59076   6.063   1.132   4.679  0.7637  0.2478  1.2183
  448MOL0     H59077   5.998   1.011   4.916  2.0821 -0.4079 -0.4219
  448MOL0     H59078   5.912   0.894   4.813 -3.4891  0.9451 -0.1506
  448MOL0     H59079   5.863   1.187   4.803  0.0402  0.4795 -0.1853
  448MOL0     H59080   5.797   1.073   4.696 -0.6957  0.4210  0.2162
  448MOL0     H59081   5.755   1.107   4.996  1.1799  2.0351 -1.6502
  448MOL0     H59082   5.700   0.954   4.922 -2.6178  1.0859  0.9860
  448MOL0     H59083   5.562   1.099   4.766  1.3768  0.0200 -0.4668
  448MOL0     H59084   5.596   1.240   4.854  2.4655  0.0897 -0.9551
  448MOL0     H59085   5.378   1.133   4.914 -0.4408 -1.2788  0.6280
  448MOL0     H59086   5.481   0.999   4.989  1.1369  0.5006  0.8648
  448MOL0     H59087   5.472   1.286   5.066 -0.1535 -0.2278  0.7447
  448MOL0     H59088   5.588   1.169   5.125 -0.5132 -1.0486  1.1518
  448MOL0     H59089   5.194   1.150   5.139 -1.8158 -1.5089  1.2767
  448MOL0     H59090   5.140   1.033   5.510  1.7403  1.3011  0.3590
  448MOL0     H59091   5.071   0.955   5.357 -4.2565  2.8164  0.5230
  448MOL0     H59092   5.008   1.176   5.291 -1.2214  1.4330  1.1158
  448MOL0     H59093   5.091   1.257   5.424  1.7724  1.0777 -2.7706
  448MOL0     H59094   4.827   1.100   5.411  1.1303  0.8933 -0.7249
  448MOL0     H59095   4.908   1.101   5.571 -2.6436 -3.1950 -0.7835
  448MOL0     H59096   4.745   1.269   5.541  1.2594 -3.1378  1.7887
  448MOL0     H59097   4.802   1.304   5.377 -1.5087 -2.0702  0.8626
  448MOL0     H59098   5.042   1.604   5.571 -0.1305 -0.0986 -0.9264
  448MOL0     H59099   4.967   1.845   5.527  1.6425 -2.0799  0.1446
  448MOL0     H59100   4.651   2.183   5.522  1.1814  2.9882 -0.3400
  448MOL0     H59101   4.537   2.392   5.457 -2.3586 -1.0177  1.4119
  448MOL0     H59102   4.161   2.359   5.252  0.3288  0.3758 -0.5504
  448MOL0     H59103   4.251   2.385   5.098  0.3665  1.0483 -0.1430
  448MOL0     H59104   4.265   2.633   5.124  2.2636 -1.5506  0.7739
  448MOL0     H59105   4.211   2.625   5.284  1.9283 -0.9442  0.7800
  448MOL0     H59106   4.008   2.498   5.205  0.2386 -0.1251 -1.1421
  448MOL0     H59107   4.052   2.546   5.045  1.3814  0.6878  0.0567
  448MOL0     H59108   4.015   2.747   5.264  1.6628  1.3419 -1.7372
  448MOL0     H59109   4.043   2.774   5.086 -0.2436  0.1637 -0.4525
  448MOL0     H59110   3.826   2.723   5.022 -0.4946  6.7343  0.1410
  448MOL0     H59111   3.809   2.814   5.166  1.8690  0.6363  0.2183
  448MOL0     H59112   3.787   2.522   5.149 -1.3548  1.4835 -2.6715
  448MOL0     H59113   3.659   2.641   5.170 -1.3714 -0.7498  0.3474
  448MOL0     H59114   3.860   2.520   5.362 -2.0120 -2.8938  0.2938
  448MOL0     H59115   3.807   2.690   5.393  1.0169 -0.8765  1.1719
  448MOL0     H59116   3.665   2.532   5.514  0.3548 -1.6535 -0.8035
  448MOL0     H59117   3.623   2.457   5.358 -2.4532  2.4953 -4.4604
  448MOL0     H59118   4.316   2.169   5.155  0.2349 -0.3012  0.0177
  448MOL0     H59119   4.426   1.974   5.212  1.2298  0.6713 -2.2957
  448MOL0     H59120   4.611   1.692   5.346  1.4489 -3.8237 -1.2835
  448MOL0     H59121   4.658   1.480   5.412 -0.9254  0.1254  1.0378
  448MOL0     H59122   6.461   0.895   4.732  0.2666  0.2850  0.1398
  448MOL0     H59123   6.649   0.761   4.810 -0.6689  0.1821 -0.4115
  448MOL0     H59124   6.738   0.295   4.959  0.5845 -2.5187  1.9418
  448MOL0     H59125   6.904   0.129   4.938  0.3259 -0.7932  1.0801
  448MOL0     H59126   7.307   0.203   5.045  0.4452 -1.4495  0.3846
  448MOL0     H59127   7.352   0.288   4.897  2.2409 -1.3811  0.3071
  448MOL0     H59128   7.394   0.087   4.791 -3.9778  0.3617  0.1675
  448MOL0     H59129   7.494   0.100   4.938 -0.3795 -1.7787  0.5488
  448MOL0     H59130   7.378  -0.141   4.915 -0.2635  0.1555 -1.5480
  448MOL0     H59131   7.228  -0.059   4.942 -0.2844 -0.2618  0.4471
  448MOL0     H59132   7.324   0.026   5.166  0.1732  1.2271 -1.1107
  448MOL0     H59133   7.322  -0.155   5.148  0.2878  1.0091 -1.0180
  448MOL0     H59134   7.730  -0.122   5.175 -0.5193 -0.1363 -2.6295
  448MOL0     H59135   7.205   0.423   4.869 -1.6533  1.0675 -1.8661
  448MOL0     H59136   7.031   0.609   4.875  2.9707 -0.9423 -1.9492
  449MOL0     O59137   9.546   5.337   5.735  0.0983  0.6551  0.2694
  449MOL0     C59138   9.606   5.296   5.836 -0.7003 -0.1588  0.3294
  449MOL0     O59139   9.549   5.234   5.943  0.1516 -0.3711 -0.0974
  449MOL0     C59140   9.411   5.230   5.943  0.5336  0.3444  0.4057
  449MOL0     C59141   9.333   5.339   5.967 -0.3290  0.6632 -0.6952
  449MOL0     C59142   9.189   5.323   5.950  0.0338  0.1120  0.3729
  449MOL0     C59143   9.122   5.208   5.896 -0.7068  0.9102  0.0707
  449MOL0     O59144   8.981   5.205   5.880 -0.4854  0.7750  0.3588
  449MOL0     C59145   8.921   5.127   5.985  2.0491  0.4715  0.8054
  449MOL0     C59146   8.768   5.152   5.993 -0.2173 -0.0844 -0.3064
  449MOL0     C59147   8.693   5.038   5.928  0.5738  0.6280  0.0357
  449MOL0     C59148   8.539   5.045   5.927 -0.4908  0.8305  0.5265
  449MOL0     C59149   8.480   4.902   5.934 -0.3165  0.3624  0.0004
  449MOL0     C59150   8.540   4.809   6.055  0.3339  0.0048  0.7533
  449MOL0     C59151   8.523   4.853   6.198 -0.6396  0.3726  0.1059
  449MOL0     C59152   8.609   4.773   6.301 -0.1852  0.4514 -1.1047
  449MOL0     N59153   8.752   4.801   6.273  0.0270 -0.3467 -0.4839
  449MOL0     C59154   8.819   4.907   6.335  0.0825  0.1558 -0.1022
  449MOL0     C59155   8.941   4.915   6.281  0.1726  0.6169  0.2425
  449MOL0     C59156   9.048   5.014   6.317 -0.3097 -0.2710 -0.9575
  449MOL0     C59157   9.180   4.942   6.303 -0.3648 -0.1924  0.0672
  449MOL0     C59158   9.310   5.022   6.286 -0.2168 -1.0078 -0.6875
  449MOL0     C59159   9.374   5.058   6.421  0.9718  0.7071 -0.2672
  449MOL0     O59160   9.480   5.150   6.404  0.7012 -0.8616  0.3386
  449MOL0     C59161   9.599   5.110   6.362  0.3277 -0.4606 -0.6463
  449MOL0     C59162   9.692   5.209   6.365 -0.3631  0.3863 -0.5627
  449MOL0     C59163   9.826   5.187   6.343 -0.2024 -0.7810  0.4523
  449MOL0     C59164   9.862   5.052   6.305 -0.9144  0.3754 -0.1861
  449MOL0     C59165   9.999   5.026   6.257 -0.5486  0.2387  0.0225
  449MOL0     O59166  10.035   4.901   6.213  0.2231 -0.2980  0.4223
  449MOL0     C59167  10.169   4.863   6.206  0.0806  0.8711 -0.3208
  449MOL0     C59168  10.184   4.733   6.240 -0.0762 -0.0329  0.4017
  449MOL0     C59169  10.312   4.676   6.245  0.4159 -0.0002 -0.1729
  449MOL0     C59170  10.416   4.747   6.192 -0.3856  0.7085 -1.3657
  449MOL0     O59171  10.545   4.675   6.186  0.2543 -0.4208 -0.2865
  449MOL0     C59172  10.655   4.757   6.229 -0.0587  0.1053  0.3927
  449MOL0     C59173  10.789   4.678   6.251 -0.1385 -0.6639 -1.2566
  449MOL0     C59174  10.769   4.603   6.377 -0.2027  0.0755  0.3766
  449MOL0     C59175  10.890   4.492   6.391  0.2648  0.1628  0.3348
  449MOL0     C59176  10.882   4.399   6.516 -0.3762 -0.1873  0.0861
  449MOL0     C59177  10.918   4.252   6.492  0.4497 -0.7415 -0.2420
  449MOL0     C59178  10.937   4.160   6.615  0.9942 -0.6809 -0.7837
  449MOL0     C59179  11.018   4.224   6.724 -0.3896  0.0300  1.3487
  449MOL0    Cl59180  10.916   4.310   6.828 -0.5529  0.4560  0.3303
  449MOL0     C59181  10.402   4.885   6.172 -0.8026 -0.1013  0.1850
  449MOL0     C59182  10.279   4.941   6.168 -0.1613 -0.5106  0.0683
  449MOL0     O59183  10.080   5.122   6.266  0.1442  0.1050  0.3806
  449MOL0     C59184   9.767   4.944   6.301  0.9588 -0.4461  0.3226
  449MOL0     C59185   9.630   4.976   6.330 -0.2207 -0.6947 -0.8834
  449MOL0     N59186   8.949   4.819   6.176 -0.6092 -0.2170 -0.2274
  449MOL0     N59187   8.837   4.759   6.178 -0.7563  0.6837 -0.1349
  449MOL0     C59188   9.213   5.100   5.877 -0.4334  0.0670 -0.7985
  449MOL0     C59189   9.350   5.114   5.904 -0.3350  0.3175  0.4987
  449MOL0     C59190   9.760   5.308   5.830 -0.7591 -0.1595  1.1457
  449MOL0     C59191   9.826   5.357   5.716  0.2815 -1.2418 -0.0787
  449MOL0     C59192   9.961   5.361   5.713  0.2982  0.1647 -0.8449
  449MOL0     C59193  10.041   5.330   5.820  0.2194  0.3664 -0.2074
  449MOL0     O59194  10.175   5.341   5.803 -0.6567 -0.8445  0.5484
  449MOL0     C59195  10.247   5.222   5.830 -0.5420 -0.0181  0.1834
  449MOL0     C59196  10.362   5.198   5.721 -0.3427  0.0577 -0.9655
  449MOL0     C59197  10.452   5.079   5.772  0.2988  0.0460 -0.2690
  449MOL0     C59198  10.398   4.943   5.800  0.9733  0.1431 -0.3491
  449MOL0     C59199  10.498   4.852   5.852  0.9014  0.8962  0.0563
  449MOL0     C59200  10.586   4.777   5.892  1.0353  0.3452  0.6388
  449MOL0     C59201   9.979   5.296   5.937  0.7222 -0.5195 -1.0007
  449MOL0     C59202   9.840   5.283   5.941  1.3492 -0.1564 -1.0109
  449MOL0     H59203   9.372   5.435   5.998 -1.3130  0.8304  0.1053
  449MOL0     H59204   9.129   5.398   5.999  1.8347  0.4960  2.1039
  449MOL0     H59205   8.953   5.176   6.078  0.0576 -0.2303  1.9135
  449MOL0     H59206   8.940   5.019   5.980  0.1717  0.1355  0.2094
  449MOL0     H59207   8.749   5.245   5.939  2.8467  1.3282  0.7868
  449MOL0     H59208   8.728   5.159   6.095 -0.3665 -0.1386 -0.3612
  449MOL0     H59209   8.731   4.945   5.972  1.2814  1.0278  0.2919
  449MOL0     H59210   8.733   5.027   5.826  0.8426 -2.2039  0.3749
  449MOL0     H59211   8.503   5.109   6.008  1.1198  1.0498  1.1114
  449MOL0     H59212   8.507   5.088   5.832  1.9692 -0.5603 -1.0445
  449MOL0     H59213   8.504   4.843   5.845 -0.7482 -0.5196  0.4465
  449MOL0     H59214   8.371   4.906   5.944 -0.5933 -1.7584 -1.2995
  449MOL0     H59215   8.645   4.790   6.029 -0.3309 -0.0093 -2.2641
  449MOL0     H59216   8.490   4.712   6.043  0.6602  0.0641 -1.7451
  449MOL0     H59217   8.549   4.959   6.196 -0.0851  0.2734 -3.1533
  449MOL0     H59218   8.417   4.849   6.225 -0.4429  3.0646  1.6041
  449MOL0     H59219   8.591   4.666   6.291  0.7248  0.1318  0.3370
  449MOL0     H59220   8.578   4.807   6.400  0.2323  0.9870 -1.1546
  449MOL0     H59221   8.781   4.979   6.406  0.7993  1.0000 -0.5615
  449MOL0     H59222   9.049   5.033   6.425 -1.6846  1.6495 -1.2300
  449MOL0     H59223   9.035   5.105   6.259 -1.4896 -0.0440 -0.3731
  449MOL0     H59224   9.165   4.881   6.213  1.3183 -0.1699 -0.2649
  449MOL0     H59225   9.202   4.880   6.390  0.5724  0.2181  0.1301
  449MOL0     H59226   9.372   4.950   6.231 -0.3416 -1.9179  0.3262
  449MOL0     H59227   9.295   5.110   6.224 -1.5671  0.9340  2.1776
  449MOL0     H59228   9.396   4.959   6.463  0.9084  1.2169  1.0432
  449MOL0     H59229   9.298   5.103   6.485  1.1166  2.3513 -1.2102
  449MOL0     H59230   9.659   5.311   6.385  0.6857  0.7327 -0.5484
  449MOL0     H59231   9.898   5.268   6.338 -2.3907  1.2251 -0.4196
  449MOL0     H59232  10.095   4.671   6.246  0.6983 -1.1394  0.7363
  449MOL0     H59233  10.327   4.570   6.267 -0.1857 -0.3441 -1.3623
  449MOL0     H59234  10.643   4.813   6.322 -0.0088  0.5808  0.1157
  449MOL0     H59235  10.671   4.829   6.148 -1.7238 -1.2697 -1.2390
  449MOL0     H59236  10.862   4.759   6.260 -0.9690  0.0750 -1.0962
  449MOL0     H59237  10.805   4.609   6.167  0.5258 -3.4916  1.0149
  449MOL0     H59238  10.673   4.550   6.377  1.3993 -3.1441 -0.7742
  449MOL0     H59239  10.780   4.673   6.460 -1.9536  3.5301 -2.0816
  449MOL0     H59240  10.884   4.423   6.306  1.4165  1.3658 -0.7602
  449MOL0     H59241  10.986   4.544   6.385  0.0828  0.3437 -1.8810
  449MOL0     H59242  10.778   4.394   6.547 -0.4381 -0.6288 -0.1904
  449MOL0     H59243  10.953   4.430   6.593  2.7447 -0.1874 -2.5406
  449MOL0     H59244  11.013   4.255   6.438  0.6051 -0.6305  0.0371
  449MOL0     H59245  10.847   4.197   6.430 -1.3106 -1.0827  1.9598
  449MOL0     H59246  10.841   4.134   6.661  1.4331  2.4149  2.3034
  449MOL0     H59247  10.979   4.061   6.595 -1.8300 -1.8695 -1.3707
  449MOL0     H59248  11.098   4.285   6.680 -0.6834  0.3169  1.2094
  449MOL0     H59249  11.067   4.147   6.784 -1.9424 -1.2630  1.0215
  449MOL0     H59250  10.481   4.945   6.128 -1.7099 -0.9112 -2.7901
  449MOL0     H59251  10.269   5.045   6.140 -1.4506 -0.6874 -0.1936
  449MOL0     H59252   9.800   4.841   6.289 -0.0623 -0.7275 -0.1528
  449MOL0     H59253   9.567   4.889   6.339  0.1807 -0.9170 -0.1161
  449MOL0     H59254   9.177   5.006   5.837  2.3981 -1.0080 -1.0474
  449MOL0     H59255   9.412   5.026   5.887  0.8471  0.8785  1.7541
  449MOL0     H59256   9.773   5.370   5.622  0.1598 -1.6054 -0.0615
  449MOL0     H59257  10.004   5.398   5.621 -0.1374 -1.4704 -1.7500
  449MOL0     H59258  10.173   5.143   5.818 -0.2524 -0.2657  0.0308
  449MOL0     H59259  10.292   5.222   5.930 -1.0695 -1.3314  0.4403
  449MOL0     H59260  10.322   5.166   5.625 -3.6242  0.3750  0.1793
  449MOL0     H59261  10.422   5.289   5.719  0.2342 -0.1992  1.1933
  449MOL0     H59262  10.499   5.114   5.865 -1.6438  0.4597  0.6164
  449MOL0     H59263  10.519   5.056   5.689 -1.1419 -3.1412 -0.6794
  449MOL0     H59264  10.330   4.955   5.885  2.0256  2.4766  0.2547
  449MOL0     H59265  10.349   4.893   5.717  0.4040 -0.3319  0.2668
  449MOL0     H59266  10.655   4.708   5.936  0.3715 -0.7826 -0.0470
  449MOL0     H59267  10.029   5.266   6.028  0.0530  0.2804 -0.3408
  449MOL0     H59268   9.790   5.236   6.025 -2.0045  1.5753 -1.8611
  450MOL0     O59269   8.480  10.816   8.190 -0.6884 -0.0142  0.3999
  450MOL0     C59270   8.549  10.896   8.251  0.3665 -0.5338 -1.1822
  450MOL0     O59271   8.507  10.985   8.358 -0.1204  0.4442 -0.5067
  450MOL0     C59272   8.380  10.960   8.407 -0.9337  0.8236  0.0107
  450MOL0     C59273   8.267  11.034   8.354  0.2629  0.1613 -0.5780
  450MOL0     C59274   8.143  11.011   8.409  0.2513  0.3143  0.9646
  450MOL0     C59275   8.116  10.911   8.507 -0.1382  0.1820 -0.0993
  450MOL0     O59276   7.989  10.892   8.543  0.2196  0.4714  0.2799
  450MOL0     C59277   7.932  10.757   8.535  0.7373 -0.0059 -0.4853
  450MOL0     C59278   7.786  10.774   8.569 -0.2508  0.5904 -0.4825
  450MOL0     C59279   7.701  10.806   8.447 -0.3271 -0.1851  0.1019
  450MOL0     C59280   7.557  10.839   8.492 -0.1006  0.1985  0.6476
  450MOL0     C59281   7.443  10.895   8.399 -0.2179  0.4304  0.6791
  450MOL0     C59282   7.412  10.791   8.291  0.3980 -0.7930  0.1008
  450MOL0     C59283   7.283  10.834   8.211 -0.9810 -0.2078  0.3607
  450MOL0     C59284   7.285  10.971   8.151  0.0279  0.4863 -0.2006
  450MOL0     N59285   7.142  11.001   8.127  0.5897 -0.3894  0.2591
  450MOL0     C59286   7.061  10.920   8.042  0.4033 -0.1656  0.1989
  450MOL0     C59287   6.943  10.985   8.048  0.1537  0.3765  0.3277
  450MOL0     C59288   6.819  10.927   8.000 -0.1126  0.1156 -0.0996
  450MOL0     C59289   6.691  10.962   8.094 -1.0493 -0.0718  0.2808
  450MOL0     C59290   6.592  10.840   8.089  0.8056  0.3614  0.5809
  450MOL0     C59291   6.453  10.868   8.144 -0.2066  0.0605 -0.5673
  450MOL0     O59292   6.464  10.877   8.290  0.0112  0.2773  0.2589
  450MOL0     C59293   6.369  10.912   8.373 -0.3057 -0.7465 -0.2559
  450MOL0     C59294   6.235  10.930   8.340 -0.7068 -0.0216 -0.0145
  450MOL0     C59295   6.143  10.995   8.429 -0.4702 -0.2387 -0.3215
  450MOL0     C59296   6.187  11.029   8.556  0.3549 -0.4394  0.6502
  450MOL0     C59297   6.085  11.088   8.649  1.0308  1.0144  0.4659
  450MOL0     O59298   6.114  11.182   8.751  0.4308 -0.4258  0.4827
  450MOL0     C59299   6.018  11.214   8.846  0.2821  0.4339  0.1531
  450MOL0     C59300   5.879  11.222   8.830 -1.0317  0.9819  0.9933
  450MOL0     C59301   5.789  11.271   8.926 -0.0304  0.3135 -0.5382
  450MOL0     C59302   5.838  11.323   9.042 -0.0945  0.2673  0.2007
  450MOL0     O59303   5.744  11.368   9.123 -0.0208 -0.2880 -0.2805
  450MOL0     C59304   5.782  11.484   9.196  0.0712 -0.0097  0.7307
  450MOL0     C59305   5.715  11.482   9.327  0.4620  0.5795 -0.7573
  450MOL0     C59306   5.760  11.365   9.422  0.6390  0.0244  1.0217
  450MOL0     C59307   5.726  11.387   9.564  0.1613  0.5888 -0.4321
  450MOL0     C59308   5.762  11.521   9.620  0.0665 -0.3946 -0.7277
  450MOL0     C59309   5.772  11.534   9.762  0.3954 -0.1274 -0.3337
  450MOL0     C59310   5.911  11.514   9.814  0.6498  0.0856  0.0938
  450MOL0     C59311   5.921  11.516   9.967 -0.3952  0.9616  0.7524
  450MOL0    Cl59312   5.817  11.647  10.050 -0.1369  0.3399  0.8116
  450MOL0     C59313   5.980  11.325   9.062  0.5920  1.0300 -0.2260
  450MOL0     C59314   6.067  11.263   8.970  0.8037 -0.2591  0.4515
  450MOL0     O59315   5.983  11.024   8.642  0.3756 -0.3851  0.1108
  450MOL0     C59316   6.321  11.006   8.593  0.2700 -0.0105 -0.1929
  450MOL0     C59317   6.410  10.954   8.494 -0.3738  0.2089 -0.3512
  450MOL0     N59318   6.963  11.101   8.125  0.3891 -0.5701 -0.0938
  450MOL0     N59319   7.079  11.107   8.170  0.1009  0.3556 -0.2326
  450MOL0     C59320   8.226  10.842   8.553 -0.1011 -0.5097  0.2830
  450MOL0     C59321   8.356  10.870   8.508  0.2055  0.5567  0.1517
  450MOL0     C59322   8.690  10.870   8.230  0.3146  0.4638  0.5164
  450MOL0     C59323   8.744  10.765   8.142  0.1517  0.2466 -1.1438
  450MOL0     C59324   8.880  10.738   8.133 -0.0192 -0.0890 -0.4088
  450MOL0     C59325   8.975  10.819   8.202 -0.2775  0.6873 -0.3940
  450MOL0     O59326   9.105  10.796   8.186 -0.2884 -0.3536 -0.1617
  450MOL0     C59327   9.199  10.890   8.241 -0.1683 -0.6693 -0.6161
  450MOL0     C59328   9.233  10.854   8.380  0.2173  0.0536 -0.5739
  450MOL0     C59329   9.354  10.941   8.427  0.4770  0.1222 -0.5902
  450MOL0     C59330   9.477  10.893   8.358  0.3447  0.1290 -0.7162
  450MOL0     C59331   9.601  10.958   8.400 -0.3784 -1.4662 -0.4616
  450MOL0     C59332   9.699  11.008   8.452  0.1230 -0.2682 -0.1211
  450MOL0     C59333   8.916  10.921   8.280 -1.1436 -0.1057 -0.8703
  450MOL0     C59334   8.783  10.951   8.296  0.5848  0.2015  0.2731
  450MOL0     H59335   8.281  11.100   8.269 -2.2166  1.6340  0.0608
  450MOL0     H59336   8.056  11.070   8.383 -0.7557  0.3913  4.0696
  450MOL0     H59337   7.986  10.680   8.591  0.4217 -2.2346 -3.0300
  450MOL0     H59338   7.929  10.732   8.428  0.7699  3.0513 -1.2879
  450MOL0     H59339   7.779  10.856   8.641 -3.2699 -1.8153  2.3042
  450MOL0     H59340   7.737  10.690   8.619 -0.5917  1.5017  0.7573
  450MOL0     H59341   7.679  10.722   8.380  0.3325  1.3108 -2.0945
  450MOL0     H59342   7.749  10.887   8.391 -0.0502 -0.1495  0.3925
  450MOL0     H59343   7.527  10.738   8.519 -0.0532 -0.1421 -0.5005
  450MOL0     H59344   7.565  10.906   8.578  4.0016  2.3490 -1.1008
  450MOL0     H59345   7.478  10.993   8.367  1.1145  0.3719  1.8715
  450MOL0     H59346   7.357  10.912   8.464  0.9561  1.2566  2.0710
  450MOL0     H59347   7.403  10.694   8.341  1.0138 -0.3209  1.1675
  450MOL0     H59348   7.501  10.783   8.229  1.4480  1.5116  1.1810
  450MOL0     H59349   7.282  10.755   8.135  0.7713 -1.3542  1.4619
  450MOL0     H59350   7.194  10.819   8.274 -0.5359  2.0633  1.6285
  450MOL0     H59351   7.345  10.986   8.062  1.8257  0.0512  0.8862
  450MOL0     H59352   7.320  11.039   8.229  0.2276 -0.2467  0.3601
  450MOL0     H59353   7.073  10.830   7.983 -1.4436  0.2335 -0.8509
  450MOL0     H59354   6.821  10.818   7.991 -0.4557  0.1505 -0.6169
  450MOL0     H59355   6.801  10.958   7.897 -1.2653  0.6088  0.2361
  450MOL0     H59356   6.651  11.056   8.055 -0.9734  0.2975  1.0898
  450MOL0     H59357   6.711  10.962   8.201 -2.8916 -0.1568  0.6427
  450MOL0     H59358   6.570  10.819   7.984 -0.7868  1.8594  0.5629
  450MOL0     H59359   6.624  10.745   8.133 -1.1541 -0.5627  0.1025
  450MOL0     H59360   6.389  10.784   8.116 -1.0280  0.1297  0.9648
  450MOL0     H59361   6.406  10.958   8.102  0.0268  0.1992 -0.5298
  450MOL0     H59362   6.203  10.907   8.239  0.0517  0.7308 -0.4392
  450MOL0     H59363   6.045  11.030   8.400 -0.1262  2.1227  1.0730
  450MOL0     H59364   5.839  11.191   8.734  2.8858 -1.5255 -0.0943
  450MOL0     H59365   5.682  11.273   8.907 -0.0035  3.3663 -0.9125
  450MOL0     H59366   5.745  11.570   9.139  0.2673 -0.2149  0.2912
  450MOL0     H59367   5.889  11.498   9.209  0.3236  0.1382 -1.1746
  450MOL0     H59368   5.608  11.477   9.304 -0.1663  0.0876  1.8951
  450MOL0     H59369   5.734  11.579   9.372  1.5149 -1.0599  2.6758
  450MOL0     H59370   5.869  11.356   9.413  0.5261  0.6543 -4.0447
  450MOL0     H59371   5.720  11.275   9.374  5.0658 -1.1458 -0.9992
  450MOL0     H59372   5.620  11.382   9.589  0.6197  0.4882  1.6725
  450MOL0     H59373   5.782  11.314   9.623  1.8253  3.4284  1.7524
  450MOL0     H59374   5.680  11.583   9.582 -1.5314 -2.8452 -1.5387
  450MOL0     H59375   5.858  11.553   9.578  0.3903  0.9894  0.9618
  450MOL0     H59376   5.711  11.452   9.802 -2.0433  0.3680 -2.6782
  450MOL0     H59377   5.741  11.634   9.792 -2.3168 -0.9226 -0.1635
  450MOL0     H59378   5.947  11.422   9.767 -1.0001 -1.3459  1.4551
  450MOL0     H59379   5.979  11.588   9.772 -1.8430  1.7239 -1.3148
  450MOL0     H59380   6.029  11.530   9.979 -0.1756 -0.6395  0.7733
  450MOL0     H59381   5.903  11.416  10.007  1.1540  0.2700 -0.1865
  450MOL0     H59382   6.026  11.356   9.156  1.3890  1.1502 -0.6473
  450MOL0     H59383   6.172  11.264   8.999  0.6874 -0.2431  0.8647
  450MOL0     H59384   6.363  11.016   8.693 -0.4462 -3.4958  0.6015
  450MOL0     H59385   6.508  10.931   8.534 -1.4742 -2.8523  0.8441
  450MOL0     H59386   8.205  10.755   8.614  0.2652 -0.8393 -0.0590
  450MOL0     H59387   8.439  10.814   8.550  1.4566  2.4774  0.3305
  450MOL0     H59388   8.671  10.717   8.079 -1.5876  1.7119 -0.3387
  450MOL0     H59389   8.927  10.662   8.072  1.6208 -0.0918  0.8162
  450MOL0     H59390   9.160  10.991   8.233 -0.8275 -0.7283  1.3962
  450MOL0     H59391   9.286  10.885   8.173 -1.6293 -0.3943 -2.6007
  450MOL0     H59392   9.151  10.869   8.451  0.7205 -1.4979  0.4036
  450MOL0     H59393   9.260  10.748   8.376 -0.8006 -0.1564 -3.4919
  450MOL0     H59394   9.370  10.941   8.535 -1.1420  1.5375 -0.3100
  450MOL0     H59395   9.330  11.045   8.403  0.4191  0.2144 -0.1263
  450MOL0     H59396   9.496  10.786   8.374  0.3266 -0.8078 -5.5599
  450MOL0     H59397   9.475  10.895   8.249 -3.0100  2.9230 -0.7638
  450MOL0     H59398   9.780  11.049   8.509  3.0129 -4.1567 -1.0626
  450MOL0     H59399   8.982  10.991   8.329  1.5158 -2.5006 -0.7644
  450MOL0     H59400   8.745  11.021   8.370 -0.2618  1.2096 -1.0621
  451MOL0     O59401   9.736   0.399   4.809 -0.4731  0.3959 -0.0163
  451MOL0     C59402   9.666   0.476   4.875  0.1845  0.1007 -0.4340
  451MOL0     O59403   9.700   0.603   4.914 -0.0291  0.3712 -0.3106
  451MOL0     C59404   9.822   0.654   4.890 -0.6776  0.5810  1.3966
  451MOL0     C59405   9.896   0.722   4.983  0.5995 -0.2132 -0.7026
  451MOL0     C59406  10.020   0.780   4.965  0.0873  0.3369  0.2874
  451MOL0     C59407  10.073   0.771   4.832 -0.8965 -0.0076  1.1867
  451MOL0     O59408  10.197   0.815   4.795  0.3991 -0.6409 -0.7011
  451MOL0     C59409  10.267   0.904   4.875  0.2916  0.0039  0.7053
  451MOL0     C59410  10.385   0.951   4.796 -0.1954 -0.7029 -0.0850
  451MOL0     C59411  10.468   1.045   4.878 -0.0012  0.5404  0.1943
  451MOL0     C59412  10.567   1.122   4.788 -0.4925  0.5795 -0.0778
  451MOL0     C59413  10.663   1.187   4.889  0.7446  0.1825  0.3010
  451MOL0     C59414  10.764   1.275   4.822  0.7702 -0.5711  0.7855
  451MOL0     C59415  10.718   1.352   4.691  1.1807 -0.5392  0.5264
  451MOL0     C59416  10.645   1.479   4.710  0.7206 -0.4441 -1.1411
  451MOL0     N59417  10.510   1.482   4.765 -0.1128  0.6826  0.7029
  451MOL0     C59418  10.394   1.478   4.692 -0.3535  0.8395  0.2342
  451MOL0     C59419  10.294   1.507   4.778  1.2834 -0.5102  0.2253
  451MOL0     C59420  10.149   1.511   4.736 -0.5171  0.0580 -0.1462
  451MOL0     C59421  10.065   1.390   4.791 -0.5146 -0.1866  0.1545
  451MOL0     C59422  10.117   1.252   4.731 -0.5880 -0.0422 -0.1926
  451MOL0     C59423  10.019   1.141   4.763 -0.3630  0.2686 -0.3236
  451MOL0     O59424   9.999   1.141   4.910  0.5045  0.2157 -0.1876
  451MOL0     C59425   9.871   1.102   4.954 -0.3017  0.4710  0.0632
  451MOL0     C59426   9.771   1.042   4.879  0.5737 -0.8647 -0.3576
  451MOL0     C59427   9.653   1.008   4.930 -0.2970  0.4437  0.2394
  451MOL0     C59428   9.629   1.028   5.064 -0.2780 -0.1212  0.4368
  451MOL0     C59429   9.491   1.000   5.106 -0.5373  0.5521 -0.9232
  451MOL0     O59430   9.425   0.904   5.053  0.6174 -0.1885  0.3667
  451MOL0     C59431   9.295   0.870   5.110 -0.2256  0.6041 -0.2004
  451MOL0     C59432   9.182   0.936   5.058 -0.9350 -1.2477 -0.3321
  451MOL0     C59433   9.054   0.916   5.102  1.1766 -0.3807 -0.1312
  451MOL0     C59434   9.033   0.823   5.204 -0.1590  0.0491  0.0427
  451MOL0     O59435   8.902   0.798   5.247 -0.6893 -0.6578 -0.0953
  451MOL0     C59436   8.883   0.683   5.328 -0.1617 -0.0500 -0.1251
  451MOL0     C59437   8.738   0.694   5.387 -0.3788 -0.2345  0.0771
  451MOL0     C59438   8.700   0.571   5.481 -0.3493  0.0905 -0.4245
  451MOL0     C59439   8.556   0.582   5.531 -0.2666 -0.3962  0.4115
  451MOL0     C59440   8.555   0.653   5.666 -0.1501  0.5819 -0.2800
  451MOL0     C59441   8.419   0.701   5.697  0.4947 -0.2466  0.1337
  451MOL0     C59442   8.320   0.580   5.713  1.0509  0.2596 -0.1646
  451MOL0     C59443   8.190   0.624   5.790  0.8122 -1.3440  0.5671
  451MOL0    Cl59444   8.101   0.735   5.674  0.2442 -0.1141  0.1140
  451MOL0     C59445   9.146   0.758   5.261  0.1634 -0.2245  0.1617
  451MOL0     C59446   9.277   0.783   5.217  0.0526  1.0608  0.3668
  451MOL0     O59447   9.456   1.071   5.199 -0.0892 -0.1590 -0.6745
  451MOL0     C59448   9.728   1.072   5.153 -1.0809  0.8195 -0.8760
  451MOL0     C59449   9.852   1.107   5.096  0.0717 -0.3655  0.9088
  451MOL0     N59450  10.347   1.522   4.907 -0.4690 -1.6400  0.5594
  451MOL0     N59451  10.471   1.507   4.894  0.7834 -0.0696 -0.0631
  451MOL0     C59452  10.003   0.697   4.732  0.9129  0.5431 -0.4894
  451MOL0     C59453   9.878   0.631   4.758 -0.1197  0.4875 -0.0443
  451MOL0     C59454   9.534   0.427   4.914  0.7451  0.4886  0.2345
  451MOL0     C59455   9.430   0.521   4.942  0.0727  0.3442 -0.4003
  451MOL0     C59456   9.303   0.475   4.991  0.7579 -0.0596 -0.0567
  451MOL0     C59457   9.284   0.339   5.005 -0.4854  0.0433  1.3857
  451MOL0     O59458   9.163   0.291   5.054 -0.3773  0.4669  0.8456
  451MOL0     C59459   9.047   0.373   5.080  0.1449  0.2000  0.5327
  451MOL0     C59460   8.920   0.284   5.069  0.2562 -0.3211 -0.1383
  451MOL0     C59461   8.782   0.345   5.114 -0.0459 -0.4278 -0.1374
  451MOL0     C59462   8.685   0.353   4.998 -0.4169 -0.3966 -0.4848
  451MOL0     C59463   8.751   0.437   4.897  1.2329 -0.2506  0.5143
  451MOL0     C59464   8.815   0.494   4.822  0.1744 -0.0035 -0.3340
  451MOL0     C59465   9.390   0.244   4.988  0.3283  0.1430  0.7283
  451MOL0     C59466   9.510   0.288   4.933 -0.4528  0.8964  1.2671
  451MOL0     H59467   9.852   0.713   5.082  0.5605  0.8862 -0.6051
  451MOL0     H59468  10.071   0.826   5.049 -1.2268 -0.8818  1.8133
  451MOL0     H59469  10.308   0.859   4.965 -1.7107 -2.1463  0.6283
  451MOL0     H59470  10.201   0.987   4.900 -1.1014  0.2796 -3.2128
  451MOL0     H59471  10.345   1.009   4.712  0.4527 -0.6872 -0.3893
  451MOL0     H59472  10.457   0.871   4.777 -0.6140 -1.5922  1.8320
  451MOL0     H59473  10.518   0.981   4.952 -1.4182 -0.8294  0.0022
  451MOL0     H59474  10.403   1.122   4.921  0.9674  1.7733 -0.4821
  451MOL0     H59475  10.624   1.041   4.743 -1.2762  0.7232 -1.3829
  451MOL0     H59476  10.518   1.184   4.711  1.4300  1.3240 -0.7638
  451MOL0     H59477  10.714   1.118   4.956 -0.0192  0.0721  0.7814
  451MOL0     H59478  10.604   1.258   4.948  1.1942  0.5540  0.3113
  451MOL0     H59479  10.839   1.203   4.788  0.4642  0.0538 -1.3604
  451MOL0     H59480  10.803   1.344   4.897  0.3092 -1.0494  1.4726
  451MOL0     H59481  10.806   1.394   4.642 -0.5636  2.0750 -0.6103
  451MOL0     H59482  10.667   1.294   4.613 -2.5901  0.5887  1.8896
  451MOL0     H59483  10.656   1.534   4.616 -1.0297  0.3563 -0.9195
  451MOL0     H59484  10.702   1.541   4.780  0.8652 -2.4689  0.6319
  451MOL0     H59485  10.382   1.447   4.589  0.3138 -2.0219  0.9214
  451MOL0     H59486  10.146   1.525   4.627  3.5117  4.9796  0.0099
  451MOL0     H59487  10.097   1.603   4.766  1.4641  2.3626 -3.1433
  451MOL0     H59488   9.960   1.406   4.765 -0.5891 -0.4460  0.2848
  451MOL0     H59489  10.074   1.386   4.900  3.7204 -3.0340 -0.0531
  451MOL0     H59490  10.132   1.268   4.623 -0.7128  2.1855  0.0565
  451MOL0     H59491  10.211   1.227   4.779 -0.2149  3.0338  0.8783
  451MOL0     H59492  10.058   1.044   4.735 -1.0534 -0.4309  1.0124
  451MOL0     H59493   9.928   1.170   4.709 -0.9014  2.6982  1.6610
  451MOL0     H59494   9.771   1.016   4.774  2.4543  1.9948 -1.1727
  451MOL0     H59495   9.585   0.969   4.856  2.5922 -2.2311 -1.2240
  451MOL0     H59496   9.208   0.988   4.966  0.1104 -0.1211  0.5628
  451MOL0     H59497   8.971   0.965   5.052  0.0459 -2.0125  0.0459
  451MOL0     H59498   8.952   0.688   5.413  2.9565  5.1081 -2.4728
  451MOL0     H59499   8.900   0.593   5.269 -0.9970 -0.2559 -0.0604
  451MOL0     H59500   8.665   0.700   5.306 -2.1099  0.5171  1.6274
  451MOL0     H59501   8.731   0.790   5.439 -1.7128 -0.1766 -0.1624
  451MOL0     H59502   8.771   0.587   5.563 -0.2072  0.4099 -0.6078
  451MOL0     H59503   8.713   0.478   5.424  0.1345  1.7044 -3.1039
  451MOL0     H59504   8.511   0.652   5.460  3.6841 -0.0574 -2.0681
  451MOL0     H59505   8.501   0.487   5.530 -1.8613  0.4599 -1.4820
  451MOL0     H59506   8.621   0.740   5.657  0.5664  0.3116  1.9403
  451MOL0     H59507   8.592   0.590   5.747  1.0750 -1.2200 -2.1231
  451MOL0     H59508   8.385   0.774   5.624  2.7324  4.2423  3.0864
  451MOL0     H59509   8.418   0.755   5.793 -1.2674 -0.3534  0.2014
  451MOL0     H59510   8.296   0.531   5.618  0.7541 -0.5863  0.3340
  451MOL0     H59511   8.381   0.503   5.761  0.9669  1.3838  1.8556
  451MOL0     H59512   8.205   0.684   5.881  0.5937  2.9959 -1.9536
  451MOL0     H59513   8.128   0.539   5.817 -0.0003 -0.8139  0.4099
  451MOL0     H59514   9.132   0.680   5.335 -2.6259 -2.8591 -2.7902
  451MOL0     H59515   9.365   0.720   5.232  1.0440  1.1763 -3.7194
  451MOL0     H59516   9.708   1.096   5.257  1.4275 -0.4984  0.0150
  451MOL0     H59517   9.929   1.142   5.164  1.1559  0.8122 -0.8430
  451MOL0     H59518  10.050   0.677   4.637 -0.0293 -2.0054 -0.4938
  451MOL0     H59519   9.820   0.582   4.681  1.7400 -1.1609 -0.4572
  451MOL0     H59520   9.452   0.626   4.922 -0.2234  0.5159  0.1490
  451MOL0     H59521   9.227   0.546   5.022  2.0570  1.0748  0.6756
  451MOL0     H59522   9.033   0.460   5.015  0.3740 -1.1902 -1.4451
  451MOL0     H59523   9.048   0.410   5.183 -0.6884  1.2394  0.1947
  451MOL0     H59524   8.920   0.237   4.970  2.5602 -0.1780 -0.2571
  451MOL0     H59525   8.948   0.208   5.143  0.0466  0.8233  1.1463
  451MOL0     H59526   8.790   0.447   5.155 -0.5483  0.2266 -1.6048
  451MOL0     H59527   8.737   0.280   5.189  1.3099 -0.7818  0.4051
  451MOL0     H59528   8.674   0.254   4.953 -0.0940  0.4059 -2.4114
  451MOL0     H59529   8.589   0.397   5.027  0.3003  0.5173  0.5491
  451MOL0     H59530   8.875   0.561   4.763 -0.8023  2.2327  1.0764
  451MOL0     H59531   9.366   0.139   5.003  0.3990 -0.0828 -0.6152
  451MOL0     H59532   9.596   0.223   4.919  2.5896  3.7062  4.8681
  452MOL0     O59533   8.513   9.374   4.590  0.2830  0.2290 -0.0670
  452MOL0     C59534   8.536   9.490   4.598  0.7343 -0.0558  0.2132
  452MOL0     O59535   8.457   9.585   4.669 -0.9076 -0.6008  0.2213
  452MOL0     C59536   8.329   9.569   4.716  0.1502  0.4291  0.7646
  452MOL0     C59537   8.260   9.452   4.710  0.9477  0.7303 -1.2133
  452MOL0     C59538   8.127   9.447   4.750  0.9605 -0.3324  0.1885
  452MOL0     C59539   8.058   9.554   4.790 -0.0126 -0.0878 -0.1371
  452MOL0     O59540   7.921   9.536   4.831 -0.1157 -0.4156  0.4948
  452MOL0     C59541   7.851   9.648   4.888 -0.1324 -0.1626  0.1647
  452MOL0     C59542   7.796   9.744   4.784 -0.7085  0.0596 -0.3281
  452MOL0     C59543   7.692   9.667   4.690  0.2643 -1.0802 -0.1593
  452MOL0     C59544   7.631   9.780   4.612 -0.1039 -0.9141 -0.5235
  452MOL0     C59545   7.505   9.856   4.693 -0.0688  0.0919 -0.4617
  452MOL0     C59546   7.391   9.893   4.605 -0.4854 -0.7709 -0.2234
  452MOL0     C59547   7.264   9.940   4.683  0.3682  0.6166 -1.2048
  452MOL0     C59548   7.278  10.041   4.796 -0.7655 -0.5237  0.3611
  452MOL0     N59549   7.147  10.096   4.826  0.1335 -0.2982  0.5321
  452MOL0     C59550   7.103  10.213   4.778 -0.3234 -0.0494 -0.1696
  452MOL0     C59551   6.968  10.204   4.791  0.4155  0.4880  0.1691
  452MOL0     C59552   6.878  10.309   4.751  0.8934 -0.2803 -0.7635
  452MOL0     C59553   6.892  10.420   4.861 -0.0859 -0.1913  0.3766
  452MOL0     C59554   6.747  10.494   4.870  0.7201  0.5334  1.0918
  452MOL0     C59555   6.740  10.611   4.765  0.0783 -0.6850 -0.9882
  452MOL0     O59556   6.608  10.644   4.716  0.4134 -0.4766 -0.1825
  452MOL0     C59557   6.537  10.738   4.780 -0.4321 -0.2492 -0.4154
  452MOL0     C59558   6.536  10.756   4.922  0.0631  0.2773  0.1660
  452MOL0     C59559   6.450  10.842   4.982  0.0140 -0.1733 -0.0914
  452MOL0     C59560   6.359  10.920   4.910  0.5046 -0.3950 -0.5495
  452MOL0     C59561   6.271  11.020   4.982  0.9145  0.9142  1.1934
  452MOL0     O59562   6.195  11.096   4.906  0.2016  0.0251 -0.0186
  452MOL0     C59563   6.079  11.161   4.948 -0.1664  0.5780 -0.6924
  452MOL0     C59564   6.036  11.254   4.852 -0.0830 -0.2318 -0.3518
  452MOL0     C59565   5.930  11.341   4.867  0.3277  0.0166  0.0674
  452MOL0     C59566   5.854  11.335   4.982 -1.3183 -0.4515  0.1506
  452MOL0     O59567   5.760  11.432   5.000 -0.4388  0.0738 -0.0972
  452MOL0     C59568   5.655  11.447   4.909  0.2643  0.2548  0.3304
  452MOL0     C59569   5.579  11.309   4.897 -0.2932 -0.3767 -0.0095
  452MOL0     C59570   5.491  11.302   5.021  0.6122  0.6533 -0.6891
  452MOL0     C59571   5.408  11.177   5.009 -0.2905 -0.6248 -0.5959
  452MOL0     C59572   5.298  11.183   5.130  0.7553 -0.3672 -0.9499
  452MOL0     C59573   5.206  11.048   5.125  0.1510 -0.5723  0.6251
  452MOL0     C59574   5.105  11.042   5.007 -0.0872  0.5488 -0.3317
  452MOL0     C59575   5.017  11.170   4.983 -0.5238 -0.1369  0.4385
  452MOL0    Cl59576   4.910  11.186   5.120 -0.3018 -0.1996 -0.1576
  452MOL0     C59577   5.886  11.239   5.084 -1.2629 -1.4240  0.1819
  452MOL0     C59578   5.996  11.151   5.059 -0.2081  0.1310  0.6587
  452MOL0     O59579   6.281  11.026   5.102  0.3230 -0.2699  0.0664
  452MOL0     C59580   6.353  10.903   4.770 -0.5944 -0.4973  0.6912
  452MOL0     C59581   6.442  10.809   4.712 -0.8923 -0.1770 -0.0253
  452MOL0     N59582   6.933  10.102   4.881 -0.1941 -0.4996  0.0122
  452MOL0     N59583   7.045  10.036   4.893  0.1956 -0.5598 -0.4364
  452MOL0     C59584   8.135   9.668   4.810 -0.0452  0.5206 -0.0702
  452MOL0     C59585   8.265   9.686   4.768  1.3651 -0.0076 -1.1341
  452MOL0     C59586   8.662   9.538   4.534 -0.4701  1.2279 -0.4950
  452MOL0     C59587   8.686   9.675   4.526  0.1721  0.1776 -0.5927
  452MOL0     C59588   8.808   9.721   4.479  0.0033  0.4185  0.2641
  452MOL0     C59589   8.908   9.634   4.430  0.4147 -1.3977 -0.4414
  452MOL0     O59590   9.021   9.693   4.381 -0.3909  0.3313 -0.0190
  452MOL0     C59591   9.116   9.602   4.313  0.7495  0.1636  0.4446
  452MOL0     C59592   9.240   9.678   4.261 -0.6258 -0.1060 -0.4566
  452MOL0     C59593   9.212   9.808   4.189 -0.9319  0.0892  0.8670
  452MOL0     C59594   9.345   9.875   4.149  0.4617  0.1658 -0.9697
  452MOL0     C59595   9.409   9.954   4.255  1.1220 -0.3766 -0.7225
  452MOL0     C59596   9.464  10.008   4.346 -0.7494 -0.1214  0.7849
  452MOL0     C59597   8.883   9.501   4.442 -0.3755 -0.8055 -0.5683
  452MOL0     C59598   8.764   9.448   4.500 -0.1280 -0.7775  0.0761
  452MOL0     H59599   8.312   9.363   4.675  3.0815  1.0744  0.7875
  452MOL0     H59600   8.060   9.365   4.729 -2.4866  2.1219  0.7783
  452MOL0     H59601   7.905   9.691   4.973 -2.9570 -0.3980  2.2206
  452MOL0     H59602   7.765   9.597   4.932 -1.0119  0.8185 -0.3686
  452MOL0     H59603   7.878   9.772   4.717  0.0786 -2.0422 -0.3422
  452MOL0     H59604   7.763   9.831   4.840 -2.2233  0.0608 -1.1723
  452MOL0     H59605   7.619   9.604   4.743 -1.3723 -0.9322 -2.0880
  452MOL0     H59606   7.750   9.593   4.634 -0.2984 -4.1205  2.9234
  452MOL0     H59607   7.700   9.857   4.577 -2.2245  0.9503 -0.8865
  452MOL0     H59608   7.586   9.744   4.519 -3.1770  2.3030 -0.5123
  452MOL0     H59609   7.539   9.943   4.751  2.2316 -0.1136 -1.3629
  452MOL0     H59610   7.467   9.782   4.763  0.6332 -0.4609 -0.6508
  452MOL0     H59611   7.380   9.801   4.546  1.1516  0.0413 -1.9170
  452MOL0     H59612   7.425   9.975   4.541 -1.0055  0.3386  0.8906
  452MOL0     H59613   7.188   9.980   4.614 -2.2852  0.5785  1.5092
  452MOL0     H59614   7.210   9.853   4.722 -1.3480  2.2363  0.2270
  452MOL0     H59615   7.345  10.121   4.763  0.3701 -1.4091  0.4549
  452MOL0     H59616   7.326  10.010   4.890  0.5105  2.8852  0.9990
  452MOL0     H59617   7.156  10.293   4.727  0.9812 -1.3293 -0.8922
  452MOL0     H59618   6.782  10.258   4.748 -0.3968  2.0299 -1.2255
  452MOL0     H59619   6.907  10.341   4.650  2.8495  2.1231  0.4327
  452MOL0     H59620   6.970  10.488   4.826 -1.5383  2.2770  1.6867
  452MOL0     H59621   6.908  10.377   4.961 -0.1689 -2.7459 -0.6254
  452MOL0     H59622   6.664  10.429   4.842  0.4341  1.8031 -1.2312
  452MOL0     H59623   6.744  10.528   4.974  0.2067 -0.1787  1.3220
  452MOL0     H59624   6.803  10.583   4.680  0.8123  0.5769 -0.8745
  452MOL0     H59625   6.792  10.696   4.808 -2.6960  0.2875  0.7250
  452MOL0     H59626   6.596  10.704   4.996 -0.6404  0.0827  0.6047
  452MOL0     H59627   6.450  10.839   5.091  0.5458  1.0763 -0.0391
  452MOL0     H59628   6.116  11.264   4.780  0.1058  1.5576  0.0502
  452MOL0     H59629   5.893  11.411   4.793 -4.2926 -1.3084  0.7958
  452MOL0     H59630   5.695  11.484   4.814 -1.3322 -1.6227 -1.1503
  452MOL0     H59631   5.580  11.521   4.941 -0.8247 -0.8116  0.3004
  452MOL0     H59632   5.658  11.233   4.893 -0.6478 -0.9251  1.9691
  452MOL0     H59633   5.519  11.297   4.807  2.6009  1.4429 -2.3753
  452MOL0     H59634   5.430  11.391   5.040  1.9725  1.3276  0.8125
  452MOL0     H59635   5.566  11.292   5.100  3.0561  0.4787 -2.8776
  452MOL0     H59636   5.350  11.166   4.917 -1.6517  1.7918 -0.1113
  452MOL0     H59637   5.478  11.095   5.025 -0.3257 -0.3416  1.2436
  452MOL0     H59638   5.231  11.269   5.138  1.3837 -0.0498  2.2533
  452MOL0     H59639   5.354  11.179   5.224  0.2995  0.7416 -0.6152
  452MOL0     H59640   5.144  11.051   5.215 -1.1355  1.5555 -0.2586
  452MOL0     H59641   5.273  10.963   5.116 -0.3068 -0.7762 -1.2177
  452MOL0     H59642   5.161  11.013   4.917  3.2027  1.2770  1.3427
  452MOL0     H59643   5.030  10.977   5.053  2.2566 -0.7302  1.9567
  452MOL0     H59644   4.955  11.161   4.893 -0.6050 -1.4384  0.6200
  452MOL0     H59645   5.074  11.263   4.974 -0.7528  0.1447  1.7218
  452MOL0     H59646   5.835  11.249   5.179 -2.7212  1.4755 -0.7896
  452MOL0     H59647   6.018  11.085   5.142 -1.1450 -0.1285  0.7106
  452MOL0     H59648   6.278  10.955   4.712 -1.0073  0.1662  1.7934
  452MOL0     H59649   6.422  10.773   4.612 -1.6240  1.0660 -0.3601
  452MOL0     H59650   8.085   9.754   4.853  1.3436  1.4885 -0.3281
  452MOL0     H59651   8.302   9.789   4.774 -2.0946  1.3731 -1.4398
  452MOL0     H59652   8.609   9.746   4.554 -0.0113 -1.0088  2.3020
  452MOL0     H59653   8.817   9.829   4.481 -6.0772  1.2911  1.2852
  452MOL0     H59654   9.070   9.567   4.220 -0.7287  0.0833  1.1782
  452MOL0     H59655   9.145   9.524   4.384  2.0271  0.3354  0.1384
  452MOL0     H59656   9.311   9.695   4.343 -0.3659  1.0774 -0.9070
  452MOL0     H59657   9.287   9.613   4.187  0.7721  0.4705 -0.0908
  452MOL0     H59658   9.137   9.868   4.241  0.3268  1.5659  1.0558
  452MOL0     H59659   9.166   9.781   4.093  0.0517  0.6077  0.2300
  452MOL0     H59660   9.420   9.805   4.110  1.6897  0.9974 -0.2038
  452MOL0     H59661   9.316   9.948   4.073 -0.8051 -0.3735 -1.0183
  452MOL0     H59662   9.512  10.046   4.434  1.6731 -2.8413  0.7679
  452MOL0     H59663   8.953   9.428   4.403 -0.8656 -0.1205 -2.8693
  452MOL0     H59664   8.752   9.341   4.512  1.1383 -0.9635 -0.1781
  453MOL0     O59665   5.493   6.750   6.376 -0.3740 -0.8730  0.5917
  453MOL0     C59666   5.435   6.716   6.271  0.1417 -0.0943  0.2508
  453MOL0     O59667   5.301   6.693   6.257 -0.2953 -0.1632  0.0479
  453MOL0     C59668   5.218   6.689   6.364 -1.3146 -0.9301  0.1331
  453MOL0     C59669   5.094   6.766   6.370 -1.1577 -0.0949 -0.4645
  453MOL0     C59670   5.013   6.766   6.486 -0.0900  0.2129 -0.3775
  453MOL0     C59671   5.048   6.685   6.592 -1.1372 -0.6251 -0.1456
  453MOL0     O59672   4.975   6.684   6.713  0.1339  0.3339  0.6524
  453MOL0     C59673   5.054   6.709   6.821 -0.2294  0.9103 -0.4986
  453MOL0     C59674   5.134   6.836   6.814 -0.5811  0.1095 -0.1369
  453MOL0     C59675   5.050   6.953   6.779  0.5294 -0.1570 -0.5257
  453MOL0     C59676   5.135   7.074   6.741 -0.0197  0.2774 -0.3635
  453MOL0     C59677   5.193   7.065   6.603  0.3582  0.4979  0.4305
  453MOL0     C59678   5.258   7.182   6.556 -0.6246  0.4674 -0.7471
  453MOL0     C59679   5.295   7.176   6.410  0.3836  0.1383  0.1255
  453MOL0     C59680   5.393   7.065   6.374  0.2630  0.1091 -0.1369
  453MOL0     N59681   5.418   7.079   6.223 -0.2152  0.3254  1.1547
  453MOL0     C59682   5.333   7.026   6.129  0.1881  0.8956 -0.0728
  453MOL0     C59683   5.378   7.075   6.010 -0.2608  0.1537  0.2431
  453MOL0     C59684   5.328   7.036   5.872 -0.6663  0.3730 -0.9300
  453MOL0     C59685   5.289   6.891   5.854  0.2691  1.4353  0.3829
  453MOL0     C59686   5.260   6.854   5.707  0.2329 -0.6441  0.4151
  453MOL0     C59687   5.220   6.711   5.689  0.2695 -0.0050  0.4582
  453MOL0     O59688   5.185   6.687   5.552 -0.2317  0.0228  0.0565
  453MOL0     C59689   5.131   6.568   5.517 -0.2376  0.0710  0.3183
  453MOL0     C59690   5.151   6.450   5.585  0.3665  0.1070 -0.1683
  453MOL0     C59691   5.069   6.347   5.543  0.4121 -0.0346  0.2094
  453MOL0     C59692   4.981   6.348   5.440 -0.4234 -0.0190  0.0445
  453MOL0     C59693   4.896   6.231   5.401  0.5120 -0.2220 -0.8110
  453MOL0     O59694   4.824   6.227   5.292  0.6540  0.2901  0.8022
  453MOL0     C59695   4.772   6.110   5.238 -1.5885 -0.3256 -0.2990
  453MOL0     C59696   4.847   5.989   5.209  1.2292 -0.0521  0.5469
  453MOL0     C59697   4.787   5.899   5.122 -0.2439 -0.1458  1.7270
  453MOL0     C59698   4.653   5.898   5.086 -0.0961 -1.0792  0.8992
  453MOL0     O59699   4.596   5.804   5.005  0.5282 -0.1732  0.4878
  453MOL0     C59700   4.678   5.725   4.919  0.2182 -0.8589 -1.2832
  453MOL0     C59701   4.731   5.795   4.796 -0.4296  1.2947  0.3086
  453MOL0     C59702   4.615   5.831   4.699 -0.1761 -0.9596 -0.1733
  453MOL0     C59703   4.680   5.889   4.570 -0.3861 -0.5759  0.4074
  453MOL0     C59704   4.697   5.769   4.474 -0.6197 -0.0081 -0.1216
  453MOL0     C59705   4.819   5.798   4.384 -0.7102  0.5728 -0.2933
  453MOL0     C59706   4.940   5.760   4.455 -0.1479 -0.2205 -0.3413
  453MOL0     C59707   5.061   5.746   4.368 -0.3425 -0.4607  1.0495
  453MOL0    Cl59708   5.060   5.603   4.268  0.1176 -0.3360 -0.4958
  453MOL0     C59709   4.583   6.015   5.120 -0.1334  0.2533 -0.5521
  453MOL0     C59710   4.639   6.113   5.200  0.1861  0.3855 -0.1451
  453MOL0     O59711   4.917   6.134   5.472 -0.5726  0.8629 -0.5467
  453MOL0     C59712   4.967   6.470   5.371  0.8173  0.1269 -0.2053
  453MOL0     C59713   5.035   6.582   5.407 -0.2394 -0.0126 -0.2028
  453MOL0     N59714   5.495   7.138   6.032 -0.2404 -0.7665 -0.9029
  453MOL0     N59715   5.523   7.137   6.152 -0.1437 -0.4582  0.1230
  453MOL0     C59716   5.160   6.593   6.579 -0.2993  0.8520 -0.6705
  453MOL0     C59717   5.240   6.597   6.471  0.5076 -0.0145 -0.3549
  453MOL0     C59718   5.509   6.725   6.148 -1.3447  0.4026  0.2176
  453MOL0     C59719   5.487   6.637   6.042 -0.2720 -0.0493 -0.0245
  453MOL0     C59720   5.567   6.631   5.927  0.3970 -0.1955  1.5831
  453MOL0     C59721   5.686   6.714   5.917  0.1893  0.4282 -0.2516
  453MOL0     O59722   5.774   6.697   5.810  0.0903 -1.1175 -0.1345
  453MOL0     C59723   5.899   6.784   5.803 -0.4410 -0.2841 -0.3612
  453MOL0     C59724   5.988   6.743   5.682 -0.0724 -0.1646  0.5343
  453MOL0     C59725   6.118   6.805   5.706 -0.5375 -0.9999  0.5548
  453MOL0     C59726   6.207   6.791   5.584 -0.5290 -0.8171  0.6846
  453MOL0     C59727   6.257   6.657   5.585 -1.1376  0.5026  0.0687
  453MOL0     C59728   6.317   6.551   5.604  0.9641  0.0536  0.5882
  453MOL0     C59729   5.691   6.818   6.015 -0.5456 -1.1612 -0.5596
  453MOL0     C59730   5.613   6.820   6.131 -0.6116  0.0752 -0.0510
  453MOL0     H59731   5.067   6.824   6.282 -1.9343 -1.7028 -1.3215
  453MOL0     H59732   4.920   6.821   6.494 -0.0293  0.3209 -0.4105
  453MOL0     H59733   5.115   6.620   6.841 -4.3219 -1.6645  2.0641
  453MOL0     H59734   4.995   6.716   6.913 -1.7418  3.7486 -1.5567
  453MOL0     H59735   5.210   6.838   6.735  0.0918  0.9503  0.5112
  453MOL0     H59736   5.193   6.858   6.903  1.6734  0.1871 -1.5639
  453MOL0     H59737   4.977   6.976   6.858  0.8514  0.9011 -0.5207
  453MOL0     H59738   4.981   6.943   6.695  0.0162  3.8933 -0.7961
  453MOL0     H59739   5.061   7.155   6.736  0.9365  1.1986 -0.0683
  453MOL0     H59740   5.212   7.095   6.816  0.6351  3.6269 -1.7953
  453MOL0     H59741   5.116   7.044   6.528  2.6391 -2.6200 -1.2925
  453MOL0     H59742   5.265   6.983   6.606  0.7698  0.7934 -0.6539
  453MOL0     H59743   5.353   7.194   6.609 -0.8597 -0.7350 -0.0110
  453MOL0     H59744   5.200   7.273   6.577 -1.9756 -0.8187  1.5912
  453MOL0     H59745   5.204   7.165   6.351 -1.0597 -0.3093  2.3532
  453MOL0     H59746   5.348   7.267   6.379 -0.3710 -0.0393 -1.8716
  453MOL0     H59747   5.358   6.965   6.402 -2.4012  1.0668  0.3027
  453MOL0     H59748   5.487   7.086   6.425  0.3038 -0.9505  0.2396
  453MOL0     H59749   5.242   6.970   6.148  0.6230  0.7575  1.7402
  453MOL0     H59750   5.407   7.063   5.800  0.3867 -1.1756 -0.4164
  453MOL0     H59751   5.241   7.099   5.850 -0.8111  0.6020  0.2476
  453MOL0     H59752   5.202   6.870   5.917 -0.0467  3.4790  0.6922
  453MOL0     H59753   5.370   6.822   5.884  0.4596  0.9207 -1.2155
  453MOL0     H59754   5.173   6.912   5.673  1.9766  1.8352 -0.0494
  453MOL0     H59755   5.342   6.887   5.643 -0.3718  1.1678  0.5167
  453MOL0     H59756   5.139   6.686   5.758  1.8278 -0.7736  2.1028
  453MOL0     H59757   5.314   6.668   5.725  0.9100  3.3895  3.5362
  453MOL0     H59758   5.192   6.447   5.685  1.6762  0.2047 -0.6874
  453MOL0     H59759   5.070   6.258   5.606  0.2796 -0.2687 -0.1194
  453MOL0     H59760   4.949   5.974   5.241  1.2652  0.5274  0.7281
  453MOL0     H59761   4.841   5.806   5.104 -3.0265 -1.4164 -1.0246
  453MOL0     H59762   4.618   5.638   4.890  0.2276 -0.4247 -2.7168
  453MOL0     H59763   4.760   5.673   4.970 -0.6059 -0.5577  0.3755
  453MOL0     H59764   4.807   5.726   4.757 -1.4421 -0.2060  0.8722
  453MOL0     H59765   4.782   5.887   4.825  3.3710 -0.3418 -0.4633
  453MOL0     H59766   4.565   5.914   4.749 -0.6537 -0.4455 -1.4556
  453MOL0     H59767   4.546   5.748   4.683  0.5241 -3.3047  6.2306
  453MOL0     H59768   4.621   5.971   4.528 -1.0316  0.4731  3.1707
  453MOL0     H59769   4.774   5.940   4.592 -2.2218  2.2000  2.4325
  453MOL0     H59770   4.609   5.761   4.409  0.2148 -0.2778 -1.2416
  453MOL0     H59771   4.708   5.673   4.525 -0.8653 -0.9692 -1.7876
  453MOL0     H59772   4.817   5.899   4.342  0.7021  0.8835  0.3154
  453MOL0     H59773   4.802   5.738   4.294 -0.4114  0.1744 -0.0892
  453MOL0     H59774   4.952   5.826   4.542 -3.7808 -1.3968  1.2868
  453MOL0     H59775   4.930   5.661   4.501  0.2840 -0.9659 -1.7850
  453MOL0     H59776   5.145   5.734   4.436 -0.0117  0.6023  0.8392
  453MOL0     H59777   5.069   5.837   4.309 -0.7644 -0.5292  0.8829
  453MOL0     H59778   4.487   6.008   5.070 -0.2715  0.2783 -0.2905
  453MOL0     H59779   4.575   6.196   5.229 -0.1850  0.2356 -0.5216
  453MOL0     H59780   4.911   6.485   5.279  0.0622 -0.1734  0.1969
  453MOL0     H59781   5.024   6.671   5.346 -0.9933 -0.7520 -1.1854
  453MOL0     H59782   5.192   6.538   6.667 -0.8334  1.7157  0.0868
  453MOL0     H59783   5.325   6.530   6.460  1.0503  0.1898  2.0827
  453MOL0     H59784   5.403   6.568   6.041  0.6584 -1.2349 -1.0674
  453MOL0     H59785   5.557   6.562   5.844  2.0629  1.0111  0.3084
  453MOL0     H59786   5.957   6.787   5.895 -0.1532 -0.0795 -0.5475
  453MOL0     H59787   5.865   6.888   5.791 -0.8421 -0.3855 -0.1257
  453MOL0     H59788   6.001   6.635   5.671  0.4437  0.1925 -4.0256
  453MOL0     H59789   5.937   6.766   5.588 -0.3328 -3.5151 -0.2701
  453MOL0     H59790   6.168   6.767   5.795 -0.4875  2.4620  2.1408
  453MOL0     H59791   6.111   6.913   5.718  2.4416 -0.4400 -1.7210
  453MOL0     H59792   6.146   6.816   5.497  0.1428 -0.6427  0.2555
  453MOL0     H59793   6.287   6.864   5.576  1.1474 -2.6348 -0.0207
  453MOL0     H59794   6.371   6.461   5.626  0.4908 -0.5483 -0.6064
  453MOL0     H59795   5.776   6.886   6.015  0.6600 -2.4996  2.0786
  453MOL0     H59796   5.636   6.908   6.191  0.9755 -0.9180  0.8543
  454MOL0     O59797   0.470   6.365   5.849 -0.4748 -0.0391  0.0956
  454MOL0     C59798   0.472   6.254   5.803 -1.1263  0.2380 -1.2253
  454MOL0     O59799   0.374   6.191   5.737  0.3631  0.3855  0.2047
  454MOL0     C59800   0.253   6.247   5.703 -0.0668 -0.4290 -0.5889
  454MOL0     C59801   0.179   6.194   5.591  0.2780 -0.8183  0.6158
  454MOL0     C59802   0.056   6.252   5.549 -0.5435  0.1414  0.1822
  454MOL0     C59803  -0.002   6.352   5.630 -0.3463 -0.7449  0.0152
  454MOL0     O59804  -0.118   6.413   5.590  0.4061 -0.0329 -0.5476
  454MOL0     C59805  -0.234   6.344   5.641  0.3876  0.4750  0.5586
  454MOL0     C59806  -0.302   6.304   5.508 -0.3538 -0.2511  0.8552
  454MOL0     C59807  -0.308   6.416   5.395  0.0749  0.3742 -0.8843
  454MOL0     C59808  -0.416   6.386   5.290 -0.4320  0.3831 -0.6145
  454MOL0     C59809  -0.388   6.262   5.210 -0.0816 -0.0754  0.5837
  454MOL0     C59810  -0.261   6.240   5.121  0.2542 -0.6598 -0.5191
  454MOL0     C59811  -0.286   6.117   5.030 -0.5882  0.0792  0.7024
  454MOL0     C59812  -0.269   5.988   5.097  0.8273  0.9235  0.0226
  454MOL0     N59813  -0.330   5.880   5.016  0.6819 -0.3784 -1.0145
  454MOL0     C59814  -0.443   5.811   5.031  0.5625  0.1066  0.2935
  454MOL0     C59815  -0.459   5.727   4.931 -0.8354  0.0944  0.0997
  454MOL0     C59816  -0.578   5.635   4.921  0.2857  0.5663  0.4254
  454MOL0     C59817  -0.652   5.649   4.778  1.1836 -0.2434 -0.1897
  454MOL0     C59818  -0.798   5.598   4.793 -0.6045  0.8248 -1.1443
  454MOL0     C59819  -0.817   5.476   4.719  0.7495  0.9179  0.5262
  454MOL0     O59820  -0.954   5.447   4.743  0.2942  0.3816  0.1758
  454MOL0     C59821  -1.005   5.326   4.692 -1.1242  0.1382  1.0360
  454MOL0     C59822  -1.123   5.274   4.737  0.2626 -0.9080 -0.1242
  454MOL0     C59823  -1.193   5.166   4.686 -0.3358 -0.8058 -0.2550
  454MOL0     C59824  -1.148   5.116   4.567 -0.1598 -0.1340  0.7003
  454MOL0     C59825  -1.228   5.000   4.510  0.5590  0.0531  0.9987
  454MOL0     O59826  -1.274   4.913   4.599  0.7411 -0.7203 -0.3243
  454MOL0     C59827  -1.337   4.790   4.575 -0.1125 -1.0852  0.8588
  454MOL0     C59828  -1.294   4.700   4.471 -0.9032 -0.5995 -0.5227
  454MOL0     C59829  -1.350   4.580   4.460 -0.0983  0.5185  0.4220
  454MOL0     C59830  -1.472   4.555   4.533  0.9653 -1.0133  1.3181
  454MOL0     O59831  -1.541   4.438   4.497 -0.4700 -0.4088 -0.2843
  454MOL0     C59832  -1.656   4.392   4.570 -0.2081 -0.7192  0.7878
  454MOL0     C59833  -1.706   4.268   4.504  0.6822  0.0249 -0.4454
  454MOL0     C59834  -1.820   4.206   4.597  0.2607 -0.7177  0.2404
  454MOL0     C59835  -1.885   4.083   4.526 -0.5754  0.9679  0.1123
  454MOL0     C59836  -1.975   3.998   4.611  0.1914 -0.8768  0.2736
  454MOL0     C59837  -2.063   3.909   4.535  0.0469  0.5269  0.7152
  454MOL0     C59838  -2.185   3.856   4.609 -0.2845  0.0784  0.4939
  454MOL0     C59839  -2.270   3.750   4.528 -0.7033  0.8760  0.1916
  454MOL0    Cl59840  -2.446   3.773   4.550  0.3573 -0.1462  0.1054
  454MOL0     C59841  -1.516   4.643   4.628 -0.9194  0.1487  0.0209
  454MOL0     C59842  -1.438   4.753   4.659  0.1159 -0.4733 -0.3566
  454MOL0     O59843  -1.209   4.977   4.391  0.2672  0.6144  0.3144
  454MOL0     C59844  -1.023   5.158   4.518 -0.9772 -0.7204 -0.0379
  454MOL0     C59845  -0.944   5.258   4.580 -0.0734  0.1920 -0.1931
  454MOL0     N59846  -0.347   5.748   4.850  0.2514  0.4480  0.3189
  454MOL0     N59847  -0.267   5.829   4.906 -0.2766 -0.0867 -0.6752
  454MOL0     C59848   0.066   6.395   5.745  0.0916 -0.1757  0.7632
  454MOL0     C59849   0.192   6.348   5.781 -0.9520  0.7265  0.6802
  454MOL0     C59850   0.608   6.189   5.809  0.8170  0.9349  0.4363
  454MOL0     C59851   0.625   6.052   5.752 -0.3355  0.9269 -0.0269
  454MOL0     C59852   0.755   5.987   5.774 -0.3324 -1.4564  0.3251
  454MOL0     C59853   0.849   6.049   5.842 -0.6648 -0.1762 -0.1684
  454MOL0     O59854   0.977   5.996   5.864 -0.1454  0.0528 -0.1772
  454MOL0     C59855   1.087   6.094   5.849 -0.0084  0.4155  0.8708
  454MOL0     C59856   1.207   6.009   5.813 -0.7662  0.5011  0.0495
  454MOL0     C59857   1.240   5.895   5.917  0.5762  0.4370  1.4420
  454MOL0     C59858   1.256   5.944   6.060  0.4963  0.6001 -0.0035
  454MOL0     C59859   1.356   6.049   6.074  0.0412 -1.1654  0.3261
  454MOL0     C59860   1.441   6.130   6.086 -0.2146 -0.3341  0.3662
  454MOL0     C59861   0.822   6.167   5.908 -1.1081  1.0167  0.5387
  454MOL0     C59862   0.714   6.244   5.876  0.1167  0.1751  0.1919
  454MOL0     H59863   0.221   6.109   5.538  4.1404  0.8663  0.6316
  454MOL0     H59864   0.016   6.210   5.458 -2.1105  2.0053 -0.0372
  454MOL0     H59865  -0.288   6.421   5.696  1.6247  1.3822  0.5506
  454MOL0     H59866  -0.234   6.256   5.707  0.4306 -0.7978 -1.0749
  454MOL0     H59867  -0.399   6.255   5.522  0.1650 -1.7274 -0.3740
  454MOL0     H59868  -0.241   6.220   5.472 -1.0861 -0.5193  0.2251
  454MOL0     H59869  -0.217   6.448   5.345 -0.9805  2.3102 -1.6598
  454MOL0     H59870  -0.336   6.502   5.457 -0.7846 -0.4878 -0.0382
  454MOL0     H59871  -0.502   6.368   5.356  0.8463  1.5980  1.4856
  454MOL0     H59872  -0.428   6.472   5.223  0.4453  0.8917 -0.1275
  454MOL0     H59873  -0.469   6.263   5.136  1.2036 -0.9807 -0.8856
  454MOL0     H59874  -0.400   6.169   5.265  1.6748 -1.3061 -0.9803
  454MOL0     H59875  -0.175   6.231   5.188  0.8039 -0.2184 -1.1531
  454MOL0     H59876  -0.238   6.328   5.060  0.8181  1.5321  2.6196
  454MOL0     H59877  -0.384   6.128   4.983  1.6068 -0.4186 -4.6657
  454MOL0     H59878  -0.210   6.122   4.952  0.4758  0.4083  1.7342
  454MOL0     H59879  -0.327   5.998   5.189 -0.1551  3.4387 -0.7960
  454MOL0     H59880  -0.168   5.956   5.126  0.0767  0.0926  1.8358
  454MOL0     H59881  -0.525   5.826   5.101 -1.2297 -1.9191 -1.2253
  454MOL0     H59882  -0.650   5.668   4.996  0.7427  0.7707  0.7798
  454MOL0     H59883  -0.564   5.530   4.952 -1.2946 -0.0435 -0.7718
  454MOL0     H59884  -0.602   5.598   4.695  1.0155 -1.3642  0.3701
  454MOL0     H59885  -0.663   5.754   4.752 -0.1590 -0.5921 -1.1476
  454MOL0     H59886  -0.833   5.565   4.891 -0.4854 -1.5964 -1.8409
  454MOL0     H59887  -0.858   5.678   4.748 -1.2138  3.5411  3.8070
  454MOL0     H59888  -0.758   5.393   4.760  0.3267  0.4164  0.1394
  454MOL0     H59889  -0.803   5.483   4.611 -0.6835  0.4618  0.2749
  454MOL0     H59890  -1.155   5.336   4.820 -0.1824  1.6128 -2.0355
  454MOL0     H59891  -1.272   5.115   4.738  0.1901  0.6184  2.1046
  454MOL0     H59892  -1.208   4.721   4.408 -0.2662 -2.9101 -0.5185
  454MOL0     H59893  -1.316   4.507   4.388  2.5730 -0.1181  2.1521
  454MOL0     H59894  -1.740   4.461   4.579 -0.0651  0.0920 -2.7416
  454MOL0     H59895  -1.635   4.379   4.677 -1.6263  1.2157  1.3574
  454MOL0     H59896  -1.628   4.192   4.503 -2.9586 -4.2295  2.2549
  454MOL0     H59897  -1.755   4.286   4.408 -1.0927  2.7447  0.8431
  454MOL0     H59898  -1.894   4.283   4.618  1.0416 -0.0476  0.5790
  454MOL0     H59899  -1.777   4.172   4.693  1.2317 -1.3447 -0.3962
  454MOL0     H59900  -1.940   4.118   4.438  0.1773 -1.2162 -1.2988
  454MOL0     H59901  -1.807   4.017   4.489 -0.4280  1.5260 -0.5947
  454MOL0     H59902  -2.028   4.062   4.683 -2.2591 -2.7333  0.2389
  454MOL0     H59903  -1.913   3.935   4.675 -1.0092 -0.9567  1.4041
  454MOL0     H59904  -2.005   3.820   4.509 -1.4668 -0.0502 -0.8456
  454MOL0     H59905  -2.099   3.947   4.439 -0.6224  0.5642  0.9778
  454MOL0     H59906  -2.170   3.819   4.711 -1.7618 -0.0508  0.6789
  454MOL0     H59907  -2.248   3.945   4.623 -1.3556 -0.4021 -1.0795
  454MOL0     H59908  -2.248   3.650   4.565  2.7113  1.2342 -0.5646
  454MOL0     H59909  -2.242   3.754   4.422  1.5837  1.5106  0.7714
  454MOL0     H59910  -1.618   4.633   4.665 -0.5789 -1.0071  0.6765
  454MOL0     H59911  -1.457   4.827   4.737  0.6379 -0.4743 -0.2236
  454MOL0     H59912  -0.980   5.107   4.432 -1.6337  1.0315 -1.4627
  454MOL0     H59913  -0.849   5.285   4.535  2.1415 -1.4726  3.0806
  454MOL0     H59914   0.020   6.473   5.806  2.2930  1.6324  0.2730
  454MOL0     H59915   0.242   6.391   5.867  1.5083 -1.2985  0.3577
  454MOL0     H59916   0.543   6.008   5.697 -0.9088 -1.8820  2.8030
  454MOL0     H59917   0.786   5.894   5.727 -0.4104 -2.0141  1.3340
  454MOL0     H59918   1.106   6.149   5.941  0.9563  0.1688  0.8391
  454MOL0     H59919   1.065   6.167   5.770 -0.1934  0.4989  0.9992
  454MOL0     H59920   1.197   5.967   5.712  2.0294 -1.7681  0.6125
  454MOL0     H59921   1.293   6.075   5.801 -1.3283  1.2494  0.0515
  454MOL0     H59922   1.328   5.848   5.873 -0.3305  1.4490 -1.7620
  454MOL0     H59923   1.160   5.822   5.900  2.6303 -1.2466 -2.0797
  454MOL0     H59924   1.161   5.974   6.105 -0.5791 -0.9568 -1.1466
  454MOL0     H59925   1.284   5.860   6.124  1.1008 -0.1087 -1.1760
  454MOL0     H59926   1.514   6.207   6.070 -1.9152  1.3543  0.2601
  454MOL0     H59927   0.895   6.223   5.965 -0.3654  0.4244  0.1909
  454MOL0     H59928   0.713   6.340   5.926  2.7337  0.6083 -0.4376
  455MOL0     O59929   6.702   2.627   9.780 -0.4457  1.3652  0.3908
  455MOL0     C59930   6.738   2.744   9.784 -0.0295 -0.3008  0.1843
  455MOL0     O59931   6.659   2.852   9.752 -0.5330  0.5936  0.1851
  455MOL0     C59932   6.534   2.825   9.714 -0.7289  0.3265 -0.0642
  455MOL0     C59933   6.448   2.815   9.821 -0.2372  0.0389 -0.0803
  455MOL0     C59934   6.319   2.780   9.799  0.8291  0.5593  0.1903
  455MOL0     C59935   6.270   2.764   9.670 -0.0178  0.2942  0.0577
  455MOL0     O59936   6.133   2.739   9.653  0.2090  0.5503 -0.2849
  455MOL0     C59937   6.080   2.646   9.744  0.2070 -0.5983  0.4942
  455MOL0     C59938   5.961   2.575   9.683 -0.4890 -0.0365 -0.4177
  455MOL0     C59939   5.836   2.660   9.662 -0.0682 -0.0291  0.0343
  455MOL0     C59940   5.723   2.594   9.602 -0.2725 -0.0851  1.0035
  455MOL0     C59941   5.612   2.684   9.543 -1.0031  1.0441 -0.6666
  455MOL0     C59942   5.496   2.597   9.503 -0.0581  0.6978  0.1405
  455MOL0     C59943   5.383   2.675   9.436 -0.6857  0.2093 -0.5811
  455MOL0     C59944   5.265   2.581   9.400 -0.8962 -0.2603 -0.1416
  455MOL0     N59945   5.151   2.654   9.354  0.2629  0.4899 -0.4012
  455MOL0     C59946   5.102   2.657   9.223  0.7477  0.6785 -0.1684
  455MOL0     C59947   4.992   2.735   9.228  0.7702  0.3259 -0.7642
  455MOL0     C59948   4.899   2.780   9.117  0.4360  0.1621 -1.1244
  455MOL0     C59949   4.752   2.817   9.153 -0.3296  0.2598  0.0157
  455MOL0     C59950   4.730   2.953   9.235  0.1559  0.2097  0.4262
  455MOL0     C59951   4.585   2.981   9.232 -0.0491  0.6536  0.8955
  455MOL0     O59952   4.536   2.991   9.092 -0.2056 -0.1081  0.2176
  455MOL0     C59953   4.401   3.010   9.074 -0.5802  0.2578 -0.6532
  455MOL0     C59954   4.312   3.009   9.179 -0.6184 -0.0239 -0.3471
  455MOL0     C59955   4.177   3.017   9.157 -0.2482  1.1447 -0.9254
  455MOL0     C59956   4.128   3.027   9.029  1.1380 -0.2412 -0.6047
  455MOL0     C59957   3.985   3.031   9.004 -0.3686  0.3248  0.7056
  455MOL0     O59958   3.944   3.041   8.873  0.1099  0.5185  0.5084
  455MOL0     C59959   3.809   3.063   8.845  0.3236  0.2796 -0.2960
  455MOL0     C59960   3.712   2.972   8.893 -0.5714  1.0447  0.2677
  455MOL0     C59961   3.576   3.004   8.875  0.8443  0.6608 -0.1700
  455MOL0     C59962   3.535   3.121   8.803  0.3369  0.1070 -0.0900
  455MOL0     O59963   3.409   3.147   8.777 -0.0724 -0.1373 -0.7097
  455MOL0     C59964   3.341   3.243   8.875 -0.2503  0.2668 -0.8300
  455MOL0     C59965   3.198   3.273   8.849 -0.5417 -0.4417 -1.0105
  455MOL0     C59966   3.117   3.139   8.875 -0.4609  0.3986 -0.2002
  455MOL0     C59967   2.973   3.149   8.864  0.7085 -0.2479 -0.2356
  455MOL0     C59968   2.882   3.039   8.912 -0.2120  0.1839  0.6690
  455MOL0     C59969   2.859   3.038   9.056 -0.0771  0.4130 -0.5323
  455MOL0     C59970   2.804   2.908   9.118  0.0622 -0.1116 -0.0659
  455MOL0     C59971   2.652   2.894   9.089  0.5834 -0.0155 -0.3267
  455MOL0    Cl59972   2.615   2.726   9.134  0.3721 -0.0881  0.0496
  455MOL0     C59973   3.634   3.201   8.753  0.9562 -0.1651 -0.0688
  455MOL0     C59974   3.767   3.163   8.755  0.8219 -0.2999  0.2947
  455MOL0     O59975   3.909   3.011   9.101  0.4519 -0.1022  0.2959
  455MOL0     C59976   4.220   3.035   8.925 -0.5794 -0.1902  0.3369
  455MOL0     C59977   4.355   3.023   8.946  0.2827  0.1293  0.5356
  455MOL0     N59978   4.973   2.777   9.361  0.4439 -0.1152 -0.4929
  455MOL0     N59979   5.069   2.731   9.434  0.0692  0.2616  1.0692
  455MOL0     C59980   6.357   2.779   9.559 -0.0290 -0.0348  0.2263
  455MOL0     C59981   6.492   2.807   9.575 -0.3350 -0.0334  0.1390
  455MOL0     C59982   6.864   2.781   9.841 -0.6028 -0.5400 -0.4337
  455MOL0     C59983   6.962   2.687   9.880 -0.6469 -0.6736  0.3183
  455MOL0     C59984   7.068   2.723   9.954 -1.4497 -0.6480  0.3400
  455MOL0     C59985   7.101   2.857   9.973 -0.1516 -0.0556  0.6917
  455MOL0     O59986   7.230   2.871  10.016 -0.1926  0.5238 -0.8262
  455MOL0     C59987   7.291   3.003  10.014 -0.2111 -0.2932  0.5927
  455MOL0     C59988   7.335   3.045   9.884 -0.3193  0.4460 -0.0762
  455MOL0     C59989   7.457   2.975   9.821  0.2380 -0.1928 -0.5084
  455MOL0     C59990   7.398   2.854   9.748 -0.4947  0.7718  0.4614
  455MOL0     C59991   7.504   2.779   9.680 -0.0413  0.1177 -0.3067
  455MOL0     C59992   7.590   2.705   9.642 -0.2261  0.1082  0.5515
  455MOL0     C59993   7.019   2.949   9.920  0.0249 -0.6594  0.9639
  455MOL0     C59994   6.896   2.921   9.867  1.0406 -0.4716  1.1585
  455MOL0     H59995   6.486   2.828   9.922 -0.9300 -2.9021  0.6744
  455MOL0     H59996   6.257   2.760   9.886  0.8919  1.0997  0.3668
  455MOL0     H59997   6.054   2.694   9.839 -0.7390  1.5393 -0.7824
  455MOL0     H59998   6.160   2.574   9.762 -0.0786 -0.8562  0.7509
  455MOL0     H59999   5.936   2.496   9.754  0.9167 -2.3221 -2.2727
  455MOL0     H60000   5.984   2.524   9.589  0.1514 -1.7576  0.6111
  455MOL0     H60001   5.866   2.743   9.599  1.8809 -2.0449 -1.8702
  455MOL0     H60002   5.800   2.697   9.758 -1.7271  0.5772 -0.7700
  455MOL0     H60003   5.770   2.538   9.521 -2.5150  0.0975 -0.5307
  455MOL0     H60004   5.677   2.520   9.667 -2.7670 -0.0421 -0.5747
  455MOL0     H60005   5.637   2.742   9.454  1.3113  0.2845 -0.5629
  455MOL0     H60006   5.577   2.761   9.613  2.3118  1.3102  0.9160
  455MOL0     H60007   5.453   2.538   9.584  0.3375  0.2086 -0.0029
  455MOL0     H60008   5.535   2.533   9.423 -0.8603  2.6911 -1.9680
  455MOL0     H60009   5.340   2.746   9.507 -1.3740  2.1449 -2.7990
  455MOL0     H60010   5.424   2.726   9.348  1.9708  1.1101  1.0614
  455MOL0     H60011   5.243   2.538   9.498  1.6011 -0.5647  0.3509
  455MOL0     H60012   5.293   2.494   9.339  0.0453 -2.3168  2.9733
  455MOL0     H60013   5.156   2.617   9.138  0.0085  0.1257 -0.3846
  455MOL0     H60014   4.891   2.695   9.048 -2.7069 -2.9748  2.6189
  455MOL0     H60015   4.944   2.866   9.067 -0.3567  2.8955  2.4000
  455MOL0     H60016   4.707   2.730   9.202  0.7591 -2.2258 -3.0755
  455MOL0     H60017   4.704   2.818   9.054  0.8028 -3.5624 -0.7293
  455MOL0     H60018   4.750   2.936   9.341 -2.9921 -0.8408  0.9561
  455MOL0     H60019   4.793   3.030   9.190 -0.9074  1.5176  1.1270
  455MOL0     H60020   4.572   3.069   9.296 -0.2259 -0.1859  2.0566
  455MOL0     H60021   4.537   2.901   9.290  2.0413 -0.1750  1.5794
  455MOL0     H60022   4.349   3.007   9.281  1.1183  0.7920 -0.9205
  455MOL0     H60023   4.112   3.000   9.242  0.2095  0.8695 -0.6248
  455MOL0     H60024   3.747   2.896   8.961  0.4955  3.2110  2.2907
  455MOL0     H60025   3.492   2.949   8.916  0.1845  0.5118 -1.6760
  455MOL0     H60026   3.391   3.340   8.870 -0.2463  0.8193  4.4458
  455MOL0     H60027   3.355   3.211   8.979  0.7553  0.3748 -0.9219
  455MOL0     H60028   3.192   3.307   8.745  0.8940  0.1127 -0.9346
  455MOL0     H60029   3.172   3.354   8.917  1.3340  1.1462 -2.0928
  455MOL0     H60030   3.148   3.104   8.975  0.0430 -0.8849 -0.7831
  455MOL0     H60031   3.160   3.068   8.805  2.6183  1.3545  0.5560
  455MOL0     H60032   2.949   3.244   8.913 -0.8423 -1.4610  1.5206
  455MOL0     H60033   2.952   3.167   8.758 -0.0379  3.7489  0.4098
  455MOL0     H60034   2.921   2.943   8.879  0.0428  0.4129  0.2992
  455MOL0     H60035   2.784   3.055   8.866  0.8466  1.5057 -1.2668
  455MOL0     H60036   2.789   3.117   9.083 -2.4550 -0.3567 -3.7067
  455MOL0     H60037   2.955   3.047   9.107 -0.5379  1.0862  0.2343
  455MOL0     H60038   2.855   2.817   9.083  1.2208  0.4451  0.1297
  455MOL0     H60039   2.821   2.904   9.226 -2.6150  0.9806  0.4646
  455MOL0     H60040   2.617   2.921   8.989  1.5858  4.3663  0.3050
  455MOL0     H60041   2.594   2.963   9.150 -1.8306 -3.4563  1.6115
  455MOL0     H60042   3.620   3.296   8.703  0.6664 -1.3677 -2.4347
  455MOL0     H60043   3.848   3.217   8.706  0.2282  0.4896  0.1590
  455MOL0     H60044   4.199   3.076   8.827  0.6356  0.3932  0.2997
  455MOL0     H60045   4.404   3.036   8.850 -2.6095  1.6517 -0.8650
  455MOL0     H60046   6.317   2.761   9.459  2.5142  2.5215 -1.3973
  455MOL0     H60047   6.554   2.820   9.487 -0.6855 -0.8539 -0.2461
  455MOL0     H60048   6.941   2.582   9.863  0.0199 -0.4838 -2.0783
  455MOL0     H60049   7.137   2.644   9.983  1.3711  1.2512 -0.7748
  455MOL0     H60050   7.385   3.007  10.070  1.5216  2.8677 -2.2250
  455MOL0     H60051   7.216   3.068  10.060 -2.8904 -4.4832  2.8220
  455MOL0     H60052   7.258   3.028   9.808  1.6283 -1.7858 -1.6799
  455MOL0     H60053   7.365   3.150   9.895  2.9130 -0.3199 -0.4945
  455MOL0     H60054   7.530   2.950   9.899 -1.3395 -1.3436  0.6588
  455MOL0     H60055   7.507   3.045   9.753  2.4649  1.3338  2.4583
  455MOL0     H60056   7.346   2.785   9.816 -0.4632  0.1044 -0.1758
  455MOL0     H60057   7.332   2.883   9.665  2.2386  1.9488 -1.4364
  455MOL0     H60058   7.680   2.648   9.628 -0.4533 -0.1108 -0.0855
  455MOL0     H60059   7.042   3.055   9.929  0.7395 -0.5595 -1.4643
  455MOL0     H60060   6.826   3.003   9.852 -0.8583 -2.0882  0.6125
  456MOL0     O60061   3.640   3.611   1.328  0.0919 -0.4811  0.2346
  456MOL0     C60062   3.671   3.497   1.286 -0.1940 -0.6883 -0.1447
  456MOL0     O60063   3.587   3.382   1.276 -0.0025 -0.3928 -0.2353
  456MOL0     C60064   3.465   3.402   1.330  0.4940  0.2765 -0.1989
  456MOL0     C60065   3.419   3.328   1.441  0.1292 -0.1775  0.1467
  456MOL0     C60066   3.285   3.337   1.459  0.4020 -0.1674  0.5368
  456MOL0     C60067   3.185   3.405   1.383  0.0609 -0.7522  0.3746
  456MOL0     O60068   3.055   3.379   1.415  0.4284 -0.0046 -0.5325
  456MOL0     C60069   2.944   3.466   1.380 -0.2602 -0.2529  0.5723
  456MOL0     C60070   2.816   3.393   1.340 -0.0254 -0.0006  1.0164
  456MOL0     C60071   2.846   3.285   1.241  0.1954  0.9158  0.2280
  456MOL0     C60072   2.873   3.327   1.098  0.1059 -0.2349  0.5203
  456MOL0     C60073   2.868   3.227   0.991 -0.2817  0.2475  0.1091
  456MOL0     C60074   2.746   3.128   0.995  0.4866  0.2240  0.1930
  456MOL0     C60075   2.729   3.067   0.859 -0.3209  0.0290 -0.3011
  456MOL0     C60076   2.697   2.919   0.888 -0.0686  0.1536 -0.7239
  456MOL0     N60077   2.817   2.835   0.937 -1.0900  0.1966 -0.5324
  456MOL0     C60078   2.937   2.818   0.873  0.3392 -0.2326 -0.5426
  456MOL0     C60079   3.004   2.723   0.943  0.1999 -0.4067  1.1677
  456MOL0     C60080   3.131   2.643   0.908  0.8341  0.1372 -0.1603
  456MOL0     C60081   3.246   2.677   1.006  0.8126 -0.0410 -0.4075
  456MOL0     C60082   3.369   2.583   0.990  0.4883 -0.0893 -0.2638
  456MOL0     C60083   3.443   2.589   0.853 -0.9112  1.0669  0.1798
  456MOL0     O60084   3.588   2.565   0.858 -0.5377  0.3316  0.2076
  456MOL0     C60085   3.680   2.659   0.912 -0.1950  0.0248  0.2007
  456MOL0     C60086   3.812   2.615   0.907  1.1121  0.9880  0.3664
  456MOL0     C60087   3.913   2.700   0.961  0.1682  0.0323  0.1575
  456MOL0     C60088   3.882   2.837   0.987  0.6264  0.3866 -0.6678
  456MOL0     C60089   3.995   2.927   0.995  0.4362  0.0216  1.0471
  456MOL0     O60090   4.115   2.880   0.959 -0.4309  0.4814 -0.0353
  456MOL0     C60091   4.221   2.968   0.980  0.0495  0.9762  0.3520
  456MOL0     C60092   4.260   3.015   1.099 -1.3085  0.2772  0.0950
  456MOL0     C60093   4.384   3.097   1.120 -0.3556 -0.3678  0.5694
  456MOL0     C60094   4.461   3.129   1.003 -0.6785 -0.0420 -0.1255
  456MOL0     O60095   4.581   3.192   1.014 -0.5643  0.0340 -0.0415
  456MOL0     C60096   4.683   3.099   0.949 -1.9273  0.2051 -0.8180
  456MOL0     C60097   4.818   3.178   0.922  0.0368  0.4952 -0.2991
  456MOL0     C60098   4.935   3.096   0.957 -0.7295  0.0001 -0.1356
  456MOL0     C60099   5.070   3.155   0.933  0.6427  0.0610  0.4997
  456MOL0     C60100   5.189   3.061   0.962 -0.3514 -0.5144  0.2773
  456MOL0     C60101   5.324   3.140   0.942 -0.3604 -0.3601  0.6474
  456MOL0     C60102   5.448   3.054   0.979  0.2456 -0.1981 -0.3316
  456MOL0     C60103   5.457   2.933   0.883 -0.2154  0.4061 -0.1340
  456MOL0    Cl60104   5.615   2.850   0.890  0.2577  0.0841  0.0568
  456MOL0     C60105   4.420   3.070   0.882  0.3576  0.2333 -0.4514
  456MOL0     C60106   4.304   3.000   0.868  1.4042  0.0810  0.4091
  456MOL0     O60107   3.969   3.044   1.034  0.0666 -0.7278 -0.6824
  456MOL0     C60108   3.746   2.879   0.994 -0.6825  0.0968 -0.3543
  456MOL0     C60109   3.643   2.789   0.956 -0.7197  0.1657  0.4068
  456MOL0     N60110   2.924   2.695   1.048  0.6294 -0.2209 -0.0926
  456MOL0     N60111   2.812   2.763   1.051 -0.4821 -0.2650  0.5949
  456MOL0     C60112   3.234   3.470   1.266  0.1209 -0.1753 -0.2993
  456MOL0     C60113   3.373   3.472   1.243 -1.4129  0.8046 -0.6381
  456MOL0     C60114   3.806   3.480   1.216  1.0634 -0.8285  0.5033
  456MOL0     C60115   3.887   3.597   1.188 -1.6120  0.0566  0.2443
  456MOL0     C60116   4.010   3.592   1.118  0.4936 -1.1980 -0.1389
  456MOL0     C60117   4.061   3.471   1.077  0.3799 -0.1447  0.6097
  456MOL0     O60118   4.185   3.480   1.028 -0.5946  0.2183  0.4464
  456MOL0     C60119   4.203   3.387   0.915  0.3405 -0.2911 -0.1291
  456MOL0     C60120   4.331   3.416   0.845 -0.4537 -1.1041  0.3583
  456MOL0     C60121   4.320   3.378   0.695  0.4410 -0.1525  0.0716
  456MOL0     C60122   4.452   3.394   0.620 -0.7890 -0.6388 -0.0319
  456MOL0     C60123   4.456   3.350   0.481 -0.0394  0.0747 -0.1285
  456MOL0     C60124   4.446   3.317   0.364  0.5953  0.3870  0.4609
  456MOL0     C60125   3.981   3.359   1.106  0.5454 -0.2067 -0.3069
  456MOL0     C60126   3.854   3.358   1.168  1.6871  0.0519 -0.3994
  456MOL0     H60127   3.487   3.274   1.507  0.0179  0.8797  1.1342
  456MOL0     H60128   3.240   3.287   1.544 -0.6598  1.3476  0.9085
  456MOL0     H60129   2.968   3.534   1.297  0.8168 -0.5451  0.6242
  456MOL0     H60130   2.913   3.526   1.465  5.6085  0.9121  2.3200
  456MOL0     H60131   2.739   3.464   1.308  2.3384  4.2696  3.7847
  456MOL0     H60132   2.777   3.340   1.428 -0.7627  0.8398  1.2039
  456MOL0     H60133   2.756   3.223   1.243  1.5809 -1.2428 -0.5148
  456MOL0     H60134   2.926   3.214   1.264 -1.9902 -1.7066  0.3222
  456MOL0     H60135   2.788   3.393   1.082 -0.9780 -1.5870  0.5243
  456MOL0     H60136   2.968   3.378   1.080 -1.3174  1.4813 -2.9485
  456MOL0     H60137   2.956   3.162   0.994 -0.0243  0.5953  2.7053
  456MOL0     H60138   2.857   3.278   0.895  1.1207 -1.1140 -0.8241
  456MOL0     H60139   2.652   3.178   1.022  0.0078 -0.8194  0.5345
  456MOL0     H60140   2.757   3.057   1.077 -0.8447  1.3820  1.4250
  456MOL0     H60141   2.648   3.113   0.802 -1.7154  0.2155  1.7341
  456MOL0     H60142   2.818   3.070   0.794 -2.0658  0.3491 -2.8238
  456MOL0     H60143   2.666   2.877   0.792 -2.9366 -0.9871  0.5994
  456MOL0     H60144   2.624   2.905   0.968  1.0717 -1.1443  0.1449
  456MOL0     H60145   2.958   2.846   0.770 -3.3880  0.2719 -1.2934
  456MOL0     H60146   3.150   2.676   0.806 -0.5346  1.5388  0.0092
  456MOL0     H60147   3.105   2.537   0.914  0.7608  0.1810  0.3108
  456MOL0     H60148   3.202   2.658   1.104 -0.9581 -0.2538 -1.2194
  456MOL0     H60149   3.265   2.784   0.996 -0.1171 -0.0234 -2.4430
  456MOL0     H60150   3.442   2.613   1.065  1.1396 -0.8554 -0.5781
  456MOL0     H60151   3.329   2.482   1.001  2.1107 -1.0472 -2.3357
  456MOL0     H60152   3.430   2.688   0.809 -2.2532  0.7010 -0.2892
  456MOL0     H60153   3.415   2.513   0.778  1.3541  1.3763 -1.0681
  456MOL0     H60154   3.837   2.516   0.869  2.3526  2.2332 -2.2867
  456MOL0     H60155   4.016   2.665   0.963  0.1708  0.0619  0.6413
  456MOL0     H60156   4.199   2.999   1.187  0.0991 -3.3550  0.6074
  456MOL0     H60157   4.423   3.135   1.214 -0.2682 -3.2259  1.7999
  456MOL0     H60158   4.659   3.059   0.850  1.8114  3.0229 -3.0927
  456MOL0     H60159   4.710   3.014   1.013 -1.3315  1.4021  0.5740
  456MOL0     H60160   4.829   3.268   0.984  0.3895  0.3189 -0.1037
  456MOL0     H60161   4.803   3.211   0.819 -0.9546 -2.8749 -1.3488
  456MOL0     H60162   4.924   2.998   0.908  0.4608 -1.9030  3.0605
  456MOL0     H60163   4.944   3.068   1.062 -1.0142 -2.7523 -0.7655
  456MOL0     H60164   5.075   3.191   0.830  1.7964  0.6026  0.7247
  456MOL0     H60165   5.077   3.246   0.994  1.1917  2.0515 -2.3567
  456MOL0     H60166   5.182   2.978   0.890 -1.8283 -0.7298  0.6339
  456MOL0     H60167   5.182   3.017   1.062 -1.3827  0.6589  0.7398
  456MOL0     H60168   5.320   3.232   1.002 -0.3676 -0.0528  0.1864
  456MOL0     H60169   5.341   3.169   0.837  0.7308 -0.4767  0.7832
  456MOL0     H60170   5.536   3.120   0.978  0.0775  0.0492  0.5675
  456MOL0     H60171   5.438   3.005   1.076 -0.6360  2.5099  1.0472
  456MOL0     H60172   5.425   2.971   0.786 -2.1165  3.9226  1.6789
  456MOL0     H60173   5.382   2.858   0.914  0.8829 -0.2650  1.0203
  456MOL0     H60174   4.473   3.085   0.788 -3.7788  0.2749 -3.0171
  456MOL0     H60175   4.263   2.987   0.769  0.0988  2.1995  0.6057
  456MOL0     H60176   3.713   2.976   1.028  2.0327  0.7115  0.8011
  456MOL0     H60177   3.543   2.824   0.978 -0.0905  1.0341  1.9948
  456MOL0     H60178   3.161   3.516   1.201 -1.8535 -1.0502  1.1784
  456MOL0     H60179   3.416   3.509   1.150 -0.6665  2.5902  0.3821
  456MOL0     H60180   3.855   3.686   1.242  0.4217  1.1379 -0.2523
  456MOL0     H60181   4.060   3.683   1.087  1.0090 -1.5756 -0.4280
  456MOL0     H60182   4.121   3.403   0.845  0.7159 -0.6567 -0.6672
  456MOL0     H60183   4.210   3.281   0.942  2.2509 -0.1096  0.2808
  456MOL0     H60184   4.364   3.521   0.852 -0.7512 -1.0618  1.1702
  456MOL0     H60185   4.420   3.368   0.887  0.0078 -0.5052  0.0869
  456MOL0     H60186   4.245   3.439   0.644 -2.2103 -0.5570  3.1581
  456MOL0     H60187   4.296   3.273   0.675 -0.5832  0.3507 -1.5593
  456MOL0     H60188   4.478   3.500   0.626  2.6972 -1.3683 -0.2059
  456MOL0     H60189   4.541   3.360   0.673  0.8009  3.8134  0.5525
  456MOL0     H60190   4.437   3.287   0.261  2.7146 -1.0993  0.6411
  456MOL0     H60191   4.029   3.263   1.091 -5.1753 -3.2508 -1.8977
  456MOL0     H60192   3.796   3.266   1.173  2.4116 -0.4608 -1.1587
  457MOL0     O60193   2.435   4.475   5.900  0.2203  0.1288  0.7265
  457MOL0     C60194   2.392   4.435   5.784 -0.4176 -0.3763  0.1522
  457MOL0     O60195   2.284   4.483   5.719 -0.0989 -0.2899 -0.8667
  457MOL0     C60196   2.169   4.546   5.782 -0.8756  0.5161  0.2390
  457MOL0     C60197   2.137   4.526   5.919  0.4607  0.2846  0.0317
  457MOL0     C60198   2.022   4.595   5.967  0.6735 -0.0068 -0.7427
  457MOL0     C60199   1.933   4.665   5.883 -0.0527  0.3666 -0.7632
  457MOL0     O60200   1.818   4.729   5.929 -0.4052 -0.2546  0.0790
  457MOL0     C60201   1.709   4.760   5.853  0.1766 -0.0019  0.0807
  457MOL0     C60202   1.595   4.718   5.943  0.6551 -0.2328  0.5498
  457MOL0     C60203   1.461   4.781   5.904  0.1085 -0.1300  1.0780
  457MOL0     C60204   1.335   4.711   5.973 -1.4552 -0.0097  0.3032
  457MOL0     C60205   1.211   4.710   5.888  0.5233 -0.4652  0.0418
  457MOL0     C60206   1.157   4.850   5.864  0.1793 -0.2294  1.0801
  457MOL0     C60207   1.030   4.858   5.782 -0.4995 -0.4503  0.0857
  457MOL0     C60208   0.898   4.820   5.851  0.6198  0.8212 -0.8306
  457MOL0     N60209   0.782   4.843   5.769  0.0837  0.1031  0.1994
  457MOL0     C60210   0.735   4.962   5.720 -0.1853 -0.5957 -1.1191
  457MOL0     C60211   0.605   4.951   5.681 -0.4717  0.5825  0.7237
  457MOL0     C60212   0.516   5.056   5.629  0.2007 -0.3599 -0.4711
  457MOL0     C60213   0.465   5.153   5.737  0.4097 -0.1952 -0.3127
  457MOL0     C60214   0.342   5.223   5.680 -0.2576  0.5425  0.1023
  457MOL0     C60215   0.238   5.206   5.789  0.9910 -0.0005 -0.4327
  457MOL0     O60216   0.139   5.282   5.726  0.2166 -0.1839  0.1062
  457MOL0     C60217   0.055   5.359   5.806  0.1876  0.1987  0.0202
  457MOL0     C60218  -0.017   5.461   5.741  0.4824 -0.5878  0.1292
  457MOL0     C60219  -0.123   5.526   5.810  0.3943  0.5579 -0.3850
  457MOL0     C60220  -0.165   5.485   5.944 -0.8521  0.2682 -0.0094
  457MOL0     C60221  -0.276   5.552   6.021  0.3960  0.7039 -0.3604
  457MOL0     O60222  -0.320   5.669   5.967 -0.5540  0.0966  0.0760
  457MOL0     C60223  -0.429   5.717   6.025 -0.0973 -0.7402  0.6587
  457MOL0     C60224  -0.529   5.770   5.938  0.1203 -0.0503  0.4896
  457MOL0     C60225  -0.649   5.829   5.990  0.4629 -0.1415  0.2885
  457MOL0     C60226  -0.668   5.844   6.128 -0.4006  1.0519 -0.1725
  457MOL0     O60227  -0.776   5.919   6.164 -0.1583 -0.7521 -0.2328
  457MOL0     C60228  -0.837   5.887   6.294  0.1222  0.4114 -0.4408
  457MOL0     C60229  -0.955   5.971   6.298  0.8160 -0.6040  0.0880
  457MOL0     C60230  -1.054   5.964   6.183 -0.7650  0.0775 -1.1616
  457MOL0     C60231  -1.173   6.053   6.215 -0.2001  0.4478 -0.1421
  457MOL0     C60232  -1.182   6.198   6.188  0.5342 -0.5267  0.4091
  457MOL0     C60233  -1.293   6.262   6.257 -0.5100 -1.3418 -0.4578
  457MOL0     C60234  -1.334   6.401   6.210  0.3761 -0.7514  0.4080
  457MOL0     C60235  -1.233   6.500   6.150  0.5933 -0.2634  0.4726
  457MOL0    Cl60236  -1.297   6.657   6.083  0.4838  0.1954 -0.3860
  457MOL0     C60237  -0.574   5.793   6.215 -0.2097 -0.1527  0.6488
  457MOL0     C60238  -0.453   5.735   6.162  0.2586 -0.1476 -0.5994
  457MOL0     O60239  -0.331   5.490   6.107  0.4516 -0.2685  0.0310
  457MOL0     C60240  -0.076   5.385   6.004  0.6462  0.4696  0.0239
  457MOL0     C60241   0.015   5.312   5.932 -0.0379 -0.0131  0.3043
  457MOL0     N60242   0.584   4.815   5.685 -0.8680  0.4612 -0.2432
  457MOL0     N60243   0.684   4.753   5.729  0.1866 -0.1281  0.3661
  457MOL0     C60244   1.964   4.665   5.745  0.3839  0.7175  0.0244
  457MOL0     C60245   2.073   4.597   5.695 -1.2479 -0.0835  0.1789
  457MOL0     C60246   2.492   4.348   5.714 -1.0846 -0.2307 -0.3006
  457MOL0     C60247   2.622   4.336   5.767  0.2820 -0.2149 -0.0469
  457MOL0     C60248   2.729   4.277   5.696  0.3999 -0.1428 -1.0571
  457MOL0     C60249   2.709   4.228   5.573  0.0352  0.2906  0.1449
  457MOL0     O60250   2.801   4.163   5.493 -0.0976 -0.1481 -0.5820
  457MOL0     C60251   2.892   4.062   5.551  1.2906 -0.4197  0.5174
  457MOL0     C60252   3.016   4.131   5.607  0.0527 -0.2149 -0.3574
  457MOL0     C60253   3.110   4.177   5.492  0.1311  0.3796 -0.3704
  457MOL0     C60254   3.240   4.235   5.551 -0.3268 -0.7560  0.3333
  457MOL0     C60255   3.328   4.136   5.615 -0.9653  0.1355 -0.0042
  457MOL0     C60256   3.414   4.058   5.674  0.9554  0.1981 -0.3728
  457MOL0     C60257   2.585   4.228   5.515 -0.2523  0.0039 -0.5838
  457MOL0     C60258   2.472   4.283   5.585 -0.9465  0.7846 -0.0479
  457MOL0     H60259   2.196   4.470   5.990 -1.8137 -0.0447  1.7781
  457MOL0     H60260   2.002   4.588   6.073 -1.2691 -3.0795 -1.1804
  457MOL0     H60261   1.704   4.705   5.759  2.2951 -1.1998  0.6081
  457MOL0     H60262   1.709   4.869   5.839 -2.7493  0.0052 -0.5197
  457MOL0     H60263   1.617   4.735   6.049 -0.0355 -4.8904  1.6712
  457MOL0     H60264   1.576   4.611   5.929  3.9848 -0.9041  0.2967
  457MOL0     H60265   1.442   4.772   5.797 -0.6021  0.2744  1.1623
  457MOL0     H60266   1.460   4.889   5.921  3.0245  0.2512 -0.4657
  457MOL0     H60267   1.363   4.609   6.003 -2.4730 -1.1259 -2.3173
  457MOL0     H60268   1.323   4.749   6.075 -0.1084  1.7856 -0.1589
  457MOL0     H60269   1.138   4.640   5.930 -0.1254 -1.3205 -2.3559
  457MOL0     H60270   1.233   4.666   5.791  0.1543 -1.2139  0.2894
  457MOL0     H60271   1.231   4.908   5.807  0.5116 -1.1763  0.5292
  457MOL0     H60272   1.123   4.904   5.953  0.9600  4.1596 -0.9725
  457MOL0     H60273   1.027   4.962   5.748  0.5778 -0.4693 -0.0738
  457MOL0     H60274   1.036   4.800   5.689  2.6218 -1.7856  1.0070
  457MOL0     H60275   0.887   4.882   5.941 -1.2751 -0.6509  0.0102
  457MOL0     H60276   0.904   4.714   5.875 -0.5130  0.9502  0.0948
  457MOL0     H60277   0.795   5.052   5.728  0.6944 -1.3260  2.0625
  457MOL0     H60278   0.439   5.002   5.573  0.4657 -3.7617  2.1448
  457MOL0     H60279   0.566   5.112   5.549 -2.0997 -0.4470 -2.0652
  457MOL0     H60280   0.542   5.229   5.755  0.5073  0.0604 -1.7180
  457MOL0     H60281   0.444   5.110   5.836 -0.1135  0.9484  0.0836
  457MOL0     H60282   0.361   5.329   5.665 -3.9062  1.6351  1.9575
  457MOL0     H60283   0.298   5.185   5.588  1.6038 -2.2763  0.2340
  457MOL0     H60284   0.263   5.237   5.891 -1.2923 -1.6466  0.6892
  457MOL0     H60285   0.201   5.105   5.808  1.7070 -0.0250  0.9869
  457MOL0     H60286   0.007   5.483   5.638 -3.0300  3.8427 -0.0138
  457MOL0     H60287  -0.181   5.602   5.758  0.5197  1.1079  0.2477
  457MOL0     H60288  -0.494   5.768   5.836  1.0929  2.3629  0.7104
  457MOL0     H60289  -0.725   5.858   5.918 -0.5666 -3.1696  0.0397
  457MOL0     H60290  -0.763   5.916   6.369 -0.4557 -0.3688  0.4612
  457MOL0     H60291  -0.861   5.780   6.298  0.1837  0.4339  0.7269
  457MOL0     H60292  -0.918   6.072   6.319  3.7322 -1.7128  0.7379
  457MOL0     H60293  -1.006   5.935   6.388 -2.2414 -0.2952 -1.3917
  457MOL0     H60294  -1.080   5.860   6.167  0.2676 -0.8986  2.4352
  457MOL0     H60295  -0.998   6.005   6.099  0.2918  0.6724 -0.1975
  457MOL0     H60296  -1.254   5.995   6.168 -0.5845  0.6469  0.2740
  457MOL0     H60297  -1.195   6.046   6.321 -0.3860 -1.0012 -0.2459
  457MOL0     H60298  -1.201   6.207   6.081 -2.1082  0.1495  0.8551
  457MOL0     H60299  -1.084   6.240   6.213  0.6265 -1.0197  0.9202
  457MOL0     H60300  -1.268   6.277   6.363 -0.4838 -0.3608 -0.5936
  457MOL0     H60301  -1.377   6.192   6.259 -0.4196 -1.4583  1.9459
  457MOL0     H60302  -1.407   6.383   6.131 -1.2124 -0.1080  1.6797
  457MOL0     H60303  -1.387   6.458   6.287  1.0960 -0.1317  0.4576
  457MOL0     H60304  -1.193   6.447   6.063  2.2800  1.9849 -0.2493
  457MOL0     H60305  -1.146   6.523   6.213  0.3936  2.9322 -0.2283
  457MOL0     H60306  -0.584   5.811   6.322  1.2792 -2.3695  1.2378
  457MOL0     H60307  -0.371   5.704   6.225  1.5691  2.3174 -0.9781
  457MOL0     H60308  -0.081   5.358   6.109  1.1342  0.7677  0.1251
  457MOL0     H60309   0.058   5.233   5.992  0.6734  2.1807  2.8342
  457MOL0     H60310   1.899   4.727   5.684 -1.4856  2.6148  3.5939
  457MOL0     H60311   2.083   4.593   5.587  0.3206  0.4700  0.2837
  457MOL0     H60312   2.652   4.374   5.864  0.5455 -1.0631  0.2142
  457MOL0     H60313   2.815   4.265   5.762  1.2501  0.6768 -1.9716
  457MOL0     H60314   2.938   4.001   5.473  0.5352  2.1976 -2.1843
  457MOL0     H60315   2.842   3.999   5.625  1.6727 -1.7222 -0.2947
  457MOL0     H60316   2.983   4.226   5.649 -5.1052 -0.3807 -3.1721
  457MOL0     H60317   3.083   4.073   5.671  1.0866 -1.1262 -2.1926
  457MOL0     H60318   3.063   4.258   5.434  2.6803  2.6918  0.5843
  457MOL0     H60319   3.134   4.093   5.427  3.0801 -0.8207  2.0284
  457MOL0     H60320   3.322   4.271   5.487  3.4763  1.2592  5.6243
  457MOL0     H60321   3.215   4.319   5.617 -1.2001 -2.5452  2.3894
  457MOL0     H60322   3.471   4.008   5.749 -1.1350 -1.9225 -0.0927
  457MOL0     H60323   2.575   4.179   5.419  3.4442 -4.2702  0.9285
  457MOL0     H60324   2.367   4.284   5.556 -0.8598 -2.2003 -0.7628
  458MOL0     O60325   9.132   4.499   2.997  0.1832  0.1855 -1.3704
  458MOL0     C60326   9.166   4.606   3.045  1.1266 -0.0308 -1.1106
  458MOL0     O60327   9.085   4.696   3.108 -0.4237  0.7231 -0.3383
  458MOL0     C60328   8.952   4.662   3.142 -0.0577 -0.2424 -0.6012
  458MOL0     C60329   8.862   4.771   3.152  0.2194  0.6509 -0.6026
  458MOL0     C60330   8.726   4.744   3.175 -0.2776  0.1780  0.1158
  458MOL0     C60331   8.679   4.611   3.201  0.1110  0.5289  0.1556
  458MOL0     O60332   8.543   4.592   3.229  0.4892 -0.4765 -0.2902
  458MOL0     C60333   8.506   4.548   3.355 -0.3385 -0.8094 -0.6337
  458MOL0     C60334   8.551   4.634   3.483  0.2372 -0.5646  0.2854
  458MOL0     C60335   8.509   4.562   3.609 -0.0706 -0.4944 -1.3386
  458MOL0     C60336   8.361   4.531   3.617 -0.3667 -0.3750 -0.0878
  458MOL0     C60337   8.331   4.445   3.740  0.5634  0.5084 -0.9925
  458MOL0     C60338   8.191   4.381   3.749 -0.1415  0.3741 -0.1233
  458MOL0     C60339   8.158   4.282   3.642  0.3889  0.0802  0.2223
  458MOL0     C60340   8.030   4.208   3.688  0.4949 -0.2294  0.0650
  458MOL0     N60341   8.048   4.103   3.790 -0.5127 -0.2901  0.8313
  458MOL0     C60342   8.028   4.101   3.924  0.1858 -0.3907  0.5963
  458MOL0     C60343   8.036   3.971   3.964 -0.2986  0.0343 -1.0809
  458MOL0     C60344   8.029   3.945   4.114 -0.7442  0.2121 -0.6066
  458MOL0     C60345   7.898   3.876   4.172 -0.6715 -1.1775  0.8504
  458MOL0     C60346   7.880   3.726   4.160 -0.4392  0.1552  0.3591
  458MOL0     C60347   7.976   3.641   4.232 -0.9590 -0.1486 -0.2402
  458MOL0     O60348   7.922   3.510   4.213 -0.1879 -0.2537  0.4873
  458MOL0     C60349   7.889   3.430   4.316  0.5621  0.0704  0.0151
  458MOL0     C60350   7.884   3.295   4.276  1.4409  0.5345  0.0762
  458MOL0     C60351   7.843   3.197   4.372 -0.5385 -0.2322 -0.1695
  458MOL0     C60352   7.831   3.236   4.512 -0.2344  0.1372  0.6365
  458MOL0     C60353   7.792   3.133   4.608  0.2515  0.3481 -0.4827
  458MOL0     O60354   7.811   3.168   4.735  0.2322  0.6978 -0.0906
  458MOL0     C60355   7.866   3.079   4.823 -0.1642  0.4020 -0.2876
  458MOL0     C60356   7.916   2.947   4.802 -0.0376 -0.3542 -0.1232
  458MOL0     C60357   7.958   2.860   4.903 -0.1802 -0.0129 -0.0517
  458MOL0     C60358   7.963   2.903   5.027 -0.9695  0.4084  0.8682
  458MOL0     O60359   8.022   2.836   5.138  0.8125 -0.6694 -0.2812
  458MOL0     C60360   8.023   2.694   5.124 -0.9515  0.4540  0.1279
  458MOL0     C60361   7.890   2.616   5.106 -0.1742 -0.0473 -0.2014
  458MOL0     C60362   7.805   2.629   5.232 -0.2030  0.3748  0.6356
  458MOL0     C60363   7.676   2.545   5.223 -0.0197 -0.6322 -0.0967
  458MOL0     C60364   7.559   2.636   5.178 -0.4974  0.3978 -0.9160
  458MOL0     C60365   7.547   2.676   5.024 -0.0954  0.2117 -0.5435
  458MOL0     C60366   7.577   2.827   5.012  0.0434 -0.9660 -0.2172
  458MOL0     C60367   7.564   2.863   4.863 -1.0615 -0.0330 -0.9928
  458MOL0    Cl60368   7.398   2.854   4.802  0.0045 -0.2502 -0.2207
  458MOL0     C60369   7.931   3.033   5.052 -0.3702 -0.2269 -0.0785
  458MOL0     C60370   7.874   3.114   4.959  0.7294 -0.3725  0.4685
  458MOL0     O60371   7.730   3.028   4.579  0.2600 -0.6250 -0.5118
  458MOL0     C60372   7.869   3.368   4.548  1.3153 -0.5256  0.3189
  458MOL0     C60373   7.892   3.464   4.453  0.5218  0.3353 -0.7811
  458MOL0     N60374   8.023   3.897   3.851 -0.2646 -0.6341 -0.0232
  458MOL0     N60375   8.035   3.979   3.755  0.1163  0.5523  0.2571
  458MOL0     C60376   8.769   4.503   3.192  0.3069 -0.0785  0.2828
  458MOL0     C60377   8.908   4.530   3.162 -0.4088  0.4419 -0.4229
  458MOL0     C60378   9.300   4.651   3.024 -0.0704 -0.3953  0.5364
  458MOL0     C60379   9.390   4.598   2.929 -0.1869  0.1227  0.9227
  458MOL0     C60380   9.512   4.648   2.890  0.4242 -0.0122 -0.6670
  458MOL0     C60381   9.558   4.759   2.963  0.1226 -0.6146  0.2819
  458MOL0     O60382   9.678   4.823   2.969  0.0721 -1.0819 -0.0793
  458MOL0     C60383   9.779   4.782   2.869 -0.6950 -0.6862 -0.0054
  458MOL0     C60384   9.908   4.861   2.892  0.4742 -0.2662  0.8714
  458MOL0     C60385   9.894   5.016   2.910 -0.2163 -0.0699 -0.0324
  458MOL0     C60386  10.019   5.096   2.867  0.1685 -1.3709  0.1416
  458MOL0     C60387  10.070   5.060   2.735 -0.4631 -0.6500  0.7441
  458MOL0     C60388  10.097   5.034   2.622 -0.2596 -0.1785  0.6603
  458MOL0     C60389   9.480   4.816   3.068  0.7442 -0.0536  0.0012
  458MOL0     C60390   9.354   4.762   3.097 -0.4891 -0.0347  0.3296
  458MOL0     H60391   8.890   4.873   3.127  0.6764  0.4428 -0.9825
  458MOL0     H60392   8.654   4.823   3.193 -0.7796 -0.1340 -0.4791
  458MOL0     H60393   8.549   4.447   3.352  0.3356 -0.5205 -2.8714
  458MOL0     H60394   8.398   4.532   3.354 -0.1264 -2.4231 -1.3195
  458MOL0     H60395   8.499   4.729   3.477  2.4731  0.6975 -0.4673
  458MOL0     H60396   8.659   4.654   3.488 -0.0727  1.0239  1.0847
  458MOL0     H60397   8.525   4.645   3.678 -3.1302  0.1656 -1.2731
  458MOL0     H60398   8.574   4.476   3.624 -0.6311 -0.5899  0.8422
  458MOL0     H60399   8.315   4.631   3.616  0.9639  0.3153  1.8047
  458MOL0     H60400   8.329   4.467   3.534 -1.1132  0.1200 -0.1908
  458MOL0     H60401   8.341   4.504   3.832 -1.5245 -1.8307  0.9100
  458MOL0     H60402   8.406   4.368   3.759 -0.9435 -0.8504 -0.2945
  458MOL0     H60403   8.108   4.452   3.739 -1.0190  0.2205  4.2878
  458MOL0     H60404   8.173   4.334   3.846 -0.1519  2.2289  0.8161
  458MOL0     H60405   8.143   4.331   3.545  0.8492 -1.1985 -0.5137
  458MOL0     H60406   8.234   4.205   3.628 -0.3690 -0.9351  1.4570
  458MOL0     H60407   7.988   4.158   3.599 -0.6378 -0.0144  0.4573
  458MOL0     H60408   7.959   4.277   3.735  1.6748 -1.3019  3.7523
  458MOL0     H60409   8.006   4.186   3.988 -2.4554 -0.9420  0.5645
  458MOL0     H60410   8.040   4.042   4.163  0.3900 -0.3072  0.2216
  458MOL0     H60411   8.116   3.888   4.149 -1.6010  1.5846  4.5750
  458MOL0     H60412   7.812   3.925   4.124 -0.2368 -0.4721  0.7885
  458MOL0     H60413   7.890   3.911   4.275 -1.3295  4.6867 -0.8026
  458MOL0     H60414   7.787   3.713   4.217  0.3639 -0.8583  1.4944
  458MOL0     H60415   7.857   3.699   4.057  2.1072  0.8895 -0.4667
  458MOL0     H60416   7.986   3.685   4.332 -2.5975  0.9725 -0.5347
  458MOL0     H60417   8.077   3.638   4.190  0.2218  0.3961  2.3423
  458MOL0     H60418   7.893   3.268   4.171 -2.5357 -0.2037 -0.2300
  458MOL0     H60419   7.824   3.098   4.332 -3.1519 -0.2710  0.9434
  458MOL0     H60420   7.906   2.896   4.707 -0.4986  1.0530 -0.8450
  458MOL0     H60421   7.992   2.761   4.875  1.8541 -0.4244  3.3350
  458MOL0     H60422   8.060   2.665   5.222 -1.5075 -3.5833 -0.6902
  458MOL0     H60423   8.084   2.658   5.041  0.7718 -1.3269  2.0631
  458MOL0     H60424   7.897   2.507   5.100 -1.6508 -0.3140  1.7755
  458MOL0     H60425   7.828   2.651   5.023  0.0912 -2.3251 -1.4433
  458MOL0     H60426   7.788   2.733   5.259  2.1377  0.6254  1.4121
  458MOL0     H60427   7.862   2.585   5.315  1.5615 -0.9865 -1.1859
  458MOL0     H60428   7.692   2.455   5.163  0.7310 -0.0382 -0.8139
  458MOL0     H60429   7.651   2.495   5.317 -0.9056 -2.6076 -1.3234
  458MOL0     H60430   7.562   2.728   5.238 -1.5917 -0.0147 -0.2086
  458MOL0     H60431   7.473   2.577   5.210 -0.8421  1.2330 -0.2643
  458MOL0     H60432   7.443   2.657   4.997  0.7919 -3.7027 -1.7941
  458MOL0     H60433   7.614   2.617   4.961  1.2663  2.3170 -1.2010
  458MOL0     H60434   7.511   2.885   5.076 -1.3267 -0.7750 -1.7246
  458MOL0     H60435   7.678   2.854   5.045  0.2358 -1.3875 -0.4587
  458MOL0     H60436   7.636   2.806   4.803  2.6658 -0.0973  3.0060
  458MOL0     H60437   7.596   2.967   4.856 -0.6025 -0.1724 -1.0620
  458MOL0     H60438   7.943   3.074   5.151  1.6056 -2.4801  0.7208
  458MOL0     H60439   7.815   3.196   4.997  1.9573 -0.2036  2.1049
  458MOL0     H60440   7.869   3.396   4.653  2.5265 -2.1067  0.7665
  458MOL0     H60441   7.912   3.563   4.493 -1.4678  1.1169 -1.5597
  458MOL0     H60442   8.741   4.400   3.213 -0.3587 -0.4881 -2.2477
  458MOL0     H60443   8.977   4.446   3.158  1.6150  2.0256 -0.0451
  458MOL0     H60444   9.356   4.515   2.867 -0.5293  0.6856  0.3535
  458MOL0     H60445   9.582   4.600   2.822 -1.0312 -4.1602  0.4420
  458MOL0     H60446   9.736   4.804   2.771  0.1406 -3.6647 -1.1310
  458MOL0     H60447   9.805   4.676   2.870 -2.7939 -1.2752  2.3045
  458MOL0     H60448   9.949   4.825   2.986 -2.1909  2.4370  3.2710
  458MOL0     H60449   9.984   4.834   2.818  1.2487  0.0286  1.5370
  458MOL0     H60450   9.898   5.017   3.019  0.3584 -1.9147 -0.0095
  458MOL0     H60451   9.804   5.049   2.858 -0.0383 -0.2383 -0.4486
  458MOL0     H60452  10.001   5.203   2.864  1.7671 -0.9806 -5.1720
  458MOL0     H60453  10.097   5.066   2.937  0.2637 -1.7602 -0.1269
  458MOL0     H60454  10.106   4.991   2.524 -0.5674  0.2663  0.4371
  458MOL0     H60455   9.527   4.897   3.122  1.1009 -1.4318  1.8980
  458MOL0     H60456   9.301   4.812   3.177  0.4366  3.5363 -1.1076
  459MOL0     O60457   6.132   1.217   3.839  0.1387 -0.0596 -0.3404
  459MOL0     C60458   6.033   1.268   3.896  0.6665  0.2604 -0.3146
  459MOL0     O60459   6.011   1.275   4.027 -0.0331  0.0275  0.0170
  459MOL0     C60460   6.100   1.219   4.120 -0.7687  0.2951  0.4713
  459MOL0     C60461   6.044   1.153   4.231 -0.3030 -0.0591 -0.1867
  459MOL0     C60462   6.127   1.101   4.337  0.2209  0.0682 -0.0515
  459MOL0     C60463   6.275   1.106   4.321  0.6769  0.9093  0.0249
  459MOL0     O60464   6.349   1.047   4.416  0.2240  0.7807 -0.3629
  459MOL0     C60465   6.488   1.032   4.398 -0.8159 -0.4954 -0.8031
  459MOL0     C60466   6.518   0.895   4.312  0.9471  0.1664 -0.3081
  459MOL0     C60467   6.662   0.868   4.296 -0.0633  0.6696  0.4184
  459MOL0     C60468   6.749   0.867   4.424 -0.0216 -0.4204 -0.2703
  459MOL0     C60469   6.887   0.807   4.416  0.3040  0.4293 -0.1578
  459MOL0     C60470   7.006   0.892   4.357  0.2352  0.3511 -0.5416
  459MOL0     C60471   7.145   0.822   4.370  0.2229 -0.4457  0.1255
  459MOL0     C60472   7.236   0.891   4.264  1.3010  0.1625 -0.8037
  459MOL0     N60473   7.369   0.838   4.272  0.8673  0.4419  1.2790
  459MOL0     C60474   7.473   0.881   4.355 -0.6706  0.1185  0.5871
  459MOL0     C60475   7.553   0.774   4.372  0.0929 -0.5433  0.5147
  459MOL0     C60476   7.655   0.758   4.483  0.1367  0.7267 -0.0073
  459MOL0     C60477   7.799   0.779   4.442 -1.0381 -0.1971 -0.2459
  459MOL0     C60478   7.836   0.693   4.316 -0.2088  0.7992  0.5665
  459MOL0     C60479   7.973   0.736   4.273 -0.1479  0.5207  0.3864
  459MOL0     O60480   8.007   0.649   4.166  0.3588 -0.1529  0.7194
  459MOL0     C60481   8.109   0.684   4.079 -0.6455  0.5002 -0.0591
  459MOL0     C60482   8.130   0.602   3.969 -0.5396  0.6977 -0.9004
  459MOL0     C60483   8.244   0.617   3.890  0.2086 -0.1086  1.2678
  459MOL0     C60484   8.337   0.721   3.916 -0.0476  0.2111 -0.0159
  459MOL0     C60485   8.465   0.740   3.844 -0.7419  0.8296  0.7615
  459MOL0     O60486   8.560   0.833   3.895  0.5905 -0.6231  0.1408
  459MOL0     C60487   8.638   0.901   3.799  0.4166  0.4410 -1.4249
  459MOL0     C60488   8.585   1.011   3.726  0.2610  0.6582  0.1445
  459MOL0     C60489   8.664   1.077   3.628 -0.1170  0.1981  0.5794
  459MOL0     C60490   8.794   1.039   3.606  0.1426 -0.7854 -0.2569
  459MOL0     O60491   8.881   1.108   3.517 -0.8683 -0.7512 -0.8711
  459MOL0     C60492   8.813   1.183   3.420  0.1824  0.3193 -0.4435
  459MOL0     C60493   8.923   1.235   3.318  0.1322 -0.0230  0.4021
  459MOL0     C60494   9.005   1.129   3.238 -0.1389  0.0212  0.7279
  459MOL0     C60495   8.934   1.035   3.129  0.6043  0.2377 -0.5447
  459MOL0     C60496   9.028   0.978   3.023 -0.0716  0.9212 -0.4185
  459MOL0     C60497   8.954   0.868   2.942  0.3456 -0.7035 -0.5502
  459MOL0     C60498   8.831   0.926   2.864 -0.3128 -0.4870 -0.4438
  459MOL0     C60499   8.874   1.024   2.763  0.3500  0.4958  0.5806
  459MOL0    Cl60500   9.002   0.982   2.639  0.0199  0.4629 -0.3790
  459MOL0     C60501   8.841   0.919   3.665 -0.5962  0.1615 -0.8484
  459MOL0     C60502   8.763   0.848   3.763 -0.8673  0.3541  0.1997
  459MOL0     O60503   8.481   0.669   3.746  0.2928 -0.9443  0.2180
  459MOL0     C60504   8.303   0.802   4.026 -1.4644  0.6404  0.5648
  459MOL0     C60505   8.198   0.779   4.106  1.2132 -0.2704 -0.2139
  459MOL0     N60506   7.498   0.673   4.304  0.2586 -0.7040 -0.0625
  459MOL0     N60507   7.396   0.704   4.245 -0.6160 -0.4420 -0.1595
  459MOL0     C60508   6.321   1.170   4.201  0.5340 -0.0669 -0.3479
  459MOL0     C60509   6.238   1.230   4.110  0.1777 -0.5147 -0.8771
  459MOL0     C60510   5.933   1.322   3.802  0.4682  0.5237 -0.0765
  459MOL0     C60511   5.954   1.344   3.659  0.3375 -0.4972 -1.1163
  459MOL0     C60512   5.857   1.385   3.571  0.4083  0.3415  0.0092
  459MOL0     C60513   5.725   1.402   3.623 -1.2474 -0.1991  0.0227
  459MOL0     O60514   5.627   1.440   3.531  0.5342 -0.0735 -0.4355
  459MOL0     C60515   5.512   1.514   3.577  0.0981  0.6064  0.6403
  459MOL0     C60516   5.429   1.577   3.462 -0.1660 -0.5814 -0.0077
  459MOL0     C60517   5.475   1.540   3.313 -0.4558  0.1407 -0.2124
  459MOL0     C60518   5.596   1.620   3.262 -0.2215  0.5517  1.2870
  459MOL0     C60519   5.564   1.749   3.190 -0.7717 -0.0740 -0.3057
  459MOL0     C60520   5.536   1.849   3.142  1.0339 -0.4312  0.6179
  459MOL0     C60521   5.699   1.382   3.755  0.1530  0.7505 -0.0495
  459MOL0     C60522   5.801   1.350   3.851  0.4479  0.2746 -0.6606
  459MOL0     H60523   5.935   1.159   4.237 -0.3598  1.3142 -1.9517
  459MOL0     H60524   6.080   1.049   4.420  1.3971  1.0404  1.2731
  459MOL0     H60525   6.527   1.007   4.497 -0.9530 -1.7117 -1.0331
  459MOL0     H60526   6.537   1.125   4.371  0.0926 -0.5978  0.3997
  459MOL0     H60527   6.479   0.914   4.212  1.0470  0.3548 -0.3102
  459MOL0     H60528   6.466   0.811   4.360  0.7225  0.7778  0.5298
  459MOL0     H60529   6.701   0.941   4.225 -1.2164  0.7404 -0.1658
  459MOL0     H60530   6.667   0.767   4.255 -1.9353 -0.0492  1.8211
  459MOL0     H60531   6.767   0.971   4.453 -2.5165  0.0517 -0.2448
  459MOL0     H60532   6.698   0.816   4.506  1.3897  0.1310  1.0071
  459MOL0     H60533   6.886   0.712   4.362  0.6989  3.1116 -5.4919
  459MOL0     H60534   6.913   0.786   4.520 -2.7789  2.1127  1.0903
  459MOL0     H60535   7.014   0.986   4.412 -2.1959  0.4885 -0.2992
  459MOL0     H60536   6.986   0.913   4.252  1.4762 -3.1122 -1.6109
  459MOL0     H60537   7.183   0.836   4.471  0.2507 -2.0562  0.3607
  459MOL0     H60538   7.125   0.715   4.358 -2.8324 -0.5293  4.0045
  459MOL0     H60539   7.244   0.993   4.301 -0.0173  0.6878 -1.8676
  459MOL0     H60540   7.193   0.888   4.163 -0.1043  1.5071 -0.2856
  459MOL0     H60541   7.491   0.975   4.407  1.8129 -0.3334  0.6447
  459MOL0     H60542   7.649   0.654   4.516 -0.7824  0.7625 -0.0343
  459MOL0     H60543   7.626   0.828   4.563 -1.8374 -0.9113  0.7679
  459MOL0     H60544   7.869   0.756   4.523 -2.3115  2.1479  1.6461
  459MOL0     H60545   7.809   0.886   4.420  0.8188  0.5276  3.2968
  459MOL0     H60546   7.853   0.593   4.357  1.0595  0.7944  0.0821
  459MOL0     H60547   7.757   0.706   4.241  1.3321 -0.2646 -1.3406
  459MOL0     H60548   8.049   0.734   4.351 -1.7043  0.0878  1.9659
  459MOL0     H60549   7.992   0.839   4.241  3.9672 -0.0726  0.4029
  459MOL0     H60550   8.050   0.532   3.947 -1.1165 -0.1262  3.0372
  459MOL0     H60551   8.242   0.546   3.807 -0.1924  1.0645  0.2438
  459MOL0     H60552   8.484   1.049   3.741 -0.8027 -2.3467  1.1950
  459MOL0     H60553   8.624   1.166   3.581  1.1515 -1.6325 -4.6023
  459MOL0     H60554   8.754   1.267   3.459  0.1057  0.3690 -0.6620
  459MOL0     H60555   8.752   1.128   3.347  0.3506 -1.2776  0.5776
  459MOL0     H60556   8.999   1.301   3.361 -0.6080  0.3460  1.1842
  459MOL0     H60557   8.858   1.290   3.250 -0.7511  0.9754  1.9698
  459MOL0     H60558   9.030   1.058   3.318 -1.2057  0.3313  1.3693
  459MOL0     H60559   9.095   1.168   3.191 -1.0351 -0.0565 -1.1236
  459MOL0     H60560   8.893   0.948   3.180  0.3572  1.3754  1.2857
  459MOL0     H60561   8.847   1.096   3.103  0.4014  0.3273  0.3046
  459MOL0     H60562   9.113   0.933   3.075  0.0164  2.1807  0.5948
  459MOL0     H60563   9.071   1.063   2.969  0.9282  0.1289 -0.8915
  459MOL0     H60564   8.914   0.792   3.011  0.3123  1.3101  1.8004
  459MOL0     H60565   9.025   0.820   2.874 -0.7189 -1.1675 -1.3581
  459MOL0     H60566   8.761   0.854   2.820 -1.0837 -0.3383  0.5200
  459MOL0     H60567   8.781   0.983   2.942  2.5728 -0.4723  1.5552
  459MOL0     H60568   8.925   1.107   2.811 -0.3932 -0.1702  2.6399
  459MOL0     H60569   8.788   1.065   2.709 -1.2498 -1.5768  1.3832
  459MOL0     H60570   8.938   0.885   3.629 -0.8298  1.0487 -2.3844
  459MOL0     H60571   8.796   0.757   3.812 -0.4657  0.6519  0.4908
  459MOL0     H60572   8.378   0.873   4.059  2.9682 -3.4467  0.4465
  459MOL0     H60573   8.183   0.831   4.200  2.7508  0.7398 -0.4936
  459MOL0     H60574   6.428   1.161   4.185  0.0147 -1.8055 -3.9520
  459MOL0     H60575   6.277   1.289   4.028 -2.1507  3.7836  0.8142
  459MOL0     H60576   6.054   1.333   3.619  0.8525  1.6741 -0.5552
  459MOL0     H60577   5.873   1.406   3.466 -0.0235 -2.5739 -0.7242
  459MOL0     H60578   5.547   1.596   3.641 -2.9358  3.2982 -0.8541
  459MOL0     H60579   5.454   1.436   3.627  1.4683 -1.0852 -0.2989
  459MOL0     H60580   5.326   1.542   3.474 -0.5911  0.8919  0.8236
  459MOL0     H60581   5.429   1.686   3.460  2.8785 -0.4824  0.4471
  459MOL0     H60582   5.389   1.557   3.247 -1.7343  0.0846  1.3829
  459MOL0     H60583   5.483   1.431   3.317 -4.3786 -0.3725 -1.4292
  459MOL0     H60584   5.667   1.633   3.345  1.0445  0.8676  0.1865
  459MOL0     H60585   5.647   1.547   3.197 -0.6359 -1.3211  2.9487
  459MOL0     H60586   5.507   1.940   3.092  1.3429 -0.4348  0.4320
  459MOL0     H60587   5.594   1.387   3.780  0.4599  2.7539  1.0642
  459MOL0     H60588   5.788   1.333   3.957  0.9529  0.6708 -0.5297
  460MOL0     O60589   2.798   1.054   7.452 -0.5216 -0.4963  0.4004
  460MOL0     C60590   2.683   1.089   7.485  0.3197 -0.1244  0.1144
  460MOL0     O60591   2.612   1.201   7.443 -0.0118  0.3413  0.1393
  460MOL0     C60592   2.635   1.252   7.315  0.7142 -0.1218  0.3977
  460MOL0     C60593   2.524   1.319   7.261  0.0034 -0.1992  0.4345
  460MOL0     C60594   2.524   1.359   7.119  0.1181 -0.4897 -0.4228
  460MOL0     C60595   2.635   1.324   7.037  0.3000 -0.1180 -0.2652
  460MOL0     O60596   2.616   1.350   6.905  0.2569  0.0622  0.3746
  460MOL0     C60597   2.681   1.269   6.800  0.1723 -0.3161 -0.4136
  460MOL0     C60598   2.640   1.117   6.811 -0.0004  0.1095  0.3390
  460MOL0     C60599   2.496   1.096   6.779  0.3793  0.0794 -0.5924
  460MOL0     C60600   2.400   1.136   6.895 -0.0722 -0.2722 -1.2097
  460MOL0     C60601   2.258   1.097   6.858 -0.3470 -0.4616 -0.0834
  460MOL0     C60602   2.153   1.134   6.958  0.4221 -0.0907  0.6971
  460MOL0     C60603   2.002   1.106   6.913 -0.3125  0.2616 -0.7009
  460MOL0     C60604   1.965   0.959   6.922 -0.1996  0.3630 -0.4225
  460MOL0     N60605   1.831   0.938   6.871 -0.3379 -0.0088  0.4311
  460MOL0     C60606   1.710   0.954   6.937  0.1217  0.4794  0.6713
  460MOL0     C60607   1.610   0.901   6.863  0.3536  0.1771 -0.2399
  460MOL0     C60608   1.465   0.880   6.911  0.2045  0.7440 -0.4552
  460MOL0     C60609   1.398   1.006   6.958  0.5904 -0.1753  0.2450
  460MOL0     C60610   1.357   1.104   6.838 -0.8453  0.1309 -0.6080
  460MOL0     C60611   1.241   1.073   6.752  0.2768  0.7353 -0.1952
  460MOL0     O60612   1.129   1.039   6.838 -0.5144  0.1528 -0.5859
  460MOL0     C60613   1.029   1.126   6.858 -0.6792 -0.3730 -0.3751
  460MOL0     C60614   0.973   1.217   6.764 -0.1815  0.2931 -0.2942
  460MOL0     C60615   0.872   1.301   6.805  0.2068 -0.5072 -0.0697
  460MOL0     C60616   0.817   1.299   6.934  0.4139 -1.0639 -0.2821
  460MOL0     C60617   0.709   1.385   6.984  0.1287 -0.4722  0.0083
  460MOL0     O60618   0.649   1.444   6.877 -0.1682 -0.7075 -0.3134
  460MOL0     C60619   0.535   1.518   6.882  0.6410 -0.2556  0.1025
  460MOL0     C60620   0.486   1.588   6.992 -0.5913  0.2693  0.5079
  460MOL0     C60621   0.362   1.654   6.987 -0.1214 -0.6459  0.0937
  460MOL0     C60622   0.298   1.665   6.869 -0.0941 -1.0235  0.1100
  460MOL0     O60623   0.189   1.743   6.882 -0.5472  0.0143  0.5318
  460MOL0     C60624   0.091   1.749   6.778  0.2633  0.3474 -0.0098
  460MOL0     C60625   0.108   1.864   6.677 -0.2823  0.0788  0.1247
  460MOL0     C60626   0.121   2.011   6.741  0.5079  1.2287  0.3452
  460MOL0     C60627   0.101   2.107   6.630  0.4437  0.1267  0.9573
  460MOL0     C60628   0.141   2.250   6.649  0.9196  0.8907  0.7347
  460MOL0     C60629   0.289   2.265   6.655 -0.9005 -0.5647  0.2916
  460MOL0     C60630   0.333   2.410   6.659 -0.3204 -0.1570  0.2242
  460MOL0     C60631   0.478   2.407   6.624  0.3368 -0.2517 -0.0823
  460MOL0    Cl60632   0.502   2.419   6.442  0.2571 -0.3754  0.2802
  460MOL0     C60633   0.351   1.605   6.756 -0.6479  0.3782 -0.5704
  460MOL0     C60634   0.464   1.521   6.766  0.3185  0.2986  0.2373
  460MOL0     O60635   0.670   1.384   7.104  0.8463  0.4626  0.1657
  460MOL0     C60636   0.866   1.203   7.022 -0.7612 -0.0750  0.3502
  460MOL0     C60637   0.978   1.127   6.990  0.3872 -0.1729 -0.5764
  460MOL0     N60638   1.669   0.856   6.753  0.0723  0.2231  0.4945
  460MOL0     N60639   1.797   0.880   6.755  1.1280 -0.2306  0.2781
  460MOL0     C60640   2.744   1.259   7.098  0.4885  0.5663  0.1886
  460MOL0     C60641   2.742   1.246   7.234  0.1634  0.6162  0.4311
  460MOL0     C60642   2.614   1.009   7.586 -0.4147 -0.9467  0.2744
  460MOL0     C60643   2.683   0.930   7.692  0.5245  0.6961  0.6790
  460MOL0     C60644   2.607   0.835   7.764  0.0461 -0.4810 -0.2700
  460MOL0     C60645   2.471   0.823   7.744  0.9800  0.4310 -0.0089
  460MOL0     O60646   2.407   0.734   7.829  0.8115 -0.2710  0.6234
  460MOL0     C60647   2.262   0.717   7.828 -0.4639 -0.5879 -0.3636
  460MOL0     C60648   2.205   0.796   7.950 -0.3609 -0.3358  0.2413
  460MOL0     C60649   2.049   0.795   7.959 -0.0236  0.2511 -0.1262
  460MOL0     C60650   1.981   0.908   7.885  0.6930 -0.3243 -0.0389
  460MOL0     C60651   1.836   0.889   7.920 -0.6100  0.1232 -0.2759
  460MOL0     C60652   1.725   0.860   7.937  0.7811  0.2412  0.1374
  460MOL0     C60653   2.407   0.908   7.651 -0.4931 -0.1614 -0.3057
  460MOL0     C60654   2.477   0.998   7.570 -0.4314 -0.3020  1.2045
  460MOL0     H60655   2.436   1.347   7.318 -0.9096  0.8998 -1.4163
  460MOL0     H60656   2.443   1.416   7.073  2.0570  0.4668 -2.9089
  460MOL0     H60657   2.788   1.294   6.808 -0.0168  0.0535  1.4329
  460MOL0     H60658   2.650   1.307   6.703 -2.8920 -0.0564  0.5585
  460MOL0     H60659   2.656   1.087   6.915 -0.6486  0.2982  0.4955
  460MOL0     H60660   2.701   1.052   6.747  0.6482  1.0760 -0.0411
  460MOL0     H60661   2.481   0.988   6.769  0.0355  0.0639  0.0984
  460MOL0     H60662   2.464   1.139   6.684  3.7930 -2.1799 -3.0515
  460MOL0     H60663   2.426   1.098   6.994 -1.4881  1.5853 -0.0414
  460MOL0     H60664   2.401   1.246   6.898  0.4949 -0.2396 -2.3226
  460MOL0     H60665   2.248   0.988   6.859  0.1505 -0.5114  1.9021
  460MOL0     H60666   2.231   1.139   6.760 -3.0596  1.5206  1.3795
  460MOL0     H60667   2.156   1.243   6.948 -0.2569 -0.2420 -2.1626
  460MOL0     H60668   2.168   1.090   7.057 -1.2857 -1.4453  0.3932
  460MOL0     H60669   1.944   1.167   6.983  0.3676  2.0439 -1.6378
  460MOL0     H60670   1.986   1.134   6.808  2.8632 -2.9891 -2.2535
  460MOL0     H60671   1.985   0.913   7.019  3.6853  2.5709  0.0456
  460MOL0     H60672   2.033   0.907   6.853 -0.7815 -0.1116 -0.6471
  460MOL0     H60673   1.689   1.004   7.032 -2.4700  1.4132 -0.2884
  460MOL0     H60674   1.471   0.804   6.989 -0.6745  0.1701 -0.9308
  460MOL0     H60675   1.398   0.835   6.838 -0.1345 -0.0432  0.3234
  460MOL0     H60676   1.449   1.056   7.040  1.5906 -3.4414  1.7832
  460MOL0     H60677   1.309   0.961   7.003 -0.8579  0.4403 -1.8505
  460MOL0     H60678   1.337   1.200   6.887 -1.0047 -0.6080  0.8250
  460MOL0     H60679   1.445   1.113   6.774 -1.4749  0.1937 -1.4823
  460MOL0     H60680   1.262   0.982   6.695 -1.4634 -0.5903  1.1466
  460MOL0     H60681   1.215   1.154   6.684 -0.4335 -1.3848 -2.5644
  460MOL0     H60682   1.018   1.225   6.665 -2.8821  1.2527 -1.5533
  460MOL0     H60683   0.829   1.361   6.726 -1.9839  1.2658  2.3077
  460MOL0     H60684   0.547   1.597   7.082  2.2185  1.7803 -1.3726
  460MOL0     H60685   0.327   1.692   7.082  2.9380 -0.9908  1.4972
  460MOL0     H60686  -0.003   1.758   6.832  0.9849 -0.8130  1.5299
  460MOL0     H60687   0.098   1.655   6.722  1.1478 -0.3707  1.2521
  460MOL0     H60688   0.017   1.862   6.615  0.0988 -3.6100 -0.5429
  460MOL0     H60689   0.197   1.849   6.615 -0.5072 -3.4431  0.5035
  460MOL0     H60690   0.220   2.024   6.787 -0.1069  1.2796  1.7208
  460MOL0     H60691   0.053   2.028   6.825 -1.1795 -2.2825 -0.1566
  460MOL0     H60692   0.167   2.071   6.551 -1.3525 -3.4022  0.8834
  460MOL0     H60693   0.008   2.110   6.573  2.3306 -2.6973 -2.6570
  460MOL0     H60694   0.091   2.284   6.740 -1.7629 -0.2125 -0.2287
  460MOL0     H60695   0.101   2.309   6.566  0.7334  0.3212  0.4101
  460MOL0     H60696   0.332   2.230   6.561 -4.4493  1.4633 -2.3226
  460MOL0     H60697   0.337   2.212   6.738  1.3349  0.6613 -0.1086
  460MOL0     H60698   0.278   2.462   6.580 -1.6377 -1.5058  0.2089
  460MOL0     H60699   0.319   2.452   6.759 -2.1245 -1.8468  0.7310
  460MOL0     H60700   0.518   2.310   6.656 -1.3727 -2.3389 -3.5815
  460MOL0     H60701   0.525   2.493   6.671 -1.2090 -0.4569  1.9832
  460MOL0     H60702   0.320   1.615   6.653  2.0463  1.8098 -1.3214
  460MOL0     H60703   0.505   1.463   6.684  1.1749 -1.6084  1.9173
  460MOL0     H60704   0.821   1.185   7.120  0.7852 -2.0223  0.7558
  460MOL0     H60705   1.023   1.062   7.064 -2.4044  0.2561  1.6456
  460MOL0     H60706   2.836   1.230   7.048  0.7110 -2.9814  2.3525
  460MOL0     H60707   2.830   1.211   7.288  0.5452 -0.3759 -0.7898
  460MOL0     H60708   2.792   0.925   7.700  0.8143 -1.4141 -2.5407
  460MOL0     H60709   2.643   0.772   7.845  0.3336 -0.2424 -0.2135
  460MOL0     H60710   2.245   0.609   7.838 -2.9520 -0.3118 -0.9278
  460MOL0     H60711   2.215   0.752   7.736 -2.5960 -0.8256  0.5936
  460MOL0     H60712   2.248   0.760   8.044  1.6609  0.1483 -0.4545
  460MOL0     H60713   2.220   0.903   7.937  3.0190 -0.6331  0.8117
  460MOL0     H60714   2.024   0.795   8.065 -0.4559  2.1760 -0.1904
  460MOL0     H60715   2.011   0.704   7.911 -2.3038  1.9762 -1.8337
  460MOL0     H60716   2.019   1.008   7.908  2.1612 -0.8441 -0.1375
  460MOL0     H60717   1.981   0.900   7.776  1.6258 -1.4190  0.0269
  460MOL0     H60718   1.628   0.818   7.952 -0.5665  3.7030  2.3144
  460MOL0     H60719   2.300   0.906   7.632 -0.9166 -0.1586  1.8370
  460MOL0     H60720   2.421   1.062   7.502  1.5990  1.2569  0.8766
  461MOL0     O60721   5.355   5.249   2.417 -0.3873  0.0054 -0.3303
  461MOL0     C60722   5.374   5.126   2.426 -0.3981  0.2197  0.5177
  461MOL0     O60723   5.275   5.026   2.396  0.1932 -0.1939 -0.6705
  461MOL0     C60724   5.140   5.067   2.387  0.4000 -0.1931 -0.9214
  461MOL0     C60725   5.047   4.991   2.464 -1.1987 -0.6447 -0.0521
  461MOL0     C60726   4.907   5.006   2.459 -0.1753 -0.7508  0.8300
  461MOL0     C60727   4.854   5.092   2.364 -0.3083  0.3768 -0.5433
  461MOL0     O60728   4.718   5.109   2.360 -0.6478 -0.4505  0.1694
  461MOL0     C60729   4.656   5.155   2.480  0.9804 -0.6569  0.8410
  461MOL0     C60730   4.683   5.299   2.496 -0.6031  0.2017  0.0296
  461MOL0     C60731   4.638   5.354   2.639 -0.5212 -0.0566 -0.7092
  461MOL0     C60732   4.631   5.511   2.644  0.8244  0.2120  0.0253
  461MOL0     C60733   4.599   5.560   2.788  0.1063 -0.0298  1.1696
  461MOL0     C60734   4.718   5.560   2.882  0.9421 -0.5539  1.5411
  461MOL0     C60735   4.678   5.653   3.003 -0.5149  0.3047  0.6679
  461MOL0     C60736   4.546   5.596   3.065  1.1210  0.2643 -0.3620
  461MOL0     N60737   4.520   5.647   3.197  0.0412 -0.0768  0.5957
  461MOL0     C60738   4.493   5.777   3.229  0.3318  0.6993 -0.3699
  461MOL0     C60739   4.498   5.777   3.362  0.7566 -0.5223  1.3465
  461MOL0     C60740   4.458   5.905   3.432 -0.8489  0.8733  0.0696
  461MOL0     C60741   4.316   5.947   3.406  0.6200 -0.0205  0.6045
  461MOL0     C60742   4.222   5.858   3.491 -0.1291  0.8442 -0.3478
  461MOL0     C60743   4.087   5.926   3.498  0.1530 -0.1447 -0.3580
  461MOL0     O60744   3.994   5.844   3.566  0.1616 -0.9799  0.1853
  461MOL0     C60745   3.862   5.885   3.573 -0.5144 -0.4216 -0.2685
  461MOL0     C60746   3.813   5.994   3.496  0.3066  0.9595  1.1042
  461MOL0     C60747   3.680   6.029   3.502 -0.9307 -1.1141 -0.5291
  461MOL0     C60748   3.590   5.955   3.580 -0.4642  0.9367 -0.5169
  461MOL0     C60749   3.449   5.989   3.557  0.2233 -0.1721 -0.0106
  461MOL0     O60750   3.366   5.913   3.643 -0.6931 -0.5054 -0.1821
  461MOL0     C60751   3.231   5.934   3.666 -0.3599  0.2748 -0.3147
  461MOL0     C60752   3.152   6.041   3.622 -1.2299  0.1339  0.0351
  461MOL0     C60753   3.024   6.057   3.676 -0.8490 -0.1384  0.2919
  461MOL0     C60754   2.959   5.967   3.756 -0.1443 -0.5753  0.2703
  461MOL0     O60755   2.827   5.976   3.777  0.1370 -0.5604  0.4316
  461MOL0     C60756   2.780   5.926   3.907  1.4282 -0.4781  0.1430
  461MOL0     C60757   2.640   5.977   3.948  0.8584 -0.2406 -0.2391
  461MOL0     C60758   2.532   5.961   3.835 -0.2602 -0.2021  0.1833
  461MOL0     C60759   2.389   6.019   3.876 -0.6563 -0.2864 -0.0230
  461MOL0     C60760   2.286   5.964   3.776  0.4832  0.3827  0.1575
  461MOL0     C60761   2.156   6.038   3.785 -0.0788  0.7194  0.2225
  461MOL0     C60762   2.033   5.963   3.736  0.3511 -0.3244  0.0485
  461MOL0     C60763   1.898   6.022   3.780  0.7282 -0.0177 -0.4310
  461MOL0    Cl60764   1.762   5.968   3.672  0.1347  0.2864  0.0761
  461MOL0     C60765   3.033   5.857   3.795  0.4856  0.7144  0.9130
  461MOL0     C60766   3.169   5.850   3.748  0.2140  0.4368  0.4837
  461MOL0     O60767   3.413   6.071   3.476  0.8689  0.0892  0.3897
  461MOL0     C60768   3.639   5.844   3.653  0.2290 -0.1568 -1.1172
  461MOL0     C60769   3.771   5.815   3.652  0.2110  0.0406 -0.2765
  461MOL0     N60770   4.532   5.652   3.416  0.5795 -0.4896 -0.4738
  461MOL0     N60771   4.535   5.573   3.312 -0.2957  0.0134  0.0228
  461MOL0     C60772   4.936   5.152   2.273 -0.1216  0.6519  0.3402
  461MOL0     C60773   5.076   5.146   2.286 -0.4898 -0.4214 -0.1096
  461MOL0     C60774   5.500   5.060   2.468 -0.4444  0.3957 -1.2347
  461MOL0     C60775   5.612   5.146   2.511  0.4584  0.0453 -0.4181
  461MOL0     C60776   5.737   5.089   2.543 -0.9918  0.7321  0.2984
  461MOL0     C60777   5.765   4.953   2.514 -0.3846  0.7053  0.5498
  461MOL0     O60778   5.893   4.911   2.556 -0.4495 -0.4238  0.2647
  461MOL0     C60779   5.945   4.798   2.496  0.2683 -0.3623 -0.0075
  461MOL0     C60780   6.104   4.800   2.484  1.0013  0.7893 -0.5195
  461MOL0     C60781   6.165   4.818   2.626 -0.0084  0.7673 -0.3426
  461MOL0     C60782   6.182   4.972   2.659 -0.0512  0.4177  0.6285
  461MOL0     C60783   6.280   4.966   2.769  0.3604 -0.7305  0.0005
  461MOL0     C60784   6.367   4.949   2.857  0.0110 -0.3479 -0.2539
  461MOL0     C60785   5.660   4.869   2.471 -0.3040 -0.4571  0.0190
  461MOL0     C60786   5.533   4.925   2.450  0.3597 -0.0440  0.0767
  461MOL0     H60787   5.083   4.910   2.528 -0.9236 -1.6063 -1.3682
  461MOL0     H60788   4.843   4.940   2.517 -0.0172 -3.4112 -1.7647
  461MOL0     H60789   4.671   5.095   2.570 -2.4973 -0.3870  1.7620
  461MOL0     H60790   4.548   5.151   2.461  0.6286  2.0973  1.9204
  461MOL0     H60791   4.631   5.349   2.413  0.9079 -0.8657 -1.6197
  461MOL0     H60792   4.790   5.324   2.491 -0.8875  1.2538 -1.9839
  461MOL0     H60793   4.702   5.307   2.714 -2.8470 -3.6254 -0.6767
  461MOL0     H60794   4.539   5.310   2.656 -0.4283 -1.2263 -2.8566
  461MOL0     H60795   4.723   5.550   2.601  1.7373 -2.4185 -0.5482
  461MOL0     H60796   4.558   5.549   2.571  0.0219  0.5015  0.9631
  461MOL0     H60797   4.534   5.491   2.841  0.0161 -0.1344  0.9252
  461MOL0     H60798   4.561   5.663   2.783  1.8483  0.7205  2.2298
  461MOL0     H60799   4.803   5.606   2.832  1.1175 -1.3823  1.0557
  461MOL0     H60800   4.742   5.459   2.917  1.5039 -1.0343 -0.1161
  461MOL0     H60801   4.751   5.657   3.084 -0.1136  0.7537  0.2954
  461MOL0     H60802   4.650   5.749   2.958  1.2132  1.3752  1.7741
  461MOL0     H60803   4.551   5.487   3.072 -0.4401  0.2534  1.0377
  461MOL0     H60804   4.463   5.617   2.997  0.9008  1.1127  0.1516
  461MOL0     H60805   4.467   5.862   3.167 -3.4247  1.2545  1.7280
  461MOL0     H60806   4.516   5.989   3.393  0.2316 -0.5192 -1.4540
  461MOL0     H60807   4.490   5.898   3.537  2.8980  2.3122 -0.8341
  461MOL0     H60808   4.296   5.957   3.299  0.2181 -2.6396  0.3836
  461MOL0     H60809   4.300   6.047   3.449 -0.3210 -0.1314  0.5328
  461MOL0     H60810   4.206   5.760   3.445  2.0913 -0.6226  1.7825
  461MOL0     H60811   4.263   5.843   3.591  1.2973 -0.0276 -1.0275
  461MOL0     H60812   4.061   5.934   3.393 -0.5721 -1.0131 -0.2558
  461MOL0     H60813   4.088   6.018   3.558 -3.0839 -1.0591  1.3561
  461MOL0     H60814   3.880   6.055   3.436  1.5674 -0.0262  1.4707
  461MOL0     H60815   3.639   6.115   3.451 -0.1839 -1.6470 -2.0963
  461MOL0     H60816   3.180   6.117   3.550  0.4292 -1.3562 -0.9777
  461MOL0     H60817   2.965   6.136   3.632  1.1521  0.2612 -1.8895
  461MOL0     H60818   2.850   5.940   3.990  1.4488  0.3539  0.0017
  461MOL0     H60819   2.774   5.820   3.882 -0.3150  0.2280 -3.0534
  461MOL0     H60820   2.646   6.084   3.967  1.1503 -0.4137  0.6672
  461MOL0     H60821   2.615   5.915   4.035  2.2941 -2.9885 -1.6708
  461MOL0     H60822   2.506   5.856   3.825 -0.1389 -0.1630 -0.5594
  461MOL0     H60823   2.557   5.996   3.735 -1.0206 -2.5207 -0.8741
  461MOL0     H60824   2.364   5.996   3.980 -4.6911  0.3860 -0.6817
  461MOL0     H60825   2.400   6.128   3.871  1.2527 -0.3936  0.8915
  461MOL0     H60826   2.268   5.857   3.791 -1.6718  0.6978  0.1548
  461MOL0     H60827   2.316   5.981   3.672 -1.4407  1.6072 -0.2407
  461MOL0     H60828   2.166   6.131   3.729  0.0503 -0.5540 -1.9706
  461MOL0     H60829   2.139   6.071   3.888 -0.3086 -0.0502  0.4387
  461MOL0     H60830   2.032   5.957   3.627 -2.7266 -1.9076  0.0645
  461MOL0     H60831   2.046   5.862   3.775 -1.3500  0.3069  2.5466
  461MOL0     H60832   1.904   6.131   3.778 -0.3698  0.1790  2.5333
  461MOL0     H60833   1.866   5.990   3.880 -0.9427  1.3395 -0.5001
  461MOL0     H60834   2.979   5.783   3.855  1.2167 -1.4625 -0.9700
  461MOL0     H60835   3.230   5.766   3.779  1.3918  1.1699  0.1981
  461MOL0     H60836   3.570   5.788   3.716  1.3474  0.2301  0.5241
  461MOL0     H60837   3.804   5.731   3.713 -3.9145 -0.0561  2.1987
  461MOL0     H60838   4.889   5.208   2.193 -1.8235  0.3815  1.1086
  461MOL0     H60839   5.132   5.186   2.203 -1.6267 -0.9809 -1.1726
  461MOL0     H60840   5.590   5.252   2.521  1.9253  0.3374 -0.1593
  461MOL0     H60841   5.830   5.139   2.568  0.4023 -0.9653 -1.1556
  461MOL0     H60842   5.906   4.786   2.394  0.6531 -3.5386  0.1219
  461MOL0     H60843   5.921   4.714   2.562  2.9358  0.5219  2.2826
  461MOL0     H60844   6.140   4.703   2.447 -2.4444 -1.1193  0.7134
  461MOL0     H60845   6.121   4.884   2.416 -1.8639  2.8864  1.1172
  461MOL0     H60846   6.262   4.767   2.624  0.8861  2.2798  1.1890
  461MOL0     H60847   6.096   4.769   2.695  1.5771  1.0280  1.5263
  461MOL0     H60848   6.219   5.026   2.571 -0.9564  0.6531  0.3903
  461MOL0     H60849   6.092   5.019   2.700  1.5186  2.1994  2.2467
  461MOL0     H60850   6.445   4.936   2.929 -0.4593 -0.8742  0.1678
  461MOL0     H60851   5.677   4.764   2.453 -1.2107 -0.2487 -2.3023
  461MOL0     H60852   5.459   4.854   2.415 -0.7442  0.7979  0.6194
  462MOL0     O60853   7.620   3.308  10.050  0.4359 -0.9467 -1.0400
  462MOL0     C60854   7.641   3.426  10.077  0.1537 -0.0159  0.6299
  462MOL0     O60855   7.544   3.519  10.100 -1.3489  0.2878 -0.5573
  462MOL0     C60856   7.411   3.502  10.084  0.6257 -0.2587 -0.1970
  462MOL0     C60857   7.338   3.386  10.100 -1.1169  0.1465 -0.8513
  462MOL0     C60858   7.207   3.378  10.073 -0.7111 -0.3976 -0.7435
  462MOL0     C60859   7.136   3.498  10.020 -0.1569  0.7680 -0.2234
  462MOL0     O60860   7.002   3.513   9.986  0.1324  0.9727 -0.1427
  462MOL0     C60861   6.913   3.424  10.065  0.0892 -0.5075  0.0546
  462MOL0     C60862   6.774   3.434  10.003 -0.1309 -0.0387  0.3064
  462MOL0     C60863   6.666   3.351  10.083 -0.1298  1.5445 -0.2881
  462MOL0     C60864   6.576   3.269   9.992 -0.3201 -0.3037  0.2646
  462MOL0     C60865   6.459   3.216  10.072  0.6692  0.1945 -0.0818
  462MOL0     C60866   6.350   3.161   9.967 -0.4936  0.5027 -0.4876
  462MOL0     C60867   6.216   3.112  10.017 -0.1699 -0.1498 -0.1025
  462MOL0     C60868   6.109   3.100   9.910 -0.6141 -0.2644  0.7124
  462MOL0     N60869   5.997   3.024   9.972  0.2627  0.1073 -0.6807
  462MOL0     C60870   5.877   3.082  10.001  0.3871 -0.5767 -0.3760
  462MOL0     C60871   5.790   2.982  10.010 -0.2043  0.8331  0.1393
  462MOL0     C60872   5.642   2.979  10.025 -0.1263  0.2714 -0.2830
  462MOL0     C60873   5.609   3.035  10.165  0.4954 -0.0601  0.2314
  462MOL0     C60874   5.688   2.961  10.280  0.7716  0.0224  0.0269
  462MOL0     C60875   5.705   3.039  10.402 -0.3254  0.1703 -1.0134
  462MOL0     O60876   5.774   3.169  10.386  0.0758 -0.7696 -1.3965
  462MOL0     C60877   5.914   3.178  10.400 -0.0163 -0.1295  0.4685
  462MOL0     C60878   6.007   3.068  10.403  0.1878  0.9169  0.1446
  462MOL0     C60879   6.141   3.091  10.421  0.9158  0.6475  0.6164
  462MOL0     C60880   6.196   3.219  10.430  0.3558  0.7123  0.2886
  462MOL0     C60881   6.339   3.224  10.465 -0.0591 -0.1999  0.1117
  462MOL0     O60882   6.426   3.127  10.413 -0.3249 -0.3477  0.3659
  462MOL0     C60883   6.551   3.124  10.467  0.5578 -0.9922  0.3029
  462MOL0     C60884   6.567   3.051  10.584 -0.4306  1.2238 -0.4544
  462MOL0     C60885   6.691   3.031  10.629  0.0841 -0.6216 -0.2395
  462MOL0     C60886   6.809   3.096  10.581  0.4743  0.0904 -0.8452
  462MOL0     O60887   6.929   3.054  10.635 -0.7580  0.0670 -0.0188
  462MOL0     C60888   7.034   3.153  10.647 -0.1476 -0.5510 -0.4357
  462MOL0     C60889   7.106   3.140  10.785 -1.1336  0.3875  0.0703
  462MOL0     C60890   7.203   3.014  10.791  0.3137  0.0846  0.4063
  462MOL0     C60891   7.270   3.000  10.926 -1.2314  0.1269 -0.2884
  462MOL0     C60892   7.368   3.102  10.977 -0.5111  1.0641 -0.0687
  462MOL0     C60893   7.444   3.032  11.085  0.5087 -0.8164 -0.8717
  462MOL0     C60894   7.586   3.081  11.103 -0.9085 -1.2182 -0.5449
  462MOL0     C60895   7.660   2.989  11.205  0.3487  0.7535  0.8578
  462MOL0    Cl60896   7.695   2.844  11.119  0.4047  0.0819 -0.0995
  462MOL0     C60897   6.790   3.178  10.467  0.9762 -0.1111  0.0785
  462MOL0     C60898   6.662   3.194  10.414 -0.0765  0.4693 -0.5954
  462MOL0     O60899   6.373   3.321  10.530  0.3377  0.5295 -0.1539
  462MOL0     C60900   6.109   3.329  10.423 -0.6525 -0.2092  0.9250
  462MOL0     C60901   5.972   3.307  10.405  0.1768  0.0602  0.0381
  462MOL0     N60902   5.852   2.865   9.986  0.0673 -0.1408  0.4526
  462MOL0     N60903   5.978   2.891   9.965  0.0903  0.4756  0.7543
  462MOL0     C60904   7.212   3.613  10.011  0.1201  0.2106  0.0038
  462MOL0     C60905   7.343   3.621  10.036  0.2450  0.3239  0.8476
  462MOL0     C60906   7.784   3.462  10.078  0.3592  0.2499  0.6661
  462MOL0     C60907   7.884   3.376  10.129 -1.8676 -0.3805  0.8388
  462MOL0     C60908   8.017   3.419  10.122 -0.3413 -0.3354 -0.0603
  462MOL0     C60909   8.062   3.542  10.064  0.6399 -0.3757 -0.0877
  462MOL0     O60910   8.195   3.559  10.061  0.0663 -0.0704 -0.0115
  462MOL0     C60911   8.240   3.686  10.001  0.3727 -1.7924 -0.0683
  462MOL0     C60912   8.399   3.693  10.006  0.5157  0.0349 -0.0060
  462MOL0     C60913   8.458   3.691  10.157  1.3388  0.4710  0.5434
  462MOL0     C60914   8.591   3.607  10.152 -0.0021  0.6585 -0.0818
  462MOL0     C60915   8.697   3.660  10.061 -0.0181  0.5327  0.4376
  462MOL0     C60916   8.775   3.692   9.983  0.8213  0.1391  0.1609
  462MOL0     C60917   7.957   3.628  10.024 -0.6345  0.1496  0.0117
  462MOL0     C60918   7.818   3.593  10.034  0.4148  0.2155  0.3565
  462MOL0     H60919   7.390   3.298  10.135 -1.4575 -0.0614 -0.8613
  462MOL0     H60920   7.163   3.279  10.076  0.0650 -0.7370 -0.4828
  462MOL0     H60921   6.899   3.463  10.166 -5.1375  0.1269 -0.6401
  462MOL0     H60922   6.945   3.320  10.061 -0.2562 -0.5697 -1.4416
  462MOL0     H60923   6.785   3.411   9.896  0.5081 -1.4193  0.6419
  462MOL0     H60924   6.742   3.538  10.007  1.0475  0.3298  0.4892
  462MOL0     H60925   6.608   3.414  10.151  0.9219  1.0662  1.1040
  462MOL0     H60926   6.718   3.284  10.153 -0.8151  2.7251  1.4180
  462MOL0     H60927   6.539   3.338   9.915 -1.7904 -2.6162 -1.2164
  462MOL0     H60928   6.633   3.187   9.948  1.2046  0.9725 -0.2259
  462MOL0     H60929   6.405   3.296  10.123 -0.6602  0.6795 -2.1272
  462MOL0     H60930   6.490   3.137  10.141 -2.6083  1.1483  2.7750
  462MOL0     H60931   6.391   3.075   9.913 -0.3007 -0.3686  1.0087
  462MOL0     H60932   6.325   3.239   9.894  3.3116  0.8222 -1.6665
  462MOL0     H60933   6.233   3.027  10.084  1.6982 -1.4076 -2.0415
  462MOL0     H60934   6.175   3.193  10.078  1.9060  1.5933 -0.8885
  462MOL0     H60935   6.143   3.040   9.826  0.9011  0.6721  0.6302
  462MOL0     H60936   6.085   3.194   9.859 -2.9580  0.2929  2.6620
  462MOL0     H60937   5.861   3.188  10.019 -2.6129 -1.0181  0.0221
  462MOL0     H60938   5.602   2.879  10.006  2.1495 -0.2435 -2.9693
  462MOL0     H60939   5.585   3.038   9.952 -3.5353  1.2118  2.8280
  462MOL0     H60940   5.501   3.018  10.172  0.6398 -1.1606  0.0221
  462MOL0     H60941   5.641   3.138  10.178 -1.3252  0.4452  0.9791
  462MOL0     H60942   5.629   2.873  10.307  1.4887  0.0160  1.7180
  462MOL0     H60943   5.788   2.921  10.258  1.4271  0.6771  1.6918
  462MOL0     H60944   5.766   2.977  10.468 -0.6503 -1.4736 -2.1959
  462MOL0     H60945   5.602   3.046  10.439  0.2228 -0.0627  0.6253
  462MOL0     H60946   5.977   2.964  10.389  1.3208  0.4702  0.8802
  462MOL0     H60947   6.213   3.010  10.425 -0.5416 -0.7163 -0.0665
  462MOL0     H60948   6.475   3.021  10.632  0.7500  1.2086  1.9085
  462MOL0     H60949   6.700   2.984  10.727  0.1983 -0.9476 -0.4048
  462MOL0     H60950   6.996   3.255  10.632 -3.7684 -1.8410 -1.0739
  462MOL0     H60951   7.116   3.142  10.575  0.1933  0.7720 -0.2894
  462MOL0     H60952   7.027   3.137  10.861 -1.1772  0.2688  0.0193
  462MOL0     H60953   7.162   3.234  10.794 -0.2251 -0.2867  2.1161
  462MOL0     H60954   7.265   3.025  10.702 -1.1668  0.1489 -0.6612
  462MOL0     H60955   7.127   2.937  10.774 -1.7326  2.4400 -2.1495
  462MOL0     H60956   7.189   2.986  10.998  0.1029 -1.2843  1.0075
  462MOL0     H60957   7.313   2.900  10.918 -1.6223  0.0460 -1.6371
  462MOL0     H60958   7.311   3.185  11.020 -1.9435 -0.3655  0.8753
  462MOL0     H60959   7.440   3.142  10.905  0.5465 -2.1221 -0.9175
  462MOL0     H60960   7.441   2.923  11.083  0.8918 -0.9921  2.4732
  462MOL0     H60961   7.391   3.064  11.176 -1.1444  0.2189 -2.1340
  462MOL0     H60962   7.646   3.089  11.012  0.4552  1.7366  0.4833
  462MOL0     H60963   7.585   3.185  11.135  0.5608 -1.7006  1.2931
  462MOL0     H60964   7.603   2.959  11.294  0.7119  1.1014  1.2167
  462MOL0     H60965   7.752   3.033  11.246 -1.3401  2.9675  2.5566
  462MOL0     H60966   6.878   3.228  10.428 -0.3210  0.8892 -1.7354
  462MOL0     H60967   6.634   3.271  10.344  0.9548  0.7382 -0.7208
  462MOL0     H60968   6.138   3.433  10.435 -1.9948  0.0843  1.9337
  462MOL0     H60969   5.899   3.383  10.381  1.2318  0.8673 -0.7205
  462MOL0     H60970   7.183   3.700   9.952  0.4110  0.0179 -0.4292
  462MOL0     H60971   7.393   3.714  10.010  0.1666 -0.1211 -1.0301
  462MOL0     H60972   7.854   3.284  10.179  1.5374 -1.0616  1.8955
  462MOL0     H60973   8.091   3.350  10.163  0.4571  0.4426 -0.1646
  462MOL0     H60974   8.198   3.769  10.059  3.4460 -0.2282  0.1039
  462MOL0     H60975   8.206   3.693   9.897  0.5442 -0.4994 -0.0540
  462MOL0     H60976   8.443   3.603   9.963 -0.7202 -1.5171  1.8332
  462MOL0     H60977   8.424   3.781   9.946  0.4265 -0.3197 -0.5720
  462MOL0     H60978   8.393   3.642  10.231  1.4944 -0.9720 -0.2347
  462MOL0     H60979   8.488   3.788  10.198  2.4899 -1.1326  3.8591
  462MOL0     H60980   8.639   3.609  10.250 -2.7556  4.3027  1.4211
  462MOL0     H60981   8.551   3.510  10.121  0.0374  0.6873 -0.2180
  462MOL0     H60982   8.839   3.719   9.901  0.9718  1.4914  0.6937
  462MOL0     H60983   7.976   3.728   9.988 -0.8232  0.3454  0.4490
  462MOL0     H60984   7.735   3.653   9.998 -0.2627 -0.8458  0.0787
  463MOL0     O60985   7.957   6.474   2.153  0.0336 -0.2349  0.1050
  463MOL0     C60986   7.957   6.561   2.066  0.4116  0.3438 -0.6060
  463MOL0     O60987   7.849   6.594   1.990 -0.3158  0.2838 -1.2640
  463MOL0     C60988   7.749   6.499   1.964 -0.5708 -0.3515  0.5094
  463MOL0     C60989   7.765   6.359   1.962  0.4769 -1.1440  0.5364
  463MOL0     C60990   7.655   6.275   1.935  0.0302 -0.1517  1.0579
  463MOL0     C60991   7.533   6.325   1.887 -0.3636  0.4020  0.0729
  463MOL0     O60992   7.436   6.232   1.854  0.5009 -0.5181  0.2018
  463MOL0     C60993   7.302   6.273   1.826  1.3957 -0.0359 -0.0394
  463MOL0     C60994   7.206   6.158   1.879  0.3772 -0.6042  0.3331
  463MOL0     C60995   7.057   6.190   1.854 -0.2395  0.1356  0.5515
  463MOL0     C60996   6.961   6.099   1.936 -0.8112 -0.1636  0.3864
  463MOL0     C60997   6.811   6.131   1.930 -0.1446 -0.3860  0.1567
  463MOL0     C60998   6.721   6.045   2.009 -0.5002  0.1231 -1.1696
  463MOL0     C60999   6.570   6.078   2.000 -0.5030 -0.2873  0.7446
  463MOL0     C61000   6.500   5.947   2.011 -0.4275  0.1546 -0.1238
  463MOL0     N61001   6.364   5.962   1.972  0.4749 -0.2274  0.5547
  463MOL0     C61002   6.253   5.979   2.052 -0.0827  1.5441 -0.8670
  463MOL0     C61003   6.155   5.945   1.965  0.0094 -0.1192 -1.3129
  463MOL0     C61004   6.010   5.952   2.001  0.6095 -0.6119 -0.0752
  463MOL0     C61005   5.955   6.095   2.020 -0.0687  0.1849 -0.1878
  463MOL0     C61006   5.811   6.097   2.054 -0.4920 -0.2774 -0.0596
  463MOL0     C61007   5.767   6.033   2.199 -1.0097 -0.1887  0.0684
  463MOL0     O61008   5.630   5.997   2.193 -0.2047 -1.2927  0.4863
  463MOL0     C61009   5.529   6.096   2.208 -0.5279 -0.1876  0.2633
  463MOL0     C61010   5.392   6.057   2.183  0.4581  0.3207 -0.0947
  463MOL0     C61011   5.285   6.138   2.196  0.6128  1.1553 -0.0778
  463MOL0     C61012   5.307   6.262   2.246  0.0338 -0.8690  0.0744
  463MOL0     C61013   5.196   6.349   2.282 -0.2805 -0.4087  0.0034
  463MOL0     O61014   5.213   6.488   2.279  0.3687 -0.7356 -0.0665
  463MOL0     C61015   5.106   6.566   2.307  0.6890 -0.2951 -0.2623
  463MOL0     C61016   5.093   6.619   2.434 -0.1117 -0.0243 -0.5540
  463MOL0     C61017   5.003   6.718   2.459  0.0941 -0.7050  0.2368
  463MOL0     C61018   4.909   6.754   2.353  0.1976  0.2101 -0.1087
  463MOL0     O61019   4.803   6.842   2.371  0.6094 -0.1703 -0.0654
  463MOL0     C61020   4.761   6.880   2.500  0.2148 -0.1058  0.0327
  463MOL0     C61021   4.613   6.909   2.496  0.1067 -0.5936 -0.0690
  463MOL0     C61022   4.526   6.791   2.464 -0.3826 -0.0828 -0.0585
  463MOL0     C61023   4.378   6.841   2.453 -0.5471  0.1286 -0.1531
  463MOL0     C61024   4.283   6.737   2.509  0.2011  1.2001 -0.2611
  463MOL0     C61025   4.144   6.789   2.511 -0.8521  0.8513  0.1038
  463MOL0     C61026   4.053   6.696   2.593 -0.6068  0.3229 -0.1681
  463MOL0     C61027   3.905   6.720   2.553 -0.5774  0.6844  0.4297
  463MOL0    Cl61028   3.856   6.898   2.563 -0.3479 -0.5554  0.5276
  463MOL0     C61029   4.928   6.704   2.222 -0.0390 -1.0912  0.6642
  463MOL0     C61030   5.028   6.605   2.205  0.7249  0.5703  0.5943
  463MOL0     O61031   5.091   6.288   2.307  0.2606  0.0313  0.2625
  463MOL0     C61032   5.443   6.311   2.275 -0.6687 -0.5575  0.8526
  463MOL0     C61033   5.550   6.230   2.251 -0.8689 -0.0587  0.5477
  463MOL0     N61034   6.202   5.929   1.839  0.4744 -0.1664  0.8488
  463MOL0     N61035   6.323   5.929   1.852  0.1120 -0.0746  0.6651
  463MOL0     C61036   7.523   6.462   1.869  0.0582 -0.9589  0.0099
  463MOL0     C61037   7.628   6.550   1.905 -0.0443 -0.1267 -1.5515
  463MOL0     C61038   8.089   6.628   2.043  0.0832  0.0496  0.0943
  463MOL0     C61039   8.192   6.605   2.133 -0.0399  0.3899  0.3272
  463MOL0     C61040   8.306   6.686   2.132 -0.3095 -0.1371  0.6020
  463MOL0     C61041   8.323   6.784   2.037 -0.3505 -0.6383 -0.0961
  463MOL0     O61042   8.443   6.849   2.021  0.4052 -0.1999  0.8565
  463MOL0     C61043   8.556   6.799   2.084 -0.2368  0.1076 -0.2205
  463MOL0     C61044   8.677   6.862   2.007  0.0327  0.2275 -0.6574
  463MOL0     C61045   8.796   6.846   2.100 -0.5219  0.4446  0.0210
  463MOL0     C61046   8.920   6.922   2.053  0.6133  0.5931  0.5799
  463MOL0     C61047   9.046   6.884   2.112  0.5735  1.2395 -1.5741
  463MOL0     C61048   9.149   6.861   2.167  0.8711  0.5467  1.5327
  463MOL0     C61049   8.219   6.812   1.942 -0.1841  0.6401 -0.5762
  463MOL0     C61050   8.106   6.733   1.947 -0.3383  0.5985  0.3995
  463MOL0     H61051   7.861   6.318   1.991 -0.0385 -0.9234  2.8178
  463MOL0     H61052   7.678   6.169   1.931  0.5992 -0.0611  1.6454
  463MOL0     H61053   7.289   6.295   1.720 -0.6181  2.5816  0.6411
  463MOL0     H61054   7.280   6.364   1.883  1.5307  0.7727 -1.2447
  463MOL0     H61055   7.228   6.145   1.986  0.6817  1.8524  0.6339
  463MOL0     H61056   7.235   6.074   1.816  0.7737  1.9839 -3.2334
  463MOL0     H61057   7.035   6.181   1.747 -0.5444  2.3254  0.3844
  463MOL0     H61058   7.038   6.295   1.879  1.9414  0.9296 -0.8923
  463MOL0     H61059   6.976   5.994   1.908  0.5291 -0.2031  1.1993
  463MOL0     H61060   6.985   6.102   2.042 -1.1284  0.9014  0.4373
  463MOL0     H61061   6.779   6.107   1.828  0.1676 -0.4494  0.0712
  463MOL0     H61062   6.792   6.232   1.968 -2.5130  0.1166 -2.0845
  463MOL0     H61063   6.762   6.047   2.110  2.4736 -0.4394 -2.2596
  463MOL0     H61064   6.729   5.940   1.979 -2.4365 -1.5550  3.3426
  463MOL0     H61065   6.544   6.152   2.076 -2.2779 -0.2393  0.1508
  463MOL0     H61066   6.548   6.119   1.901 -0.7445  2.3592  1.8128
  463MOL0     H61067   6.496   5.919   2.117 -3.2618  1.3517  0.1727
  463MOL0     H61068   6.547   5.868   1.953  2.2655  0.3398  1.6058
  463MOL0     H61069   6.244   6.009   2.156 -3.1807  2.9389 -1.4139
  463MOL0     H61070   5.982   5.900   2.093 -1.1345 -0.0293 -0.2416
  463MOL0     H61071   5.956   5.898   1.923  0.4900 -2.1758  1.0302
  463MOL0     H61072   5.989   6.150   1.932  2.9711  1.4679  1.6273
  463MOL0     H61073   6.015   6.143   2.098 -1.5245 -1.0695  1.8042
  463MOL0     H61074   5.783   6.202   2.053  2.2097  0.5073 -0.7177
  463MOL0     H61075   5.749   6.041   1.983 -0.8943 -1.6920  1.3322
  463MOL0     H61076   5.788   6.114   2.270 -1.8761  0.9048 -0.8838
  463MOL0     H61077   5.819   5.941   2.227 -0.4593  0.4101  1.1081
  463MOL0     H61078   5.374   5.953   2.157 -3.2337  0.0007  2.8719
  463MOL0     H61079   5.182   6.125   2.166 -0.4424  2.8362  2.5056
  463MOL0     H61080   5.166   6.591   2.510  1.8260  3.3845 -0.9711
  463MOL0     H61081   4.988   6.756   2.560 -0.2756  0.1122 -0.1150
  463MOL0     H61082   4.816   6.966   2.541 -0.5269 -0.3637  1.6639
  463MOL0     H61083   4.791   6.806   2.575  2.3828  1.9084  1.3164
  463MOL0     H61084   4.590   6.992   2.430  3.2895  1.2346  0.8817
  463MOL0     H61085   4.590   6.937   2.599 -0.3571 -0.8713 -0.0979
  463MOL0     H61086   4.528   6.723   2.550  0.9925  4.1059  3.5873
  463MOL0     H61087   4.551   6.733   2.374  1.8563 -0.7751  0.9239
  463MOL0     H61088   4.363   6.935   2.507  1.4722  1.4150 -1.6752
  463MOL0     H61089   4.346   6.862   2.351 -1.5093  0.4433  0.2015
  463MOL0     H61090   4.320   6.721   2.611 -1.0953  1.9956  0.3524
  463MOL0     H61091   4.295   6.647   2.447 -2.7030  1.3418 -1.1851
  463MOL0     H61092   4.104   6.788   2.409 -0.9289  0.1405  0.1340
  463MOL0     H61093   4.148   6.891   2.548 -0.0695  2.7725 -4.5092
  463MOL0     H61094   4.077   6.591   2.575  1.3471  0.2851  2.1604
  463MOL0     H61095   4.062   6.726   2.698 -3.4876  0.5295  0.1020
  463MOL0     H61096   3.841   6.656   2.615 -1.4257 -0.3960 -1.4459
  463MOL0     H61097   3.900   6.690   2.448  4.3359 -0.9180  0.4112
  463MOL0     H61098   4.866   6.743   2.141  2.2075  2.2327  0.3560
  463MOL0     H61099   5.029   6.559   2.106 -1.4943  1.6487 -0.0022
  463MOL0     H61100   5.461   6.407   2.323 -0.0760  0.5614 -1.4550
  463MOL0     H61101   5.645   6.272   2.282 -1.3892  2.9401 -1.5170
  463MOL0     H61102   7.434   6.509   1.829  0.2738 -1.5681 -1.2578
  463MOL0     H61103   7.630   6.658   1.890 -3.6330  0.1805 -0.7175
  463MOL0     H61104   8.189   6.534   2.215 -0.8142  0.2381  0.1792
  463MOL0     H61105   8.381   6.661   2.206 -0.7679 -3.7849  0.0233
  463MOL0     H61106   8.554   6.690   2.085 -0.1619  0.0083 -3.3385
  463MOL0     H61107   8.559   6.826   2.191  1.6003  1.7789 -0.6307
  463MOL0     H61108   8.683   6.805   1.913 -1.9758 -3.1351  1.0504
  463MOL0     H61109   8.663   6.969   1.989 -1.0880  1.4197  5.3622
  463MOL0     H61110   8.819   6.739   2.103 -3.0406 -0.1741 -0.5534
  463MOL0     H61111   8.778   6.879   2.203 -2.2363  2.0518 -0.7311
  463MOL0     H61112   8.938   6.904   1.947 -2.4104 -5.0369  0.6761
  463MOL0     H61113   8.904   7.029   2.071  1.3074  0.3262  3.2216
  463MOL0     H61114   9.247   6.837   2.204  0.4114  1.0609  3.1583
  463MOL0     H61115   8.224   6.886   1.863 -1.9298  2.1738  0.6482
  463MOL0     H61116   8.023   6.751   1.879 -0.2327 -0.2586  0.0376
  464MOL0     O61117   8.378   4.208   2.833 -0.2823  0.8448 -0.2105
  464MOL0     C61118   8.477   4.256   2.883  0.1283 -0.3651 -1.5161
  464MOL0     O61119   8.489   4.306   3.011  1.2553 -0.1184 -0.0434
  464MOL0     C61120   8.383   4.291   3.098 -0.5262 -0.1813  0.2636
  464MOL0     C61121   8.349   4.172   3.158 -0.9098  0.2974  0.7718
  464MOL0     C61122   8.227   4.165   3.228 -0.1961 -0.0050  0.3270
  464MOL0     C61123   8.147   4.274   3.258  1.0989  0.0220  0.1655
  464MOL0     O61124   8.033   4.261   3.333 -0.1792  0.0720  0.3519
  464MOL0     C61125   7.951   4.167   3.261  0.6966 -0.6024  0.3160
  464MOL0     C61126   7.807   4.200   3.301  1.0563 -0.7567  0.6516
  464MOL0     C61127   7.711   4.085   3.303 -0.5422  0.4835 -0.0854
  464MOL0     C61128   7.574   4.146   3.329 -0.7018 -0.2419 -0.2491
  464MOL0     C61129   7.490   4.041   3.402  0.3171  0.1243  1.0266
  464MOL0     C61130   7.342   4.063   3.381  1.1584  0.1894  0.2236
  464MOL0     C61131   7.252   3.928   3.396  0.3790  0.0618 -0.5683
  464MOL0     C61132   7.136   3.923   3.293  0.2522  0.5178  0.1531
  464MOL0     N61133   7.045   4.036   3.281 -0.2805  0.1192  0.4115
  464MOL0     C61134   6.937   4.059   3.366 -1.6218  0.4890 -0.7454
  464MOL0     C61135   6.856   4.134   3.294  0.2946  0.4782  0.8248
  464MOL0     C61136   6.724   4.196   3.338 -0.4981 -0.7393  0.1120
  464MOL0     C61137   6.724   4.341   3.383 -0.3020  0.1413  0.1563
  464MOL0     C61138   6.589   4.371   3.453  0.4475  0.2264  1.2638
  464MOL0     C61139   6.471   4.399   3.358 -0.0540  0.6614 -0.0212
  464MOL0     O61140   6.410   4.280   3.306  1.1141 -0.8045 -0.4464
  464MOL0     C61141   6.281   4.282   3.263  0.3849 -0.8392 -0.3835
  464MOL0     C61142   6.189   4.390   3.264 -0.6850  0.3372  0.0806
  464MOL0     C61143   6.065   4.381   3.198  0.0411  0.2547  0.0203
  464MOL0     C61144   6.024   4.259   3.140  0.2026 -0.6099 -0.9230
  464MOL0     C61145   5.891   4.242   3.078 -0.0407 -0.1289  1.4912
  464MOL0     O61146   5.818   4.351   3.056  0.2463 -0.6219  0.0819
  464MOL0     C61147   5.695   4.351   2.997  0.3568 -0.1912 -0.2136
  464MOL0     C61148   5.665   4.281   2.874 -0.3676  0.5458  0.0164
  464MOL0     C61149   5.536   4.273   2.827  0.3015  0.4910  1.1113
  464MOL0     C61150   5.432   4.346   2.891  0.5412  0.3375  0.3457
  464MOL0     O61151   5.304   4.342   2.858 -0.3112 -0.7149 -0.2809
  464MOL0     C61152   5.269   4.269   2.735  0.9427  0.1626  1.1460
  464MOL0     C61153   5.136   4.319   2.672  1.2808  0.2389  0.7705
  464MOL0     C61154   5.119   4.473   2.688 -0.0515  0.1047  0.5298
  464MOL0     C61155   4.993   4.522   2.601 -0.1698  0.2600 -0.2400
  464MOL0     C61156   5.021   4.528   2.447 -0.0281  0.7728 -0.0914
  464MOL0     C61157   4.890   4.590   2.384  0.2245 -0.2616  0.4518
  464MOL0     C61158   4.912   4.651   2.245  0.6207 -0.4998  0.4459
  464MOL0     C61159   4.784   4.720   2.190 -0.3361  0.0161 -0.1734
  464MOL0    Cl61160   4.794   4.725   2.018 -0.3851  0.1089  0.2685
  464MOL0     C61161   5.465   4.435   2.997 -0.3145  0.2236  0.1345
  464MOL0     C61162   5.593   4.435   3.049 -0.6870 -0.2421 -0.4139
  464MOL0     O61163   5.858   4.133   3.033  0.1020  0.4370 -0.1119
  464MOL0     C61164   6.110   4.146   3.154 -0.2884 -0.0341 -0.1982
  464MOL0     C61165   6.236   4.161   3.214 -0.1656 -0.0547  0.0344
  464MOL0     N61166   6.901   4.162   3.171  0.1488 -0.6248  0.2773
  464MOL0     N61167   7.017   4.108   3.165 -0.5825  0.3541 -0.1616
  464MOL0     C61168   8.190   4.391   3.200  0.4311  0.1059  0.4132
  464MOL0     C61169   8.305   4.399   3.124  0.7187 -0.2569  0.3836
  464MOL0     C61170   8.610   4.240   2.819  0.1808  0.4658 -0.4487
  464MOL0     C61171   8.617   4.179   2.687 -0.0566  0.8204  0.3130
  464MOL0     C61172   8.749   4.166   2.631 -0.7315 -0.4827  0.2711
  464MOL0     C61173   8.862   4.222   2.685  0.0553  0.8691  0.9807
  464MOL0     O61174   8.982   4.234   2.613  0.4019 -0.2919 -0.8761
  464MOL0     C61175   9.098   4.296   2.670  0.0679  0.4133 -1.1765
  464MOL0     C61176   9.224   4.220   2.629 -1.0116 -0.0866 -0.2608
  464MOL0     C61177   9.363   4.257   2.695  0.9245  0.8768 -0.4321
  464MOL0     C61178   9.466   4.145   2.712 -0.1961 -0.3175  0.3445
  464MOL0     C61179   9.512   4.096   2.590 -0.5601 -0.0231 -0.9486
  464MOL0     C61180   9.538   4.045   2.485  0.7398  1.0674  0.1121
  464MOL0     C61181   8.845   4.281   2.812  0.4314 -0.4276  0.9659
  464MOL0     C61182   8.725   4.294   2.879  0.6167  0.6953  0.5777
  464MOL0     H61183   8.405   4.083   3.131 -1.1839  0.3953 -0.1542
  464MOL0     H61184   8.199   4.071   3.275 -2.8288  0.3909 -0.2635
  464MOL0     H61185   7.987   4.075   3.307  1.4394 -0.5741 -0.1983
  464MOL0     H61186   7.967   4.158   3.153 -1.4385 -0.8503 -0.0256
  464MOL0     H61187   7.767   4.273   3.230  0.0657 -2.1432 -0.2636
  464MOL0     H61188   7.804   4.256   3.395 -2.3497  0.9201 -0.2900
  464MOL0     H61189   7.740   4.020   3.387  2.7080  0.8823 -0.7801
  464MOL0     H61190   7.730   4.028   3.211  1.8317  4.0843 -2.0411
  464MOL0     H61191   7.585   4.236   3.389 -0.3594  0.7096 -1.6954
  464MOL0     H61192   7.540   4.176   3.229  1.9054 -0.3922 -1.2754
  464MOL0     H61193   7.518   4.058   3.507 -0.3350  1.9810  0.9388
  464MOL0     H61194   7.509   3.936   3.380 -3.6321 -0.6868  0.7389
  464MOL0     H61195   7.323   4.101   3.280 -1.8648  0.6401  0.8712
  464MOL0     H61196   7.296   4.135   3.450  0.6871 -0.7930  0.9558
  464MOL0     H61197   7.307   3.834   3.388  0.6802  0.2612 -0.8592
  464MOL0     H61198   7.215   3.924   3.499  2.1904  1.4659  0.1998
  464MOL0     H61199   7.079   3.829   3.303  0.4497  0.3708 -0.0958
  464MOL0     H61200   7.177   3.904   3.194 -0.5536  0.9190 -0.2676
  464MOL0     H61201   6.941   4.011   3.463  2.7910  0.6813 -0.6081
  464MOL0     H61202   6.677   4.150   3.426  0.6249 -0.3380  0.9437
  464MOL0     H61203   6.652   4.191   3.257 -0.4901  1.2057 -0.0565
  464MOL0     H61204   6.759   4.397   3.296 -0.6889  1.2447  0.6901
  464MOL0     H61205   6.799   4.366   3.458  1.8757  0.7024 -2.0901
  464MOL0     H61206   6.579   4.292   3.527  2.0162 -1.0100  0.2385
  464MOL0     H61207   6.615   4.465   3.503  2.5606  1.4932 -1.9009
  464MOL0     H61208   6.497   4.459   3.271 -1.5805  2.7793  0.8844
  464MOL0     H61209   6.404   4.460   3.418 -3.7749 -1.8769 -1.2256
  464MOL0     H61210   6.233   4.478   3.312  0.4475  0.1030 -0.4798
  464MOL0     H61211   5.992   4.461   3.197  1.7008  1.8563  0.2779
  464MOL0     H61212   5.749   4.228   2.831 -0.6126  1.5787 -1.8183
  464MOL0     H61213   5.518   4.202   2.747  1.7532  0.9246  0.3712
  464MOL0     H61214   5.249   4.164   2.758 -0.7691 -0.2413 -1.7387
  464MOL0     H61215   5.347   4.269   2.657  0.1213  0.0199  0.3103
  464MOL0     H61216   5.051   4.273   2.724 -0.7123  2.7391 -0.0950
  464MOL0     H61217   5.141   4.285   2.568  0.0002 -0.6720  0.9787
  464MOL0     H61218   5.211   4.529   2.666  0.6481 -1.4452 -0.7128
  464MOL0     H61219   5.098   4.491   2.793  2.7698  0.0791  1.1925
  464MOL0     H61220   4.911   4.453   2.620 -1.0037  1.7399  1.9655
  464MOL0     H61221   4.970   4.622   2.641 -1.2381  0.5078 -1.4121
  464MOL0     H61222   5.052   4.433   2.403  0.3596  0.3369  1.1002
  464MOL0     H61223   5.111   4.586   2.425  0.4471  0.0021 -0.1862
  464MOL0     H61224   4.837   4.657   2.451  0.5135  1.1350 -0.6675
  464MOL0     H61225   4.819   4.509   2.367 -0.8569  0.7970 -0.1938
  464MOL0     H61226   4.995   4.722   2.248  0.8302 -0.7544  0.6860
  464MOL0     H61227   4.925   4.569   2.173 -2.5539  0.4715 -1.4521
  464MOL0     H61228   4.756   4.816   2.235 -1.3418 -0.9092  1.2088
  464MOL0     H61229   4.697   4.657   2.203  0.7991 -1.6883 -0.4979
  464MOL0     H61230   5.395   4.508   3.038  0.9600  2.6421 -1.7345
  464MOL0     H61231   5.631   4.509   3.119  0.8964 -0.7503 -0.6957
  464MOL0     H61232   6.080   4.051   3.111  2.4089 -1.1978  0.2586
  464MOL0     H61233   6.307   4.082   3.235 -0.8946 -0.7040  0.1325
  464MOL0     H61234   8.138   4.486   3.203 -0.6192 -0.3777 -1.0741
  464MOL0     H61235   8.350   4.495   3.105 -0.5142  0.9068  2.8524
  464MOL0     H61236   8.523   4.151   2.640 -0.4039  2.0602  0.2365
  464MOL0     H61237   8.755   4.111   2.537 -2.1767 -1.8112  0.9120
  464MOL0     H61238   9.102   4.276   2.777 -3.1316 -0.5292 -1.1194
  464MOL0     H61239   9.104   4.402   2.642 -1.1286  1.3178  1.5810
  464MOL0     H61240   9.214   4.120   2.671 -2.1183 -0.5627 -1.5926
  464MOL0     H61241   9.230   4.223   2.520  0.5879  0.5084 -0.1792
  464MOL0     H61242   9.331   4.290   2.794 -0.2744 -3.4810  0.8464
  464MOL0     H61243   9.401   4.343   2.639 -1.8344  2.1237 -0.5389
  464MOL0     H61244   9.558   4.194   2.747  0.7147 -1.9543  0.3298
  464MOL0     H61245   9.440   4.067   2.784 -3.7309  0.9455  0.6329
  464MOL0     H61246   9.562   3.992   2.394 -0.9003 -0.9900  0.7851
  464MOL0     H61247   8.930   4.329   2.859 -0.3246 -0.8246  2.7999
  464MOL0     H61248   8.733   4.357   2.968  4.0686 -2.0916  2.4889
  465MOL0     O61249   6.284   0.760   5.367 -0.2302 -0.1935 -0.1113
  465MOL0     C61250   6.199   0.694   5.326  0.5927  0.3284  0.2419
  465MOL0     O61251   6.065   0.736   5.321 -0.0400  0.8007 -0.4253
  465MOL0     C61252   6.017   0.852   5.372 -1.0015 -0.4173 -0.8454
  465MOL0     C61253   6.084   0.940   5.466  0.5120  0.3789 -0.2548
  465MOL0     C61254   6.015   1.043   5.524  0.8751 -0.7925  0.2382
  465MOL0     C61255   5.884   1.071   5.476 -0.3051  0.9004 -0.4742
  465MOL0     O61256   5.821   1.179   5.530 -0.3698 -0.0985 -0.5599
  465MOL0     C61257   5.676   1.198   5.518 -0.4309 -0.5005  0.1745
  465MOL0     C61258   5.637   1.300   5.624 -0.0595 -0.0898  0.5360
  465MOL0     C61259   5.483   1.324   5.618  0.0668 -0.3109  0.5531
  465MOL0     C61260   5.450   1.421   5.728  0.0822  0.0012  0.6157
  465MOL0     C61261   5.302   1.458   5.727  0.2349  0.1560  0.0022
  465MOL0     C61262   5.273   1.599   5.795  0.2321  0.5194  1.1975
  465MOL0     C61263   5.289   1.575   5.944  0.3803 -0.0145  0.3187
  465MOL0     C61264   5.269   1.707   6.027  0.1227  1.2396 -0.3821
  465MOL0     N61265   5.135   1.725   6.085 -0.6782 -0.0460  0.9193
  465MOL0     C61266   5.028   1.715   5.994  0.7128 -0.4919 -0.8532
  465MOL0     C61267   4.929   1.692   6.082 -0.0759 -0.2037  0.4648
  465MOL0     C61268   4.789   1.660   6.044 -1.1086 -0.3824 -0.1883
  465MOL0     C61269   4.770   1.505   6.015  0.6318  0.2768  0.2814
  465MOL0     C61270   4.844   1.459   5.893  0.6715 -0.4310  1.2063
  465MOL0     C61271   4.796   1.321   5.846 -0.3593 -0.5268  0.1230
  465MOL0     O61272   4.813   1.223   5.948 -0.1201  0.1515  0.3730
  465MOL0     C61273   4.938   1.155   5.964 -0.8059  0.2160 -0.4344
  465MOL0     C61274   4.950   1.075   6.082 -0.2509 -0.1265  1.4593
  465MOL0     C61275   5.048   0.981   6.086 -0.4768  0.9024  0.1012
  465MOL0     C61276   5.149   0.978   5.984  0.4054 -0.5894 -0.5408
  465MOL0     C61277   5.263   0.885   5.998 -0.5432  0.5452  0.1924
  465MOL0     O61278   5.367   0.896   5.905 -0.2430  0.2136  0.4212
  465MOL0     C61279   5.479   0.820   5.898  0.0104 -0.4067 -0.3467
  465MOL0     C61280   5.505   0.707   5.971 -0.0990  0.8114 -0.2139
  465MOL0     C61281   5.622   0.631   5.939  0.1482 -0.6293  0.9598
  465MOL0     C61282   5.712   0.680   5.840  0.8376  0.0384  0.2158
  465MOL0     O61283   5.811   0.590   5.803 -0.2762 -0.1354 -0.3319
  465MOL0     C61284   5.926   0.647   5.731 -0.2068 -0.4886  0.4238
  465MOL0     C61285   6.049   0.566   5.754 -0.0967  0.2148 -0.1239
  465MOL0     C61286   6.168   0.598   5.669 -0.4796 -0.3381 -0.9942
  465MOL0     C61287   6.294   0.512   5.696 -0.5989 -0.3802 -0.0948
  465MOL0     C61288   6.288   0.356   5.662 -0.1264 -0.5919 -0.7671
  465MOL0     C61289   6.411   0.286   5.734  0.2373  0.0748  0.2207
  465MOL0     C61290   6.522   0.263   5.632 -0.5098 -0.4725  0.0664
  465MOL0     C61291   6.629   0.173   5.701  0.5960 -0.4654  0.3846
  465MOL0    Cl61292   6.566   0.004   5.746 -0.3071 -0.2870  0.0190
  465MOL0     C61293   5.700   0.811   5.787  0.0712  0.0974  0.6140
  465MOL0     C61294   5.582   0.872   5.818  0.1310  0.1603 -0.3051
  465MOL0     O61295   5.255   0.797   6.087  0.0153  0.5165  0.3475
  465MOL0     C61296   5.136   1.061   5.875  1.5400 -0.4174  0.1176
  465MOL0     C61297   5.025   1.138   5.859 -1.0525  0.8492 -0.3287
  465MOL0     N61298   4.966   1.705   6.216 -0.1840  0.1235  0.2757
  465MOL0     N61299   5.092   1.728   6.212 -0.2771 -0.1319 -0.3564
  465MOL0     C61300   5.823   0.982   5.387  0.1420  0.1262 -0.5148
  465MOL0     C61301   5.892   0.875   5.337 -0.0905  0.3735  0.3071
  465MOL0     C61302   6.225   0.547   5.305 -0.4680 -0.1522  0.9239
  465MOL0     C61303   6.367   0.508   5.303 -1.4844  0.0963 -0.0982
  465MOL0     C61304   6.406   0.372   5.293 -0.2804 -0.5279  0.4580
  465MOL0     C61305   6.312   0.279   5.248  1.2141 -0.8780 -0.0169
  465MOL0     O61306   6.334   0.151   5.210  0.0264  0.9725 -0.1999
  465MOL0     C61307   6.470   0.109   5.205  0.5024  0.8841  0.5052
  465MOL0     C61308   6.489  -0.028   5.139  0.0500  0.2910  0.0520
  465MOL0     C61309   6.635  -0.072   5.135  0.8673  0.4295  0.8922
  465MOL0     C61310   6.639  -0.222   5.104 -0.3857 -0.6589 -0.1753
  465MOL0     C61311   6.774  -0.275   5.099  0.3068  0.1038 -0.4642
  465MOL0     C61312   6.890  -0.308   5.109  0.8173  0.7703  0.8896
  465MOL0     C61313   6.171   0.317   5.233  0.3258 -1.1640  0.2575
  465MOL0     C61314   6.130   0.449   5.273  0.0593  0.0546 -0.6523
  465MOL0     H61315   6.188   0.935   5.497 -0.3357 -0.8800  2.7585
  465MOL0     H61316   6.052   1.093   5.612 -1.5129  0.1011  0.7988
  465MOL0     H61317   5.618   1.107   5.533  0.3669 -0.8216  1.5763
  465MOL0     H61318   5.651   1.247   5.424  0.2595  0.3581  0.4227
  465MOL0     H61319   5.698   1.388   5.601 -1.1312  0.3887 -0.5868
  465MOL0     H61320   5.672   1.272   5.724  4.7570  2.3465 -0.2129
  465MOL0     H61321   5.438   1.228   5.643  2.3626 -1.1257  1.8530
  465MOL0     H61322   5.459   1.380   5.527  1.5945  1.6208  1.2841
  465MOL0     H61323   5.473   1.380   5.827 -4.3493  0.6017  2.1183
  465MOL0     H61324   5.521   1.502   5.713  1.4090 -1.3759 -0.9273
  465MOL0     H61325   5.242   1.379   5.773  3.5253 -1.8084  1.2460
  465MOL0     H61326   5.271   1.465   5.622  1.6109 -0.1529 -0.4414
  465MOL0     H61327   5.172   1.636   5.776 -1.4483 -1.8389  4.4480
  465MOL0     H61328   5.344   1.669   5.749  0.1154  2.2034  3.4385
  465MOL0     H61329   5.211   1.504   5.973  1.1058 -0.3150  1.5926
  465MOL0     H61330   5.389   1.534   5.953  0.8873  1.3248  1.1888
  465MOL0     H61331   5.305   1.795   5.973 -0.3062  0.9875 -1.0970
  465MOL0     H61332   5.338   1.695   6.110 -0.5006  0.0349 -0.0068
  465MOL0     H61333   5.021   1.730   5.887  2.2757  0.2718 -0.8757
  465MOL0     H61334   4.751   1.714   5.957 -2.8706  0.5236  1.0925
  465MOL0     H61335   4.732   1.700   6.128  0.9074 -2.3934  2.3032
  465MOL0     H61336   4.665   1.493   5.988  1.0834  0.8784 -1.9852
  465MOL0     H61337   4.798   1.447   6.103 -0.6233 -1.7337 -0.5679
  465MOL0     H61338   4.833   1.534   5.814  0.3812 -2.3966 -0.7168
  465MOL0     H61339   4.951   1.450   5.915  0.3416  0.3810  3.4261
  465MOL0     H61340   4.841   1.291   5.750 -1.4110  2.5781 -1.4696
  465MOL0     H61341   4.688   1.321   5.828 -0.1889  0.1769 -1.0218
  465MOL0     H61342   4.871   1.068   6.156 -1.3644  1.2678  0.4659
  465MOL0     H61343   5.059   0.906   6.164  0.4432  0.2744 -0.6114
  465MOL0     H61344   5.440   0.677   6.052  0.0583  5.3792  1.9079
  465MOL0     H61345   5.644   0.534   5.982  2.4189 -1.0077 -0.8272
  465MOL0     H61346   5.965   0.743   5.765  1.2562 -2.0695  3.6962
  465MOL0     H61347   5.904   0.644   5.624 -1.2147  1.7607  0.5065
  465MOL0     H61348   6.022   0.461   5.738  1.0894 -0.1886  0.4328
  465MOL0     H61349   6.070   0.580   5.860 -1.8867 -0.2571  0.3374
  465MOL0     H61350   6.189   0.703   5.692 -0.5462 -0.4805 -0.2250
  465MOL0     H61351   6.146   0.585   5.563 -0.2595 -3.2541 -0.7634
  465MOL0     H61352   6.377   0.553   5.638  1.9309  0.7900  4.0088
  465MOL0     H61353   6.308   0.518   5.804 -2.1083 -4.4386  0.5163
  465MOL0     H61354   6.285   0.327   5.556  1.4497 -0.9230 -0.7418
  465MOL0     H61355   6.194   0.325   5.709 -0.7526 -2.7521 -3.1940
  465MOL0     H61356   6.384   0.185   5.766  0.5702 -0.8571 -2.1711
  465MOL0     H61357   6.446   0.343   5.820 -2.2217  0.0160  1.3469
  465MOL0     H61358   6.495   0.236   5.530 -0.1348  1.2636 -0.5281
  465MOL0     H61359   6.564   0.364   5.629  0.2135 -0.6304  2.5519
  465MOL0     H61360   6.665   0.226   5.790  0.9343  1.6446 -0.9453
  465MOL0     H61361   6.707   0.172   5.624 -0.8051  1.2515 -1.1537
  465MOL0     H61362   5.762   0.842   5.703  1.4433 -0.4941  1.3745
  465MOL0     H61363   5.582   0.973   5.778 -0.4744 -0.1268 -1.0787
  465MOL0     H61364   5.223   1.071   5.810  2.2091  1.9581  1.2603
  465MOL0     H61365   5.028   1.195   5.766  3.5446 -0.8624 -1.5100
  465MOL0     H61366   5.719   0.984   5.356  0.1073  0.7249 -0.3608
  465MOL0     H61367   5.852   0.808   5.262  1.5184  0.4835 -0.6820
  465MOL0     H61368   6.445   0.576   5.337 -1.7088 -0.6390  2.0888
  465MOL0     H61369   6.508   0.337   5.309 -0.2418 -0.2365  0.8875
  465MOL0     H61370   6.512   0.096   5.305  1.0400 -3.8176 -0.0788
  465MOL0     H61371   6.540   0.175   5.152  2.6308 -3.0181 -2.0661
  465MOL0     H61372   6.434  -0.101   5.199 -0.3551  2.7742  2.9419
  465MOL0     H61373   6.442  -0.032   5.041 -1.3101  0.1693  0.6911
  465MOL0     H61374   6.685  -0.045   5.228  1.7412  1.5055  0.1405
  465MOL0     H61375   6.684  -0.023   5.050 -1.9831 -0.1209 -1.2578
  465MOL0     H61376   6.587  -0.282   5.179  0.6450 -2.5141 -0.8852
  465MOL0     H61377   6.590  -0.246   5.009  0.2141 -0.6039 -0.4995
  465MOL0     H61378   6.985  -0.354   5.126  0.9899  0.5221 -0.6093
  465MOL0     H61379   6.092   0.249   5.205  1.1238 -1.3135 -1.7630
  465MOL0     H61380   6.026   0.479   5.264  0.2617  1.1893  0.4812
  466MOL0     O61381  10.633  10.375   4.797  0.0786 -0.0629  0.1245
  466MOL0     C61382  10.635  10.340   4.681 -0.2273  0.3694  1.1932
  466MOL0     O61383  10.543  10.271   4.618 -0.4133  0.5981 -0.1786
  466MOL0     C61384  10.432  10.212   4.676 -0.9651  0.7930  0.0529
  466MOL0     C61385  10.439  10.158   4.802  0.2893 -0.1216  0.4461
  466MOL0     C61386  10.325  10.101   4.863 -0.7888  0.1048 -0.8469
  466MOL0     C61387  10.205  10.079   4.790 -0.4829  0.0929  0.0656
  466MOL0     O61388  10.093  10.018   4.858  0.8069 -0.0348  0.0408
  466MOL0     C61389   9.974  10.101   4.860 -0.1379  0.7846  0.7145
  466MOL0     C61390   9.895  10.039   4.980 -0.1700  0.4452 -0.8613
  466MOL0     C61391   9.978  10.048   5.105  0.5084 -0.6008  0.7944
  466MOL0     C61392  10.033   9.907   5.152 -1.0864 -0.5892  0.1991
  466MOL0     C61393  10.118   9.933   5.284  0.8883  0.1494 -0.5309
  466MOL0     C61394  10.218   9.823   5.287 -0.0649 -0.0705  0.3816
  466MOL0     C61395  10.316   9.832   5.408  0.0693 -0.1661  0.9150
  466MOL0     C61396  10.453   9.773   5.394  0.3538  0.7428  0.3229
  466MOL0     N61397  10.446   9.622   5.383 -0.5146 -0.3805  0.3858
  466MOL0     C61398  10.433   9.548   5.496  0.2956 -0.3670 -0.1021
  466MOL0     C61399  10.417   9.421   5.453  0.5283 -0.6775  0.1123
  466MOL0     C61400  10.384   9.303   5.540 -0.0223 -0.0902  0.2290
  466MOL0     C61401  10.239   9.249   5.518  0.0924 -0.7601  0.5259
  466MOL0     C61402  10.243   9.098   5.520 -0.4077  0.1517  0.3259
  466MOL0     C61403  10.099   9.032   5.536  0.0381  0.1313 -0.1299
  466MOL0     O61404  10.013   9.075   5.424  0.2157  0.3893 -0.0986
  466MOL0     C61405   9.899   9.006   5.407 -0.0640 -0.9985  0.1517
  466MOL0     C61406   9.823   9.052   5.299  0.7710  0.1249 -0.5584
  466MOL0     C61407   9.706   8.984   5.258 -0.5569  0.3703  0.5629
  466MOL0     C61408   9.666   8.874   5.331 -0.5680  0.2410  0.3983
  466MOL0     C61409   9.538   8.804   5.277  0.4598  0.9421 -1.0836
  466MOL0     O61410   9.464   8.740   5.368  0.1609 -0.5916  0.5975
  466MOL0     C61411   9.369   8.654   5.326 -0.1191  0.4577  0.0554
  466MOL0     C61412   9.302   8.584   5.426  0.0930  0.3789  0.3247
  466MOL0     C61413   9.190   8.512   5.401  0.6345  0.6556  0.4588
  466MOL0     C61414   9.140   8.490   5.276  0.2701  0.1684  0.5550
  466MOL0     O61415   9.027   8.414   5.264  0.7209  0.2085 -0.3459
  466MOL0     C61416   9.019   8.310   5.165  0.0398  0.4562  0.0460
  466MOL0     C61417   8.898   8.335   5.073 -0.3684 -0.5890 -0.0982
  466MOL0     C61418   8.761   8.295   5.136  0.6498  0.6941 -0.1287
  466MOL0     C61419   8.645   8.317   5.033 -0.1321  0.1403 -0.5444
  466MOL0     C61420   8.506   8.264   5.086 -0.3416  0.1080  0.0606
  466MOL0     C61421   8.406   8.262   4.969  0.0190  0.6954  1.0324
  466MOL0     C61422   8.453   8.158   4.860  0.5499 -0.0419 -0.1961
  466MOL0     C61423   8.345   8.112   4.774 -0.0272 -0.3206  0.4703
  466MOL0    Cl61424   8.400   8.004   4.652  0.0198 -0.4502 -0.0504
  466MOL0     C61425   9.209   8.551   5.167 -0.2266  0.0205 -0.1276
  466MOL0     C61426   9.320   8.630   5.191  0.1195  0.1561  0.7604
  466MOL0     O61427   9.513   8.821   5.160 -0.1450  0.4898 -0.3051
  466MOL0     C61428   9.740   8.829   5.440  0.6416  0.7839  0.3118
  466MOL0     C61429   9.856   8.895   5.469  0.6192 -0.2623 -0.3497
  466MOL0     N61430  10.419   9.418   5.318  0.3485  0.7164  0.8270
  466MOL0     N61431  10.455   9.536   5.277 -0.3387 -0.5843 -0.1758
  466MOL0     C61432  10.204  10.117   4.657 -0.3457 -0.4674 -0.3550
  466MOL0     C61433  10.314  10.190   4.604 -0.2216  0.7117 -0.1700
  466MOL0     C61434  10.766  10.376   4.611  0.5871 -0.2650  0.6707
  466MOL0     C61435  10.862  10.463   4.675  0.7593  0.3317  0.4843
  466MOL0     C61436  10.976  10.494   4.606  0.4824 -0.1372 -0.1614
  466MOL0     C61437  10.999  10.450   4.481  0.0988 -0.1852  0.5937
  466MOL0     O61438  11.115  10.469   4.409 -1.1165 -0.3313  0.0234
  466MOL0     C61439  11.191  10.582   4.439  0.7786  0.1088  0.2192
  466MOL0     C61440  11.301  10.610   4.336  0.3683  0.7483  0.1045
  466MOL0     C61441  11.252  10.663   4.203 -0.2882  0.1186 -0.4603
  466MOL0     C61442  11.364  10.698   4.110 -0.7779  0.6490  0.6589
  466MOL0     C61443  11.434  10.820   4.142  0.2315 -0.6620  0.2721
  466MOL0     C61444  11.504  10.924   4.156  0.0743 -0.1312  0.0102
  466MOL0     C61445  10.897  10.383   4.406 -1.1517  0.2537  0.5889
  466MOL0     C61446  10.787  10.340   4.474 -0.1266  1.0948 -0.1927
  466MOL0     H61447  10.519  10.178   4.872 -1.1229 -0.8908  2.3521
  466MOL0     H61448  10.326  10.079   4.969  0.3789 -1.5692 -1.1646
  466MOL0     H61449   9.915  10.086   4.768 -0.0995  1.2189  0.6186
  466MOL0     H61450  10.003  10.205   4.878  3.1540  0.5298 -2.0972
  466MOL0     H61451   9.871   9.934   4.960  0.8498  0.0984 -0.3532
  466MOL0     H61452   9.805  10.099   4.993  1.4432  2.5687  1.5850
  466MOL0     H61453   9.922  10.091   5.189  0.7370 -0.0857  0.6839
  466MOL0     H61454  10.067  10.111   5.094  1.4222 -2.1658 -1.3157
  466MOL0     H61455   9.957   9.828   5.159  0.9431 -2.9098 -1.9538
  466MOL0     H61456  10.103   9.869   5.078  0.4105 -2.0104  2.2394
  466MOL0     H61457  10.047   9.918   5.366  1.9384 -0.5085  0.2750
  466MOL0     H61458  10.162  10.031   5.261  0.6454 -0.1261 -2.3354
  466MOL0     H61459  10.273   9.807   5.193  1.5264  1.3351  1.0135
  466MOL0     H61460  10.152   9.737   5.289 -2.1431  1.3448 -1.8129
  466MOL0     H61461  10.330   9.941   5.415  0.5292  0.0307 -1.8563
  466MOL0     H61462  10.270   9.795   5.500  0.2061  0.9317  1.4486
  466MOL0     H61463  10.514   9.805   5.479  1.3797 -1.2214  0.3787
  466MOL0     H61464  10.507   9.812   5.308  1.8662  0.5320  1.1520
  466MOL0     H61465  10.437   9.590   5.596  1.1523 -3.4786  1.3226
  466MOL0     H61466  10.416   9.319   5.643  4.5163  1.7572 -1.2221
  466MOL0     H61467  10.459   9.228   5.515  0.9556  0.2998  1.8623
  466MOL0     H61468  10.197   9.287   5.424  0.6902  2.5801  1.4616
  466MOL0     H61469  10.171   9.282   5.597 -0.2745 -1.3822  0.4738
  466MOL0     H61470  10.274   9.057   5.424 -1.8226 -0.7308  0.2157
  466MOL0     H61471  10.302   9.073   5.609  0.6167  1.2379 -0.0218
  466MOL0     H61472  10.046   9.067   5.625  0.7036  0.6687  0.0659
  466MOL0     H61473  10.127   8.926   5.540  0.7080  0.3310  1.7381
  466MOL0     H61474   9.841   9.156   5.270 -1.1324 -0.3688 -4.0456
  466MOL0     H61475   9.642   9.020   5.177 -2.0139  1.8446  2.2689
  466MOL0     H61476   9.344   8.591   5.526  4.5403  4.7284 -1.4550
  466MOL0     H61477   9.147   8.448   5.477  1.3024 -0.7566 -0.2971
  466MOL0     H61478   9.009   8.213   5.215 -0.2659  0.9276  0.9241
  466MOL0     H61479   9.114   8.295   5.114 -0.8251 -0.9066 -1.2626
  466MOL0     H61480   8.921   8.261   4.996  0.1045 -1.6868  1.0597
  466MOL0     H61481   8.900   8.437   5.034  1.1220 -0.3750  0.4690
  466MOL0     H61482   8.747   8.360   5.223  1.4568 -3.8435  3.8064
  466MOL0     H61483   8.769   8.190   5.168 -1.4042  0.1720 -1.1291
  466MOL0     H61484   8.631   8.423   5.008 -0.6541  0.7993  2.2168
  466MOL0     H61485   8.675   8.267   4.941 -1.9990 -0.8787 -0.6325
  466MOL0     H61486   8.469   8.320   5.172  0.5493  1.7853 -0.5985
  466MOL0     H61487   8.513   8.162   5.124 -1.2326  0.5924  1.5798
  466MOL0     H61488   8.390   8.361   4.926  1.1019  0.0912 -0.8960
  466MOL0     H61489   8.309   8.227   5.007 -0.6244  0.1199 -1.0073
  466MOL0     H61490   8.530   8.201   4.796 -0.1285 -0.2158 -1.1559
  466MOL0     H61491   8.488   8.070   4.914  0.1020  0.2171  0.5287
  466MOL0     H61492   8.287   8.195   4.731  0.0589  2.0399  4.4658
  466MOL0     H61493   8.269   8.067   4.838 -0.6120 -1.3449 -0.8834
  466MOL0     H61494   9.177   8.525   5.066 -1.7846  0.3946  0.2478
  466MOL0     H61495   9.373   8.675   5.107  2.3070  3.4953  3.6453
  466MOL0     H61496   9.697   8.747   5.496  0.5998  0.9448  0.5180
  466MOL0     H61497   9.917   8.863   5.553  0.4414  0.4968  0.0834
  466MOL0     H61498  10.126  10.089   4.587 -0.6509  0.7728 -0.5227
  466MOL0     H61499  10.295  10.227   4.504  0.0889 -2.7258 -1.6418
  466MOL0     H61500  10.853  10.499   4.777 -0.1871 -2.2628  1.3941
  466MOL0     H61501  11.035  10.567   4.661 -1.2535  2.7674 -1.9068
  466MOL0     H61502  11.224  10.557   4.540 -0.5141 -3.3642 -0.0964
  466MOL0     H61503  11.137  10.677   4.446 -1.3246 -1.0682  0.7338
  466MOL0     H61504  11.368  10.689   4.371  1.8286  1.3387 -3.5642
  466MOL0     H61505  11.357  10.517   4.321  0.1159  0.4945  0.7279
  466MOL0     H61506  11.184  10.746   4.225 -0.3972 -0.3801  1.2027
  466MOL0     H61507  11.196  10.588   4.146  3.7629 -2.9223 -0.9074
  466MOL0     H61508  11.435  10.616   4.098 -0.9394  0.5217  0.5581
  466MOL0     H61509  11.320  10.713   4.011 -1.5882  0.8071  1.0352
  466MOL0     H61510  11.563  11.010   4.180 -0.0239 -0.2905  0.8534
  466MOL0     H61511  10.913  10.360   4.301 -1.4335 -1.7756  0.9508
  466MOL0     H61512  10.716  10.274   4.426  0.3508  0.3405  0.1151
  467MOL0     O61513   0.204   0.882   2.016 -0.8167 -0.4769 -0.2518
  467MOL0     C61514   0.266   0.971   1.966 -0.1478 -0.5385 -0.3891
  467MOL0     O61515   0.219   1.068   1.886 -0.0787 -0.8945 -0.4007
  467MOL0     C61516   0.082   1.079   1.876 -1.4969 -0.2748  0.0831
  467MOL0     C61517   0.004   1.036   1.765  0.1984 -0.0602 -0.0959
  467MOL0     C61518  -0.133   1.072   1.756 -0.1822 -0.3937 -0.0083
  467MOL0     C61519  -0.195   1.152   1.857  0.1964 -0.3147  1.4037
  467MOL0     O61520  -0.327   1.175   1.835  0.2656 -0.2887 -0.6062
  467MOL0     C61521  -0.414   1.181   1.948  0.0666 -0.1738 -0.3213
  467MOL0     C61522  -0.565   1.172   1.907  0.4391 -0.2399  0.9809
  467MOL0     C61523  -0.595   1.284   1.804  0.2913  0.7894  0.1323
  467MOL0     C61524  -0.741   1.288   1.767  0.4375 -0.2368  0.3561
  467MOL0     C61525  -0.771   1.412   1.675 -0.0737  0.7945  0.1069
  467MOL0     C61526  -0.907   1.396   1.598  0.2112  0.3531  0.3771
  467MOL0     C61527  -0.964   1.539   1.556  0.5073  0.0214 -0.1204
  467MOL0     C61528  -0.904   1.633   1.448 -0.3126  0.6845 -0.7291
  467MOL0     N61529  -0.909   1.579   1.316  0.0829  0.6703 -0.1308
  467MOL0     C61530  -0.829   1.484   1.256 -0.1014  0.1209  0.0880
  467MOL0     C61531  -0.889   1.456   1.136  0.4628  1.4752  0.4435
  467MOL0     C61532  -0.842   1.350   1.041  0.0622 -0.8739 -0.1625
  467MOL0     C61533  -0.955   1.252   0.990 -0.3851 -0.5656  0.1605
  467MOL0     C61534  -1.023   1.174   1.095 -0.6447 -0.8107  0.7818
  467MOL0     C61535  -1.098   1.053   1.048 -1.0945  0.0876  0.5434
  467MOL0     O61536  -1.242   1.072   1.046  0.1359 -0.4541 -0.6926
  467MOL0     C61537  -1.319   0.969   1.001  0.8584 -0.3061  0.7388
  467MOL0     C61538  -1.319   0.848   1.069 -0.3189 -0.1749 -0.4162
  467MOL0     C61539  -1.405   0.748   1.025  0.6516  0.2253  0.4604
  467MOL0     C61540  -1.501   0.764   0.922  0.1474 -0.9366  1.2353
  467MOL0     C61541  -1.589   0.646   0.880 -0.6846  0.2159  0.3877
  467MOL0     O61542  -1.683   0.670   0.786 -0.2578  0.0715  0.2136
  467MOL0     C61543  -1.764   0.562   0.751  0.4596 -0.8570 -0.7909
  467MOL0     C61544  -1.788   0.540   0.618 -0.0080 -0.0593  0.5149
  467MOL0     C61545  -1.877   0.438   0.576 -0.1025 -0.4399 -0.6600
  467MOL0     C61546  -1.945   0.363   0.668 -0.2331  0.2854 -0.3739
  467MOL0     O61547  -2.027   0.263   0.631  0.2544  0.5522 -0.0036
  467MOL0     C61548  -2.023   0.215   0.490  0.6775 -0.2567 -1.0986
  467MOL0     C61549  -2.134   0.114   0.479  0.2817 -0.4221  0.4435
  467MOL0     C61550  -2.164   0.068   0.335 -0.8870  0.3012 -0.6859
  467MOL0     C61551  -2.044  -0.021   0.279 -0.0164 -0.6736 -0.5928
  467MOL0     C61552  -2.073  -0.053   0.135 -0.0579 -0.3864 -0.1687
  467MOL0     C61553  -1.985  -0.168   0.075  0.1517  0.6025 -0.5410
  467MOL0     C61554  -2.012  -0.169  -0.069 -0.7355  0.0250 -0.4779
  467MOL0     C61555  -1.905  -0.248  -0.153  0.3780 -0.2584 -0.4167
  467MOL0    Cl61556  -1.739  -0.175  -0.170  0.1995 -0.4508 -0.0847
  467MOL0     C61557  -1.929   0.388   0.803 -0.1600  0.2455  0.3839
  467MOL0     C61558  -1.837   0.487   0.845 -0.4860  0.7842  0.0479
  467MOL0     O61559  -1.564   0.540   0.939  0.5474  0.4301  0.2935
  467MOL0     C61560  -1.502   0.888   0.851 -0.0072  0.5806 -0.5911
  467MOL0     C61561  -1.414   0.987   0.894 -0.6117 -0.1842  0.6816
  467MOL0     N61562  -0.995   1.534   1.116 -0.0835 -0.9636 -0.1408
  467MOL0     N61563  -1.016   1.604   1.221 -0.3143 -0.0809 -0.4694
  467MOL0     C61564  -0.112   1.200   1.962  1.1142 -1.3309 -0.1137
  467MOL0     C61565   0.020   1.167   1.972 -0.6428  0.1032  0.4570
  467MOL0     C61566   0.407   0.979   2.003  0.0293 -0.2778  0.6970
  467MOL0     C61567   0.489   1.072   1.932  0.5591  0.5241  0.3211
  467MOL0     C61568   0.626   1.057   1.936  0.7944 -0.5201  1.1595
  467MOL0     C61569   0.686   0.963   2.020  0.3776 -0.0276 -0.0481
  467MOL0     O61570   0.823   0.948   2.038  0.5026 -0.2013  0.9880
  467MOL0     C61571   0.880   0.969   2.160  0.1779 -0.2419 -1.1457
  467MOL0     C61572   0.864   1.113   2.200  0.5611  0.3700 -0.5602
  467MOL0     C61573   0.956   1.157   2.312  0.2638 -0.0310 -0.8393
  467MOL0     C61574   1.098   1.197   2.260  0.2669  0.5665 -0.2975
  467MOL0     C61575   1.165   1.310   2.321 -0.3246  0.1723  0.4973
  467MOL0     C61576   1.220   1.405   2.374 -0.2048 -0.3702 -0.4904
  467MOL0     C61577   0.605   0.886   2.098  0.3950 -0.4179 -0.2899
  467MOL0     C61578   0.469   0.898   2.097  0.7750  0.1283  0.1036
  467MOL0     H61579   0.049   0.963   1.698  0.4482  1.0967 -1.2407
  467MOL0     H61580  -0.199   1.029   1.682 -1.1682  1.2195 -0.0929
  467MOL0     H61581  -0.400   1.277   2.000 -3.5358 -0.8249  2.2508
  467MOL0     H61582  -0.409   1.102   2.024 -0.9290  0.6378  0.6269
  467MOL0     H61583  -0.631   1.181   1.994 -0.3633 -0.5950  0.4289
  467MOL0     H61584  -0.586   1.075   1.860 -0.9284  1.5685 -2.4962
  467MOL0     H61585  -0.525   1.262   1.722 -0.3829 -0.3749 -0.1463
  467MOL0     H61586  -0.567   1.382   1.846  2.0201  1.6481 -2.7045
  467MOL0     H61587  -0.766   1.196   1.713 -1.1319 -0.4219  1.3254
  467MOL0     H61588  -0.800   1.289   1.859  1.0941  1.4426  0.7980
  467MOL0     H61589  -0.686   1.417   1.606 -0.4115 -2.4220 -0.6777
  467MOL0     H61590  -0.770   1.506   1.731 -0.3776  1.3783 -0.8518
  467MOL0     H61591  -0.982   1.338   1.652 -0.9630  0.5116 -1.0543
  467MOL0     H61592  -0.889   1.345   1.503 -0.7652 -0.2174  0.4854
  467MOL0     H61593  -1.070   1.531   1.528  0.3941 -0.3808  0.4040
  467MOL0     H61594  -0.964   1.605   1.643 -2.3541  1.8220 -1.3223
  467MOL0     H61595  -0.797   1.642   1.468 -0.1968 -0.8311 -0.5492
  467MOL0     H61596  -0.947   1.734   1.458  0.7292  0.8956  4.0018
  467MOL0     H61597  -0.742   1.436   1.299 -1.5396 -4.6477 -1.7488
  467MOL0     H61598  -0.776   1.284   1.098 -1.5149 -0.9164  1.7443
  467MOL0     H61599  -0.789   1.390   0.954 -0.8442  0.9365  0.0616
  467MOL0     H61600  -0.908   1.192   0.911  1.2934  1.5828 -0.6015
  467MOL0     H61601  -1.022   1.310   0.926  1.2158  0.7609 -0.4041
  467MOL0     H61602  -0.945   1.152   1.169  0.5698  1.9697  0.4756
  467MOL0     H61603  -1.100   1.242   1.133 -0.0414 -0.5351  1.5729
  467MOL0     H61604  -1.078   0.975   1.123 -0.3314 -0.0081  0.2471
  467MOL0     H61605  -1.060   1.019   0.951  0.1426 -0.5703  1.2290
  467MOL0     H61606  -1.261   0.828   1.159 -3.1926  1.6933  2.0524
  467MOL0     H61607  -1.407   0.650   1.071 -2.2005 -0.9390 -1.8202
  467MOL0     H61608  -1.734   0.602   0.548  0.0163  1.1044  1.5319
  467MOL0     H61609  -1.862   0.414   0.471  1.5534 -1.5735 -0.2016
  467MOL0     H61610  -1.929   0.168   0.459 -0.3193 -1.5667 -2.2763
  467MOL0     H61611  -2.052   0.295   0.421 -1.9367  1.1160  1.3583
  467MOL0     H61612  -2.220   0.154   0.532 -0.6588  1.0777 -2.0132
  467MOL0     H61613  -2.095   0.022   0.523  1.4748 -0.4575 -0.6268
  467MOL0     H61614  -2.166   0.151   0.263 -0.9907  2.1298  1.3072
  467MOL0     H61615  -2.259   0.014   0.331  1.2595 -3.7729 -2.3739
  467MOL0     H61616  -1.945   0.025   0.273 -0.2923 -0.1583 -1.4712
  467MOL0     H61617  -2.027  -0.116   0.329  2.2886 -1.1477 -2.1403
  467MOL0     H61618  -2.066   0.037   0.073  3.5770  0.4051  1.1657
  467MOL0     H61619  -2.178  -0.086   0.128 -0.7428  1.8881 -1.7737
  467MOL0     H61620  -2.003  -0.265   0.122  1.2254  0.0905 -1.1416
  467MOL0     H61621  -1.880  -0.137   0.083  1.1046 -2.0452 -1.5087
  467MOL0     H61622  -2.111  -0.215  -0.077 -0.1061 -1.0355 -3.1820
  467MOL0     H61623  -2.036  -0.072  -0.114  1.2184 -0.6058 -3.1793
  467MOL0     H61624  -1.949  -0.262  -0.252  1.8163  2.9785 -1.6469
  467MOL0     H61625  -1.898  -0.351  -0.117 -2.6831 -0.0900  0.9151
  467MOL0     H61626  -1.992   0.327   0.867 -0.2870 -1.4227 -1.2694
  467MOL0     H61627  -1.818   0.492   0.952  2.8676 -1.5997 -0.2619
  467MOL0     H61628  -1.569   0.888   0.765  0.0786 -3.4735 -0.8538
  467MOL0     H61629  -1.422   1.086   0.849  0.5803  0.0035  0.8523
  467MOL0     H61630  -0.153   1.271   2.034  1.5726  0.6989 -1.7606
  467MOL0     H61631   0.074   1.215   2.052 -2.9544 -0.1107  2.2581
  467MOL0     H61632   0.443   1.154   1.876  0.3047  1.2587  1.5741
  467MOL0     H61633   0.692   1.126   1.883 -1.7667 -1.1198 -3.2984
  467MOL0     H61634   0.988   0.954   2.151  0.8671  3.5547 -0.6582
  467MOL0     H61635   0.839   0.905   2.239 -0.4681 -0.5579 -1.7295
  467MOL0     H61636   0.887   1.175   2.113  2.6542  1.5861  0.7701
  467MOL0     H61637   0.760   1.132   2.227  0.6134 -0.7562  0.5151
  467MOL0     H61638   0.965   1.074   2.382 -0.4042 -1.6478 -2.5716
  467MOL0     H61639   0.909   1.236   2.372  2.0074  0.5610 -0.2107
  467MOL0     H61640   1.166   1.118   2.290  2.8759  3.2556  1.4869
  467MOL0     H61641   1.105   1.199   2.151  0.0219 -2.4700 -0.4318
  467MOL0     H61642   1.278   1.473   2.432  1.3407 -1.4826 -0.6781
  467MOL0     H61643   0.643   0.799   2.151 -3.1049 -2.6806 -1.1335
  467MOL0     H61644   0.423   0.826   2.165  0.5356  0.5751  0.4174
  468MOL0     O61645   9.347   5.093   6.730 -0.0790 -0.2580 -0.4296
  468MOL0     C61646   9.453   5.154   6.714 -0.8904  0.2994 -0.0200
  468MOL0     O61647   9.469   5.298   6.725 -0.4221  0.1590 -0.3198
  468MOL0     C61648   9.360   5.382   6.741 -0.6611  0.3246  0.1954
  468MOL0     C61649   9.261   5.369   6.643 -0.0767 -0.9764 -0.2565
  468MOL0     C61650   9.166   5.474   6.631 -0.3144 -0.1738  1.0494
  468MOL0     C61651   9.154   5.570   6.728  0.0171 -0.8649  0.0112
  468MOL0     O61652   9.040   5.644   6.725  1.1845  0.4076 -0.0185
  468MOL0     C61653   9.018   5.738   6.835 -1.1926  0.3422  0.3894
  468MOL0     C61654   8.878   5.801   6.810  0.1730  0.0314 -0.2685
  468MOL0     C61655   8.826   5.885   6.922 -0.2757  0.0131 -0.4378
  468MOL0     C61656   8.913   6.011   6.941 -0.6146  0.3557 -0.2846
  468MOL0     C61657   8.836   6.090   7.055 -0.1866  0.2402 -0.9216
  468MOL0     C61658   8.910   6.222   7.090 -0.4359  0.0760 -0.0961
  468MOL0     C61659   9.056   6.209   7.145 -0.6248  0.8719  0.1514
  468MOL0     C61660   9.087   6.315   7.254 -0.3762  0.7948 -0.1632
  468MOL0     N61661   9.235   6.316   7.287  0.3758  0.1313  0.1933
  468MOL0     C61662   9.335   6.302   7.193  0.4787  0.5606  0.6226
  468MOL0     C61663   9.453   6.309   7.266 -0.1232 -0.1717  1.5467
  468MOL0     C61664   9.603   6.317   7.203 -1.5814  0.1585 -0.9532
  468MOL0     C61665   9.689   6.186   7.233  0.2613 -0.0283 -0.6661
  468MOL0     C61666   9.836   6.205   7.208 -0.0283 -1.2744  0.1251
  468MOL0     C61667   9.929   6.092   7.245 -0.1345 -0.7308  0.3172
  468MOL0     O61668  10.066   6.122   7.212  0.0410 -0.7053  0.1286
  468MOL0     C61669  10.125   6.052   7.108 -0.2338  0.3836 -0.2946
  468MOL0     C61670  10.068   6.020   6.987  0.1765 -1.3255 -0.5956
  468MOL0     C61671  10.128   5.932   6.901  0.7341 -0.0150 -1.3254
  468MOL0     C61672  10.256   5.892   6.920  0.2924  0.8217 -0.7484
  468MOL0     C61673  10.327   5.803   6.827  0.1482  0.6736  0.3956
  468MOL0     O61674  10.440   5.740   6.864 -0.1589  0.4964  0.2218
  468MOL0     C61675  10.511   5.662   6.772 -0.4114 -0.2516 -0.2721
  468MOL0     C61676  10.551   5.707   6.650 -0.7106 -0.0458  0.0921
  468MOL0     C61677  10.633   5.628   6.571 -0.2118  0.4422 -0.2619
  468MOL0     C61678  10.682   5.506   6.617  0.0531  0.0046  0.8578
  468MOL0     O61679  10.771   5.437   6.541  0.0087 -0.7165 -0.3796
  468MOL0     C61680  10.898   5.508   6.534  0.3520  0.0941  0.4828
  468MOL0     C61681  10.997   5.429   6.444 -0.4317  0.6051 -0.1164
  468MOL0     C61682  11.007   5.274   6.462 -1.2395  0.2708 -0.3287
  468MOL0     C61683  11.122   5.227   6.376  0.1593  0.4733 -0.7143
  468MOL0     C61684  11.134   5.084   6.418  0.0316 -0.2771 -0.5609
  468MOL0     C61685  11.224   4.998   6.322  0.0916  0.7556 -0.3074
  468MOL0     C61686  11.347   5.067   6.265  0.2257  0.5672  1.3387
  468MOL0     C61687  11.441   4.974   6.174 -0.4452 -0.5005 -0.2978
  468MOL0    Cl61688  11.565   5.091   6.127 -0.0586 -0.0480  0.0054
  468MOL0     C61689  10.635   5.452   6.741 -0.0950  0.7414 -0.1605
  468MOL0     C61690  10.547   5.536   6.810 -0.1334 -0.6939 -0.0867
  468MOL0     O61691  10.283   5.802   6.714  0.3465  0.1414 -0.8860
  468MOL0     C61692  10.321   5.922   7.041 -0.3762  0.3415  0.2922
  468MOL0     C61693  10.252   5.992   7.134 -0.1782 -0.2858 -0.3362
  468MOL0     N61694   9.413   6.319   7.400 -0.2658  0.3137  0.2694
  468MOL0     N61695   9.288   6.333   7.411 -0.0866  0.7314  0.0308
  468MOL0     C61696   9.248   5.577   6.833 -0.4172  0.2775 -0.4889
  468MOL0     C61697   9.358   5.492   6.835 -0.6710 -0.2524  0.7586
  468MOL0     C61698   9.575   5.069   6.697 -0.4680 -0.5484  0.9889
  468MOL0     C61699   9.561   4.931   6.673 -0.6427 -0.3075  0.2403
  468MOL0     C61700   9.670   4.855   6.680 -0.5822  0.3613  1.3789
  468MOL0     C61701   9.800   4.909   6.687 -0.6079  0.3048  0.3886
  468MOL0     O61702   9.898   4.810   6.682  0.2666  0.6982  0.3569
  468MOL0     C61703  10.031   4.846   6.656 -0.8757 -1.0568  0.2263
  468MOL0     C61704  10.116   4.729   6.617  0.2203 -0.6901  0.7092
  468MOL0     C61705  10.176   4.655   6.729  0.3488 -0.1442 -1.0233
  468MOL0     C61706  10.261   4.537   6.681  0.1377  0.7888 -0.2415
  468MOL0     C61707  10.310   4.437   6.767  0.1755  0.1402 -1.1660
  468MOL0     C61708  10.365   4.358   6.852 -0.1930 -0.8196  0.1247
  468MOL0     C61709   9.822   5.044   6.706  0.6253 -0.5072  0.2743
  468MOL0     C61710   9.702   5.122   6.716  0.2040 -1.0616  0.6114
  468MOL0     H61711   9.282   5.298   6.564 -0.3848 -0.6359 -0.6503
  468MOL0     H61712   9.099   5.462   6.546 -1.3418  1.0625  1.6606
  468MOL0     H61713   9.088   5.820   6.820  1.1076 -1.8592 -2.0142
  468MOL0     H61714   9.028   5.710   6.940  0.2870  0.9328  0.4309
  468MOL0     H61715   8.808   5.717   6.806 -0.2430  0.0511  3.5331
  468MOL0     H61716   8.879   5.847   6.711  2.1382 -0.4164 -0.5016
  468MOL0     H61717   8.818   5.832   7.018  0.8118 -3.2382 -2.0055
  468MOL0     H61718   8.722   5.907   6.895 -1.1087 -1.1280  1.6312
  468MOL0     H61719   9.011   5.977   6.974 -1.3842 -0.3843  1.3775
  468MOL0     H61720   8.922   6.064   6.845  1.9116 -1.2873 -1.0579
  468MOL0     H61721   8.824   6.022   7.141  4.6925 -1.2416 -1.1232
  468MOL0     H61722   8.733   6.104   7.021 -0.5331  3.6640  1.0863
  468MOL0     H61723   8.865   6.288   7.165 -0.8243 -0.1041 -0.1688
  468MOL0     H61724   8.921   6.270   6.992  0.7147  0.8546  0.3892
  468MOL0     H61725   9.067   6.106   7.179  2.3305  1.2521  0.6503
  468MOL0     H61726   9.128   6.212   7.062  1.0643  0.5931  1.5438
  468MOL0     H61727   9.039   6.297   7.351 -0.6309 -4.6161 -1.0197
  468MOL0     H61728   9.072   6.420   7.227 -1.7310  0.7949  0.4905
  468MOL0     H61729   9.325   6.298   7.085  1.6187 -2.4242  0.5117
  468MOL0     H61730   9.650   6.411   7.234  2.1123 -1.1689 -2.0129
  468MOL0     H61731   9.600   6.323   7.094  0.4162 -0.4119 -1.0944
  468MOL0     H61732   9.645   6.103   7.175 -3.0970 -3.5621  5.8318
  468MOL0     H61733   9.683   6.151   7.336 -0.9261 -1.0830 -1.0582
  468MOL0     H61734   9.844   6.241   7.105 -0.4203  2.0129  1.1225
  468MOL0     H61735   9.871   6.295   7.259  1.6365 -0.9523 -1.4562
  468MOL0     H61736   9.899   5.998   7.198 -1.7013 -0.3885  0.5783
  468MOL0     H61737   9.910   6.078   7.351  0.7245 -0.0248  0.5688
  468MOL0     H61738   9.981   6.080   6.963  0.6245 -0.5662 -0.3706
  468MOL0     H61739  10.073   5.921   6.809 -0.4480 -0.1438 -0.6311
  468MOL0     H61740  10.521   5.808   6.624 -0.0328 -0.1973 -1.3732
  468MOL0     H61741  10.661   5.647   6.468 -0.8481 -1.6335 -0.8819
  468MOL0     H61742  10.934   5.529   6.634 -0.1142  0.7998  0.5079
  468MOL0     H61743  10.876   5.606   6.492 -0.3069 -1.3109 -2.7934
  468MOL0     H61744  11.099   5.466   6.449 -0.6428  1.1752  0.1055
  468MOL0     H61745  10.968   5.460   6.343  1.8656  1.8465 -0.4547
  468MOL0     H61746  10.912   5.225   6.438  0.2272 -2.1740 -1.5558
  468MOL0     H61747  11.033   5.238   6.561  3.8433  1.0771 -1.0649
  468MOL0     H61748  11.093   5.248   6.273 -0.0417 -1.8089 -1.1726
  468MOL0     H61749  11.214   5.282   6.398 -0.7692  1.4518  0.9407
  468MOL0     H61750  11.040   5.034   6.441  0.3718 -0.2226  1.0626
  468MOL0     H61751  11.197   5.092   6.508 -0.1150  0.5170 -0.5176
  468MOL0     H61752  11.165   4.962   6.238  0.4938  0.3488 -0.4200
  468MOL0     H61753  11.256   4.909   6.376 -0.9854  0.1858 -0.5705
  468MOL0     H61754  11.324   5.150   6.198  2.5901 -0.1051 -0.4033
  468MOL0     H61755  11.405   5.103   6.351 -0.7132  0.7234  1.9330
  468MOL0     H61756  11.407   4.911   6.092  1.1990 -3.2110  0.9799
  468MOL0     H61757  11.482   4.908   6.251 -0.3684 -0.7985 -0.5916
  468MOL0     H61758  10.664   5.354   6.777  1.1806  0.7238 -1.1562
  468MOL0     H61759  10.518   5.502   6.909  1.2192  2.2296  1.4272
  468MOL0     H61760  10.416   5.884   7.077 -0.0637  0.1810 -0.6814
  468MOL0     H61761  10.305   5.993   7.228 -2.1895 -2.2774  0.9196
  468MOL0     H61762   9.240   5.642   6.920  2.2481 -2.8489  2.3622
  468MOL0     H61763   9.433   5.502   6.912 -1.0815 -2.5053  1.5302
  468MOL0     H61764   9.464   4.882   6.664 -0.4134 -0.6112 -0.6349
  468MOL0     H61765   9.660   4.748   6.661 -0.2861  0.5566 -0.0501
  468MOL0     H61766  10.084   4.884   6.744  0.7253  0.7387 -1.4140
  468MOL0     H61767  10.048   4.931   6.588  2.7291 -0.6903  1.3517
  468MOL0     H61768  10.054   4.663   6.554  3.3064 -3.2946  0.1074
  468MOL0     H61769  10.190   4.756   6.541 -0.4447 -1.1251 -0.1179
  468MOL0     H61770  10.091   4.616   6.787  0.5046  0.9502 -0.0274
  468MOL0     H61771  10.241   4.729   6.775 -2.4860  1.4867  0.6741
  468MOL0     H61772  10.202   4.477   6.611  0.7511 -1.4061  1.0558
  468MOL0     H61773  10.343   4.581   6.623 -1.3799 -0.4106 -3.5515
  468MOL0     H61774  10.413   4.312   6.936  0.9731 -0.1951 -0.1749
  468MOL0     H61775   9.918   5.088   6.732 -0.0107  0.1485  1.5934
  468MOL0     H61776   9.713   5.229   6.730  1.4777 -1.2627  1.2424
  469MOL0     O61777   0.291   0.825   8.004  0.1033  0.0249  0.0103
  469MOL0     C61778   0.405   0.777   7.997  0.1221 -0.0010  0.0817
  469MOL0     O61779   0.439   0.646   8.030  0.8156 -0.3597  0.5166
  469MOL0     C61780   0.348   0.559   8.081  0.6174  0.2778 -0.0316
  469MOL0     C61781   0.397   0.428   8.104  0.5748  0.2236  1.1294
  469MOL0     C61782   0.322   0.331   8.172 -0.4123  0.5958  0.1854
  469MOL0     C61783   0.188   0.355   8.206  0.4122 -0.6465  1.3670
  469MOL0     O61784   0.112   0.252   8.266  0.3412 -0.9690 -0.4228
  469MOL0     C61785  -0.025   0.228   8.233  0.0919  0.2455  0.2596
  469MOL0     C61786  -0.081   0.083   8.267 -0.2983  1.0775 -0.3003
  469MOL0     C61787  -0.219   0.063   8.209 -0.2054  0.4436 -0.6890
  469MOL0     C61788  -0.259  -0.079   8.237  0.3512 -0.2551 -0.2724
  469MOL0     C61789  -0.325  -0.111   8.373  0.6149  0.6824  0.6456
  469MOL0     C61790  -0.463  -0.062   8.381  0.8822 -0.6374  0.6597
  469MOL0     C61791  -0.562  -0.118   8.272 -0.7522  0.1802 -0.1041
  469MOL0     C61792  -0.706  -0.149   8.324 -0.2127 -0.3097  1.1016
  469MOL0     N61793  -0.776  -0.025   8.333 -0.2335  0.0555 -0.1568
  469MOL0     C61794  -0.817   0.068   8.234  0.0952 -0.4361  1.0904
  469MOL0     C61795  -0.893   0.153   8.302 -0.0462 -0.7582 -0.0429
  469MOL0     C61796  -0.968   0.268   8.240  0.7807 -0.8380 -1.2690
  469MOL0     C61797  -0.877   0.374   8.190 -0.6981 -0.2940  0.4736
  469MOL0     C61798  -0.928   0.470   8.067  0.0459 -0.2426 -0.8591
  469MOL0     C61799  -0.834   0.585   8.034 -0.3865 -0.0830  0.6355
  469MOL0     O61800  -0.891   0.658   7.924  0.7219  0.1203  0.4104
  469MOL0     C61801  -0.796   0.719   7.848 -0.4046  0.9377  0.2090
  469MOL0     C61802  -0.843   0.763   7.725 -0.3886 -0.6552  0.2795
  469MOL0     C61803  -0.760   0.840   7.639 -0.0498 -0.0969  0.0112
  469MOL0     C61804  -0.622   0.858   7.668 -1.0672  0.0534  0.3590
  469MOL0     C61805  -0.516   0.925   7.582  0.7451 -0.0361 -0.2585
  469MOL0     O61806  -0.542   0.950   7.454  0.3323 -0.1840  0.6906
  469MOL0     C61807  -0.487   1.060   7.399  0.7889  0.2685 -0.6223
  469MOL0     C61808  -0.565   1.184   7.402  0.2010  0.3371  0.7176
  469MOL0     C61809  -0.507   1.294   7.336  0.1792  0.0914 -0.2025
  469MOL0     C61810  -0.392   1.291   7.272 -0.9435 -0.2756  0.4778
  469MOL0     O61811  -0.349   1.413   7.222  0.1750  0.0207 -0.1410
  469MOL0     C61812  -0.265   1.411   7.106  0.1810 -0.1166  0.1237
  469MOL0     C61813  -0.132   1.473   7.141  0.6509 -0.0248 -0.3314
  469MOL0     C61814  -0.060   1.488   7.004 -0.4800  0.7409 -0.3662
  469MOL0     C61815   0.009   1.356   6.949 -0.0801  0.7954  0.1226
  469MOL0     C61816   0.141   1.326   7.023  0.2384  0.9811 -1.2145
  469MOL0     C61817   0.215   1.207   6.963 -0.9351 -0.6047  1.0543
  469MOL0     C61818   0.341   1.180   7.043  0.9386  0.6008  0.9279
  469MOL0     C61819   0.428   1.084   6.976 -0.9176 -0.8690  0.2175
  469MOL0    Cl61820   0.339   0.940   6.905  0.6138 -0.0755 -0.4668
  469MOL0     C61821  -0.319   1.175   7.273 -0.0119 -0.4386  0.1411
  469MOL0     C61822  -0.364   1.060   7.332 -0.1634 -0.0927  0.3494
  469MOL0     O61823  -0.414   0.959   7.638 -0.7963 -0.3825  0.2292
  469MOL0     C61824  -0.582   0.805   7.792 -0.5367  0.1893 -0.1997
  469MOL0     C61825  -0.659   0.739   7.883 -0.9290  0.0451 -0.6438
  469MOL0     N61826  -0.908   0.118   8.435 -1.6116 -0.2546  0.4942
  469MOL0     N61827  -0.829   0.014   8.456 -0.3440 -0.5745 -0.4250
  469MOL0     C61828   0.137   0.487   8.181  0.2976  0.5585 -0.5200
  469MOL0     C61829   0.214   0.585   8.123  0.1293 -0.2892 -1.0607
  469MOL0     C61830   0.518   0.845   7.942  0.8713  1.2613  0.0558
  469MOL0     C61831   0.651   0.819   7.973 -0.4161 -0.2149  0.7375
  469MOL0     C61832   0.758   0.893   7.915  0.2230  0.4700  0.4764
  469MOL0     C61833   0.724   1.004   7.840 -0.0650  0.2418  0.1408
  469MOL0     O61834   0.816   1.086   7.774  0.2309  0.2636 -0.0864
  469MOL0     C61835   0.960   1.082   7.774  1.0347 -0.1525  0.1613
  469MOL0     C61836   1.034   1.155   7.892 -0.1245 -0.7666 -0.2713
  469MOL0     C61837   1.183   1.127   7.907 -0.3056  0.5147 -0.0672
  469MOL0     C61838   1.271   1.233   7.847  0.9790  0.3368 -0.5441
  469MOL0     C61839   1.415   1.197   7.846  0.4454  0.4343 -0.2728
  469MOL0     C61840   1.532   1.161   7.829 -0.7954 -0.5617  0.9150
  469MOL0     C61841   0.593   1.044   7.826 -0.5454  0.2379 -0.5239
  469MOL0     C61842   0.489   0.967   7.870 -0.6527  0.1316  0.9094
  469MOL0     H61843   0.493   0.393   8.066 -0.2286 -1.8855  0.9337
  469MOL0     H61844   0.368   0.232   8.173  0.5197  0.9888 -1.1662
  469MOL0     H61845  -0.032   0.226   8.123 -0.7668  0.1275  0.3133
  469MOL0     H61846  -0.084   0.310   8.274 -1.0081 -2.1064  3.8278
  469MOL0     H61847  -0.082   0.063   8.374 -0.4088 -3.7477 -1.0101
  469MOL0     H61848  -0.007   0.017   8.221  0.5492 -0.1736  2.6066
  469MOL0     H61849  -0.215   0.084   8.101 -1.1544 -0.7982 -0.9962
  469MOL0     H61850  -0.293   0.130   8.254 -0.3602 -0.6630  0.7602
  469MOL0     H61851  -0.326  -0.118   8.159 -0.0410  1.2046 -0.6881
  469MOL0     H61852  -0.174  -0.147   8.231  1.1421  0.5031  1.7550
  469MOL0     H61853  -0.265  -0.070   8.454 -0.7941  1.0005  1.5535
  469MOL0     H61854  -0.327  -0.219   8.385  1.6128  0.5005 -0.5564
  469MOL0     H61855  -0.464   0.047   8.376  0.2569 -0.6855 -2.2913
  469MOL0     H61856  -0.500  -0.086   8.481  1.5258  0.1736  1.1096
  469MOL0     H61857  -0.560  -0.047   8.188 -1.7903 -0.1929 -0.4541
  469MOL0     H61858  -0.505  -0.201   8.228  0.9105  1.6648 -0.9218
  469MOL0     H61859  -0.697  -0.212   8.412 -1.0427 -1.6999  0.2375
  469MOL0     H61860  -0.762  -0.205   8.248 -1.3788  1.5978  0.4767
  469MOL0     H61861  -0.781   0.085   8.133  1.2099 -0.3255  1.4896
  469MOL0     H61862  -1.036   0.315   8.312  1.3218  0.2881 -1.4627
  469MOL0     H61863  -1.020   0.231   8.152  1.1296  2.5349 -3.0760
  469MOL0     H61864  -0.786   0.324   8.155 -0.0298  0.6406  0.8114
  469MOL0     H61865  -0.843   0.439   8.272  1.3936 -0.3203 -0.2989
  469MOL0     H61866  -0.940   0.401   7.983 -0.2003 -0.3835 -0.7115
  469MOL0     H61867  -1.033   0.497   8.085 -0.9095 -3.6045 -0.5934
  469MOL0     H61868  -0.744   0.529   8.010  0.4204  0.2998  2.5600
  469MOL0     H61869  -0.815   0.652   8.118  0.3935  0.0986  0.3195
  469MOL0     H61870  -0.946   0.742   7.697 -0.7397  1.0471  0.1781
  469MOL0     H61871  -0.796   0.876   7.544 -1.5343  0.9244  0.9160
  469MOL0     H61872  -0.660   1.185   7.453 -0.3091  2.9113 -0.1328
  469MOL0     H61873  -0.559   1.389   7.341  0.2168  0.0715  0.7726
  469MOL0     H61874  -0.320   1.474   7.035 -1.3094  1.7392  2.7287
  469MOL0     H61875  -0.257   1.312   7.060 -2.0817  0.4384 -1.7091
  469MOL0     H61876  -0.080   1.403   7.207 -0.9333  0.2310  1.2770
  469MOL0     H61877  -0.134   1.567   7.198 -0.8190 -1.0546  1.4373
  469MOL0     H61878   0.013   1.569   7.011 -0.9739  1.0992  0.7898
  469MOL0     H61879  -0.133   1.522   6.929 -2.1036 -2.4210 -0.3926
  469MOL0     H61880  -0.057   1.269   6.954  0.2158  0.6015  0.7077
  469MOL0     H61881   0.036   1.365   6.843 -1.7795 -4.4676 -1.0944
  469MOL0     H61882   0.123   1.317   7.131  2.8442 -0.4017 -0.8020
  469MOL0     H61883   0.189   1.425   7.020  3.1297 -0.2066  1.0965
  469MOL0     H61884   0.258   1.238   6.868  3.9308  1.6065  3.6015
  469MOL0     H61885   0.148   1.121   6.952 -0.2322 -1.4042  2.6596
  469MOL0     H61886   0.399   1.272   7.051  2.1017  0.1158 -1.0707
  469MOL0     H61887   0.313   1.131   7.137  2.4272 -2.1966  0.0432
  469MOL0     H61888   0.502   1.062   7.054  1.7068 -3.7847 -2.7758
  469MOL0     H61889   0.484   1.140   6.901  0.7059 -0.2728  1.8099
  469MOL0     H61890  -0.215   1.170   7.242 -0.2658  0.1683 -0.8841
  469MOL0     H61891  -0.306   0.968   7.330 -0.7791 -0.5246 -2.4159
  469MOL0     H61892  -0.476   0.811   7.816  0.5679 -0.3664 -4.2998
  469MOL0     H61893  -0.610   0.697   7.971 -0.8020  2.6851  0.6423
  469MOL0     H61894   0.031   0.508   8.190 -0.0404 -1.6047  1.3034
  469MOL0     H61895   0.162   0.679   8.108 -0.1491 -0.0766  0.9529
  469MOL0     H61896   0.676   0.730   8.030 -0.5507 -1.0596 -0.4849
  469MOL0     H61897   0.858   0.863   7.944  0.3954  1.3892  0.8852
  469MOL0     H61898   0.986   1.133   7.681 -1.5668  1.8953  0.4545
  469MOL0     H61899   0.979   0.974   7.778 -0.6756 -0.5329 -0.9722
  469MOL0     H61900   1.019   1.262   7.876 -1.5879 -0.9923 -0.5125
  469MOL0     H61901   0.983   1.132   7.986  0.5267 -2.7579 -0.3515
  469MOL0     H61902   1.212   1.026   7.874 -1.3321 -0.5457  2.0297
  469MOL0     H61903   1.207   1.129   8.014  5.8577 -0.5225 -1.0898
  469MOL0     H61904   1.244   1.261   7.745  0.0188  0.9747 -0.1298
  469MOL0     H61905   1.263   1.325   7.906 -1.3257 -0.3063  0.2427
  469MOL0     H61906   1.634   1.133   7.816 -0.3490  0.6781  1.5457
  469MOL0     H61907   0.571   1.140   7.780 -1.6298  0.6896  0.8571
  469MOL0     H61908   0.391   1.001   7.838  0.8406  1.2719 -3.0247
  470MOL0     O61909   6.218   7.756   8.622 -0.3765 -0.0958  0.5947
  470MOL0     C61910   6.326   7.706   8.641 -0.2573 -0.7408 -0.3173
  470MOL0     O61911   6.355   7.605   8.722 -0.0767  0.4722  0.7356
  470MOL0     C61912   6.247   7.533   8.754  0.7891  0.9616 -0.6942
  470MOL0     C61913   6.216   7.412   8.691 -0.1201  0.0660  0.4035
  470MOL0     C61914   6.114   7.331   8.734 -0.0556 -0.2338  0.5699
  470MOL0     C61915   6.024   7.371   8.833  0.5414  0.3151 -0.0852
  470MOL0     O61916   5.924   7.295   8.894 -0.3260  0.0985 -0.0760
  470MOL0     C61917   5.874   7.181   8.821  0.0374  0.3082  0.4018
  470MOL0     C61918   5.754   7.214   8.718 -0.3902 -0.3722  0.2472
  470MOL0     C61919   5.667   7.321   8.768  0.3481 -0.4659 -0.6425
  470MOL0     C61920   5.575   7.269   8.892  0.0858  0.0238  1.1824
  470MOL0     C61921   5.506   7.383   8.957 -0.3070 -0.6660 -0.6966
  470MOL0     C61922   5.414   7.348   9.076  0.6405 -0.4712  0.0921
  470MOL0     C61923   5.273   7.301   9.025 -0.9679  0.2395  0.0047
  470MOL0     C61924   5.161   7.326   9.129 -0.4515 -0.3309  0.3990
  470MOL0     N61925   5.028   7.308   9.066 -0.1560 -0.5405  1.0095
  470MOL0     C61926   4.919   7.389   9.064 -0.8294  0.3433  0.6278
  470MOL0     C61927   4.836   7.323   8.983 -0.0202  0.7484 -0.2088
  470MOL0     C61928   4.704   7.361   8.924 -0.1324 -0.1069 -0.0162
  470MOL0     C61929   4.584   7.269   8.967 -0.4753  0.0223  0.8009
  470MOL0     C61930   4.449   7.289   8.894 -1.1614  1.3862 -0.1871
  470MOL0     C61931   4.371   7.156   8.877 -0.5256 -0.3783 -0.2910
  470MOL0     O61932   4.231   7.199   8.880  0.0004  0.6606  0.1235
  470MOL0     C61933   4.150   7.102   8.832 -0.1068 -0.8732 -0.2550
  470MOL0     C61934   4.078   7.139   8.719 -0.0667  0.2743 -0.1110
  470MOL0     C61935   3.997   7.038   8.654 -0.3029  0.3314 -0.4884
  470MOL0     C61936   3.999   6.901   8.695  0.6656 -0.0381  1.4083
  470MOL0     C61937   3.908   6.802   8.631  0.6668 -0.0400  0.6637
  470MOL0     O61938   3.932   6.677   8.671  0.0785 -0.0644 -0.0951
  470MOL0     C61939   3.886   6.563   8.603  0.4717  0.2929 -0.6734
  470MOL0     C61940   3.746   6.534   8.593  0.4321  0.0594 -0.3753
  470MOL0     C61941   3.709   6.409   8.538  0.3269 -0.6977 -1.4941
  470MOL0     C61942   3.806   6.305   8.528 -0.1001 -0.4094  0.3240
  470MOL0     O61943   3.772   6.173   8.510 -0.1206  0.1597  0.7984
  470MOL0     C61944   3.637   6.141   8.516 -0.3500  1.0859 -0.5824
  470MOL0     C61945   3.640   5.987   8.499 -0.3095 -0.8197 -0.1619
  470MOL0     C61946   3.504   5.918   8.504  0.3717  0.2863  0.5590
  470MOL0     C61947   3.415   5.962   8.386  0.3758  0.5963  0.3719
  470MOL0     C61948   3.319   5.844   8.354 -1.0035  0.0915  1.0055
  470MOL0     C61949   3.257   5.763   8.472  0.0199  0.0281 -0.0824
  470MOL0     C61950   3.148   5.675   8.405  0.7142  0.3193 -0.2894
  470MOL0     C61951   3.072   5.590   8.503 -0.1367 -0.1208 -0.2537
  470MOL0    Cl61952   2.937   5.496   8.434  0.4397 -0.0441  0.4616
  470MOL0     C61953   3.940   6.330   8.559  0.3398  0.8198  0.6911
  470MOL0     C61954   3.984   6.457   8.596  0.4402  0.3702 -0.3090
  470MOL0     O61955   3.834   6.833   8.536 -0.2275  0.1826  0.2300
  470MOL0     C61956   4.073   6.866   8.812 -0.9369 -0.2356  0.4053
  470MOL0     C61957   4.148   6.966   8.876 -0.0469  0.4151  0.2194
  470MOL0     N61958   4.888   7.207   8.937 -0.3574  0.2426  0.1820
  470MOL0     N61959   5.002   7.199   8.988  0.4064 -0.3278 -0.3714
  470MOL0     C61960   6.053   7.490   8.898 -0.5965  0.1251  0.5538
  470MOL0     C61961   6.161   7.571   8.858 -1.1098 -0.0736  0.4983
  470MOL0     C61962   6.427   7.762   8.546  0.0363 -0.3163 -0.1601
  470MOL0     C61963   6.381   7.820   8.426 -1.2323  0.0253  0.0662
  470MOL0     C61964   6.472   7.867   8.336 -0.4105  0.4041  0.0019
  470MOL0     C61965   6.613   7.845   8.361 -0.8180  0.7137 -0.0732
  470MOL0     O61966   6.711   7.859   8.261  0.9060  0.1475  0.3233
  470MOL0     C61967   6.789   7.982   8.286  1.2096 -0.2203  0.2941
  470MOL0     C61968   6.820   8.059   8.162  0.0899  0.5438 -0.2851
  470MOL0     C61969   6.907   7.961   8.077  0.0175  0.3741 -0.1172
  470MOL0     C61970   7.001   8.012   7.964  0.2602  0.2601 -0.3754
  470MOL0     C61971   7.100   8.086   8.034 -0.4929 -0.8563 -0.2684
  470MOL0     C61972   7.192   8.145   8.091 -0.0785  0.6778  0.3082
  470MOL0     C61973   6.650   7.788   8.485 -0.0286 -0.4088  0.0629
  470MOL0     C61974   6.559   7.753   8.581 -0.0880  0.2047  0.0693
  470MOL0     H61975   6.274   7.379   8.605 -1.0859 -0.4399 -0.0769
  470MOL0     H61976   6.104   7.232   8.689 -2.0200  1.0151 -1.9774
  470MOL0     H61977   5.835   7.115   8.899  0.3628 -0.7611 -0.3193
  470MOL0     H61978   5.945   7.111   8.776 -2.4141 -3.6157  2.1207
  470MOL0     H61979   5.698   7.121   8.702 -2.2581  0.8243 -0.6297
  470MOL0     H61980   5.804   7.249   8.628 -0.5873  0.3640  0.4202
  470MOL0     H61981   5.597   7.351   8.690 -0.3033  1.5604  0.6354
  470MOL0     H61982   5.739   7.399   8.794  1.0584 -1.1900 -0.4091
  470MOL0     H61983   5.507   7.195   8.848  0.3979  1.0258 -1.1526
  470MOL0     H61984   5.637   7.216   8.965  0.7309 -2.1047 -0.7710
  470MOL0     H61985   5.444   7.445   8.893 -2.0080 -0.7521  0.7951
  470MOL0     H61986   5.593   7.442   8.987 -0.2567  0.3700 -2.7044
  470MOL0     H61987   5.404   7.431   9.147  0.6746  2.0000 -2.6295
  470MOL0     H61988   5.466   7.272   9.135 -0.0940  1.2170  3.1832
  470MOL0     H61989   5.253   7.351   8.930 -1.7168 -0.7870 -0.3986
  470MOL0     H61990   5.300   7.196   9.010  1.7066  0.6945  0.9753
  470MOL0     H61991   5.174   7.423   9.178  0.7881 -1.7558  3.1173
  470MOL0     H61992   5.170   7.254   9.211  1.2269  0.4489  0.9312
  470MOL0     H61993   4.912   7.479   9.123 -2.0109 -0.4910  1.8454
  470MOL0     H61994   4.712   7.383   8.817 -0.7808  2.6394  0.4196
  470MOL0     H61995   4.671   7.455   8.968  1.8078  1.7009 -2.1209
  470MOL0     H61996   4.571   7.293   9.072  0.4449 -1.2694  1.2510
  470MOL0     H61997   4.633   7.170   8.968  0.7846  0.6188  1.7969
  470MOL0     H61998   4.396   7.359   8.958  1.6301  1.5513  2.1748
  470MOL0     H61999   4.464   7.342   8.800  1.4715  0.7450 -0.2308
  470MOL0     H62000   4.388   7.088   8.961  1.1101 -0.5663 -0.7435
  470MOL0     H62001   4.397   7.109   8.782  0.9112  0.3417 -0.2688
  470MOL0     H62002   4.078   7.235   8.668 -0.4872  0.8040  0.8583
  470MOL0     H62003   3.922   7.066   8.581 -1.3271  0.8593  0.7440
  470MOL0     H62004   3.674   6.610   8.622 -1.7283 -2.9612  3.0311
  470MOL0     H62005   3.602   6.408   8.516 -0.4287  0.6690  1.6007
  470MOL0     H62006   3.569   6.198   8.451 -0.3717  3.3843  1.3244
  470MOL0     H62007   3.599   6.151   8.618  0.8296 -1.6255  0.2086
  470MOL0     H62008   3.698   5.955   8.586 -1.7807  2.5776  2.3168
  470MOL0     H62009   3.695   5.964   8.407 -1.3162  2.6972 -1.8416
  470MOL0     H62010   3.459   5.937   8.602  0.9222  0.6999  0.7409
  470MOL0     H62011   3.526   5.812   8.496 -0.4657  0.2516 -2.7894
  470MOL0     H62012   3.361   6.051   8.417 -3.0704 -1.1618 -0.1379
  470MOL0     H62013   3.484   5.973   8.302 -1.4500 -0.7624 -1.4040
  470MOL0     H62014   3.373   5.770   8.295 -0.2842 -1.3565  3.3195
  470MOL0     H62015   3.239   5.897   8.300  0.3165  1.5455  0.4156
  470MOL0     H62016   3.206   5.832   8.540 -2.1804  0.5793 -2.1565
  470MOL0     H62017   3.328   5.695   8.520 -1.6083 -2.6615 -1.2178
  470MOL0     H62018   3.071   5.738   8.359  1.6184  1.3271 -0.4592
  470MOL0     H62019   3.198   5.616   8.328  1.4508 -0.9096  1.0790
  470MOL0     H62020   3.020   5.654   8.575  0.2293  0.8483 -0.8257
  470MOL0     H62021   3.154   5.527   8.540  0.8000  0.8003 -0.6999
  470MOL0     H62022   4.013   6.251   8.553  0.3936  0.8254  1.2019
  470MOL0     H62023   4.089   6.481   8.609  0.3792  3.1500 -3.7802
  470MOL0     H62024   4.090   6.768   8.856  1.6093 -0.3674 -0.6868
  470MOL0     H62025   4.218   6.940   8.955  0.7094  0.8975 -0.2724
  470MOL0     H62026   5.996   7.523   8.985  0.9205 -0.8431  1.9664
  470MOL0     H62027   6.190   7.665   8.905  1.5457  0.0821 -1.2709
  470MOL0     H62028   6.278   7.833   8.396 -1.6742 -1.5833  0.8014
  470MOL0     H62029   6.428   7.892   8.240  2.6076  0.0393 -1.5938
  470MOL0     H62030   6.890   7.952   8.317  1.2030  0.0011  0.5272
  470MOL0     H62031   6.745   8.048   8.361 -1.2522 -1.7044  0.2567
  470MOL0     H62032   6.733   8.095   8.107  0.3817 -3.2473 -3.7704
  470MOL0     H62033   6.873   8.142   8.209  1.4773 -2.0387  3.2339
  470MOL0     H62034   6.836   7.887   8.039 -2.5689  1.8441  1.5547
  470MOL0     H62035   6.985   7.912   8.136  1.5610  0.0011 -2.3165
  470MOL0     H62036   7.046   7.925   7.915  1.1114  0.1478  0.5637
  470MOL0     H62037   6.938   8.078   7.903  0.2369 -0.6688 -1.3851
  470MOL0     H62038   7.272   8.195   8.142 -1.5166  2.5901  0.8153
  470MOL0     H62039   6.753   7.763   8.509 -0.5695 -3.3202 -0.2663
  470MOL0     H62040   6.597   7.711   8.674 -0.2102 -0.6137 -0.2452
  471MOL0     O62041   6.119   3.787   6.767  0.4493 -0.0174  0.0534
  471MOL0     C62042   6.092   3.781   6.642  1.0108  0.4178  0.2018
  471MOL0     O62043   6.172   3.717   6.544 -0.5727  0.4162  0.2026
  471MOL0     C62044   6.283   3.655   6.581 -0.4491  0.4365 -0.9099
  471MOL0     C62045   6.281   3.517   6.581 -0.0846  0.5022  0.0954
  471MOL0     C62046   6.392   3.442   6.616  0.0072  0.1058  0.5086
  471MOL0     C62047   6.512   3.511   6.639 -0.8816  0.6004 -0.7277
  471MOL0     O62048   6.639   3.460   6.681  0.9987 -0.7569  0.2051
  471MOL0     C62049   6.632   3.344   6.772  0.0130  0.0260  0.2700
  471MOL0     C62050   6.777   3.324   6.816 -0.3793  0.8248  0.3436
  471MOL0     C62051   6.795   3.237   6.942  0.7036 -0.2454  0.3287
  471MOL0     C62052   6.728   3.289   7.070  0.4735  0.2959 -0.5808
  471MOL0     C62053   6.780   3.434   7.117 -0.3477 -0.3419 -0.5044
  471MOL0     C62054   6.923   3.431   7.155 -0.3426 -0.7914  0.3171
  471MOL0     C62055   6.964   3.551   7.232  0.1064  0.1424 -0.3760
  471MOL0     C62056   7.119   3.544   7.269 -0.3042  1.4810 -0.0991
  471MOL0     N62057   7.152   3.672   7.336  0.8517  0.2667 -0.2641
  471MOL0     C62058   7.072   3.730   7.428 -0.3708 -0.2706 -0.5654
  471MOL0     C62059   7.140   3.837   7.465 -1.0841  0.1206 -1.3562
  471MOL0     C62060   7.105   3.918   7.585 -0.3736 -0.1269  0.0236
  471MOL0     C62061   6.960   3.973   7.599 -0.6358 -0.0862 -0.8162
  471MOL0     C62062   6.917   4.029   7.739 -0.1936  0.2344  0.1537
  471MOL0     C62063   6.919   3.936   7.863 -1.0062 -0.1090  0.1857
  471MOL0     O62064   6.828   3.828   7.854 -0.2540 -0.1400  0.8462
  471MOL0     C62065   6.695   3.855   7.889 -0.6921  1.1014 -0.7827
  471MOL0     C62066   6.632   3.977   7.921 -0.1433 -0.5356  0.1096
  471MOL0     C62067   6.493   3.984   7.945 -0.7338 -0.5042  0.3520
  471MOL0     C62068   6.415   3.867   7.936  0.2582  0.3372  1.2092
  471MOL0     C62069   6.270   3.874   7.971 -0.2550  0.6217  0.4122
  471MOL0     O62070   6.204   3.775   7.916  0.3540  0.4409  0.0297
  471MOL0     C62071   6.071   3.762   7.940  0.3975 -0.0207  0.8286
  471MOL0     C62072   6.002   3.789   8.066  0.6263  0.4850  0.8281
  471MOL0     C62073   5.865   3.774   8.077  0.3001  0.6898  0.3332
  471MOL0     C62074   5.784   3.743   7.973  0.3457 -0.0470 -0.2233
  471MOL0     O62075   5.646   3.723   7.970  1.0483  0.0801  0.7485
  471MOL0     C62076   5.559   3.824   8.006 -0.0722  0.3357 -0.1947
  471MOL0     C62077   5.406   3.798   8.010 -0.1213 -0.6363  0.1382
  471MOL0     C62078   5.340   3.760   7.870 -0.1822 -0.2439 -0.2576
  471MOL0     C62079   5.353   3.877   7.773 -0.1061 -0.1083  0.1179
  471MOL0     C62080   5.237   3.908   7.681  1.6905 -0.0900  0.9502
  471MOL0     C62081   5.261   4.042   7.591 -0.0029 -0.7171  0.3411
  471MOL0     C62082   5.151   4.055   7.475  0.9461  0.8151  0.4508
  471MOL0     C62083   5.182   4.177   7.388 -0.2422 -0.1572  0.4858
  471MOL0    Cl62084   5.168   4.321   7.500  0.0160  0.2566  0.2759
  471MOL0     C62085   5.846   3.701   7.855 -0.9882 -0.3434 -0.9175
  471MOL0     C62086   5.989   3.712   7.837  0.3984  1.3626 -0.3989
  471MOL0     O62087   6.223   3.971   8.031  0.5245 -0.2686  0.0208
  471MOL0     C62088   6.477   3.739   7.908 -0.4164 -0.3267  0.4070
  471MOL0     C62089   6.613   3.735   7.887  0.2905  0.1036 -0.0617
  471MOL0     N62090   7.246   3.848   7.376  0.7635  0.2814 -0.3880
  471MOL0     N62091   7.263   3.740   7.309 -0.1949 -0.8452 -0.0904
  471MOL0     C62092   6.509   3.656   6.644  0.2625 -0.5870 -1.0971
  471MOL0     C62093   6.395   3.722   6.607 -1.0216  0.4750 -0.8625
  471MOL0     C62094   5.963   3.830   6.598  0.8511 -0.8756 -0.6506
  471MOL0     C62095   5.865   3.870   6.686 -0.2782 -1.0513  0.3910
  471MOL0     C62096   5.738   3.916   6.642  0.8414  0.3072  0.1628
  471MOL0     C62097   5.700   3.913   6.506 -0.5119  1.1184 -0.4840
  471MOL0     O62098   5.573   3.937   6.463 -0.5163  0.4473 -0.4134
  471MOL0     C62099   5.465   3.866   6.516  0.7330  1.0806 -0.0546
  471MOL0     C62100   5.338   3.952   6.475 -0.5185  1.5103 -0.3520
  471MOL0     C62101   5.218   3.877   6.524  0.5072  0.4214 -0.4930
  471MOL0     C62102   5.090   3.949   6.500 -0.3449  0.7658  0.6392
  471MOL0     C62103   5.100   4.086   6.564  0.6792  0.6125 -0.9100
  471MOL0     C62104   5.094   4.204   6.600  0.4732 -0.2224  0.6476
  471MOL0     C62105   5.796   3.875   6.417 -0.8889  0.1566 -0.4130
  471MOL0     C62106   5.925   3.836   6.459 -0.4720  0.2833 -0.7575
  471MOL0     H62107   6.186   3.464   6.583 -0.2955  0.8911  1.1044
  471MOL0     H62108   6.391   3.334   6.628 -1.0644  0.1740  1.2146
  471MOL0     H62109   6.595   3.260   6.712  0.6100 -0.5862  0.7507
  471MOL0     H62110   6.558   3.361   6.851 -3.5557 -3.1205 -2.0173
  471MOL0     H62111   6.812   3.425   6.839  0.9897  0.4810 -0.1314
  471MOL0     H62112   6.844   3.283   6.739  1.0259  0.9573  1.4566
  471MOL0     H62113   6.900   3.229   6.972  0.1984 -3.2668  1.7259
  471MOL0     H62114   6.755   3.137   6.922  2.0163 -0.4609 -1.5017
  471MOL0     H62115   6.619   3.293   7.059 -0.0757 -2.9036  2.0733
  471MOL0     H62116   6.748   3.226   7.158 -1.0207  1.0163  0.3283
  471MOL0     H62117   6.719   3.460   7.204 -0.3977 -0.2766 -0.5579
  471MOL0     H62118   6.752   3.510   7.044  0.3359  2.5276  2.0086
  471MOL0     H62119   6.977   3.425   7.060 -2.2458  2.7010 -1.1588
  471MOL0     H62120   6.933   3.337   7.211 -0.9312 -0.4365  1.0443
  471MOL0     H62121   6.939   3.648   7.188 -3.1538  1.1511  3.1873
  471MOL0     H62122   6.906   3.543   7.324 -0.5565  3.8519 -0.3179
  471MOL0     H62123   7.167   3.539   7.171 -1.3069  2.9850 -0.7094
  471MOL0     H62124   7.155   3.467   7.338 -0.0396  1.5632 -0.1436
  471MOL0     H62125   6.989   3.682   7.477 -1.1118  0.5858 -0.9420
  471MOL0     H62126   7.167   4.007   7.598  0.9509 -0.9194 -0.6841
  471MOL0     H62127   7.132   3.849   7.667  2.1896 -1.6154 -1.9317
  471MOL0     H62128   6.896   3.887   7.574 -1.7382  1.4545 -3.8588
  471MOL0     H62129   6.946   4.045   7.518 -0.0904  0.2831 -0.5884
  471MOL0     H62130   6.980   4.119   7.746  1.3617 -0.7486 -0.7460
  471MOL0     H62131   6.816   4.069   7.727 -0.8079 -1.4850 -0.7226
  471MOL0     H62132   6.917   3.988   7.959 -0.4265 -1.2017  0.8063
  471MOL0     H62133   7.024   3.907   7.857 -1.8668 -3.4388 -0.7612
  471MOL0     H62134   6.683   4.073   7.926 -2.1557  0.6077 -0.0001
  471MOL0     H62135   6.453   4.081   7.971 -2.8935 -0.9508 -1.0746
  471MOL0     H62136   6.063   3.802   8.155 -0.0667  0.0097  1.3772
  471MOL0     H62137   5.830   3.769   8.180  0.1901  0.4856  0.2870
  471MOL0     H62138   5.580   3.898   7.928 -0.8233  0.5427 -0.2061
  471MOL0     H62139   5.598   3.856   8.103  1.1918  0.4430 -0.7117
  471MOL0     H62140   5.348   3.875   8.060  1.0628 -0.9082  2.0184
  471MOL0     H62141   5.398   3.713   8.078 -3.1086 -0.1446  0.5673
  471MOL0     H62142   5.235   3.732   7.876 -0.9743  2.3855 -0.7570
  471MOL0     H62143   5.386   3.676   7.817  1.1129 -1.9083  3.1688
  471MOL0     H62144   5.365   3.972   7.826  0.9248 -0.3098  0.2638
  471MOL0     H62145   5.436   3.866   7.703 -0.5236  0.7121 -0.5249
  471MOL0     H62146   5.144   3.921   7.737 -0.4122 -0.6051 -2.1463
  471MOL0     H62147   5.214   3.830   7.608 -2.2155  1.4790  0.2562
  471MOL0     H62148   5.361   4.038   7.547  0.3031  1.5944  0.7059
  471MOL0     H62149   5.260   4.126   7.661  0.0380 -1.3293  1.0924
  471MOL0     H62150   5.157   3.963   7.416  1.2179 -0.8757  2.9471
  471MOL0     H62151   5.047   4.077   7.503  1.3756  2.8537  0.5843
  471MOL0     H62152   5.124   4.192   7.296  0.2166  2.1724  0.5209
  471MOL0     H62153   5.281   4.167   7.342 -1.0770 -0.3827 -1.3858
  471MOL0     H62154   5.791   3.648   7.778  3.7159 -4.3269 -2.1065
  471MOL0     H62155   6.014   3.668   7.741  0.9772 -1.6971  1.0245
  471MOL0     H62156   6.430   3.642   7.903  0.5992 -0.7790 -2.6349
  471MOL0     H62157   6.667   3.641   7.879  2.3551  1.2827 -0.8824
  471MOL0     H62158   6.606   3.701   6.664  0.2552 -0.7983 -0.5838
  471MOL0     H62159   6.391   3.830   6.603  2.5038  0.8148  0.6424
  471MOL0     H62160   5.885   3.861   6.793  0.0329  1.1632  0.5628
  471MOL0     H62161   5.665   3.946   6.715  0.3325 -0.2580 -0.1024
  471MOL0     H62162   5.466   3.856   6.625  4.5574  0.8079  0.0270
  471MOL0     H62163   5.464   3.764   6.475 -0.2107  0.2897  1.8510
  471MOL0     H62164   5.334   4.049   6.525 -2.8693  1.6750 -0.7185
  471MOL0     H62165   5.327   3.957   6.367 -1.3208 -1.5193 -0.5145
  471MOL0     H62166   5.226   3.852   6.630  3.8470  0.5768 -0.5872
  471MOL0     H62167   5.224   3.785   6.464  0.1026  0.5949 -0.8103
  471MOL0     H62168   5.073   3.968   6.394  3.6121  0.6710 -0.1625
  471MOL0     H62169   5.017   3.882   6.547  0.5890 -0.8740 -0.1624
  471MOL0     H62170   5.094   4.299   6.649 -0.8474 -1.6514  3.7044
  471MOL0     H62171   5.771   3.870   6.311  1.4935  1.2528 -1.1096
  471MOL0     H62172   6.008   3.799   6.400  0.5223 -0.6013  1.1070
  472MOL0     O62173   2.349   6.430  10.966 -0.8523  0.3627  0.0296
  472MOL0     C62174   2.354   6.441  10.842 -0.1450 -0.1734  0.9889
  472MOL0     O62175   2.265   6.380  10.751  0.9055  0.5088 -0.7098
  472MOL0     C62176   2.144   6.336  10.793  0.9092  0.9469  0.6183
  472MOL0     C62177   2.081   6.236  10.725 -0.7522  0.0564  0.3836
  472MOL0     C62178   1.960   6.177  10.759  0.4608  0.7906  0.1691
  472MOL0     C62179   1.890   6.228  10.868 -0.3259 -0.2167  0.7552
  472MOL0     O62180   1.768   6.172  10.896 -0.2784 -0.1401 -0.7108
  472MOL0     C62181   1.796   6.040  10.944 -0.4941 -0.1192 -1.1113
  472MOL0     C62182   1.707   5.932  10.891  0.7703 -0.1422  0.2600
  472MOL0     C62183   1.551   5.945  10.926  0.7717  1.0513 -0.1190
  472MOL0     C62184   1.470   5.833  10.873  0.3454  0.0142  0.0819
  472MOL0     C62185   1.325   5.877  10.835  0.3271 -0.4247  0.1588
  472MOL0     C62186   1.251   5.762  10.785  0.3050  0.4285 -0.6447
  472MOL0     C62187   1.114   5.799  10.734  0.6134  0.5630 -0.4672
  472MOL0     C62188   1.111   5.906  10.626  0.3483 -0.5084  1.0789
  472MOL0     N62189   0.974   5.899  10.563 -0.8084 -0.8450 -0.0698
  472MOL0     C62190   0.955   5.829  10.450 -0.6448 -0.5984  0.3487
  472MOL0     C62191   0.826   5.844  10.415 -0.2147  0.6268 -0.2224
  472MOL0     C62192   0.755   5.786  10.301  0.7431  0.1141 -0.5340
  472MOL0     C62193   0.641   5.690  10.337 -0.1212 -0.8231  0.6615
  472MOL0     C62194   0.541   5.742  10.436 -0.2707  0.3838 -0.1905
  472MOL0     C62195   0.418   5.657  10.451 -0.2161  0.7787  0.1332
  472MOL0     O62196   0.465   5.524  10.482 -0.3598  0.1692  0.2111
  472MOL0     C62197   0.409   5.414  10.431  0.4989  0.2294  0.2472
  472MOL0     C62198   0.278   5.404  10.373  0.3381  0.1606 -0.6818
  472MOL0     C62199   0.232   5.281  10.318 -0.2095 -0.6576 -0.7449
  472MOL0     C62200   0.317   5.169  10.320  0.0445 -0.0292 -0.6690
  472MOL0     C62201   0.250   5.034  10.290 -1.2238 -0.0430 -0.0636
  472MOL0     O62202   0.131   5.023  10.227 -0.1072  0.7271  0.2788
  472MOL0     C62203   0.061   4.905  10.238 -0.6153 -0.8991 -0.0738
  472MOL0     C62204   0.078   4.793  10.157 -0.4757 -0.3636  0.1988
  472MOL0     C62205   0.014   4.681  10.193  1.2545  1.0566  0.0229
  472MOL0     C62206  -0.061   4.667  10.313  0.2458 -0.6066  0.2064
  472MOL0     O62207  -0.137   4.561  10.348 -0.3707  0.2850 -0.3252
  472MOL0     C62208  -0.186   4.476  10.242  0.2562  0.5625 -0.4637
  472MOL0     C62209  -0.317   4.402  10.284 -1.1139 -0.1890  0.3365
  472MOL0     C62210  -0.348   4.283  10.203  0.3025  0.1369  1.1247
  472MOL0     C62211  -0.489   4.220  10.236  0.0650 -0.1276 -0.9818
  472MOL0     C62212  -0.537   4.127  10.119  0.2798  0.2469 -0.6591
  472MOL0     C62213  -0.661   4.042  10.169  0.1211  0.6906 -0.6779
  472MOL0     C62214  -0.716   3.971  10.039  0.4048  0.4309  0.3139
  472MOL0     C62215  -0.845   3.897  10.063  0.4757  0.7029  0.3524
  472MOL0    Cl62216  -0.890   3.830   9.903  0.1614  0.1714 -0.0574
  472MOL0     C62217  -0.081   4.784  10.389 -1.0278  0.4103  0.4768
  472MOL0     C62218  -0.015   4.897  10.350 -0.0298 -0.4599 -0.3081
  472MOL0     O62219   0.310   4.934  10.331  0.7856 -0.6527 -0.0765
  472MOL0     C62220   0.446   5.178  10.370  0.1794 -0.5147  0.4706
  472MOL0     C62221   0.486   5.301  10.429 -0.6181 -0.7127  0.7514
  472MOL0     N62222   0.769   5.927  10.510 -0.3342 -0.2109 -0.0183
  472MOL0     N62223   0.860   5.970  10.586 -0.6353 -0.6017 -0.9340
  472MOL0     C62224   1.944   6.340  10.938 -0.4904  0.0367  0.0923
  472MOL0     C62225   2.067   6.398  10.894  0.7445  0.4376 -0.0444
  472MOL0     C62226   2.443   6.537  10.781 -0.2060 -1.2194 -0.7096
  472MOL0     C62227   2.550   6.586  10.856 -1.5541 -0.3887 -0.4772
  472MOL0     C62228   2.643   6.674  10.803  0.1739 -0.6959  0.5536
  472MOL0     C62229   2.630   6.720  10.671  0.2697 -0.0871  0.6383
  472MOL0     O62230   2.718   6.807  10.612 -0.1483 -0.2133 -0.3958
  472MOL0     C62231   2.762   6.917  10.694 -0.7676 -0.5286 -0.3673
  472MOL0     C62232   2.647   7.011  10.736  0.0852  0.0333 -0.5790
  472MOL0     C62233   2.711   7.123  10.833  0.0133 -0.1228  0.0907
  472MOL0     C62234   2.618   7.187  10.931 -1.0705 -0.9797  0.2498
  472MOL0     C62235   2.579   7.105  11.046 -0.4104  0.6654 -0.3940
  472MOL0     C62236   2.557   7.040  11.150  0.7623 -0.4156  0.6706
  472MOL0     C62237   2.522   6.670  10.595  0.1078 -0.1410  0.1291
  472MOL0     C62238   2.431   6.581  10.647 -0.3923 -0.0435  0.2076
  472MOL0     H62239   2.128   6.186  10.640 -2.9139 -1.0392 -0.2528
  472MOL0     H62240   1.934   6.097  10.691  0.2391  1.6260 -0.7565
  472MOL0     H62241   1.770   6.037  11.050 -3.4264 -1.5026 -1.7654
  472MOL0     H62242   1.901   6.016  10.924 -0.3702  0.4798 -1.2097
  472MOL0     H62243   1.736   5.829  10.916  1.1520  0.1926  1.2517
  472MOL0     H62244   1.720   5.941  10.783  0.7297  0.3885  0.2986
  472MOL0     H62245   1.521   6.035  10.871  1.6421 -0.1299 -2.6469
  472MOL0     H62246   1.529   5.957  11.032 -0.3816 -0.1216 -0.2150
  472MOL0     H62247   1.522   5.792  10.785 -1.2559 -2.3512  0.1488
  472MOL0     H62248   1.455   5.763  10.955  2.1700 -3.2246 -2.1081
  472MOL0     H62249   1.323   5.958  10.762  1.5154  0.5148  1.1198
  472MOL0     H62250   1.280   5.916  10.927 -1.0579 -2.2745  0.3265
  472MOL0     H62251   1.246   5.684  10.862  3.8519  0.7431  0.1149
  472MOL0     H62252   1.308   5.711  10.707  1.5015 -0.0140  0.4637
  472MOL0     H62253   1.058   5.712  10.699  1.5900 -1.1613  1.9973
  472MOL0     H62254   1.060   5.837  10.821  1.0977 -0.0657  0.1215
  472MOL0     H62255   1.185   5.883  10.548 -1.1301 -3.0420  0.2983
  472MOL0     H62256   1.120   6.003  10.676 -3.0719 -0.1872  1.3246
  472MOL0     H62257   1.025   5.780  10.383 -0.3027  0.2570  0.0575
  472MOL0     H62258   0.838   5.742  10.245  1.7028 -0.0048  0.9193
  472MOL0     H62259   0.715   5.872  10.248 -0.4647  0.6516  1.1550
  472MOL0     H62260   0.702   5.610  10.379 -0.7313 -0.5801  2.0431
  472MOL0     H62261   0.595   5.670  10.240  1.6308 -0.9323 -0.1978
  472MOL0     H62262   0.585   5.734  10.535  0.3593 -1.2608 -0.5747
  472MOL0     H62263   0.520   5.843  10.398 -0.3989 -0.0294 -1.2566
  472MOL0     H62264   0.376   5.658  10.350  1.1153  1.1908 -0.4451
  472MOL0     H62265   0.366   5.711  10.531  0.4173  0.4946  0.7563
  472MOL0     H62266   0.221   5.496  10.380 -0.0467 -0.1346  0.2276
  472MOL0     H62267   0.132   5.267  10.277 -0.3067  2.7626 -1.9151
  472MOL0     H62268   0.142   4.798  10.070  3.9911 -3.4755  2.8862
  472MOL0     H62269   0.018   4.592  10.130 -2.0088  0.5787  0.3024
  472MOL0     H62270  -0.108   4.404  10.214 -1.9845 -1.3945 -2.0420
  472MOL0     H62271  -0.206   4.543  10.158  2.2286  2.2979  0.3682
  472MOL0     H62272  -0.397   4.477  10.282 -0.8249  0.1151  0.0992
  472MOL0     H62273  -0.296   4.367  10.386 -3.4559  1.0662  1.3415
  472MOL0     H62274  -0.269   4.208  10.214 -0.5707 -1.2256 -1.1495
  472MOL0     H62275  -0.352   4.314  10.098  2.3986 -0.9457  0.6690
  472MOL0     H62276  -0.479   4.170  10.333  1.9595  1.8473 -0.0565
  472MOL0     H62277  -0.560   4.302  10.252  1.1396  0.3415  2.2253
  472MOL0     H62278  -0.454   4.059  10.096  0.8098  0.3793  0.7957
  472MOL0     H62279  -0.561   4.179  10.026 -1.8467 -1.7645 -1.3575
  472MOL0     H62280  -0.730   4.115  10.210  1.3287 -0.3370  3.6626
  472MOL0     H62281  -0.630   3.963  10.239 -2.4805 -0.5431 -0.8082
  472MOL0     H62282  -0.722   4.040   9.955 -0.6427  0.0346  0.0495
  472MOL0     H62283  -0.630   3.913  10.003  1.7706  1.7823  1.2691
  472MOL0     H62284  -0.932   3.954  10.096 -0.3999 -2.0960  3.4954
  472MOL0     H62285  -0.825   3.824  10.142  1.7571  0.8557  0.2006
  472MOL0     H62286  -0.129   4.784  10.487  1.3586 -0.6903  1.7350
  472MOL0     H62287  -0.032   4.993  10.396  1.5534  0.6605 -1.9185
  472MOL0     H62288   0.516   5.095  10.375 -1.4600 -1.8985  1.8308
  472MOL0     H62289   0.574   5.306  10.493 -2.4435 -2.4575  3.6430
  472MOL0     H62290   1.888   6.366  11.027 -0.3160 -2.9445  1.1784
  472MOL0     H62291   2.110   6.480  10.951  2.9696  1.1724 -2.5848
  472MOL0     H62292   2.567   6.536  10.951 -0.4673 -2.4589 -1.6706
  472MOL0     H62293   2.725   6.714  10.861 -1.4656 -0.0784  2.5617
  472MOL0     H62294   2.823   6.975  10.624 -0.9348 -1.6188 -1.4680
  472MOL0     H62295   2.836   6.895  10.771  1.3417  1.9239 -1.5449
  472MOL0     H62296   2.601   7.057  10.649  0.8807  4.6326  1.1803
  472MOL0     H62297   2.577   6.950  10.794 -0.2157  1.3698  0.5134
  472MOL0     H62298   2.748   7.203  10.768  0.7838 -0.0772  0.5692
  472MOL0     H62299   2.792   7.075  10.890  0.4336  1.5682  1.0030
  472MOL0     H62300   2.661   7.274  10.982 -1.4573 -0.8866  0.4220
  472MOL0     H62301   2.536   7.226  10.870  1.0521  1.4017 -1.2682
  472MOL0     H62302   2.538   6.987  11.242  2.4800 -0.1159  1.2319
  472MOL0     H62303   2.514   6.710  10.494  0.5570  1.7912  0.8253
  472MOL0     H62304   2.357   6.552  10.574  0.1121  2.6435 -1.5427
  473MOL0     O62305   8.249   1.729   6.237 -0.1873 -1.2099  0.7261
  473MOL0     C62306   8.257   1.724   6.118 -0.7368  0.5220  0.5388
  473MOL0     O62307   8.153   1.696   6.026 -0.7303  0.4691 -0.5410
  473MOL0     C62308   8.024   1.647   6.063 -1.0917 -1.1375  0.1314
  473MOL0     C62309   7.944   1.642   5.943 -0.0509  0.3345 -0.9056
  473MOL0     C62310   7.818   1.592   5.943  0.1186  0.3272  0.2930
  473MOL0     C62311   7.764   1.552   6.065  0.7180  0.5451 -0.1905
  473MOL0     O62312   7.645   1.489   6.061  0.9790 -0.2727 -0.0938
  473MOL0     C62313   7.545   1.547   6.152  0.5145 -0.8476  0.8883
  473MOL0     C62314   7.403   1.504   6.097 -0.0014  0.5599 -1.1350
  473MOL0     C62315   7.290   1.545   6.205 -0.1135 -0.6056  0.6628
  473MOL0     C62316   7.231   1.440   6.295 -0.3207  0.7657  0.2638
  473MOL0     C62317   7.087   1.404   6.244  0.9389 -0.1213  0.8304
  473MOL0     C62318   7.097   1.313   6.120 -0.6901 -0.4195 -1.1390
  473MOL0     C62319   6.953   1.291   6.065 -0.2933 -0.3924 -0.7814
  473MOL0     C62320   6.955   1.189   5.950 -0.2968  0.1370  0.6500
  473MOL0     N62321   7.067   1.163   5.856  0.3601 -0.3070  0.0366
  473MOL0     C62322   7.119   1.260   5.774 -0.8427  0.2519  0.8732
  473MOL0     C62323   7.219   1.192   5.710  0.2827 -0.5845  0.0806
  473MOL0     C62324   7.290   1.253   5.592 -0.2093  0.2410 -0.4537
  473MOL0     C62325   7.418   1.182   5.551 -0.4538  0.4368 -0.8759
  473MOL0     C62326   7.527   1.213   5.654 -0.3609 -0.2200 -0.4719
  473MOL0     C62327   7.548   1.358   5.689 -0.8415 -0.3200 -0.0302
  473MOL0     O62328   7.575   1.436   5.570 -0.4035  0.0758  0.5181
  473MOL0     C62329   7.678   1.523   5.583  0.8978 -0.0993  0.6561
  473MOL0     C62330   7.654   1.659   5.622 -0.3978  0.0396 -0.0225
  473MOL0     C62331   7.757   1.746   5.625 -0.9213  0.4144  0.1741
  473MOL0     C62332   7.890   1.707   5.589 -0.0523 -0.0016 -0.0232
  473MOL0     C62333   8.001   1.809   5.604  0.2075  0.7330 -0.0562
  473MOL0     O62334   7.958   1.935   5.639  0.1689 -1.3231  0.3071
  473MOL0     C62335   8.047   2.046   5.655 -0.0807  0.9172 -0.2598
  473MOL0     C62336   8.181   2.043   5.683 -0.5133  0.9545 -0.3880
  473MOL0     C62337   8.259   2.152   5.711  1.3122 -0.3933  0.6183
  473MOL0     C62338   8.189   2.276   5.709 -0.7539 -0.3613  0.6253
  473MOL0     O62339   8.270   2.389   5.724  0.7094  0.7054 -0.7283
  473MOL0     C62340   8.250   2.492   5.622 -1.2368  0.4138 -0.8035
  473MOL0     C62341   8.387   2.554   5.600  0.1102 -0.4626  0.0169
  473MOL0     C62342   8.393   2.656   5.486  0.1047 -0.7775  0.3059
  473MOL0     C62343   8.488   2.769   5.523 -0.3633 -0.2563 -0.8710
  473MOL0     C62344   8.430   2.869   5.621  0.3072 -0.4639  0.2821
  473MOL0     C62345   8.330   2.965   5.549  1.0768 -0.3989 -0.9078
  473MOL0     C62346   8.284   3.078   5.646  0.2092  0.6725 -0.2465
  473MOL0     C62347   8.128   3.094   5.633  0.6089  0.3007  0.1073
  473MOL0    Cl62348   8.098   3.191   5.490  0.3486 -0.4266 -0.2554
  473MOL0     C62349   8.052   2.284   5.684 -0.4477  0.4648 -0.2772
  473MOL0     C62350   7.985   2.170   5.657 -0.6093  0.5619 -0.2473
  473MOL0     O62351   8.116   1.765   5.603 -0.6949 -0.3796 -0.0487
  473MOL0     C62352   7.909   1.569   5.569 -0.5038  0.3405  0.1381
  473MOL0     C62353   7.808   1.475   5.560 -0.1496  0.4813  0.9858
  473MOL0     N62354   7.223   1.063   5.761 -0.7364 -0.3312  0.0076
  473MOL0     N62355   7.127   1.048   5.845 -0.6765 -0.6640  0.5205
  473MOL0     C62356   7.836   1.559   6.190  0.4308  0.1363  0.2195
  473MOL0     C62357   7.969   1.615   6.184  0.0432 -0.1987  0.1040
  473MOL0     C62358   8.384   1.756   6.050 -0.2617  0.0886  0.5528
  473MOL0     C62359   8.391   1.781   5.914 -0.1968 -0.1700  0.5681
  473MOL0     C62360   8.522   1.815   5.863  0.0953  0.2752 -0.1146
  473MOL0     C62361   8.642   1.798   5.935  1.3832  0.2471 -0.0361
  473MOL0     O62362   8.773   1.808   5.881  0.8186 -0.1695  0.3072
  473MOL0     C62363   8.780   1.861   5.746  0.3938  0.8766  0.0375
  473MOL0     C62364   8.919   1.896   5.707  0.7442  0.5509  0.7364
  473MOL0     C62365   8.940   1.954   5.563  0.1197 -0.1629  0.1349
  473MOL0     C62366   9.090   1.991   5.542  0.4670 -0.4084 -0.1121
  473MOL0     C62367   9.193   1.878   5.555  1.0342 -0.1582  0.2894
  473MOL0     C62368   9.266   1.782   5.577 -0.7468 -0.3022 -0.5455
  473MOL0     C62369   8.620   1.773   6.073 -0.8045  0.0550  0.5556
  473MOL0     C62370   8.494   1.741   6.126 -0.4217 -0.3719 -0.1416
  473MOL0     H62371   7.998   1.672   5.854 -0.1440 -1.0591 -1.4600
  473MOL0     H62372   7.762   1.575   5.852 -1.4448 -0.1135  1.2880
  473MOL0     H62373   7.546   1.656   6.163 -0.4107 -0.7251 -0.0045
  473MOL0     H62374   7.565   1.512   6.253  1.9351  2.0315  1.7377
  473MOL0     H62375   7.396   1.395   6.088 -0.6142  0.2846  1.7712
  473MOL0     H62376   7.387   1.545   5.996  0.1612 -0.6425 -1.6648
  473MOL0     H62377   7.219   1.604   6.146  1.2090 -0.7719 -1.1725
  473MOL0     H62378   7.338   1.620   6.269  1.6581 -3.0108  2.2800
  473MOL0     H62379   7.295   1.351   6.297  0.0818  0.8834 -2.7023
  473MOL0     H62380   7.233   1.477   6.398  0.4738 -1.0458  0.9452
  473MOL0     H62381   7.031   1.498   6.238  1.0615  0.0883  2.6242
  473MOL0     H62382   7.036   1.348   6.322 -0.4646  0.8089  0.6266
  473MOL0     H62383   7.153   1.221   6.140  2.3204  0.0958 -5.6633
  473MOL0     H62384   7.160   1.358   6.042  0.9173 -3.7253 -1.9298
  473MOL0     H62385   6.888   1.259   6.147  0.7806  0.5504  0.4859
  473MOL0     H62386   6.913   1.384   6.024 -4.0449 -0.7228  1.6236
  473MOL0     H62387   6.867   1.209   5.888 -1.2359  0.1294  1.9394
  473MOL0     H62388   6.932   1.090   5.990 -1.3496  0.5562  1.1055
  473MOL0     H62389   7.085   1.357   5.739  1.5631 -0.1677 -3.3736
  473MOL0     H62390   7.313   1.359   5.609  2.9088 -0.1734 -1.5214
  473MOL0     H62391   7.219   1.267   5.510 -2.0545 -3.1104  0.3812
  473MOL0     H62392   7.463   1.215   5.457  0.9694 -0.1558 -0.4298
  473MOL0     H62393   7.406   1.073   5.553  1.6457  0.1864 -0.1125
  473MOL0     H62394   7.520   1.152   5.744  2.4620 -1.4806 -0.9797
  473MOL0     H62395   7.617   1.179   5.602  0.2421  0.6989 -0.0657
  473MOL0     H62396   7.642   1.354   5.745 -0.3787 -0.9364 -0.8378
  473MOL0     H62397   7.465   1.410   5.738 -0.4356 -0.6922  1.0894
  473MOL0     H62398   7.559   1.694   5.661  1.5920  1.5184  4.0721
  473MOL0     H62399   7.731   1.849   5.647 -5.6134 -0.4946 -0.1650
  473MOL0     H62400   8.231   1.948   5.667  1.6247  1.8197  0.7769
  473MOL0     H62401   8.366   2.163   5.726  1.3781 -1.6644  1.2609
  473MOL0     H62402   8.172   2.565   5.645 -0.2319  0.6084  2.6350
  473MOL0     H62403   8.229   2.450   5.523 -0.9192 -2.3242  0.1981
  473MOL0     H62404   8.444   2.464   5.576 -2.2927 -3.0330  3.0288
  473MOL0     H62405   8.419   2.593   5.697 -2.0797  0.1943  0.5225
  473MOL0     H62406   8.296   2.704   5.474 -0.6317 -1.5015  2.7713
  473MOL0     H62407   8.415   2.602   5.394 -1.1934 -1.4160  0.3522
  473MOL0     H62408   8.565   2.714   5.578 -1.3837  0.0136  0.8722
  473MOL0     H62409   8.542   2.813   5.438 -0.3184 -1.4931 -1.4989
  473MOL0     H62410   8.511   2.937   5.648 -0.0119  0.0644 -0.0772
  473MOL0     H62411   8.384   2.825   5.710 -2.7939 -2.1617 -1.9908
  473MOL0     H62412   8.250   2.910   5.498  1.1711 -0.5453 -0.9008
  473MOL0     H62413   8.375   2.998   5.455  1.2478 -1.0613 -1.0707
  473MOL0     H62414   8.319   3.045   5.744  2.9932 -1.0673 -1.7091
  473MOL0     H62415   8.347   3.163   5.616 -0.2020  0.7550 -0.8839
  473MOL0     H62416   8.087   3.152   5.716 -1.3050  0.8337 -1.1530
  473MOL0     H62417   8.074   2.999   5.636  1.7075 -0.3454  0.0691
  473MOL0     H62418   7.993   2.374   5.672  0.3823  1.4954  2.6247
  473MOL0     H62419   7.879   2.188   5.642 -0.4382  0.4654 -1.7990
  473MOL0     H62420   8.014   1.542   5.563 -0.1013  2.0650 -1.3110
  473MOL0     H62421   7.812   1.367   5.550 -1.5585  0.4043  1.0690
  473MOL0     H62422   7.796   1.510   6.278  0.6963  1.2178  0.9618
  473MOL0     H62423   8.024   1.615   6.277 -2.9189  0.2650  2.0039
  473MOL0     H62424   8.306   1.783   5.847 -0.6701 -1.6564  1.0742
  473MOL0     H62425   8.541   1.833   5.758  3.6877 -2.5657 -0.1347
  473MOL0     H62426   8.715   1.948   5.732  0.5322  1.2690  1.5461
  473MOL0     H62427   8.744   1.784   5.678  1.7535  2.8294 -3.0953
  473MOL0     H62428   8.959   1.970   5.777  0.7705  0.0610  1.2501
  473MOL0     H62429   8.970   1.801   5.728 -1.6421 -0.4397  2.6560
  473MOL0     H62430   8.892   2.052   5.561 -0.6585 -0.5029  1.0162
  473MOL0     H62431   8.899   1.893   5.482  0.5616 -1.1382  0.6256
  473MOL0     H62432   9.114   2.045   5.450  1.6855 -0.4409  0.1598
  473MOL0     H62433   9.121   2.052   5.628  0.0788  0.6146 -0.6719
  473MOL0     H62434   9.326   1.696   5.598  1.4868  0.9666 -1.3721
  473MOL0     H62435   8.710   1.751   6.129 -0.5498  0.3297  0.2567
  473MOL0     H62436   8.493   1.710   6.230 -1.7197  1.0362  0.2948
  474MOL0     O62437  10.732   0.538   4.509 -0.2210 -0.0611 -0.5630
  474MOL0     C62438  10.739   0.607   4.606 -0.9096 -0.1748  0.6301
  474MOL0     O62439  10.663   0.597   4.718  0.0280 -1.0687 -0.0535
  474MOL0     C62440  10.565   0.507   4.729 -0.1541 -2.1461 -0.2314
  474MOL0     C62441  10.469   0.535   4.819 -0.2616  0.1063 -0.1896
  474MOL0     C62442  10.359   0.457   4.844 -0.1698  0.9763 -1.3538
  474MOL0     C62443  10.344   0.331   4.784  0.3326 -0.3353 -0.0423
  474MOL0     O62444  10.218   0.271   4.803 -0.7379 -0.3405  0.7875
  474MOL0     C62445  10.226   0.125   4.779 -0.0306  0.1287  0.6672
  474MOL0     C62446  10.082   0.083   4.749 -0.2593 -0.2906 -0.0148
  474MOL0     C62447  10.078  -0.062   4.773  0.8143  0.6945  1.3397
  474MOL0     C62448   9.947  -0.117   4.726  0.6607  0.9276 -1.6710
  474MOL0     C62449   9.939  -0.275   4.722  0.7155 -0.4231 -1.1023
  474MOL0     C62450   9.928  -0.343   4.860  0.3515 -0.6134 -0.3017
  474MOL0     C62451   9.982  -0.491   4.864  0.3953 -0.5870 -0.5636
  474MOL0     C62452   9.957  -0.560   4.998  0.4984 -0.7975 -0.4312
  474MOL0     N62453   9.820  -0.557   5.036  0.1605 -0.1107  0.5843
  474MOL0     C62454   9.711  -0.603   4.957  0.4459 -0.2948 -0.9252
  474MOL0     C62455   9.598  -0.584   5.038 -0.5314 -0.0858 -1.1327
  474MOL0     C62456   9.458  -0.615   4.986  0.9722  0.1994  0.5580
  474MOL0     C62457   9.403  -0.499   4.884  0.1381  0.8800  0.1611
  474MOL0     C62458   9.269  -0.526   4.809 -0.2009  0.2332 -0.3984
  474MOL0     C62459   9.151  -0.497   4.901 -1.0298 -0.0282 -0.4280
  474MOL0     O62460   9.028  -0.521   4.839 -0.6621 -0.2845  1.1443
  474MOL0     C62461   8.911  -0.487   4.906 -0.7169  0.9617 -0.0994
  474MOL0     C62462   8.898  -0.537   5.034 -0.0966  0.4257 -0.7403
  474MOL0     C62463   8.776  -0.510   5.097 -0.0138 -0.2367  0.2820
  474MOL0     C62464   8.667  -0.450   5.040  0.6009 -0.1477 -0.4436
  474MOL0     C62465   8.540  -0.449   5.125 -0.5540 -0.3114 -0.4153
  474MOL0     O62466   8.534  -0.537   5.228  0.1540  0.7784 -0.8892
  474MOL0     C62467   8.424  -0.558   5.311  0.2608 -0.1896 -0.3357
  474MOL0     C62468   8.297  -0.504   5.301 -0.1732 -0.2058  0.5311
  474MOL0     C62469   8.191  -0.543   5.383 -0.5025  0.2431 -0.8296
  474MOL0     C62470   8.220  -0.627   5.494  0.4707 -0.1375  0.3335
  474MOL0     O62471   8.120  -0.665   5.583 -0.0527  0.6152 -0.7156
  474MOL0     C62472   8.137  -0.644   5.721  0.7364  1.1537 -0.4245
  474MOL0     C62473   8.077  -0.766   5.791  0.6140  0.4094 -0.9677
  474MOL0     C62474   8.088  -0.741   5.945 -0.4466  0.3732  0.4576
  474MOL0     C62475   8.029  -0.864   6.023 -0.6106 -0.3874 -0.7621
  474MOL0     C62476   8.040  -0.832   6.171  0.3694 -0.4722 -0.1146
  474MOL0     C62477   8.181  -0.831   6.222  0.1130  1.3271  0.2078
  474MOL0     C62478   8.241  -0.975   6.222 -0.6613 -0.3824  0.6248
  474MOL0     C62479   8.352  -0.997   6.326  1.0600  0.0293 -0.4346
  474MOL0    Cl62480   8.275  -0.996   6.482 -0.5771 -0.4594  0.1931
  474MOL0     C62481   8.351  -0.677   5.506 -0.7661 -0.0168  0.4532
  474MOL0     C62482   8.451  -0.651   5.411 -0.1471  0.3420 -0.1087
  474MOL0     O62483   8.456  -0.375   5.087  0.2587  0.6429  0.2624
  474MOL0     C62484   8.683  -0.399   4.906  0.8123  0.5333  0.1390
  474MOL0     C62485   8.808  -0.422   4.841 -0.0063  0.2547 -0.5971
  474MOL0     N62486   9.654  -0.540   5.166 -0.2509 -0.0259  0.6811
  474MOL0     N62487   9.777  -0.514   5.155 -0.2261  0.5602  0.4583
  474MOL0     C62488  10.455   0.283   4.703 -1.0589  0.2109 -0.0325
  474MOL0     C62489  10.558   0.377   4.681  0.0712 -0.7272  0.9178
  474MOL0     C62490  10.858   0.696   4.626  0.1608  0.4762  1.0209
  474MOL0     C62491  10.976   0.680   4.549 -1.1889 -1.2263 -0.2213
  474MOL0     C62492  11.075   0.779   4.568  0.6598  0.4990  0.0926
  474MOL0     C62493  11.073   0.874   4.672  0.3511  0.5130  0.3474
  474MOL0     O62494  11.174   0.968   4.681  0.4938  0.0390  0.3249
  474MOL0     C62495  11.154   1.085   4.600  0.5049 -0.3244 -0.4178
  474MOL0     C62496  11.227   1.060   4.476 -0.0738  0.6941 -1.1959
  474MOL0     C62497  11.226   1.184   4.387 -0.2439 -0.2445 -0.0584
  474MOL0     C62498  11.307   1.154   4.257  0.6477  0.3926 -0.4227
  474MOL0     C62499  11.359   1.274   4.201  0.8898  0.3388 -0.1940
  474MOL0     C62500  11.417   1.363   4.143 -0.8199  0.2716  0.5129
  474MOL0     C62501  10.952   0.896   4.733 -0.6551 -0.4836 -0.8102
  474MOL0     C62502  10.846   0.805   4.714  1.2099  0.8062  0.9509
  474MOL0     H62503  10.467   0.629   4.874  0.3936  1.3369 -2.1781
  474MOL0     H62504  10.280   0.496   4.908  0.5268  2.5736 -1.3970
  474MOL0     H62505  10.281   0.072   4.857 -1.2792 -0.6421  1.0453
  474MOL0     H62506  10.280   0.105   4.685  0.5181 -1.1625  1.2322
  474MOL0     H62507  10.079   0.104   4.641  3.3142  1.6682  0.1356
  474MOL0     H62508  10.009   0.144   4.804  2.0866 -0.3953  3.4673
  474MOL0     H62509  10.088  -0.084   4.880  3.5368 -2.1976  0.6606
  474MOL0     H62510  10.164  -0.112   4.729  1.1564  0.4281  2.2873
  474MOL0     H62511   9.862  -0.083   4.785  2.0877 -3.3086  3.6065
  474MOL0     H62512   9.950  -0.084   4.622  1.3675 -3.9070 -3.4554
  474MOL0     H62513  10.027  -0.318   4.673 -0.1000 -4.7031  0.6882
  474MOL0     H62514   9.855  -0.301   4.656  1.7342  0.1010 -2.6625
  474MOL0     H62515   9.820  -0.355   4.876  0.5407 -1.9776  0.1257
  474MOL0     H62516   9.977  -0.279   4.933  2.1186 -2.3996  0.1550
  474MOL0     H62517   9.930  -0.544   4.783  0.7579 -2.5791  0.4524
  474MOL0     H62518  10.087  -0.482   4.836 -0.0407 -1.4591 -2.7016
  474MOL0     H62519  10.007  -0.502   5.077  1.7648  0.7863 -2.2770
  474MOL0     H62520   9.985  -0.665   5.002 -1.8583 -1.4350  0.7178
  474MOL0     H62521   9.712  -0.634   4.853  0.9872  0.6051 -1.2015
  474MOL0     H62522   9.389  -0.636   5.068  1.1677 -2.8255  0.0851
  474MOL0     H62523   9.474  -0.712   4.936  0.0387 -0.1998  1.0105
  474MOL0     H62524   9.475  -0.479   4.804 -3.0289  0.1029 -3.1507
  474MOL0     H62525   9.386  -0.402   4.934  0.7985 -0.2662  2.8003
  474MOL0     H62526   9.272  -0.458   4.724  0.1398 -0.0589 -0.6222
  474MOL0     H62527   9.265  -0.628   4.769  0.2463  0.6287 -1.4695
  474MOL0     H62528   9.156  -0.397   4.943  2.6863 -1.5571  3.4447
  474MOL0     H62529   9.155  -0.561   4.990 -4.6547  0.4552  0.2267
  474MOL0     H62530   8.982  -0.574   5.091 -2.5781  0.2978  3.1873
  474MOL0     H62531   8.785  -0.539   5.202  1.8964 -1.3347 -0.1316
  474MOL0     H62532   8.271  -0.451   5.209 -1.8174 -2.1117 -0.1874
  474MOL0     H62533   8.089  -0.515   5.360 -1.1466 -0.6691  0.8214
  474MOL0     H62534   8.084  -0.553   5.751  1.3817  0.8707  1.7738
  474MOL0     H62535   8.241  -0.618   5.739  0.4370  0.8690  2.2700
  474MOL0     H62536   8.140  -0.852   5.766 -0.1469 -0.8418  1.1705
  474MOL0     H62537   7.974  -0.792   5.765 -0.1035 -0.0134  1.9646
  474MOL0     H62538   8.028  -0.651   5.966 -1.7972 -0.3184 -0.3320
  474MOL0     H62539   8.192  -0.723   5.973  0.4270  0.3460 -2.4666
  474MOL0     H62540   7.927  -0.887   5.992 -1.5911  2.0901  0.3742
  474MOL0     H62541   8.077  -0.961   6.007  0.4566  0.0408 -0.2448
  474MOL0     H62542   7.975  -0.892   6.236  0.7386  1.4291  2.1429
  474MOL0     H62543   7.995  -0.733   6.181 -6.0612 -2.2515 -4.6146
  474MOL0     H62544   8.164  -0.812   6.328 -1.3686  0.2832  0.1914
  474MOL0     H62545   8.244  -0.756   6.172  1.3954 -0.3779 -0.8563
  474MOL0     H62546   8.167  -1.054   6.236  1.0967 -1.8680  2.1393
  474MOL0     H62547   8.288  -0.978   6.123 -1.5233  4.1800 -0.1496
  474MOL0     H62548   8.413  -0.906   6.328 -1.2980  1.7147 -0.8254
  474MOL0     H62549   8.401  -1.094   6.312 -0.6704 -1.0186  0.4154
  474MOL0     H62550   8.369  -0.754   5.581  2.5515 -0.7128 -0.8863
  474MOL0     H62551   8.545  -0.703   5.419 -1.8237 -2.7018  1.5005
  474MOL0     H62552   8.591  -0.369   4.857  1.9653  1.7482 -1.3816
  474MOL0     H62553   8.819  -0.388   4.738 -0.4814 -0.7648 -1.0011
  474MOL0     H62554  10.451   0.189   4.650 -1.7805  0.1206  0.1710
  474MOL0     H62555  10.627   0.345   4.603 -2.6925  0.2332 -2.1259
  474MOL0     H62556  10.989   0.611   4.467  2.7233  0.9741 -1.7147
  474MOL0     H62557  11.155   0.779   4.495  1.1892  2.2705  0.6100
  474MOL0     H62558  11.200   1.177   4.637  0.8887 -0.2584 -1.0363
  474MOL0     H62559  11.051   1.116   4.583  0.6892  0.3628 -0.2860
  474MOL0     H62560  11.329   1.030   4.501 -0.2667  2.4624  2.2422
  474MOL0     H62561  11.184   0.978   4.417  1.3559 -0.3681 -0.8181
  474MOL0     H62562  11.275   1.268   4.437  0.1765  0.3569 -1.4480
  474MOL0     H62563  11.121   1.201   4.361 -0.9839 -2.1036  1.3996
  474MOL0     H62564  11.396   1.093   4.277 -0.8614 -2.0947 -0.7774
  474MOL0     H62565  11.235   1.102   4.193  1.2356 -2.3459  0.9637
  474MOL0     H62566  11.480   1.436   4.097 -0.4909  1.0650  2.1446
  474MOL0     H62567  10.941   0.986   4.791  3.6785 -0.3422  0.1402
  474MOL0     H62568  10.756   0.811   4.775  1.1214  0.5468  0.8479
  475MOL0     O62569   8.282   8.892   7.639  0.8353  0.8853  0.9048
  475MOL0     C62570   8.308   8.890   7.523 -0.4721  0.1389  0.2330
  475MOL0     O62571   8.214   8.886   7.423  0.7907 -0.2205 -0.8364
  475MOL0     C62572   8.076   8.860   7.450 -0.3383 -0.9078  1.0264
  475MOL0     C62573   7.996   8.924   7.361 -0.1651 -0.8391  0.1887
  475MOL0     C62574   7.854   8.917   7.384  0.1365  0.3376  0.2722
  475MOL0     C62575   7.804   8.850   7.491  0.2803  0.0084  0.0382
  475MOL0     O62576   7.669   8.842   7.497 -0.5606  0.5854  0.2671
  475MOL0     C62577   7.607   8.848   7.621  0.1796  0.4541 -0.3819
  475MOL0     C62578   7.456   8.890   7.611 -0.0787 -0.3808  0.1405
  475MOL0     C62579   7.379   8.845   7.741 -0.7371  0.5202 -0.1590
  475MOL0     C62580   7.227   8.883   7.749  0.6257 -0.1841  0.5114
  475MOL0     C62581   7.156   8.804   7.847 -0.9707 -0.8555 -0.9889
  475MOL0     C62582   7.105   8.674   7.794 -0.1544 -0.4115  0.0552
  475MOL0     C62583   7.047   8.601   7.913 -0.1851  0.2426  0.4110
  475MOL0     C62584   6.910   8.661   7.967 -0.2649 -0.3811  0.0963
  475MOL0     N62585   6.822   8.561   8.035 -0.2347  0.0561 -0.0206
  475MOL0     C62586   6.764   8.548   8.160  0.0211  0.3380  1.0746
  475MOL0     C62587   6.696   8.435   8.151  0.5041 -0.4616 -0.1712
  475MOL0     C62588   6.626   8.369   8.259 -0.8474  0.1174 -0.8343
  475MOL0     C62589   6.474   8.365   8.242 -0.4166  0.5608  0.0352
  475MOL0     C62590   6.411   8.260   8.338 -0.1236  0.1293  0.9491
  475MOL0     C62591   6.261   8.253   8.307 -0.1196 -0.5929 -0.2549
  475MOL0     O62592   6.198   8.379   8.349  0.2496 -1.2549  0.4520
  475MOL0     C62593   6.058   8.395   8.339 -0.5902 -0.7002  0.4858
  475MOL0     C62594   5.968   8.302   8.287 -0.1734 -0.0732  0.0160
  475MOL0     C62595   5.837   8.326   8.292 -1.0794 -0.1780  0.5817
  475MOL0     C62596   5.780   8.442   8.345 -0.6970  0.2674  0.4616
  475MOL0     C62597   5.638   8.469   8.327  0.0018  0.3110  0.4794
  475MOL0     O62598   5.603   8.596   8.303 -0.7856  0.2224 -1.1640
  475MOL0     C62599   5.474   8.623   8.264  0.9379 -0.5260 -0.5204
  475MOL0     C62600   5.442   8.613   8.130 -0.2960  1.0774 -0.7053
  475MOL0     C62601   5.312   8.646   8.092 -0.0591  0.5885  0.4010
  475MOL0     C62602   5.216   8.691   8.184 -0.0252 -0.3820  1.4917
  475MOL0     O62603   5.087   8.725   8.137 -0.4217  0.5343 -0.3473
  475MOL0     C62604   5.039   8.852   8.181 -0.8950 -0.0267  0.6091
  475MOL0     C62605   4.915   8.830   8.277  0.4105  0.6032 -0.1036
  475MOL0     C62606   4.776   8.801   8.205  0.3296  0.6872  0.3862
  475MOL0     C62607   4.651   8.866   8.278 -0.0338  0.0471 -0.3460
  475MOL0     C62608   4.527   8.859   8.196  0.5874  0.4574  0.7054
  475MOL0     C62609   4.415   8.923   8.271  0.1449  0.3207  0.2866
  475MOL0     C62610   4.285   8.898   8.188  0.1149  0.3031 -0.1295
  475MOL0     C62611   4.159   8.963   8.251  0.6110 -0.0393  0.3152
  475MOL0    Cl62612   4.148   8.918   8.411 -0.4297 -0.3998 -0.4559
  475MOL0     C62613   5.254   8.719   8.321  0.2584  0.5812  0.5264
  475MOL0     C62614   5.387   8.687   8.357  0.7266  1.0083  0.1644
  475MOL0     O62615   5.572   8.369   8.310  0.4345  0.6237 -0.3501
  475MOL0     C62616   5.877   8.542   8.393 -0.1878 -0.5380  0.2578
  475MOL0     C62617   6.017   8.515   8.397 -0.4894  0.4156 -0.3010
  475MOL0     N62618   6.701   8.391   8.020 -0.1351 -0.0000  0.4116
  475MOL0     N62619   6.766   8.469   7.943  0.0073  0.2422 -0.6434
  475MOL0     C62620   7.884   8.804   7.592  0.5910  0.0547  0.7879
  475MOL0     C62621   8.028   8.804   7.568 -0.1640  0.8625  0.7786
  475MOL0     C62622   8.447   8.892   7.477  0.0309  1.0342 -0.5214
  475MOL0     C62623   8.542   8.938   7.572  0.5152 -0.6535 -0.6896
  475MOL0     C62624   8.672   8.940   7.545 -1.0045  0.5323 -0.1497
  475MOL0     C62625   8.731   8.905   7.422  0.6241  0.0897 -0.1376
  475MOL0     O62626   8.867   8.914   7.384  0.4985  0.2152 -0.6549
  475MOL0     C62627   8.960   8.900   7.495 -0.0424 -0.2944  0.6525
  475MOL0     C62628   9.089   8.847   7.425  0.4513 -0.8020 -0.9889
  475MOL0     C62629   9.192   8.819   7.533  0.0756 -0.5623 -0.8671
  475MOL0     C62630   9.315   8.740   7.470  0.4730 -0.7338  0.1653
  475MOL0     C62631   9.404   8.834   7.403 -1.4327 -0.2358  0.0270
  475MOL0     C62632   9.484   8.910   7.354  1.2420 -1.1378  0.4586
  475MOL0     C62633   8.639   8.863   7.327 -0.1664  0.6298 -0.4823
  475MOL0     C62634   8.502   8.843   7.350  0.4455 -0.5566 -0.6943
  475MOL0     H62635   8.043   8.977   7.280  0.3447 -0.6667  0.5910
  475MOL0     H62636   7.788   8.965   7.312  1.4343  1.1089 -0.4284
  475MOL0     H62637   7.654   8.911   7.698 -2.9653 -0.7174  2.7498
  475MOL0     H62638   7.604   8.748   7.666 -0.4960  1.6703  2.5183
  475MOL0     H62639   7.408   8.841   7.526  0.5560  0.4224 -0.6959
  475MOL0     H62640   7.446   8.997   7.590  0.0602 -1.0217 -4.0657
  475MOL0     H62641   7.429   8.888   7.828  0.5898 -0.3558 -0.4534
  475MOL0     H62642   7.385   8.735   7.746  0.3303  0.6068  1.3361
  475MOL0     H62643   7.222   8.992   7.759  0.7916 -0.2680  1.5884
  475MOL0     H62644   7.178   8.865   7.653  2.9305  0.1805 -0.8104
  475MOL0     H62645   7.065   8.862   7.867 -0.6545  0.0595 -2.0852
  475MOL0     H62646   7.211   8.789   7.940 -4.0055 -0.6172  0.9962
  475MOL0     H62647   7.182   8.610   7.750 -1.3645 -1.3727 -0.7246
  475MOL0     H62648   7.024   8.683   7.722 -0.7029 -2.5571  0.3343
  475MOL0     H62649   7.032   8.498   7.879 -0.0433  0.1444  0.6429
  475MOL0     H62650   7.121   8.601   7.994 -0.8296 -3.7467  1.1946
  475MOL0     H62651   6.851   8.695   7.882 -0.7205  1.2661  1.0220
  475MOL0     H62652   6.930   8.745   8.034 -4.0153  0.7035  0.1129
  475MOL0     H62653   6.767   8.613   8.247  3.7161 -0.6356  1.8347
  475MOL0     H62654   6.646   8.412   8.358  1.3554  1.0498 -1.6064
  475MOL0     H62655   6.675   8.271   8.258  0.3792  0.6954 -0.0606
  475MOL0     H62656   6.473   8.328   8.139  1.7021 -3.6243  1.2547
  475MOL0     H62657   6.424   8.462   8.246 -0.6193  0.5420 -1.5094
  475MOL0     H62658   6.463   8.165   8.318  1.9742  1.7230 -1.8276
  475MOL0     H62659   6.427   8.290   8.442  0.9075  2.1770  0.2557
  475MOL0     H62660   6.220   8.165   8.357  1.4581  0.7546  3.8747
  475MOL0     H62661   6.249   8.245   8.199 -0.6651  1.1641 -0.3632
  475MOL0     H62662   6.002   8.208   8.244 -1.1221 -0.8147  0.8434
  475MOL0     H62663   5.777   8.252   8.240  1.7111 -1.3342 -1.2178
  475MOL0     H62664   5.515   8.570   8.063  1.1214 -1.2186  2.0598
  475MOL0     H62665   5.272   8.624   7.993 -1.1926  1.8137  0.5689
  475MOL0     H62666   4.995   8.916   8.103 -0.2180  0.1376  0.3593
  475MOL0     H62667   5.112   8.910   8.237  1.1472 -0.6604 -1.2568
  475MOL0     H62668   4.895   8.923   8.331 -2.3191  0.5263 -0.7966
  475MOL0     H62669   4.946   8.747   8.341  0.2579  1.2077  0.7735
  475MOL0     H62670   4.766   8.692   8.208 -0.7100  0.7722  0.3183
  475MOL0     H62671   4.781   8.838   8.102 -2.3847  0.5655  0.1343
  475MOL0     H62672   4.627   8.814   8.371  0.2179  1.0622  0.2974
  475MOL0     H62673   4.673   8.970   8.305 -0.2162 -0.2468  0.9976
  475MOL0     H62674   4.501   8.755   8.172 -1.9253  1.2635 -0.4491
  475MOL0     H62675   4.542   8.917   8.105 -1.3653  1.8870  1.2274
  475MOL0     H62676   4.441   9.029   8.281  4.6182 -0.7899  3.5268
  475MOL0     H62677   4.407   8.878   8.370 -1.9050 -1.1813 -0.5010
  475MOL0     H62678   4.293   8.921   8.082 -1.0686 -1.8636 -0.7530
  475MOL0     H62679   4.267   8.791   8.198 -0.4434  0.5115  1.6139
  475MOL0     H62680   4.078   8.922   8.190  1.2569 -0.9005  0.0092
  475MOL0     H62681   4.150   9.072   8.249 -0.5447 -0.1394 -1.0390
  475MOL0     H62682   5.172   8.758   8.380 -0.5963 -0.1421 -0.1632
  475MOL0     H62683   5.417   8.701   8.461  0.6906 -0.0938  0.3372
  475MOL0     H62684   5.859   8.648   8.408  0.0052 -0.5902  0.8557
  475MOL0     H62685   6.094   8.581   8.435 -0.9106  1.0625 -0.5654
  475MOL0     H62686   7.828   8.753   7.670 -3.2089 -0.1071 -1.7850
  475MOL0     H62687   8.080   8.754   7.649  1.9358 -0.5336 -1.3157
  475MOL0     H62688   8.508   8.974   7.668  0.8532  2.8384 -1.7174
  475MOL0     H62689   8.733   8.977   7.627  0.3540 -2.6166  0.4092
  475MOL0     H62690   8.924   8.825   7.566 -0.6858  0.8135  1.5153
  475MOL0     H62691   8.968   8.997   7.545 -1.1526  0.7507 -1.0989
  475MOL0     H62692   9.069   8.758   7.364  2.3798 -1.5644 -0.5691
  475MOL0     H62693   9.122   8.932   7.364  2.1410  0.2403  1.2485
  475MOL0     H62694   9.158   8.753   7.613 -2.3590  1.2566 -0.2556
  475MOL0     H62695   9.231   8.906   7.587 -1.9422 -1.2715  2.0131
  475MOL0     H62696   9.373   8.688   7.547 -1.0077  0.5133  2.2513
  475MOL0     H62697   9.285   8.666   7.396  0.3520  1.2533 -1.8666
  475MOL0     H62698   9.548   8.981   7.305 -1.0055  3.2099  3.1110
  475MOL0     H62699   8.682   8.828   7.234 -2.5723  0.1370 -1.4867
  475MOL0     H62700   8.435   8.806   7.273  1.8568 -0.3595 -2.0417
  476MOL0     O62701   5.340   2.784   3.399  0.5071  0.7053  0.2595
  476MOL0     C62702   5.449   2.828   3.426 -1.0058 -0.4494 -0.2620
  476MOL0     O62703   5.496   2.948   3.391 -0.1419 -0.3561 -0.3369
  476MOL0     C62704   5.435   3.028   3.298  0.6924 -0.6328 -0.0456
  476MOL0     C62705   5.302   3.052   3.307 -0.0661 -0.0753 -0.7735
  476MOL0     C62706   5.241   3.148   3.226 -1.0014  0.0229 -0.4474
  476MOL0     C62707   5.320   3.202   3.122 -0.7816  0.1868  0.0978
  476MOL0     O62708   5.263   3.290   3.029 -0.0524 -0.2399 -0.1862
  476MOL0     C62709   5.324   3.334   2.908  0.0012  0.0648 -0.7659
  476MOL0     C62710   5.230   3.400   2.803  0.0413  0.3609  0.1437
  476MOL0     C62711   5.133   3.501   2.865 -0.3909  0.6348  0.5048
  476MOL0     C62712   5.030   3.538   2.761  0.7865 -0.9952  0.3580
  476MOL0     C62713   4.922   3.636   2.815  0.3081  0.2871  0.2859
  476MOL0     C62714   4.975   3.770   2.844 -0.4503 -0.3680 -0.2944
  476MOL0     C62715   4.873   3.869   2.907 -0.6835  0.4721 -0.9330
  476MOL0     C62716   4.758   3.891   2.820 -0.7207  0.6056 -0.5797
  476MOL0     N62717   4.689   4.007   2.867  0.2546 -0.1972 -0.0989
  476MOL0     C62718   4.713   4.139   2.843 -0.2595  0.6397 -0.0126
  476MOL0     C62719   4.593   4.198   2.882 -0.4464 -0.9101 -0.0973
  476MOL0     C62720   4.585   4.346   2.896 -0.8177  0.2638  0.1334
  476MOL0     C62721   4.498   4.428   2.791 -0.3973 -0.8733  0.9566
  476MOL0     C62722   4.557   4.421   2.650 -0.0179  0.5216  0.2131
  476MOL0     C62723   4.501   4.521   2.543  0.1043 -0.9719  0.4218
  476MOL0     O62724   4.502   4.648   2.605 -0.2597 -0.4089  0.4217
  476MOL0     C62725   4.422   4.744   2.564 -0.2254 -0.1969 -0.3793
  476MOL0     C62726   4.417   4.791   2.434  0.8425 -1.3368 -0.1050
  476MOL0     C62727   4.340   4.907   2.394 -0.7441  0.3076  0.9917
  476MOL0     C62728   4.265   4.973   2.488 -0.3237 -0.3034 -0.7676
  476MOL0     C62729   4.199   5.098   2.453 -0.0515 -0.3516  0.4291
  476MOL0     O62730   4.191   5.132   2.324 -0.2160  0.5947  0.9252
  476MOL0     C62731   4.162   5.259   2.287  0.3706  0.5025  0.6096
  476MOL0     C62732   4.068   5.271   2.188  0.3543 -0.0306  0.8578
  476MOL0     C62733   4.053   5.391   2.128  0.1074 -0.6052 -0.0889
  476MOL0     C62734   4.124   5.505   2.169  0.4429  1.0496 -0.0193
  476MOL0     O62735   4.117   5.626   2.112 -0.6201 -0.1866 -0.1479
  476MOL0     C62736   4.144   5.636   1.973  0.3508 -0.5026 -0.0679
  476MOL0     C62737   4.166   5.789   1.946 -0.3315 -0.3321  1.3805
  476MOL0     C62738   4.289   5.848   2.013 -0.0844  0.0192 -0.0479
  476MOL0     C62739   4.313   5.992   1.982 -0.9281 -0.1843 -0.6306
  476MOL0     C62740   4.194   6.082   2.013  0.7714 -0.3987 -0.5277
  476MOL0     C62741   4.230   6.230   2.022  0.4209  0.2382  0.3055
  476MOL0     C62742   4.124   6.298   2.112 -0.5220  0.3288 -0.2696
  476MOL0     C62743   4.170   6.290   2.262  0.2860 -0.2227  0.2122
  476MOL0    Cl62744   4.086   6.415   2.354  0.2091 -0.0102  0.0726
  476MOL0     C62745   4.217   5.491   2.272  0.2120 -0.4539  0.0742
  476MOL0     C62746   4.237   5.364   2.333  0.4592  0.1704 -0.7647
  476MOL0     O62747   4.155   5.166   2.541  0.5894  0.1948  0.1576
  476MOL0     C62748   4.255   4.911   2.622  0.2138  0.1064  0.7863
  476MOL0     C62749   4.334   4.803   2.658 -0.7107 -0.1469  0.3829
  476MOL0     N62750   4.505   4.109   2.939 -0.1128  0.2791 -0.0558
  476MOL0     N62751   4.571   4.009   2.939  0.0113 -0.0187  0.4957
  476MOL0     C62752   5.451   3.168   3.113  1.3988 -0.2154  0.6401
  476MOL0     C62753   5.511   3.084   3.200 -0.7462  0.6297  0.2108
  476MOL0     C62754   5.543   2.733   3.488  0.0992 -0.1906 -0.4544
  476MOL0     C62755   5.498   2.623   3.560  0.4663  0.2761 -0.2927
  476MOL0     C62756   5.590   2.525   3.601  0.7692  0.9263 -0.1908
  476MOL0     C62757   5.723   2.532   3.571  0.3213 -0.5187  0.1653
  476MOL0     O62758   5.791   2.420   3.616  0.0677  0.0609 -0.4839
  476MOL0     C62759   5.936   2.420   3.607  0.1973 -0.2087  0.8322
  476MOL0     C62760   5.977   2.500   3.730  0.4431  0.2672  0.3490
  476MOL0     C62761   5.916   2.455   3.873  0.3717  0.7100 -0.3388
  476MOL0     C62762   5.944   2.314   3.916  0.3165  1.0910  0.5456
  476MOL0     C62763   6.088   2.291   3.922  0.4408  0.7546  0.0039
  476MOL0     C62764   6.195   2.241   3.939  0.3287 -0.6749 -0.6840
  476MOL0     C62765   5.764   2.654   3.503 -0.3378 -0.0809  0.9936
  476MOL0     C62766   5.675   2.747   3.455  0.3191 -0.0933 -0.9357
  476MOL0     H62767   5.238   3.001   3.379 -0.1142 -2.2954 -2.2893
  476MOL0     H62768   5.135   3.168   3.236 -0.4246  2.3146  3.0314
  476MOL0     H62769   5.374   3.248   2.861  1.2430  1.0389 -1.2922
  476MOL0     H62770   5.401   3.406   2.939 -0.5844  0.7980 -0.9934
  476MOL0     H62771   5.172   3.316   2.763  0.0805 -0.2059  1.2168
  476MOL0     H62772   5.289   3.432   2.717 -0.7589 -0.3831 -0.7031
  476MOL0     H62773   5.188   3.591   2.895 -0.6947  1.3859 -1.0689
  476MOL0     H62774   5.078   3.456   2.948 -2.3064 -0.3682 -1.1947
  476MOL0     H62775   5.084   3.589   2.681 -0.8637 -1.7966 -1.3168
  476MOL0     H62776   4.982   3.453   2.713 -0.1484 -1.5366  2.1533
  476MOL0     H62777   4.872   3.598   2.904  0.7299  1.9517  1.2794
  476MOL0     H62778   4.854   3.642   2.729  0.2382 -2.2271  0.1173
  476MOL0     H62779   5.031   3.818   2.763 -3.1430  4.1673  0.1955
  476MOL0     H62780   5.047   3.761   2.927 -1.6503  0.8122  0.9236
  476MOL0     H62781   4.834   3.826   2.999  0.1362  0.5477 -0.5436
  476MOL0     H62782   4.931   3.959   2.926  1.2284 -0.1572 -3.2477
  476MOL0     H62783   4.706   3.796   2.831  0.0927  0.3849  2.1988
  476MOL0     H62784   4.794   3.895   2.717 -2.7949 -1.2307 -1.4560
  476MOL0     H62785   4.798   4.180   2.790 -0.1221  1.4275  0.7828
  476MOL0     H62786   4.683   4.388   2.916 -1.2126  2.2508 -1.6806
  476MOL0     H62787   4.527   4.359   2.988  0.7385  2.3133  0.8874
  476MOL0     H62788   4.502   4.534   2.819  0.1680 -0.4533 -0.6247
  476MOL0     H62789   4.393   4.398   2.788 -0.5520 -0.2554 -1.1571
  476MOL0     H62790   4.665   4.421   2.660  0.0805 -1.7466 -0.2899
  476MOL0     H62791   4.534   4.321   2.613 -2.1521  1.0047  0.0861
  476MOL0     H62792   4.400   4.502   2.507  0.3798 -0.1201 -0.8730
  476MOL0     H62793   4.570   4.533   2.458  0.5536  1.9017  1.0840
  476MOL0     H62794   4.480   4.751   2.355  2.0089  3.1072 -1.7273
  476MOL0     H62795   4.350   4.946   2.293  2.1570 -1.2289  0.5788
  476MOL0     H62796   4.024   5.182   2.143 -0.3699  0.7407  0.0122
  476MOL0     H62797   3.990   5.402   2.040  2.5776 -0.9784 -2.0489
  476MOL0     H62798   4.057   5.588   1.926 -1.2590  0.5330  1.6897
  476MOL0     H62799   4.235   5.581   1.948 -0.0751 -0.5497 -1.6187
  476MOL0     H62800   4.078   5.836   1.991 -1.3823 -2.0547  1.2037
  476MOL0     H62801   4.163   5.819   1.841 -0.0527  0.6807  1.6504
  476MOL0     H62802   4.375   5.789   1.981  1.0509  1.5960  0.0016
  476MOL0     H62803   4.281   5.845   2.122  1.0969  2.0353  0.1476
  476MOL0     H62804   4.402   6.014   2.041 -2.3568 -2.5570  2.7161
  476MOL0     H62805   4.331   5.998   1.874 -2.5039  1.6352 -0.8419
  476MOL0     H62806   4.155   6.056   2.112  2.5904  1.6226  0.8278
  476MOL0     H62807   4.121   6.063   1.934  0.0355 -1.3903  0.3711
  476MOL0     H62808   4.227   6.273   1.921  2.6642 -0.3683 -0.0701
  476MOL0     H62809   4.332   6.239   2.058  0.5296  1.6824 -0.3216
  476MOL0     H62810   4.113   6.401   2.078 -3.2163 -0.2364 -1.3118
  476MOL0     H62811   4.026   6.252   2.108 -0.3087 -1.3291  5.1566
  476MOL0     H62812   4.275   6.321   2.259 -0.0819  1.1968  0.8799
  476MOL0     H62813   4.178   6.189   2.302  1.9214 -0.3272 -0.3419
  476MOL0     H62814   4.275   5.580   2.292  2.9733 -1.6485 -1.9132
  476MOL0     H62815   4.307   5.371   2.416 -0.9468  0.3722  0.4420
  476MOL0     H62816   4.187   4.956   2.693  0.3065 -3.2884  3.2791
  476MOL0     H62817   4.324   4.757   2.756  0.3053 -1.2775 -0.0114
  476MOL0     H62818   5.520   3.196   3.034 -1.2568 -0.0611 -1.7990
  476MOL0     H62819   5.613   3.058   3.178 -1.0034 -1.5236  1.3357
  476MOL0     H62820   5.391   2.620   3.576  0.3748 -3.9630 -0.4331
  476MOL0     H62821   5.562   2.438   3.658 -0.9580  0.8513 -1.0791
  476MOL0     H62822   5.983   2.450   3.513  3.4573 -1.1478  2.0239
  476MOL0     H62823   5.968   2.315   3.613  3.6129  0.4891 -1.8275
  476MOL0     H62824   6.085   2.510   3.736  0.5116 -0.2148 -0.0858
  476MOL0     H62825   5.938   2.601   3.713 -0.4790 -0.2757 -0.9295
  476MOL0     H62826   5.808   2.467   3.862  0.0680 -1.7860 -0.6630
  476MOL0     H62827   5.938   2.525   3.955  0.4289 -0.8818  1.0544
  476MOL0     H62828   5.918   2.277   4.015  2.5590 -0.1448  0.7301
  476MOL0     H62829   5.902   2.242   3.845  3.6962  0.4276 -0.9740
  476MOL0     H62830   6.293   2.199   3.951  0.4188 -0.1810  0.4380
  476MOL0     H62831   5.866   2.656   3.466  0.8680 -2.0104  3.8581
  476MOL0     H62832   5.714   2.819   3.383  3.4865 -1.5006 -0.7685
  477MOL0     O62833   4.382   8.162   6.970  0.1437  0.4162  0.4108
  477MOL0     C62834   4.457   8.096   6.900 -0.4373 -0.7158 -0.0479
  477MOL0     O62835   4.496   7.965   6.934 -0.5274 -0.3445  0.2620
  477MOL0     C62836   4.454   7.901   7.048  1.0614 -0.0189  0.2226
  477MOL0     C62837   4.420   7.765   7.037 -1.0688 -0.0979 -0.0734
  477MOL0     C62838   4.376   7.703   7.155 -0.0085  1.0474  1.0401
  477MOL0     C62839   4.379   7.759   7.283 -0.0878  0.6627  0.8744
  477MOL0     O62840   4.328   7.687   7.390 -0.1512  0.6179  0.1528
  477MOL0     C62841   4.362   7.737   7.520  0.1215  0.0156 -0.5171
  477MOL0     C62842   4.338   7.646   7.639  0.4302 -0.7509  0.0075
  477MOL0     C62843   4.332   7.727   7.770  0.0203  0.3553 -0.3914
  477MOL0     C62844   4.318   7.643   7.902 -0.4500  0.2607 -0.2597
  477MOL0     C62845   4.294   7.733   8.019 -0.9191  0.0880  0.4378
  477MOL0     C62846   4.150   7.778   8.027 -0.1849 -0.6782  0.3328
  477MOL0     C62847   4.141   7.891   8.131  0.7209 -0.3656 -0.1609
  477MOL0     C62848   3.998   7.934   8.161  0.2093  0.3915  0.1985
  477MOL0     N62849   3.904   7.835   8.226 -0.0730 -0.6352  0.5686
  477MOL0     C62850   3.819   7.743   8.158  0.2950 -0.8343 -0.4269
  477MOL0     C62851   3.736   7.711   8.265 -0.0268 -0.3659 -1.4714
  477MOL0     C62852   3.605   7.633   8.245 -0.9906  0.1778 -0.7389
  477MOL0     C62853   3.495   7.677   8.344  0.1505  0.2570  0.7328
  477MOL0     C62854   3.349   7.617   8.324  0.3639  0.2935 -0.4055
  477MOL0     C62855   3.342   7.457   8.314 -1.0464  0.5883  0.3879
  477MOL0     O62856   3.208   7.411   8.322  0.4011  0.7508 -0.4496
  477MOL0     C62857   3.138   7.363   8.220  0.0655 -0.6175 -0.2274
  477MOL0     C62858   3.053   7.258   8.239  0.7492  1.0380 -0.0037
  477MOL0     C62859   2.978   7.198   8.137  0.2859 -1.0438 -0.2618
  477MOL0     C62860   2.969   7.269   8.012 -0.3699  0.3285 -0.0574
  477MOL0     C62861   2.883   7.217   7.910  0.3000 -0.4047 -0.1109
  477MOL0     O62862   2.837   7.086   7.928  0.4346 -0.5466 -0.4254
  477MOL0     C62863   2.748   7.017   7.850 -0.0314  0.1878  0.4361
  477MOL0     C62864   2.736   6.882   7.876 -0.2321  0.1491 -0.3559
  477MOL0     C62865   2.654   6.796   7.797  0.2444 -0.4955 -0.1388
  477MOL0     C62866   2.575   6.850   7.692  0.6104 -0.0589  0.0148
  477MOL0     O62867   2.490   6.768   7.620 -0.0835  0.0564  0.0807
  477MOL0     C62868   2.488   6.796   7.474  0.3700  0.7921 -0.7722
  477MOL0     C62869   2.356   6.850   7.416 -0.4292 -0.1498 -0.5502
  477MOL0     C62870   2.314   6.990   7.471 -0.2113  0.9547  0.5666
  477MOL0     C62871   2.184   7.058   7.419 -0.2543  0.3865 -0.1706
  477MOL0     C62872   2.169   7.193   7.489  0.0828 -0.1721  0.8695
  477MOL0     C62873   2.258   7.304   7.433 -0.7113  0.2092 -0.1024
  477MOL0     C62874   2.290   7.412   7.539  0.2482  0.0140  0.5427
  477MOL0     C62875   2.384   7.525   7.486  0.4973  0.2093  0.5671
  477MOL0    Cl62876   2.283   7.624   7.384  0.0133  0.4165  0.0809
  477MOL0     C62877   2.599   6.986   7.660 -0.6527  0.2273  1.5657
  477MOL0     C62878   2.680   7.065   7.737  0.1494  0.1796 -0.2140
  477MOL0     O62879   2.868   7.282   7.809  0.2848  0.4205 -0.1985
  477MOL0     C62880   3.040   7.392   7.998 -0.5259 -0.1020 -0.0501
  477MOL0     C62881   3.121   7.439   8.102 -0.0573  0.6685  0.0541
  477MOL0     N62882   3.768   7.779   8.374 -0.5167 -1.1269 -0.6397
  477MOL0     N62883   3.879   7.838   8.353  0.3764 -0.8086 -0.1424
  477MOL0     C62884   4.427   7.891   7.290  0.3005  0.9021  0.4842
  477MOL0     C62885   4.468   7.963   7.176  0.2282 -0.5641  0.4647
  477MOL0     C62886   4.512   8.142   6.761  0.3891  0.0175 -0.0511
  477MOL0     C62887   4.467   8.258   6.700  0.4823  0.4084  0.4549
  477MOL0     C62888   4.515   8.302   6.577 -1.0144  0.0761  0.3933
  477MOL0     C62889   4.618   8.232   6.509 -0.4133 -0.0145 -0.3063
  477MOL0     O62890   4.664   8.278   6.389 -0.7280  1.0240 -0.3167
  477MOL0     C62891   4.798   8.244   6.356 -0.1689 -1.1705 -0.8961
  477MOL0     C62892   4.858   8.334   6.247 -0.5145 -0.4594 -0.0898
  477MOL0     C62893   4.792   8.313   6.110 -0.2678  0.4060  0.4370
  477MOL0     C62894   4.831   8.418   5.999  0.1453  0.8350 -0.5270
  477MOL0     C62895   4.717   8.407   5.905 -0.7001  0.1295 -0.2153
  477MOL0     C62896   4.607   8.381   5.853  0.6755  0.1114  0.0974
  477MOL0     C62897   4.677   8.124   6.584 -1.0990 -0.9713 -0.3874
  477MOL0     C62898   4.621   8.082   6.705  0.2654  0.3776  0.1551
  477MOL0     H62899   4.422   7.708   6.944  0.8275 -1.1957  0.5720
  477MOL0     H62900   4.331   7.604   7.148  3.3432 -0.5833  0.0108
  477MOL0     H62901   4.315   7.835   7.527  0.0600 -0.0765  0.5393
  477MOL0     H62902   4.470   7.753   7.511  0.0845  1.1712  0.7803
  477MOL0     H62903   4.410   7.565   7.652 -1.4767 -2.1652  2.9022
  477MOL0     H62904   4.239   7.604   7.621 -0.0978  0.1012  0.8414
  477MOL0     H62905   4.251   7.799   7.755 -1.7435 -1.2583  1.0388
  477MOL0     H62906   4.429   7.778   7.780  0.8133 -1.3491  1.0228
  477MOL0     H62907   4.233   7.575   7.887 -0.4117  0.3798 -1.0199
  477MOL0     H62908   4.399   7.576   7.936 -1.2695 -0.2609  0.7465
  477MOL0     H62909   4.355   7.823   8.003 -2.3054  1.2710  1.4982
  477MOL0     H62910   4.328   7.704   8.119 -1.0615  2.0029  1.0972
  477MOL0     H62911   4.094   7.689   8.057 -0.3507  0.1927  2.8209
  477MOL0     H62912   4.122   7.825   7.932 -1.0060  1.0991  1.4031
  477MOL0     H62913   4.185   7.852   8.223 -0.5526  3.6987  2.4605
  477MOL0     H62914   4.206   7.975   8.105 -1.3769  0.8155 -1.9816
  477MOL0     H62915   3.946   7.959   8.068 -0.1253 -3.1929 -0.7496
  477MOL0     H62916   4.011   8.012   8.236  0.5544 -0.1343  0.6908
  477MOL0     H62917   3.816   7.727   8.051 -0.0077  1.0488 -0.7384
  477MOL0     H62918   3.644   7.534   8.268 -0.8050  0.6559  1.1682
  477MOL0     H62919   3.568   7.652   8.144 -1.7014 -0.5432 -0.6285
  477MOL0     H62920   3.475   7.784   8.344 -0.0160  0.4013 -3.4993
  477MOL0     H62921   3.531   7.654   8.445  2.7713  0.3271 -0.1158
  477MOL0     H62922   3.279   7.639   8.404 -3.1268  1.9930 -3.5877
  477MOL0     H62923   3.303   7.670   8.240  0.6562  1.2440  0.0247
  477MOL0     H62924   3.401   7.410   8.393  2.2761  0.8480 -1.7355
  477MOL0     H62925   3.378   7.418   8.218 -4.0689  0.1320 -0.6998
  477MOL0     H62926   3.052   7.217   8.340 -0.9516 -1.2695 -0.8788
  477MOL0     H62927   2.901   7.123   8.151  1.4473 -2.3385 -0.6270
  477MOL0     H62928   2.789   6.846   7.964  3.3725  3.5166 -0.8676
  477MOL0     H62929   2.655   6.690   7.821  2.5081 -0.2705  0.9647
  477MOL0     H62930   2.483   6.694   7.435 -0.1506 -0.0050  1.2561
  477MOL0     H62931   2.564   6.862   7.430  0.9234  1.0691  0.5399
  477MOL0     H62932   2.270   6.785   7.433 -0.7210 -0.5232 -3.0700
  477MOL0     H62933   2.361   6.841   7.308  1.0092 -2.9661 -0.3466
  477MOL0     H62934   2.391   7.060   7.438  0.2967 -0.2857 -1.0230
  477MOL0     H62935   2.300   6.980   7.579 -0.5010  2.5703  0.7014
  477MOL0     H62936   2.187   7.072   7.310  1.2167  0.6207 -0.1313
  477MOL0     H62937   2.100   6.992   7.439 -1.9175  2.7111  1.0682
  477MOL0     H62938   2.198   7.176   7.594  2.4559  0.3802  0.3616
  477MOL0     H62939   2.066   7.224   7.469  1.1868  1.3525 -3.5588
  477MOL0     H62940   2.204   7.358   7.355  0.2882 -1.5507 -2.1055
  477MOL0     H62941   2.346   7.255   7.391 -3.2472 -3.9507 -1.2535
  477MOL0     H62942   2.194   7.454   7.569 -1.4441 -1.1245 -2.8158
  477MOL0     H62943   2.341   7.370   7.626  2.0312 -0.3328 -0.6071
  477MOL0     H62944   2.463   7.494   7.418  1.1824  1.2794  0.8586
  477MOL0     H62945   2.438   7.572   7.568  3.5051 -0.3656 -0.9539
  477MOL0     H62946   2.545   7.043   7.585  1.0950  1.2182  0.9993
  477MOL0     H62947   2.683   7.172   7.719 -1.7644  0.5241  1.1737
  477MOL0     H62948   3.032   7.454   7.910 -0.4570 -0.0775 -0.0395
  477MOL0     H62949   3.168   7.535   8.083  0.0953  0.5816 -0.0090
  477MOL0     H62950   4.431   7.941   7.386 -1.6780  1.4952  0.2948
  477MOL0     H62951   4.511   8.062   7.186  1.7838 -1.2101  0.5731
  477MOL0     H62952   4.392   8.314   6.755  0.4566 -0.4695  1.3418
  477MOL0     H62953   4.488   8.397   6.530  1.6499 -0.8003 -3.4335
  477MOL0     H62954   4.813   8.142   6.321 -1.0933 -1.4698 -0.4725
  477MOL0     H62955   4.845   8.254   6.454 -2.4686  0.8855  0.1252
  477MOL0     H62956   4.846   8.439   6.276  2.1514 -0.3125  0.6932
  477MOL0     H62957   4.967   8.327   6.241 -0.3008  1.9230 -0.0953
  477MOL0     H62958   4.686   8.302   6.133 -0.5458  0.3852 -0.8088
  477MOL0     H62959   4.820   8.214   6.071 -3.8744 -0.5479 -0.0550
  477MOL0     H62960   4.852   8.522   6.023 -1.8627  1.5057 -1.4889
  477MOL0     H62961   4.927   8.396   5.950  0.8633  2.9026 -0.1483
  477MOL0     H62962   4.520   8.343   5.804  0.5145  0.3258  0.2124
  477MOL0     H62963   4.772   8.083   6.551  0.2490  1.7392 -0.1953
  477MOL0     H62964   4.667   7.996   6.753 -1.8078  1.3153  4.2083
  478MOL0     O62965   2.174   5.264   1.634  0.3576  0.1028  0.5766
  478MOL0     C62966   2.205   5.193   1.726  0.4252  1.1456 -0.2315
  478MOL0     O62967   2.106   5.140   1.815 -0.6234  0.5668  0.0647
  478MOL0     C62968   1.977   5.180   1.813 -0.2838 -1.0267 -0.2030
  478MOL0     C62969   1.935   5.311   1.849  0.4183  0.2672 -0.5935
  478MOL0     C62970   1.794   5.338   1.849  0.3451 -0.3127  0.2480
  478MOL0     C62971   1.713   5.235   1.806 -0.0751 -0.1469  0.4746
  478MOL0     O62972   1.575   5.243   1.812  0.8670 -0.2829 -0.1316
  478MOL0     C62973   1.503   5.350   1.863  0.2926 -0.1847 -0.4821
  478MOL0     C62974   1.366   5.345   1.808  0.1211 -0.1094 -1.0001
  478MOL0     C62975   1.271   5.449   1.883 -1.1611 -0.4142 -0.5279
  478MOL0     C62976   1.204   5.386   2.012  1.0458  0.0710  0.7233
  478MOL0     C62977   1.100   5.271   1.987 -0.8589 -0.5456  0.5244
  478MOL0     C62978   1.022   5.268   1.858  0.3153 -1.3810  0.2245
  478MOL0     C62979   0.945   5.140   1.844  0.5664 -0.0914  0.1492
  478MOL0     C62980   0.829   5.132   1.938  0.1712 -0.1281  0.3718
  478MOL0     N62981   0.765   5.002   1.933 -0.1501  0.1286  0.6349
  478MOL0     C62982   0.712   4.951   1.817 -0.8578 -0.6442  0.0822
  478MOL0     C62983   0.645   4.837   1.856 -0.5928  0.1717  0.0719
  478MOL0     C62984   0.577   4.743   1.770  0.0296  0.0826 -0.8268
  478MOL0     C62985   0.427   4.764   1.784  0.3592  0.4879  0.6637
  478MOL0     C62986   0.353   4.656   1.703 -0.4942  0.7103 -0.7434
  478MOL0     C62987   0.198   4.648   1.701  0.1192 -0.2775  0.8464
  478MOL0     O62988   0.158   4.562   1.588 -0.0383  0.1227 -0.0129
  478MOL0     C62989   0.030   4.559   1.545  0.3875  0.1139  0.3069
  478MOL0     C62990   0.006   4.504   1.413  0.4072  0.2919 -0.3773
  478MOL0     C62991  -0.121   4.498   1.371 -0.9113 -0.1804  0.7508
  478MOL0     C62992  -0.230   4.543   1.444 -0.0807 -0.1549 -0.5506
  478MOL0     C62993  -0.370   4.515   1.387 -0.2515  0.2358  0.2795
  478MOL0     O62994  -0.470   4.476   1.482  0.2150  0.2063  0.5302
  478MOL0     C62995  -0.599   4.469   1.437 -0.3648 -0.0377 -0.2471
  478MOL0     C62996  -0.665   4.583   1.380  0.1438 -0.4851  0.6464
  478MOL0     C62997  -0.795   4.575   1.340  0.4489  0.4686 -0.3416
  478MOL0     C62998  -0.871   4.450   1.354  0.0216 -0.0986  0.0367
  478MOL0     O62999  -1.001   4.449   1.321  1.3806  0.2565 -0.1375
  478MOL0     C63000  -1.066   4.318   1.310 -0.0163  0.3490 -1.0363
  478MOL0     C63001  -1.174   4.313   1.210 -0.0173 -0.2054 -0.0281
  478MOL0     C63002  -1.136   4.343   1.066 -0.2523  0.5625 -0.4669
  478MOL0     C63003  -1.250   4.311   0.973  0.7782  0.0567  0.0431
  478MOL0     C63004  -1.358   4.421   0.956 -0.1544  0.8273  0.5298
  478MOL0     C63005  -1.483   4.359   0.896 -0.2462 -0.5547 -0.4389
  478MOL0     C63006  -1.585   4.478   0.863  0.8705  0.2050 -0.3525
  478MOL0     C63007  -1.708   4.428   0.789 -0.0646 -0.6598 -0.0476
  478MOL0    Cl63008  -1.831   4.562   0.813 -0.2694 -0.0431 -0.0235
  478MOL0     C63009  -0.804   4.349   1.418 -0.1606  0.3912 -0.1828
  478MOL0     C63010  -0.666   4.352   1.467  0.1252 -0.0527  0.0112
  478MOL0     O63011  -0.395   4.530   1.267  0.4881 -0.1018 -0.6169
  478MOL0     C63012  -0.207   4.608   1.572  0.0941 -1.1921  0.2443
  478MOL0     C63013  -0.082   4.614   1.621  0.0868 -0.5249 -0.7754
  478MOL0     N63014   0.666   4.822   1.988  0.5140 -0.0196 -0.1960
  478MOL0     N63015   0.738   4.920   2.035 -0.3132 -0.6182  0.1741
  478MOL0     C63016   1.761   5.105   1.778 -0.1418 -0.4877 -0.4469
  478MOL0     C63017   1.894   5.082   1.769 -0.2518  0.4161  0.6178
  478MOL0     C63018   2.340   5.143   1.742  0.1087  0.1910  0.5058
  478MOL0     C63019   2.360   5.056   1.848  0.9792  0.1363  0.1571
  478MOL0     C63020   2.491   5.004   1.873 -0.7205 -0.9143  0.1305
  478MOL0     C63021   2.601   5.056   1.805  0.1389 -1.7349  0.6304
  478MOL0     O63022   2.730   5.032   1.838 -1.5456  0.0068 -0.7371
  478MOL0     C63023   2.762   4.947   1.944  0.6573  0.1775 -0.1261
  478MOL0     C63024   2.912   4.945   1.939 -1.2729  0.1856 -0.8426
  478MOL0     C63025   2.978   4.814   1.987  0.6596 -0.1110  0.1665
  478MOL0     C63026   3.132   4.834   1.998  0.0235  0.9145  1.1328
  478MOL0     C63027   3.186   4.707   2.041  0.4402  0.7890  0.5152
  478MOL0     C63028   3.239   4.597   2.067 -0.6560 -1.0787 -0.1537
  478MOL0     C63029   2.571   5.137   1.689  0.4251  0.4012  0.4644
  478MOL0     C63030   2.440   5.183   1.660  0.8676  0.0313  0.1454
  478MOL0     H63031   2.002   5.394   1.872 -1.0743  2.1864 -2.7455
  478MOL0     H63032   1.766   5.439   1.877 -0.5792 -0.7141  0.8011
  478MOL0     H63033   1.542   5.451   1.848  1.2173 -0.2190  1.3262
  478MOL0     H63034   1.504   5.351   1.973  0.5710  1.0598 -0.4893
  478MOL0     H63035   1.337   5.241   1.821  0.6985 -0.2953 -1.1926
  478MOL0     H63036   1.374   5.359   1.700 -0.2516  0.0217 -1.0118
  478MOL0     H63037   1.193   5.493   1.820  0.1881  0.7085 -1.4600
  478MOL0     H63038   1.324   5.533   1.927 -1.3296 -0.9141  0.6733
  478MOL0     H63039   1.279   5.375   2.091  0.6292  3.2995  1.7396
  478MOL0     H63040   1.136   5.469   2.035  1.7207  1.3760 -1.6335
  478MOL0     H63041   1.027   5.265   2.069 -2.0775 -0.9243 -0.5628
  478MOL0     H63042   1.155   5.176   1.997  1.4482  0.8009  1.3975
  478MOL0     H63043   1.090   5.286   1.774 -1.2991  0.9604 -0.6697
  478MOL0     H63044   0.953   5.352   1.844  0.0242 -1.6763 -0.1867
  478MOL0     H63045   0.911   5.137   1.740 -0.4387 -0.8117  0.4792
  478MOL0     H63046   1.013   5.055   1.855 -0.6947 -1.2316 -0.4596
  478MOL0     H63047   0.749   5.205   1.924 -1.1661 -1.3321  1.4473
  478MOL0     H63048   0.866   5.149   2.040  1.4219 -2.1161  0.2913
  478MOL0     H63049   0.726   4.984   1.714  2.8166 -0.8999  0.3433
  478MOL0     H63050   0.601   4.643   1.807 -1.0034 -0.0541 -0.4908
  478MOL0     H63051   0.606   4.757   1.666 -1.4281 -2.6269 -1.6719
  478MOL0     H63052   0.396   4.862   1.745 -0.9079  0.2091  0.9120
  478MOL0     H63053   0.400   4.756   1.890  0.8404 -1.1051  0.6851
  478MOL0     H63054   0.384   4.672   1.600 -0.5644 -2.3161 -1.3262
  478MOL0     H63055   0.396   4.564   1.743  0.8124  2.3308  1.9281
  478MOL0     H63056   0.161   4.750   1.690 -2.0741 -1.2661 -3.1100
  478MOL0     H63057   0.162   4.603   1.793  1.1766 -3.7099 -0.2697
  478MOL0     H63058   0.083   4.465   1.347  2.5161  5.0341 -1.1049
  478MOL0     H63059  -0.141   4.450   1.276 -0.1909 -2.6047  1.7477
  478MOL0     H63060  -0.608   4.674   1.361  0.3986 -0.9144 -0.7217
  478MOL0     H63061  -0.836   4.655   1.280  1.1981  0.0886 -1.4102
  478MOL0     H63062  -1.083   4.284   1.413  0.1353  3.4952  0.1258
  478MOL0     H63063  -0.992   4.243   1.280  2.3300  1.1521  2.1240
  478MOL0     H63064  -1.245   4.391   1.238  0.3316  1.1464 -2.6157
  478MOL0     H63065  -1.221   4.214   1.216  0.5461 -0.4228  1.2779
  478MOL0     H63066  -1.054   4.279   1.031 -1.3575 -0.8668 -0.5876
  478MOL0     H63067  -1.094   4.443   1.051 -0.3549  0.7873  0.6808
  478MOL0     H63068  -1.203   4.283   0.878 -1.7617 -0.7011 -1.0704
  478MOL0     H63069  -1.300   4.216   0.994  0.2146  0.4865  0.6928
  478MOL0     H63070  -1.323   4.494   0.882 -2.9265  0.2407 -1.5584
  478MOL0     H63071  -1.381   4.468   1.052  2.1443  1.9948  0.5772
  478MOL0     H63072  -1.525   4.283   0.962 -2.6589  1.5133  0.5268
  478MOL0     H63073  -1.451   4.305   0.806 -0.8118 -1.1760 -0.2711
  478MOL0     H63074  -1.616   4.504   0.965  2.0526 -0.7328  0.2663
  478MOL0     H63075  -1.532   4.550   0.801  0.6672 -1.6204 -2.7728
  478MOL0     H63076  -1.751   4.333   0.822 -0.9253 -0.2220  0.0929
  478MOL0     H63077  -1.684   4.428   0.682 -1.9793 -3.0020 -0.5605
  478MOL0     H63078  -0.858   4.259   1.444 -0.9605  1.4467  2.0527
  478MOL0     H63079  -0.617   4.267   1.512 -1.4288 -0.2560  1.4062
  478MOL0     H63080  -0.285   4.641   1.641  1.0730  1.6279  0.1457
  478MOL0     H63081  -0.063   4.661   1.717  0.3750  0.2218 -1.1899
  478MOL0     H63082   1.687   5.032   1.746 -0.1107 -0.0242 -1.6500
  478MOL0     H63083   1.942   4.989   1.742 -1.3065  0.2688 -0.8037
  478MOL0     H63084   2.269   5.031   1.900 -0.5718  3.0945 -0.8740
  478MOL0     H63085   2.506   4.941   1.960  1.5787 -1.6421 -0.7257
  478MOL0     H63086   2.722   4.846   1.931  0.0882  0.0426  2.2704
  478MOL0     H63087   2.720   4.990   2.035  0.4073  0.9854 -0.6123
  478MOL0     H63088   2.941   4.957   1.835 -0.5145 -0.9393 -0.7834
  478MOL0     H63089   2.947   5.029   2.000  1.6761 -1.2026 -0.4344
  478MOL0     H63090   2.953   4.728   1.924 -0.4901  0.2587  0.0991
  478MOL0     H63091   2.934   4.787   2.084 -1.6434  0.3050 -0.7193
  478MOL0     H63092   3.175   4.859   1.901 -2.2100 -2.3404 -0.8846
  478MOL0     H63093   3.149   4.910   2.076 -0.8785  1.1842  1.0800
  478MOL0     H63094   3.297   4.511   2.098  0.5481  0.2031  1.3364
  478MOL0     H63095   2.662   5.167   1.638 -0.0888  0.5313 -0.4025
  478MOL0     H63096   2.420   5.254   1.581 -2.3224  1.1388  1.8028
  479MOL0     O63097   4.257   8.771   9.901 -0.2339  0.7629  0.9179
  479MOL0     C63098   4.256   8.872   9.969 -1.3564 -0.1097 -0.0371
  479MOL0     O63099   4.182   8.890  10.090 -0.3221 -0.2240 -0.2907
  479MOL0     C63100   4.140   8.781  10.165 -0.2812 -0.1297 -0.0994
  479MOL0     C63101   4.142   8.647  10.129  0.3457 -0.2049  0.1265
  479MOL0     C63102   4.082   8.557  10.219  0.0556 -0.2852 -0.3619
  479MOL0     C63103   4.029   8.590  10.344 -0.0414  0.1686  0.3259
  479MOL0     O63104   3.973   8.488  10.415 -0.3876  0.5687  0.3436
  479MOL0     C63105   3.899   8.508  10.536  0.4218 -0.4748  0.1665
  479MOL0     C63106   3.847   8.369  10.578  0.4531 -0.2941  0.3354
  479MOL0     C63107   3.786   8.390  10.716  0.0750 -0.4532  0.3364
  479MOL0     C63108   3.735   8.267  10.782 -0.9677 -0.4979  0.5768
  479MOL0     C63109   3.846   8.159  10.809 -0.5501 -0.9148 -0.6801
  479MOL0     C63110   3.790   8.042  10.899  0.3413 -0.1324 -0.5024
  479MOL0     C63111   3.855   7.905  10.883  0.1589 -1.0914 -0.3544
  479MOL0     C63112   4.005   7.908  10.884 -0.3381 -0.6687  0.0156
  479MOL0     N63113   4.051   7.770  10.859 -0.4145 -0.4577  0.3721
  479MOL0     C63114   4.081   7.675  10.962  0.5367 -0.2847  0.5174
  479MOL0     C63115   4.167   7.587  10.901 -0.0475  0.7607  0.1464
  479MOL0     C63116   4.236   7.467  10.962  0.1044  1.0044 -0.0960
  479MOL0     C63117   4.337   7.385  10.870  0.2212  0.1569  0.3062
  479MOL0     C63118   4.426   7.296  10.963 -0.3115  0.6833 -0.4604
  479MOL0     C63119   4.556   7.243  10.894  0.5154  0.0147  1.0718
  479MOL0     O63120   4.629   7.166  10.990  0.3748 -0.3090  0.2706
  479MOL0     C63121   4.753   7.138  10.962 -0.6101  0.3563 -0.1369
  479MOL0     C63122   4.814   7.035  11.044  0.1385  0.3243 -0.0898
  479MOL0     C63123   4.943   6.980  11.018 -0.3863  0.8357  0.0570
  479MOL0     C63124   5.020   7.031  10.913 -0.1934 -0.6868  0.0595
  479MOL0     C63125   5.157   6.990  10.888 -0.5404 -0.4075 -0.6046
  479MOL0     O63126   5.208   7.009  10.774  0.0740 -0.5125 -0.2388
  479MOL0     C63127   5.341   7.014  10.746  0.6022 -0.4444  0.0159
  479MOL0     C63128   5.424   6.901  10.743  0.6628  0.1517 -0.5666
  479MOL0     C63129   5.553   6.902  10.702 -0.3577  0.1593  0.0431
  479MOL0     C63130   5.609   7.023  10.647  0.7614  0.2748 -0.7740
  479MOL0     O63131   5.737   7.032  10.595 -0.4559  0.2508  1.2882
  479MOL0     C63132   5.803   6.915  10.555  0.9866 -0.3811 -0.6401
  479MOL0     C63133   5.927   6.950  10.470  0.1651  0.4143 -0.5686
  479MOL0     C63134   6.003   6.815  10.457  0.8398  0.3305  0.9450
  479MOL0     C63135   6.106   6.840  10.340 -0.0315  0.2241  0.0016
  479MOL0     C63136   6.221   6.724  10.340  0.4507 -0.9068  0.0096
  479MOL0     C63137   6.330   6.753  10.235  0.0159 -0.0075 -0.5297
  479MOL0     C63138   6.388   6.895  10.238  0.0668  0.6035  0.3807
  479MOL0     C63139   6.501   6.904  10.143 -0.0868  1.3450  1.6666
  479MOL0    Cl63140   6.426   6.956   9.988 -0.5564 -0.1806 -0.0726
  479MOL0     C63141   5.524   7.136  10.641 -0.0525 -0.5609 -0.0918
  479MOL0     C63142   5.392   7.133  10.694 -0.0961 -0.6731  0.1330
  479MOL0     O63143   5.215   6.931  10.983  1.1150 -0.4317  0.1531
  479MOL0     C63144   4.960   7.130  10.831  0.4351 -0.2097 -0.0411
  479MOL0     C63145   4.834   7.180  10.847 -0.7391 -0.1326 -1.1974
  479MOL0     N63146   4.168   7.610  10.765  0.6751  0.0420 -0.5826
  479MOL0     N63147   4.105   7.723  10.745 -0.0992  0.6864  0.6172
  479MOL0     C63148   4.025   8.727  10.378 -0.6643 -0.3038 -0.3548
  479MOL0     C63149   4.081   8.820  10.290  0.2020 -0.1045  0.6372
  479MOL0     C63150   4.334   8.984   9.911  0.0759  0.8813  0.1119
  479MOL0     C63151   4.329   9.111   9.974 -0.7934  0.3975 -0.2564
  479MOL0     C63152   4.371   9.227   9.898  0.3081 -0.1932  0.2005
  479MOL0     C63153   4.439   9.221   9.777  0.2585  0.0088 -0.0550
  479MOL0     O63154   4.478   9.339   9.721 -0.0643  0.5439  0.2401
  479MOL0     C63155   4.466   9.328   9.577 -0.1592 -0.0518  0.1173
  479MOL0     C63156   4.410   9.448   9.517 -0.2546 -0.3393  0.2485
  479MOL0     C63157   4.397   9.443   9.352 -0.5413  0.6486 -0.8186
  479MOL0     C63158   4.434   9.569   9.281 -0.2847 -0.4031  0.0704
  479MOL0     C63159   4.420   9.547   9.140  0.6727 -0.2173  0.6413
  479MOL0     C63160   4.412   9.526   9.018 -0.2897 -0.4066  0.5795
  479MOL0     C63161   4.444   9.093   9.720 -0.9716 -0.8266  0.1339
  479MOL0     C63162   4.394   8.983   9.787 -0.0464  0.7854 -0.2521
  479MOL0     H63163   4.186   8.609  10.037  0.5619  0.4556 -0.0487
  479MOL0     H63164   4.076   8.454  10.185 -2.0189 -0.1987 -0.3819
  479MOL0     H63165   3.812   8.574  10.530  3.5045  4.4329  2.7175
  479MOL0     H63166   3.958   8.539  10.623 -1.7841  0.0999  1.5619
  479MOL0     H63167   3.928   8.298  10.591 -1.9530 -2.6287  4.8583
  479MOL0     H63168   3.779   8.322  10.506  2.6407 -0.7962 -1.5186
  479MOL0     H63169   3.702   8.460  10.709  1.4903  1.1477 -1.9212
  479MOL0     H63170   3.854   8.440  10.785 -1.4919 -0.6841  2.1187
  479MOL0     H63171   3.689   8.294  10.878 -1.5637  0.3061  0.0734
  479MOL0     H63172   3.662   8.224  10.713  0.0000 -0.6238 -0.3985
  479MOL0     H63173   3.941   8.198  10.847 -0.5868 -0.9819 -0.5194
  479MOL0     H63174   3.880   8.123  10.711  2.2687  1.0879 -0.5601
  479MOL0     H63175   3.681   8.035  10.891  0.3728 -1.8025  0.0839
  479MOL0     H63176   3.807   8.071  11.003  0.2870  0.7190 -0.7308
  479MOL0     H63177   3.810   7.843  10.961  0.3385 -0.3667  0.3343
  479MOL0     H63178   3.825   7.869  10.784  0.3964 -1.1344 -0.4115
  479MOL0     H63179   4.045   7.939  10.981  1.5491  2.2837 -1.5715
  479MOL0     H63180   4.044   7.984  10.817 -0.1105  0.1670  1.0677
  479MOL0     H63181   4.061   7.682  11.068  2.5631  0.9830  0.8762
  479MOL0     H63182   4.150   7.414  11.003  1.5519 -0.0944  1.6766
  479MOL0     H63183   4.303   7.495  11.043 -1.0332 -0.4218  1.4069
  479MOL0     H63184   4.384   7.467  10.815  0.7199 -0.2343  0.1359
  479MOL0     H63185   4.288   7.321  10.796  1.1646  1.3761 -1.4553
  479MOL0     H63186   4.455   7.347  11.055  0.0767  2.5278 -1.5702
  479MOL0     H63187   4.367   7.208  10.990 -0.7228  1.4195  1.1360
  479MOL0     H63188   4.611   7.326  10.850  1.0915 -0.6667  0.4769
  479MOL0     H63189   4.528   7.168  10.818  0.4771 -0.8013  1.8719
  479MOL0     H63190   4.758   6.976  11.117 -1.1171  2.4057  0.7124
  479MOL0     H63191   4.986   6.904  11.083  1.9110  2.5301  0.6585
  479MOL0     H63192   5.388   6.805  10.779  5.9492 -2.6025 -1.5424
  479MOL0     H63193   5.616   6.814  10.703 -0.5228  0.0355 -0.1544
  479MOL0     H63194   5.739   6.847  10.497 -2.0268  0.9266  0.9051
  479MOL0     H63195   5.833   6.858  10.644 -0.1252  2.2215  1.5513
  479MOL0     H63196   5.980   7.036  10.511  0.6273 -0.3275  0.4031
  479MOL0     H63197   5.884   6.977  10.373 -0.6305 -1.3099 -0.7375
  479MOL0     H63198   5.956   6.720  10.430  2.3923 -0.3208  0.3658
  479MOL0     H63199   6.063   6.795  10.547  2.6608 -1.2819 -0.5342
  479MOL0     H63200   6.058   6.855  10.243 -0.0677  1.8174  0.2502
  479MOL0     H63201   6.151   6.936  10.365 -0.1989  0.9819 -2.3819
  479MOL0     H63202   6.183   6.623  10.322  2.2755 -1.3743 -1.4837
  479MOL0     H63203   6.260   6.728  10.442  0.3178  0.7229  0.0335
  479MOL0     H63204   6.287   6.731  10.136 -1.0929 -2.1737  0.3678
  479MOL0     H63205   6.399   6.672  10.259 -1.2232 -0.6041  1.2277
  479MOL0     H63206   6.313   6.970  10.214  0.0325  0.0015 -1.5393
  479MOL0     H63207   6.418   6.913  10.342 -2.7015 -0.7653  1.5292
  479MOL0     H63208   6.557   6.809  10.142 -1.9822  0.1752  1.2723
  479MOL0     H63209   6.583   6.970  10.172 -0.2271  1.3401  2.0812
  479MOL0     H63210   5.556   7.224  10.587  5.2391 -1.9269  0.1859
  479MOL0     H63211   5.329   7.221  10.691  2.5349  1.5038  2.2593
  479MOL0     H63212   5.030   7.167  10.757  1.4970 -0.9186  0.5866
  479MOL0     H63213   4.800   7.265  10.789 -3.5149 -0.0424  0.4054
  479MOL0     H63214   3.997   8.766  10.474 -0.8489  1.5572 -1.1327
  479MOL0     H63215   4.087   8.920  10.332  1.6647 -0.0869  0.4409
  479MOL0     H63216   4.295   9.120  10.076  2.5475  1.8330  0.8632
  479MOL0     H63217   4.374   9.325   9.944  0.1207 -0.4410  0.7492
  479MOL0     H63218   4.392   9.250   9.559 -0.1633 -1.7634  5.6340
  479MOL0     H63219   4.557   9.303   9.521 -1.8343 -0.1603 -2.7627
  479MOL0     H63220   4.317   9.463   9.573 -0.1996 -0.2201  0.3081
  479MOL0     H63221   4.469   9.536   9.546 -0.9506  0.0080  0.6312
  479MOL0     H63222   4.290   9.427   9.336 -0.1195 -0.9086 -2.3567
  479MOL0     H63223   4.462   9.360   9.324  0.0205  0.0150  2.0039
  479MOL0     H63224   4.380   9.656   9.320  1.9606  1.2374 -0.3200
  479MOL0     H63225   4.540   9.589   9.300 -0.4818  2.2344 -1.2246
  479MOL0     H63226   4.402   9.504   8.914 -0.3471 -4.6141  1.3012
  479MOL0     H63227   4.488   9.061   9.626 -1.1135 -1.6977  0.3556
  479MOL0     H63228   4.391   8.888   9.734 -4.4102 -0.6843  2.1596
  480MOL0     O63229   9.685   2.961   3.000 -0.0506  0.3179  0.0238
  480MOL0     C63230   9.649   3.065   2.947 -0.2241  0.4377  0.2244
  480MOL0     O63231   9.523   3.089   2.899  0.3593 -0.8228 -0.2532
  480MOL0     C63232   9.415   3.018   2.936 -0.4503  0.1901  0.4106
  480MOL0     C63233   9.408   2.946   3.054  0.8034  0.6545  0.1557
  480MOL0     C63234   9.292   2.886   3.097  0.4015 -0.4035  0.1048
  480MOL0     C63235   9.178   2.894   3.014  0.2436  0.9002 -0.8293
  480MOL0     O63236   9.072   2.816   3.052  1.3023 -0.4861 -0.3254
  480MOL0     C63237   9.111   2.687   3.050 -0.6253  0.6840 -0.0037
  480MOL0     C63238   9.009   2.576   3.045 -0.0068  0.9332  0.2482
  480MOL0     C63239   8.878   2.598   3.123 -0.1724 -0.1008  0.3262
  480MOL0     C63240   8.907   2.626   3.267 -0.5102  0.1415 -0.7175
  480MOL0     C63241   8.781   2.609   3.345 -0.5446  0.0247  0.0032
  480MOL0     C63242   8.756   2.460   3.382 -0.4239 -0.4340 -1.4174
  480MOL0     C63243   8.656   2.440   3.496 -0.0357 -0.4395 -0.0011
  480MOL0     C63244   8.565   2.307   3.510 -0.5558 -0.7763 -0.4753
  480MOL0     N63245   8.626   2.189   3.559 -0.2553  1.2278 -0.8670
  480MOL0     C63246   8.724   2.186   3.659  0.7902 -0.2937  0.4019
  480MOL0     C63247   8.749   2.055   3.669 -0.6725 -0.6290 -0.2968
  480MOL0     C63248   8.868   1.986   3.740  0.1831  0.8135 -0.3840
  480MOL0     C63249   8.812   1.877   3.839  0.4067 -0.1251  0.2498
  480MOL0     C63250   8.907   1.844   3.957 -0.2315 -0.0503 -0.4370
  480MOL0     C63251   9.018   1.751   3.910 -0.4736 -0.2292 -0.0121
  480MOL0     O63252   9.097   1.715   4.028 -0.1311 -0.2672  0.5935
  480MOL0     C63253   9.207   1.645   3.999  0.0124  0.6300  0.5086
  480MOL0     C63254   9.276   1.615   3.872  0.1531  0.9762  0.0554
  480MOL0     C63255   9.407   1.568   3.873  0.1792 -0.6634  0.2079
  480MOL0     C63256   9.481   1.549   3.989 -0.1933  0.0074  0.1094
  480MOL0     C63257   9.620   1.510   3.974  0.0769  0.4472 -0.1191
  480MOL0     O63258   9.651   1.417   3.877  0.5448  0.0882  0.2000
  480MOL0     C63259   9.786   1.394   3.867  0.4974  0.7215 -0.3243
  480MOL0     C63260   9.859   1.482   3.788 -0.2607  0.0266  0.6261
  480MOL0     C63261  10.000   1.477   3.785  0.3470  0.1947 -0.1021
  480MOL0     C63262  10.073   1.367   3.848  0.6841  0.5473 -0.4288
  480MOL0     O63263  10.211   1.377   3.840  0.2700  0.1276 -0.3724
  480MOL0     C63264  10.269   1.422   3.967  0.3222  0.1594 -0.0492
  480MOL0     C63265  10.422   1.379   3.970 -0.1407 -0.6503  0.4623
  480MOL0     C63266  10.500   1.477   3.876 -0.6164 -0.1585 -0.2523
  480MOL0     C63267  10.658   1.433   3.866 -0.2210 -0.5712 -0.5853
  480MOL0     C63268  10.741   1.557   3.859 -0.2283  0.2418 -0.1439
  480MOL0     C63269  10.724   1.654   3.746 -0.5193  0.4001  0.2264
  480MOL0     C63270  10.795   1.788   3.772  0.1472 -0.1919  0.3266
  480MOL0     C63271  10.943   1.768   3.791  0.0857  0.5557  0.1866
  480MOL0    Cl63272  11.026   1.689   3.662 -0.1709  0.1591  0.7609
  480MOL0     C63273  10.003   1.264   3.914  0.2452  0.1230 -0.5679
  480MOL0     C63274   9.862   1.282   3.932 -0.0539 -0.7532 -0.4229
  480MOL0     O63275   9.700   1.550   4.059  0.5412  0.2288  0.9286
  480MOL0     C63276   9.415   1.589   4.113 -0.4979 -0.2485  0.0735
  480MOL0     C63277   9.282   1.626   4.115 -0.0029  0.0086  0.2654
  480MOL0     N63278   8.663   1.983   3.586 -0.5759 -0.5651 -0.4875
  480MOL0     N63279   8.592   2.065   3.520  0.8376 -0.4122 -0.0315
  480MOL0     C63280   9.184   2.955   2.889  0.6477  0.1696  0.1562
  480MOL0     C63281   9.295   3.024   2.857 -0.6616 -0.6733  0.5940
  480MOL0     C63282   9.745   3.170   2.929 -0.5170 -0.1407 -0.5126
  480MOL0     C63283   9.876   3.116   2.910  0.0651 -0.3074 -1.0282
  480MOL0     C63284   9.978   3.209   2.892  0.3503  0.1109  0.6549
  480MOL0     C63285   9.962   3.346   2.890 -0.0703 -0.5478 -0.1078
  480MOL0     O63286  10.078   3.425   2.865 -0.3358  0.3090  0.2478
  480MOL0     C63287  10.062   3.557   2.835 -0.4098 -0.0505 -0.4330
  480MOL0     C63288  10.139   3.594   2.714 -0.3696  0.4266  0.0137
  480MOL0     C63289  10.130   3.505   2.589 -0.8559  1.1421 -1.1038
  480MOL0     C63290  10.010   3.514   2.507  0.4725 -0.2247 -0.8032
  480MOL0     C63291  10.041   3.462   2.372  0.8138  0.0563 -0.1044
  480MOL0     C63292  10.081   3.410   2.272  0.6841  0.3845  0.2901
  480MOL0     C63293   9.831   3.396   2.911 -0.5155  0.3418 -0.5245
  480MOL0     C63294   9.722   3.303   2.926  0.5656  0.8329 -0.5243
  480MOL0     H63295   9.485   2.948   3.131 -0.7988 -1.6114  1.9450
  480MOL0     H63296   9.274   2.844   3.196 -2.7014 -1.1608 -0.7036
  480MOL0     H63297   9.182   2.649   3.125 -0.6856 -1.0838 -0.7838
  480MOL0     H63298   9.165   2.674   2.956 -1.5865  0.2560 -0.5177
  480MOL0     H63299   9.051   2.485   3.089 -0.7167 -0.6237 -2.1155
  480MOL0     H63300   8.989   2.557   2.939 -2.9943  0.2128  0.8713
  480MOL0     H63301   8.826   2.502   3.112  1.6462 -1.0653 -0.3175
  480MOL0     H63302   8.827   2.684   3.078  2.2358  1.3468  0.2125
  480MOL0     H63303   8.976   2.543   3.287 -3.2426 -2.3757 -1.0979
  480MOL0     H63304   8.942   2.728   3.288 -0.7916 -0.2747  2.1637
  480MOL0     H63305   8.698   2.641   3.282  0.0188 -0.3513 -0.9394
  480MOL0     H63306   8.789   2.675   3.432  1.3036  1.2385 -1.0331
  480MOL0     H63307   8.851   2.416   3.414 -0.7195  0.9163  1.6818
  480MOL0     H63308   8.733   2.403   3.291  0.3753 -1.8410 -0.7642
  480MOL0     H63309   8.717   2.462   3.584  2.6206 -2.3829 -1.1761
  480MOL0     H63310   8.578   2.513   3.472 -0.8032 -1.2626 -0.0335
  480MOL0     H63311   8.550   2.295   3.402  0.6666  1.9714 -1.0557
  480MOL0     H63312   8.467   2.334   3.551 -1.2944 -0.0154 -2.5967
  480MOL0     H63313   8.762   2.273   3.711  0.1623  0.1870  0.0698
  480MOL0     H63314   8.926   2.061   3.795 -2.1401  1.0631  1.8899
  480MOL0     H63315   8.931   1.937   3.664 -2.6748  1.1078 -3.1356
  480MOL0     H63316   8.769   1.793   3.784 -1.0929  0.4969  0.4158
  480MOL0     H63317   8.716   1.913   3.876  1.2797  0.8090  1.6805
  480MOL0     H63318   8.943   1.925   4.021 -1.5162  0.0618  0.1750
  480MOL0     H63319   8.843   1.781   4.019  0.8393 -1.6739 -0.9192
  480MOL0     H63320   9.077   1.812   3.841 -0.1570 -2.1701 -1.5047
  480MOL0     H63321   8.979   1.665   3.856 -2.3480 -0.2857  1.3198
  480MOL0     H63322   9.215   1.620   3.783  0.4570 -3.3570 -0.5970
  480MOL0     H63323   9.445   1.538   3.776  1.2567  1.9247 -0.2693
  480MOL0     H63324   9.809   1.565   3.739 -0.8756  0.4851  1.9662
  480MOL0     H63325  10.051   1.544   3.717  1.7313 -2.1018 -1.4499
  480MOL0     H63326  10.201   1.392   4.048 -3.6622  3.0433 -2.0191
  480MOL0     H63327  10.266   1.530   3.980  0.3082  0.0393  1.0558
  480MOL0     H63328  10.439   1.273   3.950 -3.8883 -1.1519 -0.8460
  480MOL0     H63329  10.460   1.392   4.072 -3.4680 -3.5077  2.2850
  480MOL0     H63330  10.479   1.579   3.910  0.8688  0.2016 -0.3626
  480MOL0     H63331  10.459   1.463   3.775  1.1876  0.1525 -1.0748
  480MOL0     H63332  10.690   1.367   3.947  3.1452  0.9092 -0.5401
  480MOL0     H63333  10.672   1.378   3.773 -6.0614 -0.1396 -2.1121
  480MOL0     H63334  10.846   1.527   3.864  0.0326  1.0755 -0.3861
  480MOL0     H63335  10.722   1.611   3.952  1.3264  0.0449  0.3056
  480MOL0     H63336  10.617   1.674   3.736 -0.8361  0.1457  2.6284
  480MOL0     H63337  10.753   1.605   3.652  0.0796  0.2488  0.4870
  480MOL0     H63338  10.781   1.851   3.684  0.5298  0.6593  0.8610
  480MOL0     H63339  10.757   1.842   3.860  1.9797 -0.2029  1.1748
  480MOL0     H63340  10.964   1.710   3.880  0.5694 -0.8535 -0.8118
  480MOL0     H63341  10.997   1.863   3.789 -1.5304  1.5122 -1.2080
  480MOL0     H63342  10.040   1.173   3.960 -3.3911 -0.1551  2.3158
  480MOL0     H63343   9.813   1.213   4.000  0.8878  2.0303  3.4051
  480MOL0     H63344   9.469   1.592   4.207  3.2439  1.3276 -1.9126
  480MOL0     H63345   9.239   1.671   4.204 -1.0720 -0.2840 -0.0858
  480MOL0     H63346   9.099   2.957   2.822 -0.4549  1.0054  1.5263
  480MOL0     H63347   9.293   3.066   2.757 -0.1958  1.6936  1.5065
  480MOL0     H63348   9.901   3.011   2.917 -1.9519 -0.9665 -2.6762
  480MOL0     H63349  10.076   3.162   2.882 -0.4014 -1.2248 -0.8853
  480MOL0     H63350  10.092   3.621   2.919  1.2747  1.0643 -1.8091
  480MOL0     H63351   9.958   3.579   2.808  0.2897  0.7885 -2.7341
  480MOL0     H63352  10.116   3.699   2.697 -4.6887 -0.4333 -0.5096
  480MOL0     H63353  10.244   3.597   2.743 -0.8709 -0.8091  2.2413
  480MOL0     H63354  10.149   3.402   2.623  0.8485  2.0959  1.0981
  480MOL0     H63355  10.216   3.532   2.527  0.3508  0.8275  0.3695
  480MOL0     H63356   9.926   3.460   2.552 -1.3682  4.1911  1.7775
  480MOL0     H63357   9.990   3.621   2.496 -1.6466 -0.5397 -0.3951
  480MOL0     H63358  10.136   3.372   2.188 -1.2093  0.0614 -0.8524
  480MOL0     H63359   9.808   3.501   2.923  1.5641  1.0389 -2.1034
  480MOL0     H63360   9.619   3.331   2.945  1.0590  2.3651  0.0610
  481MOL0     O63361   9.265   2.894   1.930 -0.3722  0.9598 -0.2469
  481MOL0     C63362   9.255   2.794   2.001 -0.1350  0.4183  0.2654
  481MOL0     O63363   9.364   2.714   2.041 -0.3487  1.5298  0.0183
  481MOL0     C63364   9.489   2.743   2.004 -0.0273 -0.4175 -0.0473
  481MOL0     C63365   9.556   2.642   1.932  0.4685  0.9514 -0.1011
  481MOL0     C63366   9.690   2.662   1.888  0.0484  0.0314 -0.8064
  481MOL0     C63367   9.751   2.787   1.913 -0.7155 -0.0725  0.1692
  481MOL0     O63368   9.878   2.806   1.863  0.0873  0.0501 -0.5626
  481MOL0     C63369   9.941   2.717   1.769 -0.3802  0.2890  0.1322
  481MOL0     C63370  10.074   2.765   1.709  0.5259  0.0469 -0.3341
  481MOL0     C63371  10.184   2.730   1.805  0.1943  0.7294  0.7864
  481MOL0     C63372  10.321   2.740   1.732 -0.0993  0.2729  0.6629
  481MOL0     C63373  10.441   2.680   1.826 -0.6774  0.0331 -0.5397
  481MOL0     C63374  10.557   2.622   1.741 -0.0734 -0.1015  0.2335
  481MOL0     C63375  10.655   2.547   1.838 -1.6818 -0.3320  0.2327
  481MOL0     C63376  10.598   2.463   1.956 -0.7925  0.6225  1.0406
  481MOL0     N63377  10.503   2.363   1.920  0.4904  0.5486 -0.7484
  481MOL0     C63378  10.493   2.279   1.813 -0.4256 -0.9327 -1.3226
  481MOL0     C63379  10.391   2.196   1.836  1.0668  0.6746  0.5896
  481MOL0     C63380  10.364   2.077   1.757  0.1486  0.5948 -0.1092
  481MOL0     C63381  10.452   1.959   1.788 -0.3053  0.2760  0.1510
  481MOL0     C63382  10.405   1.880   1.912 -0.8855  0.0633  0.3119
  481MOL0     C63383  10.260   1.847   1.942 -0.0752 -0.8446 -0.1625
  481MOL0     O63384  10.210   1.792   1.815  0.0564 -0.5735  0.0748
  481MOL0     C63385  10.078   1.813   1.773  0.2453 -0.2693 -0.5043
  481MOL0     C63386  10.039   1.754   1.655 -0.9040 -0.0817  0.2235
  481MOL0     C63387   9.906   1.741   1.621  0.0467  0.4663  0.1395
  481MOL0     C63388   9.808   1.821   1.692 -0.2878  0.2342  0.2287
  481MOL0     C63389   9.666   1.802   1.672 -0.8086  0.2508  0.2892
  481MOL0     O63390   9.580   1.902   1.674 -0.1164  0.3085  0.2539
  481MOL0     C63391   9.461   1.880   1.614  0.3384 -0.0185 -0.1246
  481MOL0     C63392   9.436   1.931   1.494 -0.0144  0.2135  0.2720
  481MOL0     C63393   9.313   1.899   1.431 -0.6157 -0.1023 -1.3323
  481MOL0     C63394   9.211   1.830   1.491  0.2720  0.2273 -0.2957
  481MOL0     O63395   9.080   1.802   1.453 -0.5868 -0.1069  0.2137
  481MOL0     C63396   9.026   1.879   1.341 -0.0586  0.1063 -0.1437
  481MOL0     C63397   9.050   1.802   1.212 -0.3696 -0.2716 -0.3727
  481MOL0     C63398   8.934   1.794   1.127 -0.3224 -0.4244  0.2070
  481MOL0     C63399   8.971   1.705   0.999  0.0280 -0.0406  0.5779
  481MOL0     C63400   8.857   1.667   0.897 -0.6401  0.2974  0.6036
  481MOL0     C63401   8.743   1.765   0.907  0.1255  0.0974  0.0503
  481MOL0     C63402   8.777   1.900   0.845 -1.0957 -0.5598  0.6463
  481MOL0     C63403   8.651   1.960   0.770 -0.1523  0.7595 -0.3545
  481MOL0    Cl63404   8.528   2.018   0.887  0.0004  0.0421  0.2016
  481MOL0     C63405   9.238   1.781   1.611 -0.0986  0.1975 -0.1822
  481MOL0     C63406   9.364   1.803   1.676  1.5438  0.5023 -0.2651
  481MOL0     O63407   9.639   1.683   1.652 -0.1313  0.3906  0.0211
  481MOL0     C63408   9.850   1.889   1.802 -0.4973  0.4664  0.9381
  481MOL0     C63409   9.980   1.877   1.849  0.4269  0.5693 -0.2624
  481MOL0     N63410  10.315   2.244   1.940 -0.4678 -0.0025 -0.2797
  481MOL0     N63411  10.392   2.341   1.998 -0.2677 -0.4026  0.1078
  481MOL0     C63412   9.688   2.883   1.990  0.8552 -0.0722 -0.3580
  481MOL0     C63413   9.561   2.855   2.040 -0.4881 -1.3960  0.1235
  481MOL0     C63414   9.118   2.739   2.040 -0.0154 -0.6882  0.5037
  481MOL0     C63415   9.107   2.630   2.123  0.9295  0.5016  0.4199
  481MOL0     C63416   8.990   2.577   2.176  0.6305 -0.2934 -1.2741
  481MOL0     C63417   8.874   2.625   2.130 -0.0074  0.1201  0.4954
  481MOL0     O63418   8.763   2.557   2.172  0.9582 -0.6517  0.6938
  481MOL0     C63419   8.634   2.597   2.124 -0.1248 -0.1202  0.9253
  481MOL0     C63420   8.555   2.679   2.224 -0.1969 -0.6435  0.6147
  481MOL0     C63421   8.514   2.591   2.342  0.2293 -0.8886 -0.8130
  481MOL0     C63422   8.453   2.689   2.429  0.5600  0.4433 -0.2318
  481MOL0     C63423   8.396   2.615   2.544 -0.0799  0.8841  0.2506
  481MOL0     C63424   8.365   2.547   2.637  0.3233 -0.4188  0.1006
  481MOL0     C63425   8.881   2.741   2.053  0.8097 -0.4966  1.3433
  481MOL0     C63426   8.997   2.804   2.006  0.0096 -0.4792 -0.2721
  481MOL0     H63427   9.492   2.556   1.915  0.5403  0.6700  1.0286
  481MOL0     H63428   9.731   2.568   1.852 -0.1238 -1.8791  3.4194
  481MOL0     H63429   9.882   2.688   1.682 -1.5570 -0.3176  1.0963
  481MOL0     H63430   9.968   2.627   1.826 -0.0292  1.0848  1.2506
  481MOL0     H63431  10.074   2.873   1.696 -2.5546  0.2719  0.8349
  481MOL0     H63432  10.092   2.713   1.613  0.4799 -0.8938  0.1512
  481MOL0     H63433  10.183   2.622   1.821  2.0050  0.4559 -0.5711
  481MOL0     H63434  10.177   2.790   1.896 -0.9488  1.2996  0.3468
  481MOL0     H63435  10.324   2.673   1.645  2.9666  2.2838 -0.9848
  481MOL0     H63436  10.350   2.842   1.707  0.1476  0.2498  0.8440
  481MOL0     H63437  10.395   2.600   1.883  0.6075  0.2727  0.8730
  481MOL0     H63438  10.480   2.754   1.897  1.1915  2.4376 -3.7716
  481MOL0     H63439  10.617   2.698   1.690 -0.8659  1.6457  1.7821
  481MOL0     H63440  10.515   2.551   1.669  0.9774  1.9998 -2.6671
  481MOL0     H63441  10.719   2.483   1.777  1.0762  4.0000 -1.9254
  481MOL0     H63442  10.730   2.618   1.873 -1.6673 -0.6848  0.9314
  481MOL0     H63443  10.551   2.532   2.026  0.5605  3.1893 -0.4173
  481MOL0     H63444  10.689   2.427   2.004  0.6285  1.1430 -1.1261
  481MOL0     H63445  10.571   2.273   1.738  0.3951  0.3994 -0.6123
  481MOL0     H63446  10.376   2.096   1.650  0.3679 -1.2949 -0.4629
  481MOL0     H63447  10.261   2.040   1.762  0.5284 -0.3595  1.0292
  481MOL0     H63448  10.555   1.994   1.797 -0.0564 -0.1881 -0.8014
  481MOL0     H63449  10.446   1.889   1.704 -0.6544 -0.3617  0.6967
  481MOL0     H63450  10.463   1.787   1.919 -0.3945  0.3632  0.2380
  481MOL0     H63451  10.437   1.935   2.001  3.3473  0.0540 -0.9776
  481MOL0     H63452  10.202   1.932   1.981 -1.9013 -1.7012 -0.8862
  481MOL0     H63453  10.248   1.766   2.014  1.6394  0.1528  1.3303
  481MOL0     H63454  10.114   1.703   1.595  0.2664 -1.2388  2.5380
  481MOL0     H63455   9.869   1.671   1.547 -1.2329  2.4262 -1.1840
  481MOL0     H63456   9.503   2.005   1.451 -1.0639  1.1661  0.2256
  481MOL0     H63457   9.311   1.944   1.332  1.8473 -0.8860 -1.7970
  481MOL0     H63458   9.071   1.978   1.327 -0.1566  0.3165  0.9349
  481MOL0     H63459   8.918   1.888   1.351  0.1012  1.3079  0.8199
  481MOL0     H63460   9.077   1.699   1.239  2.1188  0.9397  2.3033
  481MOL0     H63461   9.141   1.834   1.162  0.5363 -1.2459  0.5728
  481MOL0     H63462   8.904   1.895   1.101 -2.9865 -0.6804  1.9807
  481MOL0     H63463   8.854   1.751   1.188 -0.3875  0.5501  0.8246
  481MOL0     H63464   9.047   1.762   0.945 -0.1176 -1.0181 -0.7097
  481MOL0     H63465   9.016   1.607   1.019 -0.3401 -0.0712  1.2815
  481MOL0     H63466   8.829   1.577   0.952  0.5282  1.7280  3.8301
  481MOL0     H63467   8.889   1.648   0.794 -2.9740 -0.0241 -0.1055
  481MOL0     H63468   8.703   1.779   1.008  0.0154  1.3449 -0.1501
  481MOL0     H63469   8.659   1.727   0.849 -0.4175  0.5179  0.5450
  481MOL0     H63470   8.805   1.966   0.927  3.4748 -2.4947  0.9358
  481MOL0     H63471   8.860   1.892   0.775 -0.4149 -1.6382  1.5487
  481MOL0     H63472   8.606   1.890   0.699 -2.7703 -0.4216  2.2517
  481MOL0     H63473   8.690   2.051   0.723 -0.7788  1.7592  0.9880
  481MOL0     H63474   9.168   1.716   1.662 -0.6363  2.0769  1.5896
  481MOL0     H63475   9.383   1.759   1.774 -2.8291  0.2664  0.7049
  481MOL0     H63476   9.778   1.949   1.857 -1.6869 -1.5175  1.6639
  481MOL0     H63477   9.998   1.947   1.929 -0.4775  1.1217 -0.5299
  481MOL0     H63478   9.736   2.976   2.018  0.2005 -0.3108  1.7490
  481MOL0     H63479   9.505   2.927   2.099  1.3441 -0.9485  1.4307
  481MOL0     H63480   9.201   2.585   2.153  2.3756  2.1677 -1.3438
  481MOL0     H63481   9.000   2.492   2.242  1.5434  0.3469 -0.5607
  481MOL0     H63482   8.566   2.514   2.104  1.3893 -1.2218  0.1843
  481MOL0     H63483   8.646   2.649   2.028  2.9095  1.4397  1.9896
  481MOL0     H63484   8.613   2.766   2.256 -0.2214 -0.0433 -0.9111
  481MOL0     H63485   8.478   2.733   2.168  1.3666  1.0536  0.0149
  481MOL0     H63486   8.598   2.539   2.390  0.0586  1.6007  2.5425
  481MOL0     H63487   8.431   2.524   2.319 -0.9019 -0.2685  1.2437
  481MOL0     H63488   8.529   2.762   2.460  2.5270 -1.9045  0.7213
  481MOL0     H63489   8.371   2.734   2.371  2.3733 -0.4141 -3.7539
  481MOL0     H63490   8.330   2.488   2.719 -1.7131 -0.8813 -1.0478
  481MOL0     H63491   8.798   2.797   2.011  2.3579  0.4598 -0.6196
  481MOL0     H63492   8.992   2.882   1.930  0.3919  0.6373  0.8060
  482MOL0     O63493   9.457   8.505   9.114 -0.0318 -0.0969 -0.2502
  482MOL0     C63494   9.384   8.583   9.049 -0.0569 -0.3907  0.4594
  482MOL0     O63495   9.243   8.575   9.050 -0.5398 -0.2598  0.1355
  482MOL0     C63496   9.174   8.490   9.130  0.5662  0.6180 -0.6846
  482MOL0     C63497   9.200   8.463   9.261  0.1836  0.2534 -0.1583
  482MOL0     C63498   9.112   8.394   9.344 -0.0742  0.1387  1.1420
  482MOL0     C63499   8.997   8.337   9.288  1.1530  0.1363  0.4832
  482MOL0     O63500   8.893   8.284   9.374 -0.3421 -0.8786  0.0556
  482MOL0     C63501   8.765   8.240   9.327  0.5012 -0.1850  0.4678
  482MOL0     C63502   8.690   8.170   9.440  0.6186 -0.5790  0.5139
  482MOL0     C63503   8.562   8.091   9.381  0.1495  0.0666 -0.3458
  482MOL0     C63504   8.459   8.180   9.326  0.2721 -0.0457 -0.0785
  482MOL0     C63505   8.324   8.105   9.290 -0.3296  0.7269  0.1208
  482MOL0     C63506   8.231   8.070   9.406  0.3187  0.6023  0.2485
  482MOL0     C63507   8.081   8.044   9.377  0.6228  0.0530 -1.2053
  482MOL0     C63508   7.991   8.038   9.507  0.1195  0.7234  0.4087
  482MOL0     N63509   7.969   7.895   9.552 -0.1497  0.3555  0.2806
  482MOL0     C63510   8.044   7.785   9.538 -0.4154 -1.1391  0.5524
  482MOL0     C63511   7.984   7.679   9.590 -0.8590  0.2372 -0.3131
  482MOL0     C63512   8.041   7.541   9.601  0.6839  0.4279  0.5197
  482MOL0     C63513   7.968   7.431   9.538  0.8803  0.6181  0.1190
  482MOL0     C63514   7.838   7.383   9.611  0.6622  0.9189  0.3595
  482MOL0     C63515   7.731   7.376   9.503 -1.1971  0.8991 -1.1447
  482MOL0     O63516   7.619   7.307   9.560  0.2880 -0.1849  0.2284
  482MOL0     C63517   7.493   7.346   9.522 -0.3066 -0.9341  0.8149
  482MOL0     C63518   7.389   7.289   9.595  0.0704 -0.2111  0.5521
  482MOL0     C63519   7.261   7.330   9.584  0.0142 -0.3829  0.9561
  482MOL0     C63520   7.228   7.423   9.484  0.9269 -0.7943 -0.8233
  482MOL0     C63521   7.086   7.469   9.462 -0.1533  0.4342  0.3142
  482MOL0     O63522   6.981   7.398   9.518 -0.1262  0.1527 -0.0951
  482MOL0     C63523   6.853   7.430   9.499 -0.3292 -0.4589 -0.1209
  482MOL0     C63524   6.808   7.554   9.546 -0.0335 -0.2332 -0.0976
  482MOL0     C63525   6.680   7.606   9.522  0.7672  0.2010  0.6882
  482MOL0     C63526   6.590   7.511   9.462 -0.0342  0.0368  0.1261
  482MOL0     O63527   6.455   7.536   9.435 -0.1500 -0.5986  0.4154
  482MOL0     C63528   6.404   7.669   9.423 -0.1235 -0.1953 -0.0367
  482MOL0     C63529   6.269   7.663   9.337 -1.0533 -0.6399 -0.2207
  482MOL0     C63530   6.217   7.805   9.326  0.8794  0.1007 -0.5444
  482MOL0     C63531   6.088   7.808   9.231 -0.2387  0.2785  0.0359
  482MOL0     C63532   6.051   7.958   9.207 -0.1936 -0.5699  0.2635
  482MOL0     C63533   6.011   8.027   9.339 -0.0318  0.6390  0.4611
  482MOL0     C63534   5.976   8.177   9.319 -0.5568  0.0546  0.2110
  482MOL0     C63535   5.850   8.215   9.241  0.4174 -0.2799  0.5177
  482MOL0    Cl63536   5.862   8.211   9.055  0.1997  0.0209  0.3852
  482MOL0     C63537   6.628   7.381   9.427 -0.5594  0.4398 -0.2305
  482MOL0     C63538   6.763   7.334   9.452 -0.5018 -0.8509  0.1680
  482MOL0     O63539   7.074   7.576   9.408 -0.0121 -0.0240  0.7406
  482MOL0     C63540   7.329   7.471   9.405 -0.0239  0.2695  0.7276
  482MOL0     C63541   7.461   7.436   9.420 -0.1653  0.2545  0.2360
  482MOL0     N63542   7.862   7.731   9.638  0.2063  0.0991  0.2931
  482MOL0     N63543   7.863   7.855   9.613 -0.1052 -0.3919  0.1773
  482MOL0     C63544   8.985   8.342   9.148  0.1123 -0.3862 -0.2995
  482MOL0     C63545   9.071   8.419   9.069  0.1806 -0.2901  0.1214
  482MOL0     C63546   9.443   8.694   8.965 -0.3287  0.4342  0.5257
  482MOL0     C63547   9.370   8.813   8.940 -0.8524 -0.5585  0.3864
  482MOL0     C63548   9.429   8.919   8.879 -0.5021  0.2940 -0.2957
  482MOL0     C63549   9.562   8.916   8.839  0.8210 -0.1696  1.1495
  482MOL0     O63550   9.618   9.041   8.798  0.8238 -0.4210 -0.1509
  482MOL0     C63551   9.736   9.059   8.715  0.2072  0.1493 -0.3977
  482MOL0     C63552   9.703   8.987   8.583  0.2150  0.2011 -0.3515
  482MOL0     C63553   9.815   8.985   8.486 -0.3958  0.2146  1.2452
  482MOL0     C63554   9.805   8.890   8.366 -0.0966 -1.7813  0.0221
  482MOL0     C63555   9.690   8.915   8.279 -0.4380  0.5198  0.6918
  482MOL0     C63556   9.605   8.960   8.206  0.3071  0.8943  0.4648
  482MOL0     C63557   9.635   8.806   8.866 -0.4733  0.0812  0.6783
  482MOL0     C63558   9.576   8.693   8.921  0.6217 -0.4070 -0.6856
  482MOL0     H63559   9.291   8.505   9.302  1.7171 -2.1310 -0.9150
  482MOL0     H63560   9.131   8.408   9.450  1.1169  0.6950  0.8718
  482MOL0     H63561   8.771   8.161   9.251  0.4458 -3.3578  3.5123
  482MOL0     H63562   8.709   8.325   9.286 -0.8458 -0.1598  2.2790
  482MOL0     H63563   8.660   8.247   9.511  0.6738 -1.1025  1.1159
  482MOL0     H63564   8.749   8.097   9.497 -0.5539 -0.9294  1.3421
  482MOL0     H63565   8.517   8.040   9.467  1.4250 -2.2398 -0.9801
  482MOL0     H63566   8.604   8.016   9.314  0.5347  0.4093 -0.4897
  482MOL0     H63567   8.435   8.250   9.407  1.4512 -1.4763  1.5751
  482MOL0     H63568   8.496   8.232   9.237  0.4607  0.5281  0.3285
  482MOL0     H63569   8.336   8.008   9.241 -1.6081  0.7155 -0.1928
  482MOL0     H63570   8.269   8.173   9.224 -2.7277  0.3472  1.6155
  482MOL0     H63571   8.232   8.159   9.469  2.3969 -0.9344  2.5323
  482MOL0     H63572   8.277   7.987   9.460  1.3063 -1.2593 -3.1414
  482MOL0     H63573   8.044   8.126   9.314 -1.1104  1.0493  0.9711
  482MOL0     H63574   8.078   7.951   9.320 -0.2256  0.5624 -2.0144
  482MOL0     H63575   7.901   8.096   9.488 -1.7539 -2.6637 -2.0900
  482MOL0     H63576   8.044   8.088   9.588 -0.3096  4.3999 -1.3835
  482MOL0     H63577   8.144   7.792   9.496 -0.9861 -2.1387 -1.0769
  482MOL0     H63578   8.041   7.521   9.709 -2.4619  1.6412  0.8597
  482MOL0     H63579   8.146   7.541   9.572  0.3109  1.7229 -0.9716
  482MOL0     H63580   8.046   7.354   9.533 -0.9924 -1.3382 -0.7813
  482MOL0     H63581   7.948   7.449   9.432 -2.0147  0.1367  0.5095
  482MOL0     H63582   7.856   7.286   9.659  4.3225  0.8099 -0.9964
  482MOL0     H63583   7.806   7.455   9.687  0.8354 -0.2829  1.6034
  482MOL0     H63584   7.759   7.325   9.410  0.1762  1.9324 -1.3292
  482MOL0     H63585   7.697   7.480   9.492 -3.0232  0.4285 -0.3694
  482MOL0     H63586   7.404   7.206   9.663 -1.7114 -0.6419  0.4780
  482MOL0     H63587   7.178   7.295   9.643 -1.2361  2.1861  0.8706
  482MOL0     H63588   6.871   7.616   9.609  1.9932 -3.0824  0.8841
  482MOL0     H63589   6.655   7.710   9.541 -0.3617  0.0936 -0.1072
  482MOL0     H63590   6.482   7.730   9.376  0.4281 -1.2580 -0.5341
  482MOL0     H63591   6.377   7.717   9.518  1.0314  0.8687 -0.2164
  482MOL0     H63592   6.191   7.591   9.362 -0.1185 -1.2837  0.9490
  482MOL0     H63593   6.293   7.620   9.240 -0.9158 -0.8446 -0.0974
  482MOL0     H63594   6.283   7.874   9.273 -1.6465  4.0302  1.0204
  482MOL0     H63595   6.193   7.853   9.421  0.4200 -2.5720  0.7774
  482MOL0     H63596   6.118   7.759   9.138 -2.1298 -2.4777  0.7555
  482MOL0     H63597   6.008   7.747   9.272  1.4247 -2.5810 -0.6940
  482MOL0     H63598   5.972   7.967   9.132  1.4182  1.6505 -1.3153
  482MOL0     H63599   6.132   8.008   9.154  0.1313 -1.2575  0.1066
  482MOL0     H63600   6.083   8.019   9.421  0.2168 -1.3959  0.0953
  482MOL0     H63601   5.934   7.964   9.383  0.1006 -0.6185 -1.0302
  482MOL0     H63602   5.955   8.220   9.417 -1.1367  0.3855 -0.0532
  482MOL0     H63603   6.060   8.229   9.271 -1.1380 -0.6437 -1.6786
  482MOL0     H63604   5.819   8.318   9.264  0.4709  0.0507 -0.8433
  482MOL0     H63605   5.777   8.142   9.277  0.6340 -1.3018 -1.0327
  482MOL0     H63606   6.560   7.316   9.373  0.1402 -0.3232 -0.2057
  482MOL0     H63607   6.797   7.237   9.419  0.0468 -0.6099  0.0056
  482MOL0     H63608   7.289   7.535   9.327 -0.8732 -0.3042  0.6807
  482MOL0     H63609   7.539   7.491   9.368 -0.4150  2.7147  2.2667
  482MOL0     H63610   8.904   8.282   9.108 -0.1740  1.3073 -2.3916
  482MOL0     H63611   9.047   8.424   8.963 -3.2616  0.6677  0.7923
  482MOL0     H63612   9.263   8.823   8.958 -0.6722  0.5417  0.8914
  482MOL0     H63613   9.362   9.003   8.859  0.2873  0.5046 -2.2458
  482MOL0     H63614   9.816   9.008   8.770 -0.1049  0.8367  0.7202
  482MOL0     H63615   9.758   9.163   8.692 -0.8489 -0.0523 -2.6057
  482MOL0     H63616   9.679   8.882   8.602 -0.1358  0.3658  0.1767
  482MOL0     H63617   9.615   9.033   8.537 -2.1087 -3.6961 -0.2426
  482MOL0     H63618   9.895   8.950   8.552  0.4162 -0.2402  0.0599
  482MOL0     H63619   9.825   9.089   8.455 -1.4159  0.8547  2.9217
  482MOL0     H63620   9.902   8.900   8.317 -0.3118 -1.5795 -0.3635
  482MOL0     H63621   9.804   8.784   8.395 -1.3002 -1.9746 -0.6790
  482MOL0     H63622   9.528   9.000   8.144 -0.3677 -2.7895 -1.3325
  482MOL0     H63623   9.738   8.794   8.834 -0.6328  1.9229 -0.7284
  482MOL0     H63624   9.635   8.606   8.948 -1.3838 -2.1013 -1.4227
  483MOL0     O63625   7.081   3.274   4.816 -0.0347 -0.1553  0.9162
  483MOL0     C63626   7.024   3.348   4.894 -0.1216  1.5861 -0.0762
  483MOL0     O63627   6.933   3.438   4.861  0.1883  0.0236  0.5822
  483MOL0     C63628   6.940   3.493   4.736  0.0205  0.9748  0.1655
  483MOL0     C63629   7.057   3.526   4.659  0.1786 -0.0973 -0.4325
  483MOL0     C63630   7.039   3.623   4.561  0.8136  0.1931 -0.2271
  483MOL0     C63631   6.913   3.673   4.515 -0.2228  0.5174 -1.1054
  483MOL0     O63632   6.935   3.769   4.424 -0.0598  0.2105 -0.0054
  483MOL0     C63633   6.821   3.847   4.398  0.1870 -0.2566  0.8374
  483MOL0     C63634   6.856   3.959   4.301  0.3285 -0.0186 -0.0035
  483MOL0     C63635   6.978   4.040   4.343 -0.1167 -0.1562 -0.6006
  483MOL0     C63636   6.994   4.166   4.258 -0.0111  0.5625  0.5738
  483MOL0     C63637   7.138   4.211   4.248 -0.4963 -0.4220  0.3303
  483MOL0     C63638   7.154   4.332   4.161  0.3801 -0.2104  0.5754
  483MOL0     C63639   7.302   4.362   4.133  0.3309  0.0954  0.4442
  483MOL0     C63640   7.328   4.492   4.061 -0.2410  0.5193 -0.3601
  483MOL0     N63641   7.466   4.507   4.025  0.7143  0.1976 -0.5028
  483MOL0     C63642   7.538   4.431   3.934  0.2203 -0.3777  0.2929
  483MOL0     C63643   7.661   4.480   3.946 -0.0040 -0.0854  0.4584
  483MOL0     C63644   7.789   4.444   3.871 -0.2593  0.4028  0.2403
  483MOL0     C63645   7.804   4.524   3.742  0.0659  0.2852 -0.4790
  483MOL0     C63646   7.688   4.507   3.639 -0.2589  0.1076  0.2193
  483MOL0     C63647   7.736   4.583   3.512  0.4278 -0.3734 -0.7889
  483MOL0     O63648   7.853   4.521   3.457 -0.2461  0.6018 -0.2039
  483MOL0     C63649   7.920   4.624   3.404 -0.0912 -0.1855  0.0697
  483MOL0     C63650   8.027   4.684   3.475 -0.5650  0.0959  0.0836
  483MOL0     C63651   8.116   4.770   3.418  0.0794  0.5750 -0.4674
  483MOL0     C63652   8.101   4.820   3.282 -0.9427  0.5709 -1.0566
  483MOL0     C63653   8.200   4.910   3.215 -0.0775  0.2982  0.2052
  483MOL0     O63654   8.307   4.931   3.298  0.1655 -0.1733 -0.0662
  483MOL0     C63655   8.422   5.008   3.268 -0.5275 -0.4857 -0.5479
  483MOL0     C63656   8.446   5.079   3.155  0.7541  0.5202 -0.7496
  483MOL0     C63657   8.558   5.157   3.132 -0.5616 -0.7144 -0.0757
  483MOL0     C63658   8.667   5.162   3.226  0.9951  0.1155  0.0809
  483MOL0     O63659   8.792   5.209   3.197 -0.7922  0.1537 -0.1979
  483MOL0     C63660   8.817   5.252   3.063  0.4309  0.1761  0.3882
  483MOL0     C63661   8.963   5.305   3.049  0.7589  0.0117 -0.3948
  483MOL0     C63662   9.065   5.201   3.066  0.0799 -0.0374  0.3725
  483MOL0     C63663   9.209   5.271   3.050  0.6822  1.0310 -0.2968
  483MOL0     C63664   9.322   5.177   3.104 -0.2491  0.4544  0.3442
  483MOL0     C63665   9.460   5.258   3.132 -0.3760 -1.0844  0.5850
  483MOL0     C63666   9.581   5.170   3.095  0.8960  0.0977  0.2653
  483MOL0     C63667   9.718   5.248   3.102 -0.1976 -0.8938  0.1734
  483MOL0    Cl63668   9.735   5.315   2.943  0.2781  0.2689  0.1672
  483MOL0     C63669   8.650   5.080   3.343  0.8038  0.2593  0.1733
  483MOL0     C63670   8.526   5.012   3.361  0.2429 -0.2287 -1.4725
  483MOL0     O63671   8.184   4.947   3.103 -0.0361  0.1122 -0.1811
  483MOL0     C63672   8.002   4.755   3.215  0.7034 -0.6579  0.0194
  483MOL0     C63673   7.912   4.657   3.268 -0.1534 -0.8680 -0.2233
  483MOL0     N63674   7.663   4.588   4.036 -0.2807  0.4138 -0.2080
  483MOL0     N63675   7.548   4.592   4.096 -0.1128  0.0118  0.0612
  483MOL0     C63676   6.795   3.621   4.580  0.5261  0.4493 -0.0938
  483MOL0     C63677   6.813   3.539   4.696  0.5123  0.1492 -0.4646
  483MOL0     C63678   7.035   3.308   5.038  0.2052 -0.9253 -1.0432
  483MOL0     C63679   7.002   3.401   5.134  0.1730 -0.2269  0.0306
  483MOL0     C63680   7.036   3.386   5.266 -0.6495 -0.2676 -0.4205
  483MOL0     C63681   7.098   3.268   5.318  0.6656 -0.3899 -0.0174
  483MOL0     O63682   7.123   3.270   5.459 -0.3006  0.0064  0.0537
  483MOL0     C63683   7.188   3.156   5.530 -1.0976 -0.5834 -0.6736
  483MOL0     C63684   7.304   3.213   5.616  0.0076 -0.1114  0.2329
  483MOL0     C63685   7.377   3.105   5.688  0.0400 -0.3240 -0.0039
  483MOL0     C63686   7.286   3.023   5.772 -0.3990  0.2433 -0.3896
  483MOL0     C63687   7.360   2.945   5.875 -0.0059 -0.1000  0.5846
  483MOL0     C63688   7.417   2.879   5.962  0.0381 -0.0603 -0.9199
  483MOL0     C63689   7.140   3.171   5.214  0.5457 -0.0272 -0.3799
  483MOL0     C63690   7.113   3.200   5.078  0.7709 -0.3453 -0.3359
  483MOL0     H63691   7.155   3.502   4.701 -0.2389  2.3616  2.2522
  483MOL0     H63692   7.133   3.664   4.525 -0.0181  1.5325 -0.9491
  483MOL0     H63693   6.789   3.885   4.495  1.7661  2.3994  0.4191
  483MOL0     H63694   6.741   3.789   4.351 -1.0904  1.2215  1.1542
  483MOL0     H63695   6.773   4.028   4.286  0.3007 -0.0414  0.0408
  483MOL0     H63696   6.875   3.922   4.200  1.1620  2.9641 -1.0156
  483MOL0     H63697   7.065   3.974   4.335 -0.5127 -0.7893  0.1843
  483MOL0     H63698   6.968   4.064   4.449 -0.0666 -2.6628  0.0290
  483MOL0     H63699   6.970   4.149   4.152  1.8564 -0.6971  0.3132
  483MOL0     H63700   6.938   4.253   4.296  1.2117  0.9092  1.6346
  483MOL0     H63701   7.197   4.132   4.201  0.3615 -0.6736  1.7607
  483MOL0     H63702   7.167   4.222   4.353 -0.8768  1.5702  0.2620
  483MOL0     H63703   7.110   4.421   4.206 -0.2676 -1.1267  1.8383
  483MOL0     H63704   7.087   4.322   4.075 -2.8156  0.4519  2.8054
  483MOL0     H63705   7.351   4.368   4.230  1.9693  0.9056 -0.3991
  483MOL0     H63706   7.349   4.281   4.077  0.2404 -1.4557  2.4961
  483MOL0     H63707   7.301   4.576   4.126 -1.8484  1.0372 -1.6166
  483MOL0     H63708   7.268   4.494   3.969 -0.5269  2.4374 -0.1791
  483MOL0     H63709   7.495   4.357   3.866 -0.8232  2.0787 -1.8930
  483MOL0     H63710   7.792   4.336   3.856 -3.1574 -0.0486  2.0306
  483MOL0     H63711   7.878   4.470   3.928  0.1736 -0.2644 -0.1147
  483MOL0     H63712   7.893   4.495   3.686  0.1684  0.2064 -0.2777
  483MOL0     H63713   7.817   4.630   3.768 -0.6654 -0.1276  1.8593
  483MOL0     H63714   7.676   4.402   3.612 -1.0199  1.0246 -3.6717
  483MOL0     H63715   7.593   4.554   3.669 -0.8956 -0.9465 -0.0977
  483MOL0     H63716   7.748   4.688   3.540 -1.2054  0.4573 -2.8726
  483MOL0     H63717   7.657   4.584   3.436 -2.5552  1.9486  2.0944
  483MOL0     H63718   8.039   4.650   3.577 -1.5649  0.5489  0.3680
  483MOL0     H63719   8.202   4.800   3.477  1.5336 -0.6402 -1.8640
  483MOL0     H63720   8.374   5.072   3.073 -2.0862 -6.3044  1.5067
  483MOL0     H63721   8.569   5.203   3.034  2.4287  1.4743  1.1359
  483MOL0     H63722   8.741   5.325   3.033  1.3991 -0.4380 -4.1472
  483MOL0     H63723   8.805   5.164   3.000 -2.5051 -0.2279  1.3286
  483MOL0     H63724   8.966   5.374   3.134 -1.3064 -0.6363  0.2697
  483MOL0     H63725   8.974   5.364   2.957 -1.9305  3.4105  1.2304
  483MOL0     H63726   9.049   5.118   2.997 -2.3826  0.7758 -0.1093
  483MOL0     H63727   9.053   5.155   3.164  0.1660  1.9605  1.3778
  483MOL0     H63728   9.224   5.291   2.944 -2.3518  2.9239 -0.4687
  483MOL0     H63729   9.210   5.371   3.094  2.5857  1.7790 -1.8876
  483MOL0     H63730   9.331   5.103   3.024 -0.9065  0.5701  0.1555
  483MOL0     H63731   9.290   5.133   3.199 -1.1028 -3.5767 -1.5677
  483MOL0     H63732   9.463   5.285   3.238 -3.6084 -1.9745  1.0354
  483MOL0     H63733   9.455   5.342   3.063 -3.1792 -1.0431  0.7346
  483MOL0     H63734   9.580   5.094   3.175 -0.5552 -2.0235 -1.6251
  483MOL0     H63735   9.583   5.110   3.004  0.4828  0.7341 -0.1710
  483MOL0     H63736   9.792   5.178   3.142 -0.4330 -1.5080 -0.4459
  483MOL0     H63737   9.707   5.325   3.179 -0.4906 -0.0713 -0.6694
  483MOL0     H63738   8.728   5.069   3.417  1.7407 -0.1241 -0.8448
  483MOL0     H63739   8.525   4.946   3.447  2.5586  2.3976  0.7369
  483MOL0     H63740   7.994   4.796   3.115  1.4292  2.0887  0.9884
  483MOL0     H63741   7.825   4.629   3.209 -0.1442 -0.4448 -0.4409
  483MOL0     H63742   6.695   3.655   4.553  0.3375 -0.9179 -1.2197
  483MOL0     H63743   6.725   3.522   4.757  0.0481  2.6378 -0.3109
  483MOL0     H63744   6.947   3.493   5.116 -0.0176 -0.4736 -0.6749
  483MOL0     H63745   7.010   3.459   5.342  2.0426 -1.0431  1.4180
  483MOL0     H63746   7.234   3.093   5.453 -1.5997  1.7186 -3.0437
  483MOL0     H63747   7.114   3.111   5.596 -0.6820 -2.0524 -1.1692
  483MOL0     H63748   7.373   3.262   5.547 -0.0076 -2.0389 -1.2493
  483MOL0     H63749   7.255   3.287   5.680 -0.3910 -1.5491  1.6401
  483MOL0     H63750   7.450   3.154   5.753  0.7356 -2.6923  1.1195
  483MOL0     H63751   7.441   3.041   5.627  0.7844 -1.4582  1.8681
  483MOL0     H63752   7.209   3.085   5.818  1.3203  0.3135  2.6052
  483MOL0     H63753   7.236   2.949   5.708 -0.2182  1.2597 -1.7574
  483MOL0     H63754   7.457   2.808   6.032  0.1227 -0.5670 -1.4761
  483MOL0     H63755   7.200   3.084   5.241  0.5915  0.5516  1.4722
  483MOL0     H63756   7.157   3.134   5.004  3.1452 -1.0293  1.5703
  484MOL0     O63757   9.375   8.074  10.231 -0.4142 -0.1667  0.5624
  484MOL0     C63758   9.382   8.196  10.211  0.1979 -0.2265  0.3273
  484MOL0     O63759   9.285   8.291  10.230  0.1362 -0.5323 -0.4255
  484MOL0     C63760   9.154   8.252  10.264  0.2772  0.0492 -0.8099
  484MOL0     C63761   9.085   8.351  10.344  0.5235  0.4285 -0.1089
  484MOL0     C63762   8.951   8.336  10.368 -0.2372 -0.2339 -0.7786
  484MOL0     C63763   8.880   8.218  10.343  0.6084 -0.8556  0.2468
  484MOL0     O63764   8.751   8.189  10.374  0.1805 -0.2986 -0.3502
  484MOL0     C63765   8.666   8.307  10.349  1.2476 -0.0102 -0.7364
  484MOL0     C63766   8.523   8.260  10.346 -0.5395 -0.0539  0.0354
  484MOL0     C63767   8.427   8.376  10.330 -0.6268  1.0673  0.2081
  484MOL0     C63768   8.276   8.328  10.317 -0.6300 -0.3803  0.0178
  484MOL0     C63769   8.218   8.258  10.438 -0.7061  0.4860  0.2141
  484MOL0     C63770   8.085   8.201  10.398  1.1393  1.0320 -0.4426
  484MOL0     C63771   8.042   8.092  10.503  0.1183 -0.4907  0.1620
  484MOL0     C63772   8.091   7.956  10.454  0.2765  0.3768 -0.3376
  484MOL0     N63773   8.029   7.845  10.533 -0.1615  0.3799  0.5238
  484MOL0     C63774   7.898   7.804  10.513  0.5061  0.1699  0.0874
  484MOL0     C63775   7.879   7.698  10.597  0.0217 -0.1940  0.3220
  484MOL0     C63776   7.752   7.620  10.613 -0.9749 -0.1413  0.3543
  484MOL0     C63777   7.637   7.694  10.670 -0.3091 -0.1400  0.9462
  484MOL0     C63778   7.508   7.609  10.687  0.6032  0.5080 -0.8716
  484MOL0     C63779   7.427   7.606  10.552  0.4477  0.0544 -0.3990
  484MOL0     O63780   7.296   7.541  10.574 -1.0599  0.5407 -0.1140
  484MOL0     C63781   7.207   7.593  10.667 -0.3149 -0.0835 -0.3268
  484MOL0     C63782   7.180   7.730  10.687 -0.2834  0.2890  0.4997
  484MOL0     C63783   7.058   7.771  10.760 -0.6260  0.0189  0.0528
  484MOL0     C63784   6.972   7.670  10.809  0.9553  0.0943  0.0863
  484MOL0     C63785   6.837   7.696  10.864 -0.2355 -0.0612  0.0364
  484MOL0     O63786   6.760   7.586  10.917 -0.2505 -0.5110 -0.2240
  484MOL0     C63787   6.622   7.597  10.946 -0.2049 -0.4271 -0.3762
  484MOL0     C63788   6.568   7.513  11.045  0.0522 -0.4292 -1.0203
  484MOL0     C63789   6.428   7.521  11.080  0.0963  0.3732 -0.1841
  484MOL0     C63790   6.332   7.603  11.009 -0.8841  0.8060 -0.4752
  484MOL0     O63791   6.197   7.595  11.046  0.3609  0.1111 -0.2670
  484MOL0     C63792   6.103   7.643  10.946 -0.9542  0.5017 -0.2600
  484MOL0     C63793   5.962   7.641  11.001  0.1546 -0.6360  0.7343
  484MOL0     C63794   5.864   7.604  10.888  0.2913  0.1936  0.0052
  484MOL0     C63795   5.735   7.554  10.952  1.0398 -0.6704  0.0474
  484MOL0     C63796   5.625   7.544  10.850  0.3215  0.1241 -0.1976
  484MOL0     C63797   5.498   7.518  10.936  0.7041  0.6007  1.1166
  484MOL0     C63798   5.376   7.490  10.853  0.5956 -0.5695 -0.0262
  484MOL0     C63799   5.271   7.425  10.945  0.1252 -0.4888  0.4612
  484MOL0    Cl63800   5.118   7.406  10.857  0.0519 -0.0517 -0.9839
  484MOL0     C63801   6.394   7.679  10.916  0.5312  0.4398 -0.1301
  484MOL0     C63802   6.533   7.683  10.881 -0.3349 -0.4093  0.1723
  484MOL0     O63803   6.799   7.817  10.849 -0.2417 -0.1842 -0.0979
  484MOL0     C63804   7.008   7.534  10.803 -1.4083  0.1494 -0.3274
  484MOL0     C63805   7.124   7.499  10.724  0.4084 -0.2632  0.4896
  484MOL0     N63806   7.991   7.690  10.667 -0.7781  0.2113  0.0108
  484MOL0     N63807   8.084   7.769  10.630 -0.5130 -0.2922 -0.1007
  484MOL0     C63808   8.956   8.113  10.292  0.3750 -0.0309 -0.3707
  484MOL0     C63809   9.093   8.126  10.251  0.2190  0.2433  0.4730
  484MOL0     C63810   9.510   8.249  10.157  1.1280  0.1282 -0.6192
  484MOL0     C63811   9.627   8.178  10.180  1.1929 -0.3153  0.4467
  484MOL0     C63812   9.744   8.216  10.115  0.8605 -0.2546  0.7659
  484MOL0     C63813   9.740   8.324  10.024 -0.1243  0.4175 -1.6393
  484MOL0     O63814   9.846   8.383   9.958 -0.6976 -0.5954  0.6964
  484MOL0     C63815   9.985   8.339   9.987  0.4811 -0.0714  1.0368
  484MOL0     C63816  10.047   8.397  10.114  0.0431 -0.3427 -0.6015
  484MOL0     C63817  10.062   8.544  10.114 -0.2393  0.4811 -0.6328
  484MOL0     C63818  10.152   8.602   9.996  0.1506  0.1004  0.5858
  484MOL0     C63819  10.285   8.547   9.984  0.2424  0.2138  0.4259
  484MOL0     C63820  10.394   8.510  10.002  0.7057  0.2056  0.2891
  484MOL0     C63821   9.622   8.386   9.996  0.1671  0.3722 -0.0753
  484MOL0     C63822   9.511   8.351  10.071  0.3542 -0.7692  0.8092
  484MOL0     H63823   9.135   8.444  10.369  0.2104  0.8390 -0.9964
  484MOL0     H63824   8.892   8.418  10.408 -2.3490 -2.1276  0.2189
  484MOL0     H63825   8.686   8.364  10.257  1.1194 -0.9172 -1.3427
  484MOL0     H63826   8.671   8.372  10.437 -2.9551  0.5438 -0.6948
  484MOL0     H63827   8.508   8.196  10.434 -1.4885  0.6641  0.4090
  484MOL0     H63828   8.499   8.184  10.272 -0.1257 -0.1966  0.0445
  484MOL0     H63829   8.458   8.444  10.250  0.5011  1.2431  0.7730
  484MOL0     H63830   8.432   8.434  10.423  1.1121 -1.2006  1.6228
  484MOL0     H63831   8.210   8.414  10.301 -1.9685 -0.4353  4.0909
  484MOL0     H63832   8.266   8.270  10.225  0.4186  1.2070 -1.1696
  484MOL0     H63833   8.206   8.324  10.523 -2.2060 -3.2461  3.1904
  484MOL0     H63834   8.282   8.171  10.457  0.2696  0.8286 -1.3073
  484MOL0     H63835   8.090   8.152  10.300  0.7335 -2.3304  1.1020
  484MOL0     H63836   8.014   8.284  10.398  2.3977  2.1610 -1.8999
  484MOL0     H63837   8.087   8.112  10.600 -0.3785  0.1182  0.2786
  484MOL0     H63838   7.933   8.098  10.512  0.0957 -0.7703  0.0674
  484MOL0     H63839   8.200   7.949  10.451  0.2442  0.1738 -2.5488
  484MOL0     H63840   8.048   7.929  10.357  0.3010 -2.2126  0.3097
  484MOL0     H63841   7.816   7.853  10.461  0.1208 -2.2955 -1.8164
  484MOL0     H63842   7.777   7.543  10.686 -1.1629  1.4584  2.1998
  484MOL0     H63843   7.723   7.582  10.515 -0.6956  0.1081  0.1716
  484MOL0     H63844   7.610   7.774  10.600  2.3462 -0.0822 -0.1393
  484MOL0     H63845   7.670   7.734  10.766  0.1094 -1.5569  1.4121
  484MOL0     H63846   7.520   7.503  10.712  0.3927  0.3592 -1.3758
  484MOL0     H63847   7.445   7.647  10.768 -0.7667 -1.4642 -0.9467
  484MOL0     H63848   7.478   7.550  10.472 -0.2515  0.0593 -0.8503
  484MOL0     H63849   7.412   7.711  10.525 -3.4581  0.4891  2.6017
  484MOL0     H63850   7.252   7.801  10.648  0.4074  0.7218  2.4310
  484MOL0     H63851   7.038   7.877  10.760 -2.0352 -0.2283  0.7683
  484MOL0     H63852   6.632   7.444  11.099 -1.9094 -1.1928  0.4299
  484MOL0     H63853   6.389   7.446  11.149 -0.6560  0.0583 -0.9320
  484MOL0     H63854   6.119   7.578  10.859 -0.1587  1.1285 -0.5890
  484MOL0     H63855   6.126   7.746  10.919 -0.0120  0.5866  0.7870
  484MOL0     H63856   5.933   7.741  11.036  0.2650  0.3917 -1.8716
  484MOL0     H63857   5.953   7.561  11.075  0.0139 -2.3606 -1.0490
  484MOL0     H63858   5.906   7.543  10.807 -0.9489  2.8557 -2.8361
  484MOL0     H63859   5.841   7.696  10.834  2.5905 -0.1034 -1.6409
  484MOL0     H63860   5.747   7.460  11.007 -3.7414 -0.4972  1.9049
  484MOL0     H63861   5.696   7.626  11.025  1.5096 -0.1430 -0.2132
  484MOL0     H63862   5.643   7.459  10.785 -1.6065 -1.5684  1.3393
  484MOL0     H63863   5.624   7.641  10.799  0.0502  0.3553  0.2284
  484MOL0     H63864   5.487   7.604  11.003  1.3695  1.3088  0.3466
  484MOL0     H63865   5.513   7.426  10.992 -0.5001 -0.5938 -0.4023
  484MOL0     H63866   5.347   7.587  10.810  0.4666 -0.5714  0.0579
  484MOL0     H63867   5.393   7.420  10.770 -1.1644 -2.6597  1.2657
  484MOL0     H63868   5.251   7.490  11.031  2.1945  0.0043  0.6201
  484MOL0     H63869   5.311   7.326  10.967  1.9260  0.4500  1.6932
  484MOL0     H63870   6.329   7.752  10.867  1.2519  0.2942 -1.3566
  484MOL0     H63871   6.567   7.748  10.801 -3.0338  0.8873 -0.0220
  484MOL0     H63872   6.956   7.445  10.838  3.0121 -2.4371  0.4076
  484MOL0     H63873   7.132   7.392  10.705 -2.3421 -1.0630  2.9831
  484MOL0     H63874   8.909   8.023  10.255 -0.5743  0.2952  0.0001
  484MOL0     H63875   9.132   8.034  10.209  2.9472  1.7214 -0.4996
  484MOL0     H63876   9.605   8.099  10.252 -5.3225  0.2871 -0.2701
  484MOL0     H63877   9.833   8.160  10.142  0.0423 -3.8834 -2.9658
  484MOL0     H63878  10.054   8.363   9.905 -0.8927  0.6218  0.0402
  484MOL0     H63879   9.991   8.230   9.994  2.3809 -0.2224 -1.2947
  484MOL0     H63880   9.973   8.360  10.186  0.9147 -5.6053 -1.9659
  484MOL0     H63881  10.138   8.352  10.155 -1.2706  0.2468  3.3692
  484MOL0     H63882  10.093   8.583  10.211  1.5613  0.7843 -1.3015
  484MOL0     H63883   9.958   8.578  10.101 -0.3565  0.0159 -0.9116
  484MOL0     H63884  10.108   8.580   9.898  0.4430 -0.7985  0.6445
  484MOL0     H63885  10.157   8.711  10.009 -1.1152 -0.1435  4.0344
  484MOL0     H63886  10.497   8.500  10.028  0.5927 -0.6456  0.4345
  484MOL0     H63887   9.622   8.464   9.921 -1.0061  1.8550  1.3948
  484MOL0     H63888   9.417   8.400  10.047 -0.2884 -2.8987 -1.3863
  485MOL0     O63889   4.039   2.930   1.373  0.5305 -0.4013 -0.3777
  485MOL0     C63890   3.978   2.824   1.363  0.2413  0.1271 -0.8888
  485MOL0     O63891   4.039   2.702   1.392  0.5753  0.1605 -0.8519
  485MOL0     C63892   4.173   2.697   1.387  0.1506 -0.3993  0.5175
  485MOL0     C63893   4.247   2.657   1.498  0.3096  0.7169  0.0403
  485MOL0     C63894   4.390   2.640   1.491 -0.5080  1.3269  1.1137
  485MOL0     C63895   4.465   2.663   1.374  0.0396 -0.3988  0.3840
  485MOL0     O63896   4.594   2.659   1.359 -0.4803  0.5832 -0.5688
  485MOL0     C63897   4.676   2.723   1.455 -0.3258  1.0210 -0.4265
  485MOL0     C63898   4.642   2.868   1.459  0.0444 -0.2905 -0.3034
  485MOL0     C63899   4.594   2.916   1.601 -0.8554 -0.4145 -0.3324
  485MOL0     C63900   4.538   3.060   1.610 -0.4668 -0.4070 -0.0123
  485MOL0     C63901   4.494   3.124   1.748  0.6160 -0.6195  0.1352
  485MOL0     C63902   4.446   3.264   1.724  0.5797  0.1031 -0.5315
  485MOL0     C63903   4.374   3.317   1.855 -0.7188 -0.1783  0.6194
  485MOL0     C63904   4.345   3.464   1.854 -0.4872 -0.3998 -0.0598
  485MOL0     N63905   4.307   3.496   1.992 -0.0353  0.2243 -0.4014
  485MOL0     C63906   4.181   3.478   2.051 -0.6403  0.7559  0.0298
  485MOL0     C63907   4.200   3.509   2.183 -0.6243  0.2585 -0.3008
  485MOL0     C63908   4.105   3.527   2.295  0.1477 -0.6054  0.6300
  485MOL0     C63909   4.016   3.655   2.275 -0.4322 -0.0778  0.5487
  485MOL0     C63910   3.895   3.630   2.188 -0.5699  0.4809  1.0142
  485MOL0     C63911   3.813   3.754   2.179  0.0016  0.3570  0.7042
  485MOL0     O63912   3.696   3.725   2.099 -0.0031 -0.1433 -0.3273
  485MOL0     C63913   3.638   3.847   2.057 -0.9955  1.1843 -1.1607
  485MOL0     C63914   3.635   3.977   2.129 -0.5163  0.6540  0.9932
  485MOL0     C63915   3.560   4.082   2.085  0.7512 -0.3476  0.4277
  485MOL0     C63916   3.477   4.069   1.981  0.8356  0.0101  0.0891
  485MOL0     C63917   3.381   4.172   1.940  0.3980 -0.5620  0.3655
  485MOL0     O63918   3.310   4.153   1.819  0.1095 -0.1686  0.0932
  485MOL0     C63919   3.202   4.246   1.806  0.9273  0.1725  0.2671
  485MOL0     C63920   3.087   4.267   1.890 -0.6002  0.6506 -0.4304
  485MOL0     C63921   2.986   4.357   1.850 -0.6167 -0.4372  0.4165
  485MOL0     C63922   2.997   4.436   1.743  0.0665  0.8342  0.8527
  485MOL0     O63923   2.892   4.518   1.712  0.5022 -0.5663  0.0177
  485MOL0     C63924   2.889   4.568   1.580 -0.2169  0.5238 -0.4941
  485MOL0     C63925   2.765   4.656   1.565  0.2227  0.2796 -0.7240
  485MOL0     C63926   2.722   4.724   1.436 -0.7476  0.2040 -0.1549
  485MOL0     C63927   2.582   4.789   1.453 -0.3194 -0.3837 -0.4102
  485MOL0     C63928   2.561   4.875   1.329  0.2625 -0.3671 -0.1495
  485MOL0     C63929   2.441   4.966   1.352  0.8363 -0.3202 -0.0630
  485MOL0     C63930   2.384   5.031   1.227  0.2270  0.2678  0.5247
  485MOL0     C63931   2.235   5.034   1.220  0.3323  0.9134 -0.8108
  485MOL0    Cl63932   2.156   5.091   1.367  0.2242 -0.0325 -0.2701
  485MOL0     C63933   3.110   4.416   1.662  0.1161 -0.2803 -0.0199
  485MOL0     C63934   3.208   4.324   1.693 -0.4712 -1.2569 -0.0036
  485MOL0     O63935   3.356   4.264   2.023 -0.5525  0.6621  0.7842
  485MOL0     C63936   3.487   3.953   1.906  0.3739 -0.0952 -0.2266
  485MOL0     C63937   3.562   3.843   1.946 -0.8351 -0.3258  0.3255
  485MOL0     N63938   4.333   3.549   2.193 -0.4879  0.2230 -0.8763
  485MOL0     N63939   4.395   3.535   2.084 -0.6829  0.0762  0.4204
  485MOL0     C63940   4.385   2.691   1.263 -0.5573 -0.3286  0.7477
  485MOL0     C63941   4.249   2.719   1.272  0.1808  0.2487  0.0279
  485MOL0     C63942   3.834   2.836   1.338 -0.1296  0.1622  0.1962
  485MOL0     C63943   3.754   2.721   1.323 -0.1939  0.6648 -0.3079
  485MOL0     C63944   3.619   2.743   1.290  0.3206  0.0206 -0.4973
  485MOL0     C63945   3.563   2.869   1.277 -0.0057 -0.1732 -2.0108
  485MOL0     O63946   3.434   2.884   1.234  0.5193  0.0694 -0.1596
  485MOL0     C63947   3.372   3.010   1.234 -0.8120 -0.6013  0.2258
  485MOL0     C63948   3.218   3.012   1.244 -0.6730 -0.1505  0.4803
  485MOL0     C63949   3.164   2.930   1.369  0.3618  0.2731  0.6540
  485MOL0     C63950   3.056   3.004   1.433 -0.5412  0.8801 -0.5033
  485MOL0     C63951   2.923   2.955   1.390  0.2496 -0.1728  1.0517
  485MOL0     C63952   2.820   2.902   1.350  0.1251  0.7566  0.0032
  485MOL0     C63953   3.648   2.976   1.308  1.1011 -0.5639  0.2134
  485MOL0     C63954   3.783   2.968   1.323 -0.3523  0.9789 -0.4251
  485MOL0     H63955   4.204   2.652   1.598 -0.8321  1.7023 -0.3819
  485MOL0     H63956   4.447   2.609   1.579  1.0664 -0.5235 -0.4737
  485MOL0     H63957   4.777   2.723   1.414 -0.2227 -2.2891 -0.4281
  485MOL0     H63958   4.677   2.669   1.549 -0.8234  0.2194 -0.8701
  485MOL0     H63959   4.565   2.900   1.388 -1.5556  3.4765  2.7725
  485MOL0     H63960   4.736   2.923   1.446 -1.0882  2.5609  2.3217
  485MOL0     H63961   4.678   2.910   1.672 -1.3268 -0.9518  0.1906
  485MOL0     H63962   4.522   2.840   1.633  0.8204 -2.5058 -1.2688
  485MOL0     H63963   4.614   3.132   1.577 -2.1686  0.7734 -1.5573
  485MOL0     H63964   4.454   3.061   1.540 -1.3122  0.6530  0.9607
  485MOL0     H63965   4.582   3.136   1.812 -0.3065  2.3389  0.9813
  485MOL0     H63966   4.414   3.062   1.792  0.7348 -0.7066  0.2300
  485MOL0     H63967   4.377   3.267   1.639 -1.3143 -2.2178  0.8247
  485MOL0     H63968   4.529   3.329   1.694  1.5962 -0.1862  1.5165
  485MOL0     H63969   4.286   3.256   1.879 -0.5719 -0.6811 -0.1033
  485MOL0     H63970   4.459   3.314   1.923  0.9053 -1.7737 -1.3700
  485MOL0     H63971   4.270   3.490   1.778 -0.3296  0.3636  0.0397
  485MOL0     H63972   4.439   3.514   1.830 -1.1130 -0.4185 -2.9519
  485MOL0     H63973   4.087   3.442   2.012 -2.1265  1.6549  2.5992
  485MOL0     H63974   4.164   3.539   2.386  4.1055  0.5232 -1.8569
  485MOL0     H63975   4.061   3.427   2.306  1.7839 -1.3798  0.4342
  485MOL0     H63976   4.077   3.737   2.235 -1.6447  1.0353  0.8810
  485MOL0     H63977   3.980   3.684   2.374 -0.4219  0.9214  0.2728
  485MOL0     H63978   3.937   3.607   2.090 -0.8694  0.8077  0.8075
  485MOL0     H63979   3.837   3.543   2.219 -1.1760 -1.0913 -3.7364
  485MOL0     H63980   3.865   3.836   2.128 -0.6979 -0.3732 -1.2641
  485MOL0     H63981   3.792   3.791   2.280 -1.4736 -2.1426  1.3889
  485MOL0     H63982   3.679   3.989   2.227 -0.8200  2.6986  0.9165
  485MOL0     H63983   3.558   4.168   2.150  1.4414  2.0888 -2.5335
  485MOL0     H63984   3.080   4.188   1.965  0.0694  0.0828 -0.9553
  485MOL0     H63985   2.891   4.356   1.904 -1.9097 -0.0788 -1.7548
  485MOL0     H63986   2.879   4.494   1.501  0.5790  1.3535 -1.3953
  485MOL0     H63987   2.974   4.635   1.565  1.2144 -1.2934 -0.7919
  485MOL0     H63988   2.769   4.735   1.640  1.5297 -0.4513  0.0059
  485MOL0     H63989   2.683   4.587   1.588  2.7651 -2.9859 -0.6822
  485MOL0     H63990   2.713   4.657   1.350 -0.5686  0.6753 -0.5435
  485MOL0     H63991   2.809   4.789   1.424  1.0709 -2.4540 -2.9473
  485MOL0     H63992   2.502   4.716   1.469  1.4699 -2.3612 -0.0252
  485MOL0     H63993   2.589   4.857   1.538  2.0480 -1.5003  0.3854
  485MOL0     H63994   2.562   4.810   1.241  1.0501  0.8092 -1.0452
  485MOL0     H63995   2.643   4.944   1.309  0.6746 -0.1185  2.1704
  485MOL0     H63996   2.456   5.051   1.419 -0.4393 -0.6577  0.6898
  485MOL0     H63997   2.364   4.903   1.399 -1.3389 -0.1190 -3.0674
  485MOL0     H63998   2.422   5.131   1.204  1.6207 -0.6693 -1.5486
  485MOL0     H63999   2.417   4.968   1.145  0.0093 -2.5410  2.4615
  485MOL0     H64000   2.193   4.936   1.198  0.3125  0.4143  1.2373
  485MOL0     H64001   2.210   5.093   1.131 -2.4788  0.9999 -0.0579
  485MOL0     H64002   3.131   4.462   1.565 -0.4024 -1.0484 -0.5013
  485MOL0     H64003   3.290   4.304   1.626 -1.1155  0.7829 -1.5213
  485MOL0     H64004   3.433   3.957   1.812  1.1875 -0.7469 -0.7356
  485MOL0     H64005   3.566   3.758   1.879  2.5578 -2.3410  2.7404
  485MOL0     H64006   4.445   2.707   1.174 -0.4665 -1.8766  0.4984
  485MOL0     H64007   4.190   2.736   1.182  0.9871  2.8421 -0.0750
  485MOL0     H64008   3.791   2.619   1.335 -1.1233  0.4349  0.8434
  485MOL0     H64009   3.551   2.659   1.290 -0.5373  0.7033 -0.1406
  485MOL0     H64010   3.407   3.063   1.145 -0.1208  2.6155  2.2686
  485MOL0     H64011   3.404   3.069   1.320 -0.7654  0.5759 -0.5665
  485MOL0     H64012   3.199   3.118   1.262  1.9654  0.4464  0.0866
  485MOL0     H64013   3.170   2.983   1.150  0.8982  1.5757 -0.9315
  485MOL0     H64014   3.236   2.905   1.447  1.2574 -0.2722 -0.3225
  485MOL0     H64015   3.129   2.829   1.342 -0.3041  0.6135  0.2041
  485MOL0     H64016   3.059   2.985   1.540 -1.2608  0.6412 -0.5211
  485MOL0     H64017   3.063   3.112   1.415 -1.4067  1.4683  2.2199
  485MOL0     H64018   2.737   2.840   1.325 -0.1330  0.6619  1.0454
  485MOL0     H64019   3.607   3.075   1.320  0.1619 -0.8571 -0.5147
  485MOL0     H64020   3.831   3.066   1.325 -1.8405  1.7205  1.0051
  486MOL0     O64021   0.319   9.262   1.589  0.0099 -0.3041  1.1215
  486MOL0     C64022   0.340   9.233   1.706 -0.6325 -1.1810 -0.0071
  486MOL0     O64023   0.245   9.212   1.801 -0.5462  1.0238 -0.2672
  486MOL0     C64024   0.113   9.234   1.769  0.9499  0.0982 -0.1499
  486MOL0     C64025   0.049   9.330   1.842 -0.1096  0.2316 -0.0522
  486MOL0     C64026  -0.090   9.362   1.828  0.0043  0.3400  0.3537
  486MOL0     C64027  -0.167   9.289   1.731 -0.2160  0.2568 -0.9149
  486MOL0     O64028  -0.304   9.304   1.718  0.6711  0.0636 -0.9541
  486MOL0     C64029  -0.388   9.189   1.746  0.3425  0.8575  0.7945
  486MOL0     C64030  -0.532   9.230   1.723 -0.5029  0.1352 -0.2337
  486MOL0     C64031  -0.633   9.119   1.722 -0.1078  0.2660 -0.2165
  486MOL0     C64032  -0.776   9.170   1.684  0.2444 -0.6214  0.3960
  486MOL0     C64033  -0.894   9.070   1.695 -0.6295 -0.7726 -0.0516
  486MOL0     C64034  -1.021   9.132   1.645 -0.4510 -0.4802  0.8047
  486MOL0     C64035  -1.140   9.041   1.644 -0.7183  0.1250 -0.1238
  486MOL0     C64036  -1.271   9.115   1.605 -0.4915 -0.0105 -0.1864
  486MOL0     N64037  -1.387   9.023   1.594  0.6156  0.0211 -0.7120
  486MOL0     C64038  -1.448   8.983   1.485 -0.8393  0.6185  0.4356
  486MOL0     C64039  -1.551   8.897   1.515  0.7924  1.3312  0.3183
  486MOL0     C64040  -1.648   8.820   1.436 -0.1886 -0.2054 -0.4069
  486MOL0     C64041  -1.756   8.918   1.387  0.0750  0.6678  0.3700
  486MOL0     C64042  -1.890   8.887   1.450  0.1568 -0.2404 -0.5488
  486MOL0     C64043  -1.950   8.758   1.430  0.3381  0.2020 -0.6345
  486MOL0     O64044  -2.061   8.752   1.525 -0.4069 -0.3337  0.3336
  486MOL0     C64045  -2.173   8.687   1.498 -0.4790 -0.2188 -0.5640
  486MOL0     C64046  -2.181   8.582   1.400 -0.5395  0.7760 -0.2641
  486MOL0     C64047  -2.310   8.515   1.387  0.6879 -0.8377 -0.1569
  486MOL0     C64048  -2.420   8.561   1.470  0.8195  0.0178  0.2817
  486MOL0     C64049  -2.558   8.516   1.425 -0.6143  0.0423  0.8459
  486MOL0     O64050  -2.659   8.590   1.482 -0.0326 -0.2402  0.8907
  486MOL0     C64051  -2.790   8.558   1.469  0.2962  0.4451  0.0876
  486MOL0     C64052  -2.842   8.453   1.391  0.2866  0.4976  0.3892
  486MOL0     C64053  -2.981   8.421   1.402  0.3652  0.5399  0.0032
  486MOL0     C64054  -3.071   8.493   1.484 -0.1162  0.4979  1.2508
  486MOL0     O64055  -3.207   8.452   1.493 -0.5067 -0.2119  0.0784
  486MOL0     C64056  -3.285   8.535   1.569  0.3168  0.7175 -1.0912
  486MOL0     C64057  -3.424   8.459   1.575 -0.1885  0.0258 -0.5983
  486MOL0     C64058  -3.539   8.539   1.636 -0.6383 -0.4222 -0.1914
  486MOL0     C64059  -3.677   8.470   1.609  0.0368  0.2435  0.1585
  486MOL0     C64060  -3.781   8.533   1.700  0.7019  0.3139  0.1128
  486MOL0     C64061  -3.851   8.650   1.631 -0.9977  0.0813  0.1142
  486MOL0     C64062  -3.970   8.707   1.705  0.9175  0.1605 -0.3916
  486MOL0     C64063  -4.094   8.688   1.611 -0.5316  0.1922  0.0422
  486MOL0    Cl64064  -4.152   8.514   1.628  0.1294 -0.1655 -0.3999
  486MOL0     C64065  -3.021   8.607   1.550 -0.3863  0.8509  0.3058
  486MOL0     C64066  -2.882   8.636   1.537  0.7339  0.1776 -0.5786
  486MOL0     O64067  -2.565   8.413   1.358 -0.2630  0.0901  0.1590
  486MOL0     C64068  -2.405   8.663   1.561 -0.0882  0.4652 -0.5696
  486MOL0     C64069  -2.282   8.736   1.566  0.7424 -0.1416 -0.2964
  486MOL0     N64070  -1.553   8.894   1.658  0.1520  0.2502  0.1028
  486MOL0     N64071  -1.461   8.982   1.701  0.8802  0.1234 -1.0621
  486MOL0     C64072  -0.102   9.191   1.658 -0.1134  0.0514 -0.0621
  486MOL0     C64073   0.034   9.160   1.673 -0.4104  0.3909 -0.2850
  486MOL0     C64074   0.483   9.240   1.746 -0.7818  0.1343 -0.3494
  486MOL0     C64075   0.531   9.213   1.879  1.0984 -0.8201  0.2872
  486MOL0     C64076   0.660   9.234   1.919 -0.2107 -0.9011 -0.7581
  486MOL0     C64077   0.759   9.279   1.827 -0.1463 -0.2828 -0.5389
  486MOL0     O64078   0.889   9.302   1.856  0.5826 -0.5010  0.1731
  486MOL0     C64079   0.944   9.253   1.987  0.3141 -0.2378  0.6767
  486MOL0     C64080   1.096   9.238   1.986 -0.4432 -0.1865  0.3405
  486MOL0     C64081   1.144   9.193   2.121  0.1089  0.5410  0.0868
  486MOL0     C64082   1.291   9.161   2.151  0.2315 -0.4018 -0.0939
  486MOL0     C64083   1.328   9.033   2.091 -0.8226  0.7128 -0.6925
  486MOL0     C64084   1.351   8.937   2.024 -0.9470 -0.3761 -0.5164
  486MOL0     C64085   0.721   9.300   1.688 -0.0253 -0.8262  0.2958
  486MOL0     C64086   0.589   9.280   1.656 -0.7541  0.3320 -0.2359
  486MOL0     H64087   0.109   9.387   1.912 -1.9144 -0.0287  1.7761
  486MOL0     H64088  -0.134   9.441   1.887 -1.5853  1.7481 -2.4788
  486MOL0     H64089  -0.391   9.155   1.850  0.2142 -2.8144 -0.2529
  486MOL0     H64090  -0.374   9.101   1.681  1.2582 -1.1540  3.5437
  486MOL0     H64091  -0.541   9.289   1.631  1.7147  1.9769  0.6444
  486MOL0     H64092  -0.545   9.296   1.809  3.2801 -0.8679  1.3218
  486MOL0     H64093  -0.647   9.069   1.819 -2.0313  1.4585  0.1699
  486MOL0     H64094  -0.618   9.043   1.645  1.8796  0.5837 -0.1956
  486MOL0     H64095  -0.798   9.255   1.751  1.7798 -0.4062  0.6694
  486MOL0     H64096  -0.780   9.209   1.582  1.5749 -1.0846  0.1523
  486MOL0     H64097  -0.904   9.047   1.801 -1.2511 -1.4926 -0.2549
  486MOL0     H64098  -0.881   8.976   1.640  1.9970 -0.7676  0.4198
  486MOL0     H64099  -1.009   9.162   1.541  1.8897  0.0946  1.1872
  486MOL0     H64100  -1.040   9.216   1.711 -0.0020  0.3633 -0.1152
  486MOL0     H64101  -1.112   8.969   1.567  2.0635  0.2560  0.6732
  486MOL0     H64102  -1.144   8.998   1.745  1.2460  2.2318  0.9341
  486MOL0     H64103  -1.247   9.161   1.509 -1.4136 -1.0258 -0.9132
  486MOL0     H64104  -1.301   9.199   1.669 -1.3624  0.0316 -0.6398
  486MOL0     H64105  -1.420   9.015   1.385 -0.4717 -1.3372 -0.1231
  486MOL0     H64106  -1.685   8.733   1.492  0.9992  0.1465  0.9707
  486MOL0     H64107  -1.590   8.776   1.355  0.0751  0.4018 -0.5493
  486MOL0     H64108  -1.768   8.914   1.278 -0.4986 -0.0167  0.4472
  486MOL0     H64109  -1.733   9.020   1.419  0.1569  1.3425 -1.6649
  486MOL0     H64110  -1.879   8.907   1.557  2.7705  4.8753 -1.4695
  486MOL0     H64111  -1.959   8.963   1.413  0.7342  0.3452 -0.4243
  486MOL0     H64112  -1.883   8.674   1.445 -0.5568 -0.0661  2.5811
  486MOL0     H64113  -1.990   8.753   1.328  1.7875 -1.4612 -1.1543
  486MOL0     H64114  -2.101   8.548   1.334  1.0610 -1.1348  2.4963
  486MOL0     H64115  -2.325   8.436   1.313  0.2481  1.2731 -2.4504
  486MOL0     H64116  -2.777   8.392   1.329 -0.5291  1.9545 -2.0492
  486MOL0     H64117  -3.031   8.339   1.352 -0.2871  1.8072 -1.5269
  486MOL0     H64118  -3.303   8.634   1.524 -1.3626  2.1695  2.3865
  486MOL0     H64119  -3.240   8.560   1.665 -1.9829  3.7974 -0.6523
  486MOL0     H64120  -3.421   8.356   1.612  0.0159 -0.0470 -0.8174
  486MOL0     H64121  -3.453   8.450   1.470  1.4380 -0.7479 -1.0085
  486MOL0     H64122  -3.542   8.639   1.593 -1.7448  0.7522  2.3677
  486MOL0     H64123  -3.529   8.557   1.744 -1.2447 -0.7121 -0.0804
  486MOL0     H64124  -3.700   8.466   1.503 -1.4809 -3.7966  0.4604
  486MOL0     H64125  -3.676   8.366   1.644 -2.8052  0.3449  0.8307
  486MOL0     H64126  -3.740   8.558   1.799 -2.6566  0.4546  1.5868
  486MOL0     H64127  -3.850   8.449   1.710  0.9567 -0.3813 -3.0291
  486MOL0     H64128  -3.883   8.629   1.529 -2.0637  4.4207 -0.6351
  486MOL0     H64129  -3.771   8.724   1.632  0.7309 -1.7006  0.8662
  486MOL0     H64130  -3.977   8.646   1.795  3.0745  1.1800  0.5470
  486MOL0     H64131  -3.959   8.814   1.726 -0.4324  0.3013 -0.3519
  486MOL0     H64132  -4.073   8.724   1.510 -0.8963 -0.6393 -0.3395
  486MOL0     H64133  -4.174   8.749   1.654  1.9695  2.8793  1.2324
  486MOL0     H64134  -3.073   8.681   1.609  1.1782  2.4054 -0.1582
  486MOL0     H64135  -2.841   8.721   1.591 -0.2775  0.5996 -0.4371
  486MOL0     H64136  -2.495   8.696   1.613 -0.8954 -1.6394 -0.5347
  486MOL0     H64137  -2.283   8.824   1.629 -0.0372 -0.9897  0.9318
  486MOL0     H64138  -0.167   9.141   1.587 -4.2166 -1.5437  4.2745
  486MOL0     H64139   0.084   9.089   1.608 -3.0781 -2.4606  0.5275
  486MOL0     H64140   0.452   9.181   1.946 -0.0325 -1.0269 -1.1041
  486MOL0     H64141   0.691   9.212   2.021 -0.0902 -1.1857 -0.8562
  486MOL0     H64142   0.893   9.171   2.038  2.9561 -0.2870  3.6049
  486MOL0     H64143   0.923   9.326   2.066 -0.9977  1.4831 -1.1633
  486MOL0     H64144   1.120   9.150   1.926  0.9551  1.2614 -1.3343
  486MOL0     H64145   1.136   9.328   1.938 -1.8332 -0.2116 -0.9516
  486MOL0     H64146   1.077   9.117   2.164 -1.0819 -0.4731 -3.1969
  486MOL0     H64147   1.135   9.282   2.183 -1.4243  0.8566 -0.5467
  486MOL0     H64148   1.362   9.226   2.099  1.9755 -0.7706  1.7203
  486MOL0     H64149   1.311   9.162   2.259 -0.8539 -2.1991  0.1515
  486MOL0     H64150   1.366   8.856   1.956  1.4994 -2.2905  2.0642
  486MOL0     H64151   0.801   9.326   1.619 -2.7497 -0.7589 -3.1172
  486MOL0     H64152   0.560   9.286   1.552  0.0343 -1.3642 -0.5857
  487MOL0     O64153   0.305   0.178   3.434 -0.1650  0.3923 -0.3162
  487MOL0     C64154   0.365   0.101   3.500  0.3971  0.2933 -0.7993
  487MOL0     O64155   0.339  -0.028   3.520 -0.1339  0.5076 -0.4349
  487MOL0     C64156   0.240  -0.086   3.442  0.1651 -0.4552  1.3659
  487MOL0     C64157   0.279  -0.112   3.308  0.3290 -0.5418  0.6180
  487MOL0     C64158   0.189  -0.174   3.228 -0.0908 -0.1694 -0.3987
  487MOL0     C64159   0.063  -0.215   3.274 -0.0103  0.4510  0.9592
  487MOL0     O64160  -0.029  -0.257   3.181 -0.3123  0.3438 -0.2604
  487MOL0     C64161  -0.143  -0.329   3.223  0.2914 -0.0246  0.8042
  487MOL0     C64162  -0.212  -0.412   3.115 -0.4621  0.1268  0.0554
  487MOL0     C64163  -0.333  -0.479   3.178  0.1783 -0.0455 -0.1056
  487MOL0     C64164  -0.395  -0.570   3.074 -0.6619 -0.4107  0.1247
  487MOL0     C64165  -0.504  -0.667   3.136 -0.0234 -0.0018 -0.1665
  487MOL0     C64166  -0.467  -0.751   3.256 -0.3181 -0.5859  0.2956
  487MOL0     C64167  -0.577  -0.852   3.281  1.1896 -0.1093 -0.1429
  487MOL0     C64168  -0.544  -0.937   3.402  0.2737 -0.8388 -0.2072
  487MOL0     N64169  -0.668  -0.974   3.463 -0.0379  0.7317  0.9189
  487MOL0     C64170  -0.762  -1.060   3.410  0.2161 -0.4784  0.0339
  487MOL0     C64171  -0.853  -1.067   3.504  1.6398  1.6927 -0.2295
  487MOL0     C64172  -0.983  -1.152   3.478  0.1242 -0.4898 -1.0519
  487MOL0     C64173  -1.033  -1.217   3.602  0.4009 -0.0088  1.2017
  487MOL0     C64174  -1.131  -1.133   3.688  0.0434  0.1013  0.5262
  487MOL0     C64175  -1.161  -1.204   3.812 -0.6148  0.4539  0.1586
  487MOL0     O64176  -1.258  -1.308   3.783 -0.1365 -0.2775  0.3896
  487MOL0     C64177  -1.389  -1.277   3.809  0.0962  0.2930  0.1340
  487MOL0     C64178  -1.476  -1.381   3.812  0.2129 -0.5151 -0.4194
  487MOL0     C64179  -1.610  -1.370   3.845  1.2084  0.0278 -1.2255
  487MOL0     C64180  -1.664  -1.241   3.868  0.6817 -0.9117 -0.7696
  487MOL0     C64181  -1.813  -1.225   3.886  1.8612  0.2211  0.0729
  487MOL0     O64182  -1.874  -1.120   3.934  0.1748 -0.4178  0.1766
  487MOL0     C64183  -2.012  -1.113   3.940  0.5378 -0.5986  0.2604
  487MOL0     C64184  -2.059  -1.040   4.046 -0.6840 -0.8240 -1.0739
  487MOL0     C64185  -2.194  -1.029   4.075 -1.0404  0.3744  0.8331
  487MOL0     C64186  -2.283  -1.099   4.007 -0.7227  1.0756  0.8452
  487MOL0     O64187  -2.420  -1.082   4.041 -0.0008  0.0483 -0.4333
  487MOL0     C64188  -2.480  -1.208   4.071 -0.1191  1.0482  0.5778
  487MOL0     C64189  -2.624  -1.168   4.100  0.3691 -0.7339 -0.3337
  487MOL0     C64190  -2.702  -1.298   4.144 -0.9029 -0.0803 -0.1636
  487MOL0     C64191  -2.664  -1.355   4.286  0.7983  0.6225 -0.4663
  487MOL0     C64192  -2.719  -1.261   4.396  0.0392 -0.5174 -0.2757
  487MOL0     C64193  -2.868  -1.242   4.403 -0.4907 -0.5592 -0.5989
  487MOL0     C64194  -2.910  -1.160   4.529 -0.1465  0.1963  0.1372
  487MOL0     C64195  -3.049  -1.171   4.557 -0.4321  0.0356 -0.3003
  487MOL0    Cl64196  -3.107  -1.343   4.583 -0.0264 -0.0908  0.3183
  487MOL0     C64197  -2.248  -1.172   3.894  0.4706  0.5766 -0.3939
  487MOL0     C64198  -2.111  -1.183   3.864  1.0686  0.5159  0.4295
  487MOL0     O64199  -1.874  -1.330   3.860  0.3825 -0.5138  0.7701
  487MOL0     C64200  -1.581  -1.130   3.859 -0.1335  0.3221 -0.6038
  487MOL0     C64201  -1.446  -1.148   3.821 -0.4861  0.2506  0.3249
  487MOL0     N64202  -0.817  -0.983   3.609 -0.7818 -0.1812  0.1565
  487MOL0     N64203  -0.702  -0.927   3.584 -0.0767 -0.4726 -0.0496
  487MOL0     C64204   0.030  -0.192   3.407 -0.1747 -0.5945  0.3426
  487MOL0     C64205   0.117  -0.123   3.498 -0.4051 -0.4984  0.5477
  487MOL0     C64206   0.494   0.150   3.567 -0.5125  0.2490 -0.2074
  487MOL0     C64207   0.537   0.091   3.683  0.2865 -0.4920 -0.3059
  487MOL0     C64208   0.666   0.131   3.737 -0.2953 -0.3800  0.9118
  487MOL0     C64209   0.741   0.233   3.677 -0.3039 -0.3567 -0.6380
  487MOL0     O64210   0.867   0.279   3.720  0.5694 -0.9279  0.4464
  487MOL0     C64211   0.943   0.196   3.810  0.0007  0.5586  0.0582
  487MOL0     C64212   1.060   0.280   3.868  0.1666  0.1770  0.0819
  487MOL0     C64213   1.157   0.341   3.765  0.3093  0.4456  0.4397
  487MOL0     C64214   1.125   0.484   3.707 -1.4481  0.6720  0.4790
  487MOL0     C64215   1.249   0.525   3.637  0.3367 -0.1370  0.4110
  487MOL0     C64216   1.363   0.569   3.605 -0.3809  0.3394 -0.2818
  487MOL0     C64217   0.685   0.298   3.566 -1.0649  0.3194  0.1509
  487MOL0     C64218   0.568   0.251   3.509 -0.9114 -1.2774  0.0508
  487MOL0     H64219   0.378  -0.085   3.276  0.5769 -1.1751  0.8194
  487MOL0     H64220   0.226  -0.200   3.129  1.3124 -1.8360  0.5231
  487MOL0     H64221  -0.212  -0.259   3.272  1.0056  1.5063 -0.3001
  487MOL0     H64222  -0.101  -0.405   3.289 -0.2784 -1.8822 -0.8761
  487MOL0     H64223  -0.143  -0.493   3.087  0.9773  0.8696  1.2841
  487MOL0     H64224  -0.242  -0.352   3.029  0.1476  1.4925  0.7660
  487MOL0     H64225  -0.408  -0.403   3.203 -2.3557 -2.1049 -0.9531
  487MOL0     H64226  -0.306  -0.538   3.266 -1.2339  1.9248  1.7821
  487MOL0     H64227  -0.431  -0.511   2.989 -0.5390 -0.3604  0.1070
  487MOL0     H64228  -0.319  -0.631   3.024 -0.6945 -1.2096  1.0399
  487MOL0     H64229  -0.542  -0.736   3.060 -0.3075  0.5633 -0.5455
  487MOL0     H64230  -0.586  -0.600   3.161  0.0035 -0.4626  1.2777
  487MOL0     H64231  -0.465  -0.674   3.333 -0.1661  2.2828 -2.4095
  487MOL0     H64232  -0.374  -0.809   3.251  1.6022  2.3683 -1.0587
  487MOL0     H64233  -0.675  -0.804   3.287 -0.8608 -3.0048 -4.8990
  487MOL0     H64234  -0.590  -0.924   3.200 -1.8393 -0.1145  0.2458
  487MOL0     H64235  -0.497  -0.869   3.474 -0.2637  0.2168 -0.8289
  487MOL0     H64236  -0.490  -1.031   3.383 -1.5207 -1.8027 -0.7185
  487MOL0     H64237  -0.762  -1.127   3.325  0.3033 -1.8095  1.0569
  487MOL0     H64238  -0.960  -1.230   3.405 -2.7060 -0.7424 -1.7705
  487MOL0     H64239  -1.063  -1.085   3.443 -2.7976 -1.4575  3.0068
  487MOL0     H64240  -0.950  -1.261   3.658 -0.1138 -1.7501  0.6753
  487MOL0     H64241  -1.092  -1.299   3.559 -1.9867  2.5138 -0.6853
  487MOL0     H64242  -1.099  -1.032   3.716 -0.2198 -0.2574  2.1650
  487MOL0     H64243  -1.221  -1.105   3.631  0.9193 -0.0389 -0.9889
  487MOL0     H64244  -1.196  -1.134   3.888 -0.3574 -0.6147  1.3030
  487MOL0     H64245  -1.071  -1.254   3.851 -0.4254  1.3806  0.9584
  487MOL0     H64246  -1.429  -1.478   3.799  2.1897  0.3021  0.1225
  487MOL0     H64247  -1.665  -1.464   3.848 -0.3218  0.9334  0.3255
  487MOL0     H64248  -1.991  -0.997   4.119 -0.5269 -1.0638 -1.0773
  487MOL0     H64249  -2.202  -0.970   4.165  2.6445  0.8223  1.0222
  487MOL0     H64250  -2.428  -1.250   4.157 -0.8776 -0.1591  0.4668
  487MOL0     H64251  -2.502  -1.278   3.989 -1.3908  0.7207  1.1707
  487MOL0     H64252  -2.668  -1.122   4.012  3.4485  0.1291 -1.5596
  487MOL0     H64253  -2.642  -1.096   4.180  0.0277 -0.2286 -0.8634
  487MOL0     H64254  -2.664  -1.369   4.070  1.0009 -2.3257  2.7703
  487MOL0     H64255  -2.809  -1.274   4.151 -0.8170 -0.1148  1.9606
  487MOL0     H64256  -2.704  -1.455   4.299  1.8903 -0.2009 -2.9598
  487MOL0     H64257  -2.555  -1.352   4.296  1.1350  0.3097 -3.3191
  487MOL0     H64258  -2.679  -1.160   4.388 -0.7816 -0.2927 -1.9556
  487MOL0     H64259  -2.688  -1.307   4.491  2.1989  3.7501  1.3169
  487MOL0     H64260  -2.912  -1.341   4.412 -0.6142 -0.4117  0.5317
  487MOL0     H64261  -2.911  -1.209   4.307  1.2529  0.0380 -1.2221
  487MOL0     H64262  -2.839  -1.196   4.604  0.8963  0.3545 -0.7481
  487MOL0     H64263  -2.889  -1.054   4.510 -1.4496  1.3144  4.0221
  487MOL0     H64264  -3.103  -1.142   4.467 -1.9069 -5.9667 -1.8093
  487MOL0     H64265  -3.074  -1.111   4.645  0.8996  0.1457  0.0357
  487MOL0     H64266  -2.322  -1.223   3.834  0.3630  0.3951 -0.1136
  487MOL0     H64267  -2.083  -1.252   3.785  0.1195 -1.3058  1.6260
  487MOL0     H64268  -1.621  -1.030   3.876  1.9827  1.4547 -1.7495
  487MOL0     H64269  -1.393  -1.057   3.796  0.0038  0.0482  0.6309
  487MOL0     H64270  -0.067  -0.223   3.445 -0.8512 -0.0144 -0.8379
  487MOL0     H64271   0.091  -0.098   3.600 -1.4090  0.4061  0.0907
  487MOL0     H64272   0.485   0.006   3.726  1.3897 -0.3528  1.4365
  487MOL0     H64273   0.705   0.066   3.815 -0.5837 -1.2833  0.3247
  487MOL0     H64274   0.967   0.102   3.760  0.9641 -0.9036  3.0452
  487MOL0     H64275   0.871   0.180   3.890 -0.8508  0.1184 -0.7723
  487MOL0     H64276   1.021   0.363   3.928  0.0862 -1.7710  2.9439
  487MOL0     H64277   1.113   0.211   3.934  0.5651 -0.7774 -1.1989
  487MOL0     H64278   1.174   0.272   3.682 -1.7124  2.4183 -1.8094
  487MOL0     H64279   1.252   0.350   3.818  1.0272 -1.3325 -0.4575
  487MOL0     H64280   1.048   0.470   3.631 -1.5494 -4.4735  1.1609
  487MOL0     H64281   1.097   0.554   3.786  1.5400  0.6368  1.6880
  487MOL0     H64282   1.451   0.622   3.575 -0.3674 -1.1904 -3.3346
  487MOL0     H64283   0.737   0.380   3.518  0.2120 -0.5182  0.0555
  487MOL0     H64284   0.538   0.305   3.419 -1.7587  1.3381  1.7694
  488MOL0     O64285   6.463   2.397   1.492 -0.4955  0.1474  0.0541
  488MOL0     C64286   6.536   2.469   1.422  0.2974 -0.1886 -0.4589
  488MOL0     O64287   6.496   2.544   1.320  0.0252  0.2768 -0.9730
  488MOL0     C64288   6.369   2.557   1.279  0.3212 -0.2849  0.7821
  488MOL0     C64289   6.350   2.651   1.175  0.2917  0.4626 -0.1315
  488MOL0     C64290   6.225   2.673   1.127 -0.2937 -0.1829 -0.6470
  488MOL0     C64291   6.112   2.616   1.176 -0.2741 -0.5699 -0.6633
  488MOL0     O64292   5.990   2.657   1.143  0.0198 -0.4165  0.0103
  488MOL0     C64293   5.950   2.774   1.221  0.5779  0.1214 -0.9150
  488MOL0     C64294   5.993   2.907   1.148 -0.2662 -0.1274 -1.4108
  488MOL0     C64295   5.880   3.022   1.150  0.0619  0.6330  0.6124
  488MOL0     C64296   5.925   3.157   1.106 -0.6900  0.5721  0.4487
  488MOL0     C64297   6.044   3.218   1.172 -0.1198  0.1744 -0.1957
  488MOL0     C64298   6.079   3.350   1.099 -1.5109  0.2926  0.2992
  488MOL0     C64299   6.204   3.394   1.171  0.0934 -0.0331 -0.8810
  488MOL0     C64300   6.248   3.519   1.113 -0.9665  0.1522  0.6796
  488MOL0     N64301   6.387   3.560   1.153  0.5740 -0.1685 -0.1172
  488MOL0     C64302   6.434   3.586   1.282 -0.4483  0.4077 -0.8264
  488MOL0     C64303   6.554   3.635   1.275 -1.3394 -0.0272  0.8237
  488MOL0     C64304   6.645   3.679   1.386  0.4003 -1.1262  0.1867
  488MOL0     C64305   6.755   3.775   1.331  0.5101  0.2609  0.4500
  488MOL0     C64306   6.846   3.817   1.447  0.2561 -0.0581 -0.6561
  488MOL0     C64307   6.997   3.815   1.430 -0.0103  0.4897  0.6098
  488MOL0     O64308   7.032   3.684   1.398 -0.5116  0.2090  0.5660
  488MOL0     C64309   7.164   3.648   1.418  0.4932 -0.4011 -0.0474
  488MOL0     C64310   7.274   3.722   1.368 -0.0126 -0.0599  0.1704
  488MOL0     C64311   7.402   3.671   1.379 -0.9441 -0.3885 -0.5552
  488MOL0     C64312   7.429   3.542   1.418  0.4156  0.6645 -0.3700
  488MOL0     C64313   7.568   3.485   1.413  0.0613 -0.3244 -0.3529
  488MOL0     O64314   7.681   3.565   1.393 -0.3451  0.4622 -0.1632
  488MOL0     C64315   7.803   3.526   1.443 -0.4406 -0.1459  1.5101
  488MOL0     C64316   7.907   3.548   1.350 -0.7994  0.2447 -0.5660
  488MOL0     C64317   8.031   3.502   1.383  0.2184 -0.5302 -0.4301
  488MOL0     C64318   8.058   3.443   1.506  0.7448 -0.6403  0.2935
  488MOL0     O64319   8.175   3.386   1.533 -0.3030 -0.1558  0.0599
  488MOL0     C64320   8.291   3.460   1.510 -1.1527 -0.8245 -0.1916
  488MOL0     C64321   8.353   3.385   1.394 -0.2393  0.3364 -0.3351
  488MOL0     C64322   8.335   3.228   1.389 -0.0521  0.7067  0.6211
  488MOL0     C64323   8.457   3.153   1.332 -0.3954 -0.0409  0.0008
  488MOL0     C64324   8.418   3.014   1.270 -0.8283  0.5096 -0.3360
  488MOL0     C64325   8.551   2.953   1.201  1.0176  0.2729 -0.8671
  488MOL0     C64326   8.531   2.806   1.168  0.8438 -0.6848  0.6910
  488MOL0     C64327   8.541   2.721   1.296  0.0149  0.6384  0.5232
  488MOL0    Cl64328   8.466   2.565   1.280 -0.4064  0.3605  0.1048
  488MOL0     C64329   7.950   3.415   1.600  0.1681  0.0396  0.0065
  488MOL0     C64330   7.826   3.461   1.567 -0.1900 -0.3065 -0.2412
  488MOL0     O64331   7.579   3.363   1.409 -0.2992 -0.1730  0.5802
  488MOL0     C64332   7.322   3.479   1.485 -0.3358  0.2646 -0.5870
  488MOL0     C64333   7.195   3.529   1.484  0.0474 -1.3591 -0.2252
  488MOL0     N64334   6.587   3.632   1.149 -0.1718 -0.4119  1.0006
  488MOL0     N64335   6.487   3.593   1.072  0.1548  0.2123 -0.7123
  488MOL0     C64336   6.121   2.529   1.283 -0.0820  0.5635  0.0283
  488MOL0     C64337   6.249   2.496   1.338 -0.1035  0.4960  0.4201
  488MOL0     C64338   6.681   2.439   1.437 -0.2904 -0.1209  0.0403
  488MOL0     C64339   6.771   2.523   1.379 -0.7324 -0.6180 -0.8186
  488MOL0     C64340   6.913   2.511   1.401  0.2299 -0.6912 -0.6465
  488MOL0     C64341   6.963   2.400   1.477  0.5780 -0.7692  0.1630
  488MOL0     O64342   7.093   2.364   1.488 -0.3990 -0.3590 -0.1540
  488MOL0     C64343   7.189   2.435   1.415 -0.0717 -0.5381 -1.0225
  488MOL0     C64344   7.326   2.373   1.434  0.8015 -0.1916 -0.4996
  488MOL0     C64345   7.398   2.394   1.571  0.4521 -0.0711  1.0259
  488MOL0     C64346   7.518   2.300   1.579 -0.7560  0.3395 -0.0968
  488MOL0     C64347   7.615   2.343   1.682  0.5852 -0.4592  0.0849
  488MOL0     C64348   7.707   2.368   1.748 -1.2538  0.0476  0.0854
  488MOL0     C64349   6.862   2.314   1.540 -0.2096 -0.6333  0.1094
  488MOL0     C64350   6.724   2.335   1.527  1.1874  0.7427 -0.8092
  488MOL0     H64351   6.435   2.709   1.141 -1.5435  3.1174 -0.5850
  488MOL0     H64352   6.211   2.746   1.048 -0.4180  1.4682  0.8473
  488MOL0     H64353   5.981   2.770   1.326 -4.0328  1.4890  0.7529
  488MOL0     H64354   5.842   2.768   1.240  0.9675  0.0641  1.6337
  488MOL0     H64355   6.016   2.889   1.042 -4.3772  1.6254 -2.8285
  488MOL0     H64356   6.082   2.944   1.198 -1.5465 -0.8006  1.5719
  488MOL0     H64357   5.841   3.030   1.252 -0.8746 -1.3230  0.4434
  488MOL0     H64358   5.796   2.990   1.087  0.9733 -0.5150 -0.0584
  488MOL0     H64359   5.962   3.145   1.004 -0.6189  2.0752  0.2679
  488MOL0     H64360   5.846   3.233   1.109  1.3152  2.7329  1.7148
  488MOL0     H64361   6.134   3.155   1.174 -1.5030 -1.9093  2.4090
  488MOL0     H64362   6.010   3.250   1.270  2.1664  3.6384 -0.3642
  488MOL0     H64363   5.997   3.422   1.104 -1.8864 -0.2216  2.4874
  488MOL0     H64364   6.096   3.324   0.994  1.2162  1.6144  0.3045
  488MOL0     H64365   6.167   3.409   1.273 -0.4869 -3.0603 -0.5226
  488MOL0     H64366   6.278   3.313   1.177  0.4092  0.3552  1.6363
  488MOL0     H64367   6.174   3.599   1.117 -0.9381  0.2839 -0.9660
  488MOL0     H64368   6.261   3.505   1.006 -0.8298  1.3505  0.5234
  488MOL0     H64369   6.382   3.562   1.374 -0.0904  1.5212 -0.3108
  488MOL0     H64370   6.675   3.596   1.450 -2.3060 -2.0745  0.3308
  488MOL0     H64371   6.587   3.742   1.454 -2.3014 -0.1907 -2.7181
  488MOL0     H64372   6.717   3.856   1.268 -4.0720  0.1878  2.7582
  488MOL0     H64373   6.818   3.718   1.262 -0.6533 -2.3395  1.4144
  488MOL0     H64374   6.811   3.913   1.488 -2.3887 -0.9457 -0.6592
  488MOL0     H64375   6.818   3.758   1.535 -4.0272  4.4395  1.4967
  488MOL0     H64376   7.048   3.855   1.519 -0.3196  3.9023 -0.5969
  488MOL0     H64377   7.018   3.883   1.347  3.0738 -0.0736  0.7785
  488MOL0     H64378   7.256   3.821   1.328  3.8440  0.0032 -1.9226
  488MOL0     H64379   7.488   3.722   1.337 -3.0969  2.9541 -1.2364
  488MOL0     H64380   7.896   3.600   1.256  0.8820 -1.1075 -1.5762
  488MOL0     H64381   8.116   3.507   1.316  1.3074  2.7242  0.9853
  488MOL0     H64382   8.353   3.454   1.600 -0.9454 -4.8875 -0.4251
  488MOL0     H64383   8.267   3.563   1.484  0.3314 -0.7125 -1.2425
  488MOL0     H64384   8.462   3.399   1.399  0.2300 -2.7873  0.3421
  488MOL0     H64385   8.320   3.441   1.306  0.5009 -0.1923 -0.9649
  488MOL0     H64386   8.246   3.208   1.329  0.8757 -0.4672 -0.4318
  488MOL0     H64387   8.332   3.182   1.488  0.9777  1.2716  0.9279
  488MOL0     H64388   8.487   3.216   1.247  2.2246 -1.1947 -0.0288
  488MOL0     H64389   8.537   3.138   1.404 -0.4591  1.5307  0.4274
  488MOL0     H64390   8.349   3.030   1.187  1.6237  2.8970 -2.0937
  488MOL0     H64391   8.388   2.942   1.346 -1.9060 -0.7825 -1.9201
  488MOL0     H64392   8.635   2.966   1.270 -1.8049  2.6748  2.4879
  488MOL0     H64393   8.581   3.018   1.118 -0.1282  2.1360  0.0910
  488MOL0     H64394   8.441   2.788   1.110  0.8466 -0.1975  0.5252
  488MOL0     H64395   8.619   2.785   1.106  1.7003 -0.4483  1.7939
  488MOL0     H64396   8.497   2.771   1.383 -0.3022 -1.0590  1.3998
  488MOL0     H64397   8.646   2.699   1.319  0.2085 -0.8610 -1.4699
  488MOL0     H64398   7.964   3.349   1.685 -2.8185 -0.6060  0.1069
  488MOL0     H64399   7.747   3.420   1.629  0.2249 -1.3418 -0.3862
  488MOL0     H64400   7.327   3.384   1.538 -0.3578 -0.6325 -2.1244
  488MOL0     H64401   7.118   3.479   1.542 -0.4184  0.7559  1.0979
  488MOL0     H64402   6.026   2.494   1.322 -0.6291 -0.1519 -1.8557
  488MOL0     H64403   6.248   2.413   1.408 -0.0073  1.4739  1.6019
  488MOL0     H64404   6.738   2.610   1.323  1.3580  0.1813 -0.8771
  488MOL0     H64405   6.981   2.578   1.350 -0.2006  0.5070  0.2973
  488MOL0     H64406   7.181   2.541   1.442 -1.4382 -1.2418  1.6596
  488MOL0     H64407   7.168   2.421   1.308 -3.3700 -1.4456 -0.3583
  488MOL0     H64408   7.321   2.266   1.412  2.4082  0.0376 -2.3123
  488MOL0     H64409   7.398   2.414   1.362  0.0591  0.2501 -0.9948
  488MOL0     H64410   7.315   2.387   1.643 -0.4885 -0.5073 -0.0638
  488MOL0     H64411   7.424   2.500   1.571 -1.6091  0.7025 -3.5690
  488MOL0     H64412   7.495   2.193   1.589  1.8113 -0.5055 -2.1569
  488MOL0     H64413   7.564   2.304   1.481 -4.4737 -1.2644 -2.1233
  488MOL0     H64414   7.790   2.374   1.816  0.7796 -1.0946 -2.1595
  488MOL0     H64415   6.896   2.231   1.602 -1.0079 -1.3090 -0.3571
  488MOL0     H64416   6.659   2.276   1.589 -0.2304  1.6984 -1.3244
  489MOL0     O64417  10.728  10.653   7.825 -0.2610 -0.1679 -0.2763
  489MOL0     C64418  10.744  10.554   7.753  0.5569  0.1245  0.2646
  489MOL0     O64419  10.659  10.511   7.649  0.7018  0.6254  0.4142
  489MOL0     C64420  10.524  10.540   7.646 -0.1643 -0.3764 -0.1333
  489MOL0     C64421  10.458  10.472   7.547  0.6143  0.3109  0.1709
  489MOL0     C64422  10.321  10.456   7.545 -0.3031  0.6852 -0.6492
  489MOL0     C64423  10.248  10.529   7.645  0.8030 -0.2040  0.5708
  489MOL0     O64424  10.105  10.512   7.654 -0.5589 -0.2788 -0.5405
  489MOL0     C64425  10.041  10.548   7.777  0.5863 -0.7851 -0.4017
  489MOL0     C64426   9.888  10.541   7.770  0.3256 -0.1762 -0.8828
  489MOL0     C64427   9.817  10.421   7.841  0.7434  0.7298 -0.4495
  489MOL0     C64428   9.667  10.432   7.821 -0.4115  0.1303  0.1480
  489MOL0     C64429   9.597  10.310   7.876 -0.5387  0.0689  0.4503
  489MOL0     C64430   9.438  10.324   7.863 -0.1690  1.1018  0.1656
  489MOL0     C64431   9.354  10.203   7.923 -0.0290  0.5027  0.1604
  489MOL0     C64432   9.205  10.255   7.940 -0.8801 -0.3946  0.5758
  489MOL0     N64433   9.118  10.150   7.974 -0.8673  0.1576 -0.5792
  489MOL0     C64434   9.057  10.137   8.092  1.0973  0.4494 -0.0884
  489MOL0     C64435   8.980  10.026   8.087  0.5521  0.0608 -0.6698
  489MOL0     C64436   8.876   9.982   8.193 -0.2985  0.2859  0.1108
  489MOL0     C64437   8.757  10.081   8.170  0.5703  0.6314 -0.7315
  489MOL0     C64438   8.641  10.016   8.240  0.2418  0.5225 -0.7021
  489MOL0     C64439   8.512  10.107   8.243 -0.3337  0.3704 -1.2476
  489MOL0     O64440   8.430  10.049   8.338  0.4331  0.3117 -0.3577
  489MOL0     C64441   8.291  10.049   8.320 -0.2084  0.0344  0.3942
  489MOL0     C64442   8.221   9.938   8.367 -0.2182 -0.3607 -0.2613
  489MOL0     C64443   8.085   9.935   8.338 -0.2192 -0.4534 -0.4678
  489MOL0     C64444   8.016  10.027   8.253  0.4607  0.4251 -0.9072
  489MOL0     C64445   7.864  10.022   8.240  0.3250 -0.1686  0.7439
  489MOL0     O64446   7.792   9.975   8.341  0.6326  0.2558 -0.1810
  489MOL0     C64447   7.654   9.951   8.331 -0.5819  0.8729 -0.2491
  489MOL0     C64448   7.570   9.976   8.445  0.2801  0.3411  0.3568
  489MOL0     C64449   7.437   9.931   8.459  0.1095  0.5835 -0.5605
  489MOL0     C64450   7.384   9.858   8.351 -0.8888 -0.6232  0.0338
  489MOL0     O64451   7.254   9.820   8.335 -0.7324 -0.2362 -0.2193
  489MOL0     C64452   7.204   9.768   8.462  0.8982  0.0178 -0.4697
  489MOL0     C64453   7.054   9.758   8.451 -0.4839 -0.0429  0.4727
  489MOL0     C64454   6.996   9.907   8.451 -0.4303 -0.6162 -0.1336
  489MOL0     C64455   6.844   9.910   8.460 -1.0224 -0.1065 -0.2786
  489MOL0     C64456   6.768   9.924   8.327 -0.3322  0.4624 -0.1030
  489MOL0     C64457   6.635   9.866   8.321  0.1306  0.6281  0.8343
  489MOL0     C64458   6.541   9.937   8.412 -0.0610  0.2054  0.4394
  489MOL0     C64459   6.410   9.869   8.428  0.8449  0.3320  0.3613
  489MOL0    Cl64460   6.326   9.849   8.273  0.3655  0.6118 -0.5241
  489MOL0     C64461   7.460   9.856   8.234  0.4213  0.3024 -0.4664
  489MOL0     C64462   7.597   9.880   8.224  0.2883  0.2056  1.1625
  489MOL0     O64463   7.817  10.054   8.128  0.1204  0.0246  0.2878
  489MOL0     C64464   8.088  10.136   8.211  0.7195 -0.3913 -0.7349
  489MOL0     C64465   8.222  10.151   8.247  0.3839  0.4760 -0.0586
  489MOL0     N64466   9.010   9.966   7.969 -0.1621  0.7998  0.1156
  489MOL0     N64467   9.100  10.032   7.904  0.2494 -0.1274  0.6489
  489MOL0     C64468  10.318  10.616   7.730  1.1719 -0.9238 -0.3766
  489MOL0     C64469  10.451  10.626   7.728 -0.0810  0.1019 -1.1364
  489MOL0     C64470  10.879  10.504   7.749  0.8355 -0.2071  0.3184
  489MOL0     C64471  10.995  10.568   7.815  0.1541  0.3817 -0.0777
  489MOL0     C64472  11.119  10.508   7.805  0.6216 -0.6023  0.0559
  489MOL0     C64473  11.135  10.383   7.736 -0.1749 -0.1030  0.2538
  489MOL0     O64474  11.255  10.320   7.755 -0.6916 -0.4193  0.1037
  489MOL0     C64475  11.258  10.183   7.706  0.1470  0.2783 -0.7586
  489MOL0     C64476  11.393  10.128   7.739 -0.1707  0.4695 -0.0830
  489MOL0     C64477  11.409   9.981   7.692 -0.0906 -0.3725  0.1504
  489MOL0     C64478  11.542   9.913   7.759  0.4578 -1.4952  0.4009
  489MOL0     C64479  11.655   9.999   7.719 -1.0571 -0.3897 -0.4338
  489MOL0     C64480  11.761  10.062   7.697 -0.0597 -0.1672  0.5600
  489MOL0     C64481  11.021  10.323   7.681 -0.6934  0.2413  0.3558
  489MOL0     C64482  10.892  10.383   7.676 -0.4810 -0.7480  0.2477
  489MOL0     H64483  10.517  10.405   7.485  1.3046  3.6394 -3.1121
  489MOL0     H64484  10.274  10.380   7.484 -0.9028  0.9909 -0.5664
  489MOL0     H64485  10.064  10.654   7.796  2.7675 -1.1076 -0.9406
  489MOL0     H64486  10.078  10.479   7.853  2.8851  1.2641  0.4696
  489MOL0     H64487   9.863  10.542   7.663 -0.2333 -1.4293 -0.7903
  489MOL0     H64488   9.846  10.636   7.804 -1.7625 -1.2048 -0.3798
  489MOL0     H64489   9.850  10.414   7.945  1.5584 -0.5796 -0.7667
  489MOL0     H64490   9.841  10.329   7.786 -0.4570 -0.5201  1.0425
  489MOL0     H64491   9.626  10.526   7.860 -1.9179  1.3361 -3.7598
  489MOL0     H64492   9.641  10.448   7.716 -1.2460  0.1119  0.3410
  489MOL0     H64493   9.620  10.300   7.982  1.4079  3.8447  0.5631
  489MOL0     H64494   9.637  10.228   7.816 -1.9335  1.1517 -2.1436
  489MOL0     H64495   9.424  10.317   7.755 -0.9794  0.7771  0.2840
  489MOL0     H64496   9.414  10.422   7.906 -0.7911  0.1501  2.1005
  489MOL0     H64497   9.356  10.126   7.845  3.5552 -0.2733  0.8188
  489MOL0     H64498   9.387  10.164   8.020 -0.9340  0.1246  0.3205
  489MOL0     H64499   9.169  10.309   7.852 -2.0914 -1.4660  0.3822
  489MOL0     H64500   9.205  10.329   8.021  0.0918  0.0154  0.2250
  489MOL0     H64501   9.053  10.198   8.182  2.5450 -0.8174  0.8881
  489MOL0     H64502   8.917   9.992   8.294 -0.1301 -2.0794  0.3366
  489MOL0     H64503   8.852   9.877   8.176 -1.3551  0.9309 -2.9017
  489MOL0     H64504   8.722  10.092   8.067  1.1051 -2.6522 -1.3637
  489MOL0     H64505   8.783  10.176   8.217 -1.6614  0.8458  0.1877
  489MOL0     H64506   8.626   9.918   8.194  0.4930 -0.6283  1.5261
  489MOL0     H64507   8.675  10.000   8.343  0.9364  0.3975 -0.9510
  489MOL0     H64508   8.466  10.108   8.144 -0.1273 -1.9244 -1.4190
  489MOL0     H64509   8.535  10.209   8.276  0.4077  0.2154 -1.2705
  489MOL0     H64510   8.273   9.853   8.410 -2.2390 -1.0853  0.8381
  489MOL0     H64511   8.026   9.861   8.391  0.1810  0.8221  1.8668
  489MOL0     H64512   7.626  10.029   8.522 -0.1452 -0.3912  1.1916
  489MOL0     H64513   7.382   9.965   8.546  0.4949  0.2872 -0.1974
  489MOL0     H64514   7.221   9.836   8.546  0.4132  0.3220 -0.6101
  489MOL0     H64515   7.242   9.667   8.483  3.0110  0.3057 -2.5766
  489MOL0     H64516   7.017   9.695   8.532 -0.6297 -1.9930 -1.0611
  489MOL0     H64517   7.019   9.719   8.355  0.8798  3.3313 -1.5970
  489MOL0     H64518   7.027   9.964   8.364  1.5646  2.9523  2.6266
  489MOL0     H64519   7.032   9.971   8.533 -0.8770 -2.1679  1.3329
  489MOL0     H64520   6.819   9.821   8.517  0.0640  0.6838  1.5153
  489MOL0     H64521   6.817   9.999   8.518  0.7061 -0.6818  1.5282
  489MOL0     H64522   6.828   9.868   8.254 -0.6054 -3.5758  2.4237
  489MOL0     H64523   6.761  10.026   8.290 -1.6213 -0.5221 -2.8977
  489MOL0     H64524   6.643   9.760   8.345 -2.6309 -0.3018 -1.8024
  489MOL0     H64525   6.599   9.879   8.219  1.7746 -0.8483  0.0274
  489MOL0     H64526   6.581   9.946   8.513 -1.7793  0.2518  1.1448
  489MOL0     H64527   6.540  10.043   8.385  4.0420  0.3668  0.2858
  489MOL0     H64528   6.350   9.929   8.496 -2.3392  0.0766 -2.0034
  489MOL0     H64529   6.428   9.774   8.478  3.8359 -0.1317 -1.3210
  489MOL0     H64530   7.421   9.809   8.145 -1.1489 -1.2796  0.9814
  489MOL0     H64531   7.637   9.863   8.125  1.3779  2.0089  1.2414
  489MOL0     H64532   8.038  10.218   8.160 -2.1723 -1.2705  0.4401
  489MOL0     H64533   8.263  10.250   8.231 -1.2360  1.2765  0.5417
  489MOL0     H64534  10.265  10.686   7.794  1.0865 -1.6037  0.3100
  489MOL0     H64535  10.504  10.702   7.784 -0.9205  0.9943 -1.5159
  489MOL0     H64536  10.987  10.653   7.882  4.4982 -0.8197  2.3621
  489MOL0     H64537  11.214  10.546   7.841  0.7753  1.3206 -2.1707
  489MOL0     H64538  11.259  10.185   7.596 -0.6440 -0.6498 -0.7965
  489MOL0     H64539  11.184  10.123   7.759  0.6688 -1.1233 -1.5654
  489MOL0     H64540  11.455  10.202   7.687 -2.4580  1.1910 -1.9963
  489MOL0     H64541  11.416  10.134   7.845 -1.4632  0.2800  0.2330
  489MOL0     H64542  11.406   9.975   7.583 -0.7244  1.1485  0.0493
  489MOL0     H64543  11.318   9.930   7.722 -0.5544 -2.2406 -3.8235
  489MOL0     H64544  11.534   9.909   7.868 -0.3479 -4.1554  0.3084
  489MOL0     H64545  11.563   9.812   7.724 -1.7159 -2.0251  0.4500
  489MOL0     H64546  11.846  10.127   7.690  0.5692 -1.1173 -1.1375
  489MOL0     H64547  11.027  10.225   7.635 -1.3264 -1.4273  3.5027
  489MOL0     H64548  10.814  10.339   7.615  0.3206 -0.0168 -1.4024
  490MOL0     O64549  10.934   4.122   4.418 -0.9475  0.5730  0.3934
  490MOL0     C64550  10.885   4.044   4.341 -0.8942  0.9784  0.2407
  490MOL0     O64551  10.948   3.990   4.229 -0.1328 -0.2638 -0.1549
  490MOL0     C64552  11.087   3.980   4.236  0.3110  0.4832 -0.4947
  490MOL0     C64553  11.151   4.055   4.145 -0.5666  0.6466  0.0923
  490MOL0     C64554  11.288   4.059   4.142  0.9668 -0.0109 -0.0051
  490MOL0     C64555  11.366   3.985   4.229 -0.5398 -0.2058  0.2543
  490MOL0     O64556  11.505   3.986   4.223 -0.1548  0.2259  0.1573
  490MOL0     C64557  11.575   4.103   4.172  0.3287 -0.1162  0.1293
  490MOL0     C64558  11.712   4.095   4.226 -1.1410  0.0957  0.6524
  490MOL0     C64559  11.797   4.211   4.174  0.7122  0.5426  0.5370
  490MOL0     C64560  11.943   4.193   4.217  0.5712  0.0320  0.4678
  490MOL0     C64561  12.033   4.309   4.158  1.4165 -0.4416  0.1341
  490MOL0     C64562  12.164   4.316   4.227  0.4088  0.0465  0.7262
  490MOL0     C64563  12.254   4.429   4.169  0.0912 -0.5119  0.4112
  490MOL0     C64564  12.287   4.424   4.023 -0.1790 -0.9431  0.3460
  490MOL0     N64565  12.372   4.296   4.001  0.3994 -1.5364  0.7328
  490MOL0     C64566  12.506   4.297   4.028  0.4486 -0.0121  0.9551
  490MOL0     C64567  12.542   4.166   4.004  1.6653  0.2871 -0.0899
  490MOL0     C64568  12.683   4.118   4.004 -0.6842  0.1764  0.2947
  490MOL0     C64569  12.731   4.096   3.863  0.0748 -0.1463 -0.3448
  490MOL0     C64570  12.883   4.038   3.865 -0.7456 -0.4356 -0.3126
  490MOL0     C64571  12.978   4.155   3.864 -0.0339 -0.2529  0.4051
  490MOL0     O64572  12.975   4.243   3.988 -0.0716  0.7129  0.3315
  490MOL0     C64573  13.079   4.319   4.016  1.5406  0.0181  0.8929
  490MOL0     C64574  13.079   4.369   4.136 -0.3556  0.6224 -0.7677
  490MOL0     C64575  13.185   4.462   4.177 -0.2812  0.9909 -0.2390
  490MOL0     C64576  13.288   4.495   4.087 -0.4226  0.5937 -0.2245
  490MOL0     C64577  13.389   4.595   4.114  0.3262 -0.2548  0.0112
  490MOL0     O64578  13.360   4.686   4.211 -0.1222 -0.0652  0.2731
  490MOL0     C64579  13.450   4.782   4.239  0.0091 -0.4954  0.0323
  490MOL0     C64580  13.517   4.772   4.362 -0.1979  0.3653 -0.3453
  490MOL0     C64581  13.618   4.858   4.396  0.4290  0.7194  0.0339
  490MOL0     C64582  13.654   4.960   4.307  0.2893  1.5489 -0.8209
  490MOL0     O64583  13.759   5.045   4.336 -0.1101 -0.0286  0.6691
  490MOL0     C64584  13.790   5.069   4.476  0.7505  0.6764 -0.4796
  490MOL0     C64585  13.897   5.181   4.476  0.4823  0.8908  0.2577
  490MOL0     C64586  13.823   5.314   4.455  0.1943  0.9962 -0.0380
  490MOL0     C64587  13.916   5.437   4.483 -0.0990 -0.2009  0.4535
  490MOL0     C64588  13.844   5.565   4.477 -1.2513  0.0012  0.0463
  490MOL0     C64589  13.945   5.686   4.507  0.8617 -0.8522  0.1368
  490MOL0     C64590  14.039   5.722   4.396 -0.2271  0.5187 -1.0031
  490MOL0     C64591  13.976   5.788   4.281  0.8312 -1.0634  0.0871
  490MOL0    Cl64592  13.928   5.956   4.322  0.2371 -0.1396  0.3015
  490MOL0     C64593  13.579   4.973   4.193 -0.7185 -0.2454 -0.0914
  490MOL0     C64594  13.476   4.893   4.162 -0.6701  0.7912  0.1362
  490MOL0     O64595  13.484   4.598   4.039 -0.2209 -0.4251 -0.1916
  490MOL0     C64596  13.280   4.435   3.950 -0.9961  0.3268 -1.0855
  490MOL0     C64597  13.177   4.354   3.917 -0.1380  0.3788 -0.0892
  490MOL0     N64598  12.429   4.092   3.979 -0.1793  0.6270 -0.5432
  490MOL0     N64599  12.328   4.169   3.978 -0.0839 -0.5073 -0.1807
  490MOL0     C64600  11.301   3.921   4.332  0.9076  0.6113  0.4405
  490MOL0     C64601  11.165   3.914   4.334  0.2997  0.0066  0.1831
  490MOL0     C64602  10.737   4.024   4.342  0.3670  0.2905  0.4561
  490MOL0     C64603  10.649   4.090   4.433 -0.4485  0.4743  0.0630
  490MOL0     C64604  10.513   4.052   4.441  0.3088  0.4087  1.3022
  490MOL0     C64605  10.460   3.943   4.363 -0.4073 -0.2685 -0.5652
  490MOL0     O64606  10.325   3.900   4.367  0.4265  0.5642  0.2597
  490MOL0     C64607  10.230   3.972   4.451 -0.2736 -0.5284 -0.2840
  490MOL0     C64608  10.094   3.901   4.464  0.7054 -0.2939  0.5108
  490MOL0     C64609  10.006   3.978   4.560 -1.0467  0.1965  0.8286
  490MOL0     C64610   9.866   3.933   4.588  0.6998 -0.0608  0.4518
  490MOL0     C64611   9.851   3.787   4.624  0.9733  0.7874 -0.9093
  490MOL0     C64612   9.816   3.672   4.648 -0.6304 -0.0497  0.6019
  490MOL0     C64613  10.552   3.877   4.279  1.3268  0.6723 -0.2683
  490MOL0     C64614  10.688   3.918   4.263 -0.0405  0.5379  0.8785
  490MOL0     H64615  11.092   4.108   4.072  0.4832  2.0588  0.2374
  490MOL0     H64616  11.333   4.122   4.066 -2.4658  2.3396 -0.2849
  490MOL0     H64617  11.524   4.195   4.205 -2.4707 -1.6457  0.3267
  490MOL0     H64618  11.580   4.092   4.063 -1.1449 -0.1842  0.0490
  490MOL0     H64619  11.756   4.001   4.190 -1.5354 -0.4336  1.5413
  490MOL0     H64620  11.715   4.103   4.335  1.7707  0.3981  0.6340
  490MOL0     H64621  11.750   4.302   4.213 -4.1236 -1.5831  0.2874
  490MOL0     H64622  11.793   4.212   4.065  1.6620  2.0972  0.4798
  490MOL0     H64623  11.949   4.197   4.326  2.2753 -1.2391  0.4692
  490MOL0     H64624  11.997   4.104   4.182  0.7191 -0.8043  2.6935
  490MOL0     H64625  11.983   4.406   4.168  0.5611 -1.0500  2.4968
  490MOL0     H64626  12.049   4.293   4.051  0.7637 -0.4440  0.0372
  490MOL0     H64627  12.223   4.224   4.232  1.4730  0.5464 -1.3145
  490MOL0     H64628  12.136   4.331   4.331 -2.4806 -0.4470  0.1289
  490MOL0     H64629  12.195   4.520   4.182 -3.0469 -2.0181 -1.9481
  490MOL0     H64630  12.345   4.435   4.230  0.4110 -4.2461  0.5237
  490MOL0     H64631  12.358   4.506   4.003 -0.1722 -1.0573 -0.0987
  490MOL0     H64632  12.197   4.434   3.962  0.7500 -0.9977 -1.0891
  490MOL0     H64633  12.582   4.372   4.049  1.2952 -0.5722  0.0055
  490MOL0     H64634  12.693   4.031   4.070 -2.8527  0.9396  1.7171
  490MOL0     H64635  12.747   4.196   4.046  0.8187  0.4449 -2.2500
  490MOL0     H64636  12.721   4.188   3.803  2.3173  0.5303  0.2190
  490MOL0     H64637  12.662   4.026   3.816 -0.2339 -0.5026  0.6171
  490MOL0     H64638  12.901   3.978   3.955  4.2348  1.7183  0.4786
  490MOL0     H64639  12.913   3.972   3.783  1.2665  1.7918 -1.5237
  490MOL0     H64640  12.955   4.220   3.779 -0.7044  0.5082  1.1417
  490MOL0     H64641  13.077   4.112   3.844 -0.0812 -0.1084 -0.1702
  490MOL0     H64642  13.004   4.338   4.209  0.5489 -1.7103 -0.7428
  490MOL0     H64643  13.170   4.517   4.269 -2.0831 -0.5222  0.4190
  490MOL0     H64644  13.486   4.702   4.438 -0.7559  0.6302 -0.3227
  490MOL0     H64645  13.664   4.846   4.494  1.9140 -0.7259 -0.7911
  490MOL0     H64646  13.836   4.977   4.515  1.6530  1.1546 -0.4102
  490MOL0     H64647  13.705   5.100   4.537  0.8032 -1.2196  0.6421
  490MOL0     H64648  13.975   5.159   4.403  0.4426  2.1721 -0.1917
  490MOL0     H64649  13.947   5.177   4.574 -0.0619  0.4719  0.5191
  490MOL0     H64650  13.742   5.321   4.528 -1.4680  0.3930 -1.7500
  490MOL0     H64651  13.780   5.313   4.354  0.4134 -1.3267 -0.1552
  490MOL0     H64652  13.957   5.429   4.584 -1.3505  1.0440  1.1083
  490MOL0     H64653  13.990   5.427   4.403 -2.2083 -2.7429 -1.3564
  490MOL0     H64654  13.767   5.558   4.554 -1.2307 -0.6999  0.0074
  490MOL0     H64655  13.806   5.582   4.376  1.9526 -0.7153 -1.4244
  490MOL0     H64656  14.009   5.670   4.594  0.7389 -2.8327 -0.0803
  490MOL0     H64657  13.872   5.764   4.529 -0.8633 -2.5103  0.5708
  490MOL0     H64658  14.106   5.796   4.440 -1.4148  0.7467  0.5205
  490MOL0     H64659  14.106   5.640   4.368  0.6190  1.1334 -0.8023
  490MOL0     H64660  13.891   5.729   4.245  1.9688 -2.5452 -0.2649
  490MOL0     H64661  14.045   5.790   4.196 -0.5061 -2.9996 -1.1180
  490MOL0     H64662  13.615   5.051   4.127  3.7846 -0.8616  1.2886
  490MOL0     H64663  13.416   4.920   4.076  2.9918  0.9414 -2.5858
  490MOL0     H64664  13.361   4.446   3.879  3.7317 -0.5268  3.5759
  490MOL0     H64665  13.168   4.325   3.812 -0.1171 -0.8154  0.2287
  490MOL0     H64666  11.351   3.879   4.419 -1.1595  3.5574  3.2760
  490MOL0     H64667  11.125   3.856   4.416  0.2722 -0.1476  0.0595
  490MOL0     H64668  10.694   4.159   4.504 -1.6697  1.8369 -0.4380
  490MOL0     H64669  10.446   4.103   4.510 -1.5080  2.3064 -1.6302
  490MOL0     H64670  10.218   4.074   4.412 -1.8884  0.0007  1.4579
  490MOL0     H64671  10.265   3.976   4.554 -0.2723  0.7351 -0.3186
  490MOL0     H64672  10.046   3.895   4.366  1.9863  0.9053 -0.2247
  490MOL0     H64673  10.106   3.800   4.504  2.0109  0.8823  3.3768
  490MOL0     H64674  10.013   4.082   4.528 -1.4110 -0.3135 -1.0338
  490MOL0     H64675  10.054   3.979   4.659 -3.5840  3.9925  2.2456
  490MOL0     H64676   9.817   3.996   4.663  2.9667  0.4145  1.6382
  490MOL0     H64677   9.815   3.944   4.492  1.4587  1.7829  0.2183
  490MOL0     H64678   9.789   3.569   4.664 -0.4884 -0.2671 -0.5007
  490MOL0     H64679  10.523   3.782   4.235 -1.0151  0.7900  0.8803
  490MOL0     H64680  10.754   3.853   4.206 -0.1832  1.2425 -0.1185
  491MOL0     O64681   3.126   2.505  10.366 -1.0583  0.8897  0.0207
  491MOL0     C64682   3.151   2.563  10.470 -0.4011 -0.0064  0.3184
  491MOL0     O64683   3.054   2.597  10.550 -0.3707  0.0499 -0.5093
  491MOL0     C64684   2.923   2.606  10.507  1.0379 -0.5681  0.6598
  491MOL0     C64685   2.877   2.629  10.373 -0.4347 -0.1956  0.0537
  491MOL0     C64686   2.736   2.646  10.345  0.0349  0.6116 -0.0906
  491MOL0     C64687   2.642   2.626  10.446  0.1953 -0.1875 -0.0206
  491MOL0     O64688   2.511   2.633  10.434  0.3456 -0.0221  0.3089
  491MOL0     C64689   2.461   2.498  10.418 -0.4321 -0.6323  0.0741
  491MOL0     C64690   2.309   2.501  10.452  0.1472  0.1872  0.1738
  491MOL0     C64691   2.264   2.501  10.600 -0.3833  0.6703 -0.7307
  491MOL0     C64692   2.121   2.548  10.629 -0.7235  0.4417  0.4262
  491MOL0     C64693   2.043   2.449  10.720  0.9743 -0.3224  0.0755
  491MOL0     C64694   1.934   2.525  10.818 -0.4784  0.1099 -0.0752
  491MOL0     C64695   1.825   2.433  10.868 -0.1471  0.8168  0.2037
  491MOL0     C64696   1.751   2.484  10.989 -0.0496 -0.2829  0.1568
  491MOL0     N64697   1.639   2.400  11.032  0.0900 -0.6851 -0.1208
  491MOL0     C64698   1.511   2.436  10.998 -0.1027  0.2797 -0.2584
  491MOL0     C64699   1.432   2.335  11.058 -0.7891  0.8752 -0.2245
  491MOL0     C64700   1.297   2.346  11.072 -0.2824 -0.3108 -0.5467
  491MOL0     C64701   1.238   2.249  11.177 -0.8007  0.9527 -0.8575
  491MOL0     C64702   1.085   2.258  11.204  0.9166  1.4968 -0.1774
  491MOL0     C64703   0.999   2.210  11.083  0.3967  0.5188 -0.2282
  491MOL0     O64704   1.013   2.073  11.044  0.0198  0.1211  0.1885
  491MOL0     C64705   0.932   1.974  11.086 -0.0863 -0.1071  0.6281
  491MOL0     C64706   0.948   1.851  11.029  0.1375 -0.1215  0.0454
  491MOL0     C64707   0.877   1.740  11.069 -0.9784 -0.5798 -1.1625
  491MOL0     C64708   0.776   1.748  11.173 -1.1571  0.8126 -0.9266
  491MOL0     C64709   0.705   1.628  11.214  0.6267 -0.0374 -0.3744
  491MOL0     O64710   0.710   1.509  11.148  0.6956  0.7852 -0.5900
  491MOL0     C64711   0.612   1.407  11.184  0.7640 -0.2812 -0.2568
  491MOL0     C64712   0.590   1.374  11.321 -0.7422 -0.1846 -0.3138
  491MOL0     C64713   0.498   1.281  11.349  0.8099 -0.1465 -0.5663
  491MOL0     C64714   0.403   1.233  11.251 -0.7319  0.8602 -0.1517
  491MOL0     O64715   0.319   1.141  11.278 -0.0036 -0.3943 -0.4448
  491MOL0     C64716   0.377   1.008  11.291  0.5326 -0.5136 -0.2222
  491MOL0     C64717   0.276   0.901  11.287  0.1797  0.3768 -0.0708
  491MOL0     C64718   0.198   0.888  11.417 -0.1869 -0.7339  0.3892
  491MOL0     C64719   0.062   0.815  11.406  0.7163 -0.3437 -0.2524
  491MOL0     C64720   0.077   0.664  11.404 -0.1546 -0.1536  0.2238
  491MOL0     C64721  -0.055   0.598  11.357  0.1151  0.6938 -0.0645
  491MOL0     C64722  -0.007   0.447  11.333 -0.1312  0.8582  0.3946
  491MOL0     C64723  -0.134   0.357  11.320  0.3995  0.2936  0.4042
  491MOL0    Cl64724  -0.213   0.375  11.151 -0.3654 -0.3532 -0.1153
  491MOL0     C64725   0.408   1.285  11.127  0.2176  0.0843 -0.0711
  491MOL0     C64726   0.519   1.363  11.086 -0.2434 -0.1731  0.6854
  491MOL0     O64727   0.636   1.643  11.315 -0.3386  0.3973 -0.3989
  491MOL0     C64728   0.759   1.875  11.237 -1.2176  0.7716  0.9065
  491MOL0     C64729   0.841   1.982  11.195  0.0293  0.6733 -0.3833
  491MOL0     N64730   1.518   2.230  11.117 -0.1881 -1.2406 -0.4251
  491MOL0     N64731   1.633   2.283  11.106 -0.0399 -0.0393 -0.2761
  491MOL0     C64732   2.690   2.607  10.572  0.3871 -0.5614 -0.1727
  491MOL0     C64733   2.821   2.603  10.610 -0.9145 -0.6332  0.4239
  491MOL0     C64734   3.290   2.598  10.507 -0.3467  0.4063  0.5032
  491MOL0     C64735   3.315   2.715  10.571 -0.0151  0.0506 -0.8941
  491MOL0     C64736   3.454   2.748  10.602 -0.2412 -0.5459 -0.7444
  491MOL0     C64737   3.563   2.669  10.563 -0.9044  0.2901 -0.6180
  491MOL0     O64738   3.692   2.702  10.603  0.5080 -1.0518 -0.1080
  491MOL0     C64739   3.781   2.595  10.626  0.6558 -0.1748  0.6306
  491MOL0     C64740   3.911   2.642  10.699  0.0434  1.0453  1.0874
  491MOL0     C64741   4.005   2.524  10.736 -0.0356 -0.1313  0.0238
  491MOL0     C64742   4.145   2.563  10.773  0.4497 -0.4031  0.6377
  491MOL0     C64743   4.213   2.644  10.674 -1.0939 -0.2289 -0.3186
  491MOL0     C64744   4.248   2.713  10.573  0.4099  0.4531  0.2800
  491MOL0     C64745   3.534   2.558  10.485  0.3244  0.4729  0.0855
  491MOL0     C64746   3.403   2.515  10.470 -0.4634 -0.1016 -0.4341
  491MOL0     H64747   2.932   2.648  10.281 -0.2776 -2.0776 -0.2771
  491MOL0     H64748   2.694   2.662  10.247 -3.5156 -0.6254  1.0792
  491MOL0     H64749   2.519   2.416  10.461 -0.2033  0.8655  2.7648
  491MOL0     H64750   2.457   2.480  10.310 -0.6128 -2.9034  0.4128
  491MOL0     H64751   2.260   2.413  10.409 -0.0554 -2.2319  4.7503
  491MOL0     H64752   2.262   2.593  10.414 -2.0796 -0.0775  2.0463
  491MOL0     H64753   2.332   2.568  10.653 -1.4514 -0.0830  1.7589
  491MOL0     H64754   2.282   2.399  10.635  1.1145  0.7608 -1.1678
  491MOL0     H64755   2.149   2.646  10.667  4.2096  0.2356 -1.9469
  491MOL0     H64756   2.062   2.559  10.537 -0.3214 -0.7907  0.0001
  491MOL0     H64757   2.110   2.417  10.800  0.9475  1.0452  0.6796
  491MOL0     H64758   2.004   2.362  10.666  1.7349  0.7175 -2.2592
  491MOL0     H64759   1.892   2.612  10.767  1.6268  0.4519 -1.3428
  491MOL0     H64760   1.995   2.566  10.899 -1.7010  1.7128  0.0832
  491MOL0     H64761   1.761   2.408  10.783  2.3055 -0.8240 -1.3014
  491MOL0     H64762   1.867   2.334  10.889  0.1167  0.3086 -2.3231
  491MOL0     H64763   1.714   2.586  10.971 -0.7846 -0.4840  0.4779
  491MOL0     H64764   1.831   2.491  11.063 -0.8200 -1.2561  1.1166
  491MOL0     H64765   1.467   2.527  10.958 -1.1095  0.8795  2.0576
  491MOL0     H64766   1.239   2.331  10.980 -1.2225  1.3387 -0.2689
  491MOL0     H64767   1.282   2.452  11.095 -0.0172 -0.3042 -0.4078
  491MOL0     H64768   1.296   2.260  11.270 -2.3780 -0.5936  0.3783
  491MOL0     H64769   1.262   2.147  11.145 -1.6980 -0.0308  1.3916
  491MOL0     H64770   1.061   2.194  11.290  0.6184  2.6117  0.5879
  491MOL0     H64771   1.052   2.359  11.229  2.7275  2.5821 -1.8809
  491MOL0     H64772   1.020   2.273  10.996  2.2648 -0.8962 -0.8460
  491MOL0     H64773   0.892   2.223  11.103 -0.5673 -3.0474 -2.1273
  491MOL0     H64774   1.025   1.847  10.954  1.8955  0.1513  1.7532
  491MOL0     H64775   0.911   1.642  11.039  3.1625 -0.5347  2.4447
  491MOL0     H64776   0.663   1.408  11.394  1.2674 -2.0710 -1.3150
  491MOL0     H64777   0.494   1.236  11.448 -2.6117  3.7614  1.3654
  491MOL0     H64778   0.438   0.996  11.380  0.0715  1.1278  0.3670
  491MOL0     H64779   0.443   1.006  11.203  2.2705 -2.1923  1.0572
  491MOL0     H64780   0.312   0.798  11.272 -1.0632 -0.6256  3.1000
  491MOL0     H64781   0.199   0.923  11.212  1.2697 -0.7090 -1.5752
  491MOL0     H64782   0.176   0.994  11.435  0.0092 -0.8774  1.5203
  491MOL0     H64783   0.262   0.854  11.499 -0.3197 -0.3444  0.6550
  491MOL0     H64784  -0.000   0.843  11.492  0.4185  0.5058 -0.7324
  491MOL0     H64785   0.003   0.834  11.316 -0.6511 -3.4762 -0.1652
  491MOL0     H64786   0.113   0.628  11.500  4.6572  2.2353 -0.4233
  491MOL0     H64787   0.158   0.641  11.335  0.6454  0.5609  0.9022
  491MOL0     H64788  -0.089   0.648  11.266  0.7152 -0.3685 -0.9047
  491MOL0     H64789  -0.132   0.606  11.433 -0.4062  1.7869 -0.6735
  491MOL0     H64790   0.059   0.444  11.247 -0.1185 -1.8181  0.3894
  491MOL0     H64791   0.046   0.416  11.424 -2.4935 -0.6963  1.3733
  491MOL0     H64792  -0.215   0.383  11.389 -1.8112  0.5753 -2.1175
  491MOL0     H64793  -0.107   0.253  11.344 -2.3991 -0.9384 -1.3263
  491MOL0     H64794   0.329   1.245  11.064 -1.0188 -0.8088  1.9039
  491MOL0     H64795   0.519   1.389  10.980  0.7570  1.0407  0.9629
  491MOL0     H64796   0.692   1.879  11.323  1.2935  0.0737  3.0266
  491MOL0     H64797   0.829   2.075  11.249 -1.5038  0.3346 -0.0708
  491MOL0     H64798   2.618   2.603  10.653 -0.0517  2.1137 -0.3394
  491MOL0     H64799   2.840   2.605  10.717 -3.4493 -2.2054  0.9825
  491MOL0     H64800   3.239   2.785  10.606 -2.4671 -2.1785 -1.4539
  491MOL0     H64801   3.468   2.841  10.655 -0.9771 -0.2811 -1.0093
  491MOL0     H64802   3.810   2.545  10.533 -0.0896  0.8756 -0.1967
  491MOL0     H64803   3.735   2.515  10.683  2.0641 -2.7255 -1.5858
  491MOL0     H64804   3.945   2.703  10.615  1.6297  0.2770  1.1318
  491MOL0     H64805   3.898   2.695  10.794  2.3604 -0.4768  2.3630
  491MOL0     H64806   4.004   2.464  10.645  2.9792  3.8847 -3.0504
  491MOL0     H64807   3.954   2.479  10.821 -4.1403 -1.3025 -2.7518
  491MOL0     H64808   4.145   2.624  10.864  0.7253  1.8136 -0.7605
  491MOL0     H64809   4.202   2.471  10.789 -2.5421 -3.3684 -3.7561
  491MOL0     H64810   4.280   2.753  10.480  0.1763 -0.2988 -0.1376
  491MOL0     H64811   3.616   2.497  10.450  1.0216  1.3075  0.2357
  491MOL0     H64812   3.398   2.415  10.426 -0.9173 -0.7928  1.1505
  492MOL0     O64813   7.662   6.701   4.267 -0.0283 -0.0509 -0.0824
  492MOL0     C64814   7.712   6.632   4.355  0.1362  0.4053  0.0309
  492MOL0     O64815   7.641   6.539   4.432 -0.2669 -0.3977 -0.0155
  492MOL0     C64816   7.503   6.558   4.438 -0.4090 -0.4606  0.2804
  492MOL0     C64817   7.453   6.672   4.498  0.1732  0.4353 -0.4613
  492MOL0     C64818   7.310   6.680   4.514 -0.7640 -0.2411 -0.2668
  492MOL0     C64819   7.226   6.586   4.468  0.0905  0.2286  0.8902
  492MOL0     O64820   7.095   6.610   4.495 -0.2827  0.8003 -0.1208
  492MOL0     C64821   6.994   6.518   4.441  0.6449  0.3087  0.4970
  492MOL0     C64822   6.881   6.477   4.534  0.3087  0.6962 -0.3526
  492MOL0     C64823   6.772   6.578   4.558 -0.8310  0.6675 -0.6733
  492MOL0     C64824   6.678   6.505   4.651  0.0997  0.2170 -0.5421
  492MOL0     C64825   6.548   6.581   4.689  0.4367  0.1165  0.0840
  492MOL0     C64826   6.588   6.712   4.762  0.3808  0.2276 -0.9108
  492MOL0     C64827   6.464   6.803   4.790 -1.0347  0.7416  0.2922
  492MOL0     C64828   6.500   6.932   4.861  0.5256 -0.2057 -0.2153
  492MOL0     N64829   6.399   7.035   4.852  0.5682 -0.1861  0.2173
  492MOL0     C64830   6.281   7.015   4.922  0.5766  0.3426  0.7725
  492MOL0     C64831   6.190   7.105   4.867 -0.1168 -0.2985 -0.3512
  492MOL0     C64832   6.049   7.107   4.923  0.0576  0.3860  0.5950
  492MOL0     C64833   6.050   7.176   5.057  0.3205 -0.3834 -1.5957
  492MOL0     C64834   5.915   7.245   5.065  0.2792  0.9352  0.5719
  492MOL0     C64835   5.897   7.317   5.200 -0.7202 -0.6303 -0.5945
  492MOL0     O64836   5.786   7.400   5.192 -0.0416 -0.6625  0.5613
  492MOL0     C64837   5.754   7.488   5.294 -0.2866 -0.5642  0.2791
  492MOL0     C64838   5.633   7.551   5.293  0.0744  0.2784 -0.1129
  492MOL0     C64839   5.591   7.633   5.394 -0.5329 -0.1885 -0.1914
  492MOL0     C64840   5.662   7.652   5.511 -0.5789  0.3620  0.4557
  492MOL0     C64841   5.607   7.734   5.618  0.0636 -0.2834 -0.6686
  492MOL0     O64842   5.687   7.745   5.727  0.5593  0.5249 -0.5088
  492MOL0     C64843   5.642   7.807   5.846 -0.0056  0.1512  0.2492
  492MOL0     C64844   5.511   7.823   5.892  0.1284  0.1180  0.8323
  492MOL0     C64845   5.488   7.871   6.015  0.9144  0.4423 -0.0926
  492MOL0     C64846   5.591   7.911   6.098 -0.2571 -0.8497  0.6540
  492MOL0     O64847   5.549   7.965   6.214  0.0256  0.5767 -0.0605
  492MOL0     C64848   5.632   8.048   6.292 -0.3902  0.2586 -0.3156
  492MOL0     C64849   5.554   8.087   6.418 -0.2707  0.0354  0.5063
  492MOL0     C64850   5.522   7.980   6.518  0.2807  0.2160 -0.1610
  492MOL0     C64851   5.431   8.035   6.634  0.1440  0.1914 -0.6492
  492MOL0     C64852   5.455   7.968   6.776  0.1983  0.5766 -0.1746
  492MOL0     C64853   5.360   7.849   6.820 -0.2690 -0.4264  0.0391
  492MOL0     C64854   5.345   7.824   6.966  0.2449 -0.1464  0.2070
  492MOL0     C64855   5.475   7.798   7.042  0.0981  0.2735 -1.2315
  492MOL0    Cl64856   5.437   7.743   7.216  0.1558 -0.4168 -0.1207
  492MOL0     C64857   5.721   7.900   6.055 -0.2298 -0.0219 -1.1308
  492MOL0     C64858   5.744   7.852   5.929 -0.0383  0.6686  0.6273
  492MOL0     O64859   5.493   7.781   5.603  0.2201  0.6425  0.3088
  492MOL0     C64860   5.790   7.597   5.519  0.4496 -0.1264 -0.2170
  492MOL0     C64861   5.834   7.516   5.406  0.6564  0.7729 -0.0670
  492MOL0     N64862   6.243   7.161   4.755 -0.3126 -0.4894  0.2641
  492MOL0     N64863   6.368   7.120   4.751  0.5790 -0.8443  0.8461
  492MOL0     C64864   7.285   6.467   4.422  0.3087  0.6580 -0.6772
  492MOL0     C64865   7.417   6.454   4.406 -0.5244 -0.2260  0.2084
  492MOL0     C64866   7.857   6.632   4.368  0.5931 -0.1509  0.0320
  492MOL0     C64867   7.949   6.711   4.283 -0.2471 -0.4715 -0.0817
  492MOL0     C64868   8.091   6.699   4.280  0.8305  0.1303 -0.0922
  492MOL0     C64869   8.149   6.601   4.356  0.1459  1.5007  0.1395
  492MOL0     O64870   8.283   6.593   4.347 -0.9424 -0.3629  0.3481
  492MOL0     C64871   8.349   6.484   4.413 -0.4079 -0.9287 -0.0870
  492MOL0     C64872   8.480   6.529   4.474 -0.1855 -0.1550 -0.3723
  492MOL0     C64873   8.547   6.422   4.550  0.0422  0.2790  0.2463
  492MOL0     C64874   8.630   6.337   4.447  0.9424  0.0592  0.3080
  492MOL0     C64875   8.675   6.214   4.504 -1.0702 -0.2817  0.5249
  492MOL0     C64876   8.717   6.113   4.558  0.0113  0.0324 -0.9593
  492MOL0     C64877   8.068   6.523   4.444 -0.3257  0.4308 -0.6721
  492MOL0     C64878   7.929   6.543   4.450 -0.7807 -0.0495 -0.4504
  492MOL0     H64879   7.511   6.754   4.539 -0.7686  1.3815 -0.9656
  492MOL0     H64880   7.266   6.772   4.553 -1.0119 -0.3341 -0.3236
  492MOL0     H64881   7.046   6.427   4.410  1.4887  0.3574  1.7398
  492MOL0     H64882   6.942   6.552   4.350 -1.3034 -0.0949  1.4007
  492MOL0     H64883   6.925   6.447   4.630 -2.5745 -1.1534  0.4882
  492MOL0     H64884   6.845   6.389   4.481  3.3152 -0.8039 -0.1450
  492MOL0     H64885   6.712   6.605   4.470 -0.8917  0.7702 -0.6003
  492MOL0     H64886   6.828   6.664   4.598 -2.6775  0.3220  2.9925
  492MOL0     H64887   6.660   6.408   4.604  0.4173  0.2121 -0.6619
  492MOL0     H64888   6.729   6.477   4.743  1.3351 -2.0905 -1.8342
  492MOL0     H64889   6.492   6.511   4.751  2.5763 -1.8123 -0.0194
  492MOL0     H64890   6.486   6.598   4.601  2.8491 -1.6658 -2.1210
  492MOL0     H64891   6.658   6.780   4.713  0.3710  1.8267  1.1709
  492MOL0     H64892   6.622   6.671   4.858 -2.4252 -0.7622 -0.2563
  492MOL0     H64893   6.417   6.828   4.695 -2.4352 -1.8850  0.1931
  492MOL0     H64894   6.389   6.747   4.846 -0.8852  0.2829  0.0370
  492MOL0     H64895   6.580   6.979   4.805 -2.9143  5.5698 -1.0459
  492MOL0     H64896   6.512   6.926   4.970 -2.2078  2.4578  0.3602
  492MOL0     H64897   6.260   6.956   5.010 -0.4335 -0.8042 -0.1897
  492MOL0     H64898   6.005   7.007   4.931 -0.2561  0.2519 -2.0687
  492MOL0     H64899   5.976   7.153   4.856 -0.2442 -0.9099  0.0159
  492MOL0     H64900   6.128   7.253   5.063  0.6552 -0.7914 -0.4225
  492MOL0     H64901   6.062   7.098   5.132  2.6166 -0.6690 -2.1840
  492MOL0     H64902   5.907   7.326   4.992  0.5784 -0.5534 -1.1942
  492MOL0     H64903   5.831   7.178   5.044 -0.7871  2.9043 -2.0086
  492MOL0     H64904   5.987   7.372   5.229 -0.1506 -1.9144  0.2079
  492MOL0     H64905   5.901   7.231   5.268  1.6937  0.6359  1.0324
  492MOL0     H64906   5.557   7.537   5.217 -1.6858  2.8505  1.0503
  492MOL0     H64907   5.499   7.690   5.383  0.4763  1.4280 -0.6446
  492MOL0     H64908   5.423   7.798   5.833 -1.2091  1.9351  1.9518
  492MOL0     H64909   5.381   7.879   6.036  0.5550 -1.7177 -0.8165
  492MOL0     H64910   5.653   8.135   6.230 -0.1200  0.3602 -0.0862
  492MOL0     H64911   5.729   8.003   6.316 -0.4837 -1.0950 -2.2588
  492MOL0     H64912   5.461   8.123   6.373  1.1418  0.1197 -2.6657
  492MOL0     H64913   5.598   8.175   6.465 -0.1621  0.4024 -0.2695
  492MOL0     H64914   5.610   7.933   6.563 -1.3953 -1.4671  1.5700
  492MOL0     H64915   5.465   7.908   6.459  1.3798 -0.0713 -0.8872
  492MOL0     H64916   5.442   8.144   6.632  2.9878  0.0027  0.0597
  492MOL0     H64917   5.328   8.022   6.599  0.5374 -0.7830 -1.5043
  492MOL0     H64918   5.452   8.052   6.846  0.2603 -0.2505  0.8348
  492MOL0     H64919   5.559   7.934   6.775  0.0757  0.1987 -0.2170
  492MOL0     H64920   5.386   7.759   6.764 -2.0806 -1.8718  1.3853
  492MOL0     H64921   5.260   7.869   6.779 -1.1753 -3.4393  0.4962
  492MOL0     H64922   5.302   7.918   7.002  0.4474 -0.2026  0.6028
  492MOL0     H64923   5.274   7.750   7.003 -0.1648  0.6091  0.9726
  492MOL0     H64924   5.536   7.888   7.030 -0.0893  0.7794  1.1080
  492MOL0     H64925   5.519   7.706   7.003  0.6177  0.6550 -1.5545
  492MOL0     H64926   5.804   7.928   6.118 -0.9643  0.6056 -0.4235
  492MOL0     H64927   5.845   7.849   5.889  0.1907  1.9108  1.0699
  492MOL0     H64928   5.853   7.612   5.606  1.4201 -0.5880 -0.8172
  492MOL0     H64929   5.930   7.468   5.419  1.5524  2.2244 -0.9684
  492MOL0     H64930   7.226   6.377   4.408  1.3762 -0.3183  0.7191
  492MOL0     H64931   7.459   6.361   4.371  1.1552  0.7687 -0.5392
  492MOL0     H64932   7.906   6.788   4.219 -0.4059 -1.4553 -1.1756
  492MOL0     H64933   8.151   6.769   4.223  0.9018  2.0709  2.2016
  492MOL0     H64934   8.376   6.413   4.334  0.6258 -2.1563  1.3284
  492MOL0     H64935   8.304   6.430   4.496 -0.6159 -0.0594  0.3746
  492MOL0     H64936   8.545   6.572   4.397 -0.3163  1.2064  0.2298
  492MOL0     H64937   8.474   6.609   4.548 -1.1345  0.4557 -1.0804
  492MOL0     H64938   8.469   6.373   4.609 -0.8449  1.9616  0.5360
  492MOL0     H64939   8.606   6.471   4.628 -0.2054  0.4859  0.3079
  492MOL0     H64940   8.579   6.312   4.353  3.0167  0.8104 -1.0960
  492MOL0     H64941   8.718   6.390   4.410 -0.5867  1.5853 -1.4168
  492MOL0     H64942   8.730   6.034   4.629  0.4908 -0.9006 -2.0728
  492MOL0     H64943   8.104   6.451   4.517  1.2773  1.0840 -0.7812
  492MOL0     H64944   7.878   6.478   4.520 -2.3098  2.5157  0.9851
  493MOL0     O64945   4.159   2.853   7.030 -0.5111 -0.4923  0.6851
  493MOL0     C64946   4.190   2.732   7.018  0.4764  0.3198 -1.5279
  493MOL0     O64947   4.092   2.637   7.023  0.1381  0.1767 -0.3029
  493MOL0     C64948   3.947   2.663   7.029 -0.6823  0.4517  0.1283
  493MOL0     C64949   3.888   2.662   7.159  0.0191  0.3185 -0.1676
  493MOL0     C64950   3.750   2.674   7.180 -0.1077 -0.0783 -0.2816
  493MOL0     C64951   3.671   2.703   7.072  0.4357 -0.7099 -0.0589
  493MOL0     O64952   3.542   2.756   7.096 -0.4354  0.0876 -0.4976
  493MOL0     C64953   3.491   2.862   7.009  0.5227  1.4387  0.5143
  493MOL0     C64954   3.361   2.923   7.050  0.4238 -0.0006 -0.0759
  493MOL0     C64955   3.254   2.811   7.064 -0.1006  0.6865 -0.2788
  493MOL0     C64956   3.107   2.858   7.049  0.5724 -0.0723  0.3633
  493MOL0     C64957   3.010   2.742   7.075 -0.3525  0.8053 -0.1318
  493MOL0     C64958   2.882   2.754   6.984 -0.9945 -0.8575 -0.1176
  493MOL0     C64959   2.797   2.628   6.971  0.2821 -0.0335  0.1472
  493MOL0     C64960   2.734   2.587   7.098  0.4860  0.4368 -0.6043
  493MOL0     N64961   2.633   2.686   7.145 -0.4337  0.4116  0.0140
  493MOL0     C64962   2.511   2.702   7.078 -0.5732  0.2946 -0.4156
  493MOL0     C64963   2.446   2.793   7.154 -0.2749  0.5463 -0.2257
  493MOL0     C64964   2.320   2.861   7.136 -0.2761  0.3133  0.4013
  493MOL0     C64965   2.200   2.763   7.140 -0.3559  0.4352 -0.0930
  493MOL0     C64966   2.134   2.755   7.003 -0.4256  1.3619 -0.5546
  493MOL0     C64967   2.041   2.644   7.004 -0.3516 -0.7001 -0.4058
  493MOL0     O64968   1.989   2.638   6.874 -0.4948 -0.1351  0.3871
  493MOL0     C64969   1.884   2.733   6.847 -0.1833  0.8320  0.8796
  493MOL0     C64970   1.838   2.726   6.713 -0.2645 -0.3600 -0.0387
  493MOL0     C64971   1.730   2.808   6.665 -0.5177 -0.0029  0.1635
  493MOL0     C64972   1.675   2.902   6.757  0.8814  0.9559  0.6401
  493MOL0     C64973   1.566   2.992   6.709  0.1354 -0.1171  0.4229
  493MOL0     O64974   1.477   3.035   6.802  0.5396 -0.3241 -0.0419
  493MOL0     C64975   1.361   3.108   6.778 -0.0541  0.3198  0.1460
  493MOL0     C64976   1.253   3.073   6.696 -0.9223  0.0128  0.3641
  493MOL0     C64977   1.125   3.129   6.691  0.5198  0.3920 -0.2542
  493MOL0     C64978   1.104   3.252   6.756  0.6521  0.3237 -0.5399
  493MOL0     O64979   0.986   3.322   6.754 -0.0993  0.0507 -0.1179
  493MOL0     C64980   0.867   3.253   6.801 -0.9119 -0.4830  0.2136
  493MOL0     C64981   0.748   3.337   6.793 -0.8217  0.1986 -0.0990
  493MOL0     C64982   0.620   3.259   6.825  0.9865  0.4510  0.9460
  493MOL0     C64983   0.511   3.360   6.816  0.0474 -1.1689 -0.4622
  493MOL0     C64984   0.377   3.310   6.886  0.6935  0.2452 -0.0161
  493MOL0     C64985   0.265   3.409   6.865  0.6158  0.1828 -0.1027
  493MOL0     C64986   0.133   3.342   6.898  0.2316 -0.1806 -0.5069
  493MOL0     C64987   0.059   3.284   6.776 -0.6541 -0.3862  0.6278
  493MOL0    Cl64988   0.175   3.182   6.665 -0.0721 -0.2410  0.2903
  493MOL0     C64989   1.204   3.299   6.844  0.6184  0.0178 -0.4662
  493MOL0     C64990   1.326   3.223   6.854  0.7852  0.7801 -0.4439
  493MOL0     O64991   1.546   2.997   6.588  0.5525 -0.2481  0.7231
  493MOL0     C64992   1.722   2.917   6.883  0.2736 -0.0027  0.0519
  493MOL0     C64993   1.817   2.825   6.930  0.1250  0.0151 -0.0210
  493MOL0     N64994   2.536   2.827   7.258  0.1872  0.7423  0.1926
  493MOL0     N64995   2.647   2.770   7.247 -0.1855  0.2998  0.1785
  493MOL0     C64996   3.728   2.691   6.943  0.9066  0.4283  0.0251
  493MOL0     C64997   3.867   2.679   6.917  0.0284 -0.4099  0.1797
  493MOL0     C64998   4.325   2.694   7.012 -0.3709  0.4890 -0.5435
  493MOL0     C64999   4.373   2.571   7.049 -0.0818 -0.0181 -0.7059
  493MOL0     C65000   4.516   2.552   7.031 -0.3674  0.0440 -0.2152
  493MOL0     C65001   4.606   2.644   7.002  0.0490 -0.3487 -0.5777
  493MOL0     O65002   4.734   2.605   6.993  0.8497  0.1698  0.0778
  493MOL0     C65003   4.839   2.709   6.978 -0.4651  0.6252 -0.1515
  493MOL0     C65004   4.981   2.643   6.971  0.1656 -0.8071 -1.1799
  493MOL0     C65005   5.031   2.601   7.118  0.3717  0.4623 -0.4366
  493MOL0     C65006   4.967   2.455   7.150 -0.1228 -0.5732  0.4914
  493MOL0     C65007   5.013   2.393   7.272  0.0536 -0.1111 -0.2717
  493MOL0     C65008   5.042   2.356   7.384 -0.2744 -0.0689  0.3780
  493MOL0     C65009   4.549   2.775   6.960  0.4614  0.1722 -0.4231
  493MOL0     C65010   4.408   2.791   6.961 -0.6417 -0.8421  0.3486
  493MOL0     H65011   3.948   2.641   7.247 -2.0618 -1.1760  0.9765
  493MOL0     H65012   3.704   2.663   7.278  2.0263 -0.7766  0.6868
  493MOL0     H65013   3.474   2.821   6.909 -0.9556  2.9680  0.0931
  493MOL0     H65014   3.567   2.940   7.002 -0.9006  2.8281  0.1667
  493MOL0     H65015   3.331   3.005   6.984 -1.0862  0.0565  0.6253
  493MOL0     H65016   3.386   2.970   7.146  2.4169  0.0621 -0.5854
  493MOL0     H65017   3.260   2.758   7.160 -4.0698 -0.8999 -0.7483
  493MOL0     H65018   3.273   2.726   6.999  1.4008 -1.6503  2.9393
  493MOL0     H65019   3.086   2.932   7.127  0.7144  1.7373 -1.2715
  493MOL0     H65020   3.096   2.897   6.948  1.7477 -3.0392 -1.0390
  493MOL0     H65021   2.983   2.730   7.181 -0.3592  4.8985  0.5134
  493MOL0     H65022   3.062   2.650   7.046  0.9514  1.3473  0.3874
  493MOL0     H65023   2.917   2.781   6.883  2.5393 -0.6634  1.0131
  493MOL0     H65024   2.827   2.841   7.023  2.1925  1.5534 -0.5377
  493MOL0     H65025   2.714   2.651   6.903  0.4036  0.2422  0.0912
  493MOL0     H65026   2.851   2.540   6.935 -1.6981 -1.3215  0.1791
  493MOL0     H65027   2.815   2.580   7.171  0.3687  0.5139 -0.4659
  493MOL0     H65028   2.700   2.486   7.070  2.7611 -0.5227 -0.0991
  493MOL0     H65029   2.485   2.665   6.980  0.2188 -2.6460  0.3919
  493MOL0     H65030   2.333   2.909   7.039 -0.3302  1.9907  1.1789
  493MOL0     H65031   2.311   2.942   7.210 -1.4441 -0.2472  0.9025
  493MOL0     H65032   2.137   2.800   7.221  0.0994 -0.0139  0.4770
  493MOL0     H65033   2.238   2.664   7.167  1.6098  1.2602  0.3921
  493MOL0     H65034   2.088   2.850   6.973 -0.6307  1.1537 -0.9086
  493MOL0     H65035   2.215   2.742   6.931 -1.2572  1.3826 -1.5125
  493MOL0     H65036   1.957   2.664   7.072  0.4343  2.0299 -0.1364
  493MOL0     H65037   2.095   2.553   7.034  2.5867  2.2101  4.3563
  493MOL0     H65038   1.889   2.663   6.641  2.1466  0.0704  1.1828
  493MOL0     H65039   1.694   2.809   6.563  3.7808  0.2645 -1.5426
  493MOL0     H65040   1.267   2.987   6.631  2.3174  1.6587 -1.3490
  493MOL0     H65041   1.060   3.099   6.609 -0.2514  4.9943 -1.6368
  493MOL0     H65042   0.879   3.220   6.904  0.0903  2.0107  0.9753
  493MOL0     H65043   0.866   3.166   6.735  1.2678  0.2343 -0.8854
  493MOL0     H65044   0.741   3.394   6.700 -0.0135  1.4999  0.6077
  493MOL0     H65045   0.753   3.419   6.865  0.6688  0.6004 -0.6355
  493MOL0     H65046   0.616   3.201   6.917 -1.7086 -1.9449 -0.5093
  493MOL0     H65047   0.611   3.181   6.748  0.1059  0.6675  0.8185
  493MOL0     H65048   0.548   3.452   6.861  0.1884 -2.2529  1.7734
  493MOL0     H65049   0.498   3.380   6.709 -0.8371 -1.0834 -0.3457
  493MOL0     H65050   0.391   3.296   6.993  1.3344  0.1903 -0.1009
  493MOL0     H65051   0.364   3.213   6.838  4.5974  0.7943 -2.6891
  493MOL0     H65052   0.258   3.447   6.763 -1.1953 -0.8214 -0.3867
  493MOL0     H65053   0.277   3.494   6.933 -0.6136  0.2596  0.0399
  493MOL0     H65054   0.153   3.252   6.958 -0.9797 -1.1449 -1.4989
  493MOL0     H65055   0.079   3.411   6.962 -3.1552 -3.9681  1.1636
  493MOL0     H65056   0.025   3.376   6.728 -0.9478 -0.8523 -0.0712
  493MOL0     H65057  -0.033   3.233   6.802 -1.0615 -0.7146 -1.2957
  493MOL0     H65058   1.185   3.390   6.899 -0.9506  0.2614 -1.3584
  493MOL0     H65059   1.385   3.252   6.940 -0.9925 -0.7529  1.4136
  493MOL0     H65060   1.680   2.994   6.946 -2.2570 -0.8987 -0.3924
  493MOL0     H65061   1.849   2.837   7.033 -3.6753 -0.9660  1.4483
  493MOL0     H65062   3.670   2.714   6.854  0.2816  1.8259  0.7686
  493MOL0     H65063   3.912   2.684   6.818 -3.9635  0.9940 -1.7939
  493MOL0     H65064   4.299   2.497   7.078  0.0050  0.4321  0.7699
  493MOL0     H65065   4.558   2.455   7.056 -0.8761  0.0445  0.7016
  493MOL0     H65066   4.832   2.789   7.052  2.6103  1.5711 -0.7624
  493MOL0     H65067   4.834   2.767   6.886 -1.3235 -2.0005 -1.8721
  493MOL0     H65068   4.986   2.560   6.900 -2.3929 -3.0969  1.1061
  493MOL0     H65069   5.050   2.721   6.936 -1.5785  2.0429  1.2700
  493MOL0     H65070   4.980   2.675   7.180  1.0255 -0.7553  1.6557
  493MOL0     H65071   5.140   2.605   7.125  0.3143 -0.0182  0.9798
  493MOL0     H65072   4.859   2.461   7.166 -0.3117 -1.4937 -0.3624
  493MOL0     H65073   4.994   2.395   7.063 -0.3810 -0.1131  0.0950
  493MOL0     H65074   5.056   2.325   7.486  0.3217  1.0387  0.6514
  493MOL0     H65075   4.600   2.865   6.929  2.1731 -0.5800  0.0651
  493MOL0     H65076   4.370   2.884   6.919 -2.1899 -2.0006 -0.9533
  494MOL0     O65077   6.283   2.180   6.116 -0.6332  0.3614  0.0840
  494MOL0     C65078   6.313   2.159   6.237 -0.0679 -0.1962  0.1433
  494MOL0     O65079   6.232   2.120   6.332  0.6468 -0.4384 -0.2005
  494MOL0     C65080   6.099   2.101   6.291 -0.3018 -1.0180 -0.3409
  494MOL0     C65081   6.043   1.976   6.244  0.5172  0.2357 -0.3314
  494MOL0     C65082   5.908   1.965   6.193 -1.4195  1.0807  0.2687
  494MOL0     C65083   5.833   2.080   6.195  0.4422  0.5499 -0.6392
  494MOL0     O65084   5.711   2.087   6.153 -0.1318  0.4081  0.1619
  494MOL0     C65085   5.711   2.125   6.010  0.2853 -0.0396 -0.3540
  494MOL0     C65086   5.575   2.091   5.935 -0.4614 -1.1599 -0.4471
  494MOL0     C65087   5.542   2.202   5.835 -0.2267  0.0072  0.4604
  494MOL0     C65088   5.637   2.213   5.723  0.9476  0.0986  0.2563
  494MOL0     C65089   5.582   2.304   5.609 -0.7819 -0.3538  1.7394
  494MOL0     C65090   5.624   2.243   5.476  0.2528 -0.0536  0.5717
  494MOL0     C65091   5.575   2.342   5.367 -0.3228  0.5919 -0.1940
  494MOL0     C65092   5.427   2.344   5.338 -0.7545  0.6432 -0.4682
  494MOL0     N65093   5.387   2.393   5.197  0.0420  0.5810 -1.1826
  494MOL0     C65094   5.356   2.519   5.160 -0.9645 -0.6415 -0.2596
  494MOL0     C65095   5.300   2.511   5.036  0.4803 -1.0885 -0.4846
  494MOL0     C65096   5.228   2.617   4.955  0.3963 -0.0966 -0.4705
  494MOL0     C65097   5.079   2.591   4.935 -0.1106 -0.3823 -0.0484
  494MOL0     C65098   5.019   2.676   4.832  0.4005  0.1106  0.2199
  494MOL0     C65099   4.869   2.638   4.819  0.5101  0.1104  0.0565
  494MOL0     O65100   4.819   2.692   4.699 -0.2898 -0.4018 -1.1271
  494MOL0     C65101   4.688   2.675   4.667  0.9318  0.6279  0.5900
  494MOL0     C65102   4.637   2.727   4.545 -1.3102  0.3039  0.3734
  494MOL0     C65103   4.507   2.708   4.506 -0.0824 -1.1399 -0.2825
  494MOL0     C65104   4.420   2.636   4.592 -0.2566  1.0357 -0.9996
  494MOL0     C65105   4.280   2.623   4.551  0.1210  0.3263  0.0518
  494MOL0     O65106   4.253   2.685   4.428  0.0942  0.1294 -0.1909
  494MOL0     C65107   4.125   2.684   4.382  0.1133 -0.9824  0.1399
  494MOL0     C65108   4.091   2.610   4.270 -0.5808 -0.0803 -1.0189
  494MOL0     C65109   3.962   2.615   4.217 -0.4103 -0.0870  0.2314
  494MOL0     C65110   3.862   2.688   4.277  0.3985 -0.1917 -0.1031
  494MOL0     O65111   3.730   2.660   4.234 -0.2369 -0.0395 -0.0145
  494MOL0     C65112   3.649   2.773   4.216 -0.0240 -0.2524  0.2238
  494MOL0     C65113   3.708   2.856   4.089  0.3227  0.5469 -0.1430
  494MOL0     C65114   3.607   2.961   4.034 -0.6115  1.0714 -0.3218
  494MOL0     C65115   3.489   2.895   3.955  0.6308 -1.3608  0.2102
  494MOL0     C65116   3.404   3.013   3.885 -0.0532 -0.0639  0.4922
  494MOL0     C65117   3.465   3.040   3.745 -0.0267  0.4171  0.6791
  494MOL0     C65118   3.399   3.157   3.681  0.0604 -0.4915  0.2392
  494MOL0     C65119   3.248   3.129   3.653  0.1428 -0.1720  0.0280
  494MOL0    Cl65120   3.203   3.242   3.529 -0.0090  0.3859 -0.1639
  494MOL0     C65121   3.897   2.772   4.384  0.2698 -0.9075 -0.3741
  494MOL0     C65122   4.027   2.768   4.432  0.0905  0.6420 -0.4636
  494MOL0     O65123   4.197   2.556   4.615  0.0147  0.6757  0.3822
  494MOL0     C65124   4.464   2.586   4.712  0.4787  0.9513  0.2665
  494MOL0     C65125   4.592   2.611   4.754  0.1800  0.1399 -0.5412
  494MOL0     N65126   5.314   2.377   4.996 -0.5147 -0.6825  0.9661
  494MOL0     N65127   5.367   2.310   5.094 -0.2765  0.2049  2.1799
  494MOL0     C65128   5.883   2.202   6.249 -0.3387 -0.2134  0.5663
  494MOL0     C65129   6.011   2.210   6.295  0.1863  0.9337 -0.3169
  494MOL0     C65130   6.454   2.175   6.271 -0.0801 -0.5826 -1.6450
  494MOL0     C65131   6.543   2.234   6.185 -0.1890 -0.5412  0.6094
  494MOL0     C65132   6.672   2.258   6.222 -0.1858  0.5413 -0.2765
  494MOL0     C65133   6.730   2.213   6.344  0.8367 -0.7969  0.0435
  494MOL0     O65134   6.865   2.222   6.370  0.1951  0.8178  0.5748
  494MOL0     C65135   6.955   2.271   6.271 -0.3696 -0.2077 -0.0185
  494MOL0     C65136   7.087   2.296   6.337 -0.7029  0.4327 -0.8982
  494MOL0     C65137   7.176   2.407   6.272 -1.1555 -0.7056 -0.4786
  494MOL0     C65138   7.323   2.411   6.305  1.3195  0.3082 -0.1562
  494MOL0     C65139   7.339   2.415   6.445 -0.2756 -0.5528  0.4127
  494MOL0     C65140   7.377   2.415   6.555 -0.5046  0.5714  0.0743
  494MOL0     C65141   6.637   2.159   6.437 -0.5347  0.5429 -0.3964
  494MOL0     C65142   6.501   2.148   6.401  0.1923 -0.9658 -0.4499
  494MOL0     H65143   6.114   1.893   6.248 -1.1365 -1.4944 -2.9905
  494MOL0     H65144   5.869   1.876   6.145  0.5251  1.7469 -2.8558
  494MOL0     H65145   5.784   2.069   5.950  0.1828 -0.3362 -0.2007
  494MOL0     H65146   5.740   2.231   6.009  1.2931 -0.1698  3.1880
  494MOL0     H65147   5.499   2.084   6.013 -2.0874  0.3917 -1.8240
  494MOL0     H65148   5.575   1.992   5.889  1.1301  0.1060 -3.4415
  494MOL0     H65149   5.532   2.299   5.885 -0.3420  0.3355 -0.1862
  494MOL0     H65150   5.451   2.191   5.774  1.2990 -0.6216 -1.8481
  494MOL0     H65151   5.735   2.250   5.756  0.1472  1.7528  0.8939
  494MOL0     H65152   5.666   2.115   5.685 -0.6914 -1.1765  2.1567
  494MOL0     H65153   5.615   2.407   5.628 -1.0121 -0.1791  1.2178
  494MOL0     H65154   5.474   2.316   5.601 -0.8184 -1.9095 -1.9332
  494MOL0     H65155   5.577   2.146   5.461 -1.3877  0.2384  3.1051
  494MOL0     H65156   5.732   2.227   5.475  0.3570  0.5203  1.2567
  494MOL0     H65157   5.612   2.444   5.382  0.0361  0.5644 -0.8828
  494MOL0     H65158   5.622   2.310   5.274  0.0468 -2.6371  0.9824
  494MOL0     H65159   5.376   2.411   5.409 -2.4730 -0.1994 -0.8476
  494MOL0     H65160   5.395   2.240   5.348  2.1805 -0.3181 -0.1682
  494MOL0     H65161   5.355   2.610   5.219 -1.2277 -1.4780  1.0738
  494MOL0     H65162   5.288   2.622   4.863 -0.9768 -1.0534 -1.4540
  494MOL0     H65163   5.246   2.714   5.003 -2.0560  0.8324 -1.2756
  494MOL0     H65164   5.029   2.597   5.032 -4.0731 -3.2096 -1.6144
  494MOL0     H65165   5.061   2.489   4.899  0.6017  0.1475 -2.0408
  494MOL0     H65166   5.036   2.780   4.860  0.4024  0.0719  0.3635
  494MOL0     H65167   5.067   2.673   4.734  0.9180  0.8728  0.4402
  494MOL0     H65168   4.807   2.677   4.901  2.7286  1.9884  0.9451
  494MOL0     H65169   4.859   2.530   4.809  1.7650 -0.1174  1.0766
  494MOL0     H65170   4.708   2.781   4.484 -1.8916  1.0166  0.3092
  494MOL0     H65171   4.487   2.764   4.415  1.6971 -0.9884 -0.6315
  494MOL0     H65172   4.177   2.565   4.220  0.2070  1.2324 -0.8941
  494MOL0     H65173   3.941   2.560   4.126 -1.6352 -1.5128  1.3306
  494MOL0     H65174   3.645   2.839   4.303  1.0770  1.0900 -0.6692
  494MOL0     H65175   3.550   2.737   4.189  0.3069  0.0992 -1.6273
  494MOL0     H65176   3.731   2.777   4.017  3.4090  0.6584  0.6160
  494MOL0     H65177   3.803   2.902   4.118  1.0286 -2.8457  3.7096
  494MOL0     H65178   3.680   3.020   3.978  4.1145 -0.8007  3.1386
  494MOL0     H65179   3.588   3.024   4.122  3.4632  0.3283  1.3356
  494MOL0     H65180   3.519   2.830   3.872 -2.1140 -1.4337 -0.8002
  494MOL0     H65181   3.422   2.832   4.014 -2.1044 -0.5481 -1.8289
  494MOL0     H65182   3.417   3.105   3.942  0.1783  0.2345 -0.0374
  494MOL0     H65183   3.300   2.982   3.876 -0.4025  1.0116  0.7092
  494MOL0     H65184   3.450   2.957   3.676  0.2570  1.0588 -0.1678
  494MOL0     H65185   3.573   3.053   3.761 -0.3541  1.9492  1.9360
  494MOL0     H65186   3.423   3.249   3.735 -1.6678 -0.0381  0.2989
  494MOL0     H65187   3.442   3.182   3.583  0.9983  2.0004  1.2116
  494MOL0     H65188   3.181   3.140   3.739 -1.6519  0.5336 -1.4053
  494MOL0     H65189   3.220   3.033   3.609 -2.6558  0.1608  0.8704
  494MOL0     H65190   3.821   2.831   4.435 -0.5446 -2.8487  0.7470
  494MOL0     H65191   4.048   2.841   4.510  2.5832  1.3461 -1.7020
  494MOL0     H65192   4.403   2.520   4.772 -3.0035  1.9888 -1.8094
  494MOL0     H65193   4.613   2.573   4.853  1.3813  1.7997 -0.1111
  494MOL0     H65194   5.823   2.292   6.242  0.6917  0.4060 -1.2056
  494MOL0     H65195   6.064   2.297   6.332  0.5690  1.0103 -1.0056
  494MOL0     H65196   6.506   2.255   6.085 -1.3582 -0.0190  1.1315
  494MOL0     H65197   6.731   2.309   6.147  0.0019  0.3217 -0.2779
  494MOL0     H65198   6.910   2.353   6.213  1.5809 -1.4115 -3.5731
  494MOL0     H65199   6.964   2.209   6.182  0.2288  1.3259 -1.0740
  494MOL0     H65200   7.060   2.316   6.441  0.2838 -0.7245 -0.3985
  494MOL0     H65201   7.134   2.197   6.335 -1.2779  0.0766  1.0431
  494MOL0     H65202   7.135   2.505   6.295  0.4023  0.4729 -2.3853
  494MOL0     H65203   7.166   2.405   6.163 -0.5653 -1.0875 -0.5319
  494MOL0     H65204   7.365   2.316   6.268 -1.1993 -1.3732  1.0621
  494MOL0     H65205   7.373   2.499   6.263  2.7475 -0.1671  0.4578
  494MOL0     H65206   7.418   2.424   6.653 -0.6461 -0.4376  0.2449
  494MOL0     H65207   6.666   2.149   6.541 -1.7667  0.7360 -0.0270
  494MOL0     H65208   6.422   2.125   6.472 -0.6945  0.1953 -1.0237
  495MOL0     O65209   1.064   1.178   7.442 -1.0071  0.2935  0.7415
  495MOL0     C65210   1.073   1.075   7.371 -0.0203  0.5207 -0.2907
  495MOL0     O65211   0.970   0.993   7.334  0.8050 -0.2991 -0.3668
  495MOL0     C65212   0.844   1.022   7.385 -0.1067  0.2407  0.7457
  495MOL0     C65213   0.768   0.906   7.393  0.4215  0.0201 -0.2990
  495MOL0     C65214   0.633   0.912   7.417 -0.0137 -0.2458 -0.0479
  495MOL0     C65215   0.564   1.030   7.442  0.2854 -0.2671 -0.2773
  495MOL0     O65216   0.433   1.038   7.478  1.0383 -0.3372 -0.5068
  495MOL0     C65217   0.377   0.916   7.532  1.2009  0.1704  0.1955
  495MOL0     C65218   0.225   0.960   7.571  0.7604  0.8329 -1.1207
  495MOL0     C65219   0.151   0.840   7.631 -0.2813 -0.0695 -0.1342
  495MOL0     C65220   0.001   0.867   7.645 -0.7487 -0.4679  0.3179
  495MOL0     C65221  -0.085   0.760   7.703 -0.1317 -0.9172 -0.1433
  495MOL0     C65222  -0.062   0.717   7.843 -0.8367  0.1315  0.2499
  495MOL0     C65223  -0.143   0.593   7.880  0.2613 -0.3873 -0.0020
  495MOL0     C65224  -0.292   0.632   7.890  0.0193 -0.1246 -0.1818
  495MOL0     N65225  -0.363   0.550   7.979  0.2079 -0.0059  0.4714
  495MOL0     C65226  -0.338   0.519   8.104 -0.0591 -0.9306 -0.7106
  495MOL0     C65227  -0.423   0.433   8.153 -0.5308  0.0367 -0.3257
  495MOL0     C65228  -0.432   0.391   8.299 -0.3234  0.8327  0.2006
  495MOL0     C65229  -0.577   0.406   8.355 -0.8600  0.4064 -0.8894
  495MOL0     C65230  -0.570   0.401   8.505  0.7371  0.3653  0.3914
  495MOL0     C65231  -0.712   0.377   8.560  0.7158  0.0756  0.2434
  495MOL0     O65232  -0.728   0.411   8.697  0.2503 -0.3042  0.4497
  495MOL0     C65233  -0.857   0.433   8.746  0.1432  0.4974  0.3674
  495MOL0     C65234  -0.970   0.396   8.676 -0.6359 -0.0967 -0.4796
  495MOL0     C65235  -1.098   0.400   8.739 -0.4830 -0.2915 -0.3881
  495MOL0     C65236  -1.109   0.463   8.870 -0.6233  0.6322  0.2559
  495MOL0     C65237  -1.240   0.459   8.950  0.3862  0.3446  0.0554
  495MOL0     O65238  -1.348   0.421   8.871  1.0183 -0.0463 -0.0032
  495MOL0     C65239  -1.475   0.426   8.926 -0.0640  0.0465 -0.5836
  495MOL0     C65240  -1.533   0.557   8.934  0.1309  0.1165  0.1426
  495MOL0     C65241  -1.652   0.569   9.003  0.0141  0.4154  0.1930
  495MOL0     C65242  -1.712   0.450   9.055 -0.1030 -0.2270  0.0973
  495MOL0     O65243  -1.836   0.472   9.110 -0.4853  0.1772 -0.1053
  495MOL0     C65244  -1.932   0.369   9.074 -0.5936  0.4624 -0.4383
  495MOL0     C65245  -2.081   0.425   9.099  0.3095 -0.7416  0.3678
  495MOL0     C65246  -2.107   0.554   9.020  0.2112 -0.2371  0.1174
  495MOL0     C65247  -2.262   0.578   9.004  0.4244 -0.2481 -0.2019
  495MOL0     C65248  -2.299   0.722   8.946  0.3810 -0.3469  0.1106
  495MOL0     C65249  -2.442   0.736   8.904 -0.3327 -0.6419  0.4851
  495MOL0     C65250  -2.531   0.754   9.023  0.5918  0.7122 -0.1201
  495MOL0     C65251  -2.682   0.739   8.964 -0.5090  0.2446 -0.1928
  495MOL0    Cl65252  -2.802   0.765   9.094 -0.5432 -0.0966  0.7533
  495MOL0     C65253  -1.660   0.319   9.030  0.0574 -0.4121  0.4535
  495MOL0     C65254  -1.533   0.310   8.965  0.1979 -0.3155 -0.4099
  495MOL0     O65255  -1.243   0.495   9.070 -0.7923 -0.8053  0.6663
  495MOL0     C65256  -0.988   0.525   8.926  0.8287  0.3166  0.4753
  495MOL0     C65257  -0.864   0.496   8.869 -0.1816 -0.0402  0.0098
  495MOL0     N65258  -0.501   0.397   8.045 -0.1264 -0.3390 -0.8283
  495MOL0     N65259  -0.474   0.475   7.945  0.7324  0.1127  0.4330
  495MOL0     C65260   0.629   1.149   7.440 -0.7072  0.7090  0.8423
  495MOL0     C65261   0.766   1.152   7.404  0.4503 -0.0680  0.9941
  495MOL0     C65262   1.210   1.023   7.347 -0.0967 -0.8961  0.8635
  495MOL0     C65263   1.232   0.906   7.280 -0.1235 -0.9532  0.0997
  495MOL0     C65264   1.357   0.865   7.265  0.2216 -0.4578 -0.4438
  495MOL0     C65265   1.471   0.945   7.304  1.2716 -0.5083  0.9168
  495MOL0     O65266   1.592   0.888   7.267  0.7506 -0.0196  0.1196
  495MOL0     C65267   1.702   0.897   7.358  0.6618  0.0144 -0.4180
  495MOL0     C65268   1.659   0.842   7.487 -0.3303  0.3326 -0.8731
  495MOL0     C65269   1.766   0.806   7.594  0.9272  0.1469  0.6767
  495MOL0     C65270   1.889   0.728   7.533 -0.1804 -0.3873  0.1412
  495MOL0     C65271   1.997   0.823   7.496  0.5645  0.8572  0.1534
  495MOL0     C65272   2.066   0.920   7.472 -0.1621  1.1456 -0.0859
  495MOL0     C65273   1.444   1.070   7.356  0.3714  0.1618  0.4631
  495MOL0     C65274   1.316   1.108   7.387  0.1202  0.6924  0.2531
  495MOL0     H65275   0.825   0.815   7.376  0.7544 -0.0528  1.0723
  495MOL0     H65276   0.588   0.814   7.421 -0.5922 -0.1205 -2.1072
  495MOL0     H65277   0.441   0.883   7.613  0.5080 -0.1636  0.6194
  495MOL0     H65278   0.360   0.845   7.450 -4.9809 -0.7949  1.7913
  495MOL0     H65279   0.164   0.985   7.483 -0.8590  1.8752  0.2420
  495MOL0     H65280   0.227   1.045   7.639 -0.7325  0.3541 -0.4281
  495MOL0     H65281   0.193   0.819   7.729 -2.0540  0.2708  0.7365
  495MOL0     H65282   0.173   0.758   7.563 -0.6192  1.4292 -2.1687
  495MOL0     H65283  -0.001   0.948   7.718 -1.3005 -0.5116  0.3493
  495MOL0     H65284  -0.048   0.904   7.555  1.1391  2.1169  0.2620
  495MOL0     H65285  -0.080   0.668   7.643  0.0370 -1.4328  0.6501
  495MOL0     H65286  -0.183   0.810   7.699  2.9817  6.2655 -1.1904
  495MOL0     H65287  -0.092   0.800   7.907 -0.4756  1.6139 -1.3950
  495MOL0     H65288   0.046   0.704   7.856 -0.4080 -1.4994 -3.4724
  495MOL0     H65289  -0.128   0.509   7.811  3.1195 -0.3023  0.4073
  495MOL0     H65290  -0.106   0.554   7.975  0.5986 -2.1343 -0.8116
  495MOL0     H65291  -0.335   0.624   7.789  0.6132 -3.3477 -0.2858
  495MOL0     H65292  -0.297   0.731   7.935 -1.2068 -1.7114  3.5541
  495MOL0     H65293  -0.268   0.561   8.176 -2.5289 -3.7736  3.8770
  495MOL0     H65294  -0.365   0.448   8.364  1.4597 -0.1146 -0.7455
  495MOL0     H65295  -0.413   0.284   8.308 -4.0177  0.0061 -0.3075
  495MOL0     H65296  -0.641   0.323   8.326  0.2552 -1.5798  1.8959
  495MOL0     H65297  -0.619   0.504   8.328  1.7042  2.6454  2.3674
  495MOL0     H65298  -0.492   0.327   8.524  1.6921  0.7553 -1.6891
  495MOL0     H65299  -0.541   0.491   8.560 -2.2840  1.9354 -0.3588
  495MOL0     H65300  -0.732   0.270   8.553  3.0422 -0.4577  0.8561
  495MOL0     H65301  -0.790   0.430   8.503  0.2752 -1.8439 -1.0232
  495MOL0     H65302  -0.962   0.356   8.575 -2.1659 -2.9283  0.4018
  495MOL0     H65303  -1.182   0.347   8.696  1.0113 -2.9567 -0.2974
  495MOL0     H65304  -1.477   0.640   8.891 -0.5028  2.5276  3.5485
  495MOL0     H65305  -1.697   0.665   9.027 -1.3459 -0.1294 -0.1105
  495MOL0     H65306  -1.907   0.276   9.125  2.6983  0.2287 -2.2095
  495MOL0     H65307  -1.922   0.348   8.967  1.8324  2.0587 -0.6113
  495MOL0     H65308  -2.096   0.457   9.203  1.4828 -1.8777  0.9160
  495MOL0     H65309  -2.154   0.345   9.084  0.0178 -0.3515 -0.3173
  495MOL0     H65310  -2.070   0.541   8.918 -2.8870 -4.4891 -0.7607
  495MOL0     H65311  -2.067   0.636   9.081 -0.2020 -1.6168  2.3833
  495MOL0     H65312  -2.290   0.498   8.935 -0.4157  0.1475 -0.3243
  495MOL0     H65313  -2.318   0.566   9.097  0.0296  0.0685 -0.3956
  495MOL0     H65314  -2.246   0.740   8.852  0.4727  4.8633  0.8823
  495MOL0     H65315  -2.264   0.800   9.013  0.0335  1.2225 -1.4545
  495MOL0     H65316  -2.460   0.648   8.841 -1.2786 -0.7307  0.8518
  495MOL0     H65317  -2.449   0.825   8.840  1.3168 -1.7507 -1.3327
  495MOL0     H65318  -2.510   0.677   9.098 -3.1875  0.9610  1.4172
  495MOL0     H65319  -2.520   0.853   9.068 -2.1832  0.5494  1.1865
  495MOL0     H65320  -2.691   0.644   8.911  1.8916  0.3476 -0.9161
  495MOL0     H65321  -2.687   0.815   8.885  1.7216  1.9766  1.2215
  495MOL0     H65322  -1.721   0.231   9.047 -0.2743 -0.5129 -1.0556
  495MOL0     H65323  -1.488   0.214   8.943  1.3201 -0.3272  1.6371
  495MOL0     H65324  -0.992   0.561   9.028 -2.7674  1.4374  0.0817
  495MOL0     H65325  -0.770   0.530   8.912  0.5055 -0.7987 -0.8637
  495MOL0     H65326   0.574   1.242   7.450 -0.4449  0.9053  0.4948
  495MOL0     H65327   0.829   1.235   7.375 -1.7118  0.5509 -2.4546
  495MOL0     H65328   1.161   0.847   7.223  1.1929 -0.0465 -2.6870
  495MOL0     H65329   1.368   0.779   7.200  1.2223  0.4690 -1.5549
  495MOL0     H65330   1.735   1.000   7.371  3.0590 -0.9800  2.7531
  495MOL0     H65331   1.789   0.843   7.318 -0.0248 -1.5006  0.0637
  495MOL0     H65332   1.587   0.913   7.530  0.6235  0.3282  0.7967
  495MOL0     H65333   1.617   0.745   7.461  2.8648 -0.5817 -3.2044
  495MOL0     H65334   1.725   0.751   7.679  5.3238 -5.4521 -0.2101
  495MOL0     H65335   1.801   0.902   7.633 -1.0260 -0.3078  3.8665
  495MOL0     H65336   1.930   0.661   7.609  0.1848 -0.7039 -0.3185
  495MOL0     H65337   1.857   0.672   7.444  0.3474 -0.5334  0.0357
  495MOL0     H65338   2.135   1.002   7.468 -2.8525  3.7615  2.2330
  495MOL0     H65339   1.537   1.122   7.380 -0.2292 -0.1094  3.8725
  495MOL0     H65340   1.300   1.207   7.428 -1.6255  0.3079  0.5658
  496MOL0     O65341   9.388   8.218   5.222 -0.7760 -0.0392  0.6289
  496MOL0     C65342   9.483   8.142   5.237 -0.2218  0.6362 -0.2865
  496MOL0     O65343   9.479   8.009   5.203 -0.0386 -0.3667 -0.3244
  496MOL0     C65344   9.358   7.975   5.148  0.6228 -0.3887  0.4796
  496MOL0     C65345   9.243   7.982   5.234  0.0348  0.0514 -0.6812
  496MOL0     C65346   9.112   7.959   5.181  0.6252  0.2183  0.0481
  496MOL0     C65347   9.101   7.933   5.046 -0.0057 -0.3354 -0.5679
  496MOL0     O65348   8.967   7.933   5.002 -0.0211 -0.8498 -0.0448
  496MOL0     C65349   8.926   7.957   4.866  0.2244 -0.2928  0.1636
  496MOL0     C65350   8.772   7.973   4.859  0.1333  0.1316  0.8157
  496MOL0     C65351   8.695   7.857   4.914  0.4580 -0.2722  0.0247
  496MOL0     C65352   8.654   7.854   5.065 -0.0431 -0.4290  0.8841
  496MOL0     C65353   8.556   7.741   5.092  0.5196 -0.3829 -0.8560
  496MOL0     C65354   8.557   7.706   5.243 -0.4468  1.0960 -0.4291
  496MOL0     C65355   8.480   7.808   5.325 -0.3894 -0.4191  0.4353
  496MOL0     C65356   8.470   7.764   5.473 -0.7340  0.4619  0.3001
  496MOL0     N65357   8.365   7.666   5.485 -0.7776 -0.4684 -0.0975
  496MOL0     C65358   8.379   7.531   5.502 -0.1947 -0.3968 -1.2198
  496MOL0     C65359   8.251   7.485   5.532  1.0303 -0.3837 -1.0734
  496MOL0     C65360   8.214   7.350   5.579 -0.0863  0.1318 -0.0462
  496MOL0     C65361   8.074   7.320   5.506  0.1117 -0.2312  0.0685
  496MOL0     C65362   8.103   7.318   5.358 -0.0260 -0.8104 -0.5313
  496MOL0     C65363   8.049   7.433   5.273  0.0449 -0.2378 -0.5768
  496MOL0     O65364   8.151   7.484   5.184  0.1171  0.0611 -0.1498
  496MOL0     C65365   8.126   7.605   5.123 -0.4676  0.3931  0.9646
  496MOL0     C65366   8.045   7.705   5.164 -0.3222 -0.9808  0.0471
  496MOL0     C65367   8.019   7.808   5.078  0.4643  0.1554 -0.0157
  496MOL0     C65368   8.068   7.814   4.946 -1.0240  0.0392 -0.0302
  496MOL0     C65369   8.037   7.928   4.858 -0.3395 -0.5355 -0.1217
  496MOL0     O65370   8.010   8.046   4.929  0.0804  0.6535 -0.8106
  496MOL0     C65371   8.012   8.183   4.884 -0.5188  0.0199  0.1671
  496MOL0     C65372   8.033   8.223   4.761  0.1488  0.6913  1.1517
  496MOL0     C65373   8.040   8.363   4.730 -0.0221  0.3570  0.7515
  496MOL0     C65374   8.035   8.459   4.833  0.2741  0.0718  0.7236
  496MOL0     O65375   8.043   8.590   4.806  0.1804  0.3003  0.1810
  496MOL0     C65376   8.082   8.678   4.909 -0.6585  0.0883 -0.0293
  496MOL0     C65377   8.112   8.818   4.848 -0.5315 -0.2971 -0.5462
  496MOL0     C65378   7.981   8.880   4.805  0.6425 -0.0580  0.2120
  496MOL0     C65379   7.990   9.024   4.756 -0.8684  0.7519  0.1692
  496MOL0     C65380   7.848   9.080   4.735 -0.0124  0.6517  0.4359
  496MOL0     C65381   7.761   9.042   4.610 -0.7249 -0.4529  0.5330
  496MOL0     C65382   7.613   9.074   4.638  0.2425  0.1093  0.1164
  496MOL0     C65383   7.563   9.222   4.610  0.3650  0.4297  0.7607
  496MOL0    Cl65384   7.577   9.268   4.442 -0.4691  0.1020  0.2057
  496MOL0     C65385   8.020   8.415   4.963 -0.3126  0.5886 -0.1331
  496MOL0     C65386   8.003   8.276   4.988 -0.3463 -0.2791  0.0044
  496MOL0     O65387   8.066   7.934   4.738  0.9130  0.1491  0.3040
  496MOL0     C65388   8.153   7.712   4.909 -0.4318  0.3625  0.9653
  496MOL0     C65389   8.195   7.612   4.997 -0.4311 -0.4141 -0.4294
  496MOL0     N65390   8.165   7.594   5.517  0.4636  0.3690  0.3087
  496MOL0     N65391   8.236   7.700   5.497 -0.3861  0.2934  0.1688
  496MOL0     C65392   9.212   7.912   4.962 -0.1928  1.4359  0.2122
  496MOL0     C65393   9.344   7.936   5.012 -0.5402 -0.5573 -0.6581
  496MOL0     C65394   9.613   8.189   5.287  0.3393 -0.8591 -0.3609
  496MOL0     C65395   9.717   8.104   5.323  0.4878  0.6838  0.3667
  496MOL0     C65396   9.847   8.154   5.339 -0.1722  0.1465  0.3927
  496MOL0     C65397   9.871   8.295   5.317  0.9764  0.9638 -0.1712
  496MOL0     O65398   9.998   8.341   5.328  0.5830 -0.2521  0.4824
  496MOL0     C65399  10.034   8.462   5.249 -0.1872  0.2203 -0.1094
  496MOL0     C65400  10.176   8.487   5.279  0.6773  0.3143  0.3624
  496MOL0     C65401  10.202   8.513   5.428  0.9220 -0.3418 -0.0160
  496MOL0     C65402  10.344   8.557   5.460 -0.0750 -0.4937  0.5147
  496MOL0     C65403  10.430   8.435   5.480  0.5012 -0.0208  0.0994
  496MOL0     C65404  10.486   8.334   5.502  0.2743  0.2542 -0.8535
  496MOL0     C65405   9.765   8.376   5.286  0.6768  0.0619  0.5005
  496MOL0     C65406   9.636   8.328   5.274 -0.0532  1.2581 -0.8781
  496MOL0     H65407   9.253   8.022   5.335  0.1835 -1.4680 -0.0640
  496MOL0     H65408   9.018   7.959   5.234 -1.7453 -1.8349 -3.7095
  496MOL0     H65409   8.945   7.874   4.797 -4.9117 -0.4383 -1.5358
  496MOL0     H65410   8.969   8.048   4.823 -0.2037  0.0362  0.4275
  496MOL0     H65411   8.744   7.999   4.757 -4.7133 -2.7793  1.1202
  496MOL0     H65412   8.746   8.060   4.921  1.0926 -1.0176  2.9481
  496MOL0     H65413   8.751   7.765   4.895  0.8720  0.6363 -3.9912
  496MOL0     H65414   8.602   7.840   4.859  0.1746 -0.9058  0.6651
  496MOL0     H65415   8.746   7.843   5.122  1.0933  0.0241 -0.7921
  496MOL0     H65416   8.600   7.941   5.105 -0.0272 -0.7507  1.6238
  496MOL0     H65417   8.589   7.659   5.028  1.7038 -1.8086  1.4506
  496MOL0     H65418   8.458   7.759   5.045  0.1745 -0.8034 -0.3062
  496MOL0     H65419   8.660   7.687   5.275 -0.6778  0.6983  0.0909
  496MOL0     H65420   8.521   7.604   5.259 -0.4406  1.3035  0.9916
  496MOL0     H65421   8.545   7.895   5.309 -2.1332  0.6237 -1.3083
  496MOL0     H65422   8.381   7.832   5.285  0.6160 -0.1896 -2.1374
  496MOL0     H65423   8.439   7.852   5.529 -1.4295  1.0203 -0.9281
  496MOL0     H65424   8.568   7.729   5.507 -0.4105  0.9800 -0.0858
  496MOL0     H65425   8.474   7.480   5.512 -0.1998 -0.0253  1.6371
  496MOL0     H65426   8.214   7.347   5.688  0.1863 -0.3149 -0.0582
  496MOL0     H65427   8.281   7.273   5.541 -1.8892 -1.8252  0.5590
  496MOL0     H65428   7.994   7.393   5.517 -0.7228 -0.9328 -1.1203
  496MOL0     H65429   8.041   7.224   5.545 -1.5480  0.2384 -0.1236
  496MOL0     H65430   8.211   7.310   5.345  0.4116  1.6237  0.9713
  496MOL0     H65431   8.049   7.232   5.318 -4.8093  0.8027  1.6944
  496MOL0     H65432   8.002   7.514   5.330 -0.4695  0.0026 -1.3355
  496MOL0     H65433   7.960   7.403   5.218  0.6996  0.9674 -2.3897
  496MOL0     H65434   7.998   7.717   5.261 -0.5178 -2.2895  0.1270
  496MOL0     H65435   7.949   7.877   5.123  0.4912 -1.2186  2.3028
  496MOL0     H65436   8.042   8.149   4.682  2.5342  2.5116 -0.4618
  496MOL0     H65437   8.057   8.406   4.632  2.9019 -0.1522  0.9460
  496MOL0     H65438   8.171   8.639   4.959 -0.3800 -0.0839 -0.6604
  496MOL0     H65439   7.999   8.680   4.981 -0.0694 -4.1720  1.0381
  496MOL0     H65440   8.170   8.809   4.756 -0.0062  0.8206 -0.3513
  496MOL0     H65441   8.162   8.872   4.929 -1.7552 -1.3665  1.0038
  496MOL0     H65442   7.906   8.881   4.884  0.9039  3.2281  0.5580
  496MOL0     H65443   7.929   8.824   4.726 -1.5278  1.2938  0.5837
  496MOL0     H65444   8.044   9.083   4.831 -2.8597  5.3192 -1.6087
  496MOL0     H65445   8.041   9.035   4.660 -2.2064 -0.2344 -0.6799
  496MOL0     H65446   7.874   9.186   4.737 -1.7784  1.3251 -3.3062
  496MOL0     H65447   7.789   9.054   4.823  1.6178 -2.3832  0.7757
  496MOL0     H65448   7.766   8.933   4.605  0.1821 -0.3739 -0.5529
  496MOL0     H65449   7.799   9.082   4.515 -0.2351  0.9503  1.2856
  496MOL0     H65450   7.554   9.000   4.582 -2.1876 -0.6490  3.3260
  496MOL0     H65451   7.583   9.060   4.742 -2.6979  0.5296 -0.5675
  496MOL0     H65452   7.628   9.287   4.669 -3.3353  3.1663  2.2672
  496MOL0     H65453   7.459   9.234   4.644  0.5249  0.3684  1.2868
  496MOL0     H65454   8.026   8.485   5.046 -1.2879 -0.9871  1.3214
  496MOL0     H65455   7.991   8.241   5.090  3.0686 -1.4615  0.1499
  496MOL0     H65456   8.202   7.729   4.813 -0.7829  2.4163  1.1063
  496MOL0     H65457   8.277   7.548   4.968  0.1288  1.3430 -3.0860
  496MOL0     H65458   9.205   7.885   4.857 -2.8419 -0.6881  0.8173
  496MOL0     H65459   9.436   7.940   4.954  0.8713  1.8367  1.4977
  496MOL0     H65460   9.711   7.996   5.331 -1.6399  0.8268  1.3502
  496MOL0     H65461   9.929   8.087   5.362  0.9388  0.8979 -1.1896
  496MOL0     H65462   9.966   8.547   5.263  0.2149  0.4970  0.1984
  496MOL0     H65463  10.018   8.431   5.146 -0.7764  3.5681 -1.1360
  496MOL0     H65464  10.235   8.404   5.238 -1.8434 -0.0123 -3.1213
  496MOL0     H65465  10.215   8.572   5.223  2.3757  0.2796  1.4331
  496MOL0     H65466  10.180   8.418   5.477  0.2040 -0.2572 -0.1617
  496MOL0     H65467  10.139   8.596   5.464  0.2427 -1.2153  0.8468
  496MOL0     H65468  10.396   8.621   5.388 -2.7959 -0.1468 -1.3041
  496MOL0     H65469  10.341   8.611   5.555  0.3958 -0.8942  0.7630
  496MOL0     H65470  10.543   8.249   5.533  3.3458  2.0348 -1.2607
  496MOL0     H65471   9.761   8.483   5.274 -0.5278 -0.1392 -1.3016
  496MOL0     H65472   9.552   8.385   5.237 -0.7811 -0.4943 -2.0260
  497MOL0     O65473   9.150   7.924   8.111 -0.8523 -0.1753 -0.4682
  497MOL0     C65474   9.147   8.037   8.060  1.3592  0.1129  0.0683
  497MOL0     O65475   9.257   8.106   8.010 -0.1020  0.7658 -0.3779
  497MOL0     C65476   9.372   8.032   8.029 -0.0246 -0.7276 -0.6285
  497MOL0     C65477   9.398   7.906   7.983  0.4277 -0.0939  0.7165
  497MOL0     C65478   9.516   7.834   8.001  0.6579 -0.4787  1.0733
  497MOL0     C65479   9.622   7.910   8.048 -0.8489 -0.8670  0.1360
  497MOL0     O65480   9.740   7.859   8.077 -0.0404 -0.2263  0.0150
  497MOL0     C65481   9.770   7.721   8.068  0.4819  0.1289  0.2737
  497MOL0     C65482   9.906   7.707   8.131 -0.3237  0.5176 -0.1508
  497MOL0     C65483   9.979   7.577   8.097 -0.6940 -0.6531  0.4526
  497MOL0     C65484  10.018   7.567   7.950  0.6125  0.4622  0.8298
  497MOL0     C65485  10.063   7.425   7.909  0.3499  0.0794 -0.8700
  497MOL0     C65486  10.095   7.416   7.761 -0.5552 -0.6910  0.0415
  497MOL0     C65487  10.203   7.520   7.712  0.0406 -0.7818  0.3456
  497MOL0     C65488  10.287   7.458   7.599  0.3412 -0.3114 -0.5143
  497MOL0     N65489  10.198   7.471   7.484  0.2607  0.0468 -0.3475
  497MOL0     C65490  10.159   7.581   7.410  0.3332  0.1077 -0.9827
  497MOL0     C65491  10.078   7.527   7.316 -0.4402  0.7746  0.1838
  497MOL0     C65492  10.006   7.586   7.206  0.0197 -0.1508 -0.1935
  497MOL0     C65493   9.864   7.610   7.272 -0.2937 -0.2054 -0.2112
  497MOL0     C65494   9.768   7.655   7.168 -0.6167  0.0192 -0.3979
  497MOL0     C65495   9.618   7.636   7.219 -0.2122  0.3026  0.8595
  497MOL0     O65496   9.527   7.656   7.109 -0.2043  0.1957  0.0310
  497MOL0     C65497   9.396   7.638   7.124  0.6019  0.6824 -0.0433
  497MOL0     C65498   9.336   7.568   7.227 -0.7040  0.3293 -0.4446
  497MOL0     C65499   9.200   7.548   7.241  0.1040  0.1464  0.5247
  497MOL0     C65500   9.111   7.591   7.146 -0.3997  0.5070  0.1425
  497MOL0     C65501   8.960   7.587   7.165 -0.1095  0.7956 -0.9834
  497MOL0     O65502   8.924   7.552   7.289 -0.8974  0.1226 -0.7520
  497MOL0     C65503   8.793   7.537   7.312 -0.1883  0.5005 -0.1766
  497MOL0     C65504   8.726   7.418   7.276  0.8942  0.4678 -0.1861
  497MOL0     C65505   8.584   7.409   7.293 -0.2381 -0.2915 -0.3570
  497MOL0     C65506   8.517   7.518   7.359 -0.5656 -0.1451  0.9469
  497MOL0     O65507   8.376   7.518   7.377  0.3910 -0.7032 -0.2025
  497MOL0     C65508   8.319   7.617   7.465  0.6369  0.0410 -0.1582
  497MOL0     C65509   8.175   7.562   7.486  0.5212  0.1293 -0.2503
  497MOL0     C65510   8.083   7.657   7.560  0.1451  0.7954  0.4633
  497MOL0     C65511   8.077   7.800   7.502  0.1263 -0.1738  0.4878
  497MOL0     C65512   8.166   7.907   7.578  0.7820  0.0639  0.4126
  497MOL0     C65513   8.108   7.948   7.717 -0.4153 -0.0399  0.4356
  497MOL0     C65514   8.202   8.041   7.801 -0.0620 -0.2635 -0.7180
  497MOL0     C65515   8.150   8.131   7.916 -0.6720  1.0696  0.5416
  497MOL0    Cl65516   8.301   8.176   8.004 -0.1132 -0.3094 -0.2193
  497MOL0     C65517   8.594   7.634   7.388  0.6086  1.0752  0.5900
  497MOL0     C65518   8.730   7.637   7.365 -0.1483  0.5889  0.3720
  497MOL0     O65519   8.887   7.604   7.069  0.3473 -0.8068  0.1014
  497MOL0     C65520   9.170   7.659   7.033  0.3163 -0.0597  0.8271
  497MOL0     C65521   9.309   7.687   7.029 -0.8235  0.2192  0.2388
  497MOL0     N65522  10.096   7.386   7.320 -0.5254  0.1108 -0.3366
  497MOL0     N65523  10.151   7.355   7.431  0.3020  0.0557  0.5680
  497MOL0     C65524   9.609   8.041   8.084  0.2055 -0.3638 -0.3816
  497MOL0     C65525   9.484   8.103   8.085  0.7718 -0.0104  0.0555
  497MOL0     C65526   9.016   8.100   8.031  0.1858  0.6882  0.0623
  497MOL0     C65527   8.901   8.034   8.082 -0.7363  0.4657  0.1316
  497MOL0     C65528   8.777   8.094   8.073  1.3882 -0.9231 -0.3133
  497MOL0     C65529   8.761   8.223   8.013 -0.1193 -0.3526  0.6017
  497MOL0     O65530   8.628   8.255   7.985  0.4034  0.3545 -0.0532
  497MOL0     C65531   8.592   8.380   7.936  0.4116 -0.9103  0.1086
  497MOL0     C65532   8.611   8.397   7.781 -0.3050 -0.3836 -0.1189
  497MOL0     C65533   8.569   8.539   7.740  0.6984  0.2813  0.6132
  497MOL0     C65534   8.661   8.649   7.787  0.1526  0.4253 -0.1772
  497MOL0     C65535   8.798   8.622   7.743  0.0879 -0.2203 -0.9136
  497MOL0     C65536   8.896   8.585   7.691 -0.4246 -0.4920 -0.2491
  497MOL0     C65537   8.875   8.291   7.961  0.3010  0.3535 -0.1495
  497MOL0     C65538   8.996   8.225   7.968 -0.3388  0.1907 -0.2866
  497MOL0     H65539   9.316   7.855   7.932  0.1372 -1.2696  2.2823
  497MOL0     H65540   9.530   7.735   7.960 -2.2642  0.0653 -1.6565
  497MOL0     H65541   9.768   7.697   7.961  2.7419  2.7923 -0.4922
  497MOL0     H65542   9.705   7.652   8.122  0.3743 -0.2780 -0.3618
  497MOL0     H65543   9.897   7.717   8.240  1.5848  1.0543  0.0035
  497MOL0     H65544   9.965   7.791   8.090 -1.0703  0.6830 -0.9037
  497MOL0     H65545   9.916   7.491   8.123 -0.0940 -2.0278 -2.2844
  497MOL0     H65546  10.068   7.568   8.160 -0.8635 -0.9643  0.6487
  497MOL0     H65547   9.929   7.581   7.887 -0.3789 -0.5307  1.9675
  497MOL0     H65548  10.105   7.630   7.925 -0.6436  0.7712 -3.6148
  497MOL0     H65549   9.980   7.358   7.934  0.2782 -0.0129 -1.3485
  497MOL0     H65550  10.146   7.387   7.969 -0.8489  0.2560  1.0044
  497MOL0     H65551   9.998   7.432   7.714 -0.5221  0.8665  0.4196
  497MOL0     H65552  10.126   7.313   7.741 -0.8877 -0.9424  0.7689
  497MOL0     H65553  10.152   7.610   7.675 -1.3120 -1.6914 -0.0760
  497MOL0     H65554  10.274   7.550   7.789  0.9162  0.6559 -0.9678
  497MOL0     H65555  10.317   7.354   7.620 -0.8162 -0.6452 -0.4253
  497MOL0     H65556  10.372   7.521   7.572 -2.4536  3.1773 -1.8812
  497MOL0     H65557  10.177   7.686   7.427 -0.4699  0.0163  0.6402
  497MOL0     H65558   9.995   7.526   7.115  1.0506  0.0681 -0.4804
  497MOL0     H65559  10.052   7.683   7.182 -2.6045  0.8110 -1.7925
  497MOL0     H65560   9.867   7.689   7.348  2.1820 -1.3629  1.0210
  497MOL0     H65561   9.831   7.521   7.326  1.6176 -1.6917 -1.3137
  497MOL0     H65562   9.791   7.759   7.143  0.0777 -0.1907 -0.6556
  497MOL0     H65563   9.772   7.609   7.068 -0.4780  0.0977 -0.4295
  497MOL0     H65564   9.602   7.706   7.302  0.3607  1.0593  0.3484
  497MOL0     H65565   9.614   7.538   7.267 -1.3140  1.1831  2.7269
  497MOL0     H65566   9.391   7.519   7.307 -3.2534 -0.4974  0.9142
  497MOL0     H65567   9.154   7.492   7.322  1.2445 -2.3737 -0.4744
  497MOL0     H65568   8.782   7.342   7.222  0.2263 -0.4302  0.3583
  497MOL0     H65569   8.533   7.315   7.274 -1.7945  0.1196  1.4581
  497MOL0     H65570   8.325   7.714   7.414  0.8401  0.6162  0.9296
  497MOL0     H65571   8.355   7.632   7.567 -1.4401 -1.0468  0.7972
  497MOL0     H65572   8.189   7.476   7.552 -0.6027 -1.6412 -2.1998
  497MOL0     H65573   8.125   7.536   7.392  1.7449 -1.5206 -0.4891
  497MOL0     H65574   8.111   7.654   7.666  0.5204 -1.8186  0.3456
  497MOL0     H65575   7.987   7.607   7.547  0.7210 -0.4751  0.9530
  497MOL0     H65576   8.104   7.805   7.396  2.3862 -0.0114  1.0103
  497MOL0     H65577   7.972   7.829   7.505 -0.4024 -1.8819 -0.4299
  497MOL0     H65578   8.164   7.995   7.513  0.3062 -1.5710 -1.9341
  497MOL0     H65579   8.265   7.860   7.584 -0.3186 -2.2970  1.7733
  497MOL0     H65580   8.096   7.859   7.780 -1.4332 -0.4836 -0.3496
  497MOL0     H65581   8.010   7.995   7.703  0.1572  1.2168  0.6091
  497MOL0     H65582   8.275   7.968   7.836 -0.4769 -1.0573 -1.4814
  497MOL0     H65583   8.249   8.106   7.726 -2.0137 -0.3021 -2.0385
  497MOL0     H65584   8.091   8.064   7.981  1.2080 -2.6525 -1.2516
  497MOL0     H65585   8.101   8.218   7.871  1.1330  1.4812 -0.7256
  497MOL0     H65586   8.540   7.726   7.409 -2.5561 -0.8309  1.4568
  497MOL0     H65587   8.781   7.729   7.392  0.3022 -0.1035  2.0091
  497MOL0     H65588   9.109   7.705   6.956  1.3386  0.2876  0.2070
  497MOL0     H65589   9.354   7.746   6.950 -1.5980 -0.2239 -0.5523
  497MOL0     H65590   9.699   8.092   8.117  1.0438 -2.4551  0.7452
  497MOL0     H65591   9.474   8.207   8.116 -0.7615 -0.0943 -0.0615
  497MOL0     H65592   8.902   7.933   8.122 -2.5423  0.9790  1.6202
  497MOL0     H65593   8.687   8.037   8.095  0.0726  1.1489 -0.0037
  497MOL0     H65594   8.669   8.447   7.976  1.3004 -1.4722 -0.6378
  497MOL0     H65595   8.489   8.397   7.970  0.5061  2.0274 -0.7580
  497MOL0     H65596   8.718   8.386   7.758 -0.6869 -1.8613 -1.3761
  497MOL0     H65597   8.543   8.324   7.737 -0.2505 -1.6588  1.7797
  497MOL0     H65598   8.464   8.564   7.759 -0.3913 -0.9750 -2.9659
  497MOL0     H65599   8.576   8.544   7.631 -0.8352 -0.5762  0.4409
  497MOL0     H65600   8.641   8.743   7.735  0.9877  0.6795 -0.0563
  497MOL0     H65601   8.656   8.670   7.895  0.8294  2.1487 -0.4528
  497MOL0     H65602   8.985   8.541   7.652 -1.3110 -1.7767 -0.9235
  497MOL0     H65603   8.864   8.380   7.900 -1.1978 -0.8964 -1.8086
  497MOL0     H65604   9.077   8.290   7.936 -2.5837  3.1036 -0.5469
  498MOL0     O65605   3.069  11.240   0.107 -1.0732 -0.9729  0.2783
  498MOL0     C65606   3.083  11.295   0.214 -0.3451 -0.7114  0.5643
  498MOL0     O65607   2.987  11.332   0.288  0.2815  0.9312  0.3144
  498MOL0     C65608   2.863  11.338   0.234 -0.8951 -0.0716 -0.4840
  498MOL0     C65609   2.834  11.406   0.113  0.2802 -0.2300  0.7119
  498MOL0     C65610   2.702  11.419   0.057 -0.1122 -1.3712  0.3529
  498MOL0     C65611   2.601  11.362   0.131 -0.0013 -0.6666  0.2879
  498MOL0     O65612   2.470  11.373   0.069 -0.3653 -0.3830 -0.0986
  498MOL0     C65613   2.345  11.368   0.137  0.5654 -0.5144  0.1938
  498MOL0     C65614   2.244  11.461   0.068  0.4436  0.6007 -0.8901
  498MOL0     C65615   2.286  11.604   0.066  0.4377 -0.2713 -0.0177
  498MOL0     C65616   2.168  11.706   0.060 -0.8129 -0.2169  0.7666
  498MOL0     C65617   2.224  11.845   0.038 -0.3700  0.1139  0.3858
  498MOL0     C65618   2.119  11.958   0.060 -0.7752  0.7378  0.4617
  498MOL0     C65619   2.166  12.086  -0.003  0.4576  0.0471 -0.4135
  498MOL0     C65620   2.047  12.184  -0.002  0.2597 -1.1831  0.5722
  498MOL0     N65621   2.001  12.239   0.131  0.7179  1.0785  0.3172
  498MOL0     C65622   1.914  12.348   0.137  0.3132 -0.3600  0.7943
  498MOL0     C65623   1.891  12.361   0.272 -0.0102 -0.3442 -0.3931
  498MOL0     C65624   1.825  12.480   0.347 -0.3967  0.6003 -0.5292
  498MOL0     C65625   1.677  12.468   0.326 -0.1599  0.0509  0.0359
  498MOL0     C65626   1.604  12.597   0.314 -0.3507  0.0980  0.8382
  498MOL0     C65627   1.449  12.573   0.315 -0.3797  0.5421  0.6326
  498MOL0     O65628   1.373  12.693   0.312 -0.7323 -0.1127  0.6590
  498MOL0     C65629   1.386  12.782   0.413 -0.1176 -0.3994 -0.7360
  498MOL0     C65630   1.343  12.917   0.395  0.4603  0.8697 -0.0831
  498MOL0     C65631   1.337  13.005   0.510  0.7536  0.1157 -0.1197
  498MOL0     C65632   1.367  12.964   0.638 -0.4393  1.0776 -0.6424
  498MOL0     C65633   1.352  13.049   0.755 -0.1587  0.0211 -0.2525
  498MOL0     O65634   1.406  13.006   0.876  0.4651 -0.1190 -0.4148
  498MOL0     C65635   1.380  13.077   0.986 -0.4851 -0.3787 -0.0318
  498MOL0     C65636   1.243  13.120   1.031 -0.1528  0.0692  0.4076
  498MOL0     C65637   1.240  13.199   1.146  0.1601  0.1049 -0.2546
  498MOL0     C65638   1.356  13.228   1.225  0.4713  0.6823  0.3526
  498MOL0     O65639   1.338  13.298   1.340 -0.5327 -1.1153  0.6855
  498MOL0     C65640   1.373  13.235   1.464  0.9203 -0.3629 -1.0038
  498MOL0     C65641   1.250  13.183   1.534  1.3166 -0.1313  0.3764
  498MOL0     C65642   1.123  13.282   1.554 -0.0468 -0.4192  0.5879
  498MOL0     C65643   1.140  13.430   1.544 -0.3820  0.1385  0.5798
  498MOL0     C65644   1.021  13.514   1.577 -0.2250  0.4840  0.6462
  498MOL0     C65645   0.893  13.477   1.497  0.4257  0.5203 -0.2167
  498MOL0     C65646   0.773  13.572   1.528  0.7044  0.4053 -0.4376
  498MOL0     C65647   0.651  13.512   1.460 -0.0396  1.0328 -0.8709
  498MOL0    Cl65648   0.501  13.600   1.507  0.1560  0.2604  0.1812
  498MOL0     C65649   1.480  13.178   1.188 -0.8322  0.9902  1.1337
  498MOL0     C65650   1.491  13.106   1.063 -0.0873  0.8034  0.4855
  498MOL0     O65651   1.290  13.157   0.735  0.3622 -0.8239 -0.9877
  498MOL0     C65652   1.412  12.828   0.656  0.0064 -0.0463 -0.1440
  498MOL0     C65653   1.411  12.739   0.542 -0.4131  0.3872 -0.1553
  498MOL0     N65654   1.945  12.254   0.339 -0.7579  0.3773  0.3911
  498MOL0     N65655   2.015  12.188   0.255 -0.2284 -0.4168  0.8369
  498MOL0     C65656   2.622  11.305   0.258  0.1841 -0.1990 -0.6730
  498MOL0     C65657   2.751  11.280   0.299  0.4117  0.4275  0.0496
  498MOL0     C65658   3.218  11.341   0.254  0.2664  0.0635  0.2786
  498MOL0     C65659   3.329  11.322   0.163  1.1088  0.4537 -0.0501
  498MOL0     C65660   3.463  11.353   0.202 -0.0057  0.7154 -0.2464
  498MOL0     C65661   3.488  11.415   0.321 -1.0627 -0.8472  0.1305
  498MOL0     O65662   3.607  11.480   0.357  0.5559  0.3762  0.0981
  498MOL0     C65663   3.708  11.499   0.258 -0.0744 -0.9170  0.0552
  498MOL0     C65664   3.789  11.365   0.235  0.5570  0.4585 -0.5605
  498MOL0     C65665   3.851  11.312   0.367 -0.7018  1.4246  1.1530
  498MOL0     C65666   3.759  11.220   0.447 -0.2901  0.5949  0.0782
  498MOL0     C65667   3.830  11.117   0.527  0.6710  0.5070  0.5407
  498MOL0     C65668   3.891  11.036   0.599  0.6897  0.6013 -1.4487
  498MOL0     C65669   3.388  11.436   0.415 -0.3240  0.1616  0.4588
  498MOL0     C65670   3.256  11.405   0.376  0.5574 -0.2082  0.3800
  498MOL0     H65671   2.909  11.456   0.052 -1.7117  2.3675  0.2304
  498MOL0     H65672   2.686  11.469  -0.038  1.9339 -0.0561  0.6242
  498MOL0     H65673   2.360  11.397   0.241 -0.4900 -0.7474  0.4234
  498MOL0     H65674   2.310  11.264   0.127  1.5336 -0.7416 -1.3246
  498MOL0     H65675   2.157  11.448   0.133 -1.0245  2.6454 -2.3193
  498MOL0     H65676   2.220  11.427  -0.032 -0.7200 -0.8499 -0.1523
  498MOL0     H65677   2.340  11.616  -0.028 -0.4801  0.4365 -0.4643
  498MOL0     H65678   2.346  11.626   0.155 -1.4258  3.2205  0.5531
  498MOL0     H65679   2.099  11.692  -0.023 -0.2589  2.4178 -0.2351
  498MOL0     H65680   2.115  11.700   0.155 -2.2357  0.8236  0.0650
  498MOL0     H65681   2.259  11.855  -0.065 -2.4898  1.9322 -0.2472
  498MOL0     H65682   2.314  11.869   0.096 -0.1263  2.3978 -0.8119
  498MOL0     H65683   2.110  11.970   0.168  2.8000  2.3494  0.7385
  498MOL0     H65684   2.028  11.940   0.003  1.4121  0.8925 -3.4396
  498MOL0     H65685   2.251  12.125   0.053  2.2790 -1.9536 -1.6219
  498MOL0     H65686   2.200  12.067  -0.105  3.4912 -1.7133  0.7910
  498MOL0     H65687   1.952  12.158  -0.051 -0.7759 -0.5641  2.1487
  498MOL0     H65688   2.065  12.270  -0.068  0.8357 -2.6623 -1.3059
  498MOL0     H65689   1.885  12.403   0.048 -0.9521 -0.0770  1.3634
  498MOL0     H65690   1.859  12.579   0.314 -0.9923  1.9786  2.5628
  498MOL0     H65691   1.865  12.470   0.448  1.3517  0.6894 -1.1664
  498MOL0     H65692   1.631  12.403   0.401 -2.8525  3.5764  1.7149
  498MOL0     H65693   1.651  12.413   0.235 -3.2590  0.3550  0.6194
  498MOL0     H65694   1.634  12.659   0.399  1.1965  0.1454  0.2958
  498MOL0     H65695   1.638  12.639   0.219  1.5134 -2.4935  0.2514
  498MOL0     H65696   1.419  12.522   0.407 -1.3586  2.1483  1.2675
  498MOL0     H65697   1.427  12.508   0.230  1.9097  0.2664  0.1951
  498MOL0     H65698   1.309  12.949   0.297 -3.8860  2.7270  1.7782
  498MOL0     H65699   1.302  13.105   0.486 -0.9350 -0.5416 -0.6170
  498MOL0     H65700   1.158  13.091   0.971  1.4312 -3.3052 -0.4666
  498MOL0     H65701   1.139  13.225   1.175  0.4418  1.7699 -0.6624
  498MOL0     H65702   1.412  13.322   1.517 -1.0909  0.3061 -0.5090
  498MOL0     H65703   1.442  13.151   1.455  0.3149 -0.8889 -0.8600
  498MOL0     H65704   1.287  13.144   1.629  0.4783 -0.0619  0.7403
  498MOL0     H65705   1.206  13.104   1.472  2.0936  0.2501 -0.6930
  498MOL0     H65706   1.084  13.248   1.651  0.8066 -1.3336  0.6318
  498MOL0     H65707   1.043  13.262   1.482  0.8198 -1.2377 -0.1730
  498MOL0     H65708   1.211  13.460   1.622 -0.8579 -1.4925  1.6868
  498MOL0     H65709   1.176  13.457   1.444 -0.5657  1.4789  0.8535
  498MOL0     H65710   1.045  13.620   1.563 -4.1588  1.6564  1.3640
  498MOL0     H65711   1.009  13.498   1.685  1.6220 -1.4466  0.6310
  498MOL0     H65712   0.857  13.374   1.504  1.2786  0.1616 -0.9371
  498MOL0     H65713   0.916  13.478   1.390 -0.6523 -4.6319 -0.7958
  498MOL0     H65714   0.740  13.568   1.632  1.4743 -0.5423 -0.2180
  498MOL0     H65715   0.780  13.676   1.496  1.2922  0.0948 -1.3687
  498MOL0     H65716   0.641  13.407   1.489  0.2138  1.1043 -0.5278
  498MOL0     H65717   0.663  13.518   1.351  1.6922  1.3764 -0.6843
  498MOL0     H65718   1.563  13.184   1.258 -0.1088  1.3862  0.2611
  498MOL0     H65719   1.585  13.068   1.026  0.5014  0.6732  2.0647
  498MOL0     H65720   1.410  12.781   0.754 -0.2646 -4.2668 -1.9758
  498MOL0     H65721   1.440  12.639   0.571  1.9474  0.4186 -2.0866
  498MOL0     H65722   2.535  11.252   0.294  0.0941 -0.4778 -1.2993
  498MOL0     H65723   2.764  11.216   0.387  1.7134  0.3974 -0.1429
  498MOL0     H65724   3.307  11.282   0.065  3.1431  2.1241 -1.2721
  498MOL0     H65725   3.547  11.343   0.134  1.1186  2.5111  0.7907
  498MOL0     H65726   3.780  11.566   0.306 -1.2377 -0.1713  0.8082
  498MOL0     H65727   3.655  11.537   0.170 -0.4036  0.2713  0.7493
  498MOL0     H65728   3.727  11.282   0.198  0.0116 -0.0097  1.3200
  498MOL0     H65729   3.866  11.385   0.160  1.1832  1.7647  0.3971
  498MOL0     H65730   3.869  11.392   0.439  0.9844  1.0981  1.1324
  498MOL0     H65731   3.944  11.258   0.348 -1.5286  0.6428 -1.0374
  498MOL0     H65732   3.717  11.291   0.519  1.8281  1.5742  0.4249
  498MOL0     H65733   3.676  11.174   0.393  0.6378 -2.4768  1.0308
  498MOL0     H65734   3.935  10.958   0.658 -0.1410  0.4166 -1.0508
  498MOL0     H65735   3.417  11.485   0.507 -0.3317 -0.5229  0.8286
  498MOL0     H65736   3.174  11.425   0.444  0.5539 -1.1592  0.6688
  499MOL0     O65737   9.360   8.453   7.931 -0.0923  0.3097  0.0273
  499MOL0     C65738   9.428   8.517   7.854 -0.6789 -0.5227  0.0310
  499MOL0     O65739   9.392   8.643   7.806 -0.1724  0.1776  0.7480
  499MOL0     C65740   9.303   8.719   7.876 -0.9047  0.5922 -0.0110
  499MOL0     C65741   9.176   8.679   7.886  1.0726 -1.1401 -0.3416
  499MOL0     C65742   9.076   8.771   7.940 -0.5030 -0.2775 -0.4109
  499MOL0     C65743   9.116   8.889   8.008 -1.5773  0.6274 -0.1824
  499MOL0     O65744   9.012   8.969   8.065 -0.1657 -0.4587  0.3718
  499MOL0     C65745   8.981   9.092   7.995 -0.1135  0.2876  0.0283
  499MOL0     C65746   8.857   9.074   7.903 -0.3415 -1.2538  0.3501
  499MOL0     C65747   8.712   9.076   7.971  0.3616 -0.6101  0.1451
  499MOL0     C65748   8.697   8.964   8.078 -0.1094  0.5809 -0.4188
  499MOL0     C65749   8.554   8.962   8.136 -0.2722  0.4223 -0.8487
  499MOL0     C65750   8.513   9.078   8.229  0.4492 -0.5109  0.5806
  499MOL0     C65751   8.388   9.044   8.320  0.0985 -0.5488  0.1314
  499MOL0     C65752   8.259   9.051   8.248  0.3915 -0.5009 -0.7057
  499MOL0     N65753   8.152   8.986   8.332  0.7966  0.1897 -0.2971
  499MOL0     C65754   8.087   8.866   8.288 -1.4474 -0.4847  0.5022
  499MOL0     C65755   7.967   8.859   8.342  0.2882 -0.3580 -0.5575
  499MOL0     C65756   7.863   8.759   8.328  0.6023  0.3124  0.1659
  499MOL0     C65757   7.754   8.787   8.229 -1.1783 -0.1206 -0.0056
  499MOL0     C65758   7.648   8.673   8.228 -0.2842  0.3597  0.3927
  499MOL0     C65759   7.530   8.704   8.145 -0.4244  0.5433  0.0102
  499MOL0     O65760   7.447   8.590   8.141 -0.0179 -0.7686 -0.2329
  499MOL0     C65761   7.333   8.576   8.221 -0.6094 -0.7540  1.1726
  499MOL0     C65762   7.244   8.481   8.190 -0.2370  1.0915  0.5216
  499MOL0     C65763   7.129   8.466   8.263  0.3491  0.2306 -1.5907
  499MOL0     C65764   7.099   8.534   8.385 -0.8912  1.0306  0.5954
  499MOL0     C65765   6.977   8.520   8.472 -0.3871  0.7443  0.4590
  499MOL0     O65766   6.969   8.593   8.586 -0.3319  0.4787 -0.9665
  499MOL0     C65767   6.853   8.588   8.656  1.1939 -0.1920  0.8092
  499MOL0     C65768   6.866   8.608   8.796  0.3634 -0.3200  0.2449
  499MOL0     C65769   6.754   8.630   8.879 -0.6191 -0.7480 -0.3502
  499MOL0     C65770   6.627   8.634   8.831  1.1893 -0.4966 -0.4029
  499MOL0     O65771   6.507   8.662   8.905 -0.5668 -0.1783  0.3065
  499MOL0     C65772   6.503   8.596   9.035  0.1384 -0.5522  0.1288
  499MOL0     C65773   6.467   8.449   9.019  0.4494 -0.6233  0.2236
  499MOL0     C65774   6.334   8.432   8.938 -0.1905 -0.6763 -0.1280
  499MOL0     C65775   6.206   8.522   8.983 -0.5298 -0.3272  0.1354
  499MOL0     C65776   6.147   8.452   9.101 -0.5011 -1.1330  1.0186
  499MOL0     C65777   6.061   8.539   9.198  0.4250  0.0102 -0.2086
  499MOL0     C65778   5.937   8.597   9.139  1.4101 -0.3160 -0.1404
  499MOL0     C65779   5.852   8.663   9.256  0.0290 -0.8983  0.5269
  499MOL0    Cl65780   5.824   8.585   9.407 -0.1656 -0.5104  0.1939
  499MOL0     C65781   6.604   8.618   8.689 -0.5013 -0.3532 -0.1550
  499MOL0     C65782   6.718   8.591   8.610 -0.7188 -0.3554 -0.1252
  499MOL0     O65783   6.896   8.444   8.420 -0.3739 -0.3050 -0.7055
  499MOL0     C65784   7.202   8.624   8.424 -0.2178  0.4991  0.6167
  499MOL0     C65785   7.313   8.650   8.343 -0.9504  0.1302  0.2476
  499MOL0     N65786   7.968   8.975   8.421 -0.0956 -0.6166 -0.4050
  499MOL0     N65787   8.074   9.048   8.418 -0.0238 -0.1267 -0.0313
  499MOL0     C65788   9.251   8.917   8.013 -0.4304 -0.5804 -0.3400
  499MOL0     C65789   9.342   8.841   7.934 -0.0797 -0.2151  1.0001
  499MOL0     C65790   9.558   8.453   7.800 -0.1283 -0.0186  0.2281
  499MOL0     C65791   9.635   8.362   7.873  0.7811  0.4984 -0.6880
  499MOL0     C65792   9.756   8.323   7.832 -0.5848  0.3467  0.2057
  499MOL0     C65793   9.820   8.379   7.725  0.2280  0.5561 -0.4520
  499MOL0     O65794   9.952   8.356   7.701 -0.2479  0.1134  0.3019
  499MOL0     C65795  10.034   8.464   7.641  1.2283 -0.2538 -0.5455
  499MOL0     C65796  10.184   8.443   7.634 -0.8158 -0.3037  0.3381
  499MOL0     C65797  10.284   8.566   7.638  0.0261 -1.1921  0.2574
  499MOL0     C65798  10.431   8.505   7.622  0.5241 -0.5053  0.4544
  499MOL0     C65799  10.461   8.417   7.734  0.6920  0.2268  0.2537
  499MOL0     C65800  10.500   8.350   7.826  0.6242  0.0951  0.5944
  499MOL0     C65801   9.746   8.474   7.644  0.5446  0.1738 -0.0895
  499MOL0     C65802   9.618   8.509   7.681  0.2414 -0.1361 -0.6670
  499MOL0     H65803   9.143   8.584   7.846  0.2736 -2.3515  2.8393
  499MOL0     H65804   8.972   8.740   7.942 -0.8561  0.7308 -1.6002
  499MOL0     H65805   9.065   9.124   7.933  3.5365 -1.9868  3.2839
  499MOL0     H65806   8.946   9.174   8.059 -3.4245 -0.3059 -0.8317
  499MOL0     H65807   8.887   8.988   7.843  3.1830 -0.4267  0.7175
  499MOL0     H65808   8.869   9.162   7.840  1.1034  0.2201  2.5307
  499MOL0     H65809   8.637   9.069   7.891 -0.9453  0.0218  1.2680
  499MOL0     H65810   8.694   9.174   8.016 -0.8923 -1.0617  0.6813
  499MOL0     H65811   8.726   8.868   8.034 -1.1180 -0.2492  0.6490
  499MOL0     H65812   8.779   8.981   8.149  0.7049  0.2583 -1.2606
  499MOL0     H65813   8.562   8.878   8.207  2.4369 -0.0320 -1.5662
  499MOL0     H65814   8.470   8.950   8.067  0.0616 -1.4585 -0.9770
  499MOL0     H65815   8.484   9.167   8.173  0.8865  0.0231  1.1906
  499MOL0     H65816   8.595   9.108   8.295 -0.2778  0.1661  1.2008
  499MOL0     H65817   8.400   8.949   8.373 -1.2025 -1.4590 -1.1173
  499MOL0     H65818   8.384   9.125   8.393  0.6173 -1.2546  0.9512
  499MOL0     H65819   8.256   8.997   8.153 -5.4353 -2.5385  0.2503
  499MOL0     H65820   8.229   9.153   8.222  2.3275  0.4215  0.4165
  499MOL0     H65821   8.120   8.799   8.210  1.7378  2.2944 -0.7967
  499MOL0     H65822   7.813   8.735   8.422  0.5844 -1.4752 -0.2719
  499MOL0     H65823   7.920   8.674   8.289  0.0535 -0.4056  0.9023
  499MOL0     H65824   7.797   8.806   8.131  2.1713  1.0946  1.5476
  499MOL0     H65825   7.717   8.887   8.257 -0.0899 -0.1514  1.6705
  499MOL0     H65826   7.701   8.581   8.200 -1.1865 -0.1543  0.3419
  499MOL0     H65827   7.610   8.664   8.331 -1.3229 -0.1455 -0.0252
  499MOL0     H65828   7.570   8.731   8.047  0.3751 -0.6579 -0.0223
  499MOL0     H65829   7.476   8.790   8.184 -2.3927 -1.0472  1.0185
  499MOL0     H65830   7.263   8.428   8.097  1.0545  2.0338  0.2003
  499MOL0     H65831   7.046   8.403   8.233 -1.1022  1.3365 -0.1156
  499MOL0     H65832   6.966   8.594   8.834 -0.5785 -4.7778  1.7474
  499MOL0     H65833   6.774   8.640   8.985  0.5274  1.1368 -0.6991
  499MOL0     H65834   6.422   8.644   9.091 -0.0123  0.0115 -0.5611
  499MOL0     H65835   6.596   8.606   9.092  0.4533  0.3244 -0.5228
  499MOL0     H65836   6.454   8.410   9.121 -0.0844 -1.6694 -0.2301
  499MOL0     H65837   6.551   8.395   8.976  0.6183 -1.1925  1.2406
  499MOL0     H65838   6.299   8.329   8.950 -1.3009 -0.0915  2.3174
  499MOL0     H65839   6.368   8.463   8.839 -1.8587  0.2477 -0.4520
  499MOL0     H65840   6.230   8.623   9.017  2.4957 -1.6028  2.2082
  499MOL0     H65841   6.128   8.526   8.907 -0.5433 -0.0055  0.1681
  499MOL0     H65842   6.233   8.432   9.165  0.5938  3.8110  1.4368
  499MOL0     H65843   6.102   8.354   9.080  0.4871 -1.2200 -0.9729
  499MOL0     H65844   6.118   8.626   9.231  0.5867 -0.1407 -0.0850
  499MOL0     H65845   6.032   8.466   9.274 -1.2208  0.3135 -0.5220
  499MOL0     H65846   5.962   8.668   9.060  1.5065 -2.0250 -1.7035
  499MOL0     H65847   5.893   8.516   9.080  0.9525  1.0857 -1.8131
  499MOL0     H65848   5.757   8.694   9.211 -0.0544 -2.1627 -0.1997
  499MOL0     H65849   5.901   8.757   9.284  0.0847 -0.3279 -1.3271
  499MOL0     H65850   6.514   8.641   8.633 -1.1620 -1.9689  0.1866
  499MOL0     H65851   6.703   8.571   8.505  1.3015 -2.8507 -0.0420
  499MOL0     H65852   7.189   8.689   8.510 -1.1949  1.5921 -0.3343
  499MOL0     H65853   7.392   8.717   8.375  1.8247 -3.0281  0.6602
  499MOL0     H65854   9.274   9.010   8.064 -1.6546 -0.1689 -0.5091
  499MOL0     H65855   9.449   8.856   7.925  0.4791 -3.2391  1.4887
  499MOL0     H65856   9.614   8.304   7.962  1.7600 -0.6071 -1.1463
  499MOL0     H65857   9.808   8.244   7.885  1.3259  0.7224 -1.0132
  499MOL0     H65858  10.020   8.549   7.708  1.4581  1.2718 -2.3709
  499MOL0     H65859   9.998   8.502   7.545  0.9858  3.4342  0.8484
  499MOL0     H65860  10.210   8.368   7.710  0.5726  0.5776  0.7588
  499MOL0     H65861  10.205   8.397   7.537  2.0477  0.3079  0.5858
  499MOL0     H65862  10.271   8.616   7.734 -1.5153  1.9395 -1.3843
  499MOL0     H65863  10.272   8.639   7.557  1.5329 -1.1994  0.0031
  499MOL0     H65864  10.451   8.453   7.528 -2.1171  0.7976 -0.9387
  499MOL0     H65865  10.502   8.589   7.622  1.1674 -0.9753 -1.5027
  499MOL0     H65866  10.523   8.283   7.906 -3.0535 -0.9610  0.9797
  499MOL0     H65867   9.783   8.499   7.545 -0.5554 -0.3665 -0.6616
  499MOL0     H65868   9.556   8.581   7.628  0.7079 -0.6361 -1.9260
  500MOL0     O65869   0.587   7.710  10.996 -0.3888  0.5028 -0.0284
  500MOL0     C65870   0.611   7.594  11.043 -1.0177  0.2393  0.0182
  500MOL0     O65871   0.529   7.527  11.126  0.7532 -0.0572 -0.7895
  500MOL0     C65872   0.398   7.562  11.138  0.3848 -1.7930 -0.4276
  500MOL0     C65873   0.348   7.628  11.250  0.9518  0.2259 -0.1777
  500MOL0     C65874   0.213   7.660  11.252  0.1993  0.1419 -0.0936
  500MOL0     C65875   0.125   7.630  11.144 -0.0167  0.0036 -0.2394
  500MOL0     O65876  -0.008   7.654  11.145 -0.2738 -0.0907 -0.6984
  500MOL0     C65877  -0.046   7.751  11.051 -0.5823  0.5017  0.2159
  500MOL0     C65878  -0.183   7.805  11.097  0.2296 -0.1178 -0.1727
  500MOL0     C65879  -0.270   7.829  10.981  1.2914 -0.1548 -0.3718
  500MOL0     C65880  -0.406   7.875  11.026  0.0052  0.5338 -0.4146
  500MOL0     C65881  -0.512   7.832  10.920 -0.2401  0.1848 -0.6243
  500MOL0     C65882  -0.652   7.883  10.945 -0.1334  1.1547 -0.4008
  500MOL0     C65883  -0.758   7.822  10.854 -0.1639 -0.4359  0.4494
  500MOL0     C65884  -0.801   7.931  10.755 -0.0990  0.5725  1.0644
  500MOL0     N65885  -0.710   8.012  10.668  0.6674  0.9162  0.1824
  500MOL0     C65886  -0.670   8.146  10.678  0.0820 -0.0249  0.0499
  500MOL0     C65887  -0.601   8.180  10.564 -0.1836  0.1371 -0.3358
  500MOL0     C65888  -0.551   8.323  10.521 -0.2106  0.3802  0.3683
  500MOL0     C65889  -0.661   8.431  10.520  0.2763  0.4019  1.2664
  500MOL0     C65890  -0.759   8.415  10.403 -0.3880  0.5648  0.2104
  500MOL0     C65891  -0.823   8.547  10.368 -0.2474  0.1741  1.3493
  500MOL0     O65892  -0.876   8.617  10.482 -0.4628 -0.8173  0.0279
  500MOL0     C65893  -0.995   8.578  10.520  0.5182 -0.1187  0.5776
  500MOL0     C65894  -1.093   8.523  10.432 -0.3831  0.1251 -0.6907
  500MOL0     C65895  -1.219   8.483  10.489  0.0617 -0.1289  0.5756
  500MOL0     C65896  -1.256   8.501  10.622  0.0513 -0.0929 -0.0278
  500MOL0     C65897  -1.391   8.462  10.679  0.1180  0.4062 -0.7469
  500MOL0     O65898  -1.479   8.393  10.603 -0.8670 -0.0588  0.6359
  500MOL0     C65899  -1.600   8.344  10.643  0.6313  0.8421 -1.2536
  500MOL0     C65900  -1.674   8.382  10.756 -0.2088  0.5536 -1.2446
  500MOL0     C65901  -1.797   8.319  10.778  0.1455 -1.7590 -0.5638
  500MOL0     C65902  -1.857   8.241  10.680 -0.5727  0.1331  0.3128
  500MOL0     O65903  -1.985   8.202  10.686  0.0352  0.0083 -0.1795
  500MOL0     C65904  -2.063   8.139  10.585 -0.4866 -0.1740  0.2158
  500MOL0     C65905  -2.197   8.100  10.645  0.0432 -0.7319  0.5736
  500MOL0     C65906  -2.235   7.948  10.615 -0.0567 -0.5205 -0.6861
  500MOL0     C65907  -2.389   7.927  10.635 -0.2654  0.0863  0.6096
  500MOL0     C65908  -2.451   7.795  10.587 -0.6701 -0.1494  0.4380
  500MOL0     C65909  -2.390   7.670  10.657 -0.6380 -0.7722  0.2545
  500MOL0     C65910  -2.427   7.538  10.561 -0.4092  0.8402 -0.5917
  500MOL0     C65911  -2.395   7.410  10.641 -0.3412 -0.7626 -0.3334
  500MOL0    Cl65912  -2.458   7.267  10.567  0.2732  0.4234  0.1074
  500MOL0     C65913  -1.793   8.223  10.558 -0.3890 -0.0633 -0.1720
  500MOL0     C65914  -1.658   8.263  10.542 -0.0367 -0.5018 -0.5276
  500MOL0     O65915  -1.407   8.486  10.790  0.4068 -0.4499 -0.1814
  500MOL0     C65916  -1.163   8.574  10.703 -0.0030  0.3054  1.1597
  500MOL0     C65917  -1.034   8.607  10.652  0.3792  0.7258  0.3112
  500MOL0     N65918  -0.596   8.057  10.493 -0.3327 -0.0645  0.0838
  500MOL0     N65919  -0.657   7.961  10.559  0.2104 -0.2984  0.8670
  500MOL0     C65920   0.180   7.564  11.035  0.9607  0.0655 -0.2206
  500MOL0     C65921   0.312   7.520  11.033  0.1348 -0.7172  0.2528
  500MOL0     C65922   0.744   7.531  11.022  0.0826 -0.3114 -0.8597
  500MOL0     C65923   0.845   7.609  10.964  0.9581 -0.1768  0.8483
  500MOL0     C65924   0.963   7.552  10.935 -0.2609  0.2192  0.9722
  500MOL0     C65925   0.994   7.415  10.973 -0.2146 -0.6084  0.2859
  500MOL0     O65926   1.126   7.375  10.949 -0.2516 -0.0404 -0.1523
  500MOL0     C65927   1.205   7.382  11.070  0.0678  0.2775  0.1412
  500MOL0     C65928   1.231   7.518  11.130 -0.5562 -0.0472  0.0354
  500MOL0     C65929   1.330   7.618  11.063 -0.0370 -0.4687 -0.7521
  500MOL0     C65930   1.473   7.630  11.129 -0.1672 -0.5742 -0.4016
  500MOL0     C65931   1.538   7.501  11.112  0.7159 -0.0047  0.0269
  500MOL0     C65932   1.570   7.386  11.120 -0.4418  0.4495  0.8419
  500MOL0     C65933   0.894   7.347  11.032  0.4453 -0.3766 -0.3219
  500MOL0     C65934   0.765   7.398  11.060 -0.1427  0.0135 -0.5486
  500MOL0     H65935   0.414   7.658  11.331 -1.6659 -0.8153  2.5009
  500MOL0     H65936   0.184   7.713  11.342  0.8157 -2.9237  2.0527
  500MOL0     H65937  -0.061   7.704  10.954  2.5351 -0.2293 -0.0221
  500MOL0     H65938   0.023   7.835  11.043 -2.6109  2.6858  3.0973
  500MOL0     H65939  -0.169   7.904  11.142  2.5513 -0.2317 -0.4927
  500MOL0     H65940  -0.227   7.733  11.167 -2.9892  0.1921 -1.7036
  500MOL0     H65941  -0.292   7.739  10.924  0.4812  1.1014 -2.1439
  500MOL0     H65942  -0.229   7.906  10.915 -0.4720 -0.0356 -1.4052
  500MOL0     H65943  -0.428   7.836  11.126  2.1827  0.4581  0.0728
  500MOL0     H65944  -0.392   7.983  11.032  2.7358  0.3073 -1.4033
  500MOL0     H65945  -0.518   7.723  10.927 -1.3139  0.2143 -0.9032
  500MOL0     H65946  -0.475   7.849  10.819  1.6629  1.7931  0.2826
  500MOL0     H65947  -0.654   7.993  10.942 -3.8477  1.1859 -0.6629
  500MOL0     H65948  -0.669   7.850  11.047  2.9213 -0.8128 -0.3898
  500MOL0     H65949  -0.717   7.739  10.797 -0.8372 -1.1945  1.0499
  500MOL0     H65950  -0.842   7.778  10.907  0.6816 -0.0595  2.1865
  500MOL0     H65951  -0.870   8.003  10.799  0.6017  2.4599 -0.7484
  500MOL0     H65952  -0.838   7.869  10.673  3.3308  1.1803 -1.1588
  500MOL0     H65953  -0.692   8.209  10.764 -1.1429 -0.6394  0.2103
  500MOL0     H65954  -0.510   8.296  10.423 -0.6172  0.1702  0.2522
  500MOL0     H65955  -0.468   8.351  10.587 -1.8383  5.5162  0.6433
  500MOL0     H65956  -0.602   8.523  10.509  0.8871 -0.2087 -1.1786
  500MOL0     H65957  -0.708   8.434  10.618  0.6969 -0.6019  1.5012
  500MOL0     H65958  -0.698   8.377  10.321 -1.9854 -2.8138  0.4330
  500MOL0     H65959  -0.827   8.334  10.430  1.5811 -1.9408 -1.8143
  500MOL0     H65960  -0.895   8.524  10.289  0.3644 -1.1154  1.1222
  500MOL0     H65961  -0.746   8.608  10.320  2.5972 -2.0732  2.7085
  500MOL0     H65962  -1.078   8.514  10.324 -4.3327  0.7191 -1.4310
  500MOL0     H65963  -1.291   8.432  10.426 -0.5571 -2.3995  2.9339
  500MOL0     H65964  -1.645   8.454  10.832  0.1394 -3.4091  2.8001
  500MOL0     H65965  -1.842   8.352  10.872  1.6416  1.6650 -0.9245
  500MOL0     H65966  -2.009   8.047  10.561 -0.9326  0.0553 -1.8920
  500MOL0     H65967  -2.071   8.203  10.496  2.8590 -0.2229 -0.2769
  500MOL0     H65968  -2.276   8.165  10.606  0.4473 -1.1028 -0.9489
  500MOL0     H65969  -2.195   8.110  10.753 -1.7419 -0.8059  0.6466
  500MOL0     H65970  -2.173   7.884  10.680 -1.5804 -1.1061  0.2415
  500MOL0     H65971  -2.205   7.925  10.512 -0.5227  0.0855 -0.9613
  500MOL0     H65972  -2.416   7.957  10.737  0.5892  1.0527  0.5658
  500MOL0     H65973  -2.417   8.007  10.566  0.9062  0.0392  0.0582
  500MOL0     H65974  -2.442   7.787  10.478 -0.3610  1.8945  0.2771
  500MOL0     H65975  -2.559   7.810  10.596 -0.5392  1.3298 -0.1120
  500MOL0     H65976  -2.436   7.654  10.755  1.1795 -2.4387  0.9017
  500MOL0     H65977  -2.281   7.678  10.657 -0.4935 -2.1707  1.8347
  500MOL0     H65978  -2.532   7.536  10.531 -0.3684 -3.4064 -0.9380
  500MOL0     H65979  -2.373   7.538  10.466 -0.5499 -1.6162 -0.7242
  500MOL0     H65980  -2.447   7.423  10.736 -1.6014 -0.7533 -1.0009
  500MOL0     H65981  -2.286   7.405  10.643 -0.3440 -1.2924 -1.0805
  500MOL0     H65982  -1.846   8.157  10.490 -4.3418  0.9292  1.7099
  500MOL0     H65983  -1.595   8.248  10.455 -0.7617  0.6542 -1.2937
  500MOL0     H65984  -1.180   8.606  10.805  0.0985  0.9068  0.9904
  500MOL0     H65985  -0.961   8.662  10.711 -0.9545  1.4798  1.3000
  500MOL0     H65986   0.114   7.534  10.954 -1.9693  0.3553  1.8836
  500MOL0     H65987   0.359   7.471  10.949  2.2552  0.6794  0.5317
  500MOL0     H65988   0.824   7.709  10.928  2.8764  0.2501  0.8621
  500MOL0     H65989   1.038   7.612  10.885 -1.0867  0.1954 -0.3467
  500MOL0     H65990   1.300   7.344  11.031 -0.5864  0.7524 -2.0558
  500MOL0     H65991   1.169   7.316  11.149 -2.5252  0.0781 -1.1186
  500MOL0     H65992   1.134   7.565  11.149 -0.5995 -0.8018  1.9564
  500MOL0     H65993   1.269   7.500  11.231 -4.4464 -1.3013  1.4601
  500MOL0     H65994   1.274   7.712  11.067 -1.0071 -1.0894  1.2433
  500MOL0     H65995   1.344   7.580  10.962 -0.7201 -2.5356 -0.1198
  500MOL0     H65996   1.517   7.711  11.070 -2.7427  0.9653 -0.3632
  500MOL0     H65997   1.485   7.663  11.233 -0.8201 -1.1377 -0.1345
  500MOL0     H65998   1.616   7.290  11.109 -0.5471  0.4616  0.2295
  500MOL0     H65999   0.910   7.245  11.062 -0.3459  0.7501  4.8084
  500MOL0     H66000   0.694   7.329  11.106  1.3691 -0.2297  1.5518
  501MOL0     O66001   6.129   8.499   1.336 -0.1007 -0.2328 -0.3385
  501MOL0     C66002   6.070   8.519   1.445 -0.3944 -0.6655 -1.3161
  501MOL0     O66003   6.103   8.475   1.566 -0.4253 -0.3368  0.4172
  501MOL0     C66004   6.218   8.401   1.587 -0.1866  0.5802  0.4287
  501MOL0     C66005   6.222   8.275   1.533 -0.7372 -0.2960 -0.1071
  501MOL0     C66006   6.330   8.192   1.565 -0.2624  0.0166 -0.0748
  501MOL0     C66007   6.440   8.232   1.643  1.3707 -0.2673  1.0380
  501MOL0     O66008   6.536   8.138   1.679  0.7720 -0.1052 -0.6058
  501MOL0     C66009   6.607   8.181   1.797 -0.3384  0.5236  0.9628
  501MOL0     C66010   6.698   8.064   1.835  0.1010  0.3165 -0.7016
  501MOL0     C66011   6.799   8.028   1.727  0.2425  1.2184 -0.3509
  501MOL0     C66012   6.913   8.123   1.727 -0.8569  0.2072 -0.5808
  501MOL0     C66013   7.022   8.067   1.634 -0.1063  0.5298 -0.1526
  501MOL0     C66014   7.140   8.159   1.652 -0.8581 -0.2802 -0.0882
  501MOL0     C66015   7.246   8.143   1.550 -0.1397  0.9705 -0.2155
  501MOL0     C66016   7.374   8.209   1.598  1.0245  1.0131  0.1081
  501MOL0     N66017   7.458   8.230   1.489 -0.4022  0.7472 -0.5417
  501MOL0     C66018   7.444   8.317   1.376  1.0474  0.4579 -0.2994
  501MOL0     C66019   7.551   8.302   1.295 -0.7533  0.3272 -0.4098
  501MOL0     C66020   7.576   8.372   1.169 -0.4473  0.3598  1.0683
  501MOL0     C66021   7.656   8.289   1.061  0.5076  0.1306  0.0281
  501MOL0     C66022   7.804   8.268   1.102  0.1127  0.4037  0.2582
  501MOL0     C66023   7.840   8.123   1.124 -0.2786  0.3340  0.5548
  501MOL0     O66024   7.869   8.063   1.001 -0.2183  0.1653  0.9186
  501MOL0     C66025   8.006   8.020   0.977 -0.0149 -0.5152 -0.4585
  501MOL0     C66026   8.124   8.080   1.013  0.1115  0.3501 -0.0036
  501MOL0     C66027   8.252   8.037   0.986  0.5841 -1.0724  0.0177
  501MOL0     C66028   8.268   7.918   0.907 -0.0312 -0.8180 -0.8169
  501MOL0     C66029   8.404   7.873   0.864 -0.7908 -0.7653  1.1344
  501MOL0     O66030   8.401   7.778   0.770  0.0681  1.0310 -0.7491
  501MOL0     C66031   8.521   7.717   0.723 -0.1256 -0.3257  0.0023
  501MOL0     C66032   8.512   7.576   0.702 -0.3914 -1.2428  0.0656
  501MOL0     C66033   8.625   7.508   0.657  0.3106  0.2784  0.2838
  501MOL0     C66034   8.747   7.578   0.641 -0.3408 -0.1382 -0.6629
  501MOL0     O66035   8.855   7.490   0.623  0.3211 -0.1516 -0.3412
  501MOL0     C66036   8.976   7.556   0.672  0.2599 -0.2275 -0.0207
  501MOL0     C66037   9.086   7.444   0.685  1.0989  0.2686  0.2032
  501MOL0     C66038   9.086   7.330   0.586 -0.3290 -0.4036 -0.4099
  501MOL0     C66039   9.169   7.193   0.617  0.3225 -0.2991  0.3393
  501MOL0     C66040   9.129   7.070   0.536  0.4783  1.2666 -0.3230
  501MOL0     C66041   9.211   6.938   0.569 -0.8575 -0.7142  0.9908
  501MOL0     C66042   9.357   6.959   0.532  0.2713  0.4708  0.2936
  501MOL0     C66043   9.415   6.846   0.444 -0.4524 -0.0603 -0.2316
  501MOL0    Cl66044   9.413   6.685   0.516  0.1325 -0.2611  0.1623
  501MOL0     C66045   8.746   7.713   0.657  0.2873 -0.1646 -0.7537
  501MOL0     C66046   8.638   7.790   0.703  0.6476  0.4647 -0.3043
  501MOL0     O66047   8.508   7.923   0.913  0.1574 -0.3028  0.5144
  501MOL0     C66048   8.151   7.856   0.873 -0.8545 -0.2622 -0.9784
  501MOL0     C66049   8.023   7.897   0.907  0.4686  0.5338  1.9927
  501MOL0     N66050   7.627   8.198   1.364 -0.5227 -0.2434 -0.7893
  501MOL0     N66051   7.578   8.168   1.481  0.2715  0.2777 -0.2719
  501MOL0     C66052   6.428   8.368   1.689 -0.0746 -0.3892  0.7888
  501MOL0     C66053   6.321   8.452   1.653 -0.1097  0.4917  0.2429
  501MOL0     C66054   5.959   8.615   1.434 -0.4487  0.6438  0.2644
  501MOL0     C66055   5.970   8.712   1.331  0.4049  0.1166 -0.2163
  501MOL0     C66056   5.874   8.811   1.319  0.5628  0.0163  0.3045
  501MOL0     C66057   5.773   8.821   1.414  0.6749  0.5707  0.9969
  501MOL0     O66058   5.678   8.921   1.389 -0.2031 -0.9172  0.0932
  501MOL0     C66059   5.542   8.916   1.443 -0.2648 -0.1723  0.2653
  501MOL0     C66060   5.480   9.048   1.431 -0.0799  0.7041  0.5480
  501MOL0     C66061   5.341   9.055   1.498  0.5506 -0.0755  0.9410
  501MOL0     C66062   5.274   9.185   1.439 -0.2343 -0.5920  0.1562
  501MOL0     C66063   5.139   9.192   1.487  0.5526  0.1004 -0.1814
  501MOL0     C66064   5.020   9.188   1.517  0.9529  0.1129  0.2116
  501MOL0     C66065   5.762   8.728   1.517  1.0268 -0.3810 -0.7194
  501MOL0     C66066   5.856   8.626   1.525 -0.5030  0.4780 -0.6221
  501MOL0     H66067   6.136   8.239   1.478 -0.3076 -0.5165 -0.6410
  501MOL0     H66068   6.338   8.085   1.546 -1.0220  0.1231 -1.1347
  501MOL0     H66069   6.538   8.206   1.878 -0.6682  0.6703  0.6371
  501MOL0     H66070   6.668   8.264   1.758 -0.2708 -0.7160 -1.8247
  501MOL0     H66071   6.639   7.973   1.847  1.6776 -0.7237 -0.4495
  501MOL0     H66072   6.747   8.077   1.931 -0.4309 -0.2127 -0.3531
  501MOL0     H66073   6.757   8.024   1.625  3.1918 -2.3633 -1.6555
  501MOL0     H66074   6.848   7.935   1.759  1.9992  1.4873 -2.0801
  501MOL0     H66075   6.882   8.222   1.693 -0.5291  0.5208  0.0158
  501MOL0     H66076   6.948   8.130   1.830  1.0337 -2.5319 -0.9386
  501MOL0     H66077   7.005   8.083   1.527  1.2855 -0.6463 -0.5863
  501MOL0     H66078   7.062   7.967   1.653 -0.4338  0.1148 -1.5560
  501MOL0     H66079   7.185   8.169   1.751 -0.0710 -1.8942 -0.2535
  501MOL0     H66080   7.100   8.261   1.641 -0.8693 -0.1950  0.6872
  501MOL0     H66081   7.265   8.040   1.520 -0.3659  1.6266 -2.8144
  501MOL0     H66082   7.210   8.192   1.459 -1.8209 -2.7913 -1.7531
  501MOL0     H66083   7.418   8.164   1.687 -0.1698 -0.2721  0.0899
  501MOL0     H66084   7.340   8.306   1.636  0.2063  1.5609 -1.8763
  501MOL0     H66085   7.361   8.386   1.362  0.9537  1.0242  2.5635
  501MOL0     H66086   7.621   8.471   1.183 -1.2901  0.5079  2.9727
  501MOL0     H66087   7.477   8.392   1.128 -0.2626 -0.3282  0.2609
  501MOL0     H66088   7.647   8.329   0.960 -0.7546  1.1152  0.5064
  501MOL0     H66089   7.619   8.186   1.056 -0.9864  0.4680  2.2876
  501MOL0     H66090   7.879   8.315   1.037  0.5988 -0.8455 -0.1154
  501MOL0     H66091   7.824   8.305   1.203 -3.8541 -1.8084  2.0646
  501MOL0     H66092   7.751   8.080   1.171 -1.3188  0.6133 -1.0770
  501MOL0     H66093   7.925   8.124   1.193 -0.0312  2.0250  0.2509
  501MOL0     H66094   8.119   8.178   1.061 -1.1670  0.9855 -1.3530
  501MOL0     H66095   8.340   8.093   1.016 -0.6842  1.6176 -1.0075
  501MOL0     H66096   8.416   7.529   0.717 -0.7784 -0.6440 -0.4718
  501MOL0     H66097   8.633   7.402   0.636  3.0371  0.6276 -0.8525
  501MOL0     H66098   8.944   7.609   0.762 -3.4162  2.3695 -2.5515
  501MOL0     H66099   9.026   7.626   0.606  0.7421 -0.2529  0.3135
  501MOL0     H66100   9.100   7.402   0.785  0.5397 -3.1138 -1.0153
  501MOL0     H66101   9.182   7.493   0.669  0.4864  1.5033  0.1939
  501MOL0     H66102   9.118   7.368   0.488 -3.7048  2.5763 -0.5463
  501MOL0     H66103   8.982   7.302   0.572 -0.1243 -1.4145 -0.0087
  501MOL0     H66104   9.278   7.208   0.611  0.2812 -0.5773 -2.4066
  501MOL0     H66105   9.148   7.178   0.723  1.5872 -1.3864  0.4654
  501MOL0     H66106   9.133   7.092   0.429  1.3131  1.2490 -0.2978
  501MOL0     H66107   9.030   7.033   0.564  1.0319 -0.3954 -0.4453
  501MOL0     H66108   9.177   6.845   0.521  2.8715 -2.2051  0.8731
  501MOL0     H66109   9.205   6.909   0.674 -0.6531 -4.3931  0.1269
  501MOL0     H66110   9.358   7.051   0.472 -1.4794 -0.0562 -0.6137
  501MOL0     H66111   9.419   6.982   0.619  2.2087  4.0534 -1.7903
  501MOL0     H66112   9.517   6.867   0.411 -0.7630  0.8850 -0.6220
  501MOL0     H66113   9.354   6.846   0.353 -2.1299  1.1154  0.8408
  501MOL0     H66114   8.831   7.779   0.644  1.5739 -1.4004  0.9770
  501MOL0     H66115   8.646   7.896   0.725  1.4919 -0.2491  3.3823
  501MOL0     H66116   8.145   7.767   0.812 -2.0670 -1.4206  0.7578
  501MOL0     H66117   7.936   7.840   0.875  1.1709  0.4439  0.0768
  501MOL0     H66118   6.506   8.409   1.752  0.6381  0.3877 -0.5507
  501MOL0     H66119   6.296   8.551   1.692  1.5396  2.0397 -2.3288
  501MOL0     H66120   6.049   8.722   1.258  0.1192 -1.8303 -0.8608
  501MOL0     H66121   5.875   8.884   1.239 -3.9167  1.2584  1.1174
  501MOL0     H66122   5.544   8.881   1.546  4.0207  0.4964  0.5798
  501MOL0     H66123   5.474   8.854   1.384 -0.5537  2.0471 -1.9072
  501MOL0     H66124   5.549   9.122   1.472 -1.2159  2.2781 -0.2985
  501MOL0     H66125   5.488   9.068   1.323  4.2470  1.6498  0.8527
  501MOL0     H66126   5.335   9.052   1.607  2.3619 -1.3453  1.0349
  501MOL0     H66127   5.286   8.972   1.454  2.5992 -0.7191 -0.5313
  501MOL0     H66128   5.320   9.271   1.488  0.5552 -2.1317  2.2195
  501MOL0     H66129   5.274   9.192   1.329 -3.6412 -2.2070 -0.0755
  501MOL0     H66130   4.916   9.199   1.544  0.7804 -3.1531  1.2460
  501MOL0     H66131   5.685   8.737   1.592  2.7797  0.3171  1.0851
  501MOL0     H66132   5.849   8.556   1.608  2.2634  1.9547  0.9921
  502MOL0     O66133   4.121   6.030   3.039  0.1437  0.2680 -0.2145
  502MOL0     C66134   4.213   6.112   3.052  1.4439 -0.7337  0.1177
  502MOL0     O66135   4.228   6.199   3.153 -0.1416  0.0241  0.2608
  502MOL0     C66136   4.138   6.252   3.243  0.3565  0.4735  0.4593
  502MOL0     C66137   4.003   6.284   3.217 -0.1996 -0.2555 -0.6999
  502MOL0     C66138   3.920   6.346   3.310  0.8523 -0.6984 -0.1816
  502MOL0     C66139   3.971   6.386   3.435  0.0776 -0.2361 -0.2286
  502MOL0     O66140   3.915   6.437   3.549 -0.3530  0.3342 -0.0975
  502MOL0     C66141   3.791   6.508   3.549  0.4449 -0.7489 -0.9100
  502MOL0     C66142   3.796   6.653   3.538  0.2325 -0.6209  0.4377
  502MOL0     C66143   3.682   6.713   3.443  0.2966 -0.6175  0.7210
  502MOL0     C66144   3.542   6.701   3.503  0.6073  0.4245 -0.5029
  502MOL0     C66145   3.433   6.752   3.404  0.6182  0.0469 -0.0113
  502MOL0     C66146   3.422   6.687   3.267 -0.4725 -0.5579  0.6364
  502MOL0     C66147   3.322   6.761   3.178 -0.7994 -0.2333 -0.1301
  502MOL0     C66148   3.307   6.677   3.055  0.8283 -0.4165 -0.4461
  502MOL0     N66149   3.232   6.737   2.948  0.3036  0.0917 -0.1348
  502MOL0     C66150   3.096   6.749   2.944  0.3418  0.4196 -0.9715
  502MOL0     C66151   3.078   6.812   2.839 -0.3799  0.3772  0.4999
  502MOL0     C66152   2.938   6.866   2.802 -0.3389 -0.2224 -0.1634
  502MOL0     C66153   2.833   6.761   2.815  0.0132 -0.5727  0.2308
  502MOL0     C66154   2.705   6.837   2.806  0.2981 -0.0742  0.6566
  502MOL0     C66155   2.595   6.737   2.843  0.6606 -0.4625 -0.2021
  502MOL0     O66156   2.594   6.630   2.745  0.7292 -0.9408 -0.2010
  502MOL0     C66157   2.472   6.563   2.723 -1.0612 -0.0331 -0.2924
  502MOL0     C66158   2.362   6.558   2.800  0.6099  0.1458 -0.1275
  502MOL0     C66159   2.246   6.488   2.763  1.5491 -0.8328 -0.0587
  502MOL0     C66160   2.238   6.406   2.648 -0.2092 -0.1563 -0.2670
  502MOL0     C66161   2.119   6.321   2.630 -0.5077 -0.2065 -0.1344
  502MOL0     O66162   2.013   6.343   2.702  0.0156  0.2390  0.7138
  502MOL0     C66163   1.905   6.275   2.659  0.6574  0.1376 -0.6684
  502MOL0     C66164   1.793   6.340   2.607  0.3630 -0.3260  0.0897
  502MOL0     C66165   1.678   6.272   2.562  0.0467 -0.2445  0.4572
  502MOL0     C66166   1.674   6.133   2.563  0.2785  0.0408  0.0999
  502MOL0     O66167   1.561   6.067   2.510 -0.4703  0.5200  0.6886
  502MOL0     C66168   1.503   5.980   2.611  0.6379 -1.0781  0.0496
  502MOL0     C66169   1.409   5.872   2.545  0.3841  0.5477  0.0770
  502MOL0     C66170   1.508   5.792   2.453  0.2176  0.1708  0.5774
  502MOL0     C66171   1.437   5.694   2.364  0.3207 -0.1515 -0.0465
  502MOL0     C66172   1.537   5.636   2.258  0.3614  0.0072 -0.1636
  502MOL0     C66173   1.678   5.579   2.313  0.3104  0.0535 -0.0455
  502MOL0     C66174   1.745   5.495   2.207  0.1562  0.5861  0.2851
  502MOL0     C66175   1.864   5.409   2.252 -0.3242 -0.0176  0.0316
  502MOL0    Cl66176   2.002   5.515   2.287  0.0225  0.1131 -0.3796
  502MOL0     C66177   1.784   6.067   2.636  0.7698  0.0353 -0.6750
  502MOL0     C66178   1.889   6.138   2.698 -0.3291  0.4216  0.8406
  502MOL0     O66179   2.141   6.241   2.545 -0.1750 -0.6959  0.2692
  502MOL0     C66180   2.350   6.404   2.564 -0.3348 -1.2107  1.0165
  502MOL0     C66181   2.469   6.478   2.607  0.4250  0.1543  0.7369
  502MOL0     N66182   3.192   6.826   2.761  0.0600  0.2639  0.7053
  502MOL0     N66183   3.291   6.781   2.836 -0.0244 -0.3616  0.5882
  502MOL0     C66184   4.107   6.367   3.459  0.9024  0.1652 -0.0522
  502MOL0     C66185   4.183   6.296   3.368  0.6485  0.4500  1.3179
  502MOL0     C66186   4.326   6.092   2.956  0.2168  0.1336  0.5395
  502MOL0     C66187   4.293   6.039   2.832 -0.4346 -0.3041 -0.4122
  502MOL0     C66188   4.409   6.015   2.745 -0.5767  0.4171  0.8184
  502MOL0     C66189   4.543   6.054   2.776  0.3542  0.7576  0.1178
  502MOL0     O66190   4.658   6.007   2.723  0.6641 -0.4057 -0.1681
  502MOL0     C66191   4.649   5.939   2.597 -0.6225 -0.2668  0.4265
  502MOL0     C66192   4.756   6.021   2.508 -0.3463 -0.2382 -0.2522
  502MOL0     C66193   4.847   5.950   2.423 -0.3208  0.0559  0.4135
  502MOL0     C66194   4.780   5.885   2.299  0.3144 -0.5555 -1.5664
  502MOL0     C66195   4.653   5.810   2.313 -0.3891 -0.3797  0.4228
  502MOL0     C66196   4.549   5.756   2.310  0.3813  1.1388  0.4651
  502MOL0     C66197   4.555   6.119   2.903 -0.6804 -0.2433  1.0532
  502MOL0     C66198   4.451   6.127   2.996  0.2816 -1.2631  0.6679
  502MOL0     H66199   3.961   6.264   3.119  0.7813  1.1311 -1.4427
  502MOL0     H66200   3.815   6.335   3.286  0.5950  0.4151  0.3551
  502MOL0     H66201   3.730   6.484   3.637 -0.4016  2.4953 -0.4813
  502MOL0     H66202   3.725   6.475   3.468 -1.6540  1.6845 -0.3129
  502MOL0     H66203   3.888   6.709   3.523 -0.6470  0.4413 -1.2946
  502MOL0     H66204   3.776   6.674   3.644  4.5318  0.3235  1.2506
  502MOL0     H66205   3.686   6.655   3.351 -0.8774  1.7587 -0.9342
  502MOL0     H66206   3.707   6.817   3.419  2.2449 -1.3886 -0.8672
  502MOL0     H66207   3.523   6.597   3.531  1.5179 -0.0258 -1.4975
  502MOL0     H66208   3.526   6.764   3.591 -2.2548  1.3770 -1.5669
  502MOL0     H66209   3.455   6.857   3.382  1.5743 -0.3087 -0.8974
  502MOL0     H66210   3.336   6.744   3.452 -0.1521 -1.7026 -1.7051
  502MOL0     H66211   3.380   6.586   3.267 -2.0478  0.0213 -1.5239
  502MOL0     H66212   3.519   6.687   3.216  1.5768  1.3079  4.1695
  502MOL0     H66213   3.227   6.778   3.229  0.3053 -2.5412  2.9792
  502MOL0     H66214   3.361   6.860   3.153 -0.7113 -0.5072 -1.1288
  502MOL0     H66215   3.258   6.585   3.089  0.2594  0.5606  1.4809
  502MOL0     H66216   3.406   6.654   3.013  0.5741 -2.9582  0.1553
  502MOL0     H66217   3.027   6.722   3.023  0.4377  3.4693  0.2911
  502MOL0     H66218   2.936   6.914   2.704  0.5928  0.4907  0.1524
  502MOL0     H66219   2.932   6.947   2.876 -1.2526 -0.9801  0.6278
  502MOL0     H66220   2.833   6.717   2.915 -0.3815  0.3172  0.6375
  502MOL0     H66221   2.851   6.683   2.742  1.4019  0.1925 -0.2838
  502MOL0     H66222   2.702   6.923   2.873 -0.5963  0.7054 -0.3433
  502MOL0     H66223   2.677   6.865   2.704 -2.2136 -0.5307  1.1441
  502MOL0     H66224   2.506   6.798   2.856  2.0839  1.4866  0.8131
  502MOL0     H66225   2.621   6.696   2.941  1.6335 -1.1852 -0.7376
  502MOL0     H66226   2.356   6.623   2.887  4.0618 -0.4224  0.6783
  502MOL0     H66227   2.159   6.488   2.829 -0.7660  0.2369 -2.9056
  502MOL0     H66228   1.803   6.448   2.598 -0.5252 -0.2946 -0.6373
  502MOL0     H66229   1.599   6.330   2.516  0.4659  1.2873  1.5530
  502MOL0     H66230   1.450   6.034   2.690  3.2649  0.8485  0.6458
  502MOL0     H66231   1.577   5.922   2.669  1.5537 -0.0636 -0.0748
  502MOL0     H66232   1.340   5.923   2.478 -0.3065  0.6859  0.8761
  502MOL0     H66233   1.355   5.806   2.614 -0.2570  2.3332  1.3662
  502MOL0     H66234   1.582   5.739   2.513  1.8004  2.0419  0.4031
  502MOL0     H66235   1.577   5.854   2.394  0.8400 -1.6270 -0.6567
  502MOL0     H66236   1.397   5.611   2.423 -0.5676  0.8823  0.8681
  502MOL0     H66237   1.357   5.754   2.319  2.4316  2.4627 -0.6128
  502MOL0     H66238   1.552   5.708   2.178 -4.0579 -0.3135 -1.5688
  502MOL0     H66239   1.487   5.555   2.205 -1.3623  0.9837 -0.0986
  502MOL0     H66240   1.663   5.515   2.401  3.6310 -2.9633 -1.4233
  502MOL0     H66241   1.736   5.670   2.330 -1.9606  1.6627 -0.5116
  502MOL0     H66242   1.673   5.430   2.157  1.7048 -0.2902 -0.8851
  502MOL0     H66243   1.781   5.554   2.122  0.1600  0.4015  0.1562
  502MOL0     H66244   1.880   5.331   2.176 -0.4518  1.0910 -1.1698
  502MOL0     H66245   1.857   5.353   2.345 -0.2556 -1.7362 -0.9458
  502MOL0     H66246   1.797   5.960   2.643  1.5497  0.2199  1.1583
  502MOL0     H66247   1.974   6.100   2.754  1.1683  3.0311  0.5522
  502MOL0     H66248   2.348   6.345   2.472 -3.5721  0.5023 -0.1699
  502MOL0     H66249   2.563   6.473   2.553  1.2928  3.6328  1.7006
  502MOL0     H66250   4.148   6.375   3.560 -1.6931  0.9295  1.0222
  502MOL0     H66251   4.282   6.266   3.400  1.9851  2.8951 -0.2051
  502MOL0     H66252   4.195   6.020   2.790 -1.0331  0.8249  0.4206
  502MOL0     H66253   4.389   5.957   2.655  2.5747 -2.4500  1.7315
  502MOL0     H66254   4.557   5.963   2.543  1.5607  1.7010 -2.7503
  502MOL0     H66255   4.685   5.836   2.603  4.1886  1.1145 -0.8371
  502MOL0     H66256   4.702   6.097   2.452  0.0076  1.3558  1.4532
  502MOL0     H66257   4.825   6.067   2.580 -1.4242 -0.9093  1.2718
  502MOL0     H66258   4.888   5.870   2.486  2.1359  0.4287 -0.5871
  502MOL0     H66259   4.928   6.013   2.387 -0.6879 -0.2029 -0.9124
  502MOL0     H66260   4.775   5.962   2.222 -0.0424 -0.9182 -1.9130
  502MOL0     H66261   4.847   5.815   2.249  1.1083 -1.9247  1.2043
  502MOL0     H66262   4.453   5.708   2.312  1.2576 -0.7610 -0.3258
  502MOL0     H66263   4.659   6.146   2.922  0.1372 -1.9663 -0.5821
  502MOL0     H66264   4.478   6.173   3.090  0.9534  2.1845 -1.0650
  503MOL0     O66265   0.711   9.032   5.131  0.1930  0.5889  0.1104
  503MOL0     C66266   0.673   9.141   5.164 -0.5025 -0.4956 -0.1287
  503MOL0     O66267   0.738   9.214   5.259  0.2522  0.3798  0.1576
  503MOL0     C66268   0.853   9.167   5.312  0.1012 -0.1243  0.1275
  503MOL0     C66269   0.869   9.136   5.446 -0.0485 -0.4665 -0.2425
  503MOL0     C66270   0.996   9.089   5.502  0.1512  0.2559  0.8553
  503MOL0     C66271   1.102   9.082   5.411 -0.6316 -0.1108  0.5023
  503MOL0     O66272   1.227   9.051   5.444  0.0617  0.5352  1.1135
  503MOL0     C66273   1.267   9.026   5.575 -0.3260  0.7159  0.5406
  503MOL0     C66274   1.404   8.957   5.578 -0.2489  0.0102  0.9520
  503MOL0     C66275   1.508   9.060   5.523 -0.1951 -0.3561 -0.5628
  503MOL0     C66276   1.557   9.032   5.378 -0.2597  0.6572 -0.0966
  503MOL0     C66277   1.662   9.129   5.327  0.3346 -0.5217  0.1732
  503MOL0     C66278   1.802   9.098   5.387 -0.2713 -0.0682 -0.3573
  503MOL0     C66279   1.912   9.191   5.321  0.8673 -0.7664 -0.1607
  503MOL0     C66280   2.035   9.130   5.383  0.2280  0.3782 -0.0737
  503MOL0     N66281   2.150   9.193   5.351 -0.5951 -0.0482 -0.2809
  503MOL0     C66282   2.245   9.233   5.442  0.6149  0.7846  0.2931
  503MOL0     C66283   2.343   9.271   5.360 -0.4575 -0.4528 -0.1316
  503MOL0     C66284   2.477   9.326   5.405  0.7917 -0.8797  0.3156
  503MOL0     C66285   2.597   9.226   5.414  0.5221  0.2427  0.1449
  503MOL0     C66286   2.613   9.149   5.280 -0.1395 -0.1720 -0.2706
  503MOL0     C66287   2.662   9.245   5.172 -0.4168 -0.7718 -0.0554
  503MOL0     O66288   2.789   9.317   5.195  0.3039  0.6897 -0.3848
  503MOL0     C66289   2.912   9.255   5.173  0.3741  0.0313  0.7619
  503MOL0     C66290   2.931   9.191   5.057 -0.3148  0.0614  0.7060
  503MOL0     C66291   3.054   9.126   5.028 -0.3220  1.0644 -0.2818
  503MOL0     C66292   3.159   9.127   5.131  0.4392 -0.7573  0.4034
  503MOL0     C66293   3.286   9.045   5.117 -0.4420 -0.2790 -0.1101
  503MOL0     O66294   3.300   8.975   4.996  0.6020  0.3374  0.1426
  503MOL0     C66295   3.421   8.933   4.953 -0.1171  0.2163  0.0878
  503MOL0     C66296   3.471   8.968   4.828  0.2106  0.4980  0.4531
  503MOL0     C66297   3.603   8.923   4.795  0.3593  0.0177  0.4208
  503MOL0     C66298   3.684   8.845   4.879  0.2305 -0.3613  0.1682
  503MOL0     O66299   3.807   8.796   4.841 -0.5498  1.3052 -0.2323
  503MOL0     C66300   3.875   8.854   4.729 -0.0777 -0.6138  0.1052
  503MOL0     C66301   4.026   8.832   4.746  0.0795  0.4909  0.4628
  503MOL0     C66302   4.131   8.938   4.692  0.1942 -0.6451  0.2469
  503MOL0     C66303   4.093   8.994   4.554  0.6152  0.6640 -0.0411
  503MOL0     C66304   4.193   9.095   4.492  0.4106  0.1742 -0.2549
  503MOL0     C66305   4.334   9.041   4.507  0.6594  0.3989 -0.2072
  503MOL0     C66306   4.431   9.126   4.428  0.3598 -0.2227  0.4727
  503MOL0     C66307   4.481   9.056   4.302  0.2466 -0.9753  0.5850
  503MOL0    Cl66308   4.335   9.011   4.208 -0.1866 -0.1808  0.2022
  503MOL0     C66309   3.629   8.804   4.999  0.4070 -0.4416  0.0758
  503MOL0     C66310   3.492   8.853   5.043  0.0057  0.2166  0.9310
  503MOL0     O66311   3.372   9.060   5.207 -0.3855 -0.4399 -0.1609
  503MOL0     C66312   3.128   9.194   5.253  0.8047  0.3702 -0.1935
  503MOL0     C66313   3.006   9.255   5.277  0.3611  0.7775 -0.5222
  503MOL0     N66314   2.315   9.261   5.225 -0.5365  0.6236  0.0551
  503MOL0     N66315   2.202   9.204   5.224  0.6792  0.2037 -0.2135
  503MOL0     C66316   1.092   9.123   5.278  0.5659 -0.6044 -0.6100
  503MOL0     C66317   0.965   9.165   5.230 -0.1587  0.8160  0.9839
  503MOL0     C66318   0.553   9.199   5.106 -0.0740  1.2223 -0.1007
  503MOL0     C66319   0.487   9.133   5.000 -0.8647 -0.2070 -0.4466
  503MOL0     C66320   0.376   9.190   4.940  0.4873 -0.7452 -0.0760
  503MOL0     C66321   0.331   9.316   4.969 -0.2503  0.0677  0.0678
  503MOL0     O66322   0.224   9.373   4.915 -0.2246  0.0778 -0.4374
  503MOL0     C66323   0.218   9.393   4.779 -0.5489  0.1524  0.7297
  503MOL0     C66324   0.134   9.509   4.721  0.0656 -0.2360 -0.5029
  503MOL0     C66325  -0.011   9.519   4.761 -0.1173  0.6955 -0.6862
  503MOL0     C66326  -0.082   9.659   4.724  0.6208  0.2511 -0.5561
  503MOL0     C66327  -0.085   9.678   4.580 -0.1293 -0.1215  0.2410
  503MOL0     C66328  -0.069   9.711   4.463  0.5370  0.2388 -0.4442
  503MOL0     C66329   0.405   9.381   5.071 -0.4210 -0.1573  0.2804
  503MOL0     C66330   0.507   9.322   5.143 -0.3804  0.0472 -0.2623
  503MOL0     H66331   0.786   9.146   5.516 -0.5547 -0.3759 -0.8523
  503MOL0     H66332   0.997   9.052   5.604  2.5650  4.2000  2.5371
  503MOL0     H66333   1.198   8.956   5.622  0.1454 -0.6162 -0.6779
  503MOL0     H66334   1.256   9.115   5.638  0.2557  1.7383 -0.7370
  503MOL0     H66335   1.420   8.867   5.518  2.5910  1.1758 -0.2139
  503MOL0     H66336   1.424   8.937   5.684  1.5991  2.6993  1.1987
  503MOL0     H66337   1.591   9.036   5.590 -0.3534  1.0519  0.1667
  503MOL0     H66338   1.481   9.166   5.532  1.7097  0.3254 -2.0888
  503MOL0     H66339   1.593   8.930   5.362  0.0711  0.7604 -0.0180
  503MOL0     H66340   1.466   9.034   5.316 -1.6227  0.1728  1.8037
  503MOL0     H66341   1.638   9.234   5.347  1.4564 -0.6112  2.3495
  503MOL0     H66342   1.666   9.102   5.221  1.3311 -5.4115  1.1820
  503MOL0     H66343   1.828   8.994   5.367 -2.0231 -0.5537 -0.2001
  503MOL0     H66344   1.805   9.127   5.493  1.2198  1.3154 -0.7340
  503MOL0     H66345   1.905   9.194   5.211  0.3997 -0.1977 -0.1225
  503MOL0     H66346   1.912   9.295   5.355 -0.6150 -1.0140  0.6709
  503MOL0     H66347   2.046   9.029   5.343 -0.6902  1.2591 -2.7342
  503MOL0     H66348   2.028   9.112   5.491  3.7181  2.8475  0.7509
  503MOL0     H66349   2.235   9.225   5.549 -2.3168 -0.2928  0.0166
  503MOL0     H66350   2.473   9.386   5.496  0.8036 -1.1985  0.5295
  503MOL0     H66351   2.502   9.389   5.319  0.7594 -1.4112 -0.0920
  503MOL0     H66352   2.565   9.160   5.496  0.0827  0.9685  0.5748
  503MOL0     H66353   2.689   9.278   5.443  0.8190 -0.0936 -0.1901
  503MOL0     H66354   2.684   9.067   5.296 -0.4573 -0.2417  0.9207
  503MOL0     H66355   2.529   9.089   5.244  1.3052 -1.7909 -1.1262
  503MOL0     H66356   2.584   9.316   5.144 -0.5900  0.8274  3.8341
  503MOL0     H66357   2.680   9.181   5.085  0.9948 -2.1360  1.1751
  503MOL0     H66358   2.858   9.192   4.977  1.6303  0.9148 -1.1210
  503MOL0     H66359   3.069   9.073   4.934  2.2282  3.5012 -1.4131
  503MOL0     H66360   3.418   9.016   4.747  4.1215  0.1616 -2.5853
  503MOL0     H66361   3.632   8.952   4.695  1.9853 -1.7448  0.3232
  503MOL0     H66362   3.855   8.960   4.741 -1.9000 -1.1471  2.8625
  503MOL0     H66363   3.834   8.817   4.635  1.7439 -2.9130  0.1105
  503MOL0     H66364   4.044   8.734   4.701 -0.0142  0.4007  0.6193
  503MOL0     H66365   4.057   8.814   4.849  0.4977 -1.5076  0.0321
  503MOL0     H66366   4.228   8.889   4.686  0.5475 -0.6201  3.5942
  503MOL0     H66367   4.150   9.026   4.754  2.4646 -0.3811 -0.7486
  503MOL0     H66368   4.075   8.917   4.478 -1.8343  0.7991  0.3198
  503MOL0     H66369   4.004   9.054   4.574  0.8524  0.4452  1.8432
  503MOL0     H66370   4.186   9.195   4.534  1.3737 -0.2262  0.9166
  503MOL0     H66371   4.189   9.112   4.384  0.0188  1.0729 -0.1030
  503MOL0     H66372   4.325   8.939   4.467 -1.0729  0.8380 -0.9984
  503MOL0     H66373   4.378   9.041   4.607  3.0727  0.8718 -1.1734
  503MOL0     H66374   4.371   9.216   4.411 -0.1783 -0.3160  1.7414
  503MOL0     H66375   4.512   9.169   4.487 -0.5720 -0.1792  1.7773
  503MOL0     H66376   4.545   8.975   4.339 -0.9537 -1.6101  1.3018
  503MOL0     H66377   4.533   9.124   4.234 -2.4366 -1.6689 -2.3711
  503MOL0     H66378   3.696   8.751   5.066  1.7743  0.9733 -0.1204
  503MOL0     H66379   3.451   8.830   5.141 -0.0059 -0.4739  0.7674
  503MOL0     H66380   3.209   9.199   5.325  1.7776  0.4503 -1.2582
  503MOL0     H66381   3.003   9.293   5.379  1.7009  0.9020 -0.5111
  503MOL0     H66382   1.185   9.100   5.226  1.8444 -2.1712  2.1447
  503MOL0     H66383   0.954   9.195   5.126 -2.6665  1.3428  1.3287
  503MOL0     H66384   0.525   9.033   4.981 -1.7721 -0.7095  0.2678
  503MOL0     H66385   0.340   9.116   4.870  0.8772  0.2462 -1.3798
  503MOL0     H66386   0.189   9.299   4.731  2.8973 -0.8723  0.4076
  503MOL0     H66387   0.321   9.403   4.743  0.5947 -0.3523  3.6319
  503MOL0     H66388   0.180   9.601   4.756  0.3406  0.2168 -1.9924
  503MOL0     H66389   0.146   9.507   4.612 -1.2873  0.5715 -0.6953
  503MOL0     H66390  -0.021   9.502   4.869 -0.2915  0.7417 -0.6941
  503MOL0     H66391  -0.059   9.433   4.715 -1.4258  0.8471  0.3111
  503MOL0     H66392  -0.179   9.676   4.773  0.6380  3.9492 -1.5735
  503MOL0     H66393  -0.031   9.743   4.772 -1.7704  1.5143 -0.0768
  503MOL0     H66394  -0.073   9.761   4.369  2.3216 -0.0159 -0.6966
  503MOL0     H66395   0.361   9.475   5.104  0.0927 -0.5032  2.1034
  503MOL0     H66396   0.552   9.366   5.231 -0.3098  1.9690 -1.2007
  504MOL0     O66397   4.159   7.934   0.404  0.5623 -0.6736  0.9095
  504MOL0     C66398   4.203   7.821   0.394 -1.1574 -0.4926  0.1408
  504MOL0     O66399   4.135   7.709   0.392  0.4235 -0.0418 -0.5330
  504MOL0     C66400   3.992   7.720   0.427 -0.1942  0.5221  1.2519
  504MOL0     C66401   3.941   7.673   0.554 -0.0644 -0.0116  1.0466
  504MOL0     C66402   3.804   7.695   0.579  0.1140 -0.7223  0.0294
  504MOL0     C66403   3.719   7.745   0.478 -0.3291  0.2296  0.1450
  504MOL0     O66404   3.586   7.770   0.493  0.4678  0.3349 -0.2743
  504MOL0     C66405   3.520   7.688   0.591 -0.1292  0.0636 -0.1646
  504MOL0     C66406   3.372   7.692   0.569 -0.2745 -1.3226  0.0149
  504MOL0     C66407   3.306   7.812   0.641  0.4321  1.0987  0.0352
  504MOL0     C66408   3.160   7.776   0.689  0.4323 -0.0900 -0.1020
  504MOL0     C66409   3.083   7.896   0.739 -0.3072  0.9877  0.2903
  504MOL0     C66410   3.134   7.955   0.870  0.3195 -0.4924 -0.5425
  504MOL0     C66411   3.114   7.857   1.000  1.0111 -0.2851  0.2179
  504MOL0     C66412   2.967   7.831   1.050 -0.1672  0.7745  0.7774
  504MOL0     N66413   2.902   7.720   0.984  0.4882 -0.5106 -0.1686
  504MOL0     C66414   2.952   7.588   0.952  0.1603 -0.9053 -0.1850
  504MOL0     C66415   2.843   7.521   0.905 -0.4319  0.2725 -0.4004
  504MOL0     C66416   2.829   7.382   0.856 -0.4911  0.4053  0.1964
  504MOL0     C66417   2.971   7.301   0.838 -0.2012  0.0099  0.1455
  504MOL0     C66418   3.038   7.255   0.967  0.6924 -0.9040  0.3034
  504MOL0     C66419   3.190   7.238   0.962  0.5541 -0.4020 -0.0217
  504MOL0     O66420   3.256   7.363   0.955  0.3053  0.2036 -0.2858
  504MOL0     C66421   3.396   7.347   0.945  0.6278  0.3776 -0.6173
  504MOL0     C66422   3.463   7.225   0.929  0.2826 -1.2306 -0.2163
  504MOL0     C66423   3.607   7.223   0.916 -0.4311 -0.2953 -0.3042
  504MOL0     C66424   3.684   7.340   0.917 -0.0945 -0.0287  0.0851
  504MOL0     C66425   3.830   7.340   0.877 -0.2406 -0.3956 -0.4823
  504MOL0     O66426   3.888   7.464   0.895  0.2438  0.1904 -0.0301
  504MOL0     C66427   4.023   7.491   0.855  0.1745 -0.1682  0.5036
  504MOL0     C66428   4.099   7.595   0.920  0.5684  0.1567  1.0580
  504MOL0     C66429   4.234   7.621   0.892  1.0206 -0.0206  0.3076
  504MOL0     C66430   4.292   7.548   0.789  0.6033  0.2634 -0.0778
  504MOL0     O66431   4.419   7.581   0.747 -0.3569 -0.5191  0.2002
  504MOL0     C66432   4.513   7.474   0.728  0.0788 -0.1100  0.1002
  504MOL0     C66433   4.637   7.526   0.662  1.2921  0.1656  0.1697
  504MOL0     C66434   4.752   7.433   0.698 -0.0387  0.1488  1.0846
  504MOL0     C66435   4.881   7.491   0.639 -0.5477 -0.2305  0.1485
  504MOL0     C66436   5.001   7.436   0.714  0.4132  0.4254  0.0706
  504MOL0     C66437   5.127   7.489   0.643 -0.2028  0.3573 -0.5281
  504MOL0     C66438   5.262   7.444   0.716 -0.5187  0.3715 -0.4016
  504MOL0     C66439   5.375   7.518   0.653 -0.3256 -0.2128  0.2500
  504MOL0    Cl66440   5.372   7.699   0.694 -0.1996  0.0643 -0.0154
  504MOL0     C66441   4.221   7.447   0.721  0.5677 -0.0356 -1.0266
  504MOL0     C66442   4.092   7.418   0.754  0.1040 -0.0225 -0.9001
  504MOL0     O66443   3.886   7.231   0.868  0.6874 -0.0899 -0.3720
  504MOL0     C66444   3.611   7.466   0.934  0.0214  1.0935 -0.4042
  504MOL0     C66445   3.475   7.467   0.954 -0.5977  0.5180  0.2706
  504MOL0     N66446   2.734   7.595   0.929 -0.3834 -0.3514 -0.5226
  504MOL0     N66447   2.766   7.713   0.969 -0.3701  0.1948 -0.2399
  504MOL0     C66448   3.774   7.793   0.358 -0.5360  0.5700  0.1825
  504MOL0     C66449   3.912   7.772   0.330 -0.3875 -0.3959 -0.7142
  504MOL0     C66450   4.356   7.806   0.362 -0.0273  0.8182 -0.2352
  504MOL0     C66451   4.428   7.903   0.299 -0.7382  0.0704  0.3528
  504MOL0     C66452   4.561   7.902   0.263  0.6504 -0.7508 -0.2119
  504MOL0     C66453   4.638   7.790   0.292 -0.2062 -0.4009  0.1692
  504MOL0     O66454   4.766   7.778   0.256  0.1782 -0.4314  0.8436
  504MOL0     C66455   4.847   7.893   0.273 -0.2295  0.1076 -0.4425
  504MOL0     C66456   4.991   7.852   0.256  0.0888  0.7167  0.2360
  504MOL0     C66457   5.040   7.751   0.370 -0.1089  0.8641 -0.0145
  504MOL0     C66458   5.185   7.726   0.366 -0.4673 -0.6103 -0.0020
  504MOL0     C66459   5.273   7.845   0.396  0.2720 -0.0740  0.1130
  504MOL0     C66460   5.367   7.923   0.409  0.4733 -0.4100  0.3100
  504MOL0     C66461   4.570   7.681   0.341 -0.9080  0.2051  1.4877
  504MOL0     C66462   4.434   7.688   0.374  0.3391  0.3917  1.0629
  504MOL0     H66463   4.011   7.633   0.626  1.3417  0.9634  0.2731
  504MOL0     H66464   3.754   7.690   0.675 -2.3117 -2.3335 -1.2226
  504MOL0     H66465   3.550   7.720   0.691  2.4881 -1.3816 -0.3857
  504MOL0     H66466   3.553   7.584   0.598 -3.4663 -1.7190 -5.1981
  504MOL0     H66467   3.338   7.603   0.624  0.7582 -0.6748  1.8032
  504MOL0     H66468   3.348   7.681   0.463 -1.7336  2.8515 -0.2659
  504MOL0     H66469   3.306   7.895   0.569  3.1495  0.0885 -1.2931
  504MOL0     H66470   3.364   7.851   0.725  3.2707  0.3152 -1.4209
  504MOL0     H66471   3.101   7.733   0.607  0.9127  0.2758 -0.6450
  504MOL0     H66472   3.171   7.697   0.764 -1.7296  0.1577  0.5350
  504MOL0     H66473   2.981   7.864   0.762  1.2990 -4.2353  1.5304
  504MOL0     H66474   3.076   7.978   0.667  0.9539  1.3853  0.5950
  504MOL0     H66475   3.083   8.052   0.881  2.3029  0.3473  2.2618
  504MOL0     H66476   3.242   7.970   0.865  0.6796 -1.5091  2.5367
  504MOL0     H66477   3.168   7.764   0.982 -0.9798 -1.0154 -2.5913
  504MOL0     H66478   3.160   7.911   1.084  1.4257 -0.3923  0.0665
  504MOL0     H66479   2.913   7.926   1.039 -2.6812 -0.5419  0.8720
  504MOL0     H66480   2.969   7.817   1.159  1.5486  0.6808  0.7524
  504MOL0     H66481   3.057   7.560   0.953  0.9179  1.6414  2.0912
  504MOL0     H66482   2.771   7.397   0.764  0.2948  0.2323 -0.3400
  504MOL0     H66483   2.768   7.322   0.924 -2.7241  0.4433 -1.6435
  504MOL0     H66484   3.038   7.361   0.776 -0.3060 -1.5903 -1.6056
  504MOL0     H66485   2.947   7.207   0.787 -1.9086 -0.0776  1.0381
  504MOL0     H66486   3.022   7.321   1.053  0.3659 -2.0142  1.1252
  504MOL0     H66487   2.993   7.161   1.001  2.4012 -2.1160 -0.6089
  504MOL0     H66488   3.201   7.190   0.864  1.4715  0.2437 -0.2503
  504MOL0     H66489   3.226   7.174   1.044 -1.4385 -0.9177  0.5034
  504MOL0     H66490   3.406   7.133   0.933 -1.3221 -0.3501 -1.3037
  504MOL0     H66491   3.663   7.132   0.898  2.3717  1.1848  0.3134
  504MOL0     H66492   4.040   7.660   0.983 -4.0041  1.7739 -4.1627
  504MOL0     H66493   4.289   7.701   0.940 -0.4395 -0.0732  2.1389
  504MOL0     H66494   4.471   7.406   0.654 -2.0087  0.3970  0.7264
  504MOL0     H66495   4.526   7.426   0.825  0.9366 -0.6396 -0.2625
  504MOL0     H66496   4.651   7.626   0.703 -0.1889  0.2422  0.5498
  504MOL0     H66497   4.624   7.534   0.553 -0.9615  0.2224  0.3930
  504MOL0     H66498   4.723   7.333   0.662 -2.0553  1.8704 -2.6176
  504MOL0     H66499   4.775   7.426   0.805  1.7002  0.0840  0.7355
  504MOL0     H66500   4.879   7.471   0.532  1.7519 -0.2010  0.0402
  504MOL0     H66501   4.878   7.600   0.648 -0.7389 -0.3003  1.0693
  504MOL0     H66502   5.008   7.327   0.707  0.8907  0.4550  0.0474
  504MOL0     H66503   4.994   7.451   0.822  0.7943  2.0197 -0.0984
  504MOL0     H66504   5.131   7.598   0.645 -0.7737  0.3932 -0.9728
  504MOL0     H66505   5.126   7.462   0.537 -0.0368  1.4920 -0.8295
  504MOL0     H66506   5.257   7.469   0.822 -0.9902 -0.2431 -0.2778
  504MOL0     H66507   5.280   7.338   0.697  3.3765  0.8521 -0.3254
  504MOL0     H66508   5.381   7.520   0.544  1.3469  1.8074  0.3025
  504MOL0     H66509   5.471   7.484   0.693  0.9949  3.3603  0.4796
  504MOL0     H66510   4.262   7.395   0.635  0.4096  0.7313 -1.5741
  504MOL0     H66511   4.033   7.350   0.692  1.9014 -1.1499 -1.4488
  504MOL0     H66512   3.667   7.555   0.906  0.5994  0.8099 -0.1735
  504MOL0     H66513   3.425   7.560   0.977  1.1400  1.4543  0.4716
  504MOL0     H66514   3.713   7.840   0.281 -1.6846 -1.6537 -0.3378
  504MOL0     H66515   3.947   7.811   0.235  1.0785  0.0020 -0.0341
  504MOL0     H66516   4.372   7.989   0.265 -1.7131 -0.6777  0.0138
  504MOL0     H66517   4.592   7.994   0.214 -2.9050  0.8698  0.2554
  504MOL0     H66518   4.845   7.929   0.376 -0.1904 -0.5660 -0.1970
  504MOL0     H66519   4.821   7.963   0.193  0.6138 -0.1945 -0.9952
  504MOL0     H66520   5.009   7.799   0.162  0.8251  2.2721 -0.5274
  504MOL0     H66521   5.053   7.942   0.253  1.8154 -0.4410 -1.1596
  504MOL0     H66522   4.990   7.655   0.354 -2.1694  1.7961  0.4672
  504MOL0     H66523   5.030   7.799   0.468 -1.6364  3.2048 -1.2252
  504MOL0     H66524   5.203   7.652   0.444  0.6676  1.8169  2.1741
  504MOL0     H66525   5.199   7.698   0.261 -1.6134 -2.5719  0.3115
  504MOL0     H66526   5.438   8.003   0.413 -0.5832  0.6629 -1.0478
  504MOL0     H66527   4.618   7.589   0.373 -0.1245 -0.5823 -1.6032
  504MOL0     H66528   4.374   7.612   0.423 -0.1885 -1.5424 -2.2737
  505MOL0     O66529   3.187   6.514   7.216 -0.1728  0.3899 -1.1222
  505MOL0     C66530   3.242   6.405   7.216 -0.6660 -0.0431  0.4910
  505MOL0     O66531   3.309   6.337   7.311  0.0077  0.0150  0.8584
  505MOL0     C66532   3.359   6.404   7.425 -1.0041  0.3096 -0.5976
  505MOL0     C66533   3.411   6.537   7.436  0.5048 -1.0554  0.3532
  505MOL0     C66534   3.468   6.577   7.559  0.0183  0.0740  0.0180
  505MOL0     C66535   3.474   6.498   7.665 -0.0219  0.9388 -0.0358
  505MOL0     O66536   3.534   6.545   7.776  0.2979 -0.2799 -0.2313
  505MOL0     C66537   3.672   6.530   7.786 -0.7327  0.0609 -0.6050
  505MOL0     C66538   3.741   6.640   7.878  0.6249 -0.2489 -0.0560
  505MOL0     C66539   3.787   6.752   7.783  0.4536 -0.0348 -0.5083
  505MOL0     C66540   3.866   6.870   7.867 -0.2074  0.0009  0.3058
  505MOL0     C66541   3.871   7.002   7.779  0.1898  0.2997 -0.4021
  505MOL0     C66542   3.971   7.104   7.829 -0.3436  0.6491  0.8806
  505MOL0     C66543   3.933   7.245   7.773  0.5197 -0.4224 -0.5082
  505MOL0     C66544   4.047   7.349   7.798  0.3600 -0.3684 -0.8559
  505MOL0     N66545   3.990   7.477   7.759  0.2323  0.7336  0.0490
  505MOL0     C66546   3.995   7.528   7.627  1.0711 -0.0541 -0.1321
  505MOL0     C66547   3.936   7.650   7.641  0.0060  0.6533 -0.1012
  505MOL0     C66548   3.882   7.740   7.534  0.7538  0.0417 -0.3425
  505MOL0     C66549   3.991   7.794   7.440 -0.4461  0.5651 -0.1291
  505MOL0     C66550   3.935   7.876   7.328 -0.5092  0.1742  0.6792
  505MOL0     C66551   4.020   7.880   7.207  0.0665 -0.3441  0.2412
  505MOL0     O66552   3.949   7.949   7.107 -0.6533 -0.3306  0.4466
  505MOL0     C66553   4.002   7.955   6.979  0.1666  0.3709 -0.8038
  505MOL0     C66554   3.917   8.017   6.881  0.5924 -0.5439  0.0522
  505MOL0     C66555   3.955   8.038   6.752  0.4902  0.4821  0.3215
  505MOL0     C66556   4.076   8.006   6.700 -0.1378  0.1810  0.7397
  505MOL0     C66557   4.113   8.039   6.562 -0.5001  0.9965 -0.6860
  505MOL0     O66558   4.043   8.138   6.500  0.0475  0.7053  0.0316
  505MOL0     C66559   4.078   8.194   6.378  0.2386 -0.0820 -0.3259
  505MOL0     C66560   3.972   8.213   6.292 -0.0356  0.3958  1.2407
  505MOL0     C66561   3.996   8.270   6.165 -0.8279 -0.4739  0.0833
  505MOL0     C66562   4.133   8.295   6.119 -0.4234 -0.6222 -0.0988
  505MOL0     O66563   4.172   8.334   5.990 -0.3415 -0.0694 -0.2972
  505MOL0     C66564   4.087   8.314   5.873 -0.8798  0.1854  0.1208
  505MOL0     C66565   4.147   8.349   5.738 -0.2637 -0.1889 -0.1597
  505MOL0     C66566   4.045   8.424   5.642  0.2642  0.3130  0.4461
  505MOL0     C66567   3.931   8.324   5.591 -0.1582  0.5850 -1.2263
  505MOL0     C66568   3.846   8.400   5.484 -0.2108 -0.2975  0.7387
  505MOL0     C66569   3.747   8.506   5.551  0.1605 -0.4273 -0.7010
  505MOL0     C66570   3.643   8.555   5.453  0.1349 -0.2602 -1.0506
  505MOL0     C66571   3.590   8.689   5.515 -0.6319 -0.6178  0.1787
  505MOL0    Cl66572   3.459   8.749   5.408 -0.3941  0.6446  0.3362
  505MOL0     C66573   4.230   8.277   6.211  0.0932 -0.2778  0.2989
  505MOL0     C66574   4.208   8.232   6.340 -0.3155  0.0129  0.3870
  505MOL0     O66575   4.215   7.983   6.521 -0.5729 -0.0691  0.9384
  505MOL0     C66576   4.157   7.940   6.795  0.2022 -0.3210 -0.0423
  505MOL0     C66577   4.115   7.912   6.923 -0.4733  0.5252 -0.2345
  505MOL0     N66578   3.881   7.650   7.775  0.1321  0.0009  0.0647
  505MOL0     N66579   3.906   7.546   7.839 -0.8194 -0.3550  0.6930
  505MOL0     C66580   3.453   6.360   7.655 -0.0665  0.6774  0.1437
  505MOL0     C66581   3.397   6.315   7.531  0.5543  0.1434 -0.8245
  505MOL0     C66582   3.237   6.343   7.071  0.5031  0.1183 -0.2423
  505MOL0     C66583   3.154   6.396   6.968 -0.1715  0.1789  1.6060
  505MOL0     C66584   3.152   6.329   6.842 -0.4376 -0.7198 -0.5366
  505MOL0     C66585   3.234   6.218   6.818 -0.1440  0.8865  1.4433
  505MOL0     O66586   3.231   6.158   6.689  0.3799  0.2981 -0.3954
  505MOL0     C66587   3.157   6.217   6.584  0.0536  1.1694  0.1721
  505MOL0     C66588   3.183   6.146   6.443 -1.1072 -0.0287 -0.5223
  505MOL0     C66589   3.165   5.992   6.458  1.0531 -0.3077  0.8912
  505MOL0     C66590   3.175   5.925   6.323 -1.3679 -0.0655  1.0087
  505MOL0     C66591   3.300   5.957   6.249  0.1533  0.8561  0.5168
  505MOL0     C66592   3.393   5.982   6.179 -0.4244  0.4521  0.5746
  505MOL0     C66593   3.305   6.170   6.921 -0.6385 -0.1968 -0.3667
  505MOL0     C66594   3.318   6.233   7.045  1.0336 -0.1457  0.7855
  505MOL0     H66595   3.402   6.608   7.356  1.8250 -3.2880 -1.9173
  505MOL0     H66596   3.486   6.680   7.586  2.8266 -0.3122 -0.0940
  505MOL0     H66597   3.722   6.513   7.690  0.3213  0.6749 -0.1873
  505MOL0     H66598   3.683   6.437   7.842  0.8404  1.2084  1.1483
  505MOL0     H66599   3.820   6.592   7.936 -0.5960 -1.7377  0.4742
  505MOL0     H66600   3.681   6.681   7.960  0.1297  0.7186 -0.8833
  505MOL0     H66601   3.694   6.791   7.742  0.5326  0.0248 -0.6296
  505MOL0     H66602   3.847   6.713   7.701 -2.2382 -2.7518 -1.3496
  505MOL0     H66603   3.817   6.878   7.964 -0.2606  1.7861  0.1634
  505MOL0     H66604   3.969   6.835   7.881  0.1395  0.4393 -0.9943
  505MOL0     H66605   3.774   7.052   7.786 -0.7776 -1.7266  2.4613
  505MOL0     H66606   3.902   6.974   7.678  1.6896 -1.6658  0.5319
  505MOL0     H66607   4.064   7.058   7.795 -0.8540  1.4475 -1.8242
  505MOL0     H66608   3.966   7.103   7.939  1.8654 -0.1468  1.0193
  505MOL0     H66609   3.911   7.239   7.666 -2.0648 -3.4386  0.0558
  505MOL0     H66610   3.837   7.273   7.817  0.1002 -3.0624  0.4050
  505MOL0     H66611   4.135   7.321   7.739 -1.5660 -2.5324 -2.9782
  505MOL0     H66612   4.057   7.345   7.906  1.6764 -2.0674 -1.0007
  505MOL0     H66613   4.028   7.485   7.533  4.5852 -1.0212  1.3955
  505MOL0     H66614   3.824   7.822   7.578  1.7774  1.9092 -2.2691
  505MOL0     H66615   3.807   7.693   7.471 -2.4178  1.0426  2.3967
  505MOL0     H66616   4.043   7.705   7.403 -0.2129 -0.9745  3.4832
  505MOL0     H66617   4.054   7.866   7.493  0.0669  0.5503 -0.7039
  505MOL0     H66618   3.840   7.833   7.294 -1.5008  1.3873  1.7978
  505MOL0     H66619   3.918   7.978   7.364 -1.7244  0.1091  0.3453
  505MOL0     H66620   4.052   7.781   7.174  1.4853  1.4028 -4.4417
  505MOL0     H66621   4.102   7.948   7.232 -0.2125  0.5170 -1.0902
  505MOL0     H66622   3.816   8.052   6.900 -0.2335 -0.9962 -2.9962
  505MOL0     H66623   3.882   8.090   6.690  0.5309 -0.9114 -0.9661
  505MOL0     H66624   3.869   8.191   6.316  0.0825 -1.5609  0.1462
  505MOL0     H66625   3.913   8.291   6.098 -0.2909 -1.0905 -0.8003
  505MOL0     H66626   4.003   8.383   5.882  0.0919  1.5815 -0.9416
  505MOL0     H66627   4.049   8.212   5.884 -0.7375  0.3002  2.0261
  505MOL0     H66628   4.185   8.252   5.704  3.0093  0.5176  1.0821
  505MOL0     H66629   4.231   8.417   5.757 -0.6441  0.3505 -0.3860
  505MOL0     H66630   4.101   8.474   5.563  1.6866 -0.2714  1.0639
  505MOL0     H66631   3.992   8.500   5.700 -2.9243 -1.7490  0.4708
  505MOL0     H66632   3.970   8.236   5.538 -1.4804 -0.6201 -0.2438
  505MOL0     H66633   3.863   8.295   5.671 -0.7580  1.5633 -1.3553
  505MOL0     H66634   3.785   8.317   5.447  1.3922 -1.6374  0.9772
  505MOL0     H66635   3.909   8.434   5.401  0.2870 -0.1117  1.1862
  505MOL0     H66636   3.807   8.588   5.592  0.0930  0.2336 -1.8789
  505MOL0     H66637   3.690   8.457   5.631 -2.9069  1.9300 -1.2373
  505MOL0     H66638   3.676   8.569   5.350 -1.1409  3.0639 -1.1153
  505MOL0     H66639   3.556   8.488   5.446 -1.4096  1.7605 -2.2242
  505MOL0     H66640   3.672   8.761   5.523 -0.4212 -0.7955 -0.2929
  505MOL0     H66641   3.562   8.673   5.619  2.5785 -0.9283  1.1041
  505MOL0     H66642   4.336   8.294   6.193  0.1890 -0.6373  0.5097
  505MOL0     H66643   4.294   8.226   6.406  0.7100  0.3692 -0.8871
  505MOL0     H66644   4.251   7.895   6.766  0.6346  0.2629  0.4193
  505MOL0     H66645   4.176   7.868   7.001  0.3313 -0.8306 -1.5703
  505MOL0     H66646   3.454   6.296   7.742 -1.4661 -0.4634 -0.6556
  505MOL0     H66647   3.376   6.211   7.509 -0.9308  0.7538 -2.5031
  505MOL0     H66648   3.113   6.496   6.963 -0.5916 -0.0282 -2.6457
  505MOL0     H66649   3.082   6.366   6.768 -2.6589 -2.4383  0.6004
  505MOL0     H66650   3.182   6.321   6.565 -2.3868  2.2774  2.3629
  505MOL0     H66651   3.049   6.218   6.603  0.2511  2.9170  1.4625
  505MOL0     H66652   3.125   6.181   6.357 -4.2843  0.5556  1.6887
  505MOL0     H66653   3.292   6.152   6.434 -0.5421 -1.4081  3.4292
  505MOL0     H66654   3.066   5.971   6.500 -0.6974  2.3123 -1.5460
  505MOL0     H66655   3.245   5.954   6.522 -0.5103 -2.4235  1.7057
  505MOL0     H66656   3.160   5.818   6.337 -1.9761 -0.2479 -0.8016
  505MOL0     H66657   3.095   5.956   6.255  0.5127 -2.8311 -2.8630
  505MOL0     H66658   3.460   6.021   6.105 -2.0284  1.7815 -0.2367
  505MOL0     H66659   3.353   6.074   6.913 -0.8680 -0.2164 -1.7030
  505MOL0     H66660   3.376   6.186   7.124 -1.9564  1.2621  4.0963
  506MOL0     O66661   6.394   3.363   7.960 -0.5628 -0.3481  0.1742
  506MOL0     C66662   6.338   3.408   8.060  0.5353  0.7090 -0.1062
  506MOL0     O66663   6.390   3.463   8.167  0.0759 -0.0188 -0.3221
  506MOL0     C66664   6.523   3.445   8.186  1.3035 -0.3369  0.1022
  506MOL0     C66665   6.590   3.567   8.185 -0.0589 -0.0625  0.3089
  506MOL0     C66666   6.727   3.556   8.207  0.0075 -0.2257 -0.7070
  506MOL0     C66667   6.797   3.432   8.231 -0.8582  0.3007  0.9313
  506MOL0     O66668   6.941   3.417   8.245  0.6690  0.4151 -0.3297
  506MOL0     C66669   7.015   3.534   8.247 -0.2666 -0.0753 -0.7159
  506MOL0     C66670   7.149   3.505   8.324 -0.5868 -0.3860 -0.2167
  506MOL0     C66671   7.138   3.476   8.482  0.1213 -0.6468  0.9415
  506MOL0     C66672   7.269   3.438   8.551  1.2129  0.2803  0.1877
  506MOL0     C66673   7.246   3.385   8.694  0.2409  0.5444  0.4178
  506MOL0     C66674   7.179   3.471   8.811 -0.5374  0.9876  0.8588
  506MOL0     C66675   7.274   3.595   8.825  0.1328 -0.8596 -0.3793
  506MOL0     C66676   7.241   3.691   8.938 -0.4380 -0.3170  0.2829
  506MOL0     N66677   7.348   3.797   8.933 -0.1474 -0.5220 -0.4012
  506MOL0     C66678   7.467   3.783   8.996  0.4188  0.1282 -0.5614
  506MOL0     C66679   7.548   3.891   8.965  1.0029  0.7472  0.9020
  506MOL0     C66680   7.681   3.923   9.036 -0.5741  0.0847 -0.1973
  506MOL0     C66681   7.657   3.951   9.180 -0.3444 -0.1436  0.0901
  506MOL0     C66682   7.577   4.079   9.211  0.0931 -0.2240  0.4104
  506MOL0     C66683   7.419   4.061   9.195 -0.2837 -0.5261 -0.0423
  506MOL0     O66684   7.381   3.942   9.268  0.6351  0.8933 -0.5905
  506MOL0     C66685   7.260   3.879   9.245 -0.0571 -0.4945  0.9085
  506MOL0     C66686   7.155   3.935   9.160 -0.3491  0.1610 -0.1849
  506MOL0     C66687   7.033   3.884   9.169 -0.1159  0.9985 -1.4818
  506MOL0     C66688   6.995   3.773   9.253 -1.0925  0.6356  0.7015
  506MOL0     C66689   6.858   3.734   9.270  0.8222 -0.6556 -0.4217
  506MOL0     O66690   6.774   3.746   9.165  0.0187  0.1645  0.2558
  506MOL0     C66691   6.645   3.693   9.168 -0.3124  0.7252 -0.3008
  506MOL0     C66692   6.609   3.565   9.221 -0.2698  0.1656  0.4309
  506MOL0     C66693   6.474   3.526   9.240 -0.3418  0.5180  0.2890
  506MOL0     C66694   6.371   3.602   9.190 -1.0683 -0.1215 -0.5926
  506MOL0     O66695   6.236   3.578   9.199  0.2053  0.0443  0.0411
  506MOL0     C66696   6.198   3.442   9.210 -0.3314 -0.8280 -0.4797
  506MOL0     C66697   6.048   3.441   9.205  0.3702 -0.0725 -1.2084
  506MOL0     C66698   5.982   3.310   9.192  0.4432 -0.2291  0.0384
  506MOL0     C66699   5.822   3.294   9.195  1.2633 -0.0022 -0.9106
  506MOL0     C66700   5.766   3.295   9.051  0.6392 -0.9562 -0.2453
  506MOL0     C66701   5.625   3.351   9.031 -0.1631  1.0420  0.0033
  506MOL0     C66702   5.566   3.319   8.886  0.0487 -0.1808  0.6267
  506MOL0     C66703   5.424   3.385   8.866 -0.4150 -0.4398 -0.5442
  506MOL0    Cl66704   5.302   3.327   8.993 -0.5105 -0.0267  0.0314
  506MOL0     C66705   6.410   3.727   9.139 -0.4309  1.1655 -0.0426
  506MOL0     C66706   6.543   3.765   9.118  1.0675  0.0573 -0.6084
  506MOL0     O66707   6.825   3.685   9.377 -0.7689  0.0648  0.4544
  506MOL0     C66708   7.098   3.720   9.339 -0.1873  1.1804 -0.5985
  506MOL0     C66709   7.233   3.775   9.323 -0.0523 -0.5584  0.0900
  506MOL0     N66710   7.477   3.967   8.863 -0.1504  1.2100  0.0760
  506MOL0     N66711   7.362   3.906   8.852  0.1321  0.0632  0.3615
  506MOL0     C66712   6.729   3.312   8.210 -0.4953 -0.5455  0.2680
  506MOL0     C66713   6.591   3.316   8.196 -1.0834  0.4820  0.1057
  506MOL0     C66714   6.191   3.408   8.064  1.2499 -0.3300  0.4379
  506MOL0     C66715   6.106   3.413   7.950 -0.7905 -0.1550  0.1538
  506MOL0     C66716   5.975   3.394   7.956 -0.9886  0.7975 -0.0946
  506MOL0     C66717   5.917   3.371   8.080 -0.2452 -0.4901  0.2872
  506MOL0     O66718   5.777   3.359   8.100 -0.3041  0.2774  0.3138
  506MOL0     C66719   5.690   3.372   7.980 -0.1176  0.0365  0.9070
  506MOL0     C66720   5.539   3.380   8.023 -0.5451  0.1725 -2.0269
  506MOL0     C66721   5.454   3.381   7.903  1.3573 -0.6925 -0.7331
  506MOL0     C66722   5.302   3.399   7.928 -0.2976 -0.1975 -0.3287
  506MOL0     C66723   5.226   3.390   7.801 -0.3414 -0.5105 -0.5465
  506MOL0     C66724   5.178   3.391   7.686 -0.0514  0.7769  0.0193
  506MOL0     C66725   5.994   3.376   8.195  0.8224  0.0724  0.8879
  506MOL0     C66726   6.127   3.390   8.190  0.2719 -0.6231  0.5040
  506MOL0     H66727   6.561   3.668   8.160 -0.5251 -0.2774 -0.0274
  506MOL0     H66728   6.776   3.653   8.203 -1.7223  0.8147  1.3525
  506MOL0     H66729   6.966   3.620   8.293 -2.4182 -1.7739  0.3772
  506MOL0     H66730   7.040   3.560   8.144  0.5456 -0.1219 -0.5329
  506MOL0     H66731   7.222   3.586   8.315 -0.3509 -0.2204  2.4031
  506MOL0     H66732   7.197   3.414   8.286  1.4092  0.4039  0.3035
  506MOL0     H66733   7.063   3.396   8.481  1.7052 -2.2022  1.2483
  506MOL0     H66734   7.088   3.558   8.534  0.6530 -0.1226  0.6368
  506MOL0     H66735   7.298   3.346   8.500 -0.7807 -0.7681  0.8641
  506MOL0     H66736   7.347   3.515   8.549  1.3626  0.2928  2.6184
  506MOL0     H66737   7.343   3.340   8.716 -0.5453 -1.5380 -0.1346
  506MOL0     H66738   7.180   3.298   8.690  1.6108 -0.6797  2.5285
  506MOL0     H66739   7.174   3.411   8.903 -3.1330 -1.3304 -0.6487
  506MOL0     H66740   7.076   3.491   8.781 -0.7354 -1.1738 -0.0771
  506MOL0     H66741   7.376   3.558   8.842 -0.6731 -4.1550 -1.9163
  506MOL0     H66742   7.268   3.650   8.731 -3.4010  0.0214  0.2189
  506MOL0     H66743   7.233   3.638   9.034 -2.1115 -2.5435 -0.9890
  506MOL0     H66744   7.139   3.729   8.927 -0.3583  0.6880  2.4251
  506MOL0     H66745   7.507   3.705   9.061  0.3389  0.9174  0.4454
  506MOL0     H66746   7.740   4.006   8.997 -0.1542  0.2119  0.6891
  506MOL0     H66747   7.754   3.843   9.024  2.1351  2.5520 -1.4784
  506MOL0     H66748   7.754   3.965   9.230 -0.0441  2.7305 -1.1036
  506MOL0     H66749   7.620   3.876   9.251  1.8130  0.7673  2.3273
  506MOL0     H66750   7.592   4.097   9.318  1.9862 -0.5157  0.2379
  506MOL0     H66751   7.614   4.169   9.161  0.3477 -1.9415 -2.7909
  506MOL0     H66752   7.395   4.069   9.089  0.0384  1.5142 -0.0057
  506MOL0     H66753   7.363   4.144   9.239  3.7935  2.0976  0.7503
  506MOL0     H66754   7.175   4.015   9.090  2.1692  0.6850  1.0408
  506MOL0     H66755   6.949   3.929   9.117  0.0172  3.0260 -0.0489
  506MOL0     H66756   6.692   3.510   9.264  1.5289  0.5598 -2.2774
  506MOL0     H66757   6.457   3.434   9.296 -3.6827 -2.0150 -4.2401
  506MOL0     H66758   6.214   3.405   9.312  1.3426  2.8987  0.7784
  506MOL0     H66759   6.239   3.387   9.125  2.6375  0.4888 -0.0048
  506MOL0     H66760   6.016   3.504   9.122  0.4544  1.9593  0.2309
  506MOL0     H66761   6.011   3.486   9.298  2.2759  0.5611 -0.7168
  506MOL0     H66762   6.020   3.248   9.273  0.6997  2.9347  2.5236
  506MOL0     H66763   6.016   3.253   9.105  1.3805 -2.3041  1.6899
  506MOL0     H66764   5.785   3.207   9.251 -0.6378  0.4708 -1.3470
  506MOL0     H66765   5.774   3.378   9.245  0.9098 -1.1739  0.7911
  506MOL0     H66766   5.778   3.190   9.022  2.8045 -0.8448  0.0498
  506MOL0     H66767   5.825   3.347   8.976 -3.2562 -1.2466 -3.8928
  506MOL0     H66768   5.629   3.459   9.046  1.0986  1.0179 -0.0377
  506MOL0     H66769   5.567   3.305   9.111  0.6032  0.7111  0.3771
  506MOL0     H66770   5.633   3.353   8.806 -0.7949 -1.9248 -0.9028
  506MOL0     H66771   5.557   3.211   8.872 -1.3166  0.1320 -1.2542
  506MOL0     H66772   5.389   3.351   8.768 -1.0729 -1.0935 -0.0874
  506MOL0     H66773   5.434   3.493   8.879  0.2126 -0.4466 -0.9043
  506MOL0     H66774   6.335   3.797   9.103 -0.9819  0.8093  0.4034
  506MOL0     H66775   6.560   3.859   9.066  1.9665  1.3645  1.9198
  506MOL0     H66776   7.068   3.637   9.402 -1.8533  1.1855 -1.3242
  506MOL0     H66777   7.310   3.745   9.393  1.4033  1.2523 -0.6819
  506MOL0     H66778   6.780   3.216   8.219 -1.7994 -1.3028 -0.1924
  506MOL0     H66779   6.548   3.217   8.183  3.4984 -1.5552 -1.4987
  506MOL0     H66780   6.145   3.405   7.849  2.2645 -2.0440  1.3297
  506MOL0     H66781   5.930   3.405   7.858 -0.7403  3.8711  0.0298
  506MOL0     H66782   5.700   3.287   7.912 -1.5735  1.4192 -1.1286
  506MOL0     H66783   5.712   3.468   7.932 -1.2310  1.1851  2.5822
  506MOL0     H66784   5.507   3.291   8.079  0.2371  0.5271 -0.9842
  506MOL0     H66785   5.522   3.470   8.083 -2.8628 -1.0765 -0.6297
  506MOL0     H66786   5.466   3.281   7.859  3.0749 -1.7315  1.8359
  506MOL0     H66787   5.481   3.465   7.839 -2.9013 -1.9289 -4.7164
  506MOL0     H66788   5.272   3.334   8.010 -0.9223  0.3591 -0.1145
  506MOL0     H66789   5.300   3.505   7.955  2.3265  0.3797 -1.9530
  506MOL0     H66790   5.132   3.420   7.593 -2.8927  2.3048  1.7422
  506MOL0     H66791   5.949   3.352   8.290 -0.2375  0.1146  0.4135
  506MOL0     H66792   6.187   3.374   8.278  2.8248  1.7648 -0.6438
  507MOL0     O66793   2.689   9.659  10.332 -0.3762  1.6058 -0.3372
  507MOL0     C66794   2.697   9.535  10.313 -0.4853  0.1734 -1.0155
  507MOL0     O66795   2.590   9.449  10.284 -0.0516  0.8068  0.0158
  507MOL0     C66796   2.464   9.505  10.299  0.2825  0.4165  0.3558
  507MOL0     C66797   2.430   9.557  10.420 -1.1671 -1.2219 -0.2809
  507MOL0     C66798   2.305   9.593  10.445 -0.6608 -0.1365 -0.3518
  507MOL0     C66799   2.200   9.587  10.354 -0.4266 -0.8085  0.4164
  507MOL0     O66800   2.076   9.622  10.402  0.3473 -0.4024  0.5408
  507MOL0     C66801   1.960   9.591  10.319 -0.0095  0.3753 -0.5608
  507MOL0     C66802   1.905   9.702  10.242  0.1307 -0.4458  0.1500
  507MOL0     C66803   1.753   9.678  10.219 -0.7230  0.7130 -0.0647
  507MOL0     C66804   1.677   9.802  10.173 -0.2106 -0.3006 -0.2584
  507MOL0     C66805   1.524   9.785  10.190 -0.0928 -0.3816 -2.1292
  507MOL0     C66806   1.484   9.664  10.110  0.0486  0.2578 -0.8976
  507MOL0     C66807   1.344   9.649  10.073  0.5894  0.0596  0.1676
  507MOL0     C66808   1.257   9.674  10.194 -0.4637 -0.0102 -0.7831
  507MOL0     N66809   1.114   9.668  10.161 -0.1839 -0.4710 -0.3887
  507MOL0     C66810   1.039   9.552  10.185 -0.3943  1.3569 -1.1028
  507MOL0     C66811   0.919   9.594  10.167  0.4858  0.1529 -0.3230
  507MOL0     C66812   0.794   9.522  10.205 -0.2435  0.6951 -0.2051
  507MOL0     C66813   0.657   9.579  10.163  0.4967  0.1655 -0.6809
  507MOL0     C66814   0.534   9.500  10.196  0.1577  0.3553  0.1212
  507MOL0     C66815   0.466   9.545  10.320  0.7406 -0.4872 -0.1590
  507MOL0     O66816   0.374   9.440  10.359  0.3212 -1.0658 -0.0850
  507MOL0     C66817   0.242   9.425  10.316  0.4863  0.7599 -0.3334
  507MOL0     C66818   0.170   9.527  10.250  0.1997 -0.1081 -0.2982
  507MOL0     C66819   0.043   9.497  10.193  0.2451 -0.0717  0.1865
  507MOL0     C66820  -0.022   9.378  10.224  1.1786  0.2034 -0.7624
  507MOL0     C66821  -0.159   9.340  10.180  0.7877 -0.2078 -0.2623
  507MOL0     O66822  -0.238   9.248  10.253 -0.1392  0.2721  0.1346
  507MOL0     C66823  -0.352   9.201  10.195 -0.5578 -0.1532  0.2475
  507MOL0     C66824  -0.476   9.261  10.226 -0.8961  0.6862  0.4264
  507MOL0     C66825  -0.590   9.225  10.165 -0.2917 -0.2269 -0.5549
  507MOL0     C66826  -0.577   9.150  10.044  0.7426  0.9808  0.0439
  507MOL0     O66827  -0.688   9.148   9.957  0.8432  0.1858  0.2881
  507MOL0     C66828  -0.698   9.033   9.868 -0.2885  0.8209  0.9123
  507MOL0     C66829  -0.840   9.014   9.811 -0.4033  0.6251 -1.1436
  507MOL0     C66830  -0.864   9.108   9.689 -0.4173  0.1228  0.1148
  507MOL0     C66831  -1.008   9.072   9.649  0.5975 -0.3768 -0.0794
  507MOL0     C66832  -1.053   9.115   9.510  0.2290 -0.5540  0.0585
  507MOL0     C66833  -0.952   9.082   9.406 -0.1298 -0.5484 -0.2001
  507MOL0     C66834  -1.008   9.076   9.268 -0.6257 -0.3296  0.4161
  507MOL0     C66835  -0.901   9.056   9.164  0.1058  0.3349  0.2293
  507MOL0    Cl66836  -0.826   8.892   9.180 -0.0759  0.3601  0.5147
  507MOL0     C66837  -0.457   9.094  10.001 -0.4520  0.2717  0.0399
  507MOL0     C66838  -0.348   9.112  10.082 -0.4879  0.5279 -0.2054
  507MOL0     O66839  -0.200   9.403  10.080 -0.3888  0.9335  0.6708
  507MOL0     C66840   0.046   9.288  10.311 -0.1610  0.0653 -0.2162
  507MOL0     C66841   0.178   9.307  10.347  0.5169 -1.3458  0.2742
  507MOL0     N66842   0.916   9.725  10.128  0.1143 -0.2059 -0.4445
  507MOL0     N66843   1.036   9.776  10.132  0.1461  0.2357 -0.9649
  507MOL0     C66844   2.238   9.547  10.220 -0.0266  0.2470  1.0533
  507MOL0     C66845   2.366   9.497  10.196  0.3245 -0.7690  0.2143
  507MOL0     C66846   2.834   9.472  10.305  0.1669 -0.5735 -0.7294
  507MOL0     C66847   2.849   9.338  10.279  0.8632 -0.1759 -0.6465
  507MOL0     C66848   2.978   9.284  10.282 -0.3156  0.8135  0.4324
  507MOL0     C66849   3.095   9.356  10.287  0.3567 -0.6082 -0.0035
  507MOL0     O66850   3.223   9.318  10.265  0.5520 -0.0454  0.2195
  507MOL0     C66851   3.262   9.205  10.346 -0.0251  1.2444  0.5639
  507MOL0     C66852   3.301   9.078  10.261 -1.0491  0.0185 -0.4894
  507MOL0     C66853   3.212   9.050  10.140  0.8958 -0.2271  0.3981
  507MOL0     C66854   3.276   8.952  10.040 -0.7017 -0.2754 -0.3844
  507MOL0     C66855   3.233   8.970   9.905  0.5492  0.0453 -0.3210
  507MOL0     C66856   3.202   8.971   9.783  0.0255 -0.2781 -0.3529
  507MOL0     C66857   3.076   9.494  10.311  0.2834  0.0200  0.7550
  507MOL0     C66858   2.948   9.554  10.331  0.4888  0.1816 -0.3906
  507MOL0     H66859   2.505   9.580  10.495 -1.8785 -1.2066  0.4335
  507MOL0     H66860   2.287   9.623  10.547  2.5692  1.9796 -0.2268
  507MOL0     H66861   1.885   9.565  10.394  1.7202 -0.8130  0.8264
  507MOL0     H66862   1.972   9.495  10.269 -0.4183 -0.3602  0.7080
  507MOL0     H66863   1.962   9.708  10.148  0.0114 -2.3320 -0.0667
  507MOL0     H66864   1.915   9.791  10.305  1.7985 -0.4559 -0.0467
  507MOL0     H66865   1.706   9.642  10.310 -0.7489  2.0528  0.4682
  507MOL0     H66866   1.735   9.598  10.146 -1.7410 -0.2717  1.2206
  507MOL0     H66867   1.711   9.891  10.226  0.5680  0.1060 -1.3867
  507MOL0     H66868   1.697   9.829  10.069  0.9678 -0.2484 -0.0352
  507MOL0     H66869   1.469   9.876  10.162 -0.9513 -0.7326 -1.6108
  507MOL0     H66870   1.505   9.770  10.297  2.8380 -0.0012 -1.4664
  507MOL0     H66871   1.507   9.583  10.180 -2.9451 -0.5609 -0.7252
  507MOL0     H66872   1.538   9.647  10.017 -1.3927 -0.2532 -1.6827
  507MOL0     H66873   1.313   9.702   9.982  3.8764 -2.6243 -2.7846
  507MOL0     H66874   1.337   9.544  10.045 -2.8990  0.2371 -0.0699
  507MOL0     H66875   1.265   9.781  10.217  0.2395 -0.2359  0.0915
  507MOL0     H66876   1.290   9.623  10.285  2.5694  0.4704 -1.5255
  507MOL0     H66877   1.074   9.458  10.227  2.8531  2.0849 -1.9055
  507MOL0     H66878   0.793   9.520  10.314  3.1337 -2.0861 -0.0597
  507MOL0     H66879   0.802   9.419  10.168 -0.7583 -0.0801  1.7240
  507MOL0     H66880   0.669   9.581  10.055  2.4796 -1.2637 -0.5600
  507MOL0     H66881   0.647   9.684  10.193 -1.7592  0.1420 -1.1985
  507MOL0     H66882   0.466   9.528  10.115 -2.8129 -0.5802  2.1255
  507MOL0     H66883   0.547   9.391  10.197 -2.6636 -0.0378  0.7700
  507MOL0     H66884   0.417   9.642  10.305  0.5383 -0.8934 -2.5215
  507MOL0     H66885   0.543   9.567  10.394 -1.0684  1.6376  1.2464
  507MOL0     H66886   0.223   9.619  10.230  2.1555 -1.5396 -2.1901
  507MOL0     H66887  -0.003   9.572  10.130  1.1282  1.4231  1.2734
  507MOL0     H66888  -0.475   9.326  10.312  0.5958  0.3210  0.7162
  507MOL0     H66889  -0.678   9.260  10.217  0.5191 -0.4993  1.0858
  507MOL0     H66890  -0.678   8.940   9.922  0.4627  1.7852  2.3618
  507MOL0     H66891  -0.624   9.033   9.787  0.8316 -0.6106  1.8789
  507MOL0     H66892  -0.915   9.040   9.887  2.9356  0.3048  2.6223
  507MOL0     H66893  -0.845   8.908   9.787  3.6847 -0.2871  1.0088
  507MOL0     H66894  -0.791   9.076   9.614  0.3186  2.0977 -0.0610
  507MOL0     H66895  -0.842   9.213   9.712  2.5152  0.0548 -1.8601
  507MOL0     H66896  -1.026   8.964   9.654 -0.4547 -0.2490 -0.7888
  507MOL0     H66897  -1.078   9.125   9.714 -0.7838  0.3496 -2.0520
  507MOL0     H66898  -1.075   9.222   9.505 -1.0881 -0.7628  0.8728
  507MOL0     H66899  -1.150   9.069   9.486 -0.3960  0.7332  0.0032
  507MOL0     H66900  -0.915   8.986   9.443 -3.7604 -1.6782  0.9534
  507MOL0     H66901  -0.865   9.148   9.417 -2.1189  2.1423  0.3233
  507MOL0     H66902  -1.080   8.994   9.258  1.7766 -2.4290 -1.1088
  507MOL0     H66903  -1.056   9.165   9.226 -0.3515 -0.3395  0.0708
  507MOL0     H66904  -0.814   9.119   9.185 -1.3050  1.8279  1.8974
  507MOL0     H66905  -0.948   9.067   9.066  3.5608  0.1641 -1.6102
  507MOL0     H66906  -0.447   9.028   9.915  0.2237 -2.0195  1.7904
  507MOL0     H66907  -0.253   9.066  10.056 -0.0057  1.7633 -0.7038
  507MOL0     H66908  -0.006   9.194  10.329  0.1542 -0.1426 -0.3883
  507MOL0     H66909   0.243   9.232  10.391  2.8982  0.9781  0.9934
  507MOL0     H66910   2.170   9.549  10.136  0.7843  0.8600  0.3950
  507MOL0     H66911   2.379   9.440  10.105  1.6033 -1.0211  0.5312
  507MOL0     H66912   2.754   9.292  10.254 -0.9750  2.1212  1.5045
  507MOL0     H66913   2.977   9.176  10.266  0.7844  0.8654 -0.0555
  507MOL0     H66914   3.177   9.176  10.409 -0.9588  1.7100 -0.4434
  507MOL0     H66915   3.344   9.222  10.417  1.7923 -1.6432 -0.6625
  507MOL0     H66916   3.402   9.096  10.225 -1.7937  3.4403 -1.2800
  507MOL0     H66917   3.302   8.988  10.323  0.2161 -1.2092 -2.1954
  507MOL0     H66918   3.203   9.143  10.083 -0.7791  0.4256  1.6437
  507MOL0     H66919   3.113   9.015  10.172  0.7080  0.1160  0.1963
  507MOL0     H66920   3.385   8.950  10.037 -0.7107 -1.0360 -0.3827
  507MOL0     H66921   3.244   8.851  10.066 -0.7953 -1.5222 -4.5342
  507MOL0     H66922   3.196   8.969   9.676  0.2072 -1.2940 -0.3464
  507MOL0     H66923   3.159   9.560  10.289 -1.4626  2.4528  1.0428
  507MOL0     H66924   2.951   9.661  10.351  1.8415 -0.2030  1.9128
  508MOL0     O66925   2.573   0.327   2.047  0.2765  0.0704 -0.7932
  508MOL0     C66926   2.592   0.447   2.022  0.5096 -0.4006 -0.0130
  508MOL0     O66927   2.710   0.518   2.040  0.4548 -0.2016 -0.1619
  508MOL0     C66928   2.822   0.448   2.085  0.1242  0.0976  0.2083
  508MOL0     C66929   2.913   0.516   2.172  1.1008  0.3805 -0.8135
  508MOL0     C66930   3.027   0.452   2.209 -1.0256  0.1310  0.3122
  508MOL0     C66931   3.074   0.324   2.156 -0.4128 -0.0185 -0.7434
  508MOL0     O66932   3.204   0.281   2.185  0.7870  0.1548 -0.4649
  508MOL0     C66933   3.233   0.139   2.146 -0.1388 -1.4548 -0.5506
  508MOL0     C66934   3.371   0.109   2.221  0.4594  0.1016 -0.0491
  508MOL0     C66935   3.345   0.074   2.363  0.0074  0.2864 -0.2212
  508MOL0     C66936   3.469   0.008   2.431  0.3764 -0.7872  0.8288
  508MOL0     C66937   3.417  -0.046   2.564 -0.2018  0.4070 -0.1461
  508MOL0     C66938   3.531  -0.102   2.643 -0.0871 -0.3908 -0.2622
  508MOL0     C66939   3.480  -0.152   2.776  0.0247  0.6846 -1.3715
  508MOL0     C66940   3.419  -0.295   2.764 -0.3651 -0.4106  0.0804
  508MOL0     N66941   3.409  -0.360   2.899 -0.3172  0.4798  0.1243
  508MOL0     C66942   3.295  -0.374   2.974  1.0063  0.1870  0.7398
  508MOL0     C66943   3.333  -0.442   3.084 -0.7350 -0.6537 -0.3733
  508MOL0     C66944   3.241  -0.500   3.177 -0.3948 -0.7177  0.5512
  508MOL0     C66945   3.204  -0.644   3.137 -0.3234  0.0692  0.7458
  508MOL0     C66946   3.101  -0.717   3.229  0.1165  1.1423  0.4883
  508MOL0     C66947   2.951  -0.667   3.210  0.0655 -0.5783 -0.8184
  508MOL0     O66948   2.902  -0.653   3.080 -0.1200 -1.1061  1.1784
  508MOL0     C66949   2.766  -0.667   3.060 -0.7264 -0.2919  0.1442
  508MOL0     C66950   2.709  -0.782   3.010 -1.0515  0.1940 -0.2793
  508MOL0     C66951   2.576  -0.796   2.994 -0.0127  0.0553 -0.5904
  508MOL0     C66952   2.486  -0.689   3.027  0.1594  0.5693  0.0036
  508MOL0     C66953   2.341  -0.696   3.004  0.4801 -0.0346  0.2655
  508MOL0     O66954   2.305  -0.816   2.939 -0.0050  0.2836  0.1310
  508MOL0     C66955   2.176  -0.844   2.904  0.6284 -0.2015  0.1122
  508MOL0     C66956   2.144  -0.883   2.772 -0.2776  0.4555 -0.4224
  508MOL0     C66957   2.016  -0.925   2.742 -0.5985 -0.7786  0.4660
  508MOL0     C66958   1.915  -0.916   2.842  1.0837 -0.5242 -0.4718
  508MOL0     O66959   1.786  -0.963   2.818  0.0121 -0.5526  0.2681
  508MOL0     C66960   1.777  -1.095   2.754 -0.5330 -0.3612 -0.3313
  508MOL0     C66961   1.636  -1.130   2.758 -0.1453 -0.6866  0.0078
  508MOL0     C66962   1.536  -1.040   2.670  0.0136 -0.2936 -0.5009
  508MOL0     C66963   1.415  -1.130   2.632 -0.9408 -0.1056 -0.1074
  508MOL0     C66964   1.342  -1.055   2.514 -0.8301  1.1333  0.1096
  508MOL0     C66965   1.228  -1.139   2.461  0.8357  0.3692  0.3154
  508MOL0     C66966   1.118  -1.160   2.552 -0.1698  0.1668 -1.2904
  508MOL0     C66967   0.979  -1.167   2.484 -0.2011 -0.3101 -0.0483
  508MOL0    Cl66968   0.871  -1.266   2.600  0.1590  0.0237  0.2331
  508MOL0     C66969   1.940  -0.864   2.965  0.1392  0.1688 -0.4498
  508MOL0     C66970   2.071  -0.826   2.989  0.2456  0.0959 -1.5846
  508MOL0     O66971   2.264  -0.602   3.040  0.8993  0.6598  0.9408
  508MOL0     C66972   2.550  -0.570   3.081  0.5313  1.0308  0.5553
  508MOL0     C66973   2.686  -0.567   3.100  0.5663 -0.6425  0.2346
  508MOL0     N66974   3.464  -0.464   3.079  0.1587 -0.5469  0.3309
  508MOL0     N66975   3.511  -0.419   2.962  0.1149  0.1715 -0.6363
  508MOL0     C66976   2.989   0.256   2.068 -0.6589 -0.6022  0.9531
  508MOL0     C66977   2.863   0.324   2.031 -1.0500 -0.0749 -0.0992
  508MOL0     C66978   2.471   0.523   1.973  0.9527 -0.1626 -0.6932
  508MOL0     C66979   2.481   0.647   1.908  0.2827  0.3283  0.2672
  508MOL0     C66980   2.373   0.704   1.845 -0.0475 -0.1943  1.3425
  508MOL0     C66981   2.246   0.651   1.861  0.5576  1.1963 -0.2015
  508MOL0     O66982   2.133   0.697   1.793 -1.2385  0.4052  0.2314
  508MOL0     C66983   2.165   0.776   1.678 -0.1074 -0.3940  0.1600
  508MOL0     C66984   2.033   0.813   1.608  0.6834 -0.4619  0.4511
  508MOL0     C66985   2.062   0.863   1.459  0.0812 -0.2265 -0.4509
  508MOL0     C66986   1.969   0.959   1.394  0.2946 -0.7171  0.8486
  508MOL0     C66987   1.869   0.885   1.315  0.9357  0.4308  0.0061
  508MOL0     C66988   1.784   0.825   1.250  0.0627 -0.5789 -0.3979
  508MOL0     C66989   2.228   0.535   1.942  0.1504 -0.9738  0.4530
  508MOL0     C66990   2.339   0.469   2.005  0.2908 -0.1063 -0.0431
  508MOL0     H66991   2.886   0.614   2.208  1.4877  0.7637 -1.5463
  508MOL0     H66992   3.085   0.523   2.268 -2.2345  3.7440 -2.4312
  508MOL0     H66993   3.255   0.132   2.039 -0.5521  2.0187 -0.9882
  508MOL0     H66994   3.161   0.061   2.172 -1.0209 -0.7239 -0.7256
  508MOL0     H66995   3.448   0.186   2.211 -2.4996  2.9720 -2.6918
  508MOL0     H66996   3.409   0.018   2.173 -4.1658 -2.1279  0.0386
  508MOL0     H66997   3.256   0.010   2.361 -0.8805  1.4930 -1.5611
  508MOL0     H66998   3.315   0.161   2.421 -1.1745  0.8030 -1.5414
  508MOL0     H66999   3.485  -0.076   2.363 -2.2069 -0.2717 -0.5475
  508MOL0     H67000   3.561   0.067   2.438  0.0354 -0.4062  2.7754
  508MOL0     H67001   3.336  -0.117   2.545 -0.3481  0.9120 -1.5077
  508MOL0     H67002   3.367   0.024   2.632 -0.6521  0.9618 -1.0193
  508MOL0     H67003   3.603  -0.021   2.658 -0.5481  0.2714 -1.4845
  508MOL0     H67004   3.587  -0.177   2.586  0.5098  1.4516 -2.2143
  508MOL0     H67005   3.566  -0.154   2.844  0.6534 -2.7899 -2.0985
  508MOL0     H67006   3.404  -0.090   2.825  1.3333  0.7500  0.7302
  508MOL0     H67007   3.485  -0.362   2.708 -2.4327 -2.8157  0.3248
  508MOL0     H67008   3.325  -0.279   2.712 -1.0437 -2.1644  0.7019
  508MOL0     H67009   3.192  -0.352   2.951  0.9561  0.0337  0.8196
  508MOL0     H67010   3.152  -0.438   3.188  0.8259  1.3609 -0.6257
  508MOL0     H67011   3.292  -0.493   3.274  0.7837 -0.4332 -0.0663
  508MOL0     H67012   3.298  -0.699   3.144 -1.6223 -2.1577  1.9816
  508MOL0     H67013   3.181  -0.628   3.031 -0.6670 -0.6179  0.7112
  508MOL0     H67014   3.097  -0.822   3.200 -1.6298  0.6994  2.1219
  508MOL0     H67015   3.132  -0.715   3.334 -0.7440 -0.6284  0.8151
  508MOL0     H67016   2.950  -0.562   3.238  3.2154 -0.8981  0.9343
  508MOL0     H67017   2.889  -0.713   3.287  2.1481  1.6305  2.4202
  508MOL0     H67018   2.767  -0.871   2.991  0.3809  1.5740 -2.9160
  508MOL0     H67019   2.528  -0.889   2.967  2.7484 -1.0168 -2.1865
  508MOL0     H67020   2.224  -0.894   2.700  0.2184 -0.1359  0.2094
  508MOL0     H67021   2.001  -0.965   2.642  1.6531 -3.1257  0.9740
  508MOL0     H67022   1.816  -1.182   2.807 -4.4765 -2.7033 -0.8654
  508MOL0     H67023   1.808  -1.087   2.649 -0.1562 -1.6695 -0.3314
  508MOL0     H67024   1.593  -1.140   2.858  0.1279 -1.0492  0.0903
  508MOL0     H67025   1.640  -1.234   2.723  2.7426 -1.4428  2.2627
  508MOL0     H67026   1.579  -0.992   2.582  0.4563  2.1408  0.9505
  508MOL0     H67027   1.502  -0.952   2.725  0.4105  0.0395 -0.7854
  508MOL0     H67028   1.441  -1.229   2.593  0.8317  0.2953 -0.0285
  508MOL0     H67029   1.350  -1.140   2.719  1.2970  2.3082  2.0212
  508MOL0     H67030   1.410  -1.035   2.429 -2.1199  0.0375 -1.2314
  508MOL0     H67031   1.293  -0.964   2.550 -3.2344  0.2179 -0.6687
  508MOL0     H67032   1.272  -1.232   2.424 -0.3739  0.4468 -1.4569
  508MOL0     H67033   1.185  -1.096   2.370  0.0705 -2.0598 -0.5395
  508MOL0     H67034   1.148  -1.241   2.619 -0.1183  1.4014  0.2509
  508MOL0     H67035   1.109  -1.083   2.630  0.0407 -1.1438  0.0744
  508MOL0     H67036   0.979  -1.228   2.393 -0.6249 -1.1028  0.4704
  508MOL0     H67037   0.940  -1.065   2.483  4.3669  1.7505  1.8985
  508MOL0     H67038   1.862  -0.860   3.040  1.6291  3.2647  1.1154
  508MOL0     H67039   2.096  -0.793   3.089 -1.0389 -1.5388 -0.6635
  508MOL0     H67040   2.487  -0.483   3.101  0.9382  1.6637 -0.8091
  508MOL0     H67041   2.725  -0.469   3.124 -0.9557 -0.4553  2.1979
  508MOL0     H67042   3.007   0.162   2.017 -3.5016 -2.3125  2.8395
  508MOL0     H67043   2.803   0.275   1.955 -1.4122  0.7238 -0.3428
  508MOL0     H67044   2.574   0.702   1.900 -0.3437  1.5067  0.8009
  508MOL0     H67045   2.400   0.790   1.784  2.9798 -3.8969 -3.3103
  508MOL0     H67046   2.225   0.718   1.608 -1.7867 -0.0815 -1.6461
  508MOL0     H67047   2.217   0.869   1.703 -0.7854  0.1026 -0.2253
  508MOL0     H67048   1.968   0.725   1.604  1.0149 -0.7437  1.2222
  508MOL0     H67049   1.978   0.889   1.665 -1.5033 -1.5084 -0.1271
  508MOL0     H67050   2.073   0.778   1.391  1.4038  2.2394 -3.5590
  508MOL0     H67051   2.163   0.906   1.460  1.4617 -3.1145 -1.8951
  508MOL0     H67052   1.913   1.012   1.472  1.2838  0.4215  0.8195
  508MOL0     H67053   2.014   1.038   1.333 -3.6144  0.0932 -1.3241
  508MOL0     H67054   1.714   0.775   1.186 -0.8312 -2.8166  2.1793
  508MOL0     H67055   2.128   0.494   1.954 -0.8107  1.5725  2.2843
  508MOL0     H67056   2.333   0.382   2.069 -2.8964 -2.2065 -2.8275
  509MOL0     O67057   6.199  10.458  10.926  0.1284 -0.5562 -0.0559
  509MOL0     C67058   6.229  10.537  10.831 -0.3717  0.8306 -0.4947
  509MOL0     O67059   6.147  10.581  10.735  0.2484  0.1277  0.7529
  509MOL0     C67060   6.018  10.555  10.719  0.5768 -0.1629  0.3288
  509MOL0     C67061   5.912  10.513  10.811 -0.2373  0.7636  0.2099
  509MOL0     C67062   5.775  10.511  10.765 -0.6787 -0.4845  0.5965
  509MOL0     C67063   5.740  10.553  10.643 -0.1157  0.1385 -0.1269
  509MOL0     O67064   5.612  10.572  10.596 -0.5907 -1.1752 -0.7051
  509MOL0     C67065   5.513  10.506  10.662  0.4375  0.3232  0.3751
  509MOL0     C67066   5.456  10.571  10.792 -0.7472 -0.4618  0.6096
  509MOL0     C67067   5.387  10.709  10.781 -0.6702  0.5115 -0.1991
  509MOL0     C67068   5.311  10.750  10.901  0.2348 -0.2734 -0.0402
  509MOL0     C67069   5.224  10.864  10.889 -0.6699 -0.1178 -0.4416
  509MOL0     C67070   5.141  10.871  10.750  0.7513 -0.2856  0.1021
  509MOL0     C67071   5.033  10.986  10.747  0.1812  0.1125  0.8801
  509MOL0     C67072   4.982  11.017  10.601 -0.2053 -0.2257 -1.1620
  509MOL0     N67073   4.899  11.136  10.627  0.6927 -0.2124 -0.1588
  509MOL0     C67074   4.765  11.114  10.662 -0.3371  0.2709 -0.0120
  509MOL0     C67075   4.719  11.239  10.691  0.0587  0.1773 -0.7537
  509MOL0     C67076   4.584  11.264  10.759  0.6849  0.3450  0.6489
  509MOL0     C67077   4.524  11.412  10.743 -0.4129 -0.4095 -0.6563
  509MOL0     C67078   4.398  11.440  10.830 -0.7223  0.0595  0.2781
  509MOL0     C67079   4.298  11.324  10.832 -0.4746  0.0136  0.0549
  509MOL0     O67080   4.184  11.363  10.914  0.9926  0.8564 -0.0122
  509MOL0     C67081   4.090  11.451  10.871 -0.7571 -0.0805 -0.0956
  509MOL0     C67082   3.980  11.464  10.959  0.2373  0.1339  0.6606
  509MOL0     C67083   3.866  11.531  10.908 -0.8334 -0.7092  0.0594
  509MOL0     C67084   3.878  11.601  10.785  0.9469 -0.0107 -0.4659
  509MOL0     C67085   3.765  11.685  10.732 -0.1480 -0.2044  0.1343
  509MOL0     O67086   3.728  11.693  10.597  0.4548  0.7407 -0.2233
  509MOL0     C67087   3.607  11.763  10.568 -0.4215  0.3850  0.5185
  509MOL0     C67088   3.503  11.678  10.527  0.1069 -0.2034 -0.2997
  509MOL0     C67089   3.376  11.735  10.495 -0.1436 -0.6198 -0.3313
  509MOL0     C67090   3.361  11.876  10.494 -0.7572  0.1598  0.5119
  509MOL0     O67091   3.248  11.930  10.434 -0.3903  0.2131 -0.4043
  509MOL0     C67092   3.272  12.045  10.345 -0.2307  0.2694  0.3270
  509MOL0     C67093   3.188  12.053  10.217  0.7455  0.5261 -0.5408
  509MOL0     C67094   3.176  11.924  10.138 -0.1041 -0.5282 -0.1181
  509MOL0     C67095   3.312  11.866  10.088  0.4213 -0.8199  0.1201
  509MOL0     C67096   3.307  11.732  10.012  0.6435  0.5244 -0.0970
  509MOL0     C67097   3.222  11.735   9.886 -0.5295 -0.2482 -0.3513
  509MOL0     C67098   3.255  11.856   9.798 -0.5982 -0.2805  0.0050
  509MOL0     C67099   3.181  11.854   9.660  0.3670  0.6506 -0.4230
  509MOL0    Cl67100   3.004  11.857   9.696 -0.7306  0.1035 -0.1005
  509MOL0     C67101   3.469  11.954  10.540 -0.0233  0.1489 -0.2661
  509MOL0     C67102   3.592  11.895  10.581  1.4181  0.6346  0.1890
  509MOL0     O67103   3.706  11.741  10.813 -0.7490  0.0457 -0.8709
  509MOL0     C67104   3.980  11.587  10.702 -0.1303  0.3548 -0.2900
  509MOL0     C67105   4.083  11.506  10.747 -0.3028 -0.4955  0.0249
  509MOL0     N67106   4.820  11.325  10.691  0.6376 -0.4805 -0.1331
  509MOL0     N67107   4.929  11.271  10.645 -0.2519  0.2037  0.0305
  509MOL0     C67108   5.845  10.602  10.559 -0.0619  0.0127 -0.6210
  509MOL0     C67109   5.979  10.594  10.588  0.7800  1.0575 -0.5472
  509MOL0     C67110   6.363  10.590  10.831  0.9082 -0.2015 -0.9717
  509MOL0     C67111   6.460  10.567  10.932 -0.7035 -0.3266 -1.1193
  509MOL0     C67112   6.586  10.617  10.924  0.1275  0.3036 -0.0656
  509MOL0     C67113   6.627  10.694  10.817  0.1855 -1.1653 -0.4710
  509MOL0     O67114   6.757  10.733  10.822  0.3562 -0.4046  0.7875
  509MOL0     C67115   6.799  10.856  10.750  1.1342  1.0606  0.5710
  509MOL0     C67116   6.739  10.982  10.811  0.2055 -0.0627 -0.1902
  509MOL0     C67117   6.780  11.107  10.725 -0.0405 -0.1496  0.2212
  509MOL0     C67118   6.727  11.241  10.787 -0.0617 -0.3993  0.1443
  509MOL0     C67119   6.812  11.286  10.899  0.2616 -0.6673 -0.2536
  509MOL0     C67120   6.889  11.329  10.978  1.2868 -0.2164 -0.3717
  509MOL0     C67121   6.529  10.733  10.726  0.0962  0.7784 -0.7727
  509MOL0     C67122   6.404  10.669  10.724  0.8151 -0.1887 -0.5601
  509MOL0     H67123   5.934  10.507  10.917  0.0229 -0.2779  0.1089
  509MOL0     H67124   5.701  10.481  10.839 -1.4228  0.4944  0.2775
  509MOL0     H67125   5.538  10.403  10.688  1.7119 -0.0308 -1.9835
  509MOL0     H67126   5.435  10.494  10.586  2.3423  1.0901 -1.8367
  509MOL0     H67127   5.528  10.563  10.874  0.6309  0.3512 -0.4773
  509MOL0     H67128   5.378  10.498  10.816 -0.0154 -1.0020  1.4164
  509MOL0     H67129   5.325  10.715  10.691 -1.8303 -1.1039  0.4578
  509MOL0     H67130   5.461  10.784  10.752 -1.7818  1.9539  0.5685
  509MOL0     H67131   5.258  10.668  10.950  5.6966 -2.5442  2.8867
  509MOL0     H67132   5.389  10.775  10.974 -1.0607  0.8354  1.0251
  509MOL0     H67133   5.281  10.954  10.914  1.5714 -1.9195  1.3928
  509MOL0     H67134   5.149  10.860  10.969 -0.1291 -0.0981  0.0699
  509MOL0     H67135   5.095  10.775  10.726  1.8650  0.0065 -4.1137
  509MOL0     H67136   5.206  10.894  10.665 -2.1269  0.7585 -1.9791
  509MOL0     H67137   4.948  10.955  10.809 -0.2898  2.2575  1.3726
  509MOL0     H67138   5.075  11.076  10.792  0.7084  1.2376 -1.6935
  509MOL0     H67139   4.929  10.934  10.553  0.7349 -1.3120 -0.3790
  509MOL0     H67140   5.063  11.049  10.535  0.2151  0.9878 -0.0964
  509MOL0     H67141   4.707  11.027  10.692  2.0477 -0.5187  2.8453
  509MOL0     H67142   4.603  11.240  10.864  1.0425 -0.1700  0.4680
  509MOL0     H67143   4.504  11.200  10.722  1.3064  0.0469 -0.1941
  509MOL0     H67144   4.496  11.428  10.639 -0.2276  0.3769 -0.5909
  509MOL0     H67145   4.601  11.488  10.761 -0.1324 -1.2344  2.0681
  509MOL0     H67146   4.439  11.466  10.927 -0.5067 -0.4295  0.3222
  509MOL0     H67147   4.346  11.526  10.787 -1.8092 -1.6643 -2.1224
  509MOL0     H67148   4.352  11.243  10.881  0.1169  2.4194  3.8228
  509MOL0     H67149   4.271  11.294  10.731  1.7916  0.9673 -0.9066
  509MOL0     H67150   3.973  11.408  11.051 -0.9786 -0.5277  0.1866
  509MOL0     H67151   3.772  11.533  10.961 -1.3519  2.4627 -0.8051
  509MOL0     H67152   3.517  11.570  10.523  2.3977  0.0833 -1.7929
  509MOL0     H67153   3.302  11.672  10.446 -3.6390  3.9128 -1.6292
  509MOL0     H67154   3.380  12.038  10.327 -0.4982 -0.2656 -1.2858
  509MOL0     H67155   3.251  12.132  10.408  2.4383 -0.0477  1.8053
  509MOL0     H67156   3.212  12.144  10.161  1.6502  0.8783  0.3769
  509MOL0     H67157   3.082  12.064  10.240 -0.1300 -2.0213 -2.8169
  509MOL0     H67158   3.122  11.948  10.046  0.7199  2.6165  0.0847
  509MOL0     H67159   3.121  11.848  10.193  1.9403 -0.6471  1.9107
  509MOL0     H67160   3.359  11.947  10.031 -0.6859 -1.2243 -1.4489
  509MOL0     H67161   3.383  11.855  10.169  0.4573  2.2451  0.6361
  509MOL0     H67162   3.270  11.661  10.087 -1.2723  1.1771 -0.3629
  509MOL0     H67163   3.406  11.698   9.981  0.5776  1.5980 -1.5619
  509MOL0     H67164   3.115  11.741   9.911 -0.5185 -0.1025 -0.3375
  509MOL0     H67165   3.238  11.646   9.825 -0.0160 -0.8698  0.6592
  509MOL0     H67166   3.230  11.953   9.843 -2.2855  0.6193 -2.6617
  509MOL0     H67167   3.364  11.855   9.793 -0.4749 -1.1812  1.8804
  509MOL0     H67168   3.192  11.761   9.604 -1.5865 -0.1940  0.5118
  509MOL0     H67169   3.200  11.938   9.593 -1.8169  1.0896 -0.5756
  509MOL0     H67170   3.466  12.062  10.556  0.4991 -0.2389  3.3453
  509MOL0     H67171   3.674  11.952  10.625  0.8024  0.5037  1.5370
  509MOL0     H67172   3.976  11.628  10.602 -2.4357 -0.9698 -0.7963
  509MOL0     H67173   4.163  11.496  10.675  0.5533  0.3961  0.8166
  509MOL0     H67174   5.814  10.638  10.461  1.0187  1.2183 -0.5518
  509MOL0     H67175   6.054  10.607  10.512  2.8757 -3.3396  0.4422
  509MOL0     H67176   6.432  10.498  11.011 -1.3154  0.3602 -0.7127
  509MOL0     H67177   6.664  10.594  10.997  0.4737 -0.2500 -0.6009
  509MOL0     H67178   6.770  10.852  10.645 -2.8098  1.9738  1.4526
  509MOL0     H67179   6.907  10.859  10.733  1.2352 -2.1476  0.0381
  509MOL0     H67180   6.630  10.970  10.806  0.3816 -1.4176 -3.9397
  509MOL0     H67181   6.753  11.003  10.917 -4.0798  0.8390  0.3526
  509MOL0     H67182   6.728  11.095  10.630 -2.0209  0.8120  1.1316
  509MOL0     H67183   6.889  11.105  10.715 -0.0161 -0.6480  0.6037
  509MOL0     H67184   6.733  11.311  10.703 -3.8744 -1.3087 -1.1307
  509MOL0     H67185   6.621  11.227  10.811 -0.3989  0.0308 -1.0049
  509MOL0     H67186   6.946  11.384  11.050 -2.4540  3.4150  0.2409
  509MOL0     H67187   6.572  10.800  10.652 -0.8668  2.8945  0.5006
  509MOL0     H67188   6.343  10.683  10.635  1.9416  0.2598 -1.2867
  510MOL0     O67189   5.194   7.335  10.220 -0.4810 -0.8891  0.1847
  510MOL0     C67190   5.229   7.374  10.331  0.9010 -0.4532 -0.1641
  510MOL0     O67191   5.354   7.356  10.387  0.7217 -0.5406  0.0053
  510MOL0     C67192   5.429   7.270  10.319 -0.2973 -0.2518  0.5616
  510MOL0     C67193   5.441   7.137  10.358  0.0646 -0.2463  0.0983
  510MOL0     C67194   5.517   7.044  10.284 -0.6824 -0.4023 -0.8290
  510MOL0     C67195   5.585   7.089  10.176 -0.2089  0.5417  0.0613
  510MOL0     O67196   5.641   6.994  10.094  0.0595 -0.6672 -0.3211
  510MOL0     C67197   5.737   7.033  10.002 -0.6295  0.4535  0.9932
  510MOL0     C67198   5.878   7.016  10.075  0.9553 -0.0700  0.1471
  510MOL0     C67199   5.995   7.019   9.979  0.0598  0.1665  0.2761
  510MOL0     C67200   6.017   6.889   9.901 -0.0197  1.0695  0.2153
  510MOL0     C67201   6.100   6.914   9.770 -0.6035  0.0920 -0.2818
  510MOL0     C67202   6.124   6.784   9.700 -0.7059  0.6413 -0.0506
  510MOL0     C67203   6.231   6.815   9.589 -0.0203  1.4365  0.2839
  510MOL0     C67204   6.180   6.897   9.473 -0.0959  0.1153 -0.1628
  510MOL0     N67205   6.076   6.825   9.404 -0.4268 -0.0525  0.1652
  510MOL0     C67206   5.949   6.866   9.394 -0.3872 -0.1088 -0.0057
  510MOL0     C67207   5.893   6.809   9.288 -0.8848  0.5458 -0.0687
  510MOL0     C67208   5.760   6.805   9.219  0.0628  0.4588  0.2792
  510MOL0     C67209   5.757   6.889   9.083  0.0935 -0.1447 -0.4117
  510MOL0     C67210   5.618   6.886   9.009  0.6409 -0.1533 -0.2339
  510MOL0     C67211   5.501   6.948   9.092  0.0024  0.2390  0.1277
  510MOL0     O67212   5.378   6.936   9.017 -0.0035  0.3714  0.8780
  510MOL0     C67213   5.290   6.830   9.028  1.0026  0.4775 -0.9629
  510MOL0     C67214   5.162   6.856   8.981  0.4761  0.3770 -0.4164
  510MOL0     C67215   5.067   6.760   8.989 -0.0953  0.8627 -0.0134
  510MOL0     C67216   5.097   6.632   9.048  0.1776  0.9944  0.4477
  510MOL0     C67217   4.988   6.537   9.077 -0.4509 -0.4935 -0.8531
  510MOL0     O67218   4.873   6.602   9.103  1.0386 -0.5273 -0.1775
  510MOL0     C67219   4.758   6.537   9.143  0.8066 -0.4832  0.1453
  510MOL0     C67220   4.671   6.605   9.228  0.5917  0.4667  0.2078
  510MOL0     C67221   4.550   6.546   9.283 -1.4007 -0.0605  0.4301
  510MOL0     C67222   4.528   6.411   9.256  0.4472 -0.3107 -1.0659
  510MOL0     O67223   4.442   6.340   9.332  0.1733 -0.2359 -0.2802
  510MOL0     C67224   4.359   6.240   9.265  0.1035  0.6464 -0.3759
  510MOL0     C67225   4.227   6.225   9.338  0.0455  0.3983 -0.4412
  510MOL0     C67226   4.218   6.080   9.385  0.0441  0.4646 -0.6546
  510MOL0     C67227   4.065   6.063   9.416 -0.0957  0.8960  0.4663
  510MOL0     C67228   4.035   5.912   9.438 -0.2694 -0.9531  0.2935
  510MOL0     C67229   3.884   5.893   9.460  0.2007  0.3037 -0.0055
  510MOL0     C67230   3.847   5.765   9.531  1.2486  0.1345 -0.2007
  510MOL0     C67231   3.690   5.730   9.528 -0.0890  0.5996 -0.5835
  510MOL0    Cl67232   3.611   5.868   9.589 -0.3358 -0.3082 -0.1353
  510MOL0     C67233   4.603   6.348   9.157 -0.1678  0.3226  0.7894
  510MOL0     C67234   4.724   6.410   9.104  0.7466  0.0024 -0.1351
  510MOL0     O67235   5.012   6.418   9.075  0.0297  0.5919  0.5280
  510MOL0     C67236   5.222   6.606   9.103 -0.6905  0.2341 -0.2203
  510MOL0     C67237   5.317   6.709   9.089  1.5658  0.3209  0.0156
  510MOL0     N67238   5.989   6.739   9.229  0.8103  0.4500 -0.2163
  510MOL0     N67239   6.095   6.746   9.298  0.1918 -0.6833 -0.2181
  510MOL0     C67240   5.577   7.233  10.149 -0.2327 -0.2645  0.1546
  510MOL0     C67241   5.502   7.321  10.217  0.6663  0.3529  0.4530
  510MOL0     C67242   5.137   7.471  10.401  0.1104  0.2948  0.3658
  510MOL0     C67243   5.179   7.564  10.493 -0.0620  0.3778 -0.2336
  510MOL0     C67244   5.085   7.626  10.573 -0.5400  0.6001 -0.3200
  510MOL0     C67245   4.944   7.604  10.553 -0.5144  0.5171  0.1519
  510MOL0     O67246   4.858   7.667  10.630 -0.2975 -0.3085  0.8590
  510MOL0     C67247   4.865   7.646  10.773  0.0908  0.9522  1.0068
  510MOL0     C67248   4.757   7.728  10.848  0.1539 -0.1526 -0.7694
  510MOL0     C67249   4.610   7.683  10.818 -0.1399  0.4318  0.5708
  510MOL0     C67250   4.502   7.770  10.888  0.0200 -0.0130 -0.5515
  510MOL0     C67251   4.534   7.912  10.880  0.1119 -0.8205  0.5800
  510MOL0     C67252   4.568   8.026  10.866  1.2090  0.1006  0.7936
  510MOL0     C67253   4.901   7.525  10.446 -0.3039 -0.5687 -0.1483
  510MOL0     C67254   5.002   7.455  10.379  0.2393 -0.0415  0.1963
  510MOL0     H67255   5.369   7.103  10.432  1.0210 -2.5725  0.0360
  510MOL0     H67256   5.516   6.939  10.311 -2.4468 -0.0138  0.8863
  510MOL0     H67257   5.737   7.134   9.962  1.3955  0.1369  0.0794
  510MOL0     H67258   5.729   6.958   9.922 -0.9182  0.7930  0.6974
  510MOL0     H67259   5.874   6.921  10.130 -4.1935  0.2089  0.7632
  510MOL0     H67260   5.892   7.100  10.144  1.8484 -0.7782  0.8390
  510MOL0     H67261   6.089   7.028  10.036  0.9735 -2.2047 -0.7339
  510MOL0     H67262   5.990   7.094   9.901  2.2035 -0.7051 -0.7900
  510MOL0     H67263   6.057   6.815   9.971 -0.4763  0.9368  0.3439
  510MOL0     H67264   5.923   6.854   9.856 -0.1562 -1.2146  2.0540
  510MOL0     H67265   6.194   6.967   9.789 -1.2886  0.3680  2.9878
  510MOL0     H67266   6.041   6.971   9.698 -3.3489 -4.0539 -1.6973
  510MOL0     H67267   6.033   6.741   9.657 -0.3037 -0.8028  0.5101
  510MOL0     H67268   6.175   6.715   9.767  0.0883  1.9692  0.7666
  510MOL0     H67269   6.318   6.853   9.642  0.6349 -0.6064  0.7699
  510MOL0     H67270   6.258   6.720   9.542  2.9582  1.7009  1.2735
  510MOL0     H67271   6.256   6.924   9.400  0.2138  1.8691  0.7646
  510MOL0     H67272   6.127   6.987   9.503 -0.9692 -0.8455  1.3460
  510MOL0     H67273   5.913   6.940   9.465  1.4186 -0.5842  1.4790
  510MOL0     H67274   5.673   6.829   9.282  0.7546 -1.9883  2.3345
  510MOL0     H67275   5.746   6.700   9.194 -2.0793  0.6402  0.4824
  510MOL0     H67276   5.835   6.852   9.016  1.9286  2.0952  0.3549
  510MOL0     H67277   5.778   6.989   9.122 -0.2153 -0.1585 -0.2012
  510MOL0     H67278   5.617   6.957   8.926  0.7307  2.7360  2.0885
  510MOL0     H67279   5.592   6.784   8.978 -1.3500  0.0114  0.7351
  510MOL0     H67280   5.529   7.050   9.121  3.2502 -0.5867  0.2880
  510MOL0     H67281   5.478   6.897   9.186  2.8879 -1.1960  0.1648
  510MOL0     H67282   5.139   6.950   8.932  1.2957  2.0316  2.2100
  510MOL0     H67283   4.971   6.777   8.942 -0.3727 -2.1780 -0.8117
  510MOL0     H67284   4.698   6.708   9.250  1.8736  0.0326  0.7862
  510MOL0     H67285   4.479   6.601   9.345 -1.3310  3.0274 -1.9851
  510MOL0     H67286   4.420   6.149   9.275  1.0247  1.3948  1.1647
  510MOL0     H67287   4.340   6.260   9.159 -3.3100 -0.7956 -0.1595
  510MOL0     H67288   4.140   6.244   9.275 -1.0823  0.2858  1.0281
  510MOL0     H67289   4.221   6.293   9.424  3.4512  1.1110 -0.6215
  510MOL0     H67290   4.289   6.058   9.465 -1.1500  0.3441  0.4039
  510MOL0     H67291   4.242   6.008   9.306 -3.4359  1.3353 -2.7261
  510MOL0     H67292   4.027   6.119   9.502 -4.0214  0.6494 -0.9136
  510MOL0     H67293   3.998   6.085   9.332  0.6118 -0.7408 -0.5771
  510MOL0     H67294   4.101   5.877   9.518  1.3049  0.0129 -0.5155
  510MOL0     H67295   4.064   5.867   9.342 -0.3033 -0.3099 -0.0278
  510MOL0     H67296   3.838   5.896   9.361  0.6610  1.1655 -0.2023
  510MOL0     H67297   3.835   5.970   9.521 -0.7966  0.0017 -0.3989
  510MOL0     H67298   3.907   5.680   9.496  0.6287 -0.5580  0.4001
  510MOL0     H67299   3.862   5.786   9.637  1.2046  1.3500 -0.4200
  510MOL0     H67300   3.656   5.645   9.588 -1.3256  0.1761 -1.8066
  510MOL0     H67301   3.668   5.726   9.421 -2.4835 -2.0284 -0.1197
  510MOL0     H67302   4.581   6.246   9.128 -1.7989  1.1295 -1.0482
  510MOL0     H67303   4.786   6.356   9.033  0.4203 -1.2270  0.4858
  510MOL0     H67304   5.246   6.517   9.160 -2.1675 -0.3177 -0.4235
  510MOL0     H67305   5.420   6.693   9.118  2.3349 -2.6639 -3.6097
  510MOL0     H67306   5.632   7.275  10.065  0.6321  0.7489  1.1906
  510MOL0     H67307   5.500   7.428  10.198  1.8279  0.4839  1.0051
  510MOL0     H67308   5.283   7.566  10.524 -0.0537 -0.0277 -0.2384
  510MOL0     H67309   5.112   7.693  10.654  1.8611  2.7090 -2.6490
  510MOL0     H67310   4.962   7.678  10.811 -0.0257 -0.1570  2.3131
  510MOL0     H67311   4.860   7.542  10.808  4.2361 -0.0646 -0.8256
  510MOL0     H67312   4.773   7.724  10.956 -2.1748  3.4191 -0.1245
  510MOL0     H67313   4.782   7.830  10.817  0.9250 -0.1449 -0.1342
  510MOL0     H67314   4.602   7.583  10.863  0.0325 -0.0894 -0.5125
  510MOL0     H67315   4.597   7.679  10.709  1.7702 -0.1672  0.3154
  510MOL0     H67316   4.401   7.757  10.848 -0.8970  0.5611  1.4220
  510MOL0     H67317   4.504   7.728  10.989  0.3413 -0.5070 -0.7607
  510MOL0     H67318   4.608   8.125  10.853  2.2226 -0.5102 -1.1148
  510MOL0     H67319   4.794   7.525  10.427 -0.5827  3.3593  0.6168
  510MOL0     H67320   4.957   7.396  10.300 -1.8739 -0.4148  1.6015
  511MOL0     O67321  10.383   6.442   7.107 -0.1164  0.4538 -0.3527
  511MOL0     C67322  10.277   6.425   7.181 -0.7234 -0.7556 -0.8053
  511MOL0     O67323  10.257   6.329   7.279 -0.3704 -0.5202 -0.0682
  511MOL0     C67324  10.351   6.244   7.331  0.1229 -0.1390  0.1302
  511MOL0     C67325  10.300   6.182   7.452 -0.7437  1.2985 -0.2820
  511MOL0     C67326  10.390   6.122   7.539  0.4062 -0.3580 -0.7986
  511MOL0     C67327  10.515   6.094   7.494 -1.1777  0.3342  0.1735
  511MOL0     O67328  10.596   6.026   7.583  0.2314 -0.0421 -0.4514
  511MOL0     C67329  10.715   5.963   7.543 -0.0184 -0.1239  0.5037
  511MOL0     C67330  10.768   5.871   7.656 -0.4899  0.8162  0.7572
  511MOL0     C67331  10.695   5.731   7.634  0.5720 -0.0416 -0.4200
  511MOL0     C67332  10.769   5.624   7.708  0.2212 -0.2791 -1.1628
  511MOL0     C67333  10.706   5.488   7.704 -0.1574  0.4871 -0.0320
  511MOL0     C67334  10.790   5.388   7.800  0.3889  0.7773  0.5145
  511MOL0     C67335  10.737   5.244   7.790  0.0862 -0.5901  0.0117
  511MOL0     C67336  10.752   5.174   7.932  0.0787 -0.9766  0.3982
  511MOL0     N67337  10.887   5.153   7.977 -0.3164  0.3307  0.3449
  511MOL0     C67338  10.992   5.100   7.899  0.4154  0.1421 -0.1638
  511MOL0     C67339  11.102   5.117   7.966  0.0702  0.2281 -0.5458
  511MOL0     C67340  11.247   5.077   7.927  0.8995 -1.0061 -0.0251
  511MOL0     C67341  11.283   4.928   7.910 -0.2261 -0.1648  0.5399
  511MOL0     C67342  11.283   4.853   8.040  0.0730  0.5376  0.3444
  511MOL0     C67343  11.145   4.807   8.099 -0.9291  0.2970  0.2617
  511MOL0     O67344  11.070   4.740   7.997 -0.1457 -0.4828 -0.2339
  511MOL0     C67345  10.938   4.719   8.032  0.9684 -0.3114  0.4068
  511MOL0     C67346  10.884   4.718   8.165 -0.6860  0.3996 -0.3422
  511MOL0     C67347  10.754   4.699   8.194  1.0633  0.4589 -0.5433
  511MOL0     C67348  10.662   4.684   8.085 -0.0210 -0.1206 -0.2162
  511MOL0     C67349  10.514   4.675   8.114 -0.4758  0.1424  0.3058
  511MOL0     O67350  10.432   4.701   8.014  1.0870 -0.7754 -1.0220
  511MOL0     C67351  10.302   4.640   8.005  0.2591 -0.1234  0.2587
  511MOL0     C67352  10.220   4.688   7.905  0.5128  1.1990 -0.9302
  511MOL0     C67353  10.099   4.635   7.873  0.4661 -0.1452 -0.1522
  511MOL0     C67354  10.043   4.531   7.946 -0.4376 -1.2595 -0.2668
  511MOL0     O67355   9.911   4.486   7.921 -1.1835 -0.3622 -1.0839
  511MOL0     C67356   9.826   4.536   7.812  0.2523  0.7137  0.2118
  511MOL0     C67357   9.690   4.471   7.816 -0.0663  0.6372 -0.3310
  511MOL0     C67358   9.605   4.498   7.685 -0.0102  0.7783 -1.0680
  511MOL0     C67359   9.660   4.435   7.559 -0.1771  0.3930  0.2191
  511MOL0     C67360   9.583   4.469   7.433  0.2598  0.5091 -0.4625
  511MOL0     C67361   9.582   4.626   7.399 -0.7786  0.8839 -0.5655
  511MOL0     C67362   9.464   4.645   7.300 -0.5041  0.1505 -0.3044
  511MOL0     C67363   9.498   4.751   7.193 -0.1873  0.0256 -0.0225
  511MOL0    Cl67364   9.647   4.714   7.099 -0.1178 -0.4379 -0.2405
  511MOL0     C67365  10.124   4.476   8.050  0.3742  0.9105 -0.1161
  511MOL0     C67366  10.249   4.525   8.083 -0.0882  0.4277 -0.9017
  511MOL0     O67367  10.491   4.618   8.218 -0.2059  0.0184  0.3623
  511MOL0     C67368  10.710   4.679   7.955  0.5137 -0.0311 -0.0786
  511MOL0     C67369  10.846   4.680   7.932 -1.4138 -0.1742 -0.7087
  511MOL0     N67370  11.063   5.181   8.084  0.4647 -0.8958 -0.3893
  511MOL0     N67371  10.936   5.205   8.096  0.4837  0.3400  0.1220
  511MOL0     C67372  10.563   6.144   7.373 -0.0472  0.9435  0.5363
  511MOL0     C67373  10.481   6.221   7.295  0.3760 -0.0869  0.6902
  511MOL0     C67374  10.171   6.516   7.152 -0.0200  0.3845 -0.2732
  511MOL0     C67375  10.049   6.503   7.221  0.7344 -0.8207 -0.2311
  511MOL0     C67376   9.948   6.591   7.190  0.3589  0.8309 -1.1025
  511MOL0     C67377   9.953   6.679   7.085  0.8020  0.4788  0.3447
  511MOL0     O67378   9.854   6.770   7.059  0.6947 -0.0214  0.0596
  511MOL0     C67379   9.722   6.710   7.020 -0.0094  0.4176 -0.0633
  511MOL0     C67380   9.604   6.770   7.100 -0.9362  0.2865  0.4111
  511MOL0     C67381   9.628   6.768   7.259  0.2628  0.4767 -0.1311
  511MOL0     C67382   9.516   6.830   7.331 -0.1709  0.2912  0.2553
  511MOL0     C67383   9.402   6.743   7.345  0.0379  0.3858  0.0150
  511MOL0     C67384   9.318   6.659   7.359  0.0740  0.0115  0.5635
  511MOL0     C67385  10.069   6.680   7.007  0.2024 -0.2751  0.2095
  511MOL0     C67386  10.182   6.593   7.037  1.2429  0.1134  0.0990
  511MOL0     H67387  10.194   6.189   7.475 -0.7746 -2.5129  1.6086
  511MOL0     H67388  10.372   6.089   7.641  3.9947  1.3048  0.5697
  511MOL0     H67389  10.791   6.042   7.538 -0.1504 -0.0500 -0.4194
  511MOL0     H67390  10.723   5.908   7.449  0.4003 -0.3057  0.6456
  511MOL0     H67391  10.746   5.918   7.752 -0.3511 -2.3001  2.4252
  511MOL0     H67392  10.875   5.856   7.636 -0.5055 -1.7766  2.1307
  511MOL0     H67393  10.697   5.697   7.530  2.3242 -0.5178 -0.2621
  511MOL0     H67394  10.592   5.735   7.670 -0.6531 -5.3518 -2.3640
  511MOL0     H67395  10.871   5.638   7.672 -0.2644  1.2217 -2.0598
  511MOL0     H67396  10.774   5.642   7.815 -1.3803 -0.5082 -1.0163
  511MOL0     H67397  10.709   5.457   7.599 -0.9413  2.0682 -0.5614
  511MOL0     H67398  10.599   5.496   7.727 -0.1663  3.1524 -0.6490
  511MOL0     H67399  10.780   5.429   7.900  1.5239 -1.2222  1.5064
  511MOL0     H67400  10.896   5.399   7.777  0.0671  1.2930 -0.8512
  511MOL0     H67401  10.629   5.252   7.774 -0.0145  2.0522  1.4840
  511MOL0     H67402  10.792   5.181   7.719  2.3159  0.7576  0.4346
  511MOL0     H67403  10.690   5.084   7.936 -1.0292 -0.3940 -1.7650
  511MOL0     H67404  10.702   5.242   8.002  0.1784  1.7866 -2.0008
  511MOL0     H67405  10.991   5.045   7.805  0.0723 -0.0712 -0.0354
  511MOL0     H67406  11.312   5.121   8.003  1.5024 -1.8199 -0.0612
  511MOL0     H67407  11.260   5.122   7.829  0.5279 -0.0129  0.3661
  511MOL0     H67408  11.381   4.918   7.863 -1.5433 -0.3676 -2.3611
  511MOL0     H67409  11.217   4.880   7.837  2.4603 -1.0941 -1.3943
  511MOL0     H67410  11.337   4.761   8.015 -0.9412 -0.1967  0.8038
  511MOL0     H67411  11.339   4.912   8.113 -0.0274  0.0645  0.8095
  511MOL0     H67412  11.079   4.886   8.137 -1.4482  0.5695 -1.1585
  511MOL0     H67413  11.170   4.738   8.180 -0.7458 -1.5869 -1.3289
  511MOL0     H67414  10.947   4.742   8.250 -4.8603 -1.6458  3.7812
  511MOL0     H67415  10.705   4.706   8.291 -0.2486  1.6033 -1.2607
  511MOL0     H67416  10.253   4.770   7.841 -1.9039  1.6312 -1.7415
  511MOL0     H67417  10.032   4.679   7.800 -0.3343  1.2717  1.3554
  511MOL0     H67418   9.876   4.510   7.719 -0.3781 -1.0915  0.3179
  511MOL0     H67419   9.820   4.644   7.827 -0.8944  0.7347 -0.3121
  511MOL0     H67420   9.636   4.513   7.901  1.5648  0.0298  1.0584
  511MOL0     H67421   9.705   4.363   7.812 -0.9618  0.5068 -0.4880
  511MOL0     H67422   9.563   4.598   7.671 -0.7661  0.4844 -0.9509
  511MOL0     H67423   9.512   4.445   7.708 -1.3764  3.3897 -0.1519
  511MOL0     H67424   9.765   4.460   7.541 -0.4759  0.8991 -0.8943
  511MOL0     H67425   9.667   4.326   7.568 -1.4745  0.1548 -1.2786
  511MOL0     H67426   9.489   4.428   7.471  0.0161  0.5889 -0.9777
  511MOL0     H67427   9.605   4.405   7.347 -1.9457 -0.2072 -0.5481
  511MOL0     H67428   9.673   4.664   7.351 -1.5144  3.1087 -0.3205
  511MOL0     H67429   9.571   4.689   7.488 -0.2973 -0.9540  0.8453
  511MOL0     H67430   9.446   4.555   7.240 -1.6895  2.1267 -3.1305
  511MOL0     H67431   9.366   4.661   7.345 -0.1634  0.8067  0.2112
  511MOL0     H67432   9.494   4.851   7.238  0.1568 -0.0960  0.2922
  511MOL0     H67433   9.415   4.746   7.123  0.2282 -2.0148 -0.4526
  511MOL0     H67434  10.089   4.388   8.104 -0.6329 -0.3558 -2.6613
  511MOL0     H67435  10.306   4.489   8.169 -0.5610  0.2304 -0.6679
  511MOL0     H67436  10.634   4.658   7.880 -1.4866 -1.6243  2.2445
  511MOL0     H67437  10.896   4.686   7.836  0.8865  2.3016  0.5194
  511MOL0     H67438  10.662   6.121   7.335  0.7740  2.8230  1.3958
  511MOL0     H67439  10.512   6.265   7.201 -5.6737  0.4388 -1.5454
  511MOL0     H67440  10.044   6.435   7.305  3.0675 -0.5580  0.1903
  511MOL0     H67441   9.854   6.590   7.245  1.1232  1.0871  0.2348
  511MOL0     H67442   9.739   6.602   7.031  1.1188  0.4602 -1.1574
  511MOL0     H67443   9.695   6.714   6.914 -3.7183  1.4869  0.7962
  511MOL0     H67444   9.592   6.874   7.070 -0.5566 -0.2590 -1.7909
  511MOL0     H67445   9.513   6.715   7.075  1.9810 -4.1963 -1.5505
  511MOL0     H67446   9.719   6.821   7.289 -0.0458  0.6332  0.5275
  511MOL0     H67447   9.639   6.665   7.294  2.4621  0.5011 -0.6280
  511MOL0     H67448   9.542   6.872   7.429 -1.8153  0.3766  0.6879
  511MOL0     H67449   9.482   6.922   7.282 -4.4212 -1.8660 -1.3431
  511MOL0     H67450   9.241   6.585   7.349  1.2367 -0.9611 -2.0950
  511MOL0     H67451  10.072   6.747   6.921  1.3871 -1.2771 -0.5472
  511MOL0     H67452  10.271   6.604   6.976  2.2285 -0.1607  1.4438
  512MOL0     O67453   1.452   1.146   8.188 -0.2668  0.4632  0.2081
  512MOL0     C67454   1.485   1.063   8.276  0.0095  0.1384 -0.6978
  512MOL0     O67455   1.403   0.970   8.337  0.7988  0.1446  0.1436
  512MOL0     C67456   1.270   0.984   8.307 -0.1030 -0.0045  0.2440
  512MOL0     C67457   1.202   0.891   8.219  0.0303  0.7133 -0.1249
  512MOL0     C67458   1.068   0.903   8.184  0.5848 -1.8383 -0.0815
  512MOL0     C67459   0.999   1.013   8.246  0.0202  0.2314  0.0005
  512MOL0     O67460   0.868   1.001   8.222  0.0078  0.0390 -0.1459
  512MOL0     C67461   0.780   1.067   8.309  0.5903  0.3455  0.3187
  512MOL0     C67462   0.637   1.077   8.250  0.2934 -0.7298 -0.3798
  512MOL0     C67463   0.534   1.012   8.340  0.0883 -0.5661  0.4792
  512MOL0     C67464   0.542   0.858   8.351 -0.5891 -0.5356 -0.6149
  512MOL0     C67465   0.451   0.800   8.458  0.8356  0.6051 -0.4388
  512MOL0     C67466   0.297   0.822   8.431  0.1861  0.0342 -0.8214
  512MOL0     C67467   0.214   0.748   8.531 -0.0229 -0.0352 -0.6638
  512MOL0     C67468   0.063   0.760   8.505 -0.0154 -0.3224 -0.8690
  512MOL0     N67469  -0.010   0.637   8.522  0.6765 -0.0887 -0.5460
  512MOL0     C67470  -0.016   0.559   8.638  0.0814  0.9205 -0.4891
  512MOL0     C67471  -0.091   0.455   8.595  0.6016 -0.4457  0.1750
  512MOL0     C67472  -0.114   0.330   8.672  0.4127 -0.4612  0.4419
  512MOL0     C67473  -0.253   0.318   8.732 -0.0828 -0.5590  0.0416
  512MOL0     C67474  -0.288   0.192   8.818 -0.0744 -1.1666  1.2660
  512MOL0     C67475  -0.325   0.066   8.730  0.3518  0.4316 -0.2217
  512MOL0     O67476  -0.384  -0.022   8.828  0.6749 -0.1795 -1.1167
  512MOL0     C67477  -0.519  -0.016   8.859 -0.3968  0.6468 -0.3679
  512MOL0     C67478  -0.569  -0.112   8.949  0.2218 -0.0225 -1.3039
  512MOL0     C67479  -0.706  -0.121   8.975 -0.0834  0.2160 -0.2400
  512MOL0     C67480  -0.791  -0.028   8.914  0.2994 -1.2780  0.1763
  512MOL0     C67481  -0.942  -0.031   8.931  0.2066  1.0752 -0.1844
  512MOL0     O67482  -1.020   0.050   8.856  0.2879 -0.1728 -0.6310
  512MOL0     C67483  -1.148   0.016   8.823  0.6169  0.0870  0.4968
  512MOL0     C67484  -1.237  -0.003   8.925 -0.0933  0.8648 -0.3656
  512MOL0     C67485  -1.369  -0.031   8.901  0.3390 -0.8290 -0.3403
  512MOL0     C67486  -1.413  -0.052   8.769 -0.7675  0.9428 -0.0353
  512MOL0     O67487  -1.538  -0.113   8.742 -0.1943  0.3544 -0.5413
  512MOL0     C67488  -1.646  -0.077   8.830 -0.1652 -0.4375 -0.4102
  512MOL0     C67489  -1.764  -0.158   8.776 -0.0430 -0.0577 -0.2578
  512MOL0     C67490  -1.878  -0.153   8.864 -0.6398 -0.5374  0.3986
  512MOL0     C67491  -1.982  -0.242   8.809 -0.2805 -0.0365 -0.4300
  512MOL0     C67492  -2.106  -0.227   8.896 -0.0226 -0.3343 -0.1450
  512MOL0     C67493  -2.220  -0.321   8.848 -0.9659 -0.2981  0.1327
  512MOL0     C67494  -2.308  -0.352   8.968  0.0462  0.0731  0.7731
  512MOL0     C67495  -2.379  -0.229   9.024  0.6066  0.6262  0.6567
  512MOL0    Cl67496  -2.484  -0.146   8.899  0.3071 -0.1500 -1.0105
  512MOL0     C67497  -1.319  -0.034   8.667  0.1327 -0.3820 -0.1305
  512MOL0     C67498  -1.184  -0.001   8.693 -0.0064 -0.0646  0.9072
  512MOL0     O67499  -0.987  -0.118   9.008  0.7980 -0.1070 -0.0886
  512MOL0     C67500  -0.739   0.076   8.830  0.5878  0.3046 -0.2422
  512MOL0     C67501  -0.605   0.074   8.795  0.5578 -0.3229 -0.6276
  512MOL0     N67502  -0.130   0.479   8.460 -0.3499 -0.3277 -0.7179
  512MOL0     N67503  -0.087   0.597   8.429 -0.1958  0.1865  0.1198
  512MOL0     C67504   1.063   1.094   8.347 -0.2432 -0.7084 -0.1520
  512MOL0     C67505   1.197   1.084   8.373 -0.3514  1.3352 -0.6264
  512MOL0     C67506   1.625   1.034   8.302 -0.6372 -0.1491 -0.7573
  512MOL0     C67507   1.662   0.945   8.401 -1.1024 -0.9147  0.3821
  512MOL0     C67508   1.798   0.913   8.417  0.4955 -0.5230  0.2658
  512MOL0     C67509   1.902   0.959   8.328  0.5364 -0.9704 -0.1905
  512MOL0     O67510   2.041   0.930   8.330  0.0272 -0.5612 -0.6143
  512MOL0     C67511   2.085   0.813   8.400  0.5956  0.0256  0.1671
  512MOL0     C67512   2.229   0.780   8.369 -0.0608  0.0076  0.4987
  512MOL0     C67513   2.322   0.889   8.419 -0.3561  1.0907 -0.7632
  512MOL0     C67514   2.451   0.881   8.334  0.4449 -0.8713  0.1490
  512MOL0     C67515   2.533   0.757   8.329 -0.4222  0.1930  0.1751
  512MOL0     C67516   2.607   0.660   8.339  0.3963 -0.0038  0.4630
  512MOL0     C67517   1.859   1.047   8.228  0.8983  0.1260 -0.5918
  512MOL0     C67518   1.722   1.066   8.209 -0.6572  0.1571 -0.5657
  512MOL0     H67519   1.254   0.812   8.166 -0.6258 -0.1399  0.4786
  512MOL0     H67520   1.021   0.825   8.126  1.9242 -0.6254 -3.0039
  512MOL0     H67521   0.812   1.167   8.341 -0.7865  0.3128  1.8900
  512MOL0     H67522   0.777   1.004   8.398  1.2747 -0.2629 -0.0802
  512MOL0     H67523   0.637   1.043   8.146  0.4132 -0.4868 -0.4611
  512MOL0     H67524   0.620   1.185   8.237  1.0596 -0.5430  0.1148
  512MOL0     H67525   0.435   1.033   8.297 -1.1878 -3.4845  1.7454
  512MOL0     H67526   0.539   1.059   8.439  3.6141 -0.0561  0.2012
  512MOL0     H67527   0.504   0.806   8.262 -2.0882 -0.3409 -0.1258
  512MOL0     H67528   0.643   0.819   8.365 -1.1919 -1.6451  0.9241
  512MOL0     H67529   0.480   0.855   8.548 -0.6408 -0.1051  0.5084
  512MOL0     H67530   0.475   0.694   8.473  3.7859  1.3128  0.4867
  512MOL0     H67531   0.272   0.789   8.330  0.5164  0.4582 -1.0449
  512MOL0     H67532   0.282   0.930   8.436 -0.0234 -0.0046 -0.5821
  512MOL0     H67533   0.256   0.648   8.522  2.1131  0.8970 -1.9863
  512MOL0     H67534   0.237   0.777   8.634 -4.0416  0.6662  0.1813
  512MOL0     H67535   0.043   0.808   8.408  1.1633  0.4452 -0.7505
  512MOL0     H67536   0.018   0.823   8.582  1.5091  2.1469 -1.8533
  512MOL0     H67537   0.037   0.572   8.732  0.7387  0.0516 -0.7189
  512MOL0     H67538  -0.046   0.340   8.758  0.2528 -1.6504  0.7367
  512MOL0     H67539  -0.088   0.239   8.617  0.1762 -0.4036  0.2377
  512MOL0     H67540  -0.326   0.316   8.651 -1.1908  0.5217  0.9690
  512MOL0     H67541  -0.283   0.407   8.789  1.2050  0.6680 -1.1244
  512MOL0     H67542  -0.198   0.170   8.875  2.5584  0.9571 -1.7247
  512MOL0     H67543  -0.370   0.214   8.887 -0.0697  1.6312  0.5052
  512MOL0     H67544  -0.233   0.024   8.689  1.3712  0.0549  2.2983
  512MOL0     H67545  -0.388   0.089   8.643  0.9592  0.0817 -0.7676
  512MOL0     H67546  -0.497  -0.173   9.002 -0.7605  1.6857  2.3284
  512MOL0     H67547  -0.740  -0.203   9.038 -1.0931 -1.3086 -2.6341
  512MOL0     H67548  -1.214  -0.003   9.030 -2.9720  1.6622  0.3599
  512MOL0     H67549  -1.436  -0.055   8.982  0.4116 -2.1676 -0.6590
  512MOL0     H67550  -1.690   0.023   8.825 -0.8001 -0.5175  1.9468
  512MOL0     H67551  -1.623  -0.097   8.935 -0.2184  2.4320  0.2547
  512MOL0     H67552  -1.736  -0.264   8.767 -3.6494 -1.0177 -2.7377
  512MOL0     H67553  -1.790  -0.125   8.675 -2.1229  2.6087  1.0288
  512MOL0     H67554  -1.908  -0.048   8.873  0.4522  0.1691 -2.9842
  512MOL0     H67555  -1.858  -0.189   8.966  1.6838  0.9754  0.5643
  512MOL0     H67556  -1.985  -0.223   8.701  2.8527  0.4906 -0.5020
  512MOL0     H67557  -1.947  -0.346   8.813  3.6920  1.1493 -0.8356
  512MOL0     H67558  -2.143  -0.125   8.876  1.3549 -0.2244 -2.4165
  512MOL0     H67559  -2.082  -0.241   9.002  0.1885  0.2057 -0.1154
  512MOL0     H67560  -2.179  -0.420   8.822 -1.4613 -0.7067  0.8942
  512MOL0     H67561  -2.269  -0.273   8.763 -1.1985  0.3570  0.6303
  512MOL0     H67562  -2.383  -0.423   8.931 -2.0830  0.4837  3.9644
  512MOL0     H67563  -2.263  -0.411   9.048  3.6474 -0.2735 -1.2706
  512MOL0     H67564  -2.304  -0.154   9.049  2.5836  0.0659 -2.8874
  512MOL0     H67565  -2.446  -0.253   9.107 -1.4632 -1.2307 -1.4072
  512MOL0     H67566  -1.361  -0.051   8.568 -0.8397 -3.1551  0.6605
  512MOL0     H67567  -1.106  -0.002   8.618 -2.3538 -0.7566 -1.6901
  512MOL0     H67568  -0.801   0.145   8.774 -1.8432 -1.2648  0.3462
  512MOL0     H67569  -0.587   0.149   8.720  2.5552 -0.3528 -0.2408
  512MOL0     H67570   1.011   1.174   8.398 -0.8754  0.7807 -2.9445
  512MOL0     H67571   1.248   1.158   8.433 -1.4921  0.0909  2.0247
  512MOL0     H67572   1.597   0.909   8.480 -1.1562 -1.5369  0.0626
  512MOL0     H67573   1.835   0.852   8.499 -1.0142  0.2088  1.5576
  512MOL0     H67574   2.024   0.725   8.375 -0.6034  0.7275  0.5280
  512MOL0     H67575   2.069   0.815   8.508  0.9591 -1.1220  0.2625
  512MOL0     H67576   2.256   0.682   8.410  3.5855  0.5452 -0.2682
  512MOL0     H67577   2.237   0.758   8.263 -1.9812  1.2939  0.0330
  512MOL0     H67578   2.354   0.884   8.523  1.9418  0.8535 -1.4374
  512MOL0     H67579   2.260   0.978   8.401 -1.7220  0.3732  0.2270
  512MOL0     H67580   2.439   0.921   8.233 -3.6670 -1.6719  0.1671
  512MOL0     H67581   2.511   0.962   8.376 -0.5203 -0.6053  1.0489
  512MOL0     H67582   2.674   0.576   8.344 -0.5224 -0.7129  1.2439
  512MOL0     H67583   1.929   1.080   8.152  0.2657  0.3134 -1.0953
  512MOL0     H67584   1.702   1.114   8.114 -0.1457  2.0802  0.2515
  513MOL0     O67585   8.635   7.451   8.965  0.3351 -0.0609  0.9000
  513MOL0     C67586   8.671   7.485   9.076  0.2966  0.4869  0.3649
  513MOL0     O67587   8.588   7.530   9.169  0.1059  0.6340 -0.4211
  513MOL0     C67588   8.457   7.563   9.143 -0.2638 -0.3204  0.2856
  513MOL0     C67589   8.415   7.659   9.049  0.1592 -1.0950 -0.4566
  513MOL0     C67590   8.280   7.701   9.056 -0.3684  0.2006 -0.1475
  513MOL0     C67591   8.191   7.639   9.135  0.6031  0.1521  0.8064
  513MOL0     O67592   8.056   7.670   9.139 -0.1985  0.8835  0.2115
  513MOL0     C67593   8.004   7.751   9.036  0.1986 -1.1309  0.3193
  513MOL0     C67594   7.849   7.775   9.053  0.3665 -0.0737 -0.5778
  513MOL0     C67595   7.825   7.815   9.200  0.6587 -0.9345  0.1355
  513MOL0     C67596   7.712   7.908   9.214 -0.1123 -0.6493 -0.5072
  513MOL0     C67597   7.688   7.956   9.351  0.4681 -0.2661  0.7018
  513MOL0     C67598   7.542   7.949   9.394 -0.1928 -0.3099  0.4981
  513MOL0     C67599   7.493   7.817   9.460 -0.2775  0.1019  0.5985
  513MOL0     C67600   7.524   7.800   9.609 -0.1764 -0.1743 -0.0750
  513MOL0     N67601   7.404   7.780   9.693 -0.2713 -0.0203 -0.0757
  513MOL0     C67602   7.327   7.661   9.699  0.8459  0.6205 -0.1114
  513MOL0     C67603   7.217   7.707   9.766 -0.2660 -0.7575  0.7684
  513MOL0     C67604   7.096   7.626   9.808  0.6035  0.2144  0.4861
  513MOL0     C67605   7.129   7.525   9.921  0.3822 -0.6358 -0.1808
  513MOL0     C67606   7.006   7.477   9.999  0.3319 -0.3031  0.0519
  513MOL0     C67607   6.893   7.416   9.919 -0.7874  0.3670  0.1231
  513MOL0     O67608   6.802   7.338  10.004  0.0785 -0.4098  0.3754
  513MOL0     C67609   6.670   7.342   9.975  0.7539 -0.6367  0.9570
  513MOL0     C67610   6.577   7.352  10.078 -0.2082  0.2023  0.8771
  513MOL0     C67611   6.438   7.325  10.050  1.3644  0.7714 -0.1068
  513MOL0     C67612   6.388   7.305   9.919 -0.7164  0.5448  0.6800
  513MOL0     C67613   6.240   7.290   9.890  0.2970  0.0388 -0.2453
  513MOL0     O67614   6.159   7.351   9.994  0.6004 -0.4598  0.6757
  513MOL0     C67615   6.034   7.395   9.971 -0.6069  0.9123  0.5647
  513MOL0     C67616   5.951   7.401  10.078 -0.3247 -0.3864  0.0060
  513MOL0     C67617   5.820   7.453  10.077 -0.0554 -0.6429 -0.7945
  513MOL0     C67618   5.774   7.493   9.955  0.4428  0.1733  0.4386
  513MOL0     O67619   5.648   7.534   9.956  0.7259 -0.2713 -0.1867
  513MOL0     C67620   5.590   7.575   9.840 -0.4642 -0.3763  0.1718
  513MOL0     C67621   5.466   7.646   9.876  0.0544  1.0739 -0.5309
  513MOL0     C67622   5.340   7.549   9.910  0.0807  1.0779 -0.6808
  513MOL0     C67623   5.217   7.640   9.882 -0.1361  0.2494  0.2248
  513MOL0     C67624   5.096   7.570   9.933  0.1901  0.4941 -1.1265
  513MOL0     C67625   4.966   7.659   9.946 -0.7979 -0.6260 -0.0570
  513MOL0     C67626   4.860   7.584  10.028  0.4537 -0.1379 -0.4077
  513MOL0     C67627   4.717   7.636  10.014  0.1432 -0.3105  0.0727
  513MOL0    Cl67628   4.604   7.499   9.954 -0.1168 -0.1752 -0.1600
  513MOL0     C67629   5.856   7.484   9.842 -0.3878 -0.8524  0.1718
  513MOL0     C67630   5.988   7.438   9.847  0.6454  0.1182  0.3689
  513MOL0     O67631   6.202   7.252   9.777 -0.3857  0.8203 -0.4292
  513MOL0     C67632   6.485   7.319   9.820  0.0967  0.1779  0.0160
  513MOL0     C67633   6.622   7.328   9.838  1.4540  0.3955  0.2787
  513MOL0     N67634   7.229   7.840   9.790 -0.0284 -0.2008 -0.3620
  513MOL0     N67635   7.341   7.888   9.744  0.8644 -0.1380  0.0938
  513MOL0     C67636   8.233   7.543   9.223 -0.2124 -0.2398 -0.5018
  513MOL0     C67637   8.365   7.511   9.232 -0.3358 -1.2536 -0.1213
  513MOL0     C67638   8.808   7.455   9.120  0.6245 -0.4921  0.5390
  513MOL0     C67639   8.842   7.463   9.259 -0.4216  0.2297  0.1105
  513MOL0     C67640   8.976   7.438   9.297  0.5144 -0.0930 -0.0024
  513MOL0     C67641   9.075   7.421   9.203 -0.8447  0.1261  0.3446
  513MOL0     O67642   9.214   7.415   9.228  0.7845  0.2913  0.9114
  513MOL0     C67643   9.258   7.429   9.354 -0.5797 -1.0844 -0.3900
  513MOL0     C67644   9.406   7.378   9.365 -0.9287  0.9781  0.3484
  513MOL0     C67645   9.402   7.224   9.371  0.5813 -0.1529 -1.0928
  513MOL0     C67646   9.528   7.171   9.438 -0.9534  0.2794 -0.8369
  513MOL0     C67647   9.558   7.029   9.398  1.2803  1.0667 -0.8624
  513MOL0     C67648   9.571   6.921   9.347 -0.2963 -0.3799 -0.8948
  513MOL0     C67649   9.038   7.397   9.069  0.9054 -0.1788  0.3314
  513MOL0     C67650   8.906   7.413   9.026 -0.8185  0.3160 -0.0849
  513MOL0     H67651   8.473   7.687   8.962  0.6775 -2.2557 -0.4996
  513MOL0     H67652   8.248   7.777   8.986 -0.4487  1.1721  0.9191
  513MOL0     H67653   8.026   7.714   8.935  3.5102 -0.8907  0.8267
  513MOL0     H67654   8.048   7.851   9.042  3.8417 -2.4436 -1.1272
  513MOL0     H67655   7.796   7.685   9.021 -2.2225  0.5409  1.5857
  513MOL0     H67656   7.816   7.853   8.985  0.8259 -1.1163 -2.0403
  513MOL0     H67657   7.914   7.854   9.250  0.1437 -0.5031  0.7226
  513MOL0     H67658   7.799   7.721   9.250  0.9151 -0.7455  0.6311
  513MOL0     H67659   7.729   8.004   9.166 -0.5899  0.2267  0.9976
  513MOL0     H67660   7.618   7.875   9.170 -1.4694  2.1948  0.0544
  513MOL0     H67661   7.730   8.057   9.362 -0.6232  0.3116 -0.3416
  513MOL0     H67662   7.731   7.893   9.430 -2.8492  2.1194  4.8149
  513MOL0     H67663   7.474   7.977   9.312  0.3702  2.5834  0.8917
  513MOL0     H67664   7.524   8.030   9.466  1.4328  3.1418 -2.6041
  513MOL0     H67665   7.384   7.819   9.447  0.0197  1.3763 -2.7250
  513MOL0     H67666   7.543   7.734   9.408 -0.4179  0.2613  0.2069
  513MOL0     H67667   7.587   7.886   9.632 -0.4413 -0.6867  3.0471
  513MOL0     H67668   7.588   7.712   9.620 -0.0527 -0.5106 -2.8093
  513MOL0     H67669   7.344   7.568   9.647  1.6096  0.6353  0.1002
  513MOL0     H67670   7.056   7.572   9.722  0.2842 -0.5719  1.1125
  513MOL0     H67671   7.017   7.697   9.833 -0.1748  0.4545 -2.3429
  513MOL0     H67672   7.192   7.577   9.994 -0.8964  0.1974  0.3703
  513MOL0     H67673   7.175   7.436   9.877 -2.7966 -2.2809 -0.4442
  513MOL0     H67674   7.052   7.398  10.059 -0.2837 -1.2378 -0.6746
  513MOL0     H67675   6.966   7.552  10.068 -0.1659  1.2715 -1.8646
  513MOL0     H67676   6.938   7.352   9.842 -2.0091  2.7308 -2.7497
  513MOL0     H67677   6.835   7.491   9.865  0.2813  1.7252  0.8070
  513MOL0     H67678   6.612   7.362  10.180 -1.3947 -0.3294  1.3422
  513MOL0     H67679   6.365   7.325  10.131  1.7145  0.8188  0.2127
  513MOL0     H67680   5.986   7.359  10.172  0.5023 -3.7890 -1.6879
  513MOL0     H67681   5.768   7.455  10.173  2.1679 -1.9781  0.5334
  513MOL0     H67682   5.583   7.491   9.770  3.1012 -1.4545  0.8779
  513MOL0     H67683   5.658   7.649   9.797 -0.2825 -0.5545  0.1470
  513MOL0     H67684   5.452   7.704   9.784  2.4289  1.1162 -0.9436
  513MOL0     H67685   5.491   7.710   9.961  0.4688 -1.5174  1.4509
  513MOL0     H67686   5.352   7.525  10.016 -1.1765 -1.7283 -1.0766
  513MOL0     H67687   5.351   7.457   9.852  2.0368 -0.1682  1.4745
  513MOL0     H67688   5.226   7.735   9.936 -3.1358  2.2026 -2.3706
  513MOL0     H67689   5.203   7.665   9.777  0.4033  0.3676  0.1786
  513MOL0     H67690   5.129   7.524  10.027  0.0296 -3.7402 -2.8950
  513MOL0     H67691   5.068   7.485   9.870 -1.9082  2.9608 -3.7504
  513MOL0     H67692   4.934   7.693   9.847 -2.5448  1.0449  1.0242
  513MOL0     H67693   4.992   7.750   9.999 -2.6316 -0.0236 -0.1407
  513MOL0     H67694   4.851   7.476  10.009 -2.0660 -0.5262  2.0887
  513MOL0     H67695   4.893   7.590  10.132 -0.2625 -0.7393 -0.1318
  513MOL0     H67696   4.719   7.721   9.944 -0.5526 -1.3948 -1.3080
  513MOL0     H67697   4.692   7.669  10.115 -1.0996  2.3923 -0.9940
  513MOL0     H67698   5.818   7.527   9.750 -0.1253  0.3431  0.5964
  513MOL0     H67699   6.052   7.446   9.760 -2.3152  2.6355 -1.8491
  513MOL0     H67700   6.454   7.315   9.716 -1.3663  1.9832  0.3400
  513MOL0     H67701   6.682   7.327   9.748  1.4273 -1.6781  0.2371
  513MOL0     H67702   8.161   7.517   9.300 -2.4939  2.3010 -1.5909
  513MOL0     H67703   8.402   7.447   9.312  2.0296 -1.6072 -1.4138
  513MOL0     H67704   8.769   7.486   9.336  2.2514  3.9475  1.8284
  513MOL0     H67705   9.001   7.456   9.401 -2.0710 -3.4074  1.4063
  513MOL0     H67706   9.185   7.381   9.420 -0.1678  1.8268  2.4224
  513MOL0     H67707   9.253   7.535   9.377 -1.6181 -1.1600 -0.2337
  513MOL0     H67708   9.476   7.423   9.295 -0.9305 -1.4307 -1.3264
  513MOL0     H67709   9.439   7.406   9.466 -0.5124 -1.5113  0.9967
  513MOL0     H67710   9.396   7.196   9.266 -0.5038 -0.2218 -1.0157
  513MOL0     H67711   9.308   7.191   9.416 -0.3386  1.1074 -2.0062
  513MOL0     H67712   9.604   7.245   9.414 -2.2139  1.6127 -0.8797
  513MOL0     H67713   9.517   7.171   9.547  3.0362  3.7297 -0.1952
  513MOL0     H67714   9.604   6.826   9.308 -2.6170 -2.1350  1.0576
  513MOL0     H67715   9.113   7.367   8.995  0.4807  1.6447 -0.9110
  513MOL0     H67716   8.889   7.396   8.920  0.1094  1.7381 -0.4971
  514MOL0     O67717   6.562   1.174   8.236 -0.1489 -0.5226  0.2098
  514MOL0     C67718   6.607   1.130   8.138  0.1742  0.2770  0.3983
  514MOL0     O67719   6.536   1.112   8.021  1.2379  0.3850 -0.2132
  514MOL0     C67720   6.395   1.117   8.017 -0.3449  0.9759 -0.0458
  514MOL0     C67721   6.340   1.106   7.891  0.0896 -0.9875 -0.0631
  514MOL0     C67722   6.205   1.088   7.860  0.5601  0.1990 -0.4867
  514MOL0     C67723   6.121   1.103   7.976 -1.0468  0.2146  0.6296
  514MOL0     O67724   5.981   1.092   7.955 -0.1378 -0.1724  0.7131
  514MOL0     C67725   5.923   1.176   7.855  0.3201 -0.0622 -0.0178
  514MOL0     C67726   5.783   1.123   7.808 -0.2661 -0.2703  1.0858
  514MOL0     C67727   5.715   1.048   7.920  0.5848 -0.4232 -0.2750
  514MOL0     C67728   5.553   1.048   7.893 -0.3795 -0.7470 -0.0926
  514MOL0     C67729   5.490   0.926   7.968  0.6821 -0.4694 -0.1773
  514MOL0     C67730   5.346   0.899   7.922  1.0378 -0.2844  0.4429
  514MOL0     C67731   5.303   0.765   7.974 -0.7848  0.4723  0.5653
  514MOL0     C67732   5.154   0.716   7.945 -0.8700 -0.4580  0.3826
  514MOL0     N67733   5.049   0.743   8.041 -0.2582 -0.3806  0.3954
  514MOL0     C67734   5.012   0.665   8.149  0.1733  0.1315 -0.1638
  514MOL0     C67735   4.912   0.738   8.212 -0.2764  0.7234 -1.1252
  514MOL0     C67736   4.840   0.709   8.344  0.1128 -0.6026 -0.5413
  514MOL0     C67737   4.858   0.829   8.442 -0.8963  0.2107  0.1496
  514MOL0     C67738   4.783   0.810   8.576  0.4163 -0.6177 -0.5227
  514MOL0     C67739   4.859   0.902   8.678 -0.4858 -0.5286 -1.3717
  514MOL0     O67740   4.779   0.911   8.806  0.1299  0.3300 -0.0603
  514MOL0     C67741   4.677   0.996   8.832  0.5977  0.6375 -0.4740
  514MOL0     C67742   4.611   1.074   8.734  0.6878 -0.0362  0.1572
  514MOL0     C67743   4.500   1.149   8.763 -0.6235 -0.6166 -0.1140
  514MOL0     C67744   4.446   1.153   8.899  0.3327 -0.4302  0.0392
  514MOL0     C67745   4.343   1.251   8.940 -0.3527  0.2054  0.3866
  514MOL0     O67746   4.283   1.321   8.841  0.2027 -0.0747  0.2371
  514MOL0     C67747   4.182   1.409   8.846  0.2934  0.5264 -0.1826
  514MOL0     C67748   4.113   1.452   8.734 -0.5279  0.0420  0.1170
  514MOL0     C67749   4.020   1.559   8.720 -0.4218  0.4938 -0.0469
  514MOL0     C67750   3.981   1.621   8.835 -0.4830 -0.3568  0.9459
  514MOL0     O67751   3.901   1.735   8.812 -0.0047  0.2889 -0.1263
  514MOL0     C67752   3.854   1.814   8.921 -0.4610 -0.5604 -0.2354
  514MOL0     C67753   3.742   1.900   8.858  0.0032 -0.0079  0.9490
  514MOL0     C67754   3.633   1.813   8.806  1.4414 -0.1001 -0.6205
  514MOL0     C67755   3.503   1.893   8.765 -0.2390 -0.3163  0.4159
  514MOL0     C67756   3.400   1.782   8.738  0.3262 -0.4138 -0.8665
  514MOL0     C67757   3.257   1.832   8.711 -0.2381  0.4061  0.2376
  514MOL0     C67758   3.179   1.717   8.636 -0.3050 -0.7885  0.1044
  514MOL0     C67759   3.036   1.761   8.607 -0.0101 -0.5732 -0.5423
  514MOL0    Cl67760   2.966   1.850   8.754 -0.2349 -0.1364  0.0989
  514MOL0     C67761   4.051   1.591   8.957  0.3432 -0.2302  0.0513
  514MOL0     C67762   4.147   1.481   8.959 -0.6670 -0.2701  0.1164
  514MOL0     O67763   4.313   1.261   9.058 -0.2442 -0.7439  0.2716
  514MOL0     C67764   4.508   1.071   8.997 -0.0004  0.4864 -0.1941
  514MOL0     C67765   4.615   0.989   8.956  1.5270  0.0897 -0.0593
  514MOL0     N67766   4.883   0.851   8.136 -0.0520  0.2317  0.2148
  514MOL0     N67767   4.968   0.853   8.032  0.7054  0.5013  0.8612
  514MOL0     C67768   6.169   1.131   8.103  1.1289  0.2702  0.4220
  514MOL0     C67769   6.305   1.135   8.126  0.4125  0.7062 -0.7886
  514MOL0     C67770   6.748   1.085   8.153  0.1972 -0.1825  0.0705
  514MOL0     C67771   6.787   1.056   8.283  0.7286  0.1449 -0.4391
  514MOL0     C67772   6.914   1.011   8.309  0.5185  1.0955  0.0171
  514MOL0     C67773   7.001   0.986   8.206 -0.4976 -0.5907 -0.8610
  514MOL0     O67774   7.120   0.924   8.229 -0.5069 -0.1586 -0.8731
  514MOL0     C67775   7.232   1.013   8.229  0.8624  0.0376 -0.4213
  514MOL0     C67776   7.358   0.987   8.328 -0.8650  0.0454 -1.0986
  514MOL0     C67777   7.334   0.869   8.433 -0.2286 -0.6100 -0.3256
  514MOL0     C67778   7.267   0.909   8.570  0.3286 -0.7412  0.4121
  514MOL0     C67779   7.276   0.804   8.665 -0.4418 -0.5036  0.6757
  514MOL0     C67780   7.299   0.717   8.746 -1.5295 -0.7087  0.0933
  514MOL0     C67781   6.965   1.020   8.071 -0.5736  0.2457  0.3237
  514MOL0     C67782   6.835   1.062   8.050  0.1252 -0.8051  0.7792
  514MOL0     H67783   6.410   1.100   7.808  0.1473 -2.9811  0.0651
  514MOL0     H67784   6.170   1.062   7.761  4.4562 -1.3563 -1.6128
  514MOL0     H67785   5.999   1.199   7.780  2.9194 -0.9087  2.1987
  514MOL0     H67786   5.900   1.278   7.890  2.4117  1.0589 -1.7106
  514MOL0     H67787   5.789   1.042   7.734 -1.7774  0.6615 -0.1100
  514MOL0     H67788   5.717   1.194   7.758 -0.8669 -0.3648  1.7367
  514MOL0     H67789   5.732   1.102   8.013  0.9147  0.6075 -0.9093
  514MOL0     H67790   5.759   0.948   7.924  1.9335  0.1033 -1.1637
  514MOL0     H67791   5.509   1.141   7.930  0.0727 -0.7538  0.4674
  514MOL0     H67792   5.536   1.049   7.785  0.7029 -1.2734 -0.2785
  514MOL0     H67793   5.490   0.954   8.073 -0.0637 -0.0665 -0.2805
  514MOL0     H67794   5.558   0.840   7.961 -2.0403 -2.8878  0.8054
  514MOL0     H67795   5.335   0.887   7.814 -2.1388 -1.2796  0.7623
  514MOL0     H67796   5.280   0.985   7.940  3.0914  1.5249 -0.2706
  514MOL0     H67797   5.370   0.680   7.957 -0.1796  0.5080  2.4684
  514MOL0     H67798   5.301   0.770   8.083  1.9921  0.1675  0.7041
  514MOL0     H67799   5.152   0.614   7.907 -1.4052  0.3289 -1.8428
  514MOL0     H67800   5.137   0.780   7.858 -0.0410  1.2365  1.4035
  514MOL0     H67801   5.051   0.574   8.194  3.1311  2.7493  3.0923
  514MOL0     H67802   4.886   0.625   8.397  2.9826 -0.0571 -1.9668
  514MOL0     H67803   4.737   0.676   8.328  0.4067 -3.0041  1.6792
  514MOL0     H67804   4.819   0.920   8.397 -0.0429  1.3012  1.5096
  514MOL0     H67805   4.964   0.835   8.469 -0.4633  0.8640 -1.5831
  514MOL0     H67806   4.679   0.843   8.566  1.4835  2.9714 -1.0744
  514MOL0     H67807   4.780   0.711   8.621 -0.2938 -0.8156 -0.9824
  514MOL0     H67808   4.882   0.993   8.623  2.9398 -0.7946 -0.5884
  514MOL0     H67809   4.957   0.859   8.698 -0.7919 -0.7310 -0.2017
  514MOL0     H67810   4.652   1.073   8.634  2.5770 -0.1275  0.8924
  514MOL0     H67811   4.464   1.222   8.691  0.0227  2.4882  2.4797
  514MOL0     H67812   4.145   1.395   8.648  0.0005  0.1752  0.2241
  514MOL0     H67813   3.977   1.572   8.622  1.0201  2.1774 -0.5243
  514MOL0     H67814   3.931   1.883   8.957  0.1489 -0.1344 -2.2137
  514MOL0     H67815   3.814   1.753   9.003 -0.1065  3.4275  3.2785
  514MOL0     H67816   3.781   1.956   8.773  1.4886  1.4698  2.5248
  514MOL0     H67817   3.704   1.974   8.930 -1.0074  0.3134  0.1210
  514MOL0     H67818   3.595   1.743   8.881  0.7770  0.2017 -0.6725
  514MOL0     H67819   3.694   1.767   8.727  2.4696 -2.9979  1.6877
  514MOL0     H67820   3.463   1.967   8.835  0.2710  0.3353  0.0309
  514MOL0     H67821   3.524   1.945   8.671  0.4609 -1.2021  0.0640
  514MOL0     H67822   3.407   1.722   8.829  4.7117 -0.4427 -1.0357
  514MOL0     H67823   3.438   1.718   8.658  2.5467 -0.6670  0.3017
  514MOL0     H67824   3.264   1.920   8.646 -0.4868  1.3181  1.3918
  514MOL0     H67825   3.217   1.887   8.797  1.4237  0.8927  0.7559
  514MOL0     H67826   3.230   1.680   8.547 -0.2348  1.4164 -0.8428
  514MOL0     H67827   3.177   1.647   8.720  1.5955  0.0874  0.9414
  514MOL0     H67828   2.972   1.674   8.594 -0.4881 -0.4383  0.7194
  514MOL0     H67829   3.026   1.828   8.521 -2.0911 -0.2500 -0.1126
  514MOL0     H67830   4.022   1.643   9.048 -0.1433 -2.0658  0.9875
  514MOL0     H67831   4.201   1.467   9.052 -1.4551 -2.1755  0.3267
  514MOL0     H67832   4.470   1.045   9.095  0.0684  0.7565 -0.0940
  514MOL0     H67833   4.654   0.916   9.026  0.2447 -2.1306 -1.5412
  514MOL0     H67834   6.106   1.124   8.190 -0.0026  1.0610 -0.3039
  514MOL0     H67835   6.324   1.149   8.232  0.7602  0.2927 -0.7960
  514MOL0     H67836   6.719   1.047   8.367  1.2459 -1.1271 -0.1277
  514MOL0     H67837   6.931   0.964   8.405  3.0139  2.4952  0.3422
  514MOL0     H67838   7.189   1.112   8.247 -3.5103 -1.6102 -0.5594
  514MOL0     H67839   7.270   1.030   8.128  3.3226 -0.1332  0.4081
  514MOL0     H67840   7.448   0.970   8.269  0.3535  1.1556  0.3368
  514MOL0     H67841   7.382   1.083   8.376 -0.1200  0.2212 -1.7967
  514MOL0     H67842   7.429   0.824   8.465 -1.4696 -2.3736  1.0728
  514MOL0     H67843   7.279   0.784   8.392 -1.6894  0.6624 -1.0994
  514MOL0     H67844   7.308   1.003   8.609  1.4910 -0.9929 -0.1657
  514MOL0     H67845   7.159   0.927   8.565  0.3684  0.8004  3.1949
  514MOL0     H67846   7.319   0.639   8.816  4.0929 -0.2994 -0.6023
  514MOL0     H67847   7.045   1.015   7.998  0.7851  0.2363  1.7505
  514MOL0     H67848   6.811   1.080   7.945  1.5788 -0.7584  0.4273
  515MOL0     O67849   1.707   4.143   1.138 -0.0138  0.7628 -0.4254
  515MOL0     C67850   1.819   4.138   1.193  0.5023 -0.0555  0.7558
  515MOL0     O67851   1.865   4.036   1.273 -0.0808 -0.1471  0.0394
  515MOL0     C67852   1.774   3.948   1.332 -0.5594  0.5429  0.9336
  515MOL0     C67853   1.677   3.978   1.427 -0.7030 -0.9868 -0.1328
  515MOL0     C67854   1.600   3.881   1.495 -0.1611 -0.3469  0.3991
  515MOL0     C67855   1.613   3.741   1.468  0.1627  0.8459  0.6344
  515MOL0     O67856   1.545   3.646   1.544  0.2354 -0.7234 -0.5435
  515MOL0     C67857   1.556   3.511   1.505 -1.0993  0.0883  0.0530
  515MOL0     C67858   1.439   3.421   1.559 -0.9137 -0.8046  0.7785
  515MOL0     C67859   1.319   3.468   1.485  0.0893  0.1455 -0.3232
  515MOL0     C67860   1.310   3.435   1.339 -0.7420  0.5388 -0.4978
  515MOL0     C67861   1.171   3.460   1.284 -1.8568 -0.6412  0.6648
  515MOL0     C67862   1.071   3.348   1.310  0.4640 -0.5012 -0.2347
  515MOL0     C67863   0.915   3.373   1.275 -0.0346  0.0406  0.4431
  515MOL0     C67864   0.867   3.516   1.315  0.3167 -0.2176 -0.5684
  515MOL0     N67865   0.718   3.517   1.303  0.2254  0.0604 -0.3977
  515MOL0     C67866   0.641   3.572   1.200  0.1663  0.4267  1.0633
  515MOL0     C67867   0.517   3.523   1.198 -0.2953  0.4075 -0.5994
  515MOL0     C67868   0.402   3.565   1.114  0.8902 -0.4866  1.7135
  515MOL0     C67869   0.286   3.460   1.098  0.2572  0.3062 -1.1486
  515MOL0     C67870   0.156   3.512   1.038 -1.5038 -0.3384 -0.2749
  515MOL0     C67871   0.041   3.409   1.023  0.8609  0.4587  0.1845
  515MOL0     O67872  -0.081   3.472   0.983  0.8391 -0.6305  0.0106
  515MOL0     C67873  -0.125   3.471   0.856  0.7521 -0.1224 -0.6769
  515MOL0     C67874  -0.259   3.527   0.835  0.1089  0.4297 -0.6441
  515MOL0     C67875  -0.310   3.528   0.709  0.2333  1.1056  0.0622
  515MOL0     C67876  -0.235   3.479   0.597 -0.3566 -0.7952 -0.9416
  515MOL0     C67877  -0.272   3.513   0.456  0.7760  0.5482  0.5141
  515MOL0     O67878  -0.173   3.568   0.378 -0.6263 -0.2246 -0.4404
  515MOL0     C67879  -0.185   3.608   0.246 -0.2874  0.1349  0.0667
  515MOL0     C67880  -0.096   3.693   0.201 -0.5444  0.1131 -0.2218
  515MOL0     C67881  -0.094   3.735   0.064 -0.1312 -0.0711  0.3785
  515MOL0     C67882  -0.186   3.688  -0.030 -0.8489 -0.5640 -0.6641
  515MOL0     O67883  -0.187   3.730  -0.162 -0.5011 -0.7377 -0.6587
  515MOL0     C67884  -0.320   3.782  -0.212 -0.2766 -0.6323  0.3345
  515MOL0     C67885  -0.342   3.938  -0.181  0.0772  0.9671 -1.0022
  515MOL0     C67886  -0.417   3.958  -0.048  0.0354 -0.0932 -0.2241
  515MOL0     C67887  -0.548   3.879  -0.037  0.3660 -0.1655 -0.2437
  515MOL0     C67888  -0.638   3.943   0.069 -0.4590  0.5369 -0.2027
  515MOL0     C67889  -0.753   3.865   0.123 -0.1497  0.7501 -0.0879
  515MOL0     C67890  -0.716   3.760   0.231 -0.1800 -0.0396 -0.6104
  515MOL0     C67891  -0.682   3.817   0.370 -0.5301 -0.6212 -0.0757
  515MOL0    Cl67892  -0.823   3.849   0.462  0.0547 -0.5398 -0.1650
  515MOL0     C67893  -0.284   3.597   0.025  0.6430 -0.7543  0.3345
  515MOL0     C67894  -0.284   3.555   0.160  1.1457 -0.4564 -0.2719
  515MOL0     O67895  -0.393   3.521   0.428 -0.0151 -0.2457 -0.4676
  515MOL0     C67896  -0.112   3.414   0.621 -0.4580  0.1248 -0.0917
  515MOL0     C67897  -0.057   3.407   0.748  0.7856  0.7497 -0.5323
  515MOL0     N67898   0.517   3.429   1.301  0.0476  0.3101 -0.1903
  515MOL0     N67899   0.628   3.433   1.366 -0.0727  0.3490 -0.4012
  515MOL0     C67900   1.705   3.715   1.366 -0.8146 -0.3009 -0.3737
  515MOL0     C67901   1.791   3.814   1.299  0.6148  0.8438 -0.2689
  515MOL0     C67902   1.912   4.250   1.184  0.9961 -0.9598  0.7456
  515MOL0     C67903   2.011   4.277   1.283  0.2251  0.3645 -0.4128
  515MOL0     C67904   2.098   4.385   1.275  0.3313  0.2071 -0.9735
  515MOL0     C67905   2.093   4.476   1.169  0.4610  0.0093 -1.0753
  515MOL0     O67906   2.174   4.580   1.156 -0.4277 -0.7058  0.4148
  515MOL0     C67907   2.293   4.609   1.237  0.3549 -0.1097 -1.1077
  515MOL0     C67908   2.408   4.524   1.189 -0.2773 -0.9889  0.6901
  515MOL0     C67909   2.440   4.549   1.037  0.1524  0.0856 -0.1279
  515MOL0     C67910   2.584   4.588   1.029 -0.2791 -0.2619 -0.5601
  515MOL0     C67911   2.615   4.636   0.897  0.5146  1.0085  0.3321
  515MOL0     C67912   2.661   4.683   0.794 -0.7283 -0.8912 -0.0402
  515MOL0     C67913   1.988   4.456   1.079  0.3687 -0.2770  0.6264
  515MOL0     C67914   1.901   4.341   1.078 -0.1772  0.9611  0.4024
  515MOL0     H67915   1.679   4.079   1.466 -1.6356 -0.4655 -1.3731
  515MOL0     H67916   1.534   3.902   1.579 -0.7010 -1.4458  0.2667
  515MOL0     H67917   1.652   3.470   1.536 -1.9944 -2.0032  0.2743
  515MOL0     H67918   1.559   3.504   1.395  3.1129 -1.4658  0.0782
  515MOL0     H67919   1.437   3.436   1.667  2.3852  0.5440  0.7537
  515MOL0     H67920   1.471   3.317   1.545  4.0319  0.4056  1.3304
  515MOL0     H67921   1.311   3.577   1.490 -0.4266  0.1397 -0.8931
  515MOL0     H67922   1.233   3.429   1.540  1.6136 -0.1930  1.9409
  515MOL0     H67923   1.378   3.500   1.284 -0.9755  2.0310  0.9047
  515MOL0     H67924   1.329   3.328   1.321  2.6495  0.9715 -0.1338
  515MOL0     H67925   1.183   3.475   1.176  1.0375 -0.7871  0.8874
  515MOL0     H67926   1.142   3.554   1.331  0.2580  0.8298 -0.8308
  515MOL0     H67927   1.079   3.318   1.415  1.3574  1.8603  0.4276
  515MOL0     H67928   1.100   3.258   1.254 -0.6257  0.0222 -1.6956
  515MOL0     H67929   0.912   3.360   1.167 -0.3956 -0.6216  0.5261
  515MOL0     H67930   0.858   3.294   1.325 -2.8773  1.1976 -0.7903
  515MOL0     H67931   0.910   3.596   1.254  0.8015 -1.1205 -1.4440
  515MOL0     H67932   0.897   3.521   1.420  0.0560 -1.2403 -0.4295
  515MOL0     H67933   0.682   3.646   1.132  3.1105 -3.0807 -1.3897
  515MOL0     H67934   0.449   3.597   1.021 -0.8181 -0.0868  0.9531
  515MOL0     H67935   0.359   3.655   1.159  1.1925 -1.0782  3.2558
  515MOL0     H67936   0.256   3.430   1.199  1.6555 -0.2969 -0.8835
  515MOL0     H67937   0.327   3.376   1.042  1.7556 -1.4502  2.2487
  515MOL0     H67938   0.122   3.595   1.101  0.5753  0.9557 -0.7378
  515MOL0     H67939   0.182   3.549   0.938 -0.6137  1.0414  0.4273
  515MOL0     H67940   0.031   3.350   1.115  3.2877 -0.1168  0.1357
  515MOL0     H67941   0.076   3.329   0.958 -0.0988 -0.4985  0.8203
  515MOL0     H67942  -0.310   3.576   0.917 -0.2251 -0.4325 -0.3244
  515MOL0     H67943  -0.406   3.573   0.684  0.4425  0.6143 -1.7378
  515MOL0     H67944  -0.005   3.705   0.259 -0.5687 -2.1397  0.3690
  515MOL0     H67945  -0.017   3.805   0.035 -0.2013  0.1767  0.7785
  515MOL0     H67946  -0.413   3.735  -0.179 -2.6862  1.5187 -2.7350
  515MOL0     H67947  -0.311   3.773  -0.321  5.6067  1.1451  0.3031
  515MOL0     H67948  -0.397   3.981  -0.265 -0.5420  0.0475 -1.0881
  515MOL0     H67949  -0.240   3.977  -0.179  1.4027 -2.0261 -2.8427
  515MOL0     H67950  -0.425   4.064  -0.019  2.0867  0.6153 -1.9821
  515MOL0     H67951  -0.369   3.908   0.037  3.6890  0.6698 -1.6440
  515MOL0     H67952  -0.601   3.871  -0.132 -1.1176 -0.4462  0.5798
  515MOL0     H67953  -0.523   3.780   0.001  0.2724  0.5825  1.8849
  515MOL0     H67954  -0.667   4.030   0.009  1.5440  1.1448 -0.3557
  515MOL0     H67955  -0.586   3.996   0.149 -1.3015  1.9963 -0.5709
  515MOL0     H67956  -0.813   3.830   0.039  2.4909 -0.8551 -1.4355
  515MOL0     H67957  -0.827   3.935   0.163 -0.1461 -0.1689  1.6337
  515MOL0     H67958  -0.790   3.680   0.243  0.7659 -0.7297  0.7801
  515MOL0     H67959  -0.620   3.712   0.209 -0.5992 -1.4838  0.5276
  515MOL0     H67960  -0.621   3.908   0.370  0.2402 -0.9471  4.0662
  515MOL0     H67961  -0.625   3.734   0.415  0.2469  0.4806  1.0528
  515MOL0     H67962  -0.358   3.564  -0.048  0.0958 -1.6084  1.2618
  515MOL0     H67963  -0.359   3.485   0.198 -3.7942  2.3810 -3.5931
  515MOL0     H67964  -0.052   3.387   0.535 -0.1036 -1.2150  0.5547
  515MOL0     H67965   0.041   3.364   0.765  0.8522  0.1728 -2.2299
  515MOL0     H67966   1.719   3.611   1.337 -0.8335 -0.6019  0.6551
  515MOL0     H67967   1.872   3.787   1.234 -0.4421 -2.1664 -0.4606
  515MOL0     H67968   2.009   4.209   1.368  0.4637  0.6708 -0.1548
  515MOL0     H67969   2.167   4.386   1.359 -1.4730  0.9566  0.5652
  515MOL0     H67970   2.276   4.587   1.343 -1.1005  2.3600 -0.7607
  515MOL0     H67971   2.310   4.716   1.253 -2.6990  0.1095  1.8185
  515MOL0     H67972   2.495   4.528   1.255 -0.0200 -1.4264  0.3911
  515MOL0     H67973   2.373   4.421   1.197 -2.7500 -0.4778 -1.8444
  515MOL0     H67974   2.374   4.635   1.019  4.7735  3.9669 -0.4714
  515MOL0     H67975   2.420   4.457   0.981  1.4120 -0.4965  0.3436
  515MOL0     H67976   2.613   4.668   1.098 -1.1931 -1.0491  0.7712
  515MOL0     H67977   2.650   4.502   1.034  2.3740  1.5276 -2.1027
  515MOL0     H67978   2.710   4.705   0.701  1.2147  0.9401  1.3169
  515MOL0     H67979   1.968   4.528   1.000 -0.9172 -0.4931  0.7340
  515MOL0     H67980   1.829   4.320   0.999 -3.5179 -1.6919  3.7846
  516MOL0     O67981   8.818   9.990   0.638  0.5134  0.1436 -0.3289
  516MOL0     C67982   8.795   9.881   0.594 -0.6704 -0.2671 -0.5769
  516MOL0     O67983   8.886   9.798   0.551 -0.5503 -1.1653  0.0404
  516MOL0     C67984   9.014   9.795   0.600  1.0207 -0.3012  0.2261
  516MOL0     C67985   9.108   9.742   0.514 -0.5940  0.7499 -0.2444
  516MOL0     C67986   9.235   9.716   0.564 -0.6135 -0.9159  0.2004
  516MOL0     C67987   9.265   9.736   0.698 -0.6725 -0.4884 -0.3055
  516MOL0     O67988   9.377   9.683   0.740 -0.1183  0.5262  0.9220
  516MOL0     C67989   9.490   9.768   0.720 -0.3302  0.5985 -0.1272
  516MOL0     C67990   9.609   9.681   0.755 -0.3101 -0.0950  0.1726
  516MOL0     C67991   9.745   9.737   0.700 -0.3950  0.2586 -0.4202
  516MOL0     C67992   9.852   9.637   0.677 -0.5905  0.1089  0.1573
  516MOL0     C67993   9.984   9.696   0.631  0.7287 -0.5715 -0.0128
  516MOL0     C67994  10.087   9.586   0.616 -0.1284  0.4397 -0.1539
  516MOL0     C67995  10.207   9.652   0.539  0.1741  0.1028 -0.7685
  516MOL0     C67996  10.316   9.552   0.492 -0.2003 -0.1695 -0.0790
  516MOL0     N67997  10.374   9.475   0.597  0.4580 -0.4028  0.2953
  516MOL0     C67998  10.489   9.507   0.661 -0.4133  0.0567  0.3911
  516MOL0     C67999  10.520   9.396   0.732 -0.1853 -0.3695 -0.2852
  516MOL0     C68000  10.634   9.379   0.828  0.4799 -0.2373 -0.1935
  516MOL0     C68001  10.579   9.417   0.971 -0.5450  0.6504  0.7195
  516MOL0     C68002  10.576   9.559   1.002 -0.4852  0.2803 -0.5855
  516MOL0     C68003  10.459   9.642   0.961  0.6948  0.0224 -0.6668
  516MOL0     O68004  10.328   9.581   0.978 -0.8185 -0.0008  0.1051
  516MOL0     C68005  10.217   9.650   1.005  0.4682 -1.3240  0.8077
  516MOL0     C68006  10.105   9.587   1.061  0.0309  0.3472 -0.4751
  516MOL0     C68007   9.986   9.650   1.084 -0.1468 -0.1217 -0.1823
  516MOL0     C68008   9.967   9.785   1.064 -1.2524  1.1697 -0.3864
  516MOL0     C68009   9.838   9.849   1.081  0.8579  0.0965 -0.1854
  516MOL0     O68010   9.735   9.769   1.127 -0.3487 -0.3877  0.1295
  516MOL0     C68011   9.612   9.828   1.155  0.1550 -0.4226  0.3034
  516MOL0     C68012   9.553   9.789   1.270  0.2648  0.3617  0.2205
  516MOL0     C68013   9.419   9.827   1.300  0.2509  0.3847  0.0933
  516MOL0     C68014   9.339   9.894   1.204 -0.1236  0.0070  0.1448
  516MOL0     O68015   9.212   9.919   1.239  0.4745 -0.8425 -0.5010
  516MOL0     C68016   9.112   9.965   1.151  0.1572  0.5364  0.6093
  516MOL0     C68017   8.965   9.967   1.201  0.6079 -0.1163 -0.3514
  516MOL0     C68018   8.944  10.038   1.333  1.1142 -0.4130  0.1310
  516MOL0     C68019   8.795  10.077   1.351 -0.0615  0.0320  0.2725
  516MOL0     C68020   8.761  10.138   1.483 -0.1080 -0.3728 -0.1345
  516MOL0     C68021   8.607  10.163   1.486 -0.1916  0.0311  0.5392
  516MOL0     C68022   8.537  10.185   1.621 -0.0898 -0.4026  0.3177
  516MOL0     C68023   8.616  10.274   1.708  0.3605 -0.6683  0.4983
  516MOL0    Cl68024   8.630  10.437   1.627  0.3863 -0.3382 -0.3638
  516MOL0     C68025   9.399   9.919   1.081 -0.3250  0.5292  1.2021
  516MOL0     C68026   9.538   9.892   1.062 -0.3331  1.0306  0.5803
  516MOL0     O68027   9.827   9.968   1.077 -0.3312 -0.0625  0.4650
  516MOL0     C68028  10.085   9.855   1.024 -0.4046  0.3866 -0.6773
  516MOL0     C68029  10.202   9.790   0.990  0.5632  0.7978 -0.9761
  516MOL0     N68030  10.419   9.299   0.717  0.5487 -0.4695 -0.6702
  516MOL0     N68031  10.329   9.359   0.641  0.3644  0.0845  0.2851
  516MOL0     C68032   9.171   9.798   0.787 -0.3214 -0.4774  0.5552
  516MOL0     C68033   9.042   9.822   0.743  0.0645  0.6488 -0.1993
  516MOL0     C68034   8.664   9.826   0.590 -0.1905  0.5012 -0.3105
  516MOL0     C68035   8.633   9.694   0.565  0.3430  1.2849  0.2498
  516MOL0     C68036   8.504   9.633   0.588 -0.6077  0.8121 -0.5694
  516MOL0     C68037   8.400   9.711   0.630  0.4069  0.3065 -0.2998
  516MOL0     O68038   8.266   9.679   0.643 -0.1154  0.3671  0.5080
  516MOL0     C68039   8.218   9.622   0.521 -0.1541  0.1916  0.1000
  516MOL0     C68040   8.067   9.638   0.505 -0.3762  0.2525  1.0865
  516MOL0     C68041   7.990   9.565   0.615  0.0755 -0.7841  0.1737
  516MOL0     C68042   7.836   9.591   0.621 -0.6564 -1.2220 -0.1632
  516MOL0     C68043   7.765   9.532   0.511 -0.2709  0.4129  0.5681
  516MOL0     C68044   7.723   9.479   0.410  0.7464 -0.0720  0.2174
  516MOL0     C68045   8.428   9.841   0.666  1.0351  0.4999  0.4456
  516MOL0     C68046   8.559   9.898   0.650 -0.2685  0.1039  0.6729
  516MOL0     H68047   9.091   9.728   0.407  0.8474 -0.4747 -0.3361
  516MOL0     H68048   9.303   9.672   0.492 -0.3466 -2.7522  1.5266
  516MOL0     H68049   9.497   9.851   0.790  1.4149 -1.5587  2.4633
  516MOL0     H68050   9.490   9.826   0.627  3.0670 -0.3934 -0.8710
  516MOL0     H68051   9.603   9.582   0.709 -1.4268  0.3584 -0.7187
  516MOL0     H68052   9.616   9.680   0.864 -0.6464 -1.5764  0.1996
  516MOL0     H68053   9.778   9.811   0.773  1.7108  1.0145 -2.0201
  516MOL0     H68054   9.732   9.784   0.602 -0.5480  0.3069 -0.3766
  516MOL0     H68055   9.882   9.590   0.771  2.2855  1.6521  0.1247
  516MOL0     H68056   9.820   9.560   0.607  1.8898 -0.3108 -0.6079
  516MOL0     H68057  10.008   9.784   0.692 -2.7343  1.3717 -1.1931
  516MOL0     H68058   9.972   9.743   0.533 -1.3932  1.2359  1.0067
  516MOL0     H68059  10.046   9.508   0.551  0.0436  1.2997 -1.3224
  516MOL0     H68060  10.125   9.546   0.711  3.7304  3.9718  0.0631
  516MOL0     H68061  10.166   9.700   0.450 -3.0349  0.8145  0.9448
  516MOL0     H68062  10.243   9.729   0.608 -2.6576 -0.9954  2.2313
  516MOL0     H68063  10.392   9.608   0.435 -0.4968 -1.4409 -1.8179
  516MOL0     H68064  10.281   9.478   0.419 -0.3011  0.2658 -0.4791
  516MOL0     H68065  10.553   9.595   0.662  1.4456 -1.1578  3.1910
  516MOL0     H68066  10.715   9.442   0.791  0.5135 -0.3224 -0.2683
  516MOL0     H68067  10.663   9.273   0.825  0.6346 -0.2052 -2.9357
  516MOL0     H68068  10.654   9.370   1.035  0.5632  1.0491 -0.2555
  516MOL0     H68069  10.487   9.359   0.986 -0.7030  1.1475  1.7444
  516MOL0     H68070  10.569   9.573   1.110  0.5670  2.4203 -0.7450
  516MOL0     H68071  10.673   9.595   0.966  0.5914  0.4829  2.2819
  516MOL0     H68072  10.470   9.690   0.864 -0.0438  2.4104  0.3509
  516MOL0     H68073  10.465   9.730   1.025  0.4273 -0.2857 -0.2104
  516MOL0     H68074  10.116   9.483   1.091 -1.5863  0.3890  0.3461
  516MOL0     H68075   9.895   9.606   1.123  0.4271  0.7961  2.3644
  516MOL0     H68076   9.598   9.720   1.341 -1.2971 -1.6913 -0.6827
  516MOL0     H68077   9.381   9.795   1.397 -0.5816 -0.8696 -0.6143
  516MOL0     H68078   9.114   9.912   1.056 -0.2544  1.1137  0.2727
  516MOL0     H68079   9.130  10.069   1.122  0.3862 -0.4242 -3.1392
  516MOL0     H68080   8.921   9.867   1.207 -2.5879  1.2188  0.4903
  516MOL0     H68081   8.909  10.023   1.125  3.0698  1.7469 -0.9105
  516MOL0     H68082   8.995  10.134   1.347 -3.0923  1.8813  1.3627
  516MOL0     H68083   8.972   9.970   1.414  1.4278 -0.4396  0.0029
  516MOL0     H68084   8.758  10.138   1.269 -0.0206 -2.2849 -1.5832
  516MOL0     H68085   8.735   9.986   1.350 -0.4536  0.2842 -1.0614
  516MOL0     H68086   8.817  10.229   1.510  0.8523 -0.6977 -0.9848
  516MOL0     H68087   8.789  10.065   1.560  0.3466 -0.1088 -0.0421
  516MOL0     H68088   8.554  10.079   1.440  2.2039 -0.9634 -0.5302
  516MOL0     H68089   8.586  10.255   1.431 -1.2572  0.8652  2.2581
  516MOL0     H68090   8.446  10.243   1.604  0.0409  0.0344  1.0636
  516MOL0     H68091   8.515  10.090   1.670  0.6585 -0.1958  1.0982
  516MOL0     H68092   8.714  10.231   1.727  2.1788  2.4199 -1.1311
  516MOL0     H68093   8.565  10.287   1.804 -2.2228 -0.0045 -0.8633
  516MOL0     H68094   9.343   9.958   0.996 -0.1120  0.2195  0.9183
  516MOL0     H68095   9.582   9.917   0.966  3.5014 -1.5288  1.4746
  516MOL0     H68096  10.074   9.963   1.014  1.4596  0.5097 -2.0342
  516MOL0     H68097  10.288   9.852   0.965  1.6053  0.3831  1.3331
  516MOL0     H68098   9.214   9.831   0.882 -0.2478  0.9535  0.0491
  516MOL0     H68099   8.978   9.861   0.821  0.9375  0.5450  0.5766
  516MOL0     H68100   8.711   9.625   0.535 -1.1199  0.6934 -2.6445
  516MOL0     H68101   8.494   9.528   0.562  0.3268  0.5208  0.2280
  516MOL0     H68102   8.233   9.514   0.511 -0.4691  0.3815 -3.9417
  516MOL0     H68103   8.254   9.670   0.430 -1.6230 -1.8946 -1.6784
  516MOL0     H68104   8.041   9.745   0.510  0.0365  0.3360  1.4526
  516MOL0     H68105   8.033   9.598   0.409  1.5799  2.7671 -0.7975
  516MOL0     H68106   8.033   9.584   0.714 -0.5438 -2.0244  0.7024
  516MOL0     H68107   7.992   9.456   0.602 -2.7310 -0.6050 -3.3343
  516MOL0     H68108   7.795   9.556   0.716  2.4894 -1.0730  1.3663
  516MOL0     H68109   7.809   9.697   0.632 -0.7901 -1.4876  3.6635
  516MOL0     H68110   7.680   9.424   0.328  3.5152  0.2586 -1.5789
  516MOL0     H68111   8.341   9.888   0.708  0.5918  1.6953 -1.6706
  516MOL0     H68112   8.566  10.003   0.675 -0.3236  0.5267 -0.9840
  517MOL0     O68113   4.600   3.320   5.448  0.7499 -0.5328  0.8465
  517MOL0     C68114   4.583   3.294   5.326 -0.5657 -0.4337  0.3241
  517MOL0     O68115   4.669   3.242   5.232  0.1227  0.7628 -0.4247
  517MOL0     C68116   4.798   3.239   5.263  0.5096  0.2149  0.0223
  517MOL0     C68117   4.867   3.118   5.253  1.0918  0.1686 -0.9344
  517MOL0     C68118   5.001   3.113   5.270 -0.0627 -0.2686 -0.2124
  517MOL0     C68119   5.080   3.229   5.282 -0.8281 -0.1399 -0.0304
  517MOL0     O68120   5.220   3.220   5.279  0.1888 -0.0469 -0.1148
  517MOL0     C68121   5.302   3.335   5.262 -0.5158 -0.7437 -0.4558
  517MOL0     C68122   5.366   3.393   5.392  0.4058  0.1912  0.1603
  517MOL0     C68123   5.463   3.506   5.373 -0.3481  0.0420 -0.1189
  517MOL0     C68124   5.521   3.564   5.500  1.0730 -0.6381  0.5816
  517MOL0     C68125   5.430   3.668   5.574 -0.2547  1.3173  0.4034
  517MOL0     C68126   5.423   3.813   5.510 -0.1069 -0.0218  0.0049
  517MOL0     C68127   5.313   3.894   5.584 -0.6856 -0.6152  0.7928
  517MOL0     C68128   5.174   3.846   5.558  1.7203 -0.4372 -0.1031
  517MOL0     N68129   5.079   3.949   5.617 -0.3367  0.2084  0.9547
  517MOL0     C68130   4.978   3.926   5.711 -0.2108 -0.7492 -0.1269
  517MOL0     C68131   4.891   4.036   5.688  0.0659 -0.5567  0.0366
  517MOL0     C68132   4.763   4.069   5.759 -0.1432 -1.1723 -0.4193
  517MOL0     C68133   4.643   3.990   5.712 -0.9803 -0.1235  1.4208
  517MOL0     C68134   4.531   4.003   5.812 -0.3676  0.2725 -0.1252
  517MOL0     C68135   4.404   3.930   5.761  0.3110 -0.1309 -0.5085
  517MOL0     O68136   4.337   3.988   5.642 -0.3425 -0.3662 -0.3107
  517MOL0     C68137   4.228   4.075   5.688 -0.3294  0.8441  0.1583
  517MOL0     C68138   4.102   4.028   5.653 -0.0097  0.4531 -1.2313
  517MOL0     C68139   3.991   4.092   5.695  0.9048 -0.0606  0.6846
  517MOL0     C68140   3.993   4.205   5.780  1.1096  0.8127  0.2269
  517MOL0     C68141   3.875   4.286   5.820  0.3062  0.6348  0.3970
  517MOL0     O68142   3.903   4.404   5.883 -0.1537 -0.1155 -0.5896
  517MOL0     C68143   3.808   4.460   5.960 -0.1961  0.6648  0.2171
  517MOL0     C68144   3.752   4.578   5.914 -0.0127 -0.3375 -0.3877
  517MOL0     C68145   3.652   4.646   5.986  0.5826  0.2346  0.1850
  517MOL0     C68146   3.594   4.582   6.094 -0.3402  1.0878 -0.1722
  517MOL0     O68147   3.479   4.616   6.159 -0.1932 -0.4274  0.2956
  517MOL0     C68148   3.451   4.757   6.162 -0.3953 -0.8021  0.1184
  517MOL0     C68149   3.372   4.794   6.282  0.2380  0.7150 -0.0453
  517MOL0     C68150   3.224   4.749   6.265 -0.0419  1.1268  1.0758
  517MOL0     C68151   3.143   4.795   6.391  0.5561 -1.3181 -0.4240
  517MOL0     C68152   2.990   4.764   6.380  0.3187 -0.6611  0.1670
  517MOL0     C68153   2.897   4.822   6.491 -0.3732  0.3308 -0.2117
  517MOL0     C68154   2.748   4.829   6.447 -1.3035  0.2511  0.2027
  517MOL0     C68155   2.657   4.893   6.551  0.2598  0.3170 -0.1493
  517MOL0    Cl68156   2.663   4.804   6.701 -0.2420 -0.6439  0.0640
  517MOL0     C68157   3.654   4.462   6.141  0.0157 -0.5720 -0.0136
  517MOL0     C68158   3.765   4.406   6.081  0.5026 -0.2985 -0.1827
  517MOL0     O68159   3.763   4.246   5.783 -0.2169 -0.0459 -0.6137
  517MOL0     C68160   4.120   4.253   5.817  0.3816  0.4067  1.0321
  517MOL0     C68161   4.240   4.185   5.772  1.0990 -0.2241  0.6195
  517MOL0     N68162   4.943   4.119   5.583 -0.3040 -0.2121  0.3089
  517MOL0     N68163   5.046   4.057   5.531  0.2772 -0.0465 -0.0642
  517MOL0     C68164   5.010   3.350   5.298  0.4326  0.2354  0.8654
  517MOL0     C68165   4.876   3.355   5.286 -0.4406 -0.0934  0.5981
  517MOL0     C68166   4.451   3.332   5.270 -0.2945 -0.2160 -0.4033
  517MOL0     C68167   4.431   3.314   5.134  0.0984  0.0757 -0.8827
  517MOL0     C68168   4.304   3.351   5.081  0.2298 -0.2418  0.2623
  517MOL0     C68169   4.198   3.407   5.167  0.1810  0.0376  0.3492
  517MOL0     O68170   4.072   3.449   5.129  0.2812 -0.0451 -0.9412
  517MOL0     C68171   4.049   3.487   4.998  0.1352 -0.3254  0.3038
  517MOL0     C68172   3.959   3.386   4.921  0.1074 -0.4171  0.0497
  517MOL0     C68173   3.920   3.425   4.771 -0.1581 -0.5303 -0.4745
  517MOL0     C68174   3.813   3.335   4.716 -0.5084 -0.4629 -0.3177
  517MOL0     C68175   3.822   3.200   4.749 -0.7748 -0.6945 -0.7596
  517MOL0     C68176   3.824   3.085   4.770  0.1454 -0.0451  1.4283
  517MOL0     C68177   4.228   3.410   5.297  0.1926  0.0842  0.7233
  517MOL0     C68178   4.353   3.378   5.349 -1.5168  0.4861 -0.6257
  517MOL0     H68179   4.819   3.026   5.222 -3.0273  2.2356 -1.3580
  517MOL0     H68180   5.053   3.021   5.244 -1.1452 -0.5245 -1.5938
  517MOL0     H68181   5.249   3.411   5.203 -0.0089 -1.5953 -2.0752
  517MOL0     H68182   5.396   3.303   5.216  0.7872 -0.3832  1.8139
  517MOL0     H68183   5.418   3.308   5.437 -0.9530  1.0913  3.7734
  517MOL0     H68184   5.279   3.426   5.450 -0.1170 -0.2172 -0.3655
  517MOL0     H68185   5.425   3.587   5.310 -0.0466 -1.2518 -2.0274
  517MOL0     H68186   5.547   3.477   5.310 -1.7589  2.7269 -3.5500
  517MOL0     H68187   5.553   3.487   5.570  2.1636  0.5595  1.4383
  517MOL0     H68188   5.612   3.612   5.464 -1.0611  1.0555 -3.0986
  517MOL0     H68189   5.465   3.675   5.678  1.3604 -1.5451  0.1380
  517MOL0     H68190   5.334   3.615   5.571 -0.1119  1.0895 -0.1275
  517MOL0     H68191   5.392   3.804   5.406 -1.1735  0.4116  0.2784
  517MOL0     H68192   5.519   3.866   5.518 -0.2806  0.2566  0.2238
  517MOL0     H68193   5.323   3.891   5.693  3.4973  0.9639  0.6333
  517MOL0     H68194   5.328   3.997   5.549  1.2546 -0.7097  1.2207
  517MOL0     H68195   5.142   3.746   5.588 -0.5516  0.2219 -0.1499
  517MOL0     H68196   5.158   3.829   5.452  2.1814 -0.7024 -0.1357
  517MOL0     H68197   4.965   3.841   5.777 -1.4842 -0.8231 -0.4398
  517MOL0     H68198   4.761   4.178   5.764  2.7952 -0.9987 -0.9883
  517MOL0     H68199   4.785   4.035   5.860  2.6419  0.0779 -0.5227
  517MOL0     H68200   4.677   3.886   5.713  0.8188  0.3519 -1.1484
  517MOL0     H68201   4.612   4.015   5.610  3.4131 -1.5334 -0.4982
  517MOL0     H68202   4.565   3.960   5.907  0.4721  0.4337 -0.3411
  517MOL0     H68203   4.513   4.109   5.832  3.5917  0.8531  1.3600
  517MOL0     H68204   4.325   3.918   5.835  1.4181 -1.6210  0.4784
  517MOL0     H68205   4.425   3.825   5.739 -0.4247 -1.2911  3.6221
  517MOL0     H68206   4.099   3.938   5.593  0.2482 -1.4645  1.4555
  517MOL0     H68207   3.900   4.043   5.660  2.0592 -1.2875 -0.7242
  517MOL0     H68208   3.762   4.619   5.814 -2.3868  0.9657 -0.1606
  517MOL0     H68209   3.604   4.732   5.940  0.4434 -0.1726 -0.4414
  517MOL0     H68210   3.401   4.784   6.069  1.9195  0.0600 -0.9548
  517MOL0     H68211   3.551   4.799   6.176  0.8707 -3.0543 -1.5413
  517MOL0     H68212   3.372   4.902   6.300 -0.9953  1.1633 -2.2073
  517MOL0     H68213   3.409   4.732   6.363 -0.8568 -1.0291 -0.8047
  517MOL0     H68214   3.230   4.643   6.237  2.0005  1.4582  0.1477
  517MOL0     H68215   3.172   4.795   6.180 -0.9239 -3.1245 -0.9711
  517MOL0     H68216   3.179   4.748   6.483  3.0011 -1.3341 -1.3074
  517MOL0     H68217   3.147   4.904   6.394 -3.8352 -0.9742  0.5897
  517MOL0     H68218   2.982   4.655   6.384  0.7917 -0.7629 -1.2210
  517MOL0     H68219   2.959   4.795   6.280  0.7041 -2.8097 -0.6639
  517MOL0     H68220   2.924   4.925   6.516 -0.8258 -0.3458  3.8593
  517MOL0     H68221   2.917   4.759   6.578  1.3462 -2.3978 -2.4106
  517MOL0     H68222   2.744   4.883   6.352  0.6987  1.0297  0.5255
  517MOL0     H68223   2.715   4.724   6.443  1.6764 -0.7887 -3.1478
  517MOL0     H68224   2.557   4.899   6.509 -0.6033  0.7147  1.8342
  517MOL0     H68225   2.697   4.993   6.569 -2.5240  0.9652  3.7979
  517MOL0     H68226   3.624   4.420   6.237  2.8567  1.6183  2.0124
  517MOL0     H68227   3.825   4.327   6.125 -0.7215 -0.8070  0.6252
  517MOL0     H68228   4.124   4.340   5.882 -1.1295  1.2263  0.0999
  517MOL0     H68229   4.340   4.218   5.797  1.2224  1.1752 -1.4618
  517MOL0     H68230   5.057   3.444   5.324 -0.6972  0.2778  2.9924
  517MOL0     H68231   4.825   3.450   5.301  1.8981  1.2527  0.4627
  517MOL0     H68232   4.508   3.269   5.073  4.4603  0.4864  3.6327
  517MOL0     H68233   4.297   3.341   4.973  1.1478 -2.4615  0.3390
  517MOL0     H68234   4.143   3.515   4.949 -0.1865 -0.5474 -0.4582
  517MOL0     H68235   3.992   3.580   5.001  0.4822 -0.0601 -0.8145
  517MOL0     H68236   4.000   3.285   4.917  0.4164 -0.3971  1.8491
  517MOL0     H68237   3.879   3.383   4.996 -0.5841  1.9340 -0.4858
  517MOL0     H68238   4.004   3.418   4.701 -0.4749  0.6496 -0.9919
  517MOL0     H68239   3.882   3.527   4.764 -2.0762 -1.0389  1.4658
  517MOL0     H68240   3.717   3.370   4.754 -0.9532 -0.6170 -1.2899
  517MOL0     H68241   3.808   3.352   4.608 -1.6902  0.1407 -0.1763
  517MOL0     H68242   3.824   2.978   4.781 -3.4264 -0.6198 -1.8416
  517MOL0     H68243   4.144   3.429   5.363 -0.5808 -2.4776  0.6033
  517MOL0     H68244   4.362   3.392   5.456 -4.2923  1.7808 -0.4852
  518MOL0     O68245   2.989   6.312   1.975  0.3291 -0.2789  0.2432
  518MOL0     C68246   3.079   6.298   1.896  0.0491 -0.0467  0.5021
  518MOL0     O68247   3.107   6.186   1.816 -0.3770 -0.1228  0.1358
  518MOL0     C68248   3.013   6.085   1.807  0.6295 -0.6386  0.2520
  518MOL0     C68249   2.886   6.105   1.754  0.2180 -0.2610  0.2522
  518MOL0     C68250   2.806   5.998   1.724  0.2489 -0.6879  0.4680
  518MOL0     C68251   2.847   5.862   1.739 -0.6613 -1.1618 -0.3091
  518MOL0     O68252   2.771   5.743   1.713 -0.1498 -0.0371 -0.1866
  518MOL0     C68253   2.689   5.752   1.598  0.0179  0.3518 -0.5985
  518MOL0     C68254   2.602   5.627   1.617  0.5552  0.0728  0.5059
  518MOL0     C68255   2.506   5.637   1.738 -0.3903  0.0199  0.1214
  518MOL0     C68256   2.419   5.519   1.746 -0.3198 -0.2571  0.4134
  518MOL0     C68257   2.320   5.519   1.868  0.9326  0.5439 -0.1362
  518MOL0     C68258   2.382   5.437   1.982  0.1020 -0.6241  1.1040
  518MOL0     C68259   2.296   5.459   2.112 -0.0681 -1.1086 -0.3040
  518MOL0     C68260   2.359   5.373   2.231 -0.5647  0.8134 -0.1622
  518MOL0     N68261   2.343   5.218   2.234 -0.2893 -0.6563  0.4206
  518MOL0     C68262   2.243   5.151   2.287  0.6085  1.6800  0.4928
  518MOL0     C68263   2.264   5.023   2.261  0.2537 -0.4284 -0.3619
  518MOL0     C68264   2.194   4.905   2.317 -0.9012 -0.7980 -0.3648
  518MOL0     C68265   2.125   4.809   2.219  0.4858 -0.4211  0.3107
  518MOL0     C68266   1.992   4.859   2.164  0.0127  0.6504  0.6923
  518MOL0     C68267   1.933   4.990   2.221  0.0054 -0.0771  0.1083
  518MOL0     O68268   1.882   4.972   2.354 -0.2050  0.6304  0.2471
  518MOL0     C68269   1.756   4.926   2.370  0.0265 -0.7906  1.1133
  518MOL0     C68270   1.702   4.946   2.499  0.0590 -0.4043  0.2655
  518MOL0     C68271   1.572   4.903   2.536  0.2530 -0.1535 -0.4523
  518MOL0     C68272   1.493   4.829   2.442  0.7632  0.0328  0.1400
  518MOL0     C68273   1.359   4.774   2.486 -0.5918 -0.5839 -0.4636
  518MOL0     O68274   1.293   4.720   2.383 -0.0346  0.3398  0.1362
  518MOL0     C68275   1.159   4.692   2.391  0.6671  0.5636  0.2043
  518MOL0     C68276   1.111   4.571   2.458  0.3957  0.1054 -0.3938
  518MOL0     C68277   0.973   4.546   2.444 -0.3591  0.3556 -0.1629
  518MOL0     C68278   0.888   4.625   2.363  0.4232 -0.1662 -0.1249
  518MOL0     O68279   0.757   4.576   2.356  1.3019 -0.0738 -0.1912
  518MOL0     C68280   0.684   4.607   2.240 -0.1039 -0.3161 -0.9587
  518MOL0     C68281   0.578   4.506   2.220 -0.5579  0.5897 -0.0644
  518MOL0     C68282   0.455   4.570   2.145 -0.3966 -0.1883  0.2299
  518MOL0     C68283   0.357   4.448   2.127  0.3803 -0.2188 -0.3436
  518MOL0     C68284   0.223   4.490   2.062 -0.2860 -0.3109 -0.3132
  518MOL0     C68285   0.139   4.593   2.134  0.8204  0.4036  0.2456
  518MOL0     C68286   0.015   4.626   2.051 -0.2921  0.3820 -1.0844
  518MOL0     C68287  -0.064   4.494   2.004  0.0950 -0.2465 -0.0665
  518MOL0    Cl68288  -0.235   4.544   1.973  0.0341  0.1061  0.0621
  518MOL0     C68289   0.940   4.734   2.294 -0.2914 -0.1556  0.2361
  518MOL0     C68290   1.074   4.768   2.312 -0.3625 -0.6112 -0.2575
  518MOL0     O68291   1.320   4.784   2.601 -0.1521  0.5191  0.4275
  518MOL0     C68292   1.544   4.814   2.312 -0.0306 -0.0028  0.6533
  518MOL0     C68293   1.669   4.870   2.274 -0.7233 -0.7099 -0.9436
  518MOL0     N68294   2.373   5.020   2.173 -0.1959 -0.2567  0.0065
  518MOL0     N68295   2.419   5.138   2.150 -0.6139 -0.1393  0.0412
  518MOL0     C68296   2.984   5.847   1.787 -0.6190 -0.8060 -0.1051
  518MOL0     C68297   3.065   5.958   1.825  0.1730  0.6469 -0.9471
  518MOL0     C68298   3.181   6.406   1.882  0.4607 -0.2524 -0.0414
  518MOL0     C68299   3.256   6.422   1.768 -0.3571  0.1777 -0.1121
  518MOL0     C68300   3.367   6.505   1.760 -0.8943 -0.3443 -0.2447
  518MOL0     C68301   3.394   6.595   1.874 -1.0215  0.1164  0.8407
  518MOL0     O68302   3.502   6.676   1.886 -0.6787  0.1384 -0.7911
  518MOL0     C68303   3.632   6.665   1.818  1.1516  0.0930 -0.9568
  518MOL0     C68304   3.708   6.545   1.875 -0.5603 -0.3163 -0.2975
  518MOL0     C68305   3.756   6.567   2.014 -0.3690 -0.5862  0.4612
  518MOL0     C68306   3.857   6.683   2.049 -0.3535 -0.1636  0.3660
  518MOL0     C68307   3.980   6.677   1.969  0.4578  0.5922  0.9098
  518MOL0     C68308   4.088   6.668   1.912  0.4770  0.7647  0.2748
  518MOL0     C68309   3.311   6.585   1.983 -0.5721 -0.4241  0.1379
  518MOL0     C68310   3.209   6.491   1.999  0.7292  1.4166  0.3761
  518MOL0     H68311   2.855   6.207   1.735  0.8194 -0.2176 -0.5499
  518MOL0     H68312   2.712   6.041   1.689 -0.3206  0.2541  2.9775
  518MOL0     H68313   2.747   5.752   1.505  0.0496  0.5283 -0.5799
  518MOL0     H68314   2.622   5.839   1.599 -2.6363 -1.5285  2.3550
  518MOL0     H68315   2.658   5.533   1.617  0.6024  0.0984 -0.1786
  518MOL0     H68316   2.534   5.614   1.532  1.3646 -2.0851  0.1313
  518MOL0     H68317   2.438   5.722   1.734  0.5426  0.9258  2.1675
  518MOL0     H68318   2.565   5.651   1.829 -2.7846  1.8307  1.5191
  518MOL0     H68319   2.359   5.522   1.654  1.4208 -1.2401 -0.8124
  518MOL0     H68320   2.490   5.437   1.743 -0.2782 -0.2006 -0.2583
  518MOL0     H68321   2.215   5.495   1.851  0.2246  2.3571  1.3337
  518MOL0     H68322   2.313   5.621   1.908 -0.6006  0.9085 -1.2440
  518MOL0     H68323   2.485   5.470   2.000  0.1378  0.5725 -0.9245
  518MOL0     H68324   2.397   5.331   1.960  0.4859 -0.0245 -2.0230
  518MOL0     H68325   2.307   5.566   2.132 -1.4932 -1.0777  0.4100
  518MOL0     H68326   2.192   5.432   2.093 -2.0657  3.6822  2.1372
  518MOL0     H68327   2.331   5.403   2.332 -0.9189 -2.5734  0.8663
  518MOL0     H68328   2.467   5.388   2.225 -0.4142  0.0621  0.5125
  518MOL0     H68329   2.172   5.181   2.364  0.6141  2.7908  0.0872
  518MOL0     H68330   2.131   4.942   2.399 -0.6153  0.9641 -0.9002
  518MOL0     H68331   2.269   4.853   2.377  0.5793  0.8677 -0.6988
  518MOL0     H68332   2.103   4.715   2.270 -0.1963 -0.0822  0.6481
  518MOL0     H68333   2.186   4.781   2.132 -3.1221 -1.0110 -2.2339
  518MOL0     H68334   2.008   4.857   2.056 -0.2835 -3.6561  0.5548
  518MOL0     H68335   1.931   4.770   2.184 -0.9412  1.4328  1.3965
  518MOL0     H68336   1.851   5.015   2.153  2.9301  0.4937 -3.5548
  518MOL0     H68337   2.004   5.073   2.218 -0.5167  0.3419 -1.3251
  518MOL0     H68338   1.764   5.008   2.563 -1.4819  2.2678 -0.6741
  518MOL0     H68339   1.533   4.937   2.631  1.2811  3.3075 -1.1186
  518MOL0     H68340   1.184   4.514   2.514  1.5231  0.3343 -1.5765
  518MOL0     H68341   0.934   4.453   2.484  3.7823 -0.5881  2.2064
  518MOL0     H68342   0.749   4.603   2.151  0.4557 -1.2209 -0.5227
  518MOL0     H68343   0.643   4.708   2.239  0.6394 -0.0101 -1.3487
  518MOL0     H68344   0.531   4.481   2.316 -1.5052 -1.0399 -0.9145
  518MOL0     H68345   0.619   4.418   2.170  0.9021  1.5564 -0.6314
  518MOL0     H68346   0.483   4.616   2.049 -0.7957  0.7666  0.5588
  518MOL0     H68347   0.414   4.647   2.210 -2.6068 -1.3776  0.3107
  518MOL0     H68348   0.410   4.394   2.048  0.6749  1.3303 -1.2260
  518MOL0     H68349   0.336   4.385   2.215 -0.0721 -2.1487 -1.7543
  518MOL0     H68350   0.163   4.399   2.051  0.3185 -0.9643  1.4199
  518MOL0     H68351   0.248   4.535   1.966 -0.1883  0.1389 -0.0803
  518MOL0     H68352   0.198   4.683   2.151 -0.1843  1.2925 -0.8569
  518MOL0     H68353   0.109   4.559   2.234 -0.3259 -5.5699 -1.7032
  518MOL0     H68354  -0.057   4.676   2.117 -0.3026 -2.3017  1.1274
  518MOL0     H68355   0.040   4.694   1.969  0.4070 -0.9166 -1.9659
  518MOL0     H68356  -0.058   4.424   2.088  3.1619  2.0779  1.8349
  518MOL0     H68357  -0.017   4.451   1.915 -2.2385 -1.3791 -0.8397
  518MOL0     H68358   0.892   4.787   2.213 -0.9341 -0.8117  0.1843
  518MOL0     H68359   1.102   4.858   2.259  1.9892 -1.5984 -0.8132
  518MOL0     H68360   1.480   4.760   2.244  0.9298  0.7297 -0.8974
  518MOL0     H68361   1.696   4.864   2.169  0.9236  2.1559 -0.7823
  518MOL0     H68362   3.035   5.752   1.774  1.7896  0.5345 -1.2584
  518MOL0     H68363   3.167   5.944   1.859 -0.1001  2.9305  1.0591
  518MOL0     H68364   3.239   6.354   1.685 -0.4202  2.7445 -2.3533
  518MOL0     H68365   3.443   6.508   1.683  0.3188  1.1756  0.9475
  518MOL0     H68366   3.676   6.763   1.838  0.3341 -0.0971  2.3661
  518MOL0     H68367   3.630   6.647   1.710 -0.5924 -1.9744 -0.6588
  518MOL0     H68368   3.634   6.465   1.862 -1.0006  0.2307 -1.3083
  518MOL0     H68369   3.803   6.523   1.826  0.8112  0.6694  1.8192
  518MOL0     H68370   3.802   6.471   2.041 -1.7715 -0.4334  3.7654
  518MOL0     H68371   3.667   6.585   2.074 -0.7211 -0.3408 -0.1221
  518MOL0     H68372   3.806   6.777   2.025 -2.0626 -0.8273  1.2172
  518MOL0     H68373   3.871   6.691   2.157  0.9341 -1.6232  0.3410
  518MOL0     H68374   4.190   6.667   1.879  1.3243 -1.0934  2.6480
  518MOL0     H68375   3.339   6.648   2.067 -0.0960  2.7672 -2.2353
  518MOL0     H68376   3.154   6.477   2.091  0.7398  0.3740  0.2272
  519MOL0     O68377   5.828   6.963   3.050 -0.8056 -1.2479  0.6096
  519MOL0     C68378   5.898   6.980   3.151  0.1872 -0.0103 -0.9081
  519MOL0     O68379   5.857   7.051   3.262  0.2766  0.3807  0.4153
  519MOL0     C68380   5.727   7.098   3.246 -0.2923  0.3191 -0.1737
  519MOL0     C68381   5.696   7.199   3.157 -0.6338 -0.2197 -0.4555
  519MOL0     C68382   5.561   7.253   3.151 -1.2687 -0.7772 -0.2025
  519MOL0     C68383   5.465   7.223   3.240 -0.9345  0.3419 -0.0433
  519MOL0     O68384   5.359   7.303   3.231 -0.4182 -0.3628  0.0724
  519MOL0     C68385   5.245   7.272   3.310 -0.5147  0.1670  0.5596
  519MOL0     C68386   5.140   7.378   3.302 -0.5312  0.0721 -0.0021
  519MOL0     C68387   5.017   7.328   3.372  0.1889 -0.4137  0.6447
  519MOL0     C68388   4.911   7.435   3.355 -0.6306 -0.4697  1.1955
  519MOL0     C68389   4.790   7.405   3.440 -0.4303 -0.7089 -0.0606
  519MOL0     C68390   4.696   7.525   3.434  0.7458  0.9160  0.5433
  519MOL0     C68391   4.562   7.502   3.497  0.1698 -0.6406  0.2623
  519MOL0     C68392   4.478   7.406   3.418  0.0734 -0.2729 -0.2062
  519MOL0     N68393   4.460   7.434   3.271  0.8021  1.1156 -0.1138
  519MOL0     C68394   4.377   7.540   3.226 -0.4745 -0.4334  1.4578
  519MOL0     C68395   4.366   7.514   3.088 -0.1039  0.0485 -0.1957
  519MOL0     C68396   4.304   7.611   2.987  1.0853  0.4857 -0.3505
  519MOL0     C68397   4.155   7.639   3.003  0.5162 -0.2558  0.1475
  519MOL0     C68398   4.118   7.766   2.924 -0.1277 -0.3278 -0.3099
  519MOL0     C68399   3.973   7.777   2.932  0.5702 -0.5684 -0.0820
  519MOL0     O68400   3.933   7.891   2.854  0.4411  0.3560  0.3188
  519MOL0     C68401   3.806   7.935   2.858  0.5527  0.1024 -0.0843
  519MOL0     C68402   3.782   8.064   2.816 -0.2106 -0.6287  1.1750
  519MOL0     C68403   3.656   8.125   2.835 -0.2235 -0.2883  0.2202
  519MOL0     C68404   3.549   8.048   2.896  0.9965  0.5902  0.0245
  519MOL0     C68405   3.414   8.120   2.917 -0.4559  0.5415  0.1147
  519MOL0     O68406   3.304   8.037   2.923 -0.2510  0.0302  1.0529
  519MOL0     C68407   3.183   8.093   2.917 -0.0164 -0.6551 -0.4057
  519MOL0     C68408   3.144   8.190   3.020 -0.1331  0.2147 -0.8264
  519MOL0     C68409   3.015   8.246   3.013 -0.3276  0.6889  0.1789
  519MOL0     C68410   2.925   8.221   2.904 -0.2873 -0.3936 -0.4366
  519MOL0     O68411   2.804   8.280   2.890  0.6501 -0.1653  0.0661
  519MOL0     C68412   2.756   8.382   2.982 -0.1818  0.7043  0.5359
  519MOL0     C68413   2.819   8.518   2.957 -0.1412 -0.0059  0.3912
  519MOL0     C68414   2.723   8.610   2.881 -0.1410  0.2175 -0.5258
  519MOL0     C68415   2.798   8.726   2.815 -0.8062  0.8796  0.2263
  519MOL0     C68416   2.716   8.780   2.694 -0.7300 -0.5382 -1.0245
  519MOL0     C68417   2.602   8.873   2.738  1.0398  0.3331 -0.4563
  519MOL0     C68418   2.529   8.949   2.620 -0.7952 -0.3209  0.4000
  519MOL0     C68419   2.397   9.013   2.651  0.5768  0.5056 -0.2255
  519MOL0    Cl68420   2.362   9.093   2.497 -0.1890  0.0712 -0.2433
  519MOL0     C68421   2.967   8.115   2.815  0.2532 -0.5304 -0.3506
  519MOL0     C68422   3.095   8.049   2.818  0.3284 -0.5609  0.4578
  519MOL0     O68423   3.416   8.244   2.903 -0.4624  0.8228 -0.2995
  519MOL0     C68424   3.567   7.917   2.924  0.7237  0.7996 -0.7711
  519MOL0     C68425   3.694   7.862   2.913  0.4804  0.3555 -0.1308
  519MOL0     N68426   4.431   7.397   3.067  0.3805 -0.0986  0.8086
  519MOL0     N68427   4.481   7.348   3.170  0.4918  0.5420  0.3172
  519MOL0     C68428   5.497   7.123   3.342  0.7391 -0.5731 -0.2280
  519MOL0     C68429   5.624   7.060   3.344  0.0815  0.5592  0.9321
  519MOL0     C68430   6.026   6.911   3.150 -1.1487 -0.0937  0.0848
  519MOL0     C68431   6.086   6.862   3.032 -0.6809 -1.1822 -0.0503
  519MOL0     C68432   6.202   6.783   3.038  0.1244  1.1164  0.8171
  519MOL0     C68433   6.273   6.753   3.153  0.1588 -0.5964 -0.5626
  519MOL0     O68434   6.392   6.686   3.151  0.3202  0.5939  0.3559
  519MOL0     C68435   6.504   6.774   3.142  0.4136  0.5514  0.0440
  519MOL0     C68436   6.582   6.752   3.017  0.2812 -0.4731 -0.0605
  519MOL0     C68437   6.690   6.867   3.010 -0.8017  0.3324 -0.0857
  519MOL0     C68438   6.789   6.854   2.904 -0.2529 -0.3006  0.3083
  519MOL0     C68439   6.867   6.730   2.892  0.1929 -0.2901 -0.8055
  519MOL0     C68440   6.920   6.619   2.886 -0.9012 -0.3771 -0.8975
  519MOL0     C68441   6.212   6.802   3.270 -0.2694 -0.0676 -0.1467
  519MOL0     C68442   6.095   6.875   3.271 -0.9802 -0.1037  0.3973
  519MOL0     H68443   5.761   7.235   3.077 -1.6846  2.5484 -0.1807
  519MOL0     H68444   5.538   7.318   3.068 -3.3411 -0.2774  0.6887
  519MOL0     H68445   5.276   7.258   3.414  0.9917 -0.6070  0.0440
  519MOL0     H68446   5.201   7.179   3.274  1.2672  0.7004 -3.5401
  519MOL0     H68447   5.122   7.396   3.195 -0.1205 -1.5432 -0.3693
  519MOL0     H68448   5.176   7.474   3.341 -0.3523  0.8358 -1.9127
  519MOL0     H68449   5.041   7.313   3.478 -2.2900 -2.3016  1.0385
  519MOL0     H68450   4.974   7.235   3.334  1.4768 -0.9792  0.4998
  519MOL0     H68451   4.955   7.532   3.383  0.6391 -0.0157 -1.8970
  519MOL0     H68452   4.886   7.465   3.253 -1.9486  1.5017  2.0418
  519MOL0     H68453   4.817   7.394   3.546  0.2092  1.6272  0.0644
  519MOL0     H68454   4.735   7.318   3.404 -0.8793  0.1334 -1.4800
  519MOL0     H68455   4.685   7.560   3.331 -1.8366 -0.3043  0.3243
  519MOL0     H68456   4.748   7.613   3.473  0.6264  1.4027 -0.3551
  519MOL0     H68457   4.566   7.486   3.605 -3.7100  1.3516  0.8925
  519MOL0     H68458   4.513   7.600   3.489 -2.4114 -1.9061 -0.4695
  519MOL0     H68459   4.381   7.408   3.469  0.7825 -3.6737  1.5553
  519MOL0     H68460   4.504   7.303   3.443  1.6622  0.3462  0.8567
  519MOL0     H68461   4.338   7.625   3.282  0.4534 -0.3330  1.9659
  519MOL0     H68462   4.321   7.581   2.883  1.3867  3.8988 -1.3954
  519MOL0     H68463   4.366   7.701   2.993 -0.3340  1.4461  0.3694
  519MOL0     H68464   4.123   7.647   3.107  1.2657  1.0669  0.2951
  519MOL0     H68465   4.108   7.554   2.952  2.6229 -2.8314  2.1848
  519MOL0     H68466   4.171   7.850   2.971  0.6223 -1.4381  0.8775
  519MOL0     H68467   4.140   7.782   2.818  2.4075  3.5347  0.5587
  519MOL0     H68468   3.957   7.797   3.039 -2.7354 -1.1464 -0.3686
  519MOL0     H68469   3.914   7.691   2.898 -2.6468  2.0302 -1.5389
  519MOL0     H68470   3.873   8.112   2.780 -1.4109 -0.7993 -2.4573
  519MOL0     H68471   3.651   8.232   2.820 -1.6629  0.5826  5.3384
  519MOL0     H68472   3.220   8.208   3.095 -1.0455  2.4771 -0.3847
  519MOL0     H68473   2.981   8.326   3.079  0.0348  0.6397  0.4314
  519MOL0     H68474   2.776   8.349   3.084 -1.2971  1.5991  1.0726
  519MOL0     H68475   2.647   8.387   2.971 -0.1219 -0.1161 -0.6590
  519MOL0     H68476   2.907   8.502   2.894 -2.0577 -0.7426 -2.2576
  519MOL0     H68477   2.848   8.567   3.050  1.0229  1.0115 -0.4643
  519MOL0     H68478   2.651   8.649   2.954  1.8798 -1.8652  2.8506
  519MOL0     H68479   2.690   8.552   2.794  1.5054  1.5285 -2.1034
  519MOL0     H68480   2.828   8.800   2.888  1.3396 -0.1409  0.4526
  519MOL0     H68481   2.888   8.685   2.769 -1.6380  0.8162 -1.4322
  519MOL0     H68482   2.698   8.694   2.629 -0.2732 -1.4090 -0.0265
  519MOL0     H68483   2.788   8.835   2.632  0.1750  0.9140  1.1607
  519MOL0     H68484   2.639   8.948   2.809 -0.1934 -0.4099  1.0411
  519MOL0     H68485   2.529   8.807   2.787 -0.5771  2.6755  0.4442
  519MOL0     H68486   2.599   9.013   2.566 -3.1519  1.5482 -0.6105
  519MOL0     H68487   2.504   8.881   2.538  0.2913  0.2442 -0.4273
  519MOL0     H68488   2.421   9.084   2.731  0.3900 -0.2870  0.5449
  519MOL0     H68489   2.324   8.936   2.679  1.2980 -0.0264  0.1952
  519MOL0     H68490   2.891   8.073   2.750 -0.8266 -1.9626  1.7247
  519MOL0     H68491   3.132   7.974   2.748 -0.7283 -0.4726 -0.2153
  519MOL0     H68492   3.483   7.872   2.974  2.9126  0.3800  2.8706
  519MOL0     H68493   3.711   7.761   2.949 -0.9072 -0.5479 -1.8643
  519MOL0     H68494   5.422   7.085   3.411 -2.1841 -1.3525 -3.5913
  519MOL0     H68495   5.640   6.979   3.414  0.8261 -2.0799 -2.0662
  519MOL0     H68496   6.042   6.886   2.936  0.1193  1.2391  0.1367
  519MOL0     H68497   6.245   6.737   2.949  0.9941  0.0312  1.7759
  519MOL0     H68498   6.568   6.760   3.230 -0.0938  5.4916  1.4862
  519MOL0     H68499   6.482   6.878   3.168 -1.7537  0.1999 -0.1487
  519MOL0     H68500   6.621   6.650   3.025  1.8766 -0.4259 -4.4389
  519MOL0     H68501   6.511   6.764   2.934 -1.7178 -1.4092  1.4335
  519MOL0     H68502   6.752   6.860   3.101 -0.5021 -2.4430 -0.4183
  519MOL0     H68503   6.637   6.962   3.009 -0.2497  0.6636  0.7059
  519MOL0     H68504   6.736   6.869   2.809  1.8272  0.6272 -0.7852
  519MOL0     H68505   6.859   6.938   2.912 -0.5535  0.0471 -0.5289
  519MOL0     H68506   6.956   6.519   2.878 -1.4103 -0.5775 -0.6793
  519MOL0     H68507   6.265   6.780   3.363  1.1121  2.9977 -0.0938
  519MOL0     H68508   6.059   6.902   3.370  0.0071  1.1377  0.4416
  520MOL0     O68509   3.809   4.166   5.201 -0.4921 -0.3987  0.1527
  520MOL0     C68510   3.800   4.169   5.080 -0.7172 -0.6568  0.3035
  520MOL0     O68511   3.706   4.222   5.008  0.0025  0.5413 -0.0908
  520MOL0     C68512   3.604   4.288   5.063  0.4638 -0.6665  1.4711
  520MOL0     C68513   3.612   4.428   5.079 -0.3845 -0.0378  0.2442
  520MOL0     C68514   3.498   4.494   5.120  0.5115  0.1964 -0.7491
  520MOL0     C68515   3.383   4.424   5.154  0.6882 -0.6260  0.9939
  520MOL0     O68516   3.271   4.493   5.208 -0.1247  1.0671 -0.1579
  520MOL0     C68517   3.243   4.616   5.137  0.9446 -0.4826 -1.2033
  520MOL0     C68518   3.106   4.674   5.188 -0.7166 -0.1000 -0.5539
  520MOL0     C68519   2.985   4.589   5.144 -0.1169  0.0112  0.1205
  520MOL0     C68520   2.866   4.631   5.219 -0.0874 -0.2308  0.4507
  520MOL0     C68521   2.789   4.517   5.275  0.2338  0.1455 -0.3378
  520MOL0     C68522   2.690   4.553   5.379 -1.3583 -0.1083 -0.3786
  520MOL0     C68523   2.586   4.647   5.331  1.0920 -0.1352 -1.1390
  520MOL0     C68524   2.477   4.656   5.435 -0.2535  0.5750 -0.0836
  520MOL0     N68525   2.371   4.740   5.381  1.2967  0.5063  0.4288
  520MOL0     C68526   2.317   4.848   5.435  0.1755  0.2406 -0.1975
  520MOL0     C68527   2.236   4.890   5.332  1.1891  0.4164  0.4230
  520MOL0     C68528   2.158   5.018   5.321  0.7565 -1.1022  0.4415
  520MOL0     C68529   2.105   5.059   5.457 -0.9351 -0.4738 -0.2892
  520MOL0     C68530   1.999   4.965   5.512 -1.3599 -0.9238  0.5202
  520MOL0     C68531   1.869   5.021   5.472  0.0829  0.0930 -0.1326
  520MOL0     O68532   1.765   4.954   5.552 -0.1201  0.1269 -0.1940
  520MOL0     C68533   1.641   5.017   5.532 -0.1033  0.5407 -1.0387
  520MOL0     C68534   1.583   5.097   5.634 -0.4774 -0.2405 -0.6590
  520MOL0     C68535   1.448   5.143   5.613 -0.9075 -0.8220 -0.8637
  520MOL0     C68536   1.380   5.105   5.504  0.8314  0.2461  1.4007
  520MOL0     C68537   1.236   5.142   5.493 -1.5786 -0.2965 -1.0002
  520MOL0     O68538   1.181   5.132   5.368 -0.5247  0.6431  0.0954
  520MOL0     C68539   1.045   5.155   5.364 -0.9382  0.2773  0.0225
  520MOL0     C68540   0.955   5.047   5.358  0.2180  0.2376 -0.7581
  520MOL0     C68541   0.823   5.084   5.362 -1.1240  0.4924 -0.5899
  520MOL0     C68542   0.780   5.214   5.353 -0.3805 -0.4316  0.4859
  520MOL0     O68543   0.642   5.232   5.337 -0.1797  0.2911 -0.0409
  520MOL0     C68544   0.604   5.350   5.275 -0.3226 -0.6650  0.7451
  520MOL0     C68545   0.471   5.335   5.204  0.7002 -0.1300  0.0697
  520MOL0     C68546   0.375   5.241   5.279 -0.9725 -0.4047 -0.0173
  520MOL0     C68547   0.238   5.212   5.225  0.9470 -0.3808  0.1237
  520MOL0     C68548   0.156   5.345   5.227 -0.1336  0.7462 -1.0830
  520MOL0     C68549  -0.001   5.332   5.242 -0.1223  0.6060 -0.3623
  520MOL0     C68550  -0.079   5.461   5.279  0.3967  0.2717  0.0786
  520MOL0     C68551  -0.222   5.460   5.234 -0.2586  1.1297  0.7799
  520MOL0    Cl68552  -0.274   5.628   5.218 -0.2280 -0.2444 -0.3781
  520MOL0     C68553   0.871   5.316   5.351 -0.0912  0.2122  0.1467
  520MOL0     C68554   1.006   5.287   5.358 -0.1849  1.1281 -0.2675
  520MOL0     O68555   1.186   5.148   5.599  0.5857 -0.8367 -0.4946
  520MOL0     C68556   1.442   5.036   5.398 -0.4888  0.3265 -0.7489
  520MOL0     C68557   1.570   4.986   5.411 -0.0960  0.4346  0.5043
  520MOL0     N68558   2.236   4.813   5.223  0.2036  0.3607  0.0386
  520MOL0     N68559   2.327   4.728   5.245 -0.6765 -1.1376  0.8915
  520MOL0     C68560   3.382   4.281   5.148  0.6882 -1.3536 -0.2614
  520MOL0     C68561   3.489   4.213   5.079 -0.2468 -0.6145  0.4097
  520MOL0     C68562   3.914   4.108   5.004 -1.3994 -0.6756  0.0186
  520MOL0     C68563   3.905   4.058   4.875 -0.9759 -0.6679  0.4243
  520MOL0     C68564   4.028   4.020   4.812 -0.1322  0.8046 -0.8436
  520MOL0     C68565   4.152   4.009   4.873 -0.0305  0.9564 -0.5461
  520MOL0     O68566   4.259   3.957   4.804  1.2665  0.1188 -0.0457
  520MOL0     C68567   4.350   4.060   4.773 -0.5649 -0.3490 -0.0112
  520MOL0     C68568   4.441   4.029   4.658 -0.3894  0.1958 -0.2483
  520MOL0     C68569   4.532   3.912   4.662 -0.0339 -0.7610  0.3424
  520MOL0     C68570   4.656   3.922   4.741  0.3423 -0.2526  0.1704
  520MOL0     C68571   4.758   3.998   4.673  0.1705 -0.8084 -1.1911
  520MOL0     C68572   4.864   4.035   4.620  0.8107 -0.9631 -0.1285
  520MOL0     C68573   4.168   4.068   4.998 -0.1534  0.0797  0.0096
  520MOL0     C68574   4.051   4.116   5.058 -0.3964 -0.7522 -1.0316
  520MOL0     H68575   3.700   4.491   5.066  0.9703 -2.0035 -0.5656
  520MOL0     H68576   3.492   4.600   5.139  0.3539 -0.1276  1.2963
  520MOL0     H68577   3.234   4.603   5.029 -2.4380 -1.0455 -0.9681
  520MOL0     H68578   3.323   4.685   5.166  1.3790 -0.8918 -1.4148
  520MOL0     H68579   3.092   4.777   5.155 -0.6968  0.5571  1.4023
  520MOL0     H68580   3.122   4.679   5.296  0.6069 -2.2494 -0.5806
  520MOL0     H68581   3.006   4.485   5.171  4.0194  0.8730  0.8549
  520MOL0     H68582   2.975   4.583   5.035  2.5187 -0.7793 -0.1597
  520MOL0     H68583   2.889   4.703   5.299  0.4568 -0.6274  0.6574
  520MOL0     H68584   2.806   4.688   5.147  4.1746  0.8633 -2.6502
  520MOL0     H68585   2.855   4.443   5.320 -1.6507 -1.6952 -0.4457
  520MOL0     H68586   2.728   4.466   5.200  1.3229  0.6699 -1.6244
  520MOL0     H68587   2.732   4.602   5.467 -0.2866 -1.7296  0.0516
  520MOL0     H68588   2.636   4.467   5.420 -3.2338  1.1397 -0.0680
  520MOL0     H68589   2.622   4.746   5.303  1.2052 -0.4041 -1.9601
  520MOL0     H68590   2.549   4.605   5.238 -1.0516  3.3294 -2.0170
  520MOL0     H68591   2.499   4.714   5.524  0.3416  0.0704  0.0989
  520MOL0     H68592   2.437   4.558   5.461  2.1172 -0.1525  1.0082
  520MOL0     H68593   2.334   4.890   5.534  2.7073  0.4125 -0.6612
  520MOL0     H68594   2.077   5.008   5.247  2.4158 -5.0268 -1.0870
  520MOL0     H68595   2.227   5.092   5.280  1.4367 -1.8568  0.2051
  520MOL0     H68596   2.066   5.161   5.464 -0.3514 -0.3711  2.8872
  520MOL0     H68597   2.184   5.057   5.532 -2.5476  1.3039  1.5641
  520MOL0     H68598   2.011   4.866   5.465 -3.3006 -2.2465  2.6148
  520MOL0     H68599   2.002   4.949   5.620 -2.2140 -0.4859  0.6140
  520MOL0     H68600   1.847   5.004   5.366 -1.3888 -1.6250  0.3944
  520MOL0     H68601   1.862   5.129   5.489  0.1571 -0.2174  2.2436
  520MOL0     H68602   1.638   5.131   5.721 -0.0734 -1.8560 -0.2516
  520MOL0     H68603   1.392   5.190   5.694 -1.5788 -1.0998 -1.1604
  520MOL0     H68604   0.995   4.946   5.369 -0.4291  0.2618  3.4860
  520MOL0     H68605   0.748   5.005   5.356 -1.0782  0.2696  1.3008
  520MOL0     H68606   0.673   5.402   5.208 -0.1539  0.2788  1.6359
  520MOL0     H68607   0.592   5.415   5.362  3.4379 -2.0533  2.5565
  520MOL0     H68608   0.475   5.298   5.101 -4.0466  1.2682 -0.8643
  520MOL0     H68609   0.426   5.434   5.203 -2.1270 -1.2830  1.5165
  520MOL0     H68610   0.348   5.280   5.378 -1.2143  1.4899 -0.7936
  520MOL0     H68611   0.430   5.146   5.285  5.0568  2.6776  1.3408
  520MOL0     H68612   0.216   5.161   5.131 -0.0565  1.3058 -0.5951
  520MOL0     H68613   0.179   5.152   5.295 -1.8370  1.7917 -0.1950
  520MOL0     H68614   0.171   5.392   5.129  1.4752 -0.9255 -1.7053
  520MOL0     H68615   0.192   5.408   5.309 -2.1860  1.6037 -0.7908
  520MOL0     H68616  -0.026   5.264   5.324 -4.1575  1.3290 -0.7847
  520MOL0     H68617  -0.045   5.290   5.151  2.3089 -1.0656 -0.8604
  520MOL0     H68618  -0.066   5.482   5.385  1.6252 -0.9103  0.1919
  520MOL0     H68619  -0.034   5.553   5.240 -3.0398  3.1095  2.2174
  520MOL0     H68620  -0.285   5.394   5.294  1.2441 -2.3298 -1.1349
  520MOL0     H68621  -0.217   5.413   5.135  0.3937 -1.0148  1.7602
  520MOL0     H68622   0.852   5.421   5.330  3.5896  0.4109 -3.2599
  520MOL0     H68623   1.087   5.358   5.343 -0.2007  0.6639 -3.0202
  520MOL0     H68624   1.395   5.022   5.301 -0.1083 -0.8108 -0.7790
  520MOL0     H68625   1.621   4.926   5.336 -2.8448 -3.4065  1.4289
  520MOL0     H68626   3.301   4.218   5.183  0.8724 -0.8343  1.1648
  520MOL0     H68627   3.484   4.107   5.054 -0.2249 -0.7969  1.1513
  520MOL0     H68628   3.819   4.083   4.814 -0.3915  1.3872  0.3493
  520MOL0     H68629   4.011   4.001   4.706  1.2039 -2.4342 -0.5765
  520MOL0     H68630   4.416   4.083   4.857  1.6493 -2.5057 -1.0378
  520MOL0     H68631   4.294   4.150   4.745  2.6313  2.4163  1.6864
  520MOL0     H68632   4.377   4.016   4.570  0.9043  0.6582 -1.2860
  520MOL0     H68633   4.507   4.115   4.644  2.0086 -1.7821 -1.9498
  520MOL0     H68634   4.575   3.885   4.565 -0.2063  0.1276  0.0059
  520MOL0     H68635   4.465   3.828   4.681  1.6245 -1.8822  1.5114
  520MOL0     H68636   4.623   3.959   4.838  1.0753 -0.9010  0.6852
  520MOL0     H68637   4.701   3.824   4.763 -2.8682 -1.3138  2.8227
  520MOL0     H68638   4.957   4.068   4.578  1.2318 -0.4570  1.1575
  520MOL0     H68639   4.268   4.072   5.039  0.4696 -2.1145 -1.1401
  520MOL0     H68640   4.060   4.160   5.157 -1.1648  1.8893 -2.0405
  521MOL0     O68641   5.651   2.269   3.959 -0.7481 -0.7457  0.1261
  521MOL0     C68642   5.562   2.211   4.022  0.3193 -0.0761  0.2563
  521MOL0     O68643   5.570   2.085   4.074  0.0336 -0.9222 -0.4575
  521MOL0     C68644   5.690   2.024   4.050 -0.1771  0.9129 -0.0183
  521MOL0     C68645   5.793   2.054   4.142  0.0576  0.2322  0.2890
  521MOL0     C68646   5.913   1.988   4.139  0.1475 -0.0938  0.3570
  521MOL0     C68647   5.937   1.882   4.049 -0.8397  0.3008 -0.3468
  521MOL0     O68648   6.053   1.814   4.057 -0.1226  0.4429 -0.0378
  521MOL0     C68649   6.042   1.667   4.073 -0.7724  0.3231  0.3128
  521MOL0     C68650   6.119   1.586   4.173  0.0458 -0.6202  0.2797
  521MOL0     C68651   6.271   1.575   4.144  0.2561  0.2831 -0.8240
  521MOL0     C68652   6.332   1.551   4.284  0.5287 -0.5638  0.2746
  521MOL0     C68653   6.480   1.509   4.300  0.6019  1.6809 -0.4856
  521MOL0     C68654   6.566   1.645   4.303  0.0019  0.2923 -0.6537
  521MOL0     C68655   6.708   1.618   4.329 -1.6876 -0.2055  1.1531
  521MOL0     C68656   6.719   1.584   4.479 -0.4996 -0.4236 -0.2602
  521MOL0     N68657   6.857   1.561   4.529  0.1538 -0.3625 -1.4148
  521MOL0     C68658   6.964   1.641   4.507 -0.4380 -0.0567 -0.1351
  521MOL0     C68659   7.069   1.566   4.557  0.2981  0.6285 -0.1189
  521MOL0     C68660   7.208   1.603   4.576 -0.0433 -0.1432  0.3357
  521MOL0     C68661   7.310   1.496   4.535  0.5817 -0.1613 -0.0746
  521MOL0     C68662   7.340   1.494   4.381  0.0200 -0.5564 -0.3977
  521MOL0     C68663   7.420   1.368   4.336  0.1099 -1.0188  0.9879
  521MOL0     O68664   7.342   1.253   4.336 -0.0503  0.8978  0.1888
  521MOL0     C68665   7.219   1.258   4.279 -0.2804 -0.6223  0.1513
  521MOL0     C68666   7.105   1.242   4.360 -0.5309 -0.4075  0.7083
  521MOL0     C68667   6.975   1.253   4.318 -0.1970  0.2413  0.1890
  521MOL0     C68668   6.959   1.278   4.175 -0.0484  0.1811  0.2682
  521MOL0     C68669   6.818   1.301   4.119  0.0769 -0.5076  0.8846
  521MOL0     O68670   6.804   1.361   3.996 -0.0963  0.2274 -0.9852
  521MOL0     C68671   6.680   1.401   3.951  0.3098  0.1253 -0.5625
  521MOL0     C68672   6.586   1.308   3.903 -0.2783  0.3766 -0.7811
  521MOL0     C68673   6.465   1.358   3.839 -0.8857 -0.5116 -0.4024
  521MOL0     C68674   6.441   1.496   3.837 -0.4146  0.8029 -0.0092
  521MOL0     O68675   6.319   1.532   3.789  0.5629  0.0903 -1.0865
  521MOL0     C68676   6.306   1.665   3.726  0.2351 -0.3184 -0.0486
  521MOL0     C68677   6.162   1.662   3.675  0.0274 -0.5482  0.9562
  521MOL0     C68678   6.113   1.795   3.614 -1.2214  0.3562 -0.1362
  521MOL0     C68679   5.973   1.795   3.583 -0.3059 -0.5022  0.5759
  521MOL0     C68680   5.923   1.923   3.524  0.6178 -0.1260 -0.3447
  521MOL0     C68681   5.771   1.914   3.539  0.0488  0.0923 -0.6591
  521MOL0     C68682   5.702   2.035   3.505  0.1306 -0.0977  0.3320
  521MOL0     C68683   5.552   2.030   3.558  0.0362  0.0698  0.5926
  521MOL0    Cl68684   5.482   2.176   3.502  0.5054 -0.1728  0.0763
  521MOL0     C68685   6.519   1.587   3.905 -1.1813  1.2604  0.1895
  521MOL0     C68686   6.643   1.541   3.950 -0.2787  1.4829 -1.4646
  521MOL0     O68687   6.728   1.267   4.191  0.1208 -0.3878 -0.1743
  521MOL0     C68688   7.069   1.278   4.089  0.3409  0.0930 -0.1263
  521MOL0     C68689   7.199   1.268   4.139  1.4338 -0.5252  0.2105
  521MOL0     N68690   7.015   1.453   4.621 -0.3830  0.0498  0.0329
  521MOL0     N68691   6.893   1.446   4.589 -0.0240  0.6495 -0.4900
  521MOL0     C68692   5.841   1.857   3.945 -0.0005 -0.0908  1.0972
  521MOL0     C68693   5.721   1.935   3.944  0.8277 -0.3543  0.4413
  521MOL0     C68694   5.426   2.280   4.037 -0.3071  0.0400  0.0477
  521MOL0     C68695   5.365   2.256   4.159  0.0185  1.1806  0.0447
  521MOL0     C68696   5.238   2.306   4.182 -0.5918 -0.9106 -0.6407
  521MOL0     C68697   5.172   2.383   4.088  0.4150  0.4128  0.7601
  521MOL0     O68698   5.045   2.422   4.127  0.2541  0.2407 -0.2338
  521MOL0     C68699   4.956   2.309   4.132  0.5979 -0.0214  0.4189
  521MOL0     C68700   4.819   2.352   4.078 -0.1753  0.7875 -0.4146
  521MOL0     C68701   4.823   2.370   3.929  0.5230 -0.7004 -0.4679
  521MOL0     C68702   4.685   2.400   3.881 -0.5216  0.9310 -0.2779
  521MOL0     C68703   4.675   2.464   3.753  0.1539  0.1061 -0.0545
  521MOL0     C68704   4.679   2.527   3.652  0.9353  0.1198 -0.1645
  521MOL0     C68705   5.246   2.421   3.968  0.5767 -0.9594  0.3145
  521MOL0     C68706   5.372   2.355   3.943 -1.0675 -0.0076  0.1597
  521MOL0     H68707   5.784   2.134   4.215  5.6129  1.6838 -0.1371
  521MOL0     H68708   5.996   2.023   4.199 -0.2394  0.5419  0.5246
  521MOL0     H68709   6.067   1.622   3.977  1.7664  2.0427  0.0578
  521MOL0     H68710   5.938   1.638   4.090 -1.2068  0.0893 -2.3079
  521MOL0     H68711   6.082   1.484   4.173 -0.2132 -0.5795 -2.2244
  521MOL0     H68712   6.094   1.640   4.265  1.1000 -2.2129  1.5677
  521MOL0     H68713   6.312   1.667   4.101  1.2170 -1.1161 -3.0454
  521MOL0     H68714   6.278   1.497   4.068 -3.9140 -0.6065 -0.5057
  521MOL0     H68715   6.327   1.647   4.337  0.6049 -0.7807  0.6830
  521MOL0     H68716   6.268   1.483   4.340 -1.1141  1.3054  0.7793
  521MOL0     H68717   6.512   1.444   4.217  0.6853  1.2901 -0.1514
  521MOL0     H68718   6.484   1.457   4.396  0.0818  0.1858 -1.2452
  521MOL0     H68719   6.526   1.717   4.374 -1.8228  1.1906 -2.4842
  521MOL0     H68720   6.563   1.687   4.202 -0.7106 -4.0958 -2.7423
  521MOL0     H68721   6.745   1.542   4.259  0.8055  0.2216  1.9336
  521MOL0     H68722   6.755   1.714   4.305  1.3389 -1.2288  2.4844
  521MOL0     H68723   6.649   1.508   4.515  0.7287 -1.1983  0.5837
  521MOL0     H68724   6.678   1.672   4.530  1.5251  1.3705 -1.5782
  521MOL0     H68725   6.961   1.740   4.463 -0.3116 -0.5433 -1.2728
  521MOL0     H68726   7.226   1.643   4.676 -0.7855 -0.7840  0.7303
  521MOL0     H68727   7.223   1.686   4.506  2.1783  2.3184  3.4116
  521MOL0     H68728   7.266   1.399   4.560 -2.9580  1.5899  1.2251
  521MOL0     H68729   7.392   1.521   4.604 -1.4181 -0.0954  2.4124
  521MOL0     H68730   7.242   1.507   4.333  1.1495  2.8030 -2.1041
  521MOL0     H68731   7.401   1.582   4.357 -1.1523  0.8117  1.3296
  521MOL0     H68732   7.508   1.352   4.399  4.3128  3.9703 -2.7656
  521MOL0     H68733   7.458   1.386   4.235  2.3691  4.1694  2.4698
  521MOL0     H68734   7.129   1.201   4.458 -0.4970 -0.7750  0.5466
  521MOL0     H68735   6.887   1.258   4.381  0.3509  1.4023  0.8890
  521MOL0     H68736   6.599   1.202   3.921 -1.1613  0.6325  1.8067
  521MOL0     H68737   6.401   1.276   3.808  2.3325 -3.1218 -0.7700
  521MOL0     H68738   6.369   1.666   3.637 -1.6021 -0.0316 -1.4105
  521MOL0     H68739   6.316   1.753   3.791 -1.7576  1.3193 -1.8236
  521MOL0     H68740   6.097   1.630   3.757 -0.7928 -0.4377  0.3635
  521MOL0     H68741   6.162   1.592   3.591 -1.4855  1.8497 -1.2175
  521MOL0     H68742   6.168   1.812   3.521 -1.2513 -1.2188 -0.4594
  521MOL0     H68743   6.141   1.880   3.677 -1.5100  1.6122 -1.6356
  521MOL0     H68744   5.949   1.721   3.506  0.3739  1.8495 -2.0666
  521MOL0     H68745   5.929   1.764   3.679  3.9415  0.2646  2.9940
  521MOL0     H68746   5.957   1.952   3.424 -1.2784  1.5687 -0.5673
  521MOL0     H68747   5.965   2.004   3.584  2.8138 -1.7845  0.4961
  521MOL0     H68748   5.745   1.899   3.645  0.7457  2.8456 -0.0188
  521MOL0     H68749   5.732   1.833   3.477  2.0645 -1.8277  0.4281
  521MOL0     H68750   5.759   2.121   3.540 -1.1700  0.9721 -0.0831
  521MOL0     H68751   5.702   2.055   3.397  1.1727 -0.7377  0.2053
  521MOL0     H68752   5.557   2.019   3.666  1.0133  1.5162  0.7303
  521MOL0     H68753   5.503   1.939   3.524  2.3102 -0.5154 -1.4524
  521MOL0     H68754   6.483   1.688   3.923  0.3925  1.5825  1.8836
  521MOL0     H68755   6.708   1.613   3.999 -1.0916  0.6538  0.9584
  521MOL0     H68756   7.054   1.276   3.982  0.0705 -3.3529 -0.1148
  521MOL0     H68757   7.279   1.262   4.066  1.9017 -0.4827  0.7088
  521MOL0     H68758   5.852   1.780   3.868 -1.0493  0.9921 -0.2044
  521MOL0     H68759   5.651   1.921   3.861 -3.6261  2.1282  3.3486
  521MOL0     H68760   5.423   2.200   4.232 -0.5195 -1.7115 -1.5986
  521MOL0     H68761   5.187   2.288   4.276 -0.7521 -0.4330 -0.6360
  521MOL0     H68762   4.942   2.266   4.231  2.0376 -1.5956 -0.0157
  521MOL0     H68763   4.996   2.234   4.063 -1.1279  0.6985 -1.4674
  521MOL0     H68764   4.752   2.267   4.098  3.5475 -2.1528  0.8665
  521MOL0     H68765   4.788   2.440   4.134 -0.5176  0.7496 -0.5383
  521MOL0     H68766   4.858   2.277   3.882  0.5283 -0.1827 -1.5207
  521MOL0     H68767   4.889   2.447   3.889 -0.9884 -0.4013 -2.5938
  521MOL0     H68768   4.628   2.307   3.878  1.1366 -0.1799  0.8957
  521MOL0     H68769   4.638   2.476   3.945  1.7983  1.1466  1.2803
  521MOL0     H68770   4.668   2.592   3.567  1.7065  0.1163 -0.2712
  521MOL0     H68771   5.196   2.497   3.909 -0.9357 -1.1218  1.3309
  521MOL0     H68772   5.421   2.364   3.847  0.9011 -3.2191  0.7205
  522MOL0     O68773   7.517  10.014   0.513 -0.2689  0.1378  0.2014
  522MOL0     C68774   7.533  10.120   0.580 -0.0778  0.0196 -0.2563
  522MOL0     O68775   7.463  10.232   0.562 -0.4000 -0.1638 -0.7895
  522MOL0     C68776   7.362  10.221   0.465 -0.7060 -0.4753 -0.7952
  522MOL0     C68777   7.386  10.234   0.325 -0.7327  0.1394  0.2591
  522MOL0     C68778   7.287  10.222   0.230 -0.0445 -0.1065 -0.1658
  522MOL0     C68779   7.149  10.202   0.274 -0.7004 -0.7520  0.0121
  522MOL0     O68780   7.057  10.203   0.172 -0.0158  0.2035 -0.1568
  522MOL0     C68781   6.917  10.186   0.217  0.7010 -0.6020 -0.0989
  522MOL0     C68782   6.811  10.185   0.108 -0.4981 -0.1253 -0.0290
  522MOL0     C68783   6.762  10.320   0.065  0.4497 -0.1318  0.4528
  522MOL0     C68784   6.705  10.330  -0.077 -0.5526  0.1439 -0.0539
  522MOL0     C68785   6.584  10.232  -0.090 -0.2046  0.4965 -1.0628
  522MOL0     C68786   6.545  10.218  -0.235  0.5146 -0.0986 -0.7635
  522MOL0     C68787   6.426  10.130  -0.271 -0.4279 -0.2646 -0.7973
  522MOL0     C68788   6.302  10.167  -0.178  0.8217 -0.7420  1.1932
  522MOL0     N68789   6.185  10.096  -0.227  0.5396  0.3875  0.6830
  522MOL0     C68790   6.108  10.156  -0.322 -0.3451 -0.6438  0.4580
  522MOL0     C68791   6.007  10.074  -0.358 -0.9480 -0.4275 -0.5100
  522MOL0     C68792   5.898  10.095  -0.466 -0.2053 -0.2323  1.0110
  522MOL0     C68793   5.764  10.096  -0.395  0.8238 -0.0905 -0.1304
  522MOL0     C68794   5.653  10.131  -0.497 -0.0798 -0.3949 -0.5973
  522MOL0     C68795   5.534  10.167  -0.404 -0.7435  0.3758 -0.2341
  522MOL0     O68796   5.550  10.281  -0.305  0.1418  0.3907  0.1529
  522MOL0     C68797   5.432  10.335  -0.256 -0.1274  0.2018 -0.3237
  522MOL0     C68798   5.452  10.465  -0.199  0.9681  0.1615  0.4245
  522MOL0     C68799   5.342  10.535  -0.132  0.3138 -0.8590  1.0825
  522MOL0     C68800   5.212  10.475  -0.152 -0.0832 -0.3893  0.5022
  522MOL0     C68801   5.098  10.558  -0.104 -0.7761  0.1872  0.7292
  522MOL0     O68802   4.988  10.484  -0.075 -0.2469 -0.4577 -0.6448
  522MOL0     C68803   4.883  10.548  -0.020  0.8978 -0.6733 -0.7254
  522MOL0     C68804   4.858  10.678   0.030  0.4193 -0.3171  0.1222
  522MOL0     C68805   4.733  10.700   0.100 -0.3571  1.1229 -0.3512
  522MOL0     C68806   4.633  10.602   0.125 -0.4750 -0.3069 -0.2154
  522MOL0     O68807   4.519  10.611   0.196 -0.1243  0.1496  0.9841
  522MOL0     C68808   4.478  10.743   0.220 -0.3025 -0.6194  0.3795
  522MOL0     C68809   4.324  10.765   0.230 -0.1971  0.3911 -0.7004
  522MOL0     C68810   4.268  10.727   0.371 -0.2589  0.3594  1.2094
  522MOL0     C68811   4.123  10.690   0.361 -0.1562  0.4355  0.3416
  522MOL0     C68812   4.021  10.812   0.366 -0.2884  0.8934 -0.3717
  522MOL0     C68813   4.000  10.886   0.231 -0.1261  0.1741  0.0569
  522MOL0     C68814   3.935  10.803   0.118  0.7820  0.7922 -0.6146
  522MOL0     C68815   3.787  10.756   0.155 -0.9590 -0.3585  0.0546
  522MOL0    Cl68816   3.708  10.672   0.013 -0.4558  0.7482  0.4110
  522MOL0     C68817   4.663  10.479   0.070  0.6711 -1.0304 -0.0026
  522MOL0     C68818   4.784  10.451   0.004  0.5530 -0.8154  0.4562
  522MOL0     O68819   5.115  10.681  -0.099 -0.0020  0.2689  0.3712
  522MOL0     C68820   5.196  10.352  -0.214  0.3195  0.1581  0.0706
  522MOL0     C68821   5.304  10.281  -0.270 -0.0380 -0.0813  0.7851
  522MOL0     N68822   6.011   9.980  -0.250 -0.0004  0.4760  0.2034
  522MOL0     N68823   6.123   9.982  -0.184  0.2031 -0.4946  0.2358
  522MOL0     C68824   7.128  10.191   0.413 -0.2605 -0.7218  0.0693
  522MOL0     C68825   7.235  10.210   0.511  1.2024  0.4929 -0.2836
  522MOL0     C68826   7.642  10.127   0.674 -0.2706 -0.2129  0.0039
  522MOL0     C68827   7.741  10.023   0.675 -0.7672  0.4571  0.6943
  522MOL0     C68828   7.843  10.030   0.769 -0.3625  0.3380  0.5050
  522MOL0     C68829   7.850  10.123   0.867  0.5627 -0.0879  0.2892
  522MOL0     O68830   7.953  10.150   0.950 -0.0928 -0.6430  0.0597
  522MOL0     C68831   8.080  10.105   0.916  0.3712  0.2327  0.6434
  522MOL0     C68832   8.188  10.146   1.017  0.2350  0.3590 -0.2385
  522MOL0     C68833   8.332  10.110   0.979  0.5691 -0.4602  0.2870
  522MOL0     C68834   8.437  10.167   1.066 -0.2068 -0.5729  0.3408
  522MOL0     C68835   8.569  10.171   0.984  0.8620  1.0044 -1.0880
  522MOL0     C68836   8.668  10.170   0.917 -0.4978 -0.2566 -0.9602
  522MOL0     C68837   7.756  10.225   0.859  0.4846 -0.1227 -0.2438
  522MOL0     C68838   7.655  10.233   0.768  0.2165  0.0619 -0.4473
  522MOL0     H68839   7.488  10.232   0.288 -1.5575  3.2507 -2.7083
  522MOL0     H68840   7.304  10.232   0.123  3.3676  1.1156  0.3705
  522MOL0     H68841   6.890  10.268   0.284  1.9232  0.6241 -1.0734
  522MOL0     H68842   6.900  10.090   0.267  1.3881 -0.5459  0.2481
  522MOL0     H68843   6.734  10.125   0.158  1.7450 -1.2378  2.3496
  522MOL0     H68844   6.846  10.129   0.020  0.2166 -1.0237  0.7982
  522MOL0     H68845   6.844  10.392   0.068  1.1288 -0.7083 -2.1293
  522MOL0     H68846   6.677  10.348   0.127 -1.1739 -1.6170 -0.9960
  522MOL0     H68847   6.665  10.429  -0.100 -0.0542  0.6533  1.2082
  522MOL0     H68848   6.780  10.310  -0.154  0.3622 -1.7894  1.2652
  522MOL0     H68849   6.503  10.263  -0.024  0.6007 -0.1818  0.3095
  522MOL0     H68850   6.622  10.135  -0.055  1.5465  1.0296 -1.3697
  522MOL0     H68851   6.618  10.179  -0.306 -1.1124 -2.5109 -1.2201
  522MOL0     H68852   6.529  10.323  -0.262  0.8170 -0.4022 -2.1657
  522MOL0     H68853   6.413  10.148  -0.378  1.7759  1.7224 -0.7959
  522MOL0     H68854   6.455  10.026  -0.254  1.1430  0.4600  1.4597
  522MOL0     H68855   6.279  10.274  -0.183 -1.2560 -1.1933 -0.1025
  522MOL0     H68856   6.320  10.142  -0.073  0.5999 -1.4248  1.0761
  522MOL0     H68857   6.118  10.249  -0.378 -0.5896 -1.3955 -0.8659
  522MOL0     H68858   5.904  10.007  -0.530  2.5393  1.3176 -1.0714
  522MOL0     H68859   5.904  10.185  -0.528 -2.9949 -0.9972 -0.5662
  522MOL0     H68860   5.758  10.167  -0.312 -1.3877 -0.6823  0.2599
  522MOL0     H68861   5.752  10.001  -0.344  0.2218  0.5272  0.9039
  522MOL0     H68862   5.681  10.216  -0.559  0.6383  0.0382  0.3018
  522MOL0     H68863   5.629  10.050  -0.566 -1.8970 -1.2057  0.8792
  522MOL0     H68864   5.497  10.078  -0.352  0.2744  0.2447  0.2931
  522MOL0     H68865   5.456  10.190  -0.477 -3.3608 -0.7181  2.0380
  522MOL0     H68866   5.557  10.492  -0.190  1.5494 -1.6370 -0.5877
  522MOL0     H68867   5.365  10.631  -0.086  3.7249  0.7487 -3.2873
  522MOL0     H68868   4.928  10.761   0.033 -0.1230  0.2010 -0.9002
  522MOL0     H68869   4.730  10.795   0.151 -2.0041  1.2135 -0.5762
  522MOL0     H68870   4.520  10.809   0.144  1.1166 -0.5631  1.1907
  522MOL0     H68871   4.517  10.767   0.319  4.6732  0.4314 -1.5644
  522MOL0     H68872   4.279  10.700   0.155 -5.0010  0.8711  1.4232
  522MOL0     H68873   4.289  10.864   0.201  1.2881  0.6318 -1.8262
  522MOL0     H68874   4.278  10.818   0.432 -0.2725  2.6579 -1.9901
  522MOL0     H68875   4.325  10.651   0.425 -0.0496 -0.5442 -0.2537
  522MOL0     H68876   4.106  10.627   0.273 -0.4800  1.2143 -0.1557
  522MOL0     H68877   4.101  10.623   0.445  1.5257  0.7289  1.0540
  522MOL0     H68878   4.059  10.888   0.434  1.5295  1.1138 -1.5481
  522MOL0     H68879   3.923  10.782   0.405 -0.6801 -0.2088 -2.0877
  522MOL0     H68880   4.091  10.927   0.187  0.3965 -2.0798 -1.0901
  522MOL0     H68881   3.927  10.965   0.252 -1.1308 -1.4900  3.6096
  522MOL0     H68882   3.931  10.869   0.030  1.2555  1.5788 -0.0595
  522MOL0     H68883   4.002  10.721   0.089 -0.2247 -0.7223  1.2074
  522MOL0     H68884   3.727  10.841   0.189  0.1804  0.2802  0.5471
  522MOL0     H68885   3.797  10.681   0.234 -0.0334 -0.2851  0.0165
  522MOL0     H68886   4.597  10.397   0.096  0.1446 -0.5860  0.0846
  522MOL0     H68887   4.801  10.346  -0.015 -4.1552 -1.2404 -3.3068
  522MOL0     H68888   5.100  10.305  -0.192 -0.9264  2.0846 -0.9266
  522MOL0     H68889   5.295  10.189  -0.326  0.3175 -0.4698  1.3594
  522MOL0     H68890   7.029  10.200   0.456  0.6907 -0.3094  2.3201
  522MOL0     H68891   7.212  10.216   0.617 -0.9092 -1.9860 -0.4673
  522MOL0     H68892   7.732   9.948   0.598  0.5677 -0.2806  1.2192
  522MOL0     H68893   7.931   9.970   0.747 -1.0047 -0.8369  1.0026
  522MOL0     H68894   8.105  10.139   0.815 -2.0487 -0.3084 -0.2028
  522MOL0     H68895   8.084   9.996   0.913 -1.4380  0.1403 -1.6842
  522MOL0     H68896   8.181  10.253   1.037 -2.0205 -0.3642  3.8314
  522MOL0     H68897   8.155  10.092   1.107 -2.7063 -1.2383 -2.1160
  522MOL0     H68898   8.344  10.148   0.877  0.6172 -1.4018 -0.0623
  522MOL0     H68899   8.341  10.003   0.956  2.0449  0.0757 -2.0905
  522MOL0     H68900   8.406  10.269   1.090  0.3219 -0.3379  0.0489
  522MOL0     H68901   8.457  10.108   1.156  1.0242  3.6637  3.1461
  522MOL0     H68902   8.755  10.160   0.855  0.6899 -2.3019  0.9099
  522MOL0     H68903   7.765  10.302   0.935 -0.3363  0.0018 -0.2641
  522MOL0     H68904   7.587  10.317   0.770 -1.2349 -1.0244 -1.5625
  523MOL0     O68905   5.762   6.113   4.598 -0.1565  0.5780  0.0344
  523MOL0     C68906   5.883   6.126   4.618 -0.1955  0.0034  0.3205
  523MOL0     O68907   5.943   6.153   4.739  1.0529 -0.3676  0.4375
  523MOL0     C68908   5.859   6.192   4.838  0.5063  0.3182 -0.5755
  523MOL0     C68909   5.841   6.329   4.856 -0.0673  0.1438  0.1257
  523MOL0     C68910   5.765   6.375   4.962  0.5112 -0.6153 -0.4879
  523MOL0     C68911   5.715   6.277   5.049  0.6941 -0.4425 -0.1007
  523MOL0     O68912   5.628   6.330   5.144 -1.0321  0.2338 -0.2588
  523MOL0     C68913   5.603   6.253   5.269 -0.4579 -0.3051  0.9270
  523MOL0     C68914   5.545   6.355   5.375  0.0522  0.5948  0.9867
  523MOL0     C68915   5.652   6.461   5.418 -0.5421 -0.2041  0.2376
  523MOL0     C68916   5.602   6.560   5.526 -1.2988 -0.4067  1.2878
  523MOL0     C68917   5.509   6.665   5.467 -0.1125 -0.2790  0.0734
  523MOL0     C68918   5.592   6.787   5.420  0.6975  0.1280 -0.1495
  523MOL0     C68919   5.499   6.900   5.366  0.4785 -0.3437  1.4573
  523MOL0     C68920   5.577   7.025   5.346 -0.1409 -0.8207  0.6228
  523MOL0     N68921   5.668   7.072   5.452 -0.1026 -0.1893  0.6660
  523MOL0     C68922   5.626   7.134   5.571  0.1104 -0.5266  0.3443
  523MOL0     C68923   5.734   7.127   5.654 -0.8388 -0.4476 -0.7420
  523MOL0     C68924   5.734   7.159   5.800 -0.5140  0.0410  1.3409
  523MOL0     C68925   5.727   7.311   5.839  0.6453 -0.1604  0.0509
  523MOL0     C68926   5.824   7.342   5.950 -0.4899  0.0600  0.4920
  523MOL0     C68927   5.833   7.485   5.990 -0.3543 -0.3370 -0.9717
  523MOL0     O68928   5.924   7.496   6.099 -0.1279  0.4567  0.0129
  523MOL0     C68929   5.866   7.490   6.226  0.4656 -0.4116 -0.3776
  523MOL0     C68930   5.857   7.366   6.296 -0.7424  0.5946  0.7068
  523MOL0     C68931   5.785   7.368   6.416  0.3870  0.2533  0.6007
  523MOL0     C68932   5.727   7.481   6.463  0.5668 -0.0992 -1.2674
  523MOL0     C68933   5.646   7.480   6.590  0.5195  0.1080  0.8530
  523MOL0     O68934   5.647   7.359   6.657 -0.1875 -0.0224  0.4732
  523MOL0     C68935   5.584   7.335   6.774  0.5676 -1.0387  0.4591
  523MOL0     C68936   5.455   7.383   6.796 -0.6093 -0.0888 -0.0878
  523MOL0     C68937   5.405   7.377   6.929 -0.3297  0.6730 -0.3727
  523MOL0     C68938   5.468   7.307   7.034  0.3691 -0.2248  0.5524
  523MOL0     O68939   5.409   7.290   7.155 -1.1552  0.2930 -0.0946
  523MOL0     C68940   5.345   7.405   7.223  1.0074 -0.0013  0.2976
  523MOL0     C68941   5.240   7.356   7.317 -0.2827  1.7405  1.2682
  523MOL0     C68942   5.107   7.285   7.284 -0.4742  0.4442  0.6541
  523MOL0     C68943   5.029   7.368   7.180 -0.7216  0.4561 -0.0517
  523MOL0     C68944   4.884   7.327   7.156  0.3229 -0.1393 -0.1631
  523MOL0     C68945   4.825   7.414   7.048 -0.9927  0.4591 -0.1599
  523MOL0     C68946   4.761   7.544   7.102  0.6815  0.7801  1.2012
  523MOL0     C68947   4.728   7.654   6.992  0.2190  1.2925 -0.2022
  523MOL0    Cl68948   4.880   7.716   6.925 -0.4863 -0.1170  0.3134
  523MOL0     C68949   5.595   7.256   7.003  0.7357 -0.0842  0.0288
  523MOL0     C68950   5.658   7.281   6.877 -0.3296  0.1126  0.2560
  523MOL0     O68951   5.594   7.584   6.627  0.0186  0.4857  0.8343
  523MOL0     C68952   5.748   7.604   6.395  0.1771 -0.2090  0.0794
  523MOL0     C68953   5.825   7.614   6.286  0.1083 -0.3994  0.0629
  523MOL0     N68954   5.831   7.052   5.591  0.1074  0.3676 -0.1218
  523MOL0     N68955   5.796   7.039   5.472  0.3419 -0.1050  0.2638
  523MOL0     C68956   5.723   6.140   5.025 -0.3126 -0.5969  0.7332
  523MOL0     C68957   5.800   6.099   4.922 -0.1937  0.2706  0.1333
  523MOL0     C68958   5.966   6.088   4.508 -0.1981 -0.5075  0.3341
  523MOL0     C68959   5.925   6.000   4.404  0.0022 -0.1424  0.2121
  523MOL0     C68960   6.007   5.973   4.292 -0.6798  1.0223 -0.6455
  523MOL0     C68961   6.138   6.018   4.292  0.5587 -0.0196  0.1785
  523MOL0     O68962   6.217   5.981   4.182 -0.2148 -0.4011 -0.2812
  523MOL0     C68963   6.352   6.010   4.182 -1.1804  0.1299 -0.2789
  523MOL0     C68964   6.411   5.923   4.075  0.2403  0.0030  0.3378
  523MOL0     C68965   6.541   5.977   4.028 -0.2519  0.3999 -0.6638
  523MOL0     C68966   6.653   5.862   4.030 -1.0262  0.0938  0.2316
  523MOL0     C68967   6.772   5.912   3.965 -0.3571  0.2652 -0.5081
  523MOL0     C68968   6.875   5.963   3.929  1.0270  0.8075 -0.0522
  523MOL0     C68969   6.170   6.111   4.394 -0.6112 -0.1124  0.2694
  523MOL0     C68970   6.098   6.146   4.505 -0.6238 -0.0585  0.0883
  523MOL0     H68971   5.887   6.396   4.784  0.8525 -1.8135 -1.2245
  523MOL0     H68972   5.746   6.481   4.979 -3.2751 -1.2565 -0.0055
  523MOL0     H68973   5.697   6.212   5.307 -0.1297 -2.3166 -1.7452
  523MOL0     H68974   5.528   6.173   5.263 -0.3947 -0.2809 -0.5357
  523MOL0     H68975   5.502   6.292   5.453 -0.3982  1.1759  1.2094
  523MOL0     H68976   5.458   6.400   5.326 -1.9202 -2.5522  1.3703
  523MOL0     H68977   5.680   6.507   5.323  0.4845 -1.7517 -0.2502
  523MOL0     H68978   5.740   6.405   5.451  0.4644  0.1021 -1.7781
  523MOL0     H68979   5.560   6.502   5.609 -1.2637 -1.0892  0.8378
  523MOL0     H68980   5.699   6.606   5.551 -0.7407 -0.2998 -0.8455
  523MOL0     H68981   5.449   6.710   5.546  1.9934 -0.4063  1.8333
  523MOL0     H68982   5.438   6.624   5.394 -0.7185  0.5270  0.1960
  523MOL0     H68983   5.654   6.757   5.335  1.7461  1.3268  0.1748
  523MOL0     H68984   5.662   6.813   5.500  0.8480 -1.0907  0.1363
  523MOL0     H68985   5.451   6.879   5.270  0.0149  0.4787  1.5005
  523MOL0     H68986   5.422   6.924   5.439 -2.7673  0.1182 -1.8190
  523MOL0     H68987   5.514   7.113   5.337  0.9550  0.3355  3.2558
  523MOL0     H68988   5.641   7.017   5.257 -0.1924  0.3847  0.4667
  523MOL0     H68989   5.533   7.186   5.591  1.0000  1.3085 -0.0400
  523MOL0     H68990   5.822   7.114   5.847 -0.1741 -0.0578  0.6175
  523MOL0     H68991   5.652   7.094   5.830  0.7759 -2.0391  0.5802
  523MOL0     H68992   5.628   7.339   5.877  1.1191  0.9246  0.4987
  523MOL0     H68993   5.761   7.369   5.753 -2.3782  0.3350 -0.9450
  523MOL0     H68994   5.806   7.273   6.033  2.3090 -0.6962  0.5631
  523MOL0     H68995   5.927   7.313   5.928 -0.4805 -1.4888  2.2973
  523MOL0     H68996   5.735   7.524   6.020 -1.1094 -2.2217 -0.8236
  523MOL0     H68997   5.876   7.551   5.914 -3.7164 -0.7601 -3.5163
  523MOL0     H68998   5.895   7.281   6.241 -0.4035  1.6227 -0.7027
  523MOL0     H68999   5.775   7.270   6.461 -0.9514 -1.1400 -2.4075
  523MOL0     H69000   5.404   7.440   6.719  1.4238 -1.4512 -2.6155
  523MOL0     H69001   5.306   7.417   6.946  1.3222  4.9309  0.8013
  523MOL0     H69002   5.295   7.466   7.147  2.0074  0.3000 -0.1299
  523MOL0     H69003   5.416   7.472   7.271  1.2410 -0.1142  0.1159
  523MOL0     H69004   5.201   7.439   7.376  0.1898  2.6728  0.3028
  523MOL0     H69005   5.293   7.290   7.386 -1.1682  0.7281  1.0109
  523MOL0     H69006   5.049   7.269   7.375 -0.4649 -2.3496  0.2729
  523MOL0     H69007   5.101   7.186   7.237 -0.5810  1.4917 -1.6548
  523MOL0     H69008   5.030   7.470   7.221  0.7022  1.2550 -1.9175
  523MOL0     H69009   5.086   7.381   7.087  1.9086  0.6125  1.4722
  523MOL0     H69010   4.831   7.334   7.252  3.1323 -0.3218  1.4878
  523MOL0     H69011   4.876   7.224   7.120 -1.6342 -0.7372  1.7107
  523MOL0     H69012   4.740   7.359   7.006 -2.7255 -0.7706  4.3183
  523MOL0     H69013   4.892   7.431   6.963 -0.4550  0.6276  0.2898
  523MOL0     H69014   4.667   7.519   7.152 -0.4815 -0.8352 -1.5249
  523MOL0     H69015   4.825   7.586   7.180  1.5351 -1.7775  1.9523
  523MOL0     H69016   4.678   7.741   7.036 -2.4364  0.0810 -0.6275
  523MOL0     H69017   4.647   7.618   6.927 -2.1758  3.4287  1.3632
  523MOL0     H69018   5.648   7.201   7.080 -2.3910 -3.0848  0.2930
  523MOL0     H69019   5.750   7.227   6.856 -0.7744 -1.5825  2.2563
  523MOL0     H69020   5.712   7.699   6.432 -1.4380  1.6595 -5.3810
  523MOL0     H69021   5.851   7.701   6.225 -0.8620  0.1309  0.3837
  523MOL0     H69022   5.685   6.069   5.098 -1.9242 -0.4505  0.0864
  523MOL0     H69023   5.825   5.994   4.910  2.8532  0.4181  3.4087
  523MOL0     H69024   5.822   5.966   4.394 -0.0015 -0.3669  0.9110
  523MOL0     H69025   5.977   5.909   4.209 -0.0326 -1.3145  0.8302
  523MOL0     H69026   6.401   5.984   4.276 -0.3016  1.2450 -0.4095
  523MOL0     H69027   6.367   6.115   4.157  2.1823  0.0824  0.9949
  523MOL0     H69028   6.411   5.819   4.111  1.1783 -0.9732 -2.2051
  523MOL0     H69029   6.338   5.915   3.994 -0.2710  0.5758  0.7348
  523MOL0     H69030   6.564   6.062   4.092 -0.3582 -0.2039  0.2021
  523MOL0     H69031   6.536   6.005   3.922 -3.6460 -1.1772 -1.0651
  523MOL0     H69032   6.672   5.833   4.134 -3.1418  1.8475  1.1804
  523MOL0     H69033   6.611   5.778   3.973 -0.4688  0.8437 -1.3314
  523MOL0     H69034   6.973   6.001   3.907  0.9649 -0.2017 -2.3035
  523MOL0     H69035   6.254   6.181   4.389 -3.1456  3.0593 -2.0907
  523MOL0     H69036   6.122   6.223   4.577 -2.9330  2.4125 -1.6035
  524MOL0     O69037   3.424   7.543   3.937 -0.6334 -0.0420 -0.9119
  524MOL0     C69038   3.442   7.661   3.916  0.3691 -0.1249 -1.2106
  524MOL0     O69039   3.342   7.753   3.884  0.0298 -0.1194 -0.3364
  524MOL0     C69040   3.219   7.721   3.929  0.5207  0.9717  0.0448
  524MOL0     C69041   3.189   7.704   4.064 -0.2273  0.1222  0.4569
  524MOL0     C69042   3.054   7.701   4.095 -0.8389  0.7880 -0.5674
  524MOL0     C69043   2.958   7.713   4.000  0.1853 -0.0635  0.0105
  524MOL0     O69044   2.838   7.728   4.058  0.0702  0.4705 -0.4615
  524MOL0     C69045   2.722   7.719   3.962  0.0998  0.1699 -0.6497
  524MOL0     C69046   2.590   7.734   4.041 -0.3665  0.0135 -0.1488
  524MOL0     C69047   2.464   7.707   3.953  0.6808  0.3138  0.0735
  524MOL0     C69048   2.325   7.729   4.011 -0.4199  0.2861  0.3499
  524MOL0     C69049   2.216   7.741   3.905 -0.4058 -0.8707  0.6763
  524MOL0     C69050   2.072   7.759   3.970 -0.0160  0.7320  0.6154
  524MOL0     C69051   1.953   7.755   3.874  0.1580 -0.0357 -0.3920
  524MOL0     C69052   1.989   7.772   3.732 -0.4115 -0.8878  0.4761
  524MOL0     N69053   1.875   7.813   3.654  0.3985  0.1281  0.3511
  524MOL0     C69054   1.821   7.937   3.640 -0.0042  0.4954 -0.9636
  524MOL0     C69055   1.699   7.918   3.582 -0.1921 -0.1398 -0.1179
  524MOL0     C69056   1.602   8.024   3.515 -0.7693 -0.1478  0.3518
  524MOL0     C69057   1.513   8.071   3.624  0.0851 -0.2331 -0.6398
  524MOL0     C69058   1.388   8.142   3.576 -0.4119  0.0506  0.2370
  524MOL0     C69059   1.337   8.235   3.688 -0.2224  0.2787 -0.3295
  524MOL0     O69060   1.266   8.178   3.798  0.6696  0.5334 -0.5717
  524MOL0     C69061   1.166   8.263   3.849  0.5359  0.2855 -0.0365
  524MOL0     C69062   1.036   8.215   3.878  1.1082 -0.8487  0.2766
  524MOL0     C69063   0.945   8.299   3.947 -0.4842  0.7513 -0.1433
  524MOL0     C69064   0.971   8.430   3.983  0.9001  0.2828 -0.8534
  524MOL0     C69065   0.883   8.499   4.076 -0.0766  0.0905  0.1525
  524MOL0     O69066   0.775   8.430   4.113  0.3020 -0.3237 -0.3863
  524MOL0     C69067   0.686   8.499   4.196 -0.9589  0.8090  0.1742
  524MOL0     C69068   0.684   8.464   4.337 -0.2133 -0.2347  0.2422
  524MOL0     C69069   0.579   8.505   4.420 -0.0491 -0.2468 -0.2774
  524MOL0     C69070   0.486   8.594   4.364  0.3812  0.4208  0.5243
  524MOL0     O69071   0.387   8.638   4.451 -0.6388 -0.6694  0.8396
  524MOL0     C69072   0.331   8.765   4.415 -0.1442  0.5360 -0.2857
  524MOL0     C69073   0.234   8.808   4.530 -0.2262  0.2646 -0.2037
  524MOL0     C69074   0.174   8.949   4.518  0.2703  0.3042  0.0385
  524MOL0     C69075   0.262   9.070   4.501  0.3018 -1.1575 -0.6423
  524MOL0     C69076   0.200   9.207   4.454  0.6602  1.1299 -0.4342
  524MOL0     C69077   0.185   9.209   4.305  0.0014 -0.1254 -0.0866
  524MOL0     C69078   0.157   9.356   4.252 -0.1901 -0.2823 -0.1920
  524MOL0     C69079   0.014   9.421   4.282  0.4064  0.7564  0.4063
  524MOL0    Cl69080  -0.006   9.558   4.161 -0.0846  0.8613 -0.2389
  524MOL0     C69081   0.479   8.623   4.226 -0.2133  0.5020 -0.1873
  524MOL0     C69082   0.586   8.578   4.138 -1.0764  0.6350 -0.9428
  524MOL0     O69083   0.899   8.618   4.101 -0.7823 -0.5234 -0.3185
  524MOL0     C69084   1.096   8.475   3.953 -0.2654 -0.1657  0.2899
  524MOL0     C69085   1.192   8.394   3.892  0.4779 -0.2427  0.3547
  524MOL0     N69086   1.693   7.783   3.560  0.6040  0.2724  0.1382
  524MOL0     N69087   1.794   7.723   3.606 -0.5022 -0.0241 -0.3397
  524MOL0     C69088   2.993   7.724   3.867  1.1552 -0.3833  1.0264
  524MOL0     C69089   3.124   7.727   3.833  0.1287  0.3656  0.6512
  524MOL0     C69090   3.570   7.727   3.923  0.2466 -0.1480 -0.1725
  524MOL0     C69091   3.671   7.661   4.000 -0.7998  0.2994  0.4173
  524MOL0     C69092   3.794   7.727   4.024  0.2733  0.0972 -0.3829
  524MOL0     C69093   3.812   7.864   3.986 -0.0014  0.6651 -0.2455
  524MOL0     O69094   3.932   7.929   4.012  0.1595  0.3320 -0.1531
  524MOL0     C69095   3.925   8.044   4.096  0.2590  0.6934 -1.5728
  524MOL0     C69096   4.058   8.057   4.172  0.0656  0.6025 -0.5819
  524MOL0     C69097   4.046   8.184   4.251  0.6417 -0.5749 -0.4570
  524MOL0     C69098   4.174   8.227   4.327  0.4141  0.0709 -0.2667
  524MOL0     C69099   4.285   8.233   4.232  0.9623  0.4482 -0.5875
  524MOL0     C69100   4.364   8.234   4.141  0.4710  0.7228 -0.1392
  524MOL0     C69101   3.713   7.925   3.909  0.2592  0.0222 -0.3859
  524MOL0     C69102   3.592   7.862   3.880 -0.3722  0.2861 -0.0008
  524MOL0     H69103   3.264   7.702   4.143  0.6408 -0.9784 -0.3568
  524MOL0     H69104   3.021   7.686   4.197 -0.1903 -1.0693 -0.5947
  524MOL0     H69105   2.721   7.626   3.905  0.2664  2.2738 -4.4067
  524MOL0     H69106   2.737   7.791   3.881  3.9176  0.2000 -0.0856
  524MOL0     H69107   2.575   7.827   4.097  4.1296  0.0946  1.3110
  524MOL0     H69108   2.595   7.647   4.107  0.2479  0.3608  0.2699
  524MOL0     H69109   2.476   7.606   3.912  2.5997  1.4081 -2.3071
  524MOL0     H69110   2.461   7.771   3.864  0.3948 -1.5344 -1.3110
  524MOL0     H69111   2.309   7.647   4.082 -3.1866  0.8601  0.4967
  524MOL0     H69112   2.339   7.826   4.059  1.6398  0.2893 -0.1775
  524MOL0     H69113   2.207   7.649   3.847 -2.4396 -0.5693  0.4331
  524MOL0     H69114   2.226   7.838   3.856 -0.4325 -0.0942  2.1308
  524MOL0     H69115   2.068   7.839   4.044  2.8596 -0.9476  2.7434
  524MOL0     H69116   2.069   7.665   4.025 -0.6785  0.7700  0.6515
  524MOL0     H69117   1.897   7.661   3.875  1.3992 -0.7923  0.6079
  524MOL0     H69118   1.891   7.841   3.901  1.6322  0.8374  0.3253
  524MOL0     H69119   2.042   7.685   3.691  5.0156  1.6368  1.2734
  524MOL0     H69120   2.068   7.846   3.717 -0.0574 -1.6642 -1.8878
  524MOL0     H69121   1.880   8.026   3.655  2.6552 -1.4822  1.2653
  524MOL0     H69122   1.553   7.980   3.428  1.5481 -0.0908 -1.0738
  524MOL0     H69123   1.663   8.107   3.476  3.2835 -2.0281  2.0942
  524MOL0     H69124   1.572   8.122   3.701  1.2037 -0.7878 -1.1051
  524MOL0     H69125   1.462   7.985   3.669 -0.6458 -0.0049 -1.0123
  524MOL0     H69126   1.413   8.214   3.497 -1.0560 -2.1596 -2.1425
  524MOL0     H69127   1.306   8.078   3.542  0.3895 -1.3794  0.9105
  524MOL0     H69128   1.272   8.311   3.645  0.1630  0.6375 -0.2858
  524MOL0     H69129   1.424   8.290   3.726  0.9549 -1.3067 -0.6120
  524MOL0     H69130   1.038   8.108   3.859  0.6399 -0.5063 -1.9448
  524MOL0     H69131   0.855   8.249   3.980 -0.1260 -0.5847 -1.0947
  524MOL0     H69132   0.761   8.396   4.372  0.2080 -2.8450 -4.7937
  524MOL0     H69133   0.578   8.476   4.524 -0.0880 -2.6355 -0.8878
  524MOL0     H69134   0.268   8.763   4.326 -1.1428  3.6474  0.2161
  524MOL0     H69135   0.411   8.836   4.395  0.6326  0.4658  2.2571
  524MOL0     H69136   0.283   8.814   4.628  0.0760  3.3806 -0.4356
  524MOL0     H69137   0.158   8.730   4.521  1.8513 -1.6168 -4.4184
  524MOL0     H69138   0.109   8.950   4.606 -1.0206 -1.3550 -0.8533
  524MOL0     H69139   0.107   8.957   4.433  0.0090 -2.3524 -0.0748
  524MOL0     H69140   0.300   9.087   4.602 -2.8591 -0.2568  0.5281
  524MOL0     H69141   0.346   9.049   4.434  1.1907  3.9265 -1.5618
  524MOL0     H69142   0.253   9.298   4.484 -1.4864  1.6516  2.1387
  524MOL0     H69143   0.108   9.217   4.512  1.3106  0.7557  0.6789
  524MOL0     H69144   0.100   9.148   4.271 -0.2077  1.1634 -2.0380
  524MOL0     H69145   0.278   9.171   4.262  0.4596 -0.2294  0.9659
  524MOL0     H69146   0.226   9.437   4.275  0.1116 -0.1654 -1.4863
  524MOL0     H69147   0.153   9.347   4.143 -0.0971  3.3788 -0.6027
  524MOL0     H69148  -0.002   9.449   4.386 -2.4329  1.2641 -0.0829
  524MOL0     H69149  -0.061   9.347   4.253  1.2172 -0.0572  0.3847
  524MOL0     H69150   0.400   8.681   4.180 -0.9427 -0.6416 -0.4309
  524MOL0     H69151   0.582   8.591   4.031 -2.6254 -0.2113 -1.0167
  524MOL0     H69152   1.134   8.574   3.976  2.7993 -1.1658  0.1249
  524MOL0     H69153   1.295   8.424   3.876  0.2775  1.2414  1.6216
  524MOL0     H69154   2.922   7.742   3.786  1.8086  0.3701  0.6142
  524MOL0     H69155   3.147   7.752   3.730  0.3754  0.2535  0.6798
  524MOL0     H69156   3.652   7.561   4.038 -0.4081  0.8162  2.0455
  524MOL0     H69157   3.868   7.685   4.091  0.9043  1.7320 -0.0001
  524MOL0     H69158   3.848   8.025   4.171 -0.9269 -0.3758 -3.0044
  524MOL0     H69159   3.891   8.129   4.036 -1.2928 -0.7079 -2.7686
  524MOL0     H69160   4.069   7.972   4.240 -3.7755  0.4199  0.0004
  524MOL0     H69161   4.142   8.054   4.102 -0.4604 -1.8742 -1.1988
  524MOL0     H69162   3.968   8.167   4.325  0.1567 -1.2544 -1.1055
  524MOL0     H69163   4.008   8.262   4.183 -1.3667 -2.5407 -1.7216
  524MOL0     H69164   4.166   8.331   4.360 -0.6801 -0.2972  0.6927
  524MOL0     H69165   4.193   8.170   4.418  0.2918  3.0652  1.7697
  524MOL0     H69166   4.425   8.245   4.053 -0.6346 -1.3940 -1.2498
  524MOL0     H69167   3.733   8.026   3.875 -2.8924 -0.2283 -3.5743
  524MOL0     H69168   3.514   7.910   3.822 -0.4567 -1.0639 -1.0532
  525MOL0     O69169   8.635   1.681   7.812  0.3670 -0.3249  0.2476
  525MOL0     C69170   8.600   1.578   7.748 -0.3656  0.6063 -0.3090
  525MOL0     O69171   8.497   1.491   7.774 -0.2203  0.1609  0.1228
  525MOL0     C69172   8.422   1.525   7.884  0.2346 -1.3060 -0.6298
  525MOL0     C69173   8.334   1.631   7.873 -0.4745  0.2408 -0.0568
  525MOL0     C69174   8.256   1.672   7.978  0.9410  0.3234 -1.3534
  525MOL0     C69175   8.272   1.605   8.097 -0.3363 -0.2382  0.6796
  525MOL0     O69176   8.198   1.648   8.206  0.0778 -0.3532 -0.4172
  525MOL0     C69177   8.118   1.547   8.266  0.3705 -0.1293 -0.7940
  525MOL0     C69178   8.012   1.502   8.171 -0.4349  1.2372  0.1492
  525MOL0     C69179   7.901   1.620   8.130  0.5299 -0.8113  0.7327
  525MOL0     C69180   7.817   1.679   8.248 -0.1809 -0.7991  0.1505
  525MOL0     C69181   7.712   1.791   8.195 -0.2269 -0.7585 -0.3055
  525MOL0     C69182   7.612   1.723   8.104 -0.4575 -0.8698 -0.7018
  525MOL0     C69183   7.495   1.823   8.083  0.0472 -0.3276  0.5182
  525MOL0     C69184   7.387   1.769   7.982 -0.2014 -0.2699  0.1541
  525MOL0     N69185   7.250   1.820   8.004 -0.3680 -0.1717 -0.0452
  525MOL0     C69186   7.196   1.945   7.976  0.3641  0.0253  0.0859
  525MOL0     C69187   7.063   1.940   8.021 -0.3825  0.3562 -0.2572
  525MOL0     C69188   6.946   2.032   8.016 -0.6075 -0.1041  0.8849
  525MOL0     C69189   6.829   1.985   7.936 -0.2619  0.4815  0.5672
  525MOL0     C69190   6.870   1.936   7.805  0.4207  0.1291  0.1804
  525MOL0     C69191   6.750   1.925   7.707 -0.1598  0.3356  0.1158
  525MOL0     O69192   6.669   2.041   7.698  0.4263  0.1074 -0.8619
  525MOL0     C69193   6.542   2.030   7.632  0.0457 -0.0756 -1.1662
  525MOL0     C69194   6.474   2.154   7.637  0.3435  0.7465 -0.0063
  525MOL0     C69195   6.337   2.151   7.595  0.2617 -0.0630  0.4163
  525MOL0     C69196   6.275   2.039   7.535 -0.1560 -0.4485  0.8730
  525MOL0     C69197   6.132   2.047   7.499 -0.8241  0.9819 -0.2080
  525MOL0     O69198   6.053   2.117   7.589  0.7573  0.4470 -0.0907
  525MOL0     C69199   5.915   2.125   7.564 -0.3046  0.1932  0.7678
  525MOL0     C69200   5.857   2.182   7.455 -0.6821  0.2893  0.7022
  525MOL0     C69201   5.720   2.191   7.447  0.2453  0.3871 -0.2677
  525MOL0     C69202   5.637   2.146   7.551  0.1531  0.3595  0.6253
  525MOL0     O69203   5.496   2.171   7.540  0.3150 -0.2643 -0.5366
  525MOL0     C69204   5.411   2.061   7.583  0.0367 -0.3927 -1.6418
  525MOL0     C69205   5.450   1.938   7.497  0.3765 -0.0435 -0.7048
  525MOL0     C69206   5.369   1.815   7.538 -0.1783  0.1771  0.0276
  525MOL0     C69207   5.415   1.700   7.446  0.3516 -0.5653 -0.3080
  525MOL0     C69208   5.347   1.570   7.467  0.8574 -0.0028  0.1418
  525MOL0     C69209   5.200   1.582   7.427 -0.8933 -1.5358  0.0737
  525MOL0     C69210   5.132   1.449   7.432 -0.2607 -0.4758  0.3743
  525MOL0     C69211   4.986   1.448   7.394  0.1938 -0.4255 -0.9755
  525MOL0    Cl69212   4.933   1.276   7.384 -0.1031  0.1155 -0.4980
  525MOL0     C69213   5.693   2.078   7.655  0.7701 -0.2969 -0.3423
  525MOL0     C69214   5.826   2.078   7.665  0.0824 -0.1625  0.1896
  525MOL0     O69215   6.094   1.984   7.403 -0.3237  0.4162 -0.8008
  525MOL0     C69216   6.365   1.933   7.500  0.7247  0.2041 -0.5418
  525MOL0     C69217   6.492   1.923   7.558  1.3374  0.2905  0.4823
  525MOL0     N69218   7.048   1.821   8.079  0.3700  0.3017  0.5483
  525MOL0     N69219   7.152   1.746   8.059 -0.2919 -0.2766  0.2418
  525MOL0     C69220   8.357   1.483   8.107  0.5493  0.1310 -0.3338
  525MOL0     C69221   8.439   1.452   8.000  0.8222 -0.4093 -1.1066
  525MOL0     C69222   8.680   1.548   7.624 -0.3469 -0.6645 -0.1332
  525MOL0     C69223   8.784   1.645   7.586 -0.0828  0.9193 -0.0111
  525MOL0     C69224   8.868   1.626   7.479 -0.7509 -0.2904 -0.3244
  525MOL0     C69225   8.841   1.515   7.388  0.3559  0.2025 -0.8648
  525MOL0     O69226   8.913   1.490   7.279  0.6962  0.3374 -0.1169
  525MOL0     C69227   8.899   1.374   7.204 -0.1942  0.1855  0.2507
  525MOL0     C69228   8.991   1.261   7.266 -0.0268  0.2882 -0.3454
  525MOL0     C69229   9.134   1.294   7.265  1.0766  1.1347  0.4805
  525MOL0     C69230   9.212   1.179   7.317  0.7855 -0.1145 -0.8782
  525MOL0     C69231   9.349   1.205   7.296 -0.4205 -0.2464  0.1652
  525MOL0     C69232   9.471   1.237   7.282 -0.0873  0.0912 -0.4598
  525MOL0     C69233   8.743   1.422   7.435  0.7822 -0.3851  0.2480
  525MOL0     C69234   8.655   1.445   7.540  0.5212  0.8879 -0.1708
  525MOL0     H69235   8.334   1.690   7.782  1.1370  3.0883  1.6363
  525MOL0     H69236   8.185   1.752   7.963  0.4055  0.1866  0.2429
  525MOL0     H69237   8.067   1.590   8.353  0.9423 -0.9030 -0.0688
  525MOL0     H69238   8.173   1.462   8.307 -2.0482 -1.7399 -0.6238
  525MOL0     H69239   7.956   1.420   8.216 -0.7292 -0.0730 -2.4208
  525MOL0     H69240   8.068   1.469   8.083 -0.9269 -0.5815  0.4901
  525MOL0     H69241   7.836   1.567   8.060 -0.1524 -0.0552  0.7774
  525MOL0     H69242   7.948   1.700   8.073 -0.5483 -0.7566 -0.1086
  525MOL0     H69243   7.763   1.603   8.306 -0.9121  0.8049  1.6395
  525MOL0     H69244   7.879   1.728   8.323  1.7256 -0.9823 -1.2336
  525MOL0     H69245   7.762   1.879   8.153  1.9147 -1.6372  0.2693
  525MOL0     H69246   7.664   1.829   8.285 -1.2806 -0.1738 -1.0910
  525MOL0     H69247   7.569   1.632   8.146  1.2184 -2.4670 -2.2902
  525MOL0     H69248   7.667   1.708   8.011  0.4976  0.9886 -0.4853
  525MOL0     H69249   7.457   1.837   8.185  3.0971 -0.4255  1.7603
  525MOL0     H69250   7.531   1.919   8.045 -0.4812  0.2192  1.3638
  525MOL0     H69251   7.391   1.660   7.989  1.0838 -0.2499 -0.0227
  525MOL0     H69252   7.399   1.789   7.875 -1.2762 -2.6679 -0.4939
  525MOL0     H69253   7.239   2.031   7.926  0.0601 -0.1853 -0.5440
  525MOL0     H69254   6.986   2.128   7.981  1.9195 -1.1096  0.8010
  525MOL0     H69255   6.922   2.053   8.120  2.6822  1.8361  1.4045
  525MOL0     H69256   6.744   2.053   7.929 -0.9494 -0.3855  0.3042
  525MOL0     H69257   6.784   1.901   7.990 -1.2420  0.2121 -0.6185
  525MOL0     H69258   6.935   2.011   7.759  0.2430 -0.8063 -1.6867
  525MOL0     H69259   6.923   1.841   7.810 -3.5083 -2.5549 -2.7674
  525MOL0     H69260   6.694   1.835   7.733  1.5286 -0.4418  1.2626
  525MOL0     H69261   6.792   1.901   7.609 -1.2816 -1.0115 -0.0641
  525MOL0     H69262   6.510   2.243   7.687  1.2531 -0.5231  1.6836
  525MOL0     H69263   6.274   2.239   7.591  0.7964  0.2838 -0.7624
  525MOL0     H69264   5.909   2.210   7.363 -1.4379 -2.7820 -0.8069
  525MOL0     H69265   5.676   2.227   7.355 -4.2544 -0.2802  1.3890
  525MOL0     H69266   5.304   2.077   7.568 -0.1037  0.4217  0.0005
  525MOL0     H69267   5.432   2.028   7.685  0.2603 -2.3038 -2.2690
  525MOL0     H69268   5.551   1.908   7.527  1.8421  3.4556 -1.5833
  525MOL0     H69269   5.449   1.956   7.389  0.7889 -0.2893 -0.7538
  525MOL0     H69270   5.261   1.833   7.537 -1.0743 -3.4066  3.4527
  525MOL0     H69271   5.395   1.809   7.644  0.1305  0.4778 -0.0307
  525MOL0     H69272   5.404   1.721   7.339  3.4127 -4.0478 -1.5174
  525MOL0     H69273   5.518   1.677   7.475  0.2419 -0.3547  0.2723
  525MOL0     H69274   5.355   1.541   7.572  1.0712  1.7390  0.6387
  525MOL0     H69275   5.389   1.495   7.398 -0.3652  0.6427 -1.3696
  525MOL0     H69276   5.185   1.631   7.330 -1.0071 -2.3119 -0.3139
  525MOL0     H69277   5.159   1.651   7.500  3.2525  1.9810 -0.5225
  525MOL0     H69278   5.190   1.391   7.361  0.5665  0.4376  0.2783
  525MOL0     H69279   5.143   1.401   7.530  0.3306  0.4140  0.7612
  525MOL0     H69280   4.970   1.486   7.293  0.3930 -0.8871 -1.1843
  525MOL0     H69281   4.931   1.494   7.476  0.6782 -2.2120  0.4122
  525MOL0     H69282   5.633   2.029   7.730  0.8565  1.8677  1.2101
  525MOL0     H69283   5.873   2.032   7.751 -0.8552 -0.6881  0.4355
  525MOL0     H69284   6.325   1.850   7.443  1.6117 -2.6755  2.6915
  525MOL0     H69285   6.546   1.830   7.541  0.6367 -0.1894  0.8250
  525MOL0     H69286   8.360   1.426   8.199  0.2235 -0.9724 -0.9976
  525MOL0     H69287   8.504   1.366   8.013  0.5039 -0.5099 -0.1058
  525MOL0     H69288   8.810   1.719   7.662  0.7686  0.0553  0.5604
  525MOL0     H69289   8.947   1.700   7.476 -1.1616  0.3661  2.4425
  525MOL0     H69290   8.921   1.404   7.101  0.1151  2.4595  0.9270
  525MOL0     H69291   8.799   1.330   7.200  0.1326 -0.7182  1.3619
  525MOL0     H69292   8.974   1.243   7.373  0.2087  2.0393  0.0065
  525MOL0     H69293   8.972   1.180   7.194  1.3448  3.0410 -4.1157
  525MOL0     H69294   9.154   1.378   7.332  3.9142  1.4967 -0.7044
  525MOL0     H69295   9.177   1.315   7.167  0.9928  0.8464  0.3799
  525MOL0     H69296   9.199   1.167   7.425 -2.2082 -1.9672 -1.3308
  525MOL0     H69297   9.189   1.085   7.265  1.3092  0.0869 -1.4925
  525MOL0     H69298   9.574   1.263   7.273 -0.5101  1.1976 -2.7464
  525MOL0     H69299   8.721   1.331   7.380  0.3013  1.1852 -2.3716
  525MOL0     H69300   8.562   1.390   7.544 -1.4260  3.6935 -2.4046
  526MOL0     O69301   6.582   1.747   4.745  0.4365 -0.0547  0.8660
  526MOL0     C69302   6.619   1.648   4.806  0.1600  0.1489 -0.9740
  526MOL0     O69303   6.558   1.527   4.816  0.1139  0.5942 -0.3189
  526MOL0     C69304   6.432   1.503   4.763  0.4193  0.3221 -0.5737
  526MOL0     C69305   6.412   1.367   4.725  0.0002  0.8291  0.5794
  526MOL0     C69306   6.283   1.319   4.686  0.0111  0.1317 -0.5470
  526MOL0     C69307   6.183   1.418   4.666 -0.1529  0.6477  0.6021
  526MOL0     O69308   6.063   1.361   4.622  0.6014 -0.1145 -0.6068
  526MOL0     C69309   5.983   1.442   4.539 -0.6377 -0.6947 -0.1346
  526MOL0     C69310   5.875   1.366   4.471  0.3803  0.1969 -0.5022
  526MOL0     C69311   5.781   1.460   4.392  0.6967 -0.5267  0.1292
  526MOL0     C69312   5.677   1.387   4.300 -0.0440 -0.6105  0.6242
  526MOL0     C69313   5.628   1.469   4.180  0.1789 -0.1859  0.8538
  526MOL0     C69314   5.508   1.550   4.240 -0.5284 -0.7774 -0.2095
  526MOL0     C69315   5.429   1.617   4.123  0.4036 -0.8387  0.7802
  526MOL0     C69316   5.470   1.765   4.103 -0.4242 -0.2619 -0.1330
  526MOL0     N69317   5.403   1.834   3.988 -0.0551  0.5514 -0.1636
  526MOL0     C69318   5.303   1.921   3.978 -0.0735 -0.2785  0.4433
  526MOL0     C69319   5.256   1.930   3.850  0.4680  0.1497 -0.2962
  526MOL0     C69320   5.152   2.029   3.807  0.3991 -0.4440  1.2406
  526MOL0     C69321   5.192   2.118   3.698  0.5472  0.3630 -0.4272
  526MOL0     C69322   5.109   2.247   3.682 -0.0735  0.5152 -0.4589
  526MOL0     C69323   4.971   2.231   3.615 -1.2867  0.0144 -0.2590
  526MOL0     O69324   4.878   2.158   3.703  0.2324  0.4338  0.3860
  526MOL0     C69325   4.771   2.094   3.635  0.7803 -0.6544 -0.4574
  526MOL0     C69326   4.737   2.108   3.494 -0.8160  1.0604  0.0585
  526MOL0     C69327   4.606   2.079   3.454  0.6446 -0.1244  0.4403
  526MOL0     C69328   4.510   2.039   3.541 -0.2825  1.4357 -1.0487
  526MOL0     C69329   4.376   2.014   3.484 -0.0323 -0.3395  0.3565
  526MOL0     O69330   4.343   2.048   3.356  0.3230 -0.5947  0.4403
  526MOL0     C69331   4.215   2.017   3.320  0.9194 -0.4123 -1.4042
  526MOL0     C69332   4.172   1.889   3.281  0.1461  0.6855  0.4495
  526MOL0     C69333   4.036   1.870   3.231 -0.2602  0.1380 -0.4200
  526MOL0     C69334   3.944   1.978   3.233 -0.3876 -0.4767  0.0242
  526MOL0     O69335   3.815   1.949   3.198 -0.0783  0.1712  0.4701
  526MOL0     C69336   3.758   2.025   3.084  0.2059  0.6727  1.0549
  526MOL0     C69337   3.610   2.024   3.088  0.1729  0.3077 -0.5619
  526MOL0     C69338   3.559   2.083   3.227  0.5385 -0.1378  0.3784
  526MOL0     C69339   3.530   2.240   3.236 -0.5580 -0.3860  0.0685
  526MOL0     C69340   3.494   2.278   3.380 -0.0217  0.0182  0.2681
  526MOL0     C69341   3.474   2.435   3.384 -0.3035  0.4003 -0.2738
  526MOL0     C69342   3.472   2.472   3.528  0.0072 -0.5787 -0.3822
  526MOL0     C69343   3.494   2.625   3.552  1.0149 -0.7123 -0.5751
  526MOL0    Cl69344   3.400   2.733   3.434 -0.1978 -0.0967 -0.2921
  526MOL0     C69345   3.986   2.107   3.273  0.3593  0.1333  0.2531
  526MOL0     C69346   4.119   2.118   3.317  0.5138 -0.1344  0.0466
  526MOL0     O69347   4.299   1.979   3.570  0.4367 -0.7022  0.1328
  526MOL0     C69348   4.544   2.030   3.678  0.7139 -0.6091  0.7321
  526MOL0     C69349   4.673   2.042   3.717  0.2976 -0.0412  0.1111
  526MOL0     N69350   5.328   1.838   3.777  0.0406  0.6365  0.4301
  526MOL0     N69351   5.407   1.784   3.861 -0.0475  1.0469  0.0258
  526MOL0     C69352   6.211   1.550   4.690  0.1081 -0.0670 -0.5736
  526MOL0     C69353   6.332   1.596   4.740 -0.5062 -0.1948 -0.6372
  526MOL0     C69354   6.760   1.655   4.862 -0.4166 -0.6468 -0.0687
  526MOL0     C69355   6.835   1.541   4.893 -0.2074 -1.0752 -0.2360
  526MOL0     C69356   6.963   1.549   4.934 -0.9818 -0.7646 -0.5792
  526MOL0     C69357   7.028   1.667   4.932 -0.3656 -1.0289 -0.1222
  526MOL0     O69358   7.162   1.657   4.968  0.6084 -0.3643  0.1813
  526MOL0     C69359   7.246   1.771   4.992  0.3020  0.0779  0.9035
  526MOL0     C69360   7.372   1.743   5.061  0.0344  0.3961  0.4769
  526MOL0     C69361   7.350   1.668   5.193  0.3295 -0.4489 -0.4553
  526MOL0     C69362   7.468   1.646   5.293  1.5641  0.2843 -0.0359
  526MOL0     C69363   7.576   1.582   5.215  0.0433  0.4962 -0.0988
  526MOL0     C69364   7.659   1.514   5.156 -0.4199 -0.8899 -0.4426
  526MOL0     C69365   6.953   1.789   4.916  0.3204 -0.4474  0.1989
  526MOL0     C69366   6.822   1.783   4.870 -0.1608  0.9964  0.4231
  526MOL0     H69367   6.495   1.298   4.724  0.1858  1.0485 -0.4841
  526MOL0     H69368   6.272   1.215   4.656 -0.2484  0.1377 -0.4765
  526MOL0     H69369   6.058   1.466   4.463  1.4000 -0.0142  1.9320
  526MOL0     H69370   5.941   1.524   4.597  0.4003  0.9874 -1.6778
  526MOL0     H69371   5.814   1.320   4.549  0.2246  2.1723  0.5789
  526MOL0     H69372   5.924   1.285   4.415 -1.6161  0.1462 -2.2870
  526MOL0     H69373   5.850   1.514   4.328  2.4479 -0.5398  1.9057
  526MOL0     H69374   5.717   1.525   4.454 -0.4283 -0.0747 -1.4365
  526MOL0     H69375   5.706   1.287   4.267  0.0530 -0.3856  0.0199
  526MOL0     H69376   5.597   1.353   4.368 -0.3929  0.7917  0.9425
  526MOL0     H69377   5.586   1.401   4.105  5.2019 -0.9991 -1.6312
  526MOL0     H69378   5.696   1.541   4.134  1.4195 -1.5520  0.4949
  526MOL0     H69379   5.536   1.618   4.321  1.4461 -2.5202  0.6463
  526MOL0     H69380   5.436   1.484   4.288  0.2428  0.4551  2.8533
  526MOL0     H69381   5.434   1.546   4.040 -1.6296  0.1331 -0.2445
  526MOL0     H69382   5.323   1.623   4.150 -0.8150  2.5886 -3.5795
  526MOL0     H69383   5.578   1.775   4.087 -0.3118 -2.5854 -1.3513
  526MOL0     H69384   5.433   1.818   4.191 -4.5633  0.6234 -2.1705
  526MOL0     H69385   5.260   1.980   4.058  0.0466  0.4978 -0.0508
  526MOL0     H69386   5.126   2.096   3.890  1.0232  3.3545 -1.3776
  526MOL0     H69387   5.062   1.976   3.773  0.0380  0.0811  1.3639
  526MOL0     H69388   5.187   2.063   3.604 -1.8400 -1.2516  0.5717
  526MOL0     H69389   5.290   2.162   3.719  1.0667 -1.0658  0.2488
  526MOL0     H69390   5.093   2.303   3.774 -0.4177  2.9099 -1.9130
  526MOL0     H69391   5.165   2.308   3.610 -0.8035 -0.7078 -2.1222
  526MOL0     H69392   4.986   2.186   3.517  1.9861 -3.0932  1.4261
  526MOL0     H69393   4.925   2.330   3.609  0.9333  1.0646 -0.6506
  526MOL0     H69394   4.807   2.145   3.421  2.7957 -1.1566  2.1173
  526MOL0     H69395   4.572   2.102   3.353 -1.0805  1.0680  1.2470
  526MOL0     H69396   4.226   1.796   3.273 -2.2746 -0.9896  2.0883
  526MOL0     H69397   4.012   1.770   3.196 -0.9654  0.7870 -1.8717
  526MOL0     H69398   3.791   1.982   2.990 -0.8365  0.4685  0.7627
  526MOL0     H69399   3.779   2.132   3.091  1.7947  0.4720 -0.1893
  526MOL0     H69400   3.572   1.921   3.082 -1.9626  0.7702  2.5087
  526MOL0     H69401   3.573   2.091   3.010  1.1091  0.7250 -0.6548
  526MOL0     H69402   3.627   2.065   3.310  0.6539 -0.3898  0.2309
  526MOL0     H69403   3.463   2.041   3.256 -0.9091  0.0889 -3.4537
  526MOL0     H69404   3.623   2.290   3.208 -0.5829 -0.6859 -0.5528
  526MOL0     H69405   3.450   2.280   3.174 -0.3618  1.2580  0.8075
  526MOL0     H69406   3.564   2.238   3.454  1.8001  1.0760 -0.8303
  526MOL0     H69407   3.395   2.235   3.401  0.5452 -2.2548 -1.3299
  526MOL0     H69408   3.376   2.450   3.338 -1.4103 -1.8953  1.1444
  526MOL0     H69409   3.549   2.480   3.320 -1.2032  2.5429  0.0920
  526MOL0     H69410   3.373   2.445   3.567  1.2480 -0.0757  3.5478
  526MOL0     H69411   3.546   2.415   3.586  2.6233  3.5195  0.7562
  526MOL0     H69412   3.598   2.649   3.574  0.6211  0.6526 -0.0544
  526MOL0     H69413   3.452   2.639   3.652  5.0726 -0.3306  1.2524
  526MOL0     H69414   3.912   2.187   3.269 -0.5569 -0.7263 -0.8585
  526MOL0     H69415   4.150   2.220   3.340  3.6390  0.1204 -4.2239
  526MOL0     H69416   4.460   2.014   3.745 -0.5659  2.2352 -0.0499
  526MOL0     H69417   4.697   2.026   3.822  3.4960  0.5620 -0.4045
  526MOL0     H69418   6.132   1.623   4.678  1.4281  1.1846 -2.1309
  526MOL0     H69419   6.344   1.702   4.759  2.4567 -0.5301 -0.1238
  526MOL0     H69420   6.792   1.445   4.868  1.1626 -1.8481  0.3303
  526MOL0     H69421   7.008   1.452   4.953 -2.4389 -1.6606 -1.4543
  526MOL0     H69422   7.204   1.857   5.045 -1.8974 -0.3943  0.0634
  526MOL0     H69423   7.277   1.800   4.891 -2.2564  1.9943  0.5609
  526MOL0     H69424   7.433   1.681   4.995  0.2910 -2.0902  2.8449
  526MOL0     H69425   7.417   1.842   5.070  0.2170  0.9749 -4.2872
  526MOL0     H69426   7.314   1.567   5.174  2.1748 -1.6326  1.7594
  526MOL0     H69427   7.265   1.718   5.241 -0.7098 -2.1753 -0.4518
  526MOL0     H69428   7.507   1.743   5.325  0.1600  0.9428 -0.2731
  526MOL0     H69429   7.440   1.575   5.371  1.5127  1.2690  0.8601
  526MOL0     H69430   7.727   1.448   5.106 -1.1480 -1.8191 -0.2485
  526MOL0     H69431   6.992   1.890   4.924 -1.0933  0.2838 -1.6056
  526MOL0     H69432   6.778   1.880   4.849  1.9292  2.1046  0.8466
  527MOL0     O69433  10.183   0.797  10.886  0.2453  0.4177 -0.2526
  527MOL0     C69434  10.081   0.845  10.933 -0.4588  1.3518 -0.3413
  527MOL0     O69435  10.071   0.949  11.019 -0.0613  0.2070  0.4559
  527MOL0     C69436  10.180   1.015  11.063  0.5584 -0.0093 -0.4703
  527MOL0     C69437  10.316   0.968  11.074  0.6458  0.8683  0.6789
  527MOL0     C69438  10.417   1.049  11.118  0.2381 -0.1519  0.7415
  527MOL0     C69439  10.388   1.186  11.156 -0.2676 -0.5770  0.5276
  527MOL0     O69440  10.489   1.275  11.188 -0.3677  0.6683  0.3240
  527MOL0     C69441  10.624   1.285  11.148 -1.3010 -0.3311  0.3757
  527MOL0     C69442  10.698   1.412  11.201  0.3788  0.1541 -0.2496
  527MOL0     C69443  10.812   1.449  11.120 -0.4222  0.4989 -0.3254
  527MOL0     C69444  10.867   1.580  11.174  0.3458  0.2774  1.1723
  527MOL0     C69445  10.950   1.668  11.073 -0.4096 -0.1886  0.9888
  527MOL0     C69446  11.055   1.583  10.993 -0.8375 -0.3601 -0.4495
  527MOL0     C69447  11.126   1.659  10.882  0.1939 -1.4354 -0.0833
  527MOL0     C69448  11.248   1.740  10.922  0.1320 -0.1146  0.1565
  527MOL0     N69449  11.312   1.805  10.799 -0.2972  1.1471 -0.6714
  527MOL0     C69450  11.353   1.737  10.680  0.2067 -0.9615  1.1406
  527MOL0     C69451  11.368   1.842  10.598  0.4821 -0.5410  0.1704
  527MOL0     C69452  11.415   1.840  10.453 -0.3581 -0.5714 -0.2294
  527MOL0     C69453  11.561   1.891  10.425  0.2753 -0.9205  0.1729
  527MOL0     C69454  11.597   1.854  10.276 -0.6422  0.8922 -0.8943
  527MOL0     C69455  11.746   1.854  10.260 -0.3323 -0.3729  0.5360
  527MOL0     O69456  11.811   1.747  10.330  0.6807  0.2469  0.4903
  527MOL0     C69457  11.946   1.741  10.313  0.7926  0.8068 -0.2114
  527MOL0     C69458  12.044   1.821  10.371 -0.1856 -0.0236 -0.5686
  527MOL0     C69459  12.176   1.808  10.337 -0.2248 -0.1103 -0.1809
  527MOL0     C69460  12.217   1.703  10.253  0.7683 -0.8081 -0.2040
  527MOL0     C69461  12.357   1.701  10.207 -0.1963  0.6629 -0.6894
  527MOL0     O69462  12.452   1.792  10.275 -0.1832  0.4345  0.2266
  527MOL0     C69463  12.589   1.803  10.241  0.4859  0.5485 -0.8318
  527MOL0     C69464  12.662   1.902  10.293  0.1818  0.1830 -0.6196
  527MOL0     C69465  12.801   1.921  10.269 -0.2417 -0.1392 -0.8762
  527MOL0     C69466  12.861   1.820  10.195  1.1648 -0.2582 -0.2391
  527MOL0     O69467  12.986   1.842  10.142 -0.8363 -0.1394  0.0386
  527MOL0     C69468  13.083   1.917  10.220  0.9772 -0.1813  1.2547
  527MOL0     C69469  13.219   1.910  10.141 -0.6237 -0.7247  0.3604
  527MOL0     C69470  13.321   1.990  10.210  1.4271  0.4275  0.8561
  527MOL0     C69471  13.460   1.974  10.148 -0.8923  0.9702  0.8617
  527MOL0     C69472  13.571   2.059  10.206  0.4418  0.4316 -0.4821
  527MOL0     C69473  13.617   1.998  10.332  0.7653 -0.2833 -0.1344
  527MOL0     C69474  13.612   2.107  10.453 -0.1741  0.0577  0.4930
  527MOL0     C69475  13.684   2.065  10.581  1.2640 -0.2643 -0.4246
  527MOL0    Cl69476  13.855   2.035  10.542  0.0671  0.3295 -0.4305
  527MOL0     C69477  12.786   1.708  10.154 -0.3179 -0.3247 -0.1853
  527MOL0     C69478  12.653   1.701  10.165 -1.0938  0.7635  0.2945
  527MOL0     O69479  12.382   1.613  10.127  0.3768  0.6135 -0.0435
  527MOL0     C69480  12.112   1.613  10.208  0.0604 -0.1426  0.0590
  527MOL0     C69481  11.982   1.624  10.251  0.0976 -0.2451  1.0229
  527MOL0     N69482  11.327   1.963  10.658 -0.4737  0.3123 -0.0165
  527MOL0     N69483  11.302   1.938  10.782  0.8205  0.2212 -0.0525
  527MOL0     C69484  10.261   1.226  11.152  0.7232 -0.2808  0.4933
  527MOL0     C69485  10.156   1.143  11.110  0.1851 -0.3476 -0.4999
  527MOL0     C69486   9.963   0.765  10.891  0.9103  0.1500 -0.5071
  527MOL0     C69487   9.977   0.628  10.844  0.8423 -0.0088  0.4702
  527MOL0     C69488   9.866   0.556  10.813  0.3039 -0.4095  0.3930
  527MOL0     C69489   9.735   0.604  10.836  0.2167 -0.0768  0.2694
  527MOL0     O69490   9.627   0.527  10.824  0.1635  0.0571  0.0605
  527MOL0     C69491   9.625   0.419  10.720  0.5232  0.0353 -0.5203
  527MOL0     C69492   9.488   0.411  10.657  0.2194 -0.0841 -0.6508
  527MOL0     C69493   9.483   0.281  10.584  0.0965  0.6933  0.2014
  527MOL0     C69494   9.366   0.289  10.484  0.4032 -0.5470  0.0349
  527MOL0     C69495   9.232   0.320  10.533  0.0594  0.5672  0.6156
  527MOL0     C69496   9.133   0.360  10.590  0.1130  0.2448 -0.4287
  527MOL0     C69497   9.722   0.732  10.888 -0.5453 -1.0938 -0.1623
  527MOL0     C69498   9.834   0.819  10.905  1.0152  0.9778 -0.2481
  527MOL0     H69499  10.342   0.868  11.039 -1.3761  0.7188 -0.5338
  527MOL0     H69500  10.516   1.005  11.105  1.0667  0.1703  4.7122
  527MOL0     H69501  10.635   1.279  11.039  1.4815 -1.1113  0.6234
  527MOL0     H69502  10.672   1.194  11.185  2.7152  0.9495 -1.0993
  527MOL0     H69503  10.748   1.393  11.296 -0.4403 -2.2618 -0.2568
  527MOL0     H69504  10.632   1.496  11.223 -1.8517 -1.4072 -0.6751
  527MOL0     H69505  10.768   1.465  11.021  0.2568  1.2930 -0.5103
  527MOL0     H69506  10.886   1.368  11.120 -2.9146 -1.9709  1.7288
  527MOL0     H69507  10.788   1.647  11.207 -0.4931  0.0444 -0.2817
  527MOL0     H69508  10.930   1.565  11.263  0.7986 -0.7936  0.7023
  527MOL0     H69509  10.996   1.752  11.126  0.2813  1.0366 -1.4343
  527MOL0     H69510  10.886   1.708  10.994  1.8935 -1.8021 -1.9254
  527MOL0     H69511  11.000   1.500  10.948 -0.3707 -4.2153  5.0275
  527MOL0     H69512  11.117   1.518  11.055 -2.0864 -0.9453  0.2129
  527MOL0     H69513  11.162   1.588  10.806  1.0379  0.4249 -1.5019
  527MOL0     H69514  11.054   1.730  10.842  1.0397  2.0815  3.9785
  527MOL0     H69515  11.325   1.674  10.962  2.0415  1.8395 -0.1221
  527MOL0     H69516  11.227   1.813  11.001  1.0385  1.3942 -0.9348
  527MOL0     H69517  11.373   1.631  10.668 -0.4254 -1.0209  0.5357
  527MOL0     H69518  11.344   1.889  10.386 -1.0100 -1.5569 -0.2828
  527MOL0     H69519  11.419   1.736  10.422 -2.0461 -0.5266 -0.6747
  527MOL0     H69520  11.620   1.834  10.497 -1.3817 -2.7810  0.1586
  527MOL0     H69521  11.571   1.998  10.445  1.5531 -0.5818 -1.9345
  527MOL0     H69522  11.559   1.753  10.260 -1.3304  1.0768 -0.4721
  527MOL0     H69523  11.546   1.925  10.210 -0.8222  0.0775 -1.6452
  527MOL0     H69524  11.791   1.947  10.295  0.4029  0.2287 -1.8132
  527MOL0     H69525  11.753   1.841  10.151 -1.1452  0.6466  0.3448
  527MOL0     H69526  12.004   1.910  10.419  0.2840  0.9710 -1.9573
  527MOL0     H69527  12.240   1.893  10.359 -1.0487  0.4427  0.1421
  527MOL0     H69528  12.601   1.979  10.340 -2.9198  0.1148 -4.1191
  527MOL0     H69529  12.853   2.014  10.293  1.0446 -1.1761  0.5949
  527MOL0     H69530  13.113   1.877  10.318  2.8194  2.3901  1.8518
  527MOL0     H69531  13.051   2.020  10.238  0.1254 -0.3629  0.8097
  527MOL0     H69532  13.201   1.945  10.039 -0.2760  1.7593  1.0688
  527MOL0     H69533  13.252   1.807  10.130  0.2681 -0.3947 -0.1748
  527MOL0     H69534  13.322   1.957  10.314  0.2037  0.9663  1.0565
  527MOL0     H69535  13.294   2.096  10.202  0.0748  0.1043  0.9832
  527MOL0     H69536  13.491   1.870  10.161  0.6679  1.5828  2.3956
  527MOL0     H69537  13.471   1.989  10.040  1.2456 -0.8897  0.7330
  527MOL0     H69538  13.533   2.161  10.215 -1.0968 -0.0942 -0.6604
  527MOL0     H69539  13.660   2.053  10.143  0.9855 -1.8600  0.4186
  527MOL0     H69540  13.719   1.961  10.321  0.9258  0.3575 -0.9101
  527MOL0     H69541  13.556   1.914  10.366  0.9129 -0.3317  0.0114
  527MOL0     H69542  13.656   2.196  10.407  1.9653 -2.0251 -1.7714
  527MOL0     H69543  13.507   2.133  10.471 -1.2263 -1.2294 -3.0211
  527MOL0     H69544  13.639   1.971  10.613  1.2493 -0.9862 -2.4054
  527MOL0     H69545  13.675   2.141  10.659 -2.1436 -0.2300 -0.7030
  527MOL0     H69546  12.837   1.631  10.097 -1.1626 -0.7280 -0.3987
  527MOL0     H69547  12.613   1.616  10.112 -0.4593  2.1174 -2.5320
  527MOL0     H69548  12.129   1.543  10.127 -2.0508  1.5645 -1.9913
  527MOL0     H69549  11.919   1.542  10.217 -2.3888  0.3466  3.8222
  527MOL0     H69550  10.249   1.327  11.190  1.6072 -0.3459  0.9609
  527MOL0     H69551  10.060   1.192  11.116 -0.7076 -2.2012  2.1967
  527MOL0     H69552  10.071   0.582  10.814  2.3843  3.9321 -1.5939
  527MOL0     H69553   9.868   0.448  10.801 -0.3327 -0.4715  0.8132
  527MOL0     H69554   9.642   0.323  10.769 -0.1230 -0.3142 -0.9661
  527MOL0     H69555   9.685   0.446  10.633 -1.0403  0.9333 -1.3798
  527MOL0     H69556   9.415   0.410  10.738  1.1078  0.6567  0.1974
  527MOL0     H69557   9.496   0.493  10.584  0.0137  1.8592  1.3960
  527MOL0     H69558   9.470   0.196  10.652  3.4699 -0.5769 -0.5742
  527MOL0     H69559   9.567   0.254  10.519  0.5057 -1.0242  1.3701
  527MOL0     H69560   9.394   0.367  10.412 -0.5493 -0.3568 -0.1395
  527MOL0     H69561   9.363   0.201  10.419  0.0344  1.0823 -2.2841
  527MOL0     H69562   9.047   0.390  10.646  0.1086  1.9899 -1.2923
  527MOL0     H69563   9.624   0.776  10.900  0.4912  1.7463 -1.2472
  527MOL0     H69564   9.816   0.920  10.941 -1.6159  0.6784 -0.4841
  528MOL0     O69565   9.819   7.093   3.732 -0.2470  0.9445  0.7353
  528MOL0     C69566   9.879   6.987   3.753 -0.3924 -0.2466  0.8425
  528MOL0     O69567   9.829   6.877   3.815  0.1210 -0.7802 -0.1941
  528MOL0     C69568   9.694   6.885   3.849 -0.8172 -0.3742 -0.8357
  528MOL0     C69569   9.584   6.870   3.762  1.1312  1.2056  0.0500
  528MOL0     C69570   9.448   6.855   3.817  1.3156 -0.1893  0.6054
  528MOL0     C69571   9.435   6.858   3.955  0.5118  0.4441  0.2551
  528MOL0     O69572   9.314   6.859   4.019  0.8418  0.4081 -0.3633
  528MOL0     C69573   9.223   6.758   3.965  0.1104 -0.1076  0.4051
  528MOL0     C69574   9.106   6.760   4.062 -0.0027 -0.1384 -0.4075
  528MOL0     C69575   8.995   6.648   4.040  0.0254  0.6767  0.4767
  528MOL0     C69576   9.047   6.503   4.046 -0.4271 -0.0585 -0.6169
  528MOL0     C69577   8.930   6.412   4.077  0.2204 -0.5552 -0.5404
  528MOL0     C69578   8.969   6.263   4.111  0.4058  0.6690 -0.0235
  528MOL0     C69579   8.848   6.186   4.155 -0.4534  0.0569 -0.8183
  528MOL0     C69580   8.867   6.037   4.126 -0.4572  0.0917 -0.6964
  528MOL0     N69581   8.762   5.972   4.209  0.5096 -0.4193  0.1266
  528MOL0     C69582   8.626   5.987   4.187  0.8470 -0.3927  0.0108
  528MOL0     C69583   8.558   5.911   4.281 -0.5708 -0.6440 -0.4683
  528MOL0     C69584   8.421   5.893   4.307  0.2033  0.6765  0.3399
  528MOL0     C69585   8.366   6.011   4.387  0.1098  0.2978  0.5550
  528MOL0     C69586   8.338   5.978   4.530 -0.2296 -0.0882 -0.4158
  528MOL0     C69587   8.323   6.108   4.608  0.5830  0.5406  0.1956
  528MOL0     O69588   8.217   6.184   4.551  0.7367 -0.7439 -0.7401
  528MOL0     C69589   8.080   6.165   4.582 -0.5562  0.1956  0.3009
  528MOL0     C69590   8.033   6.120   4.704 -0.1873  0.9324  0.4950
  528MOL0     C69591   7.890   6.112   4.721 -0.6560 -0.6473 -0.1519
  528MOL0     C69592   7.804   6.153   4.622  0.0702  0.6841 -0.1101
  528MOL0     C69593   7.654   6.148   4.645  0.6236  0.5808 -0.2179
  528MOL0     O69594   7.613   6.174   4.771 -0.2039  0.3142 -0.5428
  528MOL0     C69595   7.479   6.185   4.789 -1.0483 -0.1508 -0.0842
  528MOL0     C69596   7.428   6.310   4.777 -0.3733 -0.1760 -0.6373
  528MOL0     C69597   7.285   6.334   4.788  0.0672 -0.1353  0.8765
  528MOL0     C69598   7.204   6.230   4.820  0.4911 -0.2363 -0.5852
  528MOL0     O69599   7.072   6.262   4.824 -0.0276  0.3437  0.2356
  528MOL0     C69600   6.985   6.179   4.910 -0.5534 -0.4699 -0.0344
  528MOL0     C69601   6.918   6.268   5.017  1.0111  1.3648 -0.1484
  528MOL0     C69602   7.016   6.373   5.082  0.5430  0.7107  1.2925
  528MOL0     C69603   6.948   6.437   5.199  0.4719  0.4307  0.2399
  528MOL0     C69604   7.054   6.531   5.268  0.3808  0.9866  0.1867
  528MOL0     C69605   6.988   6.611   5.378 -0.1480 -1.0517 -0.2662
  528MOL0     C69606   7.088   6.718   5.439 -0.2068  0.1476 -0.2131
  528MOL0     C69607   7.112   6.827   5.332 -0.4887 -0.2533  0.7135
  528MOL0    Cl69608   7.180   6.968   5.424  0.4962 -0.0918 -0.0952
  528MOL0     C69609   7.262   6.102   4.832  0.4640  0.2997  0.8265
  528MOL0     C69610   7.391   6.075   4.801 -0.4134  0.3609 -0.5121
  528MOL0     O69611   7.583   6.122   4.548  0.1684  0.9029  0.8942
  528MOL0     C69612   7.855   6.203   4.502  0.4570 -0.3754 -0.1156
  528MOL0     C69613   7.990   6.207   4.480  0.1059  0.3544 -0.8439
  528MOL0     N69614   8.661   5.836   4.352 -0.0750  0.0083  0.5823
  528MOL0     N69615   8.775   5.877   4.312  0.4088  1.0796 -0.1039
  528MOL0     C69616   9.547   6.873   4.037  0.8557 -0.0097  0.6137
  528MOL0     C69617   9.672   6.895   3.983  0.4107  0.4267  0.1365
  528MOL0     C69618  10.020   6.979   3.708 -0.4053 -0.6768  0.3862
  528MOL0     C69619  10.098   7.091   3.687  0.0212 -0.3180 -0.6142
  528MOL0     C69620  10.234   7.084   3.664 -0.4622 -0.7661 -0.7083
  528MOL0     C69621  10.310   6.967   3.654  1.1051  0.6071 -0.2456
  528MOL0     O69622  10.448   6.977   3.649 -0.7194  0.5449  0.2141
  528MOL0     C69623  10.511   6.861   3.702 -0.3343 -0.0056 -1.3156
  528MOL0     C69624  10.641   6.907   3.757 -0.5557  0.4280  0.5150
  528MOL0     C69625  10.760   6.910   3.646  0.1117 -0.4439 -0.2122
  528MOL0     C69626  10.877   7.006   3.698  0.2424 -0.3025  0.8229
  528MOL0     C69627  10.944   6.931   3.804  0.3310 -0.1181 -0.7292
  528MOL0     C69628  10.996   6.868   3.890  0.3681  0.9561 -0.4462
  528MOL0     C69629  10.228   6.854   3.666 -0.6632  0.7078 -0.6508
  528MOL0     C69630  10.085   6.861   3.690 -0.1963  0.3157  0.1874
  528MOL0     H69631   9.598   6.860   3.655 -1.3481  2.4017 -0.4400
  528MOL0     H69632   9.358   6.845   3.758  0.1664  0.8915  2.1021
  528MOL0     H69633   9.274   6.663   3.947  0.5966 -0.3627  2.7605
  528MOL0     H69634   9.191   6.792   3.866 -2.3957 -1.6017  0.6038
  528MOL0     H69635   9.059   6.858   4.052  0.7929  0.1954 -0.9225
  528MOL0     H69636   9.154   6.757   4.160  2.9606 -1.6036 -1.7728
  528MOL0     H69637   8.938   6.665   3.948  1.1697 -0.5285 -0.4956
  528MOL0     H69638   8.922   6.656   4.121  1.9465 -2.8064  2.7916
  528MOL0     H69639   9.108   6.473   3.961  3.9554  0.2857  2.0956
  528MOL0     H69640   9.119   6.494   4.128  0.3552 -0.8676 -1.3678
  528MOL0     H69641   8.861   6.410   3.992  1.1824 -0.8453 -1.3455
  528MOL0     H69642   8.880   6.461   4.160 -0.9395 -0.5131 -1.2466
  528MOL0     H69643   9.033   6.263   4.200  1.1249  1.4268 -0.5260
  528MOL0     H69644   9.007   6.211   4.023  2.5937 -0.1441  1.2938
  528MOL0     H69645   8.831   6.200   4.262  0.6116  1.1973 -0.7715
  528MOL0     H69646   8.760   6.217   4.098 -0.9098  0.6535  0.1868
  528MOL0     H69647   8.954   5.984   4.164 -1.1311  0.0680  0.9061
  528MOL0     H69648   8.848   6.019   4.020  0.2662  0.9111 -0.9722
  528MOL0     H69649   8.578   6.049   4.111  1.7195 -1.2145 -1.2550
  528MOL0     H69650   8.404   5.805   4.370 -1.5154  2.0877  1.9882
  528MOL0     H69651   8.373   5.875   4.211  2.6623  0.7776 -0.9859
  528MOL0     H69652   8.271   6.048   4.346  1.0935  3.1819  0.6514
  528MOL0     H69653   8.434   6.097   4.386 -0.7225  0.9728  0.4130
  528MOL0     H69654   8.257   5.910   4.558  1.5546 -1.3705  2.1129
  528MOL0     H69655   8.418   5.920   4.577 -1.0242 -1.7307 -1.0473
  528MOL0     H69656   8.422   6.154   4.603  1.3888 -1.1876 -0.5202
  528MOL0     H69657   8.293   6.071   4.707  3.1912 -2.1497  0.1080
  528MOL0     H69658   8.098   6.091   4.785  0.6369  0.2952 -0.3724
  528MOL0     H69659   7.858   6.092   4.823  1.5825 -0.7878  0.5646
  528MOL0     H69660   7.493   6.396   4.763  1.6739 -1.5200  0.1794
  528MOL0     H69661   7.234   6.428   4.770 -1.3043 -1.1952 -1.1652
  528MOL0     H69662   7.036   6.098   4.963 -3.5270 -1.8256  0.9666
  528MOL0     H69663   6.907   6.129   4.852 -0.4443 -0.1797 -0.4341
  528MOL0     H69664   6.870   6.214   5.100 -2.1381  0.7242 -2.2470
  528MOL0     H69665   6.844   6.329   4.965 -1.7638 -0.3770  1.4806
  528MOL0     H69666   7.044   6.453   5.014 -1.6216 -0.7874 -1.5844
  528MOL0     H69667   7.114   6.332   5.110  0.3050 -3.1533 -2.4994
  528MOL0     H69668   6.860   6.494   5.166  0.7919  0.2132 -1.0403
  528MOL0     H69669   6.910   6.367   5.274  3.1536 -0.7542  0.5995
  528MOL0     H69670   7.092   6.594   5.187 -0.7730  0.9951 -0.3706
  528MOL0     H69671   7.131   6.464   5.308 -0.3782 -0.8197 -1.2487
  528MOL0     H69672   6.952   6.542   5.455  0.2299  0.5160  1.3752
  528MOL0     H69673   6.900   6.662   5.337 -1.5176 -1.2990  2.1645
  528MOL0     H69674   7.052   6.758   5.534  2.0478 -1.0932  1.2571
  528MOL0     H69675   7.180   6.665   5.467 -1.3351 -1.9161 -0.2300
  528MOL0     H69676   7.018   6.860   5.287  0.6324 -0.4903 -2.0012
  528MOL0     H69677   7.176   6.797   5.249 -0.1641 -0.7553  1.1350
  528MOL0     H69678   7.199   6.014   4.836 -2.1635  2.0457  0.4262
  528MOL0     H69679   7.437   5.978   4.792 -0.3047  0.3766 -0.1441
  528MOL0     H69680   7.782   6.240   4.431  0.4265  1.9980  1.0720
  528MOL0     H69681   8.037   6.237   4.386  1.0952 -0.1018 -0.5095
  528MOL0     H69682   9.541   6.881   4.145  0.2826 -0.4723  0.6209
  528MOL0     H69683   9.760   6.910   4.045 -0.0715 -2.2464  1.6150
  528MOL0     H69684  10.073   7.195   3.709  0.2798 -0.2740 -0.5308
  528MOL0     H69685  10.296   7.172   3.653 -1.7579  0.2307 -0.2019
  528MOL0     H69686  10.535   6.779   3.634  0.7336 -2.6735  2.0156
  528MOL0     H69687  10.453   6.818   3.784  1.4867  1.4359  0.8570
  528MOL0     H69688  10.639   6.999   3.817 -0.3259 -0.5265  2.0363
  528MOL0     H69689  10.663   6.825   3.826 -1.5241  1.6385  2.3562
  528MOL0     H69690  10.716   6.949   3.553 -4.2481 -1.9330  0.9907
  528MOL0     H69691  10.807   6.814   3.622 -2.0778 -2.3593  2.5035
  528MOL0     H69692  10.956   7.024   3.626 -0.6714 -0.0502 -0.1393
  528MOL0     H69693  10.837   7.099   3.739 -1.9462 -0.2552 -1.2014
  528MOL0     H69694  11.036   6.802   3.964 -1.6207  0.2078  0.0263
  528MOL0     H69695  10.268   6.753   3.664 -1.8802 -0.0106  3.0486
  528MOL0     H69696  10.020   6.775   3.686 -0.3715  0.4471  0.2048
  529MOL0     O69697   3.114   8.119   8.242  0.1996  0.3845  0.1019
  529MOL0     C69698   3.032   8.147   8.151 -0.0942  0.0483  0.0503
  529MOL0     O69699   2.935   8.072   8.097 -0.5646 -0.4767 -0.2276
  529MOL0     C69700   2.894   7.962   8.166  0.8098  0.6177 -0.6778
  529MOL0     C69701   2.841   7.975   8.290 -1.1309 -0.6754  0.2978
  529MOL0     C69702   2.796   7.874   8.376  0.0787  0.0083 -0.9330
  529MOL0     C69703   2.817   7.743   8.337  0.4636  0.7873  0.7832
  529MOL0     O69704   2.784   7.626   8.397  0.2426 -0.8076 -0.6251
  529MOL0     C69705   2.749   7.617   8.530  0.3995 -0.5964 -0.4806
  529MOL0     C69706   2.674   7.487   8.555  0.0481 -0.6501 -0.5239
  529MOL0     C69707   2.547   7.476   8.464  0.1416  0.6757  0.6218
  529MOL0     C69708   2.449   7.372   8.510  0.4999 -0.6352  0.3358
  529MOL0     C69709   2.515   7.246   8.556  0.1778  0.7086 -0.0554
  529MOL0     C69710   2.429   7.116   8.547 -1.2673  0.3215  0.5954
  529MOL0     C69711   2.306   7.128   8.641 -0.2402 -0.2014  0.3928
  529MOL0     C69712   2.214   7.008   8.622  0.0963 -0.2910  0.2876
  529MOL0     N69713   2.109   7.025   8.517 -0.1410  0.3557  0.9164
  529MOL0     C69714   1.981   6.963   8.499 -0.5369 -0.4146 -0.1425
  529MOL0     C69715   1.947   6.990   8.372 -0.5329 -0.4940  1.0373
  529MOL0     C69716   1.829   6.946   8.297 -0.1666 -0.3359  0.1613
  529MOL0     C69717   1.718   7.056   8.302  0.1066 -0.6227  0.8040
  529MOL0     C69718   1.611   7.048   8.188  1.1475  0.3974 -0.2181
  529MOL0     C69719   1.468   7.108   8.201  0.6891 -0.4530 -0.6758
  529MOL0     O69720   1.459   7.251   8.217 -0.0508  0.9246  0.0769
  529MOL0     C69721   1.538   7.327   8.141  0.5088  0.0111  0.2645
  529MOL0     C69722   1.513   7.323   8.005 -0.1470  0.0573 -0.2802
  529MOL0     C69723   1.607   7.390   7.922 -0.2786  0.1889 -1.5265
  529MOL0     C69724   1.721   7.444   7.984  0.0563 -0.3504  0.4739
  529MOL0     C69725   1.837   7.486   7.904  0.2697  0.4068 -0.0989
  529MOL0     O69726   1.895   7.605   7.943 -0.3482  0.1450 -0.7340
  529MOL0     C69727   1.987   7.674   7.873  0.4100  0.4421  1.3150
  529MOL0     C69728   2.003   7.672   7.737 -0.3078 -0.1479  0.5316
  529MOL0     C69729   2.096   7.768   7.678  0.9762  0.1175 -0.6717
  529MOL0     C69730   2.167   7.860   7.753 -0.0371 -0.2547  0.0915
  529MOL0     O69731   2.264   7.937   7.706 -0.8483 -0.4128  0.4683
  529MOL0     C69732   2.386   7.865   7.668 -0.3292 -0.4324  0.1405
  529MOL0     C69733   2.495   7.977   7.673  0.2251  0.2437  0.0353
  529MOL0     C69734   2.530   8.017   7.809  0.0570 -0.0772 -0.1548
  529MOL0     C69735   2.623   8.140   7.825 -1.4733  0.0381  0.4166
  529MOL0     C69736   2.551   8.275   7.794 -0.0910  0.0537 -0.6627
  529MOL0     C69737   2.648   8.391   7.770  0.3270  0.1638 -0.1094
  529MOL0     C69738   2.565   8.516   7.710 -0.1135  1.1445 -0.2476
  529MOL0     C69739   2.671   8.600   7.641 -1.3275  0.1632  0.0820
  529MOL0    Cl69740   2.617   8.741   7.561  0.1116 -0.1227  0.3842
  529MOL0     C69741   2.141   7.862   7.888  0.5325 -0.2199 -0.0949
  529MOL0     C69742   2.058   7.770   7.946 -0.0490 -0.4212  1.1058
  529MOL0     O69743   1.869   7.414   7.818 -0.0525  0.8004  0.4030
  529MOL0     C69744   1.734   7.452   8.118  0.1665  0.1133 -1.0168
  529MOL0     C69745   1.653   7.387   8.202 -0.5491 -0.0101 -0.3225
  529MOL0     N69746   2.043   7.079   8.316 -0.6652  0.8049  0.5741
  529MOL0     N69747   2.136   7.104   8.401  1.1113 -0.0935 -0.1284
  529MOL0     C69748   2.864   7.729   8.204  0.4600  0.3464  0.1887
  529MOL0     C69749   2.909   7.833   8.115 -0.0658 -0.7073 -0.9104
  529MOL0     C69750   3.050   8.263   8.073  0.7438  0.8686  0.9977
  529MOL0     C69751   2.957   8.289   7.969 -0.9764 -0.8949 -0.4235
  529MOL0     C69752   2.968   8.399   7.891 -0.4947 -0.5394  1.1095
  529MOL0     C69753   3.080   8.484   7.902 -0.9354 -0.6925 -0.2557
  529MOL0     O69754   3.074   8.595   7.826 -0.0308  0.7801  0.0321
  529MOL0     C69755   3.172   8.693   7.860 -0.1184 -0.2821  0.3618
  529MOL0     C69756   3.154   8.828   7.791  0.2519  0.0202  0.1120
  529MOL0     C69757   3.144   8.817   7.633 -0.2875  0.4034 -0.1877
  529MOL0     C69758   3.082   8.948   7.569 -0.0078  0.4006 -0.1482
  529MOL0     C69759   3.149   9.070   7.623  0.6734  0.8869  0.7946
  529MOL0     C69760   3.206   9.159   7.672  0.2749  0.5040 -0.3815
  529MOL0     C69761   3.183   8.457   8.001  0.9003 -0.5457  0.4708
  529MOL0     C69762   3.168   8.342   8.082  0.2214 -0.1199 -0.9296
  529MOL0     H69763   2.816   8.079   8.311 -2.5337 -0.8985 -0.1869
  529MOL0     H69764   2.755   7.903   8.472  2.0722 -1.5521  0.4867
  529MOL0     H69765   2.681   7.701   8.548  0.5562 -0.9343  2.0703
  529MOL0     H69766   2.836   7.630   8.596  0.0809 -1.3133  0.0903
  529MOL0     H69767   2.643   7.480   8.659 -1.0759  1.4088 -0.6721
  529MOL0     H69768   2.744   7.409   8.525  0.5061  0.4275 -2.4264
  529MOL0     H69769   2.594   7.454   8.367 -0.8655  2.9121 -0.4445
  529MOL0     H69770   2.494   7.571   8.471 -0.9641  0.0033  1.9493
  529MOL0     H69771   2.378   7.416   8.579  0.9685  2.9470 -1.2291
  529MOL0     H69772   2.391   7.347   8.420 -1.4768  1.3042  1.0061
  529MOL0     H69773   2.548   7.257   8.659 -4.9067 -0.5450  2.0086
  529MOL0     H69774   2.595   7.225   8.484 -2.2699 -2.3894 -2.1970
  529MOL0     H69775   2.493   7.033   8.578 -1.2665  0.9346  2.3293
  529MOL0     H69776   2.404   7.096   8.442 -3.5821 -0.3031  1.2235
  529MOL0     H69777   2.347   7.116   8.742  0.3783 -1.4234  0.0249
  529MOL0     H69778   2.261   7.226   8.626  1.6731  0.6888  0.1172
  529MOL0     H69779   2.151   6.988   8.710  0.8069 -2.1433  0.4175
  529MOL0     H69780   2.272   6.917   8.603  1.8702  0.4250  1.9897
  529MOL0     H69781   1.916   6.929   8.579 -0.1751  1.4963  1.0304
  529MOL0     H69782   1.787   6.855   8.340  3.1953 -1.0265  2.3404
  529MOL0     H69783   1.858   6.920   8.195 -1.4675 -2.3136  0.2208
  529MOL0     H69784   1.758   7.157   8.299 -0.6761 -0.3131  0.5425
  529MOL0     H69785   1.666   7.043   8.397 -2.8234 -0.9270 -0.7307
  529MOL0     H69786   1.660   7.094   8.102 -1.1983  2.6083 -0.4791
  529MOL0     H69787   1.590   6.941   8.175 -1.1651  0.4317  2.3016
  529MOL0     H69788   1.425   7.054   8.286 -0.7436 -1.5482 -2.0276
  529MOL0     H69789   1.408   7.082   8.113  0.9380  0.9996 -1.2958
  529MOL0     H69790   1.430   7.265   7.966 -1.7178  2.0029 -0.0225
  529MOL0     H69791   1.593   7.405   7.815  0.5799  3.3350 -1.3054
  529MOL0     H69792   1.952   7.597   7.678  2.6582 -1.6056 -0.3841
  529MOL0     H69793   2.115   7.762   7.571 -2.3291  1.5310 -1.4458
  529MOL0     H69794   2.384   7.820   7.568  2.8489 -0.8120  0.1322
  529MOL0     H69795   2.417   7.787   7.738  1.4067  1.0846  1.1543
  529MOL0     H69796   2.474   8.068   7.615  0.1848  2.5071  3.3521
  529MOL0     H69797   2.583   7.928   7.631 -0.2239 -1.3131  0.8425
  529MOL0     H69798   2.583   7.929   7.849  0.9952  0.2439 -0.6562
  529MOL0     H69799   2.442   8.032   7.872  1.1001  1.0385  1.1086
  529MOL0     H69800   2.661   8.139   7.928  0.8526  1.2850 -0.3550
  529MOL0     H69801   2.710   8.131   7.760 -1.4849  1.3931  0.1921
  529MOL0     H69802   2.478   8.299   7.871  0.8914 -0.9055  0.5994
  529MOL0     H69803   2.493   8.265   7.702 -0.7569 -3.2473 -0.0144
  529MOL0     H69804   2.728   8.357   7.703 -0.8958 -3.6529  0.1422
  529MOL0     H69805   2.686   8.425   7.867 -0.7559 -5.6241  2.7687
  529MOL0     H69806   2.500   8.480   7.629  1.7260 -0.4163 -1.0904
  529MOL0     H69807   2.519   8.569   7.794 -0.2048 -3.6172  3.1197
  529MOL0     H69808   2.719   8.538   7.564 -0.1988  0.5726  0.4303
  529MOL0     H69809   2.740   8.641   7.715 -0.4340 -2.4278  0.7919
  529MOL0     H69810   2.196   7.939   7.941 -0.5971  0.9624 -0.5818
  529MOL0     H69811   2.044   7.775   8.053  0.5831  2.5402  1.1340
  529MOL0     H69812   1.822   7.506   8.150 -0.9159  1.2563  0.1998
  529MOL0     H69813   1.660   7.382   8.310  1.2902  0.3139 -0.3878
  529MOL0     H69814   2.872   7.624   8.176 -0.3969 -0.7264  3.5271
  529MOL0     H69815   2.923   7.814   8.009 -1.5842 -1.3401 -1.0245
  529MOL0     H69816   2.865   8.235   7.953 -0.3460 -1.6682 -1.5769
  529MOL0     H69817   2.898   8.443   7.821  0.2403 -0.1364  0.5987
  529MOL0     H69818   3.271   8.655   7.832 -0.6642 -0.7426 -1.0536
  529MOL0     H69819   3.177   8.725   7.964  0.1518 -0.8184  0.5191
  529MOL0     H69820   3.067   8.880   7.832 -1.4524 -0.5995 -2.4922
  529MOL0     H69821   3.244   8.886   7.816 -2.7563  4.1312  2.8731
  529MOL0     H69822   3.081   8.735   7.599 -1.6285  0.7986  1.2165
  529MOL0     H69823   3.246   8.810   7.595 -0.7450  1.5243 -1.6952
  529MOL0     H69824   3.089   8.952   7.460  1.5947 -0.1025 -0.0953
  529MOL0     H69825   2.976   8.944   7.594  0.0603  0.9869  0.2528
  529MOL0     H69826   3.267   9.244   7.697  1.9583 -0.6527 -0.3786
  529MOL0     H69827   3.258   8.526   8.039  0.5374 -0.0901  0.3691
  529MOL0     H69828   3.246   8.320   8.154 -0.1505  4.2064  1.1501
  530MOL0     O69829   0.120   7.918   5.617 -0.2536 -0.3745 -0.0897
  530MOL0     C69830   0.059   7.822   5.662 -0.1855  0.9027 -0.3226
  530MOL0     O69831  -0.069   7.833   5.722  0.2415 -0.6577 -0.3724
  530MOL0     C69832  -0.118   7.955   5.725 -1.2298  0.2885 -0.3393
  530MOL0     C69833  -0.089   8.044   5.829  0.5166  0.4538 -0.4584
  530MOL0     C69834  -0.160   8.168   5.838  2.0023 -0.4156 -0.1189
  530MOL0     C69835  -0.270   8.197   5.749 -0.2909 -0.4024 -0.0742
  530MOL0     O69836  -0.353   8.308   5.775  0.3096  0.6923  0.2992
  530MOL0     C69837  -0.491   8.293   5.734  0.6642  0.1157  1.1594
  530MOL0     C69838  -0.562   8.391   5.817  0.2867 -0.1958  0.8456
  530MOL0     C69839  -0.508   8.536   5.784 -0.6110  0.1555  0.1204
  530MOL0     C69840  -0.601   8.648   5.847 -0.4360  0.2349  0.2188
  530MOL0     C69841  -0.567   8.784   5.781 -0.4836 -0.1085  0.3600
  530MOL0     C69842  -0.670   8.892   5.813 -0.2866  0.4382 -0.5340
  530MOL0     C69843  -0.641   9.024   5.761  0.3770 -0.3437  0.4443
  530MOL0     C69844  -0.627   9.129   5.869 -0.8241 -0.0311 -0.2063
  530MOL0     N69845  -0.614   9.256   5.799  0.1636  0.5520  0.2908
  530MOL0     C69846  -0.501   9.299   5.732 -0.1564  0.2600 -0.0911
  530MOL0     C69847  -0.547   9.423   5.681 -1.1653 -0.4321  0.6393
  530MOL0     C69848  -0.448   9.516   5.610 -0.3677 -0.3734  0.6991
  530MOL0     C69849  -0.452   9.664   5.661 -0.3907 -0.5862 -0.0902
  530MOL0     C69850  -0.549   9.754   5.595  0.1530 -0.1871  1.7090
  530MOL0     C69851  -0.500   9.793   5.451  0.5017 -0.1611 -0.3295
  530MOL0     O69852  -0.398   9.885   5.453  0.7290  0.0185  0.4580
  530MOL0     C69853  -0.297   9.887   5.367  0.0422 -0.8014 -0.0219
  530MOL0     C69854  -0.314   9.826   5.241  0.0370 -0.7431 -0.7662
  530MOL0     C69855  -0.200   9.830   5.154 -0.6815 -0.5806 -0.4791
  530MOL0     C69856  -0.074   9.907   5.186  0.4239  0.9312  0.1129
  530MOL0     C69857   0.036   9.916   5.095  1.4962 -0.3419 -0.9106
  530MOL0     O69858   0.151   9.961   5.150 -0.1031 -0.3233  0.2666
  530MOL0     C69859   0.274   9.945   5.092  0.0033  0.2128  0.5174
  530MOL0     C69860   0.310   9.840   5.007  0.5455 -0.7688 -0.2507
  530MOL0     C69861   0.439   9.824   4.963  0.1308 -0.0879  0.4472
  530MOL0     C69862   0.541   9.907   5.003  0.3657  0.2178  0.2226
  530MOL0     O69863   0.659   9.879   4.958  0.7050 -0.6959 -0.1493
  530MOL0     C69864   0.779   9.915   5.026 -0.0851  0.0094 -0.9930
  530MOL0     C69865   0.847  10.030   4.947 -0.9013 -0.3487  0.0965
  530MOL0     C69866   0.990  10.044   5.002  0.7070 -0.6228 -0.0974
  530MOL0     C69867   1.066  10.157   4.932 -0.2487 -0.5816  0.4175
  530MOL0     C69868   1.215  10.136   4.970  0.3941  0.1615 -0.7982
  530MOL0     C69869   1.312  10.241   4.905 -0.3171 -0.2489  0.6523
  530MOL0     C69870   1.461  10.200   4.935  0.1384  0.5075 -0.0422
  530MOL0     C69871   1.499  10.225   5.080 -0.9563  0.9760 -0.4989
  530MOL0    Cl69872   1.675  10.183   5.109 -0.1888 -0.0643 -0.0039
  530MOL0     C69873   0.518  10.006   5.096  0.7278 -0.1237 -0.8248
  530MOL0     C69874   0.379  10.036   5.131 -0.2605  0.4790 -1.3590
  530MOL0     O69875   0.022   9.863   4.985 -0.1407  0.0185 -0.2253
  530MOL0     C69876  -0.078   9.982   5.310  0.0314  0.5340 -0.0941
  530MOL0     C69877  -0.195   9.978   5.388 -0.9766 -0.0872 -0.0005
  530MOL0     N69878  -0.677   9.448   5.718  0.2515  0.0660  0.8345
  530MOL0     N69879  -0.714   9.343   5.774 -0.5776  0.2623  0.3879
  530MOL0     C69880  -0.291   8.108   5.645 -0.1995 -0.2943  0.5592
  530MOL0     C69881  -0.219   7.992   5.635  0.2382 -0.0872  0.7941
  530MOL0     C69882   0.125   7.691   5.657  0.5214  0.0376  0.2625
  530MOL0     C69883   0.054   7.579   5.694  0.5661  0.9597 -0.3741
  530MOL0     C69884   0.114   7.453   5.697  0.7290  0.1344 -0.6635
  530MOL0     C69885   0.237   7.436   5.655  0.6519  0.4558  0.4215
  530MOL0     O69886   0.278   7.308   5.668 -0.8614 -0.1897 -0.6893
  530MOL0     C69887   0.370   7.264   5.562 -0.6113 -0.0451 -0.8625
  530MOL0     C69888   0.355   7.117   5.547  0.0713 -0.1516 -0.1491
  530MOL0     C69889   0.409   7.050   5.418  0.6201 -0.1023 -0.5051
  530MOL0     C69890   0.556   7.051   5.416 -0.0034  0.0592 -0.1956
  530MOL0     C69891   0.617   7.060   5.275 -0.1369  0.7221 -0.3960
  530MOL0     C69892   0.672   7.059   5.167 -0.6570  0.2172 -0.3595
  530MOL0     C69893   0.305   7.548   5.603 -0.2558 -0.0068 -0.2044
  530MOL0     C69894   0.256   7.672   5.615 -0.6873 -0.8904  0.3991
  530MOL0     H69895  -0.008   8.042   5.901  0.1966  1.6201 -0.0333
  530MOL0     H69896  -0.138   8.239   5.917  3.5086 -0.4323 -0.4972
  530MOL0     H69897  -0.540   8.199   5.760 -2.5547  1.6585  1.2056
  530MOL0     H69898  -0.498   8.311   5.627  4.0610 -0.6941  0.6748
  530MOL0     H69899  -0.566   8.356   5.920  0.9094 -1.3964  0.4765
  530MOL0     H69900  -0.660   8.384   5.767  1.6743 -0.7365 -2.0269
  530MOL0     H69901  -0.511   8.538   5.675  0.8458 -3.8285 -0.1637
  530MOL0     H69902  -0.405   8.555   5.817  0.6941  0.4562 -3.6320
  530MOL0     H69903  -0.704   8.622   5.818  0.6223 -1.5685 -2.2749
  530MOL0     H69904  -0.584   8.661   5.954 -0.2664 -1.0837  0.3639
  530MOL0     H69905  -0.558   8.771   5.672 -2.5692 -1.4483  0.2932
  530MOL0     H69906  -0.468   8.809   5.820  0.4623 -3.0956  0.1426
  530MOL0     H69907  -0.667   8.895   5.922 -0.9279  2.4952 -0.5289
  530MOL0     H69908  -0.771   8.852   5.796  0.1070 -0.4576 -0.8064
  530MOL0     H69909  -0.566   9.023   5.681  0.6002  1.8507  0.5455
  530MOL0     H69910  -0.720   9.066   5.696  2.0098 -1.5121 -2.5064
  530MOL0     H69911  -0.546   9.113   5.941  0.8553 -0.4950 -2.0649
  530MOL0     H69912  -0.717   9.130   5.930  0.5850 -1.6182  2.0644
  530MOL0     H69913  -0.403   9.253   5.728 -0.0784  0.4884 -2.1340
  530MOL0     H69914  -0.464   9.509   5.502 -0.0368  0.4756  0.5882
  530MOL0     H69915  -0.342   9.499   5.633 -0.4434  0.1243  1.4470
  530MOL0     H69916  -0.353   9.708   5.648 -0.8921  0.2256 -1.2966
  530MOL0     H69917  -0.477   9.660   5.767 -1.8871 -1.1864 -0.4267
  530MOL0     H69918  -0.644   9.703   5.576 -1.3903  2.8770  0.4091
  530MOL0     H69919  -0.556   9.846   5.655  1.4366  0.0519  1.5099
  530MOL0     H69920  -0.584   9.839   5.399  0.4462 -1.5611 -1.5456
  530MOL0     H69921  -0.478   9.697   5.402 -2.4124 -1.4346  0.6555
  530MOL0     H69922  -0.385   9.752   5.207  1.1283 -0.2558 -4.4970
  530MOL0     H69923  -0.210   9.783   5.057 -0.8757 -1.3021 -0.1180
  530MOL0     H69924   0.233   9.775   4.967  0.9264 -0.1325 -2.1320
  530MOL0     H69925   0.478   9.756   4.887  3.3204  1.7778  0.2737
  530MOL0     H69926   0.845   9.829   5.038 -0.8347 -0.1484  5.8097
  530MOL0     H69927   0.770   9.940   5.132  2.0275 -3.7669  0.2684
  530MOL0     H69928   0.781  10.117   4.940 -1.8857 -1.1729 -1.5565
  530MOL0     H69929   0.857  10.001   4.842 -1.6711  0.8958 -0.3438
  530MOL0     H69930   1.044   9.954   4.971  5.0447  2.1357 -1.4621
  530MOL0     H69931   0.982  10.052   5.111 -0.2721  0.0380 -0.2157
  530MOL0     H69932   1.051  10.162   4.824  1.7463  0.9682  0.1705
  530MOL0     H69933   1.032  10.255   4.968 -1.1224 -1.7484  3.0841
  530MOL0     H69934   1.238  10.036   4.934  0.1603  1.1983 -4.1977
  530MOL0     H69935   1.236  10.145   5.077  1.2821  0.4710 -0.9852
  530MOL0     H69936   1.292  10.339   4.948  3.1775  2.5332 -3.2384
  530MOL0     H69937   1.305  10.246   4.796 -3.0737  6.0108  0.7126
  530MOL0     H69938   1.483  10.098   4.902  0.7574 -0.0780  2.0303
  530MOL0     H69939   1.522  10.273   4.880  0.2489 -1.5822 -2.9552
  530MOL0     H69940   1.440  10.155   5.141  1.3023 -0.7568 -0.1843
  530MOL0     H69941   1.480  10.329   5.107  1.4586  0.9466  1.7503
  530MOL0     H69942   0.591  10.076   5.136 -0.8032 -1.7054  6.0331
  530MOL0     H69943   0.368  10.103   5.215 -1.4020 -1.0878 -0.1946
  530MOL0     H69944   0.001  10.053   5.332 -0.5705  1.0941  0.2936
  530MOL0     H69945  -0.198  10.035   5.480 -1.4471  1.6216 -1.0349
  530MOL0     H69946  -0.359   8.147   5.569  1.2700 -0.4658 -0.9213
  530MOL0     H69947  -0.235   7.923   5.552  0.5911  2.0068 -1.1311
  530MOL0     H69948  -0.049   7.589   5.727  0.4874 -0.3754 -0.1478
  530MOL0     H69949   0.058   7.365   5.728 -0.4462  0.9263 -0.4557
  530MOL0     H69950   0.475   7.288   5.580 -0.4955  0.0448 -1.6003
  530MOL0     H69951   0.344   7.326   5.475  1.2722  2.5452  0.3116
  530MOL0     H69952   0.412   7.070   5.628  2.4352  0.0236 -1.6247
  530MOL0     H69953   0.249   7.093   5.562 -0.1023  2.3886  4.9018
  530MOL0     H69954   0.366   7.099   5.331 -1.6365 -0.2926  0.4160
  530MOL0     H69955   0.378   6.946   5.404  1.0056  0.0508 -2.7867
  530MOL0     H69956   0.594   7.132   5.479 -0.8449  1.3485 -1.3068
  530MOL0     H69957   0.592   6.955   5.455  0.9811 -0.5247 -2.3919
  530MOL0     H69958   0.695   7.065   5.062  3.4351  1.2992  0.4109
  530MOL0     H69959   0.408   7.529   5.574 -0.2560  1.4214 -1.2672
  530MOL0     H69960   0.323   7.755   5.594  1.7213 -2.2114  2.3562
  531MOL0     O69961   6.844   4.394   8.025 -1.3098  0.7676  0.2665
  531MOL0     C69962   6.888   4.408   7.911 -0.9946 -0.5076  0.4231
  531MOL0     O69963   6.814   4.416   7.799  0.3707  0.2370  0.0489
  531MOL0     C69964   6.686   4.387   7.788  0.7926 -0.0713 -0.6390
  531MOL0     C69965   6.642   4.398   7.652  0.2467  0.6670  0.7558
  531MOL0     C69966   6.509   4.390   7.623  0.3861  0.2656 -0.3478
  531MOL0     C69967   6.414   4.355   7.720  1.4283 -0.1583 -0.9666
  531MOL0     O69968   6.288   4.336   7.681  1.0066  0.4051 -0.2827
  531MOL0     C69969   6.195   4.257   7.758  0.0340 -0.7196 -0.1877
  531MOL0     C69970   6.073   4.235   7.669 -0.3858  0.0856  0.4665
  531MOL0     C69971   5.965   4.160   7.741  0.6221 -0.0439  0.4358
  531MOL0     C69972   5.944   4.204   7.894 -0.2192 -0.2897 -0.0888
  531MOL0     C69973   5.800   4.172   7.942 -0.6519  0.4361 -0.6092
  531MOL0     C69974   5.690   4.253   7.866  0.0332 -1.1002  0.8239
  531MOL0     C69975   5.554   4.262   7.946  0.3278 -0.1990 -0.6030
  531MOL0     C69976   5.431   4.310   7.876  0.5496  0.3621 -0.4701
  531MOL0     N69977   5.465   4.436   7.818  0.2098  0.0724  0.6535
  531MOL0     C69978   5.482   4.548   7.890 -0.1371 -0.2228 -0.1291
  531MOL0     C69979   5.478   4.645   7.794 -0.7211 -0.5065 -1.6789
  531MOL0     C69980   5.465   4.796   7.815  0.4553  0.2314  0.3422
  531MOL0     C69981   5.604   4.859   7.806 -0.4294 -0.6428 -0.4771
  531MOL0     C69982   5.597   5.014   7.791  0.2337  0.2853 -0.2525
  531MOL0     C69983   5.546   5.087   7.915  0.2973 -0.0550 -0.4013
  531MOL0     O69984   5.399   5.083   7.906 -0.2946  0.0659 -0.4898
  531MOL0     C69985   5.334   5.198   7.861  0.4213 -0.5707  0.7958
  531MOL0     C69986   5.386   5.324   7.830  0.5413  0.1137 -0.1341
  531MOL0     C69987   5.305   5.422   7.775 -0.8504  0.1444  0.6662
  531MOL0     C69988   5.165   5.399   7.742  0.2259  0.2381 -0.7002
  531MOL0     C69989   5.087   5.503   7.671 -0.5090  0.2285 -0.1243
  531MOL0     O69990   5.127   5.635   7.683  0.0826  0.1534  0.2602
  531MOL0     C69991   5.048   5.731   7.623 -0.1811 -0.0389  0.3541
  531MOL0     C69992   4.986   5.718   7.496  0.3120  0.1626  0.2338
  531MOL0     C69993   4.897   5.811   7.449  0.4391  0.0368  0.6983
  531MOL0     C69994   4.859   5.926   7.525 -0.1367  0.7995 -0.4068
  531MOL0     O69995   4.780   6.029   7.495  0.7455 -0.3867 -0.5262
  531MOL0     C69996   4.738   6.038   7.357  0.5378 -0.2322  0.0083
  531MOL0     C69997   4.648   6.155   7.348 -0.9118 -0.4790 -0.0613
  531MOL0     C69998   4.513   6.132   7.416  0.4768 -1.6190  0.0683
  531MOL0     C69999   4.421   6.252   7.377 -0.1793 -0.1094  0.0284
  531MOL0     C70000   4.275   6.229   7.415 -0.3180  0.0593  0.7792
  531MOL0     C70001   4.201   6.362   7.434  0.4346 -0.9811  0.6587
  531MOL0     C70002   4.254   6.458   7.543 -0.0330  0.2450  0.0922
  531MOL0     C70003   4.148   6.555   7.595  0.2531 -0.3427  0.0372
  531MOL0    Cl70004   4.026   6.447   7.658 -0.1756  0.4109 -0.5760
  531MOL0     C70005   4.924   5.932   7.649 -0.2112  0.0099  0.1398
  531MOL0     C70006   5.019   5.845   7.699 -0.4795 -0.0552 -0.2364
  531MOL0     O70007   4.981   5.463   7.621 -0.2596  0.1689 -0.2569
  531MOL0     C70008   5.112   5.271   7.779  0.6706 -0.3662 -0.5955
  531MOL0     C70009   5.198   5.170   7.829  0.7663  0.5051  0.0970
  531MOL0     N70010   5.491   4.589   7.666 -0.8297  0.1947  0.3067
  531MOL0     N70011   5.484   4.459   7.685 -0.0801 -0.2818  0.2701
  531MOL0     C70012   6.459   4.334   7.859 -0.0304  1.2389 -0.0160
  531MOL0     C70013   6.589   4.343   7.886  0.1391 -0.2836  0.4136
  531MOL0     C70014   7.036   4.400   7.898  0.2443 -0.7643  0.1585
  531MOL0     C70015   7.104   4.411   7.774 -0.0804 -0.4540  0.1724
  531MOL0     C70016   7.244   4.402   7.767  0.2231  1.0294 -0.7371
  531MOL0     C70017   7.321   4.360   7.874 -0.1417  0.1510 -0.6623
  531MOL0     O70018   7.460   4.345   7.873 -0.2558  0.3555 -0.4409
  531MOL0     C70019   7.539   4.399   7.769  0.2114  0.4358  0.0228
  531MOL0     C70020   7.575   4.548   7.788  0.2976 -0.3628  0.8238
  531MOL0     C70021   7.641   4.565   7.923 -0.1264 -0.2396  0.1137
  531MOL0     C70022   7.695   4.704   7.953 -0.1796  0.4097 -1.2389
  531MOL0     C70023   7.592   4.793   7.994 -0.3556 -0.2449 -0.4742
  531MOL0     C70024   7.508   4.871   8.036 -0.8945 -0.1030  0.2897
  531MOL0     C70025   7.244   4.326   7.990 -0.5345  0.3863 -0.4984
  531MOL0     C70026   7.109   4.349   8.009 -0.7339 -0.0179  0.7098
  531MOL0     H70027   6.707   4.429   7.571  0.1921  2.6679  1.4097
  531MOL0     H70028   6.479   4.420   7.523  0.1791 -2.1489 -1.0656
  531MOL0     H70029   6.165   4.329   7.834 -2.0378 -1.3891 -0.2939
  531MOL0     H70030   6.246   4.168   7.797  0.2413  0.2808  1.9379
  531MOL0     H70031   6.128   4.183   7.590 -0.7189 -2.4936  1.8333
  531MOL0     H70032   6.030   4.323   7.620 -0.1324 -0.5134 -0.8687
  531MOL0     H70033   5.978   4.052   7.735 -1.1289 -0.3385  1.3658
  531MOL0     H70034   5.871   4.179   7.688 -0.7838 -2.4717  1.8716
  531MOL0     H70035   6.027   4.154   7.945 -0.2056 -3.5784 -2.9588
  531MOL0     H70036   5.960   4.312   7.904  1.4166 -0.2486 -2.2446
  531MOL0     H70037   5.790   4.192   8.049 -1.7541  0.5362 -0.7192
  531MOL0     H70038   5.774   4.067   7.927 -1.0112  0.1417  1.7183
  531MOL0     H70039   5.657   4.218   7.768 -0.9066  0.9955  0.3277
  531MOL0     H70040   5.712   4.358   7.845 -3.3739 -0.5774 -0.8068
  531MOL0     H70041   5.528   4.161   7.980 -0.7967 -0.3356 -1.7804
  531MOL0     H70042   5.580   4.329   8.029  0.4361  1.3007 -1.8062
  531MOL0     H70043   5.359   4.315   7.959  0.6557  0.1141 -0.3635
  531MOL0     H70044   5.407   4.230   7.806  1.6186  1.0164 -1.6244
  531MOL0     H70045   5.456   4.561   7.995  2.1864  0.6507  0.4248
  531MOL0     H70046   5.422   4.815   7.914  0.2543  2.0576 -0.0529
  531MOL0     H70047   5.394   4.838   7.743  2.2692  1.3973 -0.8709
  531MOL0     H70048   5.667   4.819   7.726  0.4046  0.7903 -0.5743
  531MOL0     H70049   5.656   4.822   7.895 -0.5998 -0.9364 -0.4952
  531MOL0     H70050   5.694   5.048   7.757 -1.2761  2.4616 -2.7361
  531MOL0     H70051   5.533   5.046   7.708 -2.8473  0.3538  1.9511
  531MOL0     H70052   5.592   5.186   7.913  1.3456 -0.3810  2.7730
  531MOL0     H70053   5.577   5.035   8.006 -1.1462 -0.6105 -0.2001
  531MOL0     H70054   5.491   5.349   7.839  1.0712 -2.4943  2.6384
  531MOL0     H70055   5.347   5.519   7.749 -1.6383  0.5882  0.9826
  531MOL0     H70056   5.008   5.636   7.429  1.5405  0.7917 -0.1616
  531MOL0     H70057   4.869   5.809   7.345  1.8443  0.0640  0.3031
  531MOL0     H70058   4.681   5.954   7.315 -0.4864  0.3634  0.1852
  531MOL0     H70059   4.824   6.067   7.296 -0.9488  1.9456 -1.1925
  531MOL0     H70060   4.625   6.170   7.242 -1.4714  0.7819  0.2288
  531MOL0     H70061   4.705   6.240   7.387  0.6990 -2.3255  1.8949
  531MOL0     H70062   4.530   6.135   7.524  2.1311  3.0220 -0.1008
  531MOL0     H70063   4.474   6.036   7.381 -0.2159 -1.7984  1.2791
  531MOL0     H70064   4.474   6.338   7.420  0.3458 -0.4734  0.1067
  531MOL0     H70065   4.407   6.270   7.270 -4.3127 -0.9994  0.2626
  531MOL0     H70066   4.268   6.167   7.505 -1.8773 -1.3799 -0.2752
  531MOL0     H70067   4.237   6.178   7.326  1.8115  0.2795 -0.3278
  531MOL0     H70068   4.096   6.344   7.458  0.3130  2.1486  3.0236
  531MOL0     H70069   4.185   6.413   7.338 -0.1147 -3.4899 -0.6702
  531MOL0     H70070   4.288   6.404   7.632 -2.0739 -1.0256  0.1739
  531MOL0     H70071   4.347   6.504   7.508  0.5658 -1.3234 -0.4833
  531MOL0     H70072   4.102   6.625   7.524 -3.4163 -2.3696  0.1621
  531MOL0     H70073   4.195   6.621   7.669  1.5707 -0.2193 -0.8728
  531MOL0     H70074   4.895   6.007   7.722  0.3664  1.0221 -0.6290
  531MOL0     H70075   5.070   5.857   7.794  1.5326 -2.0911 -0.9471
  531MOL0     H70076   5.006   5.254   7.761  0.0214  2.4445  0.0669
  531MOL0     H70077   5.165   5.067   7.845  1.5200 -0.2659 -2.8016
  531MOL0     H70078   6.392   4.328   7.945  2.7103 -1.9444  2.1615
  531MOL0     H70079   6.617   4.333   7.991 -0.8263  1.0726  0.8280
  531MOL0     H70080   7.052   4.445   7.684  1.0279  1.2745  0.1524
  531MOL0     H70081   7.288   4.424   7.670  0.7487  4.0798  0.1094
  531MOL0     H70082   7.494   4.385   7.670 -0.4069  0.1810  0.3315
  531MOL0     H70083   7.630   4.342   7.754 -0.4035 -0.3504 -0.8436
  531MOL0     H70084   7.651   4.576   7.714 -0.6211  1.0978  0.4062
  531MOL0     H70085   7.493   4.619   7.772  0.1907 -0.6991 -0.1789
  531MOL0     H70086   7.714   4.485   7.937 -1.2618 -1.4388 -0.5763
  531MOL0     H70087   7.557   4.550   7.991 -1.4583  3.3304 -0.5005
  531MOL0     H70088   7.766   4.700   8.037  0.5849 -0.5215 -1.9065
  531MOL0     H70089   7.748   4.738   7.864  1.2204 -0.6706 -0.8579
  531MOL0     H70090   7.430   4.939   8.066  2.1893  4.1711 -0.4596
  531MOL0     H70091   7.295   4.269   8.068  0.7874  1.6424 -0.3919
  531MOL0     H70092   7.077   4.324   8.110  2.2494 -1.5983  1.3941
  532MOL0     O70093   3.890   9.079   0.627  0.3381 -0.4037  0.4324
  532MOL0     C70094   3.919   8.961   0.626 -0.3910 -0.1762 -0.1514
  532MOL0     O70095   3.830   8.856   0.600 -1.2264 -0.4437  1.0586
  532MOL0     C70096   3.695   8.865   0.604  0.2398  0.9809  0.2931
  532MOL0     C70097   3.629   8.746   0.575  0.1105 -1.0618  0.0003
  532MOL0     C70098   3.486   8.747   0.570 -0.2588 -0.4482 -0.2117
  532MOL0     C70099   3.400   8.863   0.590 -1.5455  0.5319 -0.3164
  532MOL0     O70100   3.265   8.848   0.587 -0.2764  0.0155 -0.1474
  532MOL0     C70101   3.193   8.946   0.665  0.1526  0.8453 -0.5240
  532MOL0     C70102   3.045   8.920   0.673 -0.5961  0.2472  0.1801
  532MOL0     C70103   2.989   8.789   0.725 -0.1744  0.6088 -0.4189
  532MOL0     C70104   3.052   8.746   0.864  0.5554 -0.1382  0.1763
  532MOL0     C70105   3.006   8.608   0.899 -0.7535 -0.2190 -1.5104
  532MOL0     C70106   3.046   8.558   1.048  0.0015  0.3466  1.2097
  532MOL0     C70107   2.970   8.420   1.076 -0.6783 -0.5051  0.5997
  532MOL0     C70108   3.011   8.348   1.206  0.8247 -0.4206  1.1955
  532MOL0     N70109   3.148   8.288   1.193 -0.6379  0.0719 -0.3437
  532MOL0     C70110   3.260   8.333   1.257 -0.0278 -0.6645 -0.0386
  532MOL0     C70111   3.350   8.243   1.233  0.7758  0.3104 -0.1068
  532MOL0     C70112   3.487   8.236   1.289 -0.1205 -1.1101 -0.1711
  532MOL0     C70113   3.588   8.302   1.207  0.8166  0.6897  0.7287
  532MOL0     C70114   3.720   8.288   1.283  0.3555  0.3998  0.2111
  532MOL0     C70115   3.788   8.157   1.250  0.7259  0.5773  0.0140
  532MOL0     O70116   3.918   8.171   1.311 -0.1083  0.7517 -0.3140
  532MOL0     C70117   4.022   8.084   1.275  0.8502 -0.4746 -0.3337
  532MOL0     C70118   4.155   8.135   1.273  0.2552 -0.4948  0.1458
  532MOL0     C70119   4.269   8.066   1.246  0.6268  0.6852 -0.9475
  532MOL0     C70120   4.260   7.934   1.217 -0.5369 -0.2013  0.4669
  532MOL0     C70121   4.388   7.860   1.210 -0.1870 -0.3972 -0.3259
  532MOL0     O70122   4.501   7.928   1.176  0.2059  0.3176 -0.1137
  532MOL0     C70123   4.622   7.854   1.171  0.0918 -0.8176 -0.7699
  532MOL0     C70124   4.729   7.919   1.240  0.5513  0.0773 -0.4611
  532MOL0     C70125   4.861   7.866   1.231 -0.0043 -0.4346  0.3576
  532MOL0     C70126   4.885   7.756   1.157 -0.5533 -0.4088  0.4802
  532MOL0     O70127   5.004   7.689   1.143 -1.2314 -0.1577 -0.0689
  532MOL0     C70128   5.127   7.729   1.214 -0.0841 -0.0700  0.0032
  532MOL0     C70129   5.243   7.679   1.137 -0.2419 -0.0455 -0.8805
  532MOL0     C70130   5.384   7.724   1.172  0.4076 -0.4398 -0.3258
  532MOL0     C70131   5.476   7.732   1.043  0.4478 -0.8038  0.1376
  532MOL0     C70132   5.594   7.825   1.068  0.1626 -1.1578  0.2736
  532MOL0     C70133   5.647   7.897   0.943  0.0088  0.3205 -0.6032
  532MOL0     C70134   5.784   7.952   0.968  0.0799 -0.0740  0.2738
  532MOL0     C70135   5.829   8.021   0.839 -0.4642  0.6651 -0.3569
  532MOL0    Cl70136   5.723   8.149   0.802 -0.5903 -0.0137 -0.1344
  532MOL0     C70137   4.775   7.688   1.090 -0.3429  0.1123 -0.5014
  532MOL0     C70138   4.644   7.738   1.098 -0.1426  0.1857  0.2107
  532MOL0     O70139   4.378   7.746   1.217 -0.5610  0.3505 -0.1837
  532MOL0     C70140   4.131   7.878   1.219 -0.0449  0.6379 -0.3623
  532MOL0     C70141   4.016   7.953   1.245  0.4021  0.7845 -0.0371
  532MOL0     N70142   3.308   8.153   1.143  0.3175  0.4510  0.0164
  532MOL0     N70143   3.183   8.174   1.131  0.0047  0.2082 -0.1355
  532MOL0     C70144   3.473   8.985   0.604  0.6810 -0.0086 -0.2428
  532MOL0     C70145   3.617   8.978   0.613  0.1051  0.0103  0.0677
  532MOL0     C70146   4.055   8.930   0.678  0.6591  0.9100  0.3112
  532MOL0     C70147   4.165   9.019   0.686 -0.1932  0.5429 -0.0887
  532MOL0     C70148   4.291   8.980   0.723  0.5789 -0.3272  0.2754
  532MOL0     C70149   4.321   8.848   0.746 -0.4085  0.9626 -0.8551
  532MOL0     O70150   4.436   8.794   0.784  0.0458 -0.2665 -0.8144
  532MOL0     C70151   4.551   8.874   0.811 -0.1284 -0.6015 -0.2266
  532MOL0     C70152   4.555   8.933   0.952 -0.2375 -0.4596  0.4773
  532MOL0     C70153   4.695   8.979   0.974 -0.3015 -0.6084 -1.0923
  532MOL0     C70154   4.699   9.086   1.088  0.9486  0.9316 -0.2961
  532MOL0     C70155   4.834   9.119   1.128  0.0586 -0.1841  0.3405
  532MOL0     C70156   4.945   9.138   1.161 -0.0389 -0.5337  0.3965
  532MOL0     C70157   4.215   8.757   0.729 -1.0577  0.3525  0.2694
  532MOL0     C70158   4.084   8.797   0.690 -0.1265 -0.0481 -0.3168
  532MOL0     H70159   3.670   8.649   0.550 -0.6426 -1.9948  2.1412
  532MOL0     H70160   3.446   8.649   0.550 -0.5782 -0.1832 -0.9083
  532MOL0     H70161   3.196   9.043   0.615  4.2112  0.8378 -0.5978
  532MOL0     H70162   3.235   8.958   0.765  0.4147 -1.2753 -0.3246
  532MOL0     H70163   3.005   8.947   0.575  1.5436  1.8213 -0.3178
  532MOL0     H70164   3.001   8.993   0.741 -1.3809 -0.0477  0.0035
  532MOL0     H70165   3.026   8.722   0.648 -1.4226 -0.6940  0.0835
  532MOL0     H70166   2.881   8.778   0.726  0.0853 -3.0923  0.0479
  532MOL0     H70167   3.161   8.750   0.869  0.5184  2.5863  0.2761
  532MOL0     H70168   3.019   8.820   0.937 -0.7244  1.8821 -2.2853
  532MOL0     H70169   3.046   8.539   0.823  2.4217 -1.5321  1.1200
  532MOL0     H70170   2.897   8.601   0.896 -0.9149  1.2365 -0.1316
  532MOL0     H70171   3.042   8.640   1.120  3.5988  1.7088  0.1005
  532MOL0     H70172   3.152   8.529   1.042 -0.5636 -1.7093 -0.0745
  532MOL0     H70173   2.865   8.448   1.090 -0.6284  0.6509 -1.0723
  532MOL0     H70174   2.973   8.352   0.991  0.9731 -0.0486  0.2553
  532MOL0     H70175   2.926   8.280   1.210  0.2415  0.0710 -1.2459
  532MOL0     H70176   3.006   8.421   1.288 -1.0665 -0.6276  1.3186
  532MOL0     H70177   3.265   8.417   1.326  0.2091 -1.0830  0.4632
  532MOL0     H70178   3.527   8.139   1.320  1.8362  0.0922  1.3043
  532MOL0     H70179   3.476   8.295   1.380 -2.4007 -0.2156 -0.9374
  532MOL0     H70180   3.567   8.409   1.195  2.9471  1.0870  0.0652
  532MOL0     H70181   3.598   8.254   1.109 -0.3328  2.2816 -0.2149
  532MOL0     H70182   3.783   8.376   1.265  2.0986 -0.6663  0.8616
  532MOL0     H70183   3.703   8.293   1.390  0.0069 -3.1010  0.4343
  532MOL0     H70184   3.802   8.151   1.142  2.1767 -1.3477  0.2608
  532MOL0     H70185   3.736   8.064   1.278  0.7542  0.0430 -1.5908
  532MOL0     H70186   4.171   8.239   1.302 -0.8133 -0.4049  0.4648
  532MOL0     H70187   4.364   8.116   1.258 -0.5989  2.5602  2.3795
  532MOL0     H70188   4.718   8.002   1.309 -0.9546  0.8272 -1.5477
  532MOL0     H70189   4.931   7.928   1.286  0.0173  0.7514 -0.9616
  532MOL0     H70190   5.138   7.675   1.308 -0.8910 -1.6989 -0.8080
  532MOL0     H70191   5.129   7.837   1.233 -2.2279 -0.2942  1.9510
  532MOL0     H70192   5.233   7.700   1.030  0.0210 -0.6948 -1.0379
  532MOL0     H70193   5.241   7.571   1.154  0.8577  0.0521  0.0220
  532MOL0     H70194   5.435   7.656   1.242  2.8913  0.9934 -0.6192
  532MOL0     H70195   5.365   7.822   1.217 -1.8506 -1.2812  0.7015
  532MOL0     H70196   5.513   7.637   1.002  2.0469 -0.1918  0.1161
  532MOL0     H70197   5.423   7.783   0.962 -0.2057 -0.2890  0.8781
  532MOL0     H70198   5.677   7.767   1.109  1.6641  1.5414  1.2616
  532MOL0     H70199   5.568   7.905   1.138 -0.1631 -0.9336 -0.0997
  532MOL0     H70200   5.574   7.975   0.923 -0.7757  0.0965  1.1673
  532MOL0     H70201   5.635   7.823   0.863 -1.3628  0.5941 -0.6755
  532MOL0     H70202   5.769   8.013   1.058 -1.4829 -1.5968  1.1245
  532MOL0     H70203   5.857   7.872   0.986  1.7225  0.8273 -1.9711
  532MOL0     H70204   5.848   7.961   0.750 -1.8267 -0.2487 -0.0539
  532MOL0     H70205   5.930   8.061   0.858  1.4197 -2.4190 -2.8258
  532MOL0     H70206   4.797   7.596   1.037  1.4725  0.8619 -1.1297
  532MOL0     H70207   4.566   7.680   1.050 -0.2227 -0.4794  1.1084
  532MOL0     H70208   4.126   7.770   1.216  1.1351  0.5541  0.1903
  532MOL0     H70209   3.917   7.909   1.244  0.0325  1.6025 -0.4389
  532MOL0     H70210   3.412   9.073   0.617  1.4115  0.5641 -0.5780
  532MOL0     H70211   3.660   9.076   0.632 -0.3781  0.0181  1.1631
  532MOL0     H70212   4.147   9.126   0.674 -1.3893  0.0942 -3.3969
  532MOL0     H70213   4.376   9.046   0.735  1.3082 -1.3715  1.0916
  532MOL0     H70214   4.562   8.954   0.738  0.8428  0.5923  1.1595
  532MOL0     H70215   4.628   8.798   0.796 -0.5575 -1.9868  3.5161
  532MOL0     H70216   4.485   9.017   0.959 -0.3968 -0.6126  0.7094
  532MOL0     H70217   4.530   8.867   1.035  2.2099  0.5510  2.1403
  532MOL0     H70218   4.732   9.027   0.883  1.0124 -0.9901 -0.7857
  532MOL0     H70219   4.765   8.895   0.982 -0.4511 -0.7999 -1.7882
  532MOL0     H70220   4.642   9.173   1.053 -1.5741  0.5697  2.4771
  532MOL0     H70221   4.645   9.042   1.173  3.3210 -1.8915 -0.0809
  532MOL0     H70222   5.041   9.141   1.209  0.4627 -0.9968 -0.5378
  532MOL0     H70223   4.238   8.651   0.734 -1.2045  0.3452  0.9056
  532MOL0     H70224   4.002   8.728   0.675 -1.6537  1.1179  1.9305
  533MOL0     O70225   0.912   1.856   0.491  1.1308 -0.0408 -0.3489
  533MOL0     C70226   0.926   1.924   0.385  0.8716  0.8881 -0.9276
  533MOL0     O70227   0.844   1.935   0.287 -0.5039 -0.0107 -0.1318
  533MOL0     C70228   0.732   1.858   0.305  0.1458  0.5574 -0.1174
  533MOL0     C70229   0.735   1.716   0.323  0.5504  0.8084  0.1114
  533MOL0     C70230   0.614   1.638   0.315 -0.1932 -0.1766  0.5975
  533MOL0     C70231   0.493   1.712   0.303 -0.1232 -0.0671 -0.5236
  533MOL0     O70232   0.378   1.643   0.297  0.0542  0.3636  0.1703
  533MOL0     C70233   0.268   1.678   0.391  0.1566  0.7689 -0.6644
  533MOL0     C70234   0.269   1.565   0.499 -0.3338 -0.2769 -0.5626
  533MOL0     C70235   0.393   1.567   0.598  0.5571 -0.4090 -0.7673
  533MOL0     C70236   0.376   1.500   0.740 -0.9597  0.0993 -0.0986
  533MOL0     C70237   0.511   1.508   0.821  0.2615 -0.2980  1.2964
  533MOL0     C70238   0.570   1.653   0.829 -0.3936  0.3296  0.2744
  533MOL0     C70239   0.480   1.738   0.907  0.2812 -0.8254 -0.5022
  533MOL0     C70240   0.524   1.882   0.893 -0.3828  0.1011  0.9664
  533MOL0     N70241   0.664   1.906   0.901 -1.2530  0.6152  0.3497
  533MOL0     C70242   0.749   1.943   0.803  0.4311 -0.1614  0.2401
  533MOL0     C70243   0.868   1.960   0.865  1.1456 -0.0652  0.7087
  533MOL0     C70244   0.998   1.998   0.800  0.2765 -0.0360  0.5789
  533MOL0     C70245   1.068   2.107   0.888 -0.0060  0.1568 -0.0087
  533MOL0     C70246   1.209   2.126   0.836  0.5166 -0.1460  0.3769
  533MOL0     C70247   1.273   2.261   0.878  0.9852  1.1688 -0.8331
  533MOL0     O70248   1.265   2.272   1.021 -0.1885  0.4155 -0.2234
  533MOL0     C70249   1.347   2.359   1.091  0.3416 -0.2554  0.1183
  533MOL0     C70250   1.441   2.439   1.024 -0.0205 -0.4900  0.0685
  533MOL0     C70251   1.525   2.531   1.092  0.5489 -0.0877  0.4894
  533MOL0     C70252   1.512   2.538   1.229 -0.7233 -0.2044  0.2665
  533MOL0     C70253   1.590   2.632   1.306 -0.9507 -0.3050  1.3659
  533MOL0     O70254   1.586   2.624   1.445  0.1641  0.0769  0.3806
  533MOL0     C70255   1.619   2.741   1.512 -0.2308 -0.7435 -0.2180
  533MOL0     C70256   1.518   2.806   1.594  0.2522 -0.3372  0.7177
  533MOL0     C70257   1.545   2.926   1.665 -0.0499 -0.6567  0.2431
  533MOL0     C70258   1.675   2.970   1.667 -0.1734 -0.0144 -0.0185
  533MOL0     O70259   1.697   3.093   1.733  0.8786 -0.1982 -0.0631
  533MOL0     C70260   1.813   3.169   1.703 -0.6351 -0.3115  0.0008
  533MOL0     C70261   1.799   3.305   1.763  0.2032 -0.4940  0.2012
  533MOL0     C70262   1.782   3.311   1.917  0.5886  0.1690 -1.0661
  533MOL0     C70263   1.641   3.282   1.977  0.0553 -0.1643 -0.4144
  533MOL0     C70264   1.618   3.365   2.106 -0.3698 -0.4001 -0.0666
  533MOL0     C70265   1.714   3.312   2.213 -0.0563  0.7745  0.2581
  533MOL0     C70266   1.686   3.351   2.347  0.0682 -0.1070 -0.6170
  533MOL0     C70267   1.777   3.290   2.454 -0.7661 -0.4267 -0.1431
  533MOL0    Cl70268   1.716   3.310   2.622 -0.6673  0.2521  0.4834
  533MOL0     C70269   1.776   2.900   1.595  0.3477 -0.5019  0.0130
  533MOL0     C70270   1.753   2.783   1.523  0.0634 -0.4514  0.1192
  533MOL0     O70271   1.653   2.718   1.241 -0.3429 -0.1057  0.6126
  533MOL0     C70272   1.422   2.460   1.301  0.1445 -0.2400  0.9169
  533MOL0     C70273   1.342   2.367   1.232  0.4685 -0.4202 -0.0410
  533MOL0     N70274   0.852   1.933   1.000  0.0409 -0.9604  0.3060
  533MOL0     N70275   0.727   1.902   1.019 -0.4415  0.7448  0.2955
  533MOL0     C70276   0.492   1.855   0.286 -0.0935  0.3913 -0.3316
  533MOL0     C70277   0.614   1.924   0.285 -0.1934 -0.6937 -0.3002
  533MOL0     C70278   1.050   2.007   0.377 -0.1361 -0.0525 -0.3886
  533MOL0     C70279   1.147   2.005   0.475 -0.9300  0.6609  0.4067
  533MOL0     C70280   1.263   2.074   0.454 -1.1189 -0.1649 -0.1409
  533MOL0     C70281   1.284   2.160   0.342  0.1957 -0.0136 -0.2227
  533MOL0     O70282   1.407   2.228   0.331 -0.2991  0.2956  0.8471
  533MOL0     C70283   1.455   2.298   0.213 -0.7544 -0.5103 -0.9269
  533MOL0     C70284   1.507   2.217   0.111  0.2748 -0.0344  0.5451
  533MOL0     C70285   1.630   2.134   0.158 -0.4818 -0.0440 -0.2319
  533MOL0     C70286   1.768   2.198   0.126 -0.5489 -0.5718 -0.1566
  533MOL0     C70287   1.865   2.142   0.213  0.0191  0.6446  0.7136
  533MOL0     C70288   1.939   2.110   0.303 -0.0938  0.3587  0.7905
  533MOL0     C70289   1.176   2.163   0.253 -0.6943 -0.0098  0.6284
  533MOL0     C70290   1.063   2.090   0.268  0.2264 -0.7530 -0.1035
  533MOL0     H70291   0.819   1.647   0.331 -2.0064 -2.5223  0.3954
  533MOL0     H70292   0.626   1.531   0.329  3.9886 -0.4244 -2.8058
  533MOL0     H70293   0.176   1.686   0.331  0.2958 -0.5571 -1.0811
  533MOL0     H70294   0.281   1.775   0.441 -2.1866  1.4800 -1.2899
  533MOL0     H70295   0.265   1.471   0.444 -1.8279 -0.8508  0.4714
  533MOL0     H70296   0.176   1.579   0.555 -0.5286 -3.3041  0.0056
  533MOL0     H70297   0.415   1.672   0.619 -0.6152 -0.5227  1.3842
  533MOL0     H70298   0.475   1.508   0.557 -0.9115 -2.9602 -0.2987
  533MOL0     H70299   0.304   1.550   0.806  0.6198  0.4159  1.4778
  533MOL0     H70300   0.339   1.399   0.722 -3.2980  0.2073  3.0766
  533MOL0     H70301   0.579   1.434   0.776  2.5544  3.3175 -1.8235
  533MOL0     H70302   0.487   1.467   0.920 -2.4673 -3.2520 -0.3835
  533MOL0     H70303   0.588   1.694   0.729  0.3885 -0.9551 -0.1452
  533MOL0     H70304   0.666   1.650   0.883  0.5050 -0.8497 -1.2920
  533MOL0     H70305   0.373   1.723   0.895 -0.2414  1.1427  1.0998
  533MOL0     H70306   0.489   1.720   1.015 -3.0152  5.4715  1.3064
  533MOL0     H70307   0.477   1.943   0.970 -3.3168 -0.9046  0.0952
  533MOL0     H70308   0.488   1.928   0.800 -1.0608  0.8012  1.5608
  533MOL0     H70309   0.719   1.947   0.698 -3.4751  0.2814  1.2251
  533MOL0     H70310   0.982   2.035   0.699 -0.6509  0.2501  0.8141
  533MOL0     H70311   1.057   1.909   0.779  0.5299  0.1253  0.6081
  533MOL0     H70312   1.087   2.082   0.992 -0.1187 -0.5444 -0.1524
  533MOL0     H70313   1.003   2.194   0.884 -0.3530 -0.1093 -0.2064
  533MOL0     H70314   1.271   2.046   0.877 -2.1033 -0.8969  3.2972
  533MOL0     H70315   1.206   2.129   0.726  0.7077  1.1691  0.3851
  533MOL0     H70316   1.230   2.346   0.825  0.7763 -0.6746 -3.8478
  533MOL0     H70317   1.375   2.244   0.841 -0.1959 -2.8772 -2.8049
  533MOL0     H70318   1.455   2.444   0.916  0.3945 -2.2815  0.0175
  533MOL0     H70319   1.602   2.587   1.039 -2.2195  1.9767 -1.6716
  533MOL0     H70320   1.420   2.760   1.596  0.4840 -1.0212 -1.4024
  533MOL0     H70321   1.471   2.990   1.712  1.3251  0.5662  0.7931
  533MOL0     H70322   1.818   3.192   1.596  2.2234 -0.3536  0.0465
  533MOL0     H70323   1.896   3.117   1.752 -0.6066  0.4150  0.7341
  533MOL0     H70324   1.707   3.346   1.720 -0.1566 -1.3567  0.1219
  533MOL0     H70325   1.891   3.355   1.732  0.4308 -1.0232  0.0012
  533MOL0     H70326   1.819   3.406   1.958 -1.1956 -0.1550  1.5074
  533MOL0     H70327   1.842   3.243   1.978 -1.2073 -1.0882 -0.6306
  533MOL0     H70328   1.565   3.297   1.900 -0.1240  0.6223 -0.0890
  533MOL0     H70329   1.623   3.175   1.992 -1.9205  0.5135  2.8314
  533MOL0     H70330   1.511   3.372   2.130 -0.6919  2.6621 -1.8727
  533MOL0     H70331   1.646   3.470   2.095  0.5077 -0.4262  1.6274
  533MOL0     H70332   1.819   3.339   2.199  0.1533  0.3239  0.8886
  533MOL0     H70333   1.701   3.204   2.202  2.1976  0.7315 -4.5372
  533MOL0     H70334   1.680   3.460   2.347  4.1827  0.3151 -2.4864
  533MOL0     H70335   1.585   3.314   2.366  0.2614 -1.9472 -2.7982
  533MOL0     H70336   1.878   3.330   2.445 -0.5648 -0.8797  0.0594
  533MOL0     H70337   1.793   3.185   2.429  0.8497  0.1293 -1.6528
  533MOL0     H70338   1.880   2.932   1.599 -0.1201  1.0767  0.0275
  533MOL0     H70339   1.840   2.744   1.472 -0.6878 -3.2347  0.8094
  533MOL0     H70340   1.422   2.464   1.409  0.7166  0.5996  0.9015
  533MOL0     H70341   1.271   2.302   1.281 -0.2339 -0.7833 -1.4941
  533MOL0     H70342   0.401   1.909   0.261 -2.2850 -1.9657  1.9287
  533MOL0     H70343   0.617   2.031   0.268  1.3460 -0.8704 -1.3879
  533MOL0     H70344   1.135   1.944   0.564 -1.0813 -0.3869 -0.3044
  533MOL0     H70345   1.338   2.054   0.530 -0.4152 -0.6610 -0.9498
  533MOL0     H70346   1.529   2.367   0.257  1.5392 -2.6157 -1.2708
  533MOL0     H70347   1.371   2.353   0.170 -0.6773  0.2284 -0.1708
  533MOL0     H70348   1.431   2.140   0.096  1.9285 -1.9649  1.6333
  533MOL0     H70349   1.526   2.280   0.023  1.0052  0.0382  0.7544
  533MOL0     H70350   1.628   2.036   0.107  2.3236 -1.7931  2.6439
  533MOL0     H70351   1.615   2.117   0.265 -1.2989  2.9903  0.2223
  533MOL0     H70352   1.806   2.173   0.026 -3.0786 -2.3231 -0.7534
  533MOL0     H70353   1.752   2.307   0.130  1.6694 -0.1577 -0.8548
  533MOL0     H70354   1.993   2.093   0.393  1.4267  0.0504 -0.1426
  533MOL0     H70355   1.168   2.226   0.165 -1.4152 -1.2365 -0.2206
  533MOL0     H70356   0.983   2.092   0.195 -1.1333 -1.7539  1.2912
  534MOL0     O70357  10.463  10.239   8.905  0.2416  0.0702  0.1926
  534MOL0     C70358  10.432  10.314   8.814  0.0138  0.9121 -0.3159
  534MOL0     O70359  10.316  10.314   8.746  0.1110 -0.8965  0.9738
  534MOL0     C70360  10.208  10.235   8.782 -0.6484 -0.5481  1.0244
  534MOL0     C70361  10.123  10.195   8.678 -0.3480  0.4288 -0.3787
  534MOL0     C70362  10.000  10.143   8.698  0.5887 -0.6658  0.0542
  534MOL0     C70363   9.947  10.119   8.826  0.3493 -0.0019  0.0899
  534MOL0     O70364   9.810  10.093   8.846  0.0558  0.1542  0.4068
  534MOL0     C70365   9.755   9.996   8.756 -0.4603 -0.3577 -0.3564
  534MOL0     C70366   9.609   9.981   8.806  0.3475  0.1935  0.1197
  534MOL0     C70367   9.537  10.118   8.804 -0.3157 -1.1284  0.2295
  534MOL0     C70368   9.408  10.096   8.884  0.0420  1.1153  0.6385
  534MOL0     C70369   9.337  10.219   8.930 -0.4671  0.5222  0.0927
  534MOL0     C70370   9.226  10.190   9.029  0.3150  0.2614 -0.1470
  534MOL0     C70371   9.151  10.309   9.074 -0.1489 -0.0243  0.9651
  534MOL0     C70372   9.046  10.278   9.182 -0.0071 -0.9954 -0.0171
  534MOL0     N70373   8.922  10.213   9.134  0.4298 -0.0856  0.3516
  534MOL0     C70374   8.906  10.079   9.145  0.4443  0.4513 -0.2899
  534MOL0     C70375   8.779  10.048   9.116  0.5351 -0.9990  0.7564
  534MOL0     C70376   8.720   9.914   9.123  0.0392 -0.5927  0.0598
  534MOL0     C70377   8.795   9.797   9.053  0.6965 -0.1671 -0.0294
  534MOL0     C70378   8.755   9.663   9.120  0.8014 -0.3130 -0.0768
  534MOL0     C70379   8.607   9.615   9.111 -0.4720 -0.3366  0.9113
  534MOL0     O70380   8.508   9.704   9.159  0.1877  0.4736 -0.1789
  534MOL0     C70381   8.369   9.670   9.145 -0.4109  0.7362 -0.6536
  534MOL0     C70382   8.325   9.548   9.094  0.6628  0.4240  0.7161
  534MOL0     C70383   8.189   9.523   9.082  0.6217  0.2221 -0.4233
  534MOL0     C70384   8.092   9.624   9.107  0.0488  0.8477 -0.0683
  534MOL0     C70385   7.952   9.597   9.079  0.1097  0.0641 -0.5557
  534MOL0     O70386   7.860   9.690   9.123  0.0288 -1.1697  0.4320
  534MOL0     C70387   7.732   9.647   9.144 -0.2778 -0.0908 -0.2203
  534MOL0     C70388   7.624   9.741   9.113 -0.7187  0.1633  0.2329
  534MOL0     C70389   7.492   9.704   9.146 -0.0102 -0.6404 -0.6284
  534MOL0     C70390   7.463   9.587   9.208 -1.3044  0.5913 -0.1139
  534MOL0     O70391   7.338   9.548   9.240  0.1069  0.4328 -0.0089
  534MOL0     C70392   7.239   9.541   9.134 -0.5453  0.3514 -0.3787
  534MOL0     C70393   7.120   9.470   9.205 -0.4799 -1.0801  0.2708
  534MOL0     C70394   6.994   9.459   9.119  0.4929 -0.3080  0.0260
  534MOL0     C70395   6.876   9.403   9.187 -0.1566 -0.3001 -0.5520
  534MOL0     C70396   6.746   9.381   9.107 -0.5209 -0.2039  0.1123
  534MOL0     C70397   6.649   9.312   9.198  0.1414  0.7050 -0.2285
  534MOL0     C70398   6.500   9.338   9.141  0.5632 -0.3005  0.6168
  534MOL0     C70399   6.430   9.459   9.209 -0.3475 -0.4807 -0.4125
  534MOL0    Cl70400   6.278   9.487   9.124 -0.2510 -0.3430  0.2635
  534MOL0     C70401   7.570   9.494   9.240 -0.8505  0.1117 -0.5320
  534MOL0     C70402   7.705   9.527   9.215  0.0112 -0.0997  0.7120
  534MOL0     O70403   7.928   9.487   9.034  0.0593 -0.3201 -0.5169
  534MOL0     C70404   8.137   9.754   9.149 -1.2499 -0.2464  0.2800
  534MOL0     C70405   8.276   9.769   9.168  0.3827 -0.2413 -0.0311
  534MOL0     N70406   8.727  10.171   9.066  0.0959  0.3510 -0.2008
  534MOL0     N70407   8.807  10.263   9.087  0.1945 -0.0094  0.2889
  534MOL0     C70408  10.035  10.148   8.937 -0.3915  0.6224 -0.1318
  534MOL0     C70409  10.167  10.206   8.913 -0.2998  0.0562  0.4344
  534MOL0     C70410  10.530  10.413   8.771  0.1247  0.8123  0.7361
  534MOL0     C70411  10.656  10.399   8.815  0.3814 -0.5912 -0.5496
  534MOL0     C70412  10.757  10.476   8.768  0.1996 -0.5023 -0.0772
  534MOL0     C70413  10.731  10.563   8.666 -0.9787  0.3236 -0.7856
  534MOL0     O70414  10.840  10.647   8.631  0.4379 -0.3942  0.3860
  534MOL0     C70415  10.809  10.767   8.562 -0.1622 -0.2056 -0.8180
  534MOL0     C70416  10.944  10.832   8.520  0.7395  0.0465  0.7326
  534MOL0     C70417  11.035  10.731   8.432  0.4098 -0.4924 -0.3228
  534MOL0     C70418  10.988  10.690   8.293 -0.2566  0.6595 -0.1219
  534MOL0     C70419  11.013  10.799   8.196 -0.1094 -0.5389  1.1396
  534MOL0     C70420  11.021  10.883   8.105 -0.6145  0.0639 -0.9812
  534MOL0     C70421  10.602  10.580   8.608  0.3599 -0.6379  0.7621
  534MOL0     C70422  10.502  10.501   8.667 -0.5769  0.5907 -0.3293
  534MOL0     H70423  10.153  10.204   8.574  0.5763  3.4528  0.0515
  534MOL0     H70424   9.942  10.109   8.613  1.0330  1.1222 -1.0209
  534MOL0     H70425   9.803   9.898   8.754 -2.0150 -1.1728  0.6169
  534MOL0     H70426   9.744  10.025   8.651 -3.3303  0.0104 -0.0403
  534MOL0     H70427   9.618   9.934   8.904  0.7313  2.3843  1.2052
  534MOL0     H70428   9.561   9.907   8.742 -0.1687 -0.1835  0.9274
  534MOL0     H70429   9.510  10.138   8.699  2.0667  1.0560 -0.0520
  534MOL0     H70430   9.597  10.202   8.840 -0.0838 -2.4616  3.1995
  534MOL0     H70431   9.331  10.040   8.831 -0.3731  2.3292 -0.0866
  534MOL0     H70432   9.433  10.036   8.972 -0.5986  1.7158  1.2407
  534MOL0     H70433   9.312  10.275   8.839  0.3749  1.0916  0.2022
  534MOL0     H70434   9.404  10.287   8.982  1.7327  0.6440 -2.6469
  534MOL0     H70435   9.265  10.130   9.112  3.1125  0.2991 -1.3252
  534MOL0     H70436   9.152  10.127   8.979  0.0912 -2.6893  3.4774
  534MOL0     H70437   9.227  10.373   9.120  0.6128 -1.1787  1.3778
  534MOL0     H70438   9.107  10.345   8.981 -0.2194 -0.3602  0.8673
  534MOL0     H70439   9.013  10.368   9.234 -2.0574 -1.2462 -0.8111
  534MOL0     H70440   9.096  10.211   9.253 -0.9148 -1.9039 -0.2065
  534MOL0     H70441   8.985  10.012   9.177  1.0597  1.2142 -0.1810
  534MOL0     H70442   8.619   9.927   9.082  0.9234  2.4688 -1.4532
  534MOL0     H70443   8.723   9.894   9.230  2.3090 -0.7742 -0.0031
  534MOL0     H70444   8.901   9.823   9.063  0.5533  0.0474  1.1403
  534MOL0     H70445   8.758   9.794   8.950 -0.3243  1.4146  0.2494
  534MOL0     H70446   8.822   9.582   9.090  0.7845  0.1011 -1.2788
  534MOL0     H70447   8.777   9.678   9.227 -2.8653 -0.0257  0.7636
  534MOL0     H70448   8.601   9.522   9.168 -2.9868  2.2000  5.3797
  534MOL0     H70449   8.586   9.598   9.005  2.2767 -1.1192  0.3934
  534MOL0     H70450   8.388   9.463   9.072  0.9672  1.0107 -0.7472
  534MOL0     H70451   8.161   9.422   9.057 -1.6985  1.2325 -2.3013
  534MOL0     H70452   7.646   9.825   9.048  2.3403 -1.7929 -1.4994
  534MOL0     H70453   7.411   9.773   9.126  3.4266  2.8931 -4.3048
  534MOL0     H70454   7.269   9.487   9.044  1.9483 -2.3381  1.8475
  534MOL0     H70455   7.206   9.644   9.120 -2.0958 -0.1690 -0.7976
  534MOL0     H70456   7.094   9.533   9.291  1.2670 -0.9468  0.7529
  534MOL0     H70457   7.146   9.369   9.239 -0.2820 -1.4162 -0.8298
  534MOL0     H70458   7.010   9.404   9.026  0.1056  0.6146 -0.6127
  534MOL0     H70459   6.974   9.562   9.086 -0.4540  0.3200  2.3654
  534MOL0     H70460   6.898   9.300   9.215 -0.7927  0.3651  2.8174
  534MOL0     H70461   6.860   9.456   9.281  0.5254 -1.1468  0.0609
  534MOL0     H70462   6.774   9.314   9.025  0.4994 -0.1894  0.4422
  534MOL0     H70463   6.708   9.472   9.059 -0.1425 -0.8225 -1.4112
  534MOL0     H70464   6.646   9.360   9.296  0.0289  1.5788 -0.6517
  534MOL0     H70465   6.678   9.207   9.207  2.7385  1.2790 -1.2265
  534MOL0     H70466   6.510   9.353   9.033 -1.5581 -0.9878  0.2786
  534MOL0     H70467   6.441   9.249   9.166 -0.8719  1.0254  2.1383
  534MOL0     H70468   6.490   9.551   9.206 -2.1134  0.7050 -0.6058
  534MOL0     H70469   6.408   9.438   9.314  2.6942  2.1783  0.9359
  534MOL0     H70470   7.544   9.406   9.297 -1.9548 -0.0354 -1.2252
  534MOL0     H70471   7.783   9.461   9.249 -1.1171 -0.3520  2.9720
  534MOL0     H70472   8.059   9.829   9.163 -1.1915  0.2235 -1.6392
  534MOL0     H70473   8.320   9.864   9.197  2.0055 -1.0124  0.2060
  534MOL0     H70474  10.003  10.124   9.037 -1.4026  0.1387 -0.5585
  534MOL0     H70475  10.218  10.239   9.003 -0.8610  0.4981  0.5902
  534MOL0     H70476  10.676  10.337   8.902 -3.4072 -2.6021 -0.8906
  534MOL0     H70477  10.848  10.473   8.826  0.6712  1.5454 -0.6247
  534MOL0     H70478  10.756  10.831   8.634  0.0314 -2.0704  1.0624
  534MOL0     H70479  10.734  10.755   8.484 -0.5915  0.1731 -0.4745
  534MOL0     H70480  10.927  10.925   8.466  1.8073  1.1800  2.2810
  534MOL0     H70481  11.007  10.864   8.604 -0.6016  1.0678  1.3819
  534MOL0     H70482  11.042  10.641   8.494 -2.0833 -1.9858 -2.0508
  534MOL0     H70483  11.136  10.772   8.424  0.5718 -0.9459 -0.5605
  534MOL0     H70484  11.051  10.604   8.267 -1.1853 -0.1331  0.1764
  534MOL0     H70485  10.884  10.655   8.300  0.8148 -2.7740  0.7187
  534MOL0     H70486  11.027  10.952   8.023 -3.0193 -1.3538 -2.4751
  534MOL0     H70487  10.584  10.639   8.519  0.8882 -1.6087  0.0011
  534MOL0     H70488  10.400  10.510   8.632  0.2195 -2.0460 -3.9793
  535MOL0     O70489   8.349   1.089   4.190 -0.3382  0.0456 -0.1203
  535MOL0     C70490   8.380   1.093   4.307  0.5031  0.1389  0.2113
  535MOL0     O70491   8.501   1.120   4.350 -0.0816  0.0364 -0.8562
  535MOL0     C70492   8.603   1.158   4.262 -0.1539 -0.0219 -0.7889
  535MOL0     C70493   8.655   1.286   4.275 -0.9481 -0.0163  0.2013
  535MOL0     C70494   8.766   1.318   4.197 -0.2595  0.2523  0.4752
  535MOL0     C70495   8.824   1.230   4.106  0.6265  0.3300  0.3256
  535MOL0     O70496   8.929   1.287   4.027 -0.8221 -0.3390  0.3606
  535MOL0     C70497   8.938   1.223   3.898 -1.1388 -0.5725  0.3656
  535MOL0     C70498   9.032   1.302   3.809  0.3569 -0.2570  0.9974
  535MOL0     C70499   9.177   1.270   3.835  0.8459 -0.3690  0.5652
  535MOL0     C70500   9.229   1.132   3.825 -0.2039 -0.3116  0.1231
  535MOL0     C70501   9.366   1.112   3.900 -0.1004  0.0315 -0.1307
  535MOL0     C70502   9.333   1.053   4.040  0.4343  0.7390  0.9378
  535MOL0     C70503   9.247   1.133   4.131 -0.0884 -0.5607  0.1983
  535MOL0     C70504   9.312   1.269   4.186  0.5654 -0.0611  0.9233
  535MOL0     N70505   9.230   1.330   4.294 -0.2306 -0.4086  0.4380
  535MOL0     C70506   9.122   1.411   4.273  0.1094 -0.2428 -0.1934
  535MOL0     C70507   9.107   1.483   4.381  0.3889 -0.0550  0.0918
  535MOL0     C70508   9.002   1.589   4.392  0.6765  0.6908  0.1187
  535MOL0     C70509   9.062   1.714   4.454 -0.2595  0.5050 -0.2314
  535MOL0     C70510   8.970   1.836   4.438  0.9847 -0.1756 -1.0609
  535MOL0     C70511   8.866   1.847   4.548 -0.0543  0.0450 -0.4298
  535MOL0     O70512   8.783   1.958   4.538 -0.6623  0.2855  0.0022
  535MOL0     C70513   8.663   1.955   4.472  0.3846  0.0764  0.1601
  535MOL0     C70514   8.576   2.067   4.474  0.1960  0.7157 -0.2181
  535MOL0     C70515   8.444   2.054   4.424  0.2341  0.4101  0.0463
  535MOL0     C70516   8.403   1.931   4.370 -0.2529  0.7093 -0.2614
  535MOL0     C70517   8.255   1.925   4.336 -0.0372 -0.2481  0.6234
  535MOL0     O70518   8.182   2.045   4.324 -0.0750 -0.3990 -0.1364
  535MOL0     C70519   8.053   2.032   4.284 -0.3947 -0.7458  0.5564
  535MOL0     C70520   7.946   2.069   4.359  0.2523 -0.4777  0.5165
  535MOL0     C70521   7.812   2.070   4.316 -0.3324 -0.2038 -0.6954
  535MOL0     C70522   7.783   2.019   4.184 -0.3177  0.0847 -0.2574
  535MOL0     O70523   7.666   2.033   4.118 -0.7245 -0.6020  0.2953
  535MOL0     C70524   7.555   2.011   4.194 -0.0931 -0.1486 -0.5679
  535MOL0     C70525   7.421   2.067   4.112 -0.2861  0.3880 -0.4977
  535MOL0     C70526   7.420   2.207   4.046  0.5168 -0.4788 -0.9606
  535MOL0     C70527   7.278   2.240   4.011 -0.6080 -0.2136 -0.1702
  535MOL0     C70528   7.269   2.363   3.912 -0.3853 -1.0968 -0.2350
  535MOL0     C70529   7.353   2.356   3.786 -0.6833  0.0807  0.6542
  535MOL0     C70530   7.303   2.436   3.662 -0.3241 -0.0901  1.1105
  535MOL0     C70531   7.286   2.587   3.674  0.8814  0.8059  0.4471
  535MOL0    Cl70532   7.444   2.658   3.711  0.4604 -0.0105 -0.3254
  535MOL0     C70533   7.893   1.968   4.109 -0.3632 -0.1371 -0.3634
  535MOL0     C70534   8.025   1.981   4.159  0.0045  0.0084 -0.2675
  535MOL0     O70535   8.201   1.814   4.321  0.1993  0.4782  0.2345
  535MOL0     C70536   8.490   1.824   4.361  0.7209  1.2626 -0.7427
  535MOL0     C70537   8.619   1.837   4.413  0.4597 -0.4332 -0.1325
  535MOL0     N70538   9.219   1.464   4.467 -0.3278  0.7287 -0.4614
  535MOL0     N70539   9.297   1.368   4.411  0.4170 -0.0062  0.4512
  535MOL0     C70540   8.767   1.104   4.093 -0.5699  0.1800 -0.3704
  535MOL0     C70541   8.661   1.069   4.172  0.1364  0.1253 -0.7675
  535MOL0     C70542   8.268   1.071   4.394 -0.1845 -0.1388 -0.2722
  535MOL0     C70543   8.302   1.054   4.528 -0.7866 -0.2502  0.0155
  535MOL0     C70544   8.202   1.024   4.619  0.5806  0.0055 -1.0616
  535MOL0     C70545   8.067   1.023   4.571 -0.1795 -0.8804 -0.5177
  535MOL0     O70546   7.957   1.010   4.647 -0.1764  0.2095 -0.5425
  535MOL0     C70547   7.961   1.048   4.789 -0.1588  0.4008  1.1075
  535MOL0     C70548   7.836   0.987   4.864 -0.1056  0.7177  0.1840
  535MOL0     C70549   7.845   0.832   4.841 -0.5478 -0.4539 -0.1112
  535MOL0     C70550   7.743   0.752   4.920 -0.1046  0.1309 -0.7856
  535MOL0     C70551   7.602   0.798   4.908 -0.7916 -0.0609  0.6468
  535MOL0     C70552   7.480   0.835   4.905  0.3283  0.3937  0.6930
  535MOL0     C70553   8.029   1.056   4.442 -0.0746 -0.6553 -0.3315
  535MOL0     C70554   8.132   1.082   4.349 -0.1441  0.7262 -0.1268
  535MOL0     H70555   8.621   1.359   4.349  0.4612  3.2162 -2.1074
  535MOL0     H70556   8.805   1.418   4.208 -1.4901  1.0584 -1.8657
  535MOL0     H70557   8.838   1.218   3.854 -0.7869 -2.0171 -0.3619
  535MOL0     H70558   8.967   1.118   3.909  0.2530 -0.6037 -2.5573
  535MOL0     H70559   9.013   1.409   3.816 -3.3314 -0.4847 -1.8661
  535MOL0     H70560   9.013   1.276   3.704  0.1288 -0.7021  1.1459
  535MOL0     H70561   9.192   1.318   3.932 -0.6597 -0.3072  0.7991
  535MOL0     H70562   9.236   1.318   3.757  2.6274 -0.0757  2.0365
  535MOL0     H70563   9.158   1.057   3.860  0.3026 -1.1504 -0.6092
  535MOL0     H70564   9.237   1.099   3.721 -2.0252  0.1558 -0.2064
  535MOL0     H70565   9.410   1.209   3.922  0.1429  0.9402 -3.8438
  535MOL0     H70566   9.433   1.045   3.845  1.6534  1.1029  0.6259
  535MOL0     H70567   9.427   1.035   4.093  0.0250 -0.2179  1.3419
  535MOL0     H70568   9.288   0.956   4.020  2.3497  0.0100 -0.0616
  535MOL0     H70569   9.145   1.153   4.096  0.5238  0.7909 -0.9428
  535MOL0     H70570   9.233   1.075   4.222  1.6034 -0.8145  0.3201
  535MOL0     H70571   9.324   1.338   4.102 -2.0025 -0.3396  0.2253
  535MOL0     H70572   9.406   1.228   4.224  1.6427 -1.1419 -2.5359
  535MOL0     H70573   9.062   1.415   4.182  1.1392 -0.8140 -0.9195
  535MOL0     H70574   8.916   1.557   4.452  0.7439  0.7911  0.2691
  535MOL0     H70575   8.972   1.620   4.292 -0.2309  0.4665  0.3059
  535MOL0     H70576   9.158   1.737   4.407  1.2965  0.9914  2.9536
  535MOL0     H70577   9.091   1.698   4.558  0.8855  1.1393 -0.4278
  535MOL0     H70578   9.035   1.923   4.447 -0.3851  0.6809  2.0922
  535MOL0     H70579   8.917   1.836   4.342  0.7307 -1.6665 -0.9486
  535MOL0     H70580   8.907   1.852   4.649 -1.0865  0.7294 -0.0279
  535MOL0     H70581   8.806   1.756   4.545 -1.0616  0.6503  0.5504
  535MOL0     H70582   8.605   2.165   4.512 -2.3101  0.7602  1.7945
  535MOL0     H70583   8.371   2.133   4.440 -1.4975 -1.4096  1.6383
  535MOL0     H70584   7.953   2.097   4.463 -0.2908 -0.1329  0.4629
  535MOL0     H70585   7.744   2.122   4.382 -1.9655  0.8645 -3.0870
  535MOL0     H70586   7.550   2.055   4.294  0.7442  1.1945 -1.0825
  535MOL0     H70587   7.540   1.904   4.211  1.5815 -0.1957  0.8439
  535MOL0     H70588   7.341   2.067   4.186  1.8274  2.0223  1.9558
  535MOL0     H70589   7.409   1.989   4.035  0.2712  0.3922 -0.5957
  535MOL0     H70590   7.489   2.213   3.961  0.8550  0.7744 -0.6239
  535MOL0     H70591   7.465   2.276   4.118  2.4821 -1.9353 -0.7018
  535MOL0     H70592   7.224   2.158   3.963 -0.8426 -1.6631  2.3792
  535MOL0     H70593   7.232   2.256   4.109  1.0507 -2.7605  1.1375
  535MOL0     H70594   7.293   2.456   3.965  0.4454 -2.2179  1.4395
  535MOL0     H70595   7.166   2.387   3.883  0.5928  3.8136 -0.5572
  535MOL0     H70596   7.357   2.252   3.752 -0.1694  0.1460  0.5079
  535MOL0     H70597   7.457   2.385   3.802 -0.8447  0.3021  1.3440
  535MOL0     H70598   7.361   2.409   3.574 -0.3849 -0.1184  1.0788
  535MOL0     H70599   7.204   2.401   3.632 -1.5110  1.8001  2.5336
  535MOL0     H70600   7.207   2.603   3.749  1.7092  2.4698  0.9995
  535MOL0     H70601   7.246   2.637   3.586  0.9849 -0.4574 -0.3412
  535MOL0     H70602   7.873   1.933   4.008 -0.6427  1.2002 -0.7983
  535MOL0     H70603   8.105   1.943   4.096  1.9331  0.8852  1.5137
  535MOL0     H70604   8.465   1.735   4.304  2.2163  0.5031 -0.2686
  535MOL0     H70605   8.679   1.754   4.378  0.0750 -0.4298 -0.7985
  535MOL0     H70606   8.810   1.034   4.021 -4.1072 -2.3474 -0.2830
  535MOL0     H70607   8.617   0.970   4.167  0.0082 -0.0619  2.2726
  535MOL0     H70608   8.408   1.052   4.550 -0.6205 -2.5941 -0.7387
  535MOL0     H70609   8.247   1.011   4.717  0.0161 -0.3192 -0.8375
  535MOL0     H70610   7.953   1.156   4.806  2.0999  0.3759  2.7188
  535MOL0     H70611   8.052   1.013   4.836  0.9221 -0.0473 -1.1851
  535MOL0     H70612   7.847   1.007   4.970  2.4007 -0.7388  0.2610
  535MOL0     H70613   7.741   1.029   4.827 -0.9122  1.6081  3.0332
  535MOL0     H70614   7.945   0.796   4.866 -0.8926 -1.0146  0.4868
  535MOL0     H70615   7.828   0.821   4.733 -1.1295  4.0706 -0.6529
  535MOL0     H70616   7.743   0.645   4.898  1.3925 -0.7311  2.7286
  535MOL0     H70617   7.773   0.760   5.025  0.3976 -0.8467 -0.8443
  535MOL0     H70618   7.375   0.852   4.910 -0.2410 -1.4336 -2.3686
  535MOL0     H70619   7.923   1.069   4.420 -0.5803 -1.8453  1.2022
  535MOL0     H70620   8.108   1.091   4.244 -0.2996  1.1964 -0.0532
  536MOL0     O70621   9.753   4.395   2.911  0.2037 -0.8496  0.3801
  536MOL0     C70622   9.798   4.427   3.022 -0.3205 -0.2101 -0.6663
  536MOL0     O70623   9.744   4.391   3.136 -0.5491 -0.3011 -1.0437
  536MOL0     C70624   9.638   4.308   3.130  0.3180 -0.5520  0.0028
  536MOL0     C70625   9.510   4.355   3.158 -0.5268 -0.3867  0.8619
  536MOL0     C70626   9.396   4.282   3.147 -0.7219  1.3169  0.2391
  536MOL0     C70627   9.406   4.147   3.097  0.6457 -0.2924 -0.2490
  536MOL0     O70628   9.288   4.090   3.076  0.5741  0.4465 -0.0717
  536MOL0     C70629   9.273   3.966   3.012 -0.5510  0.8650  0.4735
  536MOL0     C70630   9.142   3.952   2.940  0.3417 -0.1121 -0.5679
  536MOL0     C70631   9.139   3.826   2.833 -0.6207 -0.0588 -0.0328
  536MOL0     C70632   9.164   3.685   2.902  0.7403  1.1144 -0.0872
  536MOL0     C70633   9.128   3.572   2.809 -0.6431  0.2016  0.2905
  536MOL0     C70634   9.116   3.440   2.872  0.4919  0.3443 -0.3298
  536MOL0     C70635   9.089   3.314   2.783 -1.0330 -0.5328  0.4108
  536MOL0     C70636   8.976   3.328   2.677 -1.0504  0.5047 -0.0344
  536MOL0     N70637   8.852   3.257   2.707  0.3254  0.0738 -0.4790
  536MOL0     C70638   8.792   3.169   2.626  0.3010 -0.0563 -0.6870
  536MOL0     C70639   8.695   3.110   2.700  0.7461 -0.2098 -0.1330
  536MOL0     C70640   8.611   2.994   2.659  0.3940  0.6329 -0.1064
  536MOL0     C70641   8.480   2.988   2.738  0.3118  0.8713  1.0173
  536MOL0     C70642   8.373   3.086   2.689 -0.5158  0.2129 -0.0027
  536MOL0     C70643   8.245   3.056   2.778 -0.7124 -0.2591 -0.0306
  536MOL0     O70644   8.186   2.927   2.748 -0.7202  0.8730  0.0591
  536MOL0     C70645   8.082   2.869   2.819  0.9796 -0.1548 -0.1842
  536MOL0     C70646   8.046   2.735   2.784 -0.2456  0.8649 -0.0881
  536MOL0     C70647   7.944   2.674   2.868 -0.2366  0.2015 -0.5789
  536MOL0     C70648   7.882   2.748   2.970  0.1685  0.8719 -0.4838
  536MOL0     C70649   7.784   2.686   3.055 -0.1221 -0.0059  0.6341
  536MOL0     O70650   7.705   2.586   3.006 -0.5915 -0.0806 -0.3345
  536MOL0     C70651   7.625   2.513   3.084  0.3432 -1.5731  0.3135
  536MOL0     C70652   7.501   2.485   3.026 -0.0800  0.2356  0.0328
  536MOL0     C70653   7.414   2.392   3.083 -0.0592  0.5713  0.5621
  536MOL0     C70654   7.457   2.326   3.203  0.0813 -0.3277  0.5913
  536MOL0     O70655   7.387   2.229   3.268 -0.6689  0.1701  0.3708
  536MOL0     C70656   7.331   2.118   3.184  0.0454  0.2745 -0.2185
  536MOL0     C70657   7.284   2.008   3.278 -0.1717  0.6694  0.0103
  536MOL0     C70658   7.143   2.028   3.343  0.1726 -0.6104 -0.5846
  536MOL0     C70659   7.033   2.096   3.257  0.2890 -0.1625 -0.2633
  536MOL0     C70660   6.981   2.004   3.149  0.5324  0.6844  0.3396
  536MOL0     C70661   6.879   2.060   3.057  0.8127 -0.4538  0.1773
  536MOL0     C70662   6.919   2.079   2.915 -0.0737 -0.9148  0.0941
  536MOL0     C70663   6.811   2.165   2.848 -0.1830 -0.1777 -0.4999
  536MOL0    Cl70664   6.840   2.150   2.676  0.4009  0.5081  0.3952
  536MOL0     C70665   7.572   2.361   3.265 -0.2232  0.2657  0.8601
  536MOL0     C70666   7.655   2.454   3.209 -0.8020 -0.8212 -1.2658
  536MOL0     O70667   7.775   2.729   3.171  0.1096  0.0472  0.2142
  536MOL0     C70668   7.926   2.877   2.997  0.2544  0.3016 -0.0346
  536MOL0     C70669   8.027   2.937   2.924 -0.7043 -0.1059 -0.6899
  536MOL0     N70670   8.709   3.162   2.827  1.0380  0.0390  0.7084
  536MOL0     N70671   8.797   3.248   2.835  0.1999 -0.4510  0.6049
  536MOL0     C70672   9.535   4.097   3.077  0.6798  0.2239 -0.3549
  536MOL0     C70673   9.650   4.168   3.101  0.0878  0.1798 -0.1895
  536MOL0     C70674   9.930   4.499   3.022  0.6663 -0.7349 -0.1332
  536MOL0     C70675  10.004   4.518   3.141 -0.5302  1.0134 -0.2285
  536MOL0     C70676  10.139   4.560   3.131 -0.3528  0.2474  0.0867
  536MOL0     C70677  10.201   4.594   3.007  0.5572 -0.2040  0.3037
  536MOL0     O70678  10.322   4.651   2.984  0.1721  0.2822 -0.2676
  536MOL0     C70679  10.394   4.721   3.086  0.7847  0.1584  0.1009
  536MOL0     C70680  10.332   4.857   3.096 -0.1362 -0.2057  0.1745
  536MOL0     C70681  10.395   4.925   3.210 -0.5156 -0.9376  0.2787
  536MOL0     C70682  10.341   5.068   3.202  0.3595  0.7123  0.4497
  536MOL0     C70683  10.209   5.088   3.249 -0.5614  0.1555 -0.4046
  536MOL0     C70684  10.095   5.107   3.266  0.0363 -0.8727  0.1753
  536MOL0     C70685  10.125   4.560   2.893  0.3472  0.4543 -0.2616
  536MOL0     C70686   9.996   4.508   2.905 -0.1873  0.4904  0.4813
  536MOL0     H70687   9.504   4.461   3.177 -4.1192  0.1498 -2.1139
  536MOL0     H70688   9.294   4.319   3.158 -0.9495  0.1674  2.9113
  536MOL0     H70689   9.279   3.890   3.090 -0.1353 -1.1753 -1.4555
  536MOL0     H70690   9.356   3.937   2.948 -2.2856 -4.2178  0.0561
  536MOL0     H70691   9.111   4.039   2.882 -1.4655  0.6454  1.4248
  536MOL0     H70692   9.056   3.940   3.006  1.4886  2.0012  1.4547
  536MOL0     H70693   9.213   3.846   2.755 -2.1839 -0.2644 -1.6244
  536MOL0     H70694   9.041   3.814   2.786 -0.3954  0.7544 -0.7439
  536MOL0     H70695   9.265   3.673   2.944  1.3142  2.6945 -0.9088
  536MOL0     H70696   9.106   3.679   2.994  1.1029  0.5553  0.1143
  536MOL0     H70697   9.204   3.574   2.731  2.0686  2.5792  2.7876
  536MOL0     H70698   9.033   3.582   2.754 -0.8230 -0.2260  0.5162
  536MOL0     H70699   9.023   3.441   2.929  0.0695  0.3651 -1.0105
  536MOL0     H70700   9.200   3.414   2.938  0.1499 -2.6827 -0.9426
  536MOL0     H70701   9.181   3.288   2.729 -0.5947  0.6492  0.5581
  536MOL0     H70702   9.064   3.234   2.854 -0.4711 -0.0711  1.1581
  536MOL0     H70703   9.018   3.281   2.588 -0.9648  1.5877 -0.5868
  536MOL0     H70704   8.952   3.433   2.655  1.9090  1.0351 -1.2421
  536MOL0     H70705   8.828   3.134   2.530  1.6765 -0.9377  0.1189
  536MOL0     H70706   8.663   2.902   2.688  3.6066  2.7052  1.3275
  536MOL0     H70707   8.586   2.998   2.553 -0.1610 -2.6246 -0.2131
  536MOL0     H70708   8.492   3.012   2.844 -2.2372  2.2249  1.0629
  536MOL0     H70709   8.450   2.883   2.729  2.0463  0.4201  0.2029
  536MOL0     H70710   8.407   3.190   2.688  0.6199 -0.1273  1.0624
  536MOL0     H70711   8.354   3.054   2.586 -2.4686  0.4114  0.2651
  536MOL0     H70712   8.171   3.129   2.744  1.4991  1.3330 -1.7112
  536MOL0     H70713   8.262   3.075   2.884  0.1194  2.9181 -0.6087
  536MOL0     H70714   8.100   2.678   2.709  0.1738  2.9124 -1.4217
  536MOL0     H70715   7.908   2.573   2.852  1.4836 -0.4734 -0.4014
  536MOL0     H70716   7.472   2.524   2.930  2.0010  2.8435  0.3369
  536MOL0     H70717   7.317   2.381   3.036 -1.1410  3.8570  1.7722
  536MOL0     H70718   7.420   2.087   3.128  1.0412  1.2885  0.7502
  536MOL0     H70719   7.251   2.147   3.115 -0.3545 -0.0165  0.1223
  536MOL0     H70720   7.360   2.016   3.357  0.4134  0.8872 -0.5693
  536MOL0     H70721   7.300   1.914   3.225 -0.9080  1.5215 -1.8139
  536MOL0     H70722   7.161   2.102   3.422 -0.3707 -0.0045 -1.0156
  536MOL0     H70723   7.111   1.936   3.392  1.2432 -0.6837  0.0207
  536MOL0     H70724   6.946   2.118   3.320 -0.6729 -1.0132 -1.2703
  536MOL0     H70725   7.065   2.190   3.211 -1.0927  1.0066  1.0529
  536MOL0     H70726   6.952   1.909   3.194  4.0568 -1.7912 -2.0610
  536MOL0     H70727   7.066   1.978   3.085  1.0095  4.2279 -0.6595
  536MOL0     H70728   6.859   2.164   3.086  1.5832 -0.4209  0.5894
  536MOL0     H70729   6.788   1.999   3.057 -0.0882  0.8168  1.7502
  536MOL0     H70730   7.021   2.112   2.896  0.3513 -2.6166 -0.7989
  536MOL0     H70731   6.917   1.983   2.863  3.2852 -2.4303  2.4375
  536MOL0     H70732   6.804   2.268   2.885 -1.5448  0.5007 -2.4924
  536MOL0     H70733   6.714   2.117   2.864 -1.2924  1.3203 -2.2887
  536MOL0     H70734   7.596   2.317   3.362 -0.4654  2.4608  1.9897
  536MOL0     H70735   7.756   2.472   3.244 -1.0209  1.0701 -1.5108
  536MOL0     H70736   7.870   2.934   3.071 -2.3603 -1.3266 -0.6330
  536MOL0     H70737   8.054   3.040   2.947  1.4877 -0.8321  0.3175
  536MOL0     H70738   9.540   3.989   3.063 -2.2865  0.1699 -2.0219
  536MOL0     H70739   9.750   4.127   3.097  0.0833  0.0793  0.5636
  536MOL0     H70740   9.962   4.504   3.240  0.1146  3.7597  0.5137
  536MOL0     H70741  10.190   4.583   3.223  2.5416 -2.0840 -0.7652
  536MOL0     H70742  10.500   4.734   3.059  0.3902  2.0600 -0.7211
  536MOL0     H70743  10.391   4.669   3.182 -0.0211 -2.4119 -1.2237
  536MOL0     H70744  10.351   4.917   3.006  1.4962  0.0058  0.6239
  536MOL0     H70745  10.223   4.855   3.103 -0.2860 -0.8768 -1.6946
  536MOL0     H70746  10.504   4.936   3.209 -0.6348  0.6633 -1.1466
  536MOL0     H70747  10.368   4.882   3.307  2.6791 -1.3178  1.1444
  536MOL0     H70748  10.400   5.115   3.281  2.3237 -0.1566 -0.4102
  536MOL0     H70749  10.353   5.116   3.104 -5.4055 -0.1011 -0.9872
  536MOL0     H70750   9.991   5.120   3.288  0.6178 -0.4918  3.1764
  536MOL0     H70751  10.166   4.573   2.793 -1.5674  2.6739 -0.8573
  536MOL0     H70752   9.955   4.477   2.810 -0.8348  0.2240  0.8406
  537MOL0     O70753  11.184   2.795   6.703  0.0408 -1.2390  0.8975
  537MOL0     C70754  11.183   2.727   6.798  0.9321  0.1351 -0.5744
  537MOL0     O70755  11.093   2.624   6.831 -0.0827 -0.3277  0.7766
  537MOL0     C70756  11.023   2.571   6.716  0.0331 -0.4136  0.4999
  537MOL0     C70757  10.918   2.647   6.651  0.0473 -0.2154 -0.6492
  537MOL0     C70758  10.871   2.599   6.530  0.5035 -0.5935  0.3827
  537MOL0     C70759  10.914   2.482   6.474  0.6552  0.4243 -0.2691
  537MOL0     O70760  10.856   2.441   6.352  0.0017 -0.5036  0.7451
  537MOL0     C70761  10.716   2.409   6.375 -0.5827 -0.1572 -0.5175
  537MOL0     C70762  10.667   2.322   6.264  1.3772 -1.5326  0.7372
  537MOL0     C70763  10.531   2.253   6.283  0.4896 -0.4023 -0.4865
  537MOL0     C70764  10.506   2.156   6.167  0.4986  0.1018  0.1228
  537MOL0     C70765  10.357   2.123   6.144 -1.0133  0.0900  1.2163
  537MOL0     C70766  10.333   2.073   5.996 -0.8859 -0.6578 -0.2990
  537MOL0     C70767  10.192   1.994   5.988  0.2230  0.3833  0.1210
  537MOL0     C70768  10.162   1.946   5.843  0.5448 -0.0929  0.5725
  537MOL0     N70769  10.027   1.895   5.831  0.9274  0.1737  0.4561
  537MOL0     C70770   9.956   1.849   5.719 -0.9816  0.4453  0.4111
  537MOL0     C70771   9.826   1.842   5.754 -0.1179  0.2316 -0.2684
  537MOL0     C70772   9.722   1.799   5.648 -0.4953 -0.4689 -0.2693
  537MOL0     C70773   9.617   1.907   5.620  0.1910  1.0851  0.8364
  537MOL0     C70774   9.683   2.031   5.563  0.5562 -0.2079  0.0510
  537MOL0     C70775   9.590   2.161   5.593 -0.4850 -0.2498  0.1852
  537MOL0     O70776   9.666   2.278   5.559  0.3655 -0.5065 -0.0381
  537MOL0     C70777   9.759   2.327   5.652 -0.4413  0.1616  0.2579
  537MOL0     C70778   9.822   2.452   5.621  0.5250 -0.1619 -0.2557
  537MOL0     C70779   9.924   2.504   5.700  0.1320 -0.2311  0.7261
  537MOL0     C70780   9.962   2.433   5.817 -0.6550 -1.7859  0.1375
  537MOL0     C70781  10.066   2.501   5.902  0.1653  0.7469 -0.1831
  537MOL0     O70782  10.083   2.462   6.033 -0.3872  0.3261 -0.3813
  537MOL0     C70783  10.187   2.520   6.091 -0.1215  0.1994 -0.8862
  537MOL0     C70784  10.167   2.593   6.205 -0.6137  1.0894  0.2440
  537MOL0     C70785  10.272   2.651   6.268 -0.1291  0.1749 -1.1425
  537MOL0     C70786  10.410   2.641   6.228 -0.0857  0.3972 -0.1706
  537MOL0     O70787  10.530   2.694   6.283  0.3471 -0.1272 -0.3284
  537MOL0     C70788  10.524   2.739   6.423 -0.9191  0.4365 -0.6640
  537MOL0     C70789  10.491   2.881   6.415  0.8847 -0.5693  0.3446
  537MOL0     C70790  10.450   2.943   6.552 -0.4756 -0.8801  0.4550
  537MOL0     C70791  10.400   3.088   6.537  0.2619  0.2757 -0.0855
  537MOL0     C70792  10.521   3.179   6.574 -0.8386  0.6444 -0.3483
  537MOL0     C70793  10.517   3.332   6.521 -0.0175  0.4870 -0.2270
  537MOL0     C70794  10.511   3.357   6.369  0.1219  0.3840 -0.1873
  537MOL0     C70795  10.614   3.290   6.279 -0.6553 -0.0683  0.4290
  537MOL0    Cl70796  10.579   3.339   6.115 -0.5751 -0.1989  0.2099
  537MOL0     C70797  10.426   2.574   6.106  0.5396 -0.2103 -0.2367
  537MOL0     C70798  10.317   2.513   6.036 -0.7874 -1.8279  0.5020
  537MOL0     O70799  10.136   2.586   5.855  0.5234 -0.0983 -0.3388
  537MOL0     C70800   9.907   2.314   5.853 -0.6705  0.7084 -0.1152
  537MOL0     C70801   9.810   2.259   5.766  0.5269 -0.0682  0.1060
  537MOL0     N70802   9.818   1.881   5.879 -0.1356 -0.2380  0.4995
  537MOL0     N70803   9.934   1.918   5.923 -0.5322 -0.3338 -0.6246
  537MOL0     C70804  11.010   2.405   6.538  1.0034  0.7320  0.0439
  537MOL0     C70805  11.066   2.454   6.656 -0.0018  0.4671 -0.5060
  537MOL0     C70806  11.287   2.757   6.904  0.5479 -0.1761 -0.3232
  537MOL0     C70807  11.282   2.699   7.028  1.0047  0.2568 -0.5520
  537MOL0     C70808  11.372   2.724   7.130 -0.0911  0.0941 -0.3590
  537MOL0     C70809  11.493   2.782   7.100 -1.1925 -0.5663  0.1130
  537MOL0     O70810  11.587   2.811   7.194  0.1095  0.5580  0.0950
  537MOL0     C70811  11.584   2.743   7.317  0.1318 -1.4364 -0.6672
  537MOL0     C70812  11.707   2.798   7.400  0.6321  0.3059  0.9820
  537MOL0     C70813  11.707   2.939   7.409  1.0193 -0.4410  0.1057
  537MOL0     C70814  11.813   2.981   7.519  0.2635  0.3998 -0.8875
  537MOL0     C70815  11.760   2.968   7.652  0.2295  0.5835 -0.7197
  537MOL0     C70816  11.713   2.965   7.766 -0.7314  1.2179  0.6335
  537MOL0     C70817  11.502   2.836   6.970  0.3116  0.1552 -0.4943
  537MOL0     C70818  11.404   2.833   6.879  0.9226  0.1555  0.2960
  537MOL0     H70819  10.889   2.741   6.696  0.8589 -0.4904  0.5128
  537MOL0     H70820  10.813   2.669   6.470  1.4182 -1.6149 -1.7559
  537MOL0     H70821  10.666   2.505   6.385 -0.4105 -0.2147  1.4921
  537MOL0     H70822  10.714   2.359   6.473  3.4055  0.0041 -0.1794
  537MOL0     H70823  10.746   2.246   6.272  2.0083 -0.8818  0.8638
  537MOL0     H70824  10.671   2.376   6.169 -1.6826  0.5162  1.6416
  537MOL0     H70825  10.448   2.324   6.287  0.0758 -0.8376  3.7975
  537MOL0     H70826  10.527   2.202   6.380 -1.2104 -1.6298 -1.1441
  537MOL0     H70827  10.538   2.206   6.075 -0.4401  0.4907  0.0020
  537MOL0     H70828  10.577   2.072   6.168  1.8995  1.1516 -2.2224
  537MOL0     H70829  10.291   2.206   6.170 -0.7417 -0.3094  3.3858
  537MOL0     H70830  10.325   2.049   6.218  1.4534 -2.2758  0.1042
  537MOL0     H70831  10.415   2.005   5.975 -1.1001 -1.2367  0.6561
  537MOL0     H70832  10.342   2.151   5.921 -0.5399 -0.8934 -0.5014
  537MOL0     H70833  10.192   1.909   6.057 -1.3969  0.3826  0.1586
  537MOL0     H70834  10.113   2.061   6.023 -0.7346 -0.4471 -0.3900
  537MOL0     H70835  10.224   1.861   5.811 -0.7113  0.1850 -3.0646
  537MOL0     H70836  10.174   2.032   5.776 -2.4675 -0.5903 -0.7662
  537MOL0     H70837   9.999   1.836   5.620 -0.2686  2.7539  0.3656
  537MOL0     H70838   9.668   1.717   5.696 -1.9591  2.3594  3.3599
  537MOL0     H70839   9.773   1.760   5.559  0.9835  0.0287  0.3257
  537MOL0     H70840   9.559   1.938   5.707 -1.0657 -0.5421  0.6278
  537MOL0     H70841   9.554   1.858   5.546  2.3231 -2.4603  1.1071
  537MOL0     H70842   9.784   2.042   5.605 -0.2482 -0.4917  2.1530
  537MOL0     H70843   9.681   2.031   5.454 -2.8412  1.1747  0.0046
  537MOL0     H70844   9.563   2.170   5.699  1.7701  1.6000  0.6849
  537MOL0     H70845   9.502   2.153   5.529  0.6385 -1.5126 -1.2859
  537MOL0     H70846   9.799   2.516   5.536 -0.0727  1.4468  1.0710
  537MOL0     H70847   9.964   2.601   5.671 -1.4574  0.9941  2.3734
  537MOL0     H70848  10.074   2.629   6.249  1.7305  1.8516  5.3212
  537MOL0     H70849  10.255   2.698   6.364  0.7066  0.9282 -1.3502
  537MOL0     H70850  10.624   2.742   6.467 -1.4249  0.9596  0.5030
  537MOL0     H70851  10.452   2.688   6.488 -0.3821  0.4376 -0.0568
  537MOL0     H70852  10.393   2.886   6.366  0.9854 -0.7487  0.1201
  537MOL0     H70853  10.552   2.949   6.355 -1.6537  0.4747 -1.2250
  537MOL0     H70854  10.538   2.941   6.617 -1.0754 -0.2070  1.2994
  537MOL0     H70855  10.373   2.876   6.592 -2.6479 -0.9138 -3.3061
  537MOL0     H70856  10.359   3.112   6.438  1.9382  1.6054 -0.4996
  537MOL0     H70857  10.315   3.088   6.607  1.1134 -2.6957  1.0724
  537MOL0     H70858  10.610   3.119   6.553 -0.2430  0.8688  1.3719
  537MOL0     H70859  10.524   3.194   6.682 -1.6258  1.1796 -0.3945
  537MOL0     H70860  10.606   3.384   6.557  1.1409 -0.5554 -1.5023
  537MOL0     H70861  10.430   3.385   6.563 -1.1263 -1.8634  0.6347
  537MOL0     H70862  10.413   3.324   6.333  0.8361  0.5232 -2.4618
  537MOL0     H70863  10.517   3.466   6.357 -0.7704  0.3041 -1.6373
  537MOL0     H70864  10.596   3.183   6.293 -1.3035 -0.0220  0.0045
  537MOL0     H70865  10.715   3.319   6.310 -0.3807 -1.7618  1.2245
  537MOL0     H70866  10.526   2.577   6.065  1.5990  0.3747  2.1973
  537MOL0     H70867  10.342   2.457   5.946  1.7085  1.4694 -1.0816
  537MOL0     H70868   9.939   2.266   5.945 -1.4193 -3.1403 -1.6570
  537MOL0     H70869   9.761   2.163   5.779  1.7165 -0.7919 -0.5502
  537MOL0     H70870  11.044   2.308   6.503  1.6528  0.8744  0.2793
  537MOL0     H70871  11.150   2.397   6.693 -2.4734 -4.1025 -1.1931
  537MOL0     H70872  11.207   2.631   7.069  0.4255  2.0480  1.5434
  537MOL0     H70873  11.350   2.692   7.231 -2.2573 -1.1253 -1.1596
  537MOL0     H70874  11.592   2.638   7.289  0.5719 -1.5669 -0.0508
  537MOL0     H70875  11.499   2.777   7.377  0.5342 -2.2856  0.4096
  537MOL0     H70876  11.691   2.751   7.497 -0.3098 -0.8648  0.2867
  537MOL0     H70877  11.793   2.752   7.350 -0.0333  1.0543 -0.9399
  537MOL0     H70878  11.608   2.975   7.437 -0.0209 -1.3452 -2.1759
  537MOL0     H70879  11.730   2.978   7.310 -1.2113  2.4003  0.5877
  537MOL0     H70880  11.909   2.928   7.513  1.0019  1.2720  1.9412
  537MOL0     H70881  11.838   3.087   7.511 -2.3074  1.3767  2.0508
  537MOL0     H70882  11.666   2.959   7.862 -1.9928 -0.5512 -0.0471
  537MOL0     H70883  11.596   2.879   6.936  0.7071 -0.0424  0.3315
  537MOL0     H70884  11.401   2.873   6.778  2.5296 -2.6153 -0.9834
  538MOL0     O70885   2.803   1.757   0.812  0.7501 -0.4365 -0.1720
  538MOL0     C70886   2.694   1.747   0.754  0.1776 -0.5834  0.6729
  538MOL0     O70887   2.584   1.802   0.788 -0.2150 -0.7173 -0.0261
  538MOL0     C70888   2.559   1.816   0.921 -0.4421 -0.5472 -1.2983
  538MOL0     C70889   2.559   1.944   0.977  0.6184 -0.2638 -0.1578
  538MOL0     C70890   2.554   1.970   1.109 -1.0055 -0.8635 -0.2416
  538MOL0     C70891   2.529   1.871   1.202  0.9445  0.6633  0.1734
  538MOL0     O70892   2.508   1.901   1.338 -0.5465  0.1718  0.2081
  538MOL0     C70893   2.603   2.002   1.385  0.6756 -0.4744  1.0437
  538MOL0     C70894   2.617   1.987   1.531 -0.2333  0.6601 -0.2346
  538MOL0     C70895   2.686   1.858   1.574 -0.0501  0.2883 -0.3896
  538MOL0     C70896   2.709   1.848   1.732  0.2426 -1.0886 -0.3469
  538MOL0     C70897   2.776   1.725   1.783 -0.0366 -0.4787  0.8861
  538MOL0     C70898   2.925   1.711   1.737  0.5765  0.1025 -0.1199
  538MOL0     C70899   2.976   1.571   1.768  0.2166 -0.4217 -0.0958
  538MOL0     C70900   3.109   1.548   1.697  0.5671 -0.9048  0.4675
  538MOL0     N70901   3.165   1.422   1.738 -0.3089  0.2967  0.4451
  538MOL0     C70902   3.266   1.392   1.817  0.5704  0.2221 -0.2450
  538MOL0     C70903   3.284   1.259   1.803 -0.0853  0.2175 -0.2487
  538MOL0     C70904   3.386   1.176   1.880 -0.4446  0.3165 -0.2571
  538MOL0     C70905   3.405   1.222   2.028 -0.5197  0.0963 -0.7323
  538MOL0     C70906   3.468   1.113   2.119  0.1453  0.8012 -0.2469
  538MOL0     C70907   3.619   1.104   2.114 -0.1034 -0.4555  0.0728
  538MOL0     O70908   3.664   1.035   2.231 -0.7260  0.3305  0.1301
  538MOL0     C70909   3.797   1.024   2.248 -0.1926 -0.3112  0.1995
  538MOL0     C70910   3.836   0.987   2.373  0.3589 -0.5800  1.3337
  538MOL0     C70911   3.976   0.978   2.398  0.8700 -0.0635 -0.3056
  538MOL0     C70912   4.078   1.017   2.312  0.8275 -0.4824  0.0335
  538MOL0     C70913   4.219   0.996   2.348  1.4298 -1.1501 -0.1800
  538MOL0     O70914   4.302   1.028   2.248 -0.1455  0.2571 -0.2615
  538MOL0     C70915   4.433   0.990   2.260 -0.3701 -0.0229 -0.1845
  538MOL0     C70916   4.474   0.858   2.295 -0.1753  0.1122  0.2022
  538MOL0     C70917   4.609   0.829   2.315  0.0474  0.3581 -0.6921
  538MOL0     C70918   4.696   0.935   2.302 -0.1131  0.4962 -0.4425
  538MOL0     O70919   4.831   0.949   2.326  0.6230 -0.1224  0.0863
  538MOL0     C70920   4.890   0.851   2.407  0.1064  0.7044 -0.2324
  538MOL0     C70921   5.048   0.852   2.413  0.5234  0.4687  0.6860
  538MOL0     C70922   5.095   0.982   2.478 -0.0576 -0.1052 -0.0752
  538MOL0     C70923   5.256   0.987   2.511 -0.1347 -0.5846 -0.4811
  538MOL0     C70924   5.334   1.037   2.387 -0.1812  0.9210  0.5005
  538MOL0     C70925   5.483   1.036   2.395  0.4859  0.9014  0.1497
  538MOL0     C70926   5.531   1.139   2.489  0.4135  0.7805  0.2782
  538MOL0     C70927   5.689   1.160   2.494  0.5861 -0.4087 -0.4292
  538MOL0    Cl70928   5.752   1.008   2.559 -0.1120  0.0619  0.3296
  538MOL0     C70929   4.657   1.054   2.255  0.1411 -0.1700 -0.0427
  538MOL0     C70930   4.527   1.087   2.223 -0.3737  0.7020 -0.4018
  538MOL0     O70931   4.250   0.959   2.462  0.1199 -0.3323 -0.1661
  538MOL0     C70932   4.036   1.070   2.187  0.5011  0.1654 -0.1035
  538MOL0     C70933   3.898   1.070   2.161  0.1663  0.4550  0.1416
  538MOL0     N70934   3.189   1.208   1.714 -0.5837 -0.1892  0.5299
  538MOL0     N70935   3.130   1.308   1.670  0.2824 -0.2738  0.1877
  538MOL0     C70936   2.523   1.739   1.154 -0.3378  0.3907 -0.6615
  538MOL0     C70937   2.554   1.711   1.015 -0.6083 -0.0128 -0.3832
  538MOL0     C70938   2.706   1.677   0.631 -0.2557 -0.0483  0.3531
  538MOL0     C70939   2.588   1.621   0.572 -0.0435 -0.4388 -0.1939
  538MOL0     C70940   2.591   1.539   0.463 -0.2768  0.6761  0.9619
  538MOL0     C70941   2.714   1.511   0.400 -0.4940  0.3527  0.5188
  538MOL0     O70942   2.717   1.429   0.291  0.4615 -0.5833  0.0973
  538MOL0     C70943   2.630   1.307   0.298  0.0107 -0.2835  0.0992
  538MOL0     C70944   2.692   1.202   0.215 -0.4570  0.1492 -0.3173
  538MOL0     C70945   2.797   1.129   0.302  0.1848  0.2070 -0.5894
  538MOL0     C70946   2.913   1.065   0.222  0.0343  0.6510  0.4248
  538MOL0     C70947   3.029   1.034   0.310  0.0442 -0.7758 -0.3902
  538MOL0     C70948   3.104   1.002   0.404  1.2150 -0.3464 -0.8183
  538MOL0     C70949   2.829   1.563   0.456 -0.2240 -0.2132  0.0634
  538MOL0     C70950   2.827   1.649   0.569 -0.4627  0.5882 -1.3829
  538MOL0     H70951   2.559   2.018   0.898  1.4179 -0.7540 -0.6253
  538MOL0     H70952   2.555   2.077   1.128 -1.8176  0.0981 -4.6113
  538MOL0     H70953   2.568   2.103   1.364  1.6455 -0.2832  0.2871
  538MOL0     H70954   2.699   1.992   1.334 -1.1978 -1.9807 -2.5263
  538MOL0     H70955   2.518   1.987   1.576  0.3600 -0.1975  1.1190
  538MOL0     H70956   2.669   2.073   1.574 -2.3959  0.7951  2.3963
  538MOL0     H70957   2.778   1.845   1.516  0.0248 -3.5302  0.3768
  538MOL0     H70958   2.625   1.769   1.563 -1.4875  1.4466 -2.4241
  538MOL0     H70959   2.783   1.925   1.757 -2.7404  2.1933 -0.9149
  538MOL0     H70960   2.624   1.875   1.795  0.9538 -2.7639  1.4582
  538MOL0     H70961   2.718   1.639   1.748 -1.4105  0.8574 -0.2261
  538MOL0     H70962   2.773   1.726   1.893  1.0445  1.8359  0.9570
  538MOL0     H70963   2.985   1.789   1.784  2.7181 -0.3196 -1.9722
  538MOL0     H70964   2.937   1.736   1.631  0.6654  3.3539  0.5537
  538MOL0     H70965   2.990   1.558   1.876 -0.7994  1.4346  0.3131
  538MOL0     H70966   2.914   1.487   1.737  3.0760 -3.4388  1.6890
  538MOL0     H70967   3.163   1.640   1.720 -0.0987 -0.6268  0.9585
  538MOL0     H70968   3.109   1.553   1.588 -1.0149  0.6900  0.5074
  538MOL0     H70969   3.326   1.451   1.885  0.2457 -1.9754  2.1175
  538MOL0     H70970   3.479   1.189   1.823  0.4303 -2.2923  0.4143
  538MOL0     H70971   3.358   1.070   1.875 -0.5153  0.3300 -0.1520
  538MOL0     H70972   3.305   1.251   2.061 -1.0040  0.1812 -2.2043
  538MOL0     H70973   3.464   1.314   2.036  0.4354 -0.2961 -2.6393
  538MOL0     H70974   3.424   1.128   2.218 -1.6225  5.5124 -1.4555
  538MOL0     H70975   3.439   1.013   2.085  4.8324 -2.0167  2.9075
  538MOL0     H70976   3.671   1.199   2.098  1.4490 -1.0533  1.2414
  538MOL0     H70977   3.650   1.046   2.027  1.0485  2.4129 -1.5525
  538MOL0     H70978   3.760   0.972   2.450 -2.2079  0.0305 -0.9014
  538MOL0     H70979   3.996   0.943   2.499 -2.8657  3.0034  1.7627
  538MOL0     H70980   4.411   0.771   2.300  0.8007 -0.5505  1.2980
  538MOL0     H70981   4.639   0.730   2.348  1.1965  0.9729  0.1966
  538MOL0     H70982   4.855   0.750   2.386  2.9019 -0.0619 -1.5585
  538MOL0     H70983   4.852   0.878   2.507 -0.9168  0.6212 -0.5855
  538MOL0     H70984   5.085   0.847   2.310  0.0163  3.7174  0.2368
  538MOL0     H70985   5.085   0.755   2.447  0.9936  0.3530 -0.1092
  538MOL0     H70986   5.055   0.997   2.579  3.8491  1.8884  1.4297
  538MOL0     H70987   5.075   1.062   2.406  0.1960 -0.5687 -0.6613
  538MOL0     H70988   5.258   1.069   2.584 -4.1758  1.0680 -1.9411
  538MOL0     H70989   5.307   0.898   2.548  0.8399 -0.4911 -1.5290
  538MOL0     H70990   5.302   1.137   2.355 -2.8815  1.0568  3.1963
  538MOL0     H70991   5.316   0.966   2.306  0.1233  2.2169 -0.7478
  538MOL0     H70992   5.524   1.063   2.296  2.0861  0.0552  0.5422
  538MOL0     H70993   5.520   0.939   2.429 -0.2919  1.3270  2.3227
  538MOL0     H70994   5.475   1.227   2.456  0.5951  1.2411  1.1675
  538MOL0     H70995   5.498   1.106   2.588  0.9633 -1.6646 -0.2807
  538MOL0     H70996   5.702   1.242   2.566  0.9892  0.5664 -1.5765
  538MOL0     H70997   5.732   1.175   2.395  0.8347 -0.4253 -0.3251
  538MOL0     H70998   4.736   1.127   2.240  1.6006 -1.3354  1.7063
  538MOL0     H70999   4.498   1.187   2.192  0.3267  2.1692  3.1395
  538MOL0     H71000   4.100   1.092   2.103  0.5525  1.0911  0.1675
  538MOL0     H71001   3.869   1.105   2.062 -0.7268 -2.1508 -0.5891
  538MOL0     H71002   2.515   1.643   1.204  0.0076 -0.5007 -2.2501
  538MOL0     H71003   2.571   1.611   0.974  0.4011 -0.6177  1.3935
  538MOL0     H71004   2.490   1.634   0.617  0.9475  0.1849  1.9128
  538MOL0     H71005   2.500   1.494   0.424 -0.3091  1.6701 -0.1364
  538MOL0     H71006   2.529   1.331   0.263  0.1341  0.7358  0.4022
  538MOL0     H71007   2.629   1.273   0.402 -1.5762  0.2986  0.2994
  538MOL0     H71008   2.620   1.126   0.181  1.3174 -1.0849 -1.5016
  538MOL0     H71009   2.742   1.251   0.132 -2.8323  1.6242 -0.9672
  538MOL0     H71010   2.750   1.052   0.364  0.8727  2.0718  2.4868
  538MOL0     H71011   2.843   1.192   0.379 -0.9828 -0.1567  0.4421
  538MOL0     H71012   2.877   0.974   0.174  1.1959 -0.5257  1.6889
  538MOL0     H71013   2.947   1.127   0.138  0.5533 -1.0922 -0.7004
  538MOL0     H71014   3.170   0.983   0.486  1.8023  1.3928 -0.8550
  538MOL0     H71015   2.917   1.546   0.394 -0.3395  0.7635 -0.3951
  538MOL0     H71016   2.922   1.689   0.603 -0.0425 -0.3445 -1.4384
  539MOL0     O71017   2.229  10.696  11.157 -0.0062 -0.2758  0.4148
  539MOL0     C71018   2.264  10.605  11.228  0.2072 -0.1998 -0.8410
  539MOL0     O71019   2.186  10.537  11.316 -0.8654 -0.4888 -0.2309
  539MOL0     C71020   2.051  10.550  11.316  0.1515  0.1376  0.2491
  539MOL0     C71021   1.986  10.532  11.434  0.8540 -0.2704  0.9718
  539MOL0     C71022   1.853  10.540  11.447  0.3885 -0.0063  0.1684
  539MOL0     C71023   1.774  10.575  11.345 -0.2598 -0.3704  0.7583
  539MOL0     O71024   1.642  10.583  11.369 -0.1269 -0.3095  0.1711
  539MOL0     C71025   1.555  10.526  11.274  0.0758 -0.1782  0.0719
  539MOL0     C71026   1.449  10.456  11.372 -0.8148 -0.2688  0.6654
  539MOL0     C71027   1.456  10.302  11.362 -0.1628  0.6581 -0.1196
  539MOL0     C71028   1.582  10.240  11.413  0.2007 -0.4613 -0.5964
  539MOL0     C71029   1.577  10.087  11.439  0.2392 -0.7816  0.1164
  539MOL0     C71030   1.714  10.036  11.480  0.6827 -0.3821  0.2962
  539MOL0     C71031   1.775  10.093  11.610 -0.5919 -0.2374  0.4696
  539MOL0     C71032   1.886  10.005  11.665 -0.0540  1.1576  0.0080
  539MOL0     N71033   1.956  10.075  11.775 -0.7881  0.6586  0.3958
  539MOL0     C71034   1.906  10.117  11.893 -0.5849  1.3693 -1.2283
  539MOL0     C71035   1.994  10.206  11.950 -0.2654  0.7589 -0.4817
  539MOL0     C71036   1.970  10.265  12.077 -0.1413 -0.2422 -0.1473
  539MOL0     C71037   2.049  10.198  12.188 -1.5684  0.1001  0.4378
  539MOL0     C71038   2.061  10.044  12.185  0.5722 -0.8239 -0.1203
  539MOL0     C71039   2.104   9.957  12.307 -0.1997  0.5435 -0.0485
  539MOL0     O71040   2.024   9.993  12.417 -0.1926  0.7201 -0.4526
  539MOL0     C71041   1.901   9.937  12.441  0.9638  0.3197 -0.7863
  539MOL0     C71042   1.843   9.831  12.386  0.8150  0.6958  0.2050
  539MOL0     C71043   1.713   9.776  12.423 -0.6065 -0.3380  0.3383
  539MOL0     C71044   1.640   9.839  12.529 -0.0025  0.5080 -0.2249
  539MOL0     C71045   1.500   9.791  12.574 -0.0148 -0.0110 -0.7415
  539MOL0     O71046   1.455   9.673  12.520  0.1871 -0.7932 -0.3577
  539MOL0     C71047   1.321   9.666  12.494  0.1749 -0.9285 -0.2626
  539MOL0     C71048   1.257   9.546  12.496 -0.3248  0.6075  0.5004
  539MOL0     C71049   1.118   9.527  12.465  0.0221  0.1468  0.1083
  539MOL0     C71050   1.040   9.635  12.433  0.7529 -0.3434 -0.7750
  539MOL0     O71051   0.906   9.630  12.407 -0.4249 -0.1597  0.0046
  539MOL0     C71052   0.850   9.510  12.353  1.0268 -1.0261 -0.0323
  539MOL0     C71053   0.720   9.542  12.282  0.4728 -0.1756  0.2894
  539MOL0     C71054   0.736   9.604  12.139  0.3028  0.3587  0.1655
  539MOL0     C71055   0.780   9.762  12.143 -0.5136  0.0829  0.1491
  539MOL0     C71056   0.805   9.808  12.002  0.5090  0.1012  0.6977
  539MOL0     C71057   0.880   9.935  12.007 -0.0980  0.1650 -0.3828
  539MOL0     C71058   1.034   9.908  12.029 -0.1880  0.2075 -0.2497
  539MOL0     C71059   1.115  10.040  12.051 -0.1706 -0.0710  0.4589
  539MOL0    Cl71060   1.116  10.074  12.215 -0.3488  0.2132 -0.1023
  539MOL0     C71061   1.102   9.757  12.436  0.3779 -0.6037  0.0817
  539MOL0     C71062   1.240   9.778  12.463 -0.5230  0.6469 -0.2083
  539MOL0     O71063   1.439   9.866  12.658 -0.0359  0.4110  0.5176
  539MOL0     C71064   1.706   9.950  12.595  0.2918 -1.0172  0.3287
  539MOL0     C71065   1.824  10.001  12.538 -0.1219 -0.7476 -0.0339
  539MOL0     N71066   2.100  10.215  11.858 -0.0203 -0.3355  0.1462
  539MOL0     N71067   2.073  10.141  11.749  0.5024 -0.3395 -0.7545
  539MOL0     C71068   1.832  10.600  11.217  1.0084  0.7212  0.3774
  539MOL0     C71069   1.969  10.577  11.204 -0.7787 -0.3093 -0.5678
  539MOL0     C71070   2.405  10.565  11.225  0.2124  0.5124  0.4463
  539MOL0     C71071   2.477  10.524  11.344  0.8653 -0.6116  0.3694
  539MOL0     C71072   2.613  10.485  11.336  0.3194  0.0864 -0.4822
  539MOL0     C71073   2.692  10.499  11.220 -0.6139  1.0901 -0.1571
  539MOL0     O71074   2.823  10.456  11.221 -0.6518  0.5052  0.1974
  539MOL0     C71075   2.857  10.376  11.106 -0.2171  0.4864 -0.1137
  539MOL0     C71076   2.986  10.298  11.143 -0.6459  0.5384 -0.5879
  539MOL0     C71077   3.112  10.388  11.176  0.7897  0.2725  0.3043
  539MOL0     C71078   3.214  10.312  11.256  0.2694  0.5289  0.3445
  539MOL0     C71079   3.347  10.366  11.229  0.4349  0.6547  0.3189
  539MOL0     C71080   3.456  10.413  11.207 -0.1058 -0.2571  0.3081
  539MOL0     C71081   2.623  10.546  11.103 -0.3116 -0.0810 -0.5869
  539MOL0     C71082   2.483  10.569  11.104  0.2483 -0.2400  0.1519
  539MOL0     H71083   2.050  10.511  11.519  2.6449 -1.0674 -0.4926
  539MOL0     H71084   1.808  10.528  11.545 -1.1116  0.1639 -0.4792
  539MOL0     H71085   1.606  10.466  11.199  0.6583 -0.1429  0.4304
  539MOL0     H71086   1.513  10.603  11.209 -1.5011 -2.6610 -2.0634
  539MOL0     H71087   1.350  10.478  11.331 -0.4953 -2.1064 -1.2960
  539MOL0     H71088   1.465  10.485  11.476 -0.1327  0.5185  0.3499
  539MOL0     H71089   1.435  10.287  11.256 -0.9618  2.7020 -0.2918
  539MOL0     H71090   1.377  10.256  11.422 -0.8195  0.3198 -1.2233
  539MOL0     H71091   1.669  10.262  11.350 -1.5555 -1.5195 -3.5642
  539MOL0     H71092   1.609  10.289  11.507 -2.7497  0.3635 -0.0790
  539MOL0     H71093   1.548  10.045  11.342 -0.3718 -1.5025  0.6020
  539MOL0     H71094   1.503  10.067  11.517  0.1262 -2.2759 -0.3379
  539MOL0     H71095   1.789  10.046  11.401 -1.8492 -0.3386 -2.2702
  539MOL0     H71096   1.708   9.927  11.480  0.2463 -0.3804 -1.1301
  539MOL0     H71097   1.810  10.195  11.591  3.6285 -1.1642  2.1620
  539MOL0     H71098   1.688  10.097  11.676 -1.4264  1.7677 -0.6524
  539MOL0     H71099   1.957   9.984  11.585  3.8940  2.5404  2.8216
  539MOL0     H71100   1.849   9.913  11.711  0.4504  1.9022  2.0359
  539MOL0     H71101   1.810  10.085  11.931 -0.7932  1.0161 -2.0411
  539MOL0     H71102   1.863  10.271  12.100 -0.2080  1.8477 -0.7375
  539MOL0     H71103   1.993  10.370  12.056  0.4557 -0.4801 -0.6989
  539MOL0     H71104   2.012  10.233  12.285  1.1113  1.6021  1.0234
  539MOL0     H71105   2.152  10.235  12.190 -0.3143 -2.9162 -1.6747
  539MOL0     H71106   1.961  10.009  12.159 -0.8499  2.9368 -0.2541
  539MOL0     H71107   2.134  10.028  12.105 -0.4965 -0.9733 -1.0795
  539MOL0     H71108   2.208   9.975  12.336 -1.2242  1.9428  3.2908
  539MOL0     H71109   2.104   9.849  12.287 -1.0975  0.8557 -2.0050
  539MOL0     H71110   1.912   9.787  12.316  2.0069  2.6288  0.0690
  539MOL0     H71111   1.692   9.680  12.377  2.0903  0.3016 -2.5696
  539MOL0     H71112   1.311   9.457  12.528  0.7099  0.8264 -0.5388
  539MOL0     H71113   1.069   9.430  12.473 -1.0292  0.4088 -2.2711
  539MOL0     H71114   0.844   9.433  12.431 -2.3017 -1.2625 -0.3919
  539MOL0     H71115   0.915   9.471  12.274  2.8239 -0.5879  1.1637
  539MOL0     H71116   0.660   9.605  12.349 -0.1046  0.6126 -0.9223
  539MOL0     H71117   0.667   9.448  12.267  0.7033  0.1536 -3.4946
  539MOL0     H71118   0.652   9.586  12.073  0.4136 -0.0589  0.1336
  539MOL0     H71119   0.814   9.544  12.091 -0.1846  0.2675 -0.5162
  539MOL0     H71120   0.702   9.825  12.187 -1.2431 -2.5790  3.0991
  539MOL0     H71121   0.873   9.765  12.200  0.2136  0.4075 -1.0340
  539MOL0     H71122   0.706   9.837  11.966  1.3264  2.4877  0.1935
  539MOL0     H71123   0.854   9.741  11.930 -1.9865  1.5983 -2.7003
  539MOL0     H71124   0.838   9.999  12.084  4.7109  0.5465  2.3408
  539MOL0     H71125   0.870   9.990  11.913 -0.0593  2.0942  0.6826
  539MOL0     H71126   1.061   9.837  12.107  2.8381  0.2087 -1.1843
  539MOL0     H71127   1.076   9.867  11.937 -2.5698 -2.6016 -0.2283
  539MOL0     H71128   1.052  10.112  11.997  0.0485 -1.1749 -1.3736
  539MOL0     H71129   1.218  10.040  12.013 -0.6201 -1.6052 -0.8902
  539MOL0     H71130   1.053   9.850  12.410 -1.2377 -1.7930 -1.4153
  539MOL0     H71131   1.294   9.870  12.441 -0.1944  0.4300 -0.3233
  539MOL0     H71132   1.655  10.011  12.668 -2.5347  1.2315 -3.2026
  539MOL0     H71133   1.861  10.087  12.593 -0.4450 -0.8867  0.4005
  539MOL0     H71134   1.781  10.621  11.123  0.7690 -1.8978 -0.1404
  539MOL0     H71135   2.001  10.573  11.100  0.4462 -0.0768 -0.2225
  539MOL0     H71136   2.418  10.505  11.433 -0.0549 -0.0308 -0.0990
  539MOL0     H71137   2.660  10.449  11.426 -1.7764 -1.3353  0.0998
  539MOL0     H71138   2.875  10.433  11.015 -1.9198  1.1921 -0.0455
  539MOL0     H71139   2.765  10.322  11.082 -3.5306  4.3715  2.6385
  539MOL0     H71140   2.951  10.236  11.226  1.8377 -4.3171 -2.8198
  539MOL0     H71141   3.003  10.224  11.065  2.9498  1.1087 -0.5206
  539MOL0     H71142   3.083  10.480  11.228 -1.1321  1.1000 -2.0045
  539MOL0     H71143   3.153  10.421  11.080 -1.8637 -0.1169 -1.0578
  539MOL0     H71144   3.174  10.306  11.358 -2.0903 -2.7715 -0.5953
  539MOL0     H71145   3.212  10.210  11.216  3.3827  0.0926  1.0609
  539MOL0     H71146   3.548  10.466  11.198 -0.7484  1.3178  2.1562
  539MOL0     H71147   2.681  10.553  11.012  1.7709 -1.6242  0.5280
  539MOL0     H71148   2.437  10.599  11.010  0.6384  0.8284  0.2974
  540MOL0     O71149   8.295   6.813   7.946  0.4257 -0.1371 -0.4290
  540MOL0     C71150   8.251   6.924   7.938  0.2990 -0.1140  0.1114
  540MOL0     O71151   8.314   7.042   7.960 -0.4963  0.3593 -0.3073
  540MOL0     C71152   8.449   7.038   7.944  0.2127  0.4335  0.1449
  540MOL0     C71153   8.527   7.050   8.062 -0.0941 -0.5450 -0.4189
  540MOL0     C71154   8.668   7.043   8.055  1.4017 -0.0404 -0.2565
  540MOL0     C71155   8.728   7.026   7.929  0.3864  0.3317 -0.6118
  540MOL0     O71156   8.863   7.004   7.925 -0.1613  0.5746 -0.1234
  540MOL0     C71157   8.924   6.959   8.047 -0.0904 -0.0147 -0.2285
  540MOL0     C71158   9.063   6.912   7.994  0.3351 -0.9559 -0.7589
  540MOL0     C71159   9.133   6.831   8.103 -0.1484 -0.2655  0.3015
  540MOL0     C71160   9.179   6.911   8.221  0.2077 -0.2360 -0.0626
  540MOL0     C71161   9.254   6.832   8.343  0.0923  1.3516 -0.0736
  540MOL0     C71162   9.296   6.926   8.458 -1.1037  0.5927 -0.4699
  540MOL0     C71163   9.333   6.836   8.579 -0.4636 -0.9672 -0.0503
  540MOL0     C71164   9.372   6.906   8.705  0.0122 -0.1582 -0.6528
  540MOL0     N71165   9.362   6.812   8.819  0.0861 -0.0099 -0.1402
  540MOL0     C71166   9.433   6.701   8.846 -0.1151  0.0004 -0.3036
  540MOL0     C71167   9.373   6.653   8.957  0.8757  0.1446 -0.5343
  540MOL0     C71168   9.423   6.537   9.036  0.2679 -0.0139  0.7190
  540MOL0     C71169   9.333   6.413   9.041  0.5148 -0.3469 -0.2142
  540MOL0     C71170   9.297   6.366   8.898  0.2555  0.7255 -0.3210
  540MOL0     C71171   9.241   6.222   8.908  0.2021  0.5987 -0.5732
  540MOL0     O71172   9.181   6.177   8.784  0.1663  0.4418 -0.0297
  540MOL0     C71173   9.053   6.211   8.750 -0.8454 -0.0352  0.0520
  540MOL0     C71174   8.958   6.287   8.815 -1.5411  0.5278 -0.7222
  540MOL0     C71175   8.830   6.301   8.763 -0.0163  0.8147  0.0346
  540MOL0     C71176   8.789   6.244   8.641 -0.8597 -0.8887 -0.3059
  540MOL0     C71177   8.648   6.261   8.594 -1.3893 -0.3600 -0.1527
  540MOL0     O71178   8.570   6.347   8.661 -0.5793  0.3717  0.3252
  540MOL0     C71179   8.439   6.358   8.637  0.3607 -0.7507  0.5290
  540MOL0     C71180   8.395   6.435   8.522  0.1445 -0.1691 -0.6163
  540MOL0     C71181   8.255   6.450   8.507 -0.1912 -0.9649 -0.1911
  540MOL0     C71182   8.159   6.396   8.596 -0.3955  0.5477  1.2650
  540MOL0     O71183   8.026   6.395   8.572  0.8195 -0.2571  0.1281
  540MOL0     C71184   7.964   6.273   8.524  0.0451 -0.9147 -1.2709
  540MOL0     C71185   7.831   6.318   8.460  0.4720  0.8266 -0.5109
  540MOL0     C71186   7.742   6.352   8.588 -0.4569  0.2396  0.2143
  540MOL0     C71187   7.619   6.424   8.538  0.1116 -0.8241 -0.2789
  540MOL0     C71188   7.513   6.314   8.512  0.2837  0.2575 -0.5635
  540MOL0     C71189   7.386   6.379   8.465 -0.0714  0.4107 -0.0358
  540MOL0     C71190   7.268   6.301   8.503  0.6112 -0.1963  0.2228
  540MOL0     C71191   7.154   6.337   8.416  0.4799  0.1179  0.0680
  540MOL0    Cl71192   7.009   6.257   8.493 -0.2660 -0.3029 -0.0270
  540MOL0     C71193   8.209   6.320   8.698  0.1728  0.3494 -1.6486
  540MOL0     C71194   8.345   6.290   8.718 -0.3799 -1.0915 -0.7108
  540MOL0     O71195   8.614   6.178   8.506  0.1774  0.1256 -0.2864
  540MOL0     C71196   8.894   6.193   8.558  0.4504 -0.8121  0.5803
  540MOL0     C71197   9.018   6.177   8.622 -0.1795  0.3670 -0.5384
  540MOL0     N71198   9.268   6.730   9.000 -0.4006 -0.6492 -0.1346
  540MOL0     N71199   9.257   6.817   8.914 -0.3247  0.8161 -0.3764
  540MOL0     C71200   8.651   7.015   7.815 -0.1309  0.8058 -0.7785
  540MOL0     C71201   8.508   7.022   7.822 -0.0807  0.0009  0.7184
  540MOL0     C71202   8.099   6.931   7.931  0.8746  0.0684 -1.2926
  540MOL0     C71203   8.027   7.032   7.995 -1.1323 -0.5455 -0.1635
  540MOL0     C71204   7.894   7.048   7.982  0.4439  0.4884  0.4524
  540MOL0     C71205   7.817   6.948   7.912  0.2829 -0.3570 -0.3022
  540MOL0     O71206   7.676   6.945   7.908 -0.1114 -0.1442 -0.0904
  540MOL0     C71207   7.613   7.073   7.899  0.6139 -0.3725  0.4043
  540MOL0     C71208   7.481   7.065   7.830  0.4819 -0.5837  0.1556
  540MOL0     C71209   7.392   6.954   7.899  1.0111  0.4266 -0.1899
  540MOL0     C71210   7.361   6.983   8.047 -0.1736  0.6866  0.1288
  540MOL0     C71211   7.284   7.101   8.076  1.1197  0.3602  0.2354
  540MOL0     C71212   7.230   7.203   8.099 -0.1757  0.3682 -0.7486
  540MOL0     C71213   7.884   6.843   7.851  0.3882 -0.0818  0.4408
  540MOL0     C71214   8.023   6.842   7.862  0.0175  0.0245  0.0717
  540MOL0     H71215   8.471   7.078   8.151  3.3768  3.0885  0.8755
  540MOL0     H71216   8.710   7.046   8.155 -3.7517  0.6943  2.2700
  540MOL0     H71217   8.865   6.880   8.095 -1.7005 -0.8382 -3.2928
  540MOL0     H71218   8.942   7.042   8.115  2.2022 -0.5452 -0.1124
  540MOL0     H71219   9.114   7.007   7.971 -2.5475  0.8320 -0.2092
  540MOL0     H71220   9.051   6.849   7.905 -1.7878 -3.9915  1.4674
  540MOL0     H71221   9.225   6.788   8.061 -0.9491 -2.1060  0.3270
  540MOL0     H71222   9.068   6.750   8.136  0.9090 -0.7486  1.2938
  540MOL0     H71223   9.250   6.986   8.184  1.9834 -1.4361  0.7664
  540MOL0     H71224   9.091   6.966   8.257  0.8212 -0.4502  1.8864
  540MOL0     H71225   9.321   6.755   8.304 -3.7119 -0.9639 -2.8690
  540MOL0     H71226   9.175   6.764   8.377  0.8283  0.1999 -0.5843
  540MOL0     H71227   9.203   6.979   8.476 -2.1938 -1.7553  1.4788
  540MOL0     H71228   9.371   6.999   8.429 -0.2052  0.6269  1.7311
  540MOL0     H71229   9.236   6.790   8.600 -0.6896  0.2404  1.6909
  540MOL0     H71230   9.405   6.757   8.555 -0.0385 -0.7282  0.4319
  540MOL0     H71231   9.299   6.986   8.723 -0.4273 -0.9161  1.1295
  540MOL0     H71232   9.474   6.947   8.703  0.3601 -0.4486  3.3818
  540MOL0     H71233   9.519   6.663   8.792  0.3606  1.2810 -0.4898
  540MOL0     H71234   9.438   6.576   9.136 -1.1984  0.1681  0.8896
  540MOL0     H71235   9.520   6.499   9.002 -0.2167 -1.3381  0.7390
  540MOL0     H71236   9.241   6.432   9.097  3.2854  1.8619  4.2342
  540MOL0     H71237   9.385   6.331   9.092  0.7092 -1.0456 -1.5077
  540MOL0     H71238   9.219   6.430   8.855 -0.6573  2.0724  3.0345
  540MOL0     H71239   9.379   6.370   8.826 -1.6757 -1.8730 -2.8804
  540MOL0     H71240   9.156   6.236   8.975 -0.6851  1.7647 -1.8575
  540MOL0     H71241   9.303   6.148   8.959 -2.6227 -0.6015  1.3542
  540MOL0     H71242   8.995   6.328   8.908 -0.9283 -0.7229 -0.3906
  540MOL0     H71243   8.749   6.345   8.819  0.0180  3.8644 -2.0294
  540MOL0     H71244   8.466   6.490   8.461 -0.6627 -0.3455 -1.7549
  540MOL0     H71245   8.218   6.512   8.426  2.6295  0.5845 -0.4387
  540MOL0     H71246   7.948   6.211   8.613  3.4962  3.7347  3.1469
  540MOL0     H71247   8.027   6.218   8.453  0.7139  0.2568 -1.6139
  540MOL0     H71248   7.794   6.242   8.390  0.4515  1.5855 -1.3334
  540MOL0     H71249   7.851   6.400   8.391 -2.6181  1.7268 -0.4668
  540MOL0     H71250   7.783   6.431   8.651 -0.4661 -0.5191  1.1840
  540MOL0     H71251   7.723   6.268   8.655 -2.6552  1.9086  1.8679
  540MOL0     H71252   7.589   6.501   8.610  0.2592 -0.0500 -1.0355
  540MOL0     H71253   7.645   6.489   8.454  1.7867 -1.3026 -0.1745
  540MOL0     H71254   7.503   6.268   8.610  0.6579  1.3772  0.0250
  540MOL0     H71255   7.549   6.243   8.437 -0.6914  1.3909 -2.1672
  540MOL0     H71256   7.391   6.387   8.356 -1.3817  1.9381 -0.0325
  540MOL0     H71257   7.378   6.483   8.499 -0.2327  0.8252 -1.2670
  540MOL0     H71258   7.291   6.194   8.497  0.4476 -0.6379  4.3892
  540MOL0     H71259   7.235   6.326   8.604  0.2056  2.2283 -0.4446
  540MOL0     H71260   7.163   6.290   8.317 -4.0906 -2.5305  0.6282
  540MOL0     H71261   7.131   6.443   8.406  0.4459  0.1500  0.4743
  540MOL0     H71262   8.140   6.273   8.767  2.6567 -1.8134 -0.4099
  540MOL0     H71263   8.390   6.232   8.797  0.5505 -0.9165 -1.0997
  540MOL0     H71264   8.884   6.176   8.451  0.4436 -0.9570  0.6045
  540MOL0     H71265   9.096   6.126   8.566 -0.1896 -1.3091  0.8838
  540MOL0     H71266   8.696   7.012   7.716  2.3174  1.5615  0.2269
  540MOL0     H71267   8.461   7.014   7.724 -0.6359 -0.9853  1.0557
  540MOL0     H71268   8.092   7.105   8.041 -2.2233  1.6572 -1.9006
  540MOL0     H71269   7.842   7.130   8.031  0.5649  0.3964  0.7367
  540MOL0     H71270   7.681   7.128   7.833  1.2309 -1.5400  0.0561
  540MOL0     H71271   7.608   7.124   7.996  1.5390  1.4377 -0.4363
  540MOL0     H71272   7.428   7.160   7.824  3.0847  0.9951  0.6599
  540MOL0     H71273   7.503   7.032   7.728  1.5649  1.5864 -0.3765
  540MOL0     H71274   7.440   6.857   7.884  2.2680  1.1806 -1.1901
  540MOL0     H71275   7.299   6.935   7.844  1.8326 -2.1904 -0.8249
  540MOL0     H71276   7.298   6.897   8.069  0.5018 -0.2115 -1.2187
  540MOL0     H71277   7.456   6.984   8.102  1.6857 -1.8343 -2.6261
  540MOL0     H71278   7.172   7.283   8.141  0.1050  1.3413 -2.1613
  540MOL0     H71279   7.825   6.772   7.794 -0.3585  1.2871 -0.5575
  540MOL0     H71280   8.071   6.763   7.806 -1.1693 -0.3091 -0.5197
  541MOL0     O71281   7.858   7.723   3.081 -0.4084 -0.3518 -0.1924
  541MOL0     C71282   7.921   7.665   2.992  0.2796  0.3288 -0.6264
  541MOL0     O71283   7.858   7.608   2.879  0.4206 -0.5167 -0.5151
  541MOL0     C71284   7.729   7.614   2.844  0.4272 -0.9593  0.7804
  541MOL0     C71285   7.705   7.643   2.701 -0.3379  0.0018 -0.2561
  541MOL0     C71286   7.585   7.623   2.637  1.0053 -0.4270 -0.7740
  541MOL0     C71287   7.480   7.588   2.725 -0.1464 -0.7740 -0.4159
  541MOL0     O71288   7.357   7.557   2.665 -0.5829 -0.2589 -0.2270
  541MOL0     C71289   7.246   7.529   2.747  0.6312  0.7618 -0.4141
  541MOL0     C71290   7.110   7.516   2.666 -0.0785 -0.4474 -0.0781
  541MOL0     C71291   7.085   7.384   2.592  0.0210  0.5124 -0.0044
  541MOL0     C71292   7.031   7.284   2.708 -0.5406  0.2144 -1.0425
  541MOL0     C71293   6.967   7.165   2.635  0.1195 -0.3701  0.2903
  541MOL0     C71294   6.822   7.171   2.564 -0.2796 -0.1839 -0.2831
  541MOL0     C71295   6.773   7.044   2.497 -0.3972 -1.0074  0.2273
  541MOL0     C71296   6.637   7.064   2.432  0.0836  0.1162 -0.9241
  541MOL0     N71297   6.534   7.044   2.541 -0.6590  0.5534  0.0161
  541MOL0     C71298   6.456   7.138   2.600 -0.8286  0.2955  0.7086
  541MOL0     C71299   6.386   7.072   2.698  0.1076 -0.1738  0.1667
  541MOL0     C71300   6.269   7.113   2.771 -0.1327 -0.2097 -0.3857
  541MOL0     C71301   6.309   7.209   2.876 -0.0650 -0.3290  0.2683
  541MOL0     C71302   6.197   7.201   2.990  0.2066 -1.0542 -0.0388
  541MOL0     C71303   6.236   7.310   3.095  0.9863 -0.8223  0.1377
  541MOL0     O71304   6.140   7.299   3.198  0.4860  0.1777 -0.0992
  541MOL0     C71305   6.114   7.398   3.285  0.3103 -0.8091  0.2628
  541MOL0     C71306   6.019   7.374   3.389  0.1259 -0.2330  0.4563
  541MOL0     C71307   5.973   7.478   3.473  0.7145 -0.2593 -0.2096
  541MOL0     C71308   6.030   7.604   3.472  0.7015 -0.1377  0.6941
  541MOL0     C71309   5.982   7.719   3.560 -0.0524  0.1632  0.9169
  541MOL0     O71310   5.849   7.707   3.592 -0.4571 -0.0463  0.8324
  541MOL0     C71311   5.792   7.804   3.675 -1.0422  0.7433  0.6429
  541MOL0     C71312   5.751   7.922   3.624  0.8217 -0.7573 -0.0886
  541MOL0     C71313   5.707   8.023   3.715 -0.0882  0.3382  0.0556
  541MOL0     C71314   5.696   7.998   3.857 -0.4125  0.4020 -0.3540
  541MOL0     O71315   5.638   8.077   3.953 -0.6115  0.5208 -0.3825
  541MOL0     C71316   5.690   8.208   3.946  0.2822  0.2430 -0.0758
  541MOL0     C71317   5.604   8.292   4.044  0.6032  0.0645 -0.0058
  541MOL0     C71318   5.475   8.336   3.962 -0.4673  0.7239 -0.0928
  541MOL0     C71319   5.399   8.450   4.035  1.3770 -0.0058 -0.4987
  541MOL0     C71320   5.278   8.501   3.968 -0.3434 -0.9594 -0.1891
  541MOL0     C71321   5.159   8.411   3.956  0.4687 -0.2108 -0.4518
  541MOL0     C71322   5.051   8.478   3.875  0.1989  0.1647  0.9294
  541MOL0     C71323   4.974   8.589   3.944  0.1937  0.6758  0.2160
  541MOL0    Cl71324   5.033   8.752   3.867  0.0579  0.5395  0.4690
  541MOL0     C71325   5.732   7.873   3.905 -0.3738 -0.3055 -0.8107
  541MOL0     C71326   5.782   7.770   3.816 -0.2079 -1.0652 -0.2286
  541MOL0     O71327   6.057   7.814   3.582 -0.3772 -0.3344  0.4622
  541MOL0     C71328   6.122   7.626   3.371 -0.2487 -0.5101 -0.9689
  541MOL0     C71329   6.160   7.528   3.274  1.1869 -0.1791 -0.7459
  541MOL0     N71330   6.445   6.944   2.718 -0.3919  0.0895 -0.3078
  541MOL0     N71331   6.528   6.929   2.614  0.1245 -0.6461  0.3651
  541MOL0     C71332   7.498   7.591   2.867  0.7099  0.1096 -0.6125
  541MOL0     C71333   7.625   7.580   2.917 -0.1955  0.0734 -0.7427
  541MOL0     C71334   8.068   7.655   2.989  1.2986  0.2271  0.1116
  541MOL0     C71335   8.139   7.647   3.108  0.4455 -0.2912  0.5565
  541MOL0     C71336   8.276   7.650   3.108  0.1278  0.2866  0.2281
  541MOL0     C71337   8.351   7.651   2.989 -0.7042 -0.6582  0.3084
  541MOL0     O71338   8.484   7.640   3.005 -0.8278  0.1815  0.4426
  541MOL0     C71339   8.580   7.673   2.903  0.5758  0.3930 -1.0082
  541MOL0     C71340   8.721   7.707   2.952  0.5135  0.2101 -1.2323
  541MOL0     C71341   8.764   7.606   3.058  0.3007 -1.0885  0.4063
  541MOL0     C71342   8.900   7.619   3.126  0.3211 -0.0803  0.2360
  541MOL0     C71343   8.904   7.739   3.207  0.4790 -0.1212 -0.0232
  541MOL0     C71344   8.891   7.833   3.286  0.4771  0.3159 -0.0888
  541MOL0     C71345   8.279   7.664   2.872  0.2914 -0.1324  0.1472
  541MOL0     C71346   8.139   7.667   2.870 -0.4508 -0.1456  1.0261
  541MOL0     H71347   7.784   7.679   2.636  0.3717  1.1962  1.2201
  541MOL0     H71348   7.568   7.641   2.532  1.2737 -0.0525 -0.7546
  541MOL0     H71349   7.222   7.609   2.818 -0.4759  0.2022 -0.1409
  541MOL0     H71350   7.249   7.438   2.806 -1.2213  0.1044 -1.2351
  541MOL0     H71351   7.109   7.592   2.587  3.5031  0.1454  0.2884
  541MOL0     H71352   7.032   7.534   2.740 -2.0838 -0.5978 -2.0520
  541MOL0     H71353   7.175   7.345   2.543 -0.9566 -1.8295 -0.0590
  541MOL0     H71354   7.012   7.397   2.511  0.7058 -0.2579 -0.7658
  541MOL0     H71355   7.113   7.237   2.764  1.6441  2.6219 -2.0398
  541MOL0     H71356   6.954   7.332   2.769 -1.9398 -3.2106  0.1399
  541MOL0     H71357   6.968   7.079   2.702  2.2515 -2.9928 -2.8216
  541MOL0     H71358   7.040   7.136   2.559 -2.5051  2.0536 -3.5224
  541MOL0     H71359   6.821   7.261   2.501 -0.7267  0.1826  0.2436
  541MOL0     H71360   6.757   7.191   2.649  1.7117 -0.6290  1.4332
  541MOL0     H71361   6.852   7.035   2.421  2.0300  3.5680  1.7862
  541MOL0     H71362   6.759   6.958   2.563 -0.7567 -0.0083  1.4660
  541MOL0     H71363   6.640   6.981   2.361 -3.5458  1.0422 -2.3697
  541MOL0     H71364   6.626   7.157   2.377  1.1469  1.7769  1.4862
  541MOL0     H71365   6.426   7.227   2.546  0.0850 -0.0359 -0.3743
  541MOL0     H71366   6.214   7.035   2.824  0.9462 -1.1152 -0.5611
  541MOL0     H71367   6.201   7.174   2.710  2.4793  2.2603 -1.0272
  541MOL0     H71368   6.295   7.310   2.837 -2.7089 -0.2733  1.1944
  541MOL0     H71369   6.408   7.184   2.915 -0.0790 -0.4073  0.2536
  541MOL0     H71370   6.097   7.222   2.950  0.2688 -2.3916 -0.9793
  541MOL0     H71371   6.202   7.106   3.044 -0.4915 -2.3818 -2.1793
  541MOL0     H71372   6.238   7.412   3.056 -4.3475  0.7376  2.9265
  541MOL0     H71373   6.332   7.290   3.143  0.5348 -0.9946  0.9886
  541MOL0     H71374   5.976   7.277   3.412 -1.7702  0.3776 -0.3703
  541MOL0     H71375   5.889   7.449   3.536  0.0218 -0.7605 -1.3309
  541MOL0     H71376   5.750   7.942   3.517 -0.4013  2.6531  0.4106
  541MOL0     H71377   5.683   8.122   3.678  0.9548  0.6989  0.3013
  541MOL0     H71378   5.695   8.257   3.848  0.1322  0.7997  0.1907
  541MOL0     H71379   5.794   8.212   3.979 -0.1291  1.2275  1.2200
  541MOL0     H71380   5.666   8.376   4.077  2.0265 -1.4872  1.4435
  541MOL0     H71381   5.585   8.232   4.134 -1.4817  2.1340  1.0441
  541MOL0     H71382   5.415   8.245   3.952 -0.6865  1.1011 -3.4895
  541MOL0     H71383   5.498   8.371   3.861  1.2762  0.3589  0.1391
  541MOL0     H71384   5.379   8.416   4.137 -1.6238 -0.8550 -1.2558
  541MOL0     H71385   5.464   8.537   4.045  0.5748  0.7758 -1.8213
  541MOL0     H71386   5.309   8.535   3.868  0.8992 -2.7153 -0.4695
  541MOL0     H71387   5.246   8.600   4.002 -0.5074 -0.9054 -0.4998
  541MOL0     H71388   5.124   8.395   4.059  2.6934  3.1191  0.9975
  541MOL0     H71389   5.193   8.318   3.910 -1.1858 -0.3604 -1.4818
  541MOL0     H71390   5.096   8.507   3.780  2.7650 -0.9274  1.7442
  541MOL0     H71391   4.973   8.403   3.853  2.2901 -1.2784 -2.5181
  541MOL0     H71392   5.000   8.587   4.051  1.5634 -1.0820 -0.0921
  541MOL0     H71393   4.866   8.571   3.937 -0.0056  1.3890  1.1236
  541MOL0     H71394   5.724   7.855   4.012 -1.3737 -0.6565 -0.9351
  541MOL0     H71395   5.826   7.677   3.852 -0.5415 -2.0385 -2.2240
  541MOL0     H71396   6.170   7.724   3.367  1.9213 -1.5149 -1.1842
  541MOL0     H71397   6.229   7.557   3.195  1.0383 -0.2960 -0.9183
  541MOL0     H71398   7.414   7.585   2.936 -0.4253  0.6883 -1.8848
  541MOL0     H71399   7.664   7.561   3.017  0.1537 -0.9567 -1.0643
  541MOL0     H71400   8.082   7.654   3.201 -3.0235  0.9764 -1.4810
  541MOL0     H71401   8.329   7.642   3.202  3.0843 -2.3023 -1.5001
  541MOL0     H71402   8.542   7.764   2.856 -0.5642  0.0263 -0.8501
  541MOL0     H71403   8.574   7.598   2.824 -1.4906 -3.4033  2.3240
  541MOL0     H71404   8.795   7.705   2.872  0.0738 -0.7118 -1.6285
  541MOL0     H71405   8.729   7.809   2.991 -2.3497  0.0677 -0.0315
  541MOL0     H71406   8.773   7.513   3.000 -1.3769  0.9006 -3.4482
  541MOL0     H71407   8.694   7.583   3.138 -0.7183  1.7041  0.4239
  541MOL0     H71408   8.932   7.538   3.192  1.0299 -2.2050 -2.5274
  541MOL0     H71409   8.971   7.613   3.042  0.1362 -1.3186  0.1607
  541MOL0     H71410   8.879   7.929   3.332  1.6307  0.4776 -0.1035
  541MOL0     H71411   8.323   7.666   2.773 -0.2610 -0.5615 -0.1116
  541MOL0     H71412   8.092   7.666   2.772  2.9675 -1.7202 -0.7544
  542MOL0     O71413   1.146   6.022   7.174 -0.0501  0.8827  0.1535
  542MOL0     C71414   1.101   6.131   7.134  0.5252  0.2198 -0.5124
  542MOL0     O71415   1.176   6.224   7.063  0.5720  0.0124  0.4207
  542MOL0     C71416   1.309   6.195   7.025  0.5770  0.4335 -0.5519
  542MOL0     C71417   1.418   6.241   7.095  0.5315 -0.2799 -0.4942
  542MOL0     C71418   1.544   6.223   7.055 -0.7135 -0.1953 -0.2522
  542MOL0     C71419   1.580   6.141   6.949  0.1428  0.0561  0.4862
  542MOL0     O71420   1.711   6.130   6.909  0.1839 -0.0929  0.3283
  542MOL0     C71421   1.738   6.054   6.796  0.7754  0.3757 -0.1327
  542MOL0     C71422   1.878   6.095   6.746  0.5599  0.7850  0.1183
  542MOL0     C71423   1.950   5.974   6.682 -0.0702 -0.3249 -1.1690
  542MOL0     C71424   2.080   6.035   6.624  0.0282  0.2897  1.3857
  542MOL0     C71425   2.148   5.933   6.524 -0.5295 -0.0683 -0.4282
  542MOL0     C71426   2.275   6.003   6.474 -0.0889  0.4737 -0.0032
  542MOL0     C71427   2.349   5.935   6.356  0.4022  0.7164 -0.2031
  542MOL0     C71428   2.242   5.905   6.251 -0.4455  0.6005 -0.0089
  542MOL0     N71429   2.289   5.901   6.116  0.0181  0.6789  0.1475
  542MOL0     C71430   2.395   5.831   6.068  0.0222 -0.3870  0.6128
  542MOL0     C71431   2.378   5.840   5.934 -0.2129  0.7350 -0.4933
  542MOL0     C71432   2.457   5.772   5.824 -0.1466  0.6448  0.4611
  542MOL0     C71433   2.606   5.795   5.844 -0.2360  0.2844 -0.0545
  542MOL0     C71434   2.683   5.754   5.719  0.3169  0.1989 -0.5402
  542MOL0     C71435   2.823   5.756   5.737 -0.6579  0.7909 -0.0185
  542MOL0     O71436   2.880   5.748   5.605 -0.5413 -0.3588 -0.6380
  542MOL0     C71437   3.006   5.797   5.579 -0.1025  1.0481 -0.3415
  542MOL0     C71438   3.066   5.903   5.647 -0.0410 -0.4331  0.1395
  542MOL0     C71439   3.187   5.938   5.604 -0.2786 -0.2039  0.0993
  542MOL0     C71440   3.255   5.883   5.493 -0.7804  0.7563  0.4891
  542MOL0     C71441   3.384   5.937   5.437 -0.4649 -0.6403 -0.3334
  542MOL0     O71442   3.458   5.869   5.340 -0.9173  0.1527  0.2430
  542MOL0     C71443   3.589   5.914   5.325  1.2413 -0.1490 -0.2978
  542MOL0     C71444   3.689   5.877   5.418 -0.2674  0.3479 -0.0043
  542MOL0     C71445   3.816   5.925   5.406 -0.0781 -0.0278  0.0450
  542MOL0     C71446   3.851   6.023   5.312  0.8973  0.3528 -0.3005
  542MOL0     O71447   3.977   6.059   5.293 -0.8187 -0.0371 -0.0727
  542MOL0     C71448   4.024   6.182   5.233  0.2493  0.1232 -0.2398
  542MOL0     C71449   4.113   6.155   5.116 -0.1502 -0.3273 -0.3243
  542MOL0     C71450   4.051   6.075   5.008  0.2531 -0.5779 -0.0578
  542MOL0     C71451   4.140   6.058   4.890  0.0041  0.1066  0.5126
  542MOL0     C71452   4.067   5.949   4.801  0.6869 -0.6953 -0.9384
  542MOL0     C71453   4.166   5.847   4.739  0.1445  0.6086 -0.0852
  542MOL0     C71454   4.281   5.909   4.661 -0.1896  0.4892 -0.2914
  542MOL0     C71455   4.260   5.983   4.532  0.1918 -0.0158 -0.6455
  542MOL0    Cl71456   4.184   6.133   4.543  0.2082  0.2839 -0.6819
  542MOL0     C71457   3.752   6.051   5.219  0.4700 -0.0632 -0.0712
  542MOL0     C71458   3.621   6.000   5.217 -0.2816 -0.1374 -0.1835
  542MOL0     O71459   3.428   6.039   5.489 -0.1966 -0.3706 -0.2270
  542MOL0     C71460   3.194   5.776   5.422  0.0119 -0.6849  0.1364
  542MOL0     C71461   3.069   5.739   5.468  0.5805  0.7209  0.5947
  542MOL0     N71462   2.279   5.927   5.904 -0.1444 -0.0223  0.0384
  542MOL0     N71463   2.225   5.971   6.012 -0.4014  0.2357 -0.4017
  542MOL0     C71464   1.473   6.090   6.881 -0.6527  0.6694 -0.2289
  542MOL0     C71465   1.341   6.115   6.914  0.5135 -0.4320 -0.4120
  542MOL0     C71466   0.955   6.144   7.146 -1.0897  0.4524  0.6313
  542MOL0     C71467   0.890   6.267   7.119  0.3853 -0.1844 -0.0866
  542MOL0     C71468   0.753   6.285   7.140 -0.3232  0.0942 -0.3833
  542MOL0     C71469   0.685   6.185   7.212  1.1208 -0.8198  0.4857
  542MOL0     O71470   0.545   6.187   7.223 -1.0097  0.4588 -0.1523
  542MOL0     C71471   0.482   6.315   7.239 -0.3171  0.2763  0.9748
  542MOL0     C71472   0.401   6.348   7.104  0.3270 -0.3045  0.5776
  542MOL0     C71473   0.254   6.311   7.136 -0.3570 -0.5779 -0.0981
  542MOL0     C71474   0.232   6.169   7.178  0.1129 -1.0157  0.5360
  542MOL0     C71475   0.095   6.131   7.180  0.2262  0.1220  0.4867
  542MOL0     C71476  -0.024   6.105   7.165  0.5548  0.1367 -0.3752
  542MOL0     C71477   0.746   6.060   7.235  0.1901 -0.1623 -0.4748
  542MOL0     C71478   0.881   6.043   7.210 -0.0262  0.4324 -0.0195
  542MOL0     H71479   1.412   6.307   7.181  6.5790  0.4091 -0.1505
  542MOL0     H71480   1.613   6.284   7.113 -0.8695 -2.7934  2.9784
  542MOL0     H71481   1.674   6.071   6.709 -1.8766  0.4496  1.7011
  542MOL0     H71482   1.720   5.949   6.820 -0.6315  0.6895  0.2896
  542MOL0     H71483   1.932   6.125   6.837  1.6935  1.9139 -0.8930
  542MOL0     H71484   1.869   6.169   6.667 -0.5220 -0.2971 -0.8064
  542MOL0     H71485   1.887   5.933   6.603  0.3146 -0.0602 -1.6177
  542MOL0     H71486   1.966   5.904   6.764  2.3695  2.5592  1.0570
  542MOL0     H71487   2.050   6.121   6.562  0.8744 -0.5750 -0.2941
  542MOL0     H71488   2.151   6.053   6.705  2.5160 -2.7506  0.0795
  542MOL0     H71489   2.071   5.919   6.447 -3.9575  1.5908  2.4261
  542MOL0     H71490   2.181   5.839   6.569  3.5199  2.2132  1.8936
  542MOL0     H71491   2.338   6.015   6.562  0.6014 -2.8855  0.1019
  542MOL0     H71492   2.239   6.102   6.445  1.7137  0.4235 -2.8558
  542MOL0     H71493   2.431   6.000   6.325 -1.0147  0.4174 -5.5369
  542MOL0     H71494   2.393   5.842   6.395  0.3565  0.1914 -1.3576
  542MOL0     H71495   2.169   5.987   6.254 -2.3817 -1.0499  0.2972
  542MOL0     H71496   2.187   5.813   6.272  0.7834  0.3663  2.5121
  542MOL0     H71497   2.457   5.761   6.122  0.4380 -1.0787 -0.7192
  542MOL0     H71498   2.421   5.823   5.735 -1.1559 -0.7142  0.0507
  542MOL0     H71499   2.438   5.664   5.818  1.3032  0.4160 -4.3606
  542MOL0     H71500   2.648   5.738   5.927  0.6564  0.4649 -0.3705
  542MOL0     H71501   2.629   5.897   5.878 -1.7403 -0.0748  2.2811
  542MOL0     H71502   2.655   5.649   5.703  1.5261 -0.7921  2.8996
  542MOL0     H71503   2.657   5.819   5.635 -1.3284 -0.8352 -0.8882
  542MOL0     H71504   2.849   5.664   5.789  0.1758 -0.3935 -2.3852
  542MOL0     H71505   2.859   5.838   5.800  1.9590  0.3395 -0.8348
  542MOL0     H71506   3.012   5.956   5.725 -0.7970 -1.5207  0.3776
  542MOL0     H71507   3.214   6.036   5.643 -1.9782  1.8855 -3.4563
  542MOL0     H71508   3.655   5.814   5.499  0.3786 -0.0425 -0.0334
  542MOL0     H71509   3.885   5.916   5.489  1.9363  1.6076 -1.3617
  542MOL0     H71510   4.083   6.244   5.301  2.7813 -2.6378  0.2930
  542MOL0     H71511   3.933   6.233   5.202 -1.2545 -2.9841 -1.4452
  542MOL0     H71512   4.196   6.089   5.146 -0.5561 -1.3636 -1.3906
  542MOL0     H71513   4.140   6.254   5.079 -1.1622  0.7588  1.7177
  542MOL0     H71514   3.958   6.124   4.978  1.2645  1.3015 -0.2359
  542MOL0     H71515   4.031   5.978   5.055  1.4456 -1.3985 -1.1704
  542MOL0     H71516   4.165   6.153   4.841 -1.5794 -0.8304 -2.3223
  542MOL0     H71517   4.236   6.016   4.925  0.3347 -0.0283 -0.5348
  542MOL0     H71518   4.014   6.006   4.724  0.9332  1.1593  0.2034
  542MOL0     H71519   3.990   5.891   4.852  0.7708  0.7783  0.9537
  542MOL0     H71520   4.121   5.777   4.668 -0.6590 -1.5746  2.3973
  542MOL0     H71521   4.211   5.793   4.823 -0.9813  1.5930  1.1888
  542MOL0     H71522   4.347   5.968   4.725 -1.3962 -0.7066  2.1889
  542MOL0     H71523   4.344   5.826   4.629  0.2535 -0.2871  2.3248
  542MOL0     H71524   4.200   5.925   4.460  0.8793 -0.3095 -0.9870
  542MOL0     H71525   4.359   5.990   4.487  1.7952  0.2728  2.6681
  542MOL0     H71526   3.793   6.096   5.129 -2.4366 -2.0594 -2.6441
  542MOL0     H71527   3.543   6.017   5.143  0.9579 -3.0456 -2.3650
  542MOL0     H71528   3.231   5.725   5.334  2.0352 -0.7321  0.9749
  542MOL0     H71529   3.016   5.665   5.409 -2.4459  1.8182  1.7816
  542MOL0     H71530   1.473   6.023   6.795 -0.7555  0.6601 -0.2223
  542MOL0     H71531   1.259   6.085   6.849 -0.3113  1.0234 -0.1013
  542MOL0     H71532   0.944   6.350   7.075  1.4956  0.1013  1.7218
  542MOL0     H71533   0.702   6.375   7.107  1.7412  0.0836 -4.2176
  542MOL0     H71534   0.550   6.400   7.253 -0.7844  0.9152 -0.5220
  542MOL0     H71535   0.410   6.307   7.321 -1.9836 -0.0025 -0.4749
  542MOL0     H71536   0.413   6.453   7.077 -2.2165 -0.8783 -3.6947
  542MOL0     H71537   0.441   6.286   7.024 -0.8385 -0.2202 -0.0950
  542MOL0     H71538   0.197   6.330   7.045  1.0895  2.3673 -0.5215
  542MOL0     H71539   0.224   6.382   7.214 -0.8746  0.5492 -1.2869
  542MOL0     H71540   0.283   6.105   7.106  2.2751  0.3049  0.7983
  542MOL0     H71541   0.283   6.143   7.271  0.7491 -4.3878 -0.6208
  542MOL0     H71542  -0.128   6.082   7.153 -0.9458  2.8462  4.6998
  542MOL0     H71543   0.688   5.984   7.287  1.4886 -0.5457  0.4639
  542MOL0     H71544   0.924   5.952   7.249 -3.1013 -0.8905  0.4819
  543MOL0     O71545   0.645   0.867   5.333  0.5340 -0.8838  0.0264
  543MOL0     C71546   0.747   0.798   5.327  0.6309 -0.6619 -0.3090
  543MOL0     O71547   0.753   0.666   5.304  0.7124  0.2936  0.1656
  543MOL0     C71548   0.646   0.594   5.264 -0.0503 -0.1853  0.3962
  543MOL0     C71549   0.559   0.631   5.159  0.4552  0.5539  0.2194
  543MOL0     C71550   0.434   0.567   5.161 -0.1877 -0.7109  0.3062
  543MOL0     C71551   0.384   0.487   5.258 -0.4972 -0.0375  0.2997
  543MOL0     O71552   0.258   0.420   5.252  0.2833  0.7539  0.1030
  543MOL0     C71553   0.154   0.473   5.170 -0.3041 -0.8371  0.1705
  543MOL0     C71554   0.026   0.404   5.216  0.1591  1.2261 -1.1758
  543MOL0     C71555  -0.083   0.407   5.102  0.8070 -0.3404 -0.6215
  543MOL0     C71556  -0.202   0.339   5.161  0.1821  0.3199 -0.3373
  543MOL0     C71557  -0.323   0.328   5.063 -0.6167 -0.3546 -0.2337
  543MOL0     C71558  -0.354   0.432   4.959 -0.2752 -1.0876  0.4899
  543MOL0     C71559  -0.377   0.564   5.013  0.2075 -0.5761  0.8248
  543MOL0     C71560  -0.525   0.574   5.055  0.5445 -0.0983  0.2445
  543MOL0     N71561  -0.541   0.715   5.080 -1.0202 -0.8003  0.1705
  543MOL0     C71562  -0.452   0.801   5.153 -0.1988 -0.1758 -0.7174
  543MOL0     C71563  -0.525   0.911   5.164 -0.3659  0.2274  0.0693
  543MOL0     C71564  -0.473   1.040   5.231 -0.2536  0.3237  0.0895
  543MOL0     C71565  -0.534   1.078   5.364 -0.3617  0.1824 -0.3741
  543MOL0     C71566  -0.476   1.214   5.401  0.4111 -0.4500  0.2584
  543MOL0     C71567  -0.526   1.252   5.532 -0.0283 -0.2161 -0.5291
  543MOL0     O71568  -0.495   1.153   5.633  0.3099 -0.3839  0.8338
  543MOL0     C71569  -0.366   1.149   5.685 -0.7751  0.6867  0.2922
  543MOL0     C71570  -0.268   1.247   5.686  0.2105  0.1923 -0.0590
  543MOL0     C71571  -0.142   1.228   5.733 -0.1785 -0.3895 -0.6903
  543MOL0     C71572  -0.109   1.112   5.802 -0.1407  1.4168 -0.5860
  543MOL0     C71573   0.025   1.091   5.854  0.5357 -0.5899 -0.6307
  543MOL0     O71574   0.048   0.965   5.903 -0.1885  0.3013 -0.0293
  543MOL0     C71575   0.147   0.937   5.997  0.5612  0.0822  0.7228
  543MOL0     C71576   0.112   0.845   6.095 -0.2177  0.7054  0.6014
  543MOL0     C71577   0.197   0.813   6.200  0.5033 -0.8200 -0.4352
  543MOL0     C71578   0.326   0.861   6.195  0.1307 -0.1586  0.0045
  543MOL0     O71579   0.415   0.809   6.292  0.7050 -0.3872 -0.2176
  543MOL0     C71580   0.370   0.796   6.433  0.0494 -0.0057  0.2768
  543MOL0     C71581   0.487   0.735   6.501 -0.2259 -0.7326 -0.0540
  543MOL0     C71582   0.591   0.834   6.554  0.1173  0.2327 -0.3206
  543MOL0     C71583   0.704   0.784   6.651  0.3578 -0.4182  0.4909
  543MOL0     C71584   0.813   0.695   6.585 -0.5760 -0.7916  0.3964
  543MOL0     C71585   0.926   0.664   6.677  0.3415  1.2682 -0.0850
  543MOL0     C71586   1.010   0.546   6.609 -0.3610 -0.4088  0.4588
  543MOL0     C71587   1.150   0.522   6.676  0.4595  0.2582 -0.7400
  543MOL0    Cl71588   1.245   0.675   6.701  0.3684  0.1545 -0.3868
  543MOL0     C71589   0.365   0.954   6.098 -0.6716 -0.4528  0.0157
  543MOL0     C71590   0.275   0.995   5.997 -0.6894  0.9258  0.4582
  543MOL0     O71591   0.103   1.188   5.852  0.2353  0.4893 -0.5863
  543MOL0     C71592  -0.210   1.015   5.809  0.7754  0.3476 -0.9246
  543MOL0     C71593  -0.334   1.032   5.754  1.4860 -0.9093 -0.3141
  543MOL0     N71594  -0.651   0.901   5.104  0.7821  0.4808 -0.2502
  543MOL0     N71595  -0.655   0.781   5.051 -0.3452 -0.4101 -0.3416
  543MOL0     C71596   0.481   0.451   5.349 -1.0152 -0.5429  0.2619
  543MOL0     C71597   0.616   0.500   5.353  0.7897  0.6631  0.2949
  543MOL0     C71598   0.874   0.849   5.338  0.3472  0.1297  0.0539
  543MOL0     C71599   0.903   0.974   5.276  1.0146  0.3993  0.0788
  543MOL0     C71600   1.030   1.016   5.269  0.1412  0.4024 -0.4097
  543MOL0     C71601   1.133   0.951   5.346  0.5863 -0.7348  0.2112
  543MOL0     O71602   1.253   1.012   5.325  0.0760  0.2041 -0.4605
  543MOL0     C71603   1.367   0.936   5.347 -0.7088  0.3576  0.8403
  543MOL0     C71604   1.459   0.970   5.233 -0.3496  0.2074 -0.5697
  543MOL0     C71605   1.590   0.875   5.244 -0.5663 -0.3513  0.0507
  543MOL0     C71606   1.694   0.935   5.353  0.4224 -0.0371 -0.0420
  543MOL0     C71607   1.795   0.842   5.402 -0.1343  0.0696 -0.0503
  543MOL0     C71608   1.888   0.781   5.457  0.7873 -0.1987 -0.0341
  543MOL0     C71609   1.101   0.834   5.413 -0.7514  0.2972  0.0473
  543MOL0     C71610   0.974   0.780   5.407  0.4758  0.3944 -0.2454
  543MOL0     H71611   0.581   0.696   5.075 -1.2565 -1.5303 -1.9888
  543MOL0     H71612   0.367   0.596   5.081 -1.3043 -1.1970  1.0450
  543MOL0     H71613   0.168   0.455   5.063 -1.1182  1.5299 -0.4051
  543MOL0     H71614   0.132   0.579   5.187 -1.5150 -1.3566  2.2220
  543MOL0     H71615  -0.001   0.445   5.313  3.9558  0.7336  0.2639
  543MOL0     H71616   0.045   0.297   5.235 -3.7041 -0.1266 -3.7264
  543MOL0     H71617  -0.046   0.349   5.018  0.1543 -3.0807  0.8689
  543MOL0     H71618  -0.111   0.511   5.080  0.9212 -0.0653  0.4576
  543MOL0     H71619  -0.170   0.240   5.196 -3.1971 -1.1723 -1.1011
  543MOL0     H71620  -0.232   0.392   5.252  0.7482  4.6862 -2.4077
  543MOL0     H71621  -0.402   0.337   5.138 -3.4409  1.0286 -3.1381
  543MOL0     H71622  -0.320   0.232   5.011  1.3307  0.0067 -0.8782
  543MOL0     H71623  -0.437   0.396   4.898  2.2288  0.8991 -4.6186
  543MOL0     H71624  -0.271   0.439   4.889  0.5053 -2.5211  1.2162
  543MOL0     H71625  -0.327   0.576   5.110 -0.2078 -1.7423  1.2070
  543MOL0     H71626  -0.351   0.633   4.933 -0.9335 -0.6708  0.3528
  543MOL0     H71627  -0.560   0.507   5.135  0.3266 -1.8686 -1.2619
  543MOL0     H71628  -0.586   0.528   4.977  2.7088 -5.6693  1.3563
  543MOL0     H71629  -0.359   0.770   5.199 -0.4842  0.5208  0.3636
  543MOL0     H71630  -0.501   1.120   5.161  1.6428  0.2277 -0.8234
  543MOL0     H71631  -0.364   1.034   5.237 -0.3316 -0.4682  0.9460
  543MOL0     H71632  -0.512   1.001   5.437  1.0055  1.0013  0.1218
  543MOL0     H71633  -0.643   1.075   5.365 -0.5076  2.8036  0.1851
  543MOL0     H71634  -0.367   1.205   5.403  0.6190  0.1502 -2.9715
  543MOL0     H71635  -0.503   1.292   5.329  1.1844  1.0878  1.5516
  543MOL0     H71636  -0.635   1.257   5.528 -0.2265 -3.0984 -0.7482
  543MOL0     H71637  -0.494   1.349   5.572 -3.1488  0.2727  1.1467
  543MOL0     H71638  -0.294   1.338   5.634  0.3648  0.1824 -0.1517
  543MOL0     H71639  -0.073   1.310   5.717 -1.2756  0.8198  0.5385
  543MOL0     H71640   0.012   0.805   6.109 -0.0947  0.0639 -0.3136
  543MOL0     H71641   0.145   0.747   6.268 -0.6003 -1.1821 -1.5754
  543MOL0     H71642   0.284   0.733   6.458 -1.4345  0.5297 -2.9755
  543MOL0     H71643   0.356   0.900   6.463 -2.4632  0.4505 -2.1429
  543MOL0     H71644   0.544   0.662   6.442  0.8581 -0.1621  0.2568
  543MOL0     H71645   0.453   0.687   6.594 -1.4463  1.9914  1.0047
  543MOL0     H71646   0.531   0.907   6.609 -0.2418  2.2428 -3.1478
  543MOL0     H71647   0.627   0.874   6.459 -1.2095 -1.1226 -1.4408
  543MOL0     H71648   0.760   0.868   6.694 -0.1419  0.6267 -0.8343
  543MOL0     H71649   0.676   0.736   6.746  2.9760 -0.5315  1.2776
  543MOL0     H71650   0.845   0.754   6.499 -0.4798 -0.6040  0.5578
  543MOL0     H71651   0.769   0.610   6.533 -1.0277  0.4610 -1.3698
  543MOL0     H71652   0.886   0.619   6.768 -0.4012  0.6787 -0.6938
  543MOL0     H71653   0.980   0.755   6.705  2.5411  0.0308 -0.0314
  543MOL0     H71654   0.948   0.457   6.596 -0.8119  0.0120 -0.3653
  543MOL0     H71655   1.026   0.585   6.508 -1.4075  4.9091  1.9929
  543MOL0     H71656   1.205   0.444   6.623  2.1598  1.0262 -0.1783
  543MOL0     H71657   1.131   0.491   6.779 -0.2305 -0.6742 -1.1345
  543MOL0     H71658   0.468   0.988   6.094 -0.8545  0.1113  0.0408
  543MOL0     H71659   0.308   1.077   5.934  0.2286  1.6058  1.7637
  543MOL0     H71660  -0.192   0.931   5.875  0.9199 -0.5039 -2.0096
  543MOL0     H71661  -0.413   0.977   5.804  1.3427  0.1876  0.7099
  543MOL0     H71662   0.450   0.390   5.433  1.3972 -2.0073  0.1625
  543MOL0     H71663   0.686   0.468   5.429  1.6020  0.0893 -0.6714
  543MOL0     H71664   0.820   1.036   5.242  1.1408  0.5581  0.0606
  543MOL0     H71665   1.051   1.106   5.212  2.2692  1.9944  2.5620
  543MOL0     H71666   1.347   0.829   5.354  0.8192  0.1181  2.5212
  543MOL0     H71667   1.409   0.961   5.445 -1.0901 -0.2020  1.1468
  543MOL0     H71668   1.405   0.957   5.139  2.2565  2.2667 -2.5095
  543MOL0     H71669   1.485   1.076   5.224  3.0957 -0.6588 -2.6545
  543MOL0     H71670   1.635   0.857   5.146 -0.4235 -0.1748  0.0832
  543MOL0     H71671   1.556   0.778   5.282  0.8540 -0.3210  1.4925
  543MOL0     H71672   1.739   1.023   5.307 -3.5982  3.0491  1.3269
  543MOL0     H71673   1.629   0.982   5.427 -0.8154 -0.0737 -1.0727
  543MOL0     H71674   1.978   0.746   5.503  0.9678  1.7088  1.2032
  543MOL0     H71675   1.163   0.783   5.486 -4.5468 -1.2572  2.5291
  543MOL0     H71676   0.946   0.689   5.460  0.5437  1.4911  1.8007
  544MOL0     O71677   6.120   1.108   6.269 -0.1122  0.3743  0.4636
  544MOL0     C71678   6.099   1.030   6.179  0.2929  1.0534 -0.7756
  544MOL0     O71679   5.982   0.975   6.141 -0.1249 -0.3909  0.1319
  544MOL0     C71680   5.861   1.031   6.187 -0.5196  0.4465 -0.1508
  544MOL0     C71681   5.842   1.160   6.237  0.5880  0.4527 -0.0179
  544MOL0     C71682   5.710   1.194   6.272  0.0302  0.3518 -0.4048
  544MOL0     C71683   5.599   1.095   6.267  0.0879  0.4895  0.5341
  544MOL0     O71684   5.468   1.123   6.296  0.4218  0.8684  0.6653
  544MOL0     C71685   5.403   1.178   6.178  0.6861 -0.3787 -0.3959
  544MOL0     C71686   5.262   1.229   6.204 -1.0479  0.4199 -0.4464
  544MOL0     C71687   5.263   1.319   6.328  0.0943 -0.0892 -0.1299
  544MOL0     C71688   5.323   1.455   6.313  0.6495 -0.3502  0.3025
  544MOL0     C71689   5.311   1.543   6.437  0.0638 -1.3529  0.6446
  544MOL0     C71690   5.386   1.676   6.418 -0.7321 -0.4230 -1.0946
  544MOL0     C71691   5.542   1.660   6.431  0.0521  0.2575 -0.3634
  544MOL0     C71692   5.625   1.746   6.334 -0.1479 -1.0136  0.9878
  544MOL0     N71693   5.630   1.703   6.193 -0.0872  0.2408  1.0139
  544MOL0     C71694   5.716   1.598   6.146 -0.8868 -0.4292  0.7532
  544MOL0     C71695   5.681   1.584   6.016  0.2807 -0.3139 -0.8466
  544MOL0     C71696   5.730   1.488   5.917 -1.0872  0.3052 -0.7443
  544MOL0     C71697   5.886   1.480   5.934  0.5073 -0.0136 -0.7328
  544MOL0     C71698   5.950   1.412   5.818  0.2202 -0.4001  0.1574
  544MOL0     C71699   6.065   1.324   5.861  0.1970 -0.2409  0.2476
  544MOL0     O71700   6.160   1.430   5.897  0.1537  0.6472  0.2647
  544MOL0     C71701   6.268   1.365   5.963  0.3301 -1.2835 -0.1355
  544MOL0     C71702   6.263   1.355   6.103 -0.2074  0.2756  0.0193
  544MOL0     C71703   6.377   1.303   6.164 -0.3112 -0.0879 -0.1896
  544MOL0     C71704   6.495   1.270   6.094  0.0510  0.2061 -0.2890
  544MOL0     C71705   6.599   1.204   6.168  0.7379  0.1512 -0.1221
  544MOL0     O71706   6.616   1.228   6.303  0.1606  1.0713  1.1154
  544MOL0     C71707   6.688   1.127   6.364 -0.0741  0.9230  0.2175
  544MOL0     C71708   6.644   0.996   6.381  1.0940 -0.5413 -0.1898
  544MOL0     C71709   6.705   0.900   6.459  0.7702 -0.7713  0.2443
  544MOL0     C71710   6.832   0.928   6.523 -0.0219 -0.0417  0.9483
  544MOL0     O71711   6.906   0.847   6.608 -0.2041  0.2065 -0.4123
  544MOL0     C71712   6.871   0.713   6.633  0.3623 -0.3968 -1.3950
  544MOL0     C71713   6.962   0.634   6.720  0.2161 -0.1034  0.0310
  544MOL0     C71714   7.089   0.608   6.639 -0.6093  0.5268 -1.8636
  544MOL0     C71715   7.188   0.545   6.736 -0.1981  0.4324 -0.5110
  544MOL0     C71716   7.314   0.500   6.668  0.4789  0.7982 -0.0603
  544MOL0     C71717   7.419   0.471   6.774 -0.1756 -0.6434 -0.7204
  544MOL0     C71718   7.548   0.442   6.715  0.2552 -0.3173  0.5583
  544MOL0     C71719   7.544   0.304   6.640 -0.3687 -1.2906  0.4040
  544MOL0    Cl71720   7.559   0.348   6.469  0.3526 -0.3696  0.1099
  544MOL0     C71721   6.877   1.061   6.505 -0.0043  1.3292 -0.3730
  544MOL0     C71722   6.811   1.154   6.425  0.6785  0.3293 -1.1329
  544MOL0     O71723   6.679   1.143   6.099  0.0849  0.2927  0.5144
  544MOL0     C71724   6.505   1.284   5.962 -0.2097  0.3357  0.4401
  544MOL0     C71725   6.387   1.335   5.895 -1.0221 -0.1724 -1.1787
  544MOL0     N71726   5.593   1.683   5.972  0.5879  0.1518 -1.5316
  544MOL0     N71727   5.577   1.768   6.078 -0.8822  0.3804  0.4404
  544MOL0     C71728   5.630   0.972   6.223  0.9683  0.1080  0.0015
  544MOL0     C71729   5.755   0.940   6.189 -0.2252  0.2505  0.5569
  544MOL0     C71730   6.210   0.999   6.096  0.3630  0.1328 -0.2055
  544MOL0     C71731   6.339   0.990   6.147 -1.0889 -0.3546 -0.8095
  544MOL0     C71732   6.446   0.951   6.070  0.3778 -0.5778  0.5971
  544MOL0     C71733   6.423   0.917   5.938  0.1936  0.2655 -0.3314
  544MOL0     O71734   6.523   0.880   5.843 -0.1633  0.2550 -1.0557
  544MOL0     C71735   6.620   0.782   5.898  0.3693 -0.3737  0.6247
  544MOL0     C71736   6.758   0.845   5.922  0.9824  0.5215 -0.3078
  544MOL0     C71737   6.840   0.756   6.013 -0.6882  0.0430 -0.3572
  544MOL0     C71738   6.988   0.793   6.037 -0.7648 -0.4267 -0.5499
  544MOL0     C71739   7.034   0.794   6.185 -0.5687 -0.1483 -0.9339
  544MOL0     C71740   7.068   0.805   6.299  0.3855  0.3007 -0.4468
  544MOL0     C71741   6.296   0.948   5.880  0.2257 -0.0706 -0.6177
  544MOL0     C71742   6.190   0.983   5.960  0.0625 -0.3321 -0.1292
  544MOL0     H71743   5.917   1.239   6.241 -1.8451  3.1328 -2.2998
  544MOL0     H71744   5.702   1.297   6.305  0.5398  0.0565  0.7016
  544MOL0     H71745   5.399   1.109   6.093  2.2416 -1.7857  0.6241
  544MOL0     H71746   5.462   1.269   6.159 -0.9336  0.8583  0.3035
  544MOL0     H71747   5.207   1.134   6.213  1.1599 -0.7083  2.5480
  544MOL0     H71748   5.223   1.289   6.121  0.7262 -0.4178 -1.9629
  544MOL0     H71749   5.309   1.260   6.408  0.5465  1.4105  0.7554
  544MOL0     H71750   5.158   1.334   6.355  0.3037  0.1540  0.5766
  544MOL0     H71751   5.429   1.437   6.290  1.0755 -0.6104  2.2664
  544MOL0     H71752   5.281   1.504   6.225  0.2711  0.1390  0.7432
  544MOL0     H71753   5.344   1.489   6.527  0.0312 -1.2249  0.7334
  544MOL0     H71754   5.208   1.568   6.465  0.7443 -0.8528  2.9162
  544MOL0     H71755   5.341   1.756   6.478  1.4853 -1.5134  2.2980
  544MOL0     H71756   5.360   1.702   6.315 -1.1538 -3.3436 -1.8235
  544MOL0     H71757   5.567   1.683   6.535 -2.6042  1.9128  0.0219
  544MOL0     H71758   5.574   1.558   6.409 -2.9240 -0.6351 -1.0903
  544MOL0     H71759   5.726   1.752   6.377  0.0169  1.1210  0.4116
  544MOL0     H71760   5.584   1.847   6.324  3.5472  0.5478 -0.0237
  544MOL0     H71761   5.782   1.553   6.219  0.4198  0.1252 -0.0558
  544MOL0     H71762   5.696   1.513   5.816 -1.7449  3.3379  0.1171
  544MOL0     H71763   5.691   1.392   5.951  1.9754 -0.4290  1.0476
  544MOL0     H71764   5.898   1.427   6.029 -3.7132  0.1316  0.0770
  544MOL0     H71765   5.929   1.580   5.948  0.2340  0.4043 -2.5662
  544MOL0     H71766   5.878   1.343   5.776  0.1069 -0.9247  1.1694
  544MOL0     H71767   5.975   1.481   5.737 -1.2751  0.9165  0.7595
  544MOL0     H71768   6.100   1.270   5.773 -0.0366 -2.1774  1.3040
  544MOL0     H71769   6.043   1.252   5.940 -3.4620  1.2791  0.8192
  544MOL0     H71770   6.176   1.398   6.151 -0.7342  0.6366 -1.2117
  544MOL0     H71771   6.373   1.294   6.272  1.1140  1.5285  0.0423
  544MOL0     H71772   6.552   0.975   6.327  2.4221 -3.4147 -1.5293
  544MOL0     H71773   6.660   0.801   6.459 -1.1327  0.0501  1.3015
  544MOL0     H71774   6.856   0.657   6.541 -4.7445 -3.2685  0.7999
  544MOL0     H71775   6.772   0.720   6.679  1.1764 -1.1995  0.5919
  544MOL0     H71776   6.913   0.539   6.739 -0.4371 -0.0079 -1.1277
  544MOL0     H71777   6.993   0.686   6.812  0.4995 -1.3561  0.6574
  544MOL0     H71778   7.132   0.704   6.610 -0.5374  1.5337  1.1928
  544MOL0     H71779   7.067   0.547   6.551 -0.5341 -1.6762 -0.4418
  544MOL0     H71780   7.212   0.621   6.811  2.1266 -1.7662  1.1128
  544MOL0     H71781   7.134   0.463   6.785 -0.9432  0.0680 -1.8840
  544MOL0     H71782   7.349   0.584   6.606 -1.8715  1.5548 -0.4428
  544MOL0     H71783   7.294   0.423   6.594  2.2016  2.3560 -2.3134
  544MOL0     H71784   7.385   0.392   6.842 -0.2439  1.5739  2.0012
  544MOL0     H71785   7.437   0.556   6.840  2.9829 -0.9914 -0.9512
  544MOL0     H71786   7.578   0.510   6.634 -3.2247 -1.3179 -1.8131
  544MOL0     H71787   7.614   0.435   6.801 -0.4385 -2.0220  0.9832
  544MOL0     H71788   7.448   0.258   6.663 -1.7925  2.4557  3.1367
  544MOL0     H71789   7.618   0.233   6.676 -1.0308 -1.7197  0.9410
  544MOL0     H71790   6.975   1.093   6.537  2.7274 -4.2592 -1.8475
  544MOL0     H71791   6.859   1.250   6.410  1.9118 -0.1744 -0.5552
  544MOL0     H71792   6.592   1.265   5.900  0.5135  1.0307  1.2021
  544MOL0     H71793   6.401   1.357   5.789 -0.7243  3.7010 -0.4875
  544MOL0     H71794   5.550   0.902   6.201 -0.1500  1.8857 -1.9652
  544MOL0     H71795   5.765   0.836   6.163 -1.4035  0.3669 -0.4125
  544MOL0     H71796   6.352   1.009   6.253  1.6217  1.3971 -1.3510
  544MOL0     H71797   6.550   0.944   6.101  0.9115  0.4469 -0.8251
  544MOL0     H71798   6.628   0.706   5.820  1.0683  1.6821 -1.4444
  544MOL0     H71799   6.577   0.741   5.990 -1.2742 -3.0245 -1.1856
  544MOL0     H71800   6.814   0.871   5.831  2.4043  0.6131  0.5507
  544MOL0     H71801   6.734   0.940   5.972  0.3372 -0.6510  1.7090
  544MOL0     H71802   6.844   0.653   5.976 -3.0284  0.2448 -1.3708
  544MOL0     H71803   6.787   0.748   6.108 -0.6177 -3.4846 -0.4785
  544MOL0     H71804   7.057   0.720   5.995  1.1747  0.0213  1.6079
  544MOL0     H71805   7.009   0.890   5.991 -0.5083 -1.5127 -2.8308
  544MOL0     H71806   7.113   0.828   6.393 -1.0756 -0.9178  0.5900
  544MOL0     H71807   6.273   0.937   5.774 -0.2407 -0.2815 -0.4966
  544MOL0     H71808   6.094   0.987   5.910  1.3082 -2.8979 -2.9830
  545MOL0     O71809   3.377   0.816   3.489  0.1643  0.1113 -0.1320
  545MOL0     C71810   3.386   0.942   3.508  0.1157  1.3424  0.9357
  545MOL0     O71811   3.284   1.022   3.503  0.3183  0.3314 -0.4834
  545MOL0     C71812   3.159   0.990   3.461 -0.2166  0.1757 -0.3239
  545MOL0     C71813   3.047   1.054   3.522 -0.7649 -0.0122  0.4347
  545MOL0     C71814   2.915   1.030   3.494  1.2557 -0.0393 -0.5149
  545MOL0     C71815   2.881   0.930   3.399 -0.7641  0.4724  1.0405
  545MOL0     O71816   2.750   0.880   3.371 -0.0523 -0.2853 -0.1877
  545MOL0     C71817   2.634   0.952   3.420  0.0044  0.8912  0.4241
  545MOL0     C71818   2.506   0.891   3.345 -1.1957 -0.5510 -0.6155
  545MOL0     C71819   2.395   0.987   3.379  0.7618  0.0426 -0.8507
  545MOL0     C71820   2.254   0.939   3.331 -1.4688 -0.8364  0.4391
  545MOL0     C71821   2.260   0.932   3.173 -0.2036  0.1577 -0.4244
  545MOL0     C71822   2.129   0.895   3.100  0.1685 -0.8826  0.0193
  545MOL0     C71823   2.030   1.013   3.101 -0.1227 -0.2727 -0.3883
  545MOL0     C71824   1.918   0.977   3.004  0.3007  0.6675  0.1989
  545MOL0     N71825   1.795   0.931   3.067  0.8233  1.1398  0.1799
  545MOL0     C71826   1.783   0.843   3.173  0.7656  0.6499 -0.5469
  545MOL0     C71827   1.650   0.836   3.197  0.3591 -0.7225  0.1455
  545MOL0     C71828   1.586   0.735   3.291  0.1616 -0.3175  0.7564
  545MOL0     C71829   1.511   0.627   3.222 -1.8870 -0.9906 -0.0543
  545MOL0     C71830   1.373   0.674   3.162 -0.7786  0.3004  0.9559
  545MOL0     C71831   1.265   0.653   3.273  1.1494 -0.1808  0.3186
  545MOL0     O71832   1.206   0.522   3.262  0.7370  0.3831  0.1419
  545MOL0     C71833   1.071   0.506   3.255  0.8491 -0.8963 -0.1852
  545MOL0     C71834   1.030   0.402   3.169  0.0610 -1.1516 -0.1174
  545MOL0     C71835   0.897   0.405   3.127 -0.3859  0.5360  0.3116
  545MOL0     C71836   0.800   0.489   3.173 -0.0212  0.3315 -0.2031
  545MOL0     C71837   0.664   0.487   3.121  0.6341  0.6340  0.5897
  545MOL0     O71838   0.603   0.361   3.082  0.1415 -0.7691  0.1195
  545MOL0     C71839   0.471   0.349   3.052  1.0810  0.0190  0.4506
  545MOL0     C71840   0.405   0.245   3.116  0.0589  0.5692  0.3819
  545MOL0     C71841   0.286   0.199   3.052  0.1120 -0.1199 -0.6010
  545MOL0     C71842   0.229   0.263   2.937 -0.2360 -0.1608 -0.8776
  545MOL0     O71843   0.115   0.215   2.870 -0.2101  0.0932 -0.2362
  545MOL0     C71844   0.074   0.080   2.901  0.4626 -0.5948 -0.2332
  545MOL0     C71845  -0.030   0.038   2.801  0.3134 -0.4678  0.3902
  545MOL0     C71846  -0.032  -0.107   2.768  0.6110  0.2843 -0.9464
  545MOL0     C71847  -0.136  -0.148   2.655 -0.6340 -0.5539 -0.4294
  545MOL0     C71848  -0.099  -0.290   2.609  0.6004 -0.2121 -0.5105
  545MOL0     C71849  -0.119  -0.408   2.703  0.0507  0.0255  0.2574
  545MOL0     C71850  -0.267  -0.429   2.750 -0.0598  0.5704 -0.1262
  545MOL0     C71851  -0.367  -0.448   2.633  0.0007  0.2525  0.0701
  545MOL0    Cl71852  -0.339  -0.592   2.522 -0.0786 -0.3087 -0.2860
  545MOL0     C71853   0.288   0.384   2.888 -0.5107 -0.1445 -0.5313
  545MOL0     C71854   0.411   0.429   2.953  0.9868 -0.2427  0.0809
  545MOL0     O71855   0.603   0.588   3.139 -0.1441 -0.0583 -0.6046
  545MOL0     C71856   0.838   0.595   3.262  0.0494 -0.3540 -0.5214
  545MOL0     C71857   0.975   0.601   3.301 -0.3153 -0.4414  0.4156
  545MOL0     N71858   1.579   0.930   3.105 -0.0142  0.0069  0.1452
  545MOL0     N71859   1.680   0.988   3.041 -0.3607 -0.4116  0.5157
  545MOL0     C71860   2.985   0.876   3.329 -0.0942 -0.3600 -0.4816
  545MOL0     C71861   3.122   0.897   3.365  0.2657  0.0332  0.7716
  545MOL0     C71862   3.531   0.984   3.515 -1.1488 -1.1764 -0.6141
  545MOL0     C71863   3.640   0.892   3.518  0.4209  0.8832  0.7208
  545MOL0     C71864   3.777   0.930   3.524  0.4095 -0.9865 -0.3272
  545MOL0     C71865   3.808   1.069   3.531  1.0539  0.3052 -0.0493
  545MOL0     O71866   3.932   1.119   3.545 -0.0488  0.2599  0.4521
  545MOL0     C71867   4.047   1.033   3.507  0.7867  0.5363 -1.2614
  545MOL0     C71868   4.083   1.003   3.360  0.0729 -0.2659 -0.5780
  545MOL0     C71869   4.124   1.141   3.304 -0.3288 -0.5927 -0.1423
  545MOL0     C71870   4.186   1.125   3.173  0.8630  0.3245  0.7610
  545MOL0     C71871   4.321   1.081   3.170 -0.1196  0.6251  0.0315
  545MOL0     C71872   4.439   1.054   3.188 -0.4768  0.6597  0.5216
  545MOL0     C71873   3.700   1.163   3.526  0.9452  0.1293 -1.1844
  545MOL0     C71874   3.565   1.121   3.526 -0.2771 -0.2492 -0.4164
  545MOL0     H71875   3.054   1.128   3.601 -0.2178  0.4824 -0.0572
  545MOL0     H71876   2.842   1.082   3.556  0.7561 -0.2821 -0.8942
  545MOL0     H71877   2.637   1.056   3.385 -1.2540  0.4491 -1.1355
  545MOL0     H71878   2.611   0.958   3.527 -3.2377  1.1202 -0.1812
  545MOL0     H71879   2.486   0.790   3.382  1.9223 -1.1547 -0.2889
  545MOL0     H71880   2.532   0.884   3.239  1.0834  0.7823 -0.2108
  545MOL0     H71881   2.426   1.084   3.340  0.5786  0.3036 -0.3524
  545MOL0     H71882   2.388   0.995   3.488 -0.4483  1.3856 -0.9933
  545MOL0     H71883   2.228   0.844   3.377  0.1226 -2.3305 -1.5358
  545MOL0     H71884   2.180   1.015   3.355 -1.3435 -0.7157  0.4466
  545MOL0     H71885   2.325   0.849   3.143 -0.1133 -0.4302  1.2937
  545MOL0     H71886   2.294   1.031   3.141  0.4591  1.3253  3.4627
  545MOL0     H71887   2.076   0.807   3.139  0.7850 -1.4824 -0.4775
  545MOL0     H71888   2.155   0.870   2.997  0.6220  0.0158 -0.0882
  545MOL0     H71889   1.990   1.033   3.201  1.0384 -1.3231  0.3086
  545MOL0     H71890   2.075   1.102   3.057  0.3914  0.6679  1.9499
  545MOL0     H71891   1.947   0.889   2.945 -1.8170  0.2106 -0.2348
  545MOL0     H71892   1.891   1.052   2.929  1.9294 -1.6824 -2.9949
  545MOL0     H71893   1.861   0.780   3.214  0.6137  1.4845  1.1064
  545MOL0     H71894   1.505   0.784   3.346 -1.7174 -2.1883 -0.1562
  545MOL0     H71895   1.657   0.695   3.363  0.0951  0.6772  1.3966
  545MOL0     H71896   1.483   0.540   3.283  0.7819 -0.0470  2.8158
  545MOL0     H71897   1.590   0.580   3.163 -0.3172  2.7139 -1.1532
  545MOL0     H71898   1.373   0.774   3.116  0.0484  0.3090  0.9631
  545MOL0     H71899   1.354   0.602   3.082  0.2051  0.2644  0.7440
  545MOL0     H71900   1.197   0.736   3.253 -0.2650 -1.1427  0.9751
  545MOL0     H71901   1.312   0.668   3.371 -0.9566  0.5430  1.2723
  545MOL0     H71902   1.103   0.334   3.125 -1.0660 -1.7291 -1.1792
  545MOL0     H71903   0.879   0.328   3.052 -2.0563 -0.5426  1.7279
  545MOL0     H71904   0.453   0.202   3.204  1.7665  0.6991 -0.4601
  545MOL0     H71905   0.234   0.118   3.103 -1.5471  2.5861  2.3983
  545MOL0     H71906   0.023   0.086   2.997 -0.1873 -1.2255 -0.5323
  545MOL0     H71907   0.153   0.006   2.886 -1.8134 -3.0285 -0.9924
  545MOL0     H71908  -0.021   0.095   2.708 -1.2404  1.1989  1.1988
  545MOL0     H71909  -0.130   0.056   2.842  0.1517 -0.1669 -0.1216
  545MOL0     H71910  -0.059  -0.147   2.866 -1.0385  0.4799 -1.2806
  545MOL0     H71911   0.070  -0.134   2.739  1.1605  0.9023  0.3171
  545MOL0     H71912  -0.239  -0.139   2.692 -0.5618 -1.1391 -0.0741
  545MOL0     H71913  -0.119  -0.078   2.572  1.0521 -0.9830 -0.4779
  545MOL0     H71914   0.009  -0.293   2.588  0.3124  0.7563 -2.3368
  545MOL0     H71915  -0.141  -0.307   2.510  2.0351 -0.5082 -1.1039
  545MOL0     H71916  -0.048  -0.407   2.786  0.5238 -0.3188 -0.1398
  545MOL0     H71917  -0.083  -0.499   2.655  1.9559  1.1942 -0.6650
  545MOL0     H71918  -0.274  -0.514   2.819  2.5458 -1.5649 -2.2553
  545MOL0     H71919  -0.306  -0.342   2.805 -3.0246  1.9500 -3.9194
  545MOL0     H71920  -0.374  -0.353   2.581 -1.7270  0.7541  1.1028
  545MOL0     H71921  -0.470  -0.461   2.669 -0.0045  1.0256  0.3461
  545MOL0     H71922   0.250   0.445   2.808  3.3882  0.6203 -2.0367
  545MOL0     H71923   0.456   0.524   2.926  2.0369  1.2133  5.6069
  545MOL0     H71924   0.777   0.673   3.307 -0.8969 -1.3242 -0.0607
  545MOL0     H71925   1.012   0.681   3.364 -0.9155  1.2157 -1.2336
  545MOL0     H71926   2.975   0.790   3.265  0.7471 -0.4775 -0.4732
  545MOL0     H71927   3.205   0.851   3.313  1.3437  1.8822  0.7722
  545MOL0     H71928   3.619   0.786   3.506  2.5016  0.6050 -1.1105
  545MOL0     H71929   3.846   0.848   3.538  0.6047 -0.7441  0.1841
  545MOL0     H71930   4.044   0.936   3.557  1.8095  0.5698 -1.1145
  545MOL0     H71931   4.128   1.079   3.564 -0.8745  0.4531  1.3698
  545MOL0     H71932   4.159   0.926   3.342  0.9689  0.9578 -2.2980
  545MOL0     H71933   3.987   0.970   3.321 -0.6363  0.8439  0.1768
  545MOL0     H71934   4.192   1.202   3.364 -1.5227  3.3420 -2.4073
  545MOL0     H71935   4.039   1.210   3.307 -0.5351 -0.8792  0.9638
  545MOL0     H71936   4.119   1.060   3.117 -0.9221  1.4850  1.4551
  545MOL0     H71937   4.174   1.229   3.139 -1.2285 -0.1120 -0.0014
  545MOL0     H71938   4.544   1.035   3.195 -0.5500  0.5776  1.4998
  545MOL0     H71939   3.712   1.271   3.530  1.1373  0.0985 -0.9160
  545MOL0     H71940   3.487   1.197   3.518  2.7156  3.0143 -1.2796
  546MOL0     O71941   6.961   6.990  10.827  0.6654 -0.6667  0.7791
  546MOL0     C71942   7.026   7.085  10.876 -0.8571  0.0822 -0.3391
  546MOL0     O71943   6.987   7.164  10.977  0.0677  0.2870  0.0112
  546MOL0     C71944   6.871   7.147  11.050  0.1067  0.4188  0.3870
  546MOL0     C71945   6.875   7.109  11.177 -0.2404  0.3605 -0.1430
  546MOL0     C71946   6.756   7.086  11.244  0.1394 -0.8412 -0.0333
  546MOL0     C71947   6.632   7.093  11.175 -0.0412 -1.2060  0.5281
  546MOL0     O71948   6.517   7.107  11.235  0.3468  0.9261 -0.2688
  546MOL0     C71949   6.511   7.120  11.378 -0.2591  0.4356  0.3298
  546MOL0     C71950   6.369   7.135  11.427  0.4500 -0.4905  1.0428
  546MOL0     C71951   6.288   7.017  11.372  0.1040  0.1625  0.5392
  546MOL0     C71952   6.141   7.027  11.423  0.2341  0.9631  1.0143
  546MOL0     C71953   6.055   6.917  11.362  0.0371 -0.1677 -0.9876
  546MOL0     C71954   5.916   6.948  11.413 -0.3820 -0.3001  0.2461
  546MOL0     C71955   5.820   6.848  11.347  0.6165 -0.3193  0.1678
  546MOL0     C71956   5.671   6.854  11.401 -0.3751  0.0342  0.1683
  546MOL0     N71957   5.669   6.821  11.545 -0.2908 -0.3113  0.0514
  546MOL0     C71958   5.652   6.908  11.650  1.0199 -0.0048  1.7216
  546MOL0     C71959   5.622   6.837  11.756  0.2757  0.0453  0.0235
  546MOL0     C71960   5.582   6.879  11.900  0.3267  0.7569  0.1024
  546MOL0     C71961   5.447   6.956  11.906 -0.0080 -0.3185 -0.0460
  546MOL0     C71962   5.338   6.887  11.815  0.2688 -0.4655  0.4564
  546MOL0     C71963   5.193   6.934  11.856  0.2599  1.0685  0.5557
  546MOL0     O71964   5.164   7.063  11.800  1.1382  0.2779  0.4489
  546MOL0     C71965   5.031   7.097  11.804 -0.3581  0.4662 -0.3256
  546MOL0     C71966   4.941   7.065  11.903 -0.9055  0.1965 -0.1062
  546MOL0     C71967   4.810   7.107  11.894 -0.1882  0.1898 -0.5981
  546MOL0     C71968   4.759   7.188  11.797  0.2218 -0.8827 -0.2100
  546MOL0     C71969   4.617   7.228  11.788 -0.2611  0.4928  0.0446
  546MOL0     O71970   4.525   7.156  11.868 -0.3630  0.3966  0.5768
  546MOL0     C71971   4.382   7.171  11.855 -0.1510  0.7361  0.5050
  546MOL0     C71972   4.294   7.110  11.934  0.5642 -0.5131  1.0051
  546MOL0     C71973   4.150   7.117  11.913 -0.0681 -0.9464  0.1229
  546MOL0     C71974   4.096   7.190  11.814  0.5079  0.2635 -0.0073
  546MOL0     O71975   3.963   7.214  11.813  0.8176  0.2064  0.0529
  546MOL0     C71976   3.916   7.350  11.781 -0.2892 -0.2974  0.1764
  546MOL0     C71977   3.768   7.373  11.803 -0.4111 -0.2751  0.4208
  546MOL0     C71978   3.702   7.289  11.694 -0.1723  0.3225  0.1539
  546MOL0     C71979   3.558   7.290  11.719  0.3204  0.5997  0.9111
  546MOL0     C71980   3.467   7.232  11.618 -0.1262  0.5738  0.4866
  546MOL0     C71981   3.324   7.226  11.658  0.8985 -0.6864  0.5018
  546MOL0     C71982   3.265   7.347  11.740  0.2763  0.5553 -0.6921
  546MOL0     C71983   3.112   7.331  11.767 -1.2264 -0.0317  0.0109
  546MOL0    Cl71984   3.022   7.471  11.799 -0.2123 -0.0309  0.3677
  546MOL0     C71985   4.182   7.244  11.719  0.6001 -0.8763 -0.1604
  546MOL0     C71986   4.320   7.237  11.739  0.1927  0.2155 -0.0675
  546MOL0     O71987   4.591   7.323  11.716 -0.1313 -0.2141 -0.4204
  546MOL0     C71988   4.847   7.226  11.694  0.1261 -0.0149 -1.2419
  546MOL0     C71989   4.985   7.183  11.703 -0.1904 -0.8983  0.4550
  546MOL0     N71990   5.645   6.707  11.722  0.9796  0.6235 -0.5669
  546MOL0     N71991   5.677   6.699  11.601 -0.1914 -0.2427 -0.3561
  546MOL0     C71992   6.637   7.121  11.038  0.0817 -0.4602 -0.3960
  546MOL0     C71993   6.756   7.141  10.975 -0.5867 -0.9478 -0.1595
  546MOL0     C71994   7.162   7.109  10.819  0.2456 -1.7252  0.0776
  546MOL0     C71995   7.216   7.046  10.709 -1.2312  0.2846  0.2516
  546MOL0     C71996   7.339   7.074  10.663  0.5866  0.3893  0.8407
  546MOL0     C71997   7.418   7.174  10.717  0.9384  0.6638 -0.5352
  546MOL0     O71998   7.543   7.214  10.682  0.3587 -0.3945  0.4036
  546MOL0     C71999   7.632   7.126  10.601  0.9741 -0.2213 -0.6197
  546MOL0     C72000   7.758   7.196  10.563 -0.6660  0.4191  0.9088
  546MOL0     C72001   7.839   7.226  10.689  0.5426 -0.4495  0.4539
  546MOL0     C72002   7.990   7.241  10.660 -0.5546 -0.2669  0.5873
  546MOL0     C72003   8.060   7.230  10.790 -1.0703  0.0321 -0.7694
  546MOL0     C72004   8.112   7.236  10.901  0.1644 -0.2995 -0.2419
  546MOL0     C72005   7.367   7.257  10.820 -0.6477  0.4320  0.0348
  546MOL0     C72006   7.239   7.226  10.865  0.3613 -0.8253 -1.0432
  546MOL0     H72007   6.971   7.105  11.228  1.2360  5.0005 -2.0895
  546MOL0     H72008   6.774   7.075  11.350  1.2372  0.0612 -0.1059
  546MOL0     H72009   6.570   7.206  11.412 -0.8362  0.8459  0.3055
  546MOL0     H72010   6.551   7.042  11.443 -2.5719  0.5774  2.0604
  546MOL0     H72011   6.308   7.222  11.401 -1.1273 -1.8939 -0.1920
  546MOL0     H72012   6.369   7.134  11.536  1.8362  1.9527  1.1393
  546MOL0     H72013   6.332   6.922  11.404  0.7362 -0.9628 -3.1712
  546MOL0     H72014   6.277   7.012  11.263 -0.4376 -0.5935  0.6172
  546MOL0     H72015   6.130   7.020  11.531  0.9480 -2.4261  0.9620
  546MOL0     H72016   6.097   7.123  11.395  0.4223  0.0292 -3.1037
  546MOL0     H72017   6.090   6.816  11.386 -1.0853 -1.0036 -2.6886
  546MOL0     H72018   6.064   6.914  11.253 -2.0724 -2.2287 -1.2092
  546MOL0     H72019   5.880   7.047  11.383  0.5009 -0.3076 -0.8891
  546MOL0     H72020   5.899   6.940  11.521 -3.2556 -1.1414 -0.1688
  546MOL0     H72021   5.809   6.866  11.240 -0.8276 -1.5358  0.0753
  546MOL0     H72022   5.854   6.746  11.368  0.8757 -0.5219 -1.1436
  546MOL0     H72023   5.612   6.790  11.335  0.1648  0.1263 -0.4064
  546MOL0     H72024   5.642   6.958  11.387 -1.1061 -0.2705 -0.6860
  546MOL0     H72025   5.635   7.015  11.643 -1.9985 -0.4934 -2.7876
  546MOL0     H72026   5.655   6.948  11.945 -0.2431  0.8886  0.8430
  546MOL0     H72027   5.582   6.795  11.971  0.2863 -1.6853 -2.6274
  546MOL0     H72028   5.466   7.062  11.890 -1.8027  0.6853  3.4145
  546MOL0     H72029   5.408   6.955  12.008  3.8374 -0.0308  1.5939
  546MOL0     H72030   5.348   6.907  11.708 -0.4378  1.1111  0.6520
  546MOL0     H72031   5.356   6.781  11.836  2.7384 -0.5515 -1.6196
  546MOL0     H72032   5.186   6.945  11.965 -5.0212  3.5381  0.2861
  546MOL0     H72033   5.124   6.858  11.819  0.3837  2.4333 -2.8147
  546MOL0     H72034   4.971   6.995  11.981  0.5630  1.1960  0.2788
  546MOL0     H72035   4.749   7.063  11.972  2.0926  2.0407  2.4716
  546MOL0     H72036   4.338   7.060  12.020  1.9267 -3.5970 -1.2824
  546MOL0     H72037   4.079   7.064  11.976 -2.3169  2.0575  0.3416
  546MOL0     H72038   3.946   7.371  11.678 -2.5154 -1.1987 -0.7350
  546MOL0     H72039   3.967   7.428  11.839 -0.6669  1.1472 -1.3504
  546MOL0     H72040   3.737   7.478  11.791 -0.5113 -0.1439  1.7590
  546MOL0     H72041   3.737   7.342  11.903 -0.3431  1.2704  0.9570
  546MOL0     H72042   3.735   7.184  11.695 -1.6779 -0.2251  2.9637
  546MOL0     H72043   3.732   7.330  11.597 -1.8537  0.4339 -0.3394
  546MOL0     H72044   3.546   7.230  11.810  0.9991 -2.5789 -0.9249
  546MOL0     H72045   3.520   7.391  11.738 -1.5147  0.2953 -0.7863
  546MOL0     H72046   3.504   7.131  11.599  0.0266  0.5555  0.8665
  546MOL0     H72047   3.483   7.283  11.523  0.7754 -0.8076 -0.1372
  546MOL0     H72048   3.312   7.135  11.718  3.0680 -0.5575  1.2318
  546MOL0     H72049   3.263   7.212  11.568 -0.0833  4.5408  0.0710
  546MOL0     H72050   3.324   7.359  11.831 -0.0126 -0.1912 -0.3957
  546MOL0     H72051   3.271   7.442  11.686 -2.1015  2.3846  1.9337
  546MOL0     H72052   3.105   7.256  11.846  1.7229 -0.6695 -0.1992
  546MOL0     H72053   3.055   7.282  11.687 -1.0250  1.0370 -0.8178
  546MOL0     H72054   4.144   7.300  11.634 -0.6163 -0.3004  0.7391
  546MOL0     H72055   4.382   7.267  11.655  2.1271 -1.6930  0.5871
  546MOL0     H72056   4.812   7.298  11.620  1.2026 -0.8581 -2.6337
  546MOL0     H72057   5.053   7.225  11.629 -3.2854  0.2370 -1.9704
  546MOL0     H72058   6.540   7.134  10.991 -0.9077 -1.5295  1.2643
  546MOL0     H72059   6.751   7.181  10.875  0.7187 -0.2035  0.0355
  546MOL0     H72060   7.161   6.963  10.666 -1.5711 -0.0083  1.2182
  546MOL0     H72061   7.373   7.028  10.571  0.4235  1.5055  0.2006
  546MOL0     H72062   7.587   7.091  10.507  1.4382 -2.5841 -0.0254
  546MOL0     H72063   7.644   7.032  10.657  1.5244 -0.4899 -1.1709
  546MOL0     H72064   7.826   7.132  10.506 -1.6906  0.1428 -0.0368
  546MOL0     H72065   7.750   7.281  10.496  1.3176 -1.0388 -1.3744
  546MOL0     H72066   7.820   7.143  10.758  0.1534  0.9757  2.1207
  546MOL0     H72067   7.809   7.316  10.743  0.6149 -1.4204  2.2032
  546MOL0     H72068   8.013   7.173  10.578 -3.2651 -1.0034  0.3572
  546MOL0     H72069   8.022   7.338  10.620  1.6003 -1.4260 -0.7253
  546MOL0     H72070   8.140   7.263  11.001 -2.0907  0.2199  0.3090
  546MOL0     H72071   7.427   7.342  10.853 -1.0389  0.1457  1.5433
  546MOL0     H72072   7.194   7.291  10.940  1.9398 -0.2895 -0.5259
  547MOL0     O72073  11.182   7.296   6.488  0.6110 -0.3672 -0.6458
  547MOL0     C72074  11.216   7.179   6.499 -0.5154  1.1474 -0.5014
  547MOL0     O72075  11.126   7.073   6.511 -0.5523  0.2247 -0.2501
  547MOL0     C72076  10.986   7.105   6.526 -1.2984  0.6307  0.0604
  547MOL0     C72077  10.910   7.146   6.418 -0.2906 -0.8341 -0.1329
  547MOL0     C72078  10.769   7.157   6.443 -0.5362  0.4335 -0.1756
  547MOL0     C72079  10.706   7.124   6.568  0.2623 -0.7340  0.2016
  547MOL0     O72080  10.570   7.132   6.576 -0.3136 -0.6541 -0.3234
  547MOL0     C72081  10.508   7.098   6.705  0.6031  0.8490 -0.5192
  547MOL0     C72082  10.357   7.116   6.701 -0.5638  0.3589 -0.5745
  547MOL0     C72083  10.302   7.084   6.841 -0.0296  0.6988  0.0020
  547MOL0     C72084  10.149   7.115   6.837 -0.7033 -0.5258 -0.3730
  547MOL0     C72085  10.100   7.120   6.978 -0.0186  0.5035 -0.4993
  547MOL0     C72086   9.956   7.149   6.994  0.6637 -0.1844 -0.7253
  547MOL0     C72087   9.912   7.192   7.132  0.2354 -0.3554 -0.7411
  547MOL0     C72088   9.782   7.134   7.179 -0.2515  0.0327  0.3666
  547MOL0     N72089   9.732   7.180   7.310 -0.0859  0.4532  0.0134
  547MOL0     C72090   9.801   7.189   7.434  0.4893 -0.1315  0.2837
  547MOL0     C72091   9.709   7.232   7.515 -0.6475 -0.5873  0.8034
  547MOL0     C72092   9.741   7.227   7.666 -0.2033 -0.6916  0.7367
  547MOL0     C72093   9.626   7.235   7.760  0.0475 -0.4819  0.9833
  547MOL0     C72094   9.665   7.248   7.908 -0.7751  0.3640  0.0821
  547MOL0     C72095   9.542   7.241   7.992  0.1336 -0.3204 -0.1675
  547MOL0     O72096   9.474   7.375   8.002 -0.2506  0.2630 -0.8424
  547MOL0     C72097   9.343   7.389   8.054  0.8002  0.2569 -0.3160
  547MOL0     C72098   9.281   7.515   8.039  0.3184 -0.6129  0.4092
  547MOL0     C72099   9.146   7.532   8.076  0.2550 -1.3183 -0.9172
  547MOL0     C72100   9.067   7.426   8.127 -0.3636  0.7664 -0.0807
  547MOL0     C72101   8.918   7.441   8.151 -1.1446 -0.0392  0.1105
  547MOL0     O72102   8.865   7.554   8.116 -0.2424 -1.4551  0.2735
  547MOL0     C72103   8.743   7.599   8.147  0.9672 -0.1193  0.3349
  547MOL0     C72104   8.708   7.710   8.071 -0.0843  0.3164 -0.5087
  547MOL0     C72105   8.586   7.779   8.089  0.2300  0.4969 -0.4566
  547MOL0     C72106   8.495   7.739   8.188  0.1363  0.9279 -0.2093
  547MOL0     O72107   8.378   7.804   8.194  0.4961 -0.3937  0.3147
  547MOL0     C72108   8.262   7.723   8.214 -0.7339  0.8797 -0.0055
  547MOL0     C72109   8.140   7.792   8.158  0.8585 -0.2366 -0.9785
  547MOL0     C72110   8.006   7.702   8.153 -0.5944 -0.1356  0.1119
  547MOL0     C72111   7.893   7.793   8.157  0.6089  0.3775  0.6799
  547MOL0     C72112   7.751   7.719   8.127 -0.3671 -0.2079  0.4986
  547MOL0     C72113   7.625   7.815   8.136 -0.0958  0.3966  0.5001
  547MOL0     C72114   7.629   7.921   8.019  0.7061 -0.1185 -0.0407
  547MOL0     C72115   7.497   7.995   8.019  0.0993  0.6294  0.5200
  547MOL0    Cl72116   7.378   7.887   7.948  0.2428  0.0661  0.4696
  547MOL0     C72117   8.536   7.632   8.269 -0.2048 -0.3030 -0.0322
  547MOL0     C72118   8.660   7.562   8.253 -0.5023  1.1095 -0.2227
  547MOL0     O72119   8.867   7.344   8.208 -0.2612  0.0812 -0.3237
  547MOL0     C72120   9.133   7.302   8.146 -0.0392  0.0504  0.0838
  547MOL0     C72121   9.267   7.276   8.111 -0.2495  0.4138 -0.4548
  547MOL0     N72122   9.583   7.249   7.451  0.4351  0.4760  0.1343
  547MOL0     N72123   9.594   7.217   7.323  0.2825 -0.7819  0.3515
  547MOL0     C72124  10.794   7.080   6.669 -0.0220  0.7260  0.3187
  547MOL0     C72125  10.934   7.070   6.652 -0.0912  0.0570  0.9075
  547MOL0     C72126  11.359   7.138   6.492  0.5662 -0.3864 -0.0491
  547MOL0     C72127  11.467   7.237   6.480  0.1559 -0.2338  0.5393
  547MOL0     C72128  11.601   7.193   6.482  0.4326 -1.1749 -0.0069
  547MOL0     C72129  11.632   7.064   6.514  0.5286 -0.2643  0.1834
  547MOL0     O72130  11.751   7.011   6.515 -0.1765 -0.0909 -0.2702
  547MOL0     C72131  11.836   7.048   6.402  0.0610  0.5862  0.3260
  547MOL0     C72132  11.816   6.941   6.287 -0.4027  0.3639  0.8250
  547MOL0     C72133  11.681   6.929   6.216  1.1741  0.4539  0.4033
  547MOL0     C72134  11.630   7.052   6.149 -0.2172  0.2118  1.1966
  547MOL0     C72135  11.704   7.101   6.025  0.0367  0.3454 -0.1192
  547MOL0     C72136  11.762   7.152   5.938 -0.0639  0.1210 -0.2377
  547MOL0     C72137  11.527   6.971   6.542 -0.1644  0.0037  0.4608
  547MOL0     C72138  11.395   7.012   6.522  0.0503  0.8056 -0.9991
  547MOL0     H72139  10.945   7.164   6.316 -2.9753  3.6081 -0.5239
  547MOL0     H72140  10.702   7.177   6.360 -3.0490 -0.9710  1.3823
  547MOL0     H72141  10.558   7.151   6.786 -1.1025  1.7573 -0.0053
  547MOL0     H72142  10.536   6.994   6.723  3.1961  1.7169  1.0318
  547MOL0     H72143  10.319   7.051   6.621  0.1122 -3.9463  2.2389
  547MOL0     H72144  10.331   7.218   6.671  1.1077  1.1762  0.5749
  547MOL0     H72145  10.357   7.151   6.907  0.6755  0.1455 -0.0022
  547MOL0     H72146  10.324   6.980   6.866 -1.0364  0.8266  1.5044
  547MOL0     H72147  10.140   7.219   6.803  0.4112 -0.2777  0.0397
  547MOL0     H72148  10.091   7.051   6.770 -1.4543  0.8096 -1.0392
  547MOL0     H72149  10.159   7.196   7.031 -1.6484  3.1361 -2.2392
  547MOL0     H72150  10.124   7.021   7.018  0.9431  0.5639 -0.8993
  547MOL0     H72151   9.903   7.058   6.964  1.6832 -0.1934 -2.6054
  547MOL0     H72152   9.917   7.224   6.924 -3.0833 -1.0696  0.1725
  547MOL0     H72153   9.980   7.161   7.212 -1.5762 -2.1027  0.1960
  547MOL0     H72154   9.915   7.302   7.135  3.6733 -0.3343 -0.5305
  547MOL0     H72155   9.800   7.026   7.174  1.7399  0.3513 -4.0013
  547MOL0     H72156   9.708   7.161   7.103  0.6686  4.1332  0.6887
  547MOL0     H72157   9.903   7.155   7.447  1.1876 -0.2499 -3.9088
  547MOL0     H72158   9.798   7.317   7.692 -1.6658  0.7596 -0.8213
  547MOL0     H72159   9.806   7.141   7.681  0.8136 -0.0192  0.3155
  547MOL0     H72160   9.564   7.146   7.747  3.8846 -3.3243  0.6295
  547MOL0     H72161   9.574   7.324   7.724 -0.8670 -1.4664 -0.2361
  547MOL0     H72162   9.728   7.162   7.934 -1.8769  0.6077  4.2174
  547MOL0     H72163   9.719   7.340   7.934 -0.9743  1.4416 -2.9285
  547MOL0     H72164   9.572   7.216   8.094 -1.5825  1.9670  1.0004
  547MOL0     H72165   9.478   7.167   7.943 -0.1716 -1.5905  2.0209
  547MOL0     H72166   9.335   7.594   7.988  0.8359 -0.1230  1.6788
  547MOL0     H72167   9.104   7.632   8.066 -0.4334 -1.3188  1.3917
  547MOL0     H72168   8.771   7.738   7.987  0.8380 -5.5756 -2.1902
  547MOL0     H72169   8.563   7.860   8.020 -1.8746 -1.1505 -1.8441
  547MOL0     H72170   8.253   7.699   8.320 -0.1088 -0.8261 -0.3065
  547MOL0     H72171   8.296   7.630   8.166  0.3342  1.1053  0.3040
  547MOL0     H72172   8.165   7.814   8.054  0.3653 -1.0827 -1.2901
  547MOL0     H72173   8.115   7.881   8.217 -1.7150 -1.1463 -0.5760
  547MOL0     H72174   8.000   7.634   8.238 -0.1204 -0.9111 -0.4638
  547MOL0     H72175   8.009   7.623   8.077 -0.4022 -1.1387  1.1374
  547MOL0     H72176   7.894   7.851   8.250 -0.2545  3.8226 -1.2976
  547MOL0     H72177   7.903   7.862   8.073  0.8055 -0.4257  0.0317
  547MOL0     H72178   7.733   7.648   8.208 -0.4858  0.7717  1.3455
  547MOL0     H72179   7.749   7.674   8.027  1.1749  0.9693 -0.1114
  547MOL0     H72180   7.621   7.850   8.239  1.1048 -0.5985  0.9146
  547MOL0     H72181   7.538   7.755   8.110  0.0801 -1.0193  2.9260
  547MOL0     H72182   7.712   7.990   8.038  1.9402 -2.0994  2.3106
  547MOL0     H72183   7.645   7.875   7.921  1.0854  2.3305 -1.2125
  547MOL0     H72184   7.505   8.087   7.960  0.4338  1.8208  2.3154
  547MOL0     H72185   7.482   8.024   8.124  0.8315  2.6060  0.1363
  547MOL0     H72186   8.470   7.599   8.349  0.9530 -2.4774  0.1176
  547MOL0     H72187   8.685   7.469   8.305 -2.2761  0.3266 -0.6988
  547MOL0     H72188   9.068   7.218   8.170 -0.7602  0.7734  0.6930
  547MOL0     H72189   9.305   7.176   8.126  1.4011  1.1732  0.6864
  547MOL0     H72190  10.752   7.043   6.762 -0.4820  1.4582  0.4075
  547MOL0     H72191  10.986   7.019   6.732 -1.8962 -1.8572  0.9281
  547MOL0     H72192  11.435   7.338   6.457 -1.8739 -1.2486 -1.5287
  547MOL0     H72193  11.681   7.265   6.472 -0.8970  1.0146  3.4886
  547MOL0     H72194  11.939   7.056   6.437 -0.3338  1.5823  1.2836
  547MOL0     H72195  11.808   7.141   6.351  3.6711  0.5169 -2.1129
  547MOL0     H72196  11.891   6.968   6.211 -0.4869  1.8701  1.2456
  547MOL0     H72197  11.829   6.844   6.336 -1.5410  0.8512  2.1293
  547MOL0     H72198  11.612   6.891   6.292  2.8368 -0.2171  1.6531
  547MOL0     H72199  11.674   6.852   6.139 -0.1235  1.0525 -0.0931
  547MOL0     H72200  11.528   7.029   6.117  0.0331  1.4941 -0.7287
  547MOL0     H72201  11.612   7.135   6.218 -3.5697  0.3602  0.3338
  547MOL0     H72202  11.808   7.191   5.850  0.0635 -1.0175 -0.6936
  547MOL0     H72203  11.566   6.873   6.567  1.0180  1.3536  4.7786
  547MOL0     H72204  11.326   6.928   6.529 -0.3891  1.1144 -1.5452
  548MOL0     O72205   3.386   9.299   3.601 -0.4600  0.0212  1.0246
  548MOL0     C72206   3.371   9.374   3.697 -0.2679  0.1132  0.6569
  548MOL0     O72207   3.247   9.393   3.758  0.6320 -0.1751  0.7480
  548MOL0     C72208   3.148   9.314   3.713  1.0843  0.8863 -0.4140
  548MOL0     C72209   3.043   9.381   3.650 -1.2655 -0.2384  0.3001
  548MOL0     C72210   2.929   9.309   3.604  0.6414  0.8442 -0.3367
  548MOL0     C72211   2.916   9.171   3.640  0.5153  1.0559  0.1824
  548MOL0     O72212   2.797   9.096   3.627 -0.2996  0.6280  0.1908
  548MOL0     C72213   2.710   9.122   3.515  0.4188  0.0923 -0.1863
  548MOL0     C72214   2.710   8.996   3.419  0.0889  1.0957 -1.0323
  548MOL0     C72215   2.670   8.855   3.484  0.1875 -0.4250  0.8656
  548MOL0     C72216   2.525   8.860   3.508 -0.3119  0.7980 -0.3759
  548MOL0     C72217   2.473   8.725   3.536 -0.9419  0.3797  0.0794
  548MOL0     C72218   2.329   8.750   3.573 -0.5262  0.2201  0.7107
  548MOL0     C72219   2.246   8.613   3.580 -0.9351  0.6866 -0.1682
  548MOL0     C72220   2.094   8.627   3.611 -0.2003 -0.4342 -0.4735
  548MOL0     N72221   2.022   8.680   3.491  0.3778 -0.3403 -0.0857
  548MOL0     C72222   1.950   8.606   3.402 -0.0149  0.5012 -0.8421
  548MOL0     C72223   1.893   8.697   3.326  0.5859 -0.0283  0.5143
  548MOL0     C72224   1.797   8.664   3.217 -0.0800  0.4947  0.3816
  548MOL0     C72225   1.671   8.743   3.252 -0.3121  0.3305  0.5603
  548MOL0     C72226   1.582   8.753   3.132  0.2993  0.5027  0.7222
  548MOL0     C72227   1.440   8.794   3.172  1.0208  0.7633  0.0512
  548MOL0     O72228   1.353   8.747   3.070  0.1207  0.4097 -0.0809
  548MOL0     C72229   1.216   8.750   3.084  0.9624 -0.1884  0.6713
  548MOL0     C72230   1.135   8.728   2.963  0.0046 -0.2393  0.6765
  548MOL0     C72231   0.996   8.724   2.968  0.7747  0.1380  0.2582
  548MOL0     C72232   0.925   8.749   3.094 -0.9802  0.0494  0.5247
  548MOL0     C72233   0.779   8.730   3.106  0.2436 -1.1261  0.0250
  548MOL0     O72234   0.721   8.752   3.233  0.8411 -0.2997  0.2431
  548MOL0     C72235   0.597   8.693   3.261 -0.5769  0.2822  0.4010
  548MOL0     C72236   0.493   8.777   3.316  0.0750 -0.2880 -0.5518
  548MOL0     C72237   0.373   8.727   3.368  0.0249  0.5898 -0.7618
  548MOL0     C72238   0.361   8.589   3.359  0.4464  0.6957 -0.6243
  548MOL0     O72239   0.246   8.539   3.419  0.3773  0.3543 -0.6992
  548MOL0     C72240   0.202   8.402   3.406  0.1458  0.3436  0.6988
  548MOL0     C72241   0.058   8.379   3.457 -0.6870 -0.2654 -0.7976
  548MOL0     C72242   0.054   8.430   3.602 -0.1599  0.6764 -0.5606
  548MOL0     C72243  -0.087   8.428   3.659 -0.7343  0.8306  0.3612
  548MOL0     C72244  -0.189   8.518   3.593 -0.2485 -0.4457 -0.0497
  548MOL0     C72245  -0.169   8.675   3.618 -0.0441 -0.3552  0.2316
  548MOL0     C72246  -0.092   8.726   3.494  0.4673 -0.8210  0.2409
  548MOL0     C72247  -0.074   8.878   3.488  0.1384  0.0741  0.6252
  548MOL0    Cl72248   0.012   8.929   3.645  0.0608  0.2775  0.3516
  548MOL0     C72249   0.457   8.506   3.295 -0.4597 -1.0036 -0.9235
  548MOL0     C72250   0.576   8.558   3.242 -1.1225  0.6184  0.3948
  548MOL0     O72251   0.715   8.709   3.001 -0.2314 -0.5872 -0.0721
  548MOL0     C72252   1.011   8.766   3.207  0.6528 -0.6643  0.0028
  548MOL0     C72253   1.144   8.778   3.197  0.9268  0.0683 -0.1599
  548MOL0     N72254   1.923   8.829   3.358  0.0290  0.9113 -1.1394
  548MOL0     N72255   2.005   8.815   3.460  0.4458 -0.1031  0.3412
  548MOL0     C72256   3.027   9.106   3.708  1.2901  0.4334  0.3765
  548MOL0     C72257   3.146   9.179   3.741  0.2832  0.5091  1.0155
  548MOL0     C72258   3.493   9.458   3.735 -0.4317  0.0049 -0.2727
  548MOL0     C72259   3.475   9.573   3.799  0.6459 -0.5734  0.0691
  548MOL0     C72260   3.578   9.661   3.830  0.0627  0.2915  0.5726
  548MOL0     C72261   3.708   9.628   3.801 -0.7151 -0.0107  0.1947
  548MOL0     O72262   3.788   9.730   3.813  0.0757 -0.9681  0.1727
  548MOL0     C72263   3.921   9.721   3.763 -0.2816  0.6878 -0.3966
  548MOL0     C72264   4.016   9.633   3.855  0.6125  1.0143 -0.5264
  548MOL0     C72265   4.151   9.711   3.864  0.8533 -0.4144  0.7841
  548MOL0     C72266   4.276   9.621   3.878  0.3741  0.1738  0.1522
  548MOL0     C72267   4.260   9.536   3.990 -0.0036  0.4803  0.1994
  548MOL0     C72268   4.266   9.450   4.076 -0.9398  0.2988  0.0120
  548MOL0     C72269   3.728   9.497   3.743 -0.7299 -0.4622 -0.5474
  548MOL0     C72270   3.625   9.409   3.718 -0.4644  0.1386 -0.4560
  548MOL0     H72271   3.054   9.486   3.625  1.0754  0.4963  3.6641
  548MOL0     H72272   2.853   9.364   3.549  0.7858  3.7732  2.0744
  548MOL0     H72273   2.732   9.209   3.452  1.5304 -1.4698 -2.0685
  548MOL0     H72274   2.612   9.147   3.556  0.4017  0.9016 -0.6853
  548MOL0     H72275   2.804   8.987   3.363  0.0323 -2.5913 -0.7954
  548MOL0     H72276   2.639   9.016   3.338  0.1865 -1.1904 -1.7397
  548MOL0     H72277   2.734   8.835   3.570  2.0165  1.4596  0.0142
  548MOL0     H72278   2.687   8.777   3.409  0.1575 -0.0812  0.4995
  548MOL0     H72279   2.507   8.921   3.597 -3.2789 -3.4683  2.3587
  548MOL0     H72280   2.477   8.900   3.418 -0.8316  2.7466  0.7096
  548MOL0     H72281   2.517   8.661   3.613 -4.9344 -3.8034 -0.6959
  548MOL0     H72282   2.462   8.664   3.446 -2.1515  0.5081  0.1226
  548MOL0     H72283   2.280   8.813   3.498  1.3554  4.6307  2.7621
  548MOL0     H72284   2.323   8.812   3.663  0.2609  1.3084  0.0438
  548MOL0     H72285   2.256   8.565   3.482  2.8134  0.7853  0.0109
  548MOL0     H72286   2.283   8.550   3.662 -2.6456 -0.1002  0.0314
  548MOL0     H72287   2.080   8.697   3.694 -0.0243 -1.6327  0.5994
  548MOL0     H72288   2.049   8.535   3.650 -0.0505 -1.0046 -1.6119
  548MOL0     H72289   1.939   8.500   3.421 -0.2744  1.0537  2.9393
  548MOL0     H72290   1.770   8.558   3.216  3.3728 -0.5320  1.3327
  548MOL0     H72291   1.852   8.690   3.126  0.2510 -0.5360  0.2792
  548MOL0     H72292   1.695   8.844   3.286  0.1747 -0.0712  1.4512
  548MOL0     H72293   1.634   8.684   3.337 -2.8448 -1.5130 -1.6275
  548MOL0     H72294   1.635   8.821   3.065  0.1587 -1.3056 -1.3073
  548MOL0     H72295   1.570   8.651   3.097 -0.5794  0.0554  2.2034
  548MOL0     H72296   1.431   8.901   3.194  1.2216  1.0602 -1.2272
  548MOL0     H72297   1.416   8.743   3.266  2.9354  2.7059  1.6939
  548MOL0     H72298   1.188   8.702   2.872 -1.2574 -0.3075 -0.0668
  548MOL0     H72299   0.941   8.697   2.878  1.1120 -1.3318  0.4686
  548MOL0     H72300   0.520   8.881   3.332  2.7101 -0.5228 -2.6596
  548MOL0     H72301   0.293   8.774   3.425  0.4500  1.0234 -0.5154
  548MOL0     H72302   0.275   8.340   3.459 -1.3927 -1.3995  0.8969
  548MOL0     H72303   0.203   8.356   3.306  0.2927 -3.3880  2.2461
  548MOL0     H72304   0.015   8.279   3.446 -0.5694 -0.6444  1.6100
  548MOL0     H72305   0.001   8.438   3.384  0.2896  2.6299  0.6012
  548MOL0     H72306   0.096   8.531   3.606 -2.8730  1.8795 -0.5151
  548MOL0     H72307   0.124   8.369   3.661 -0.3472 -0.7599 -1.7625
  548MOL0     H72308  -0.135   8.330   3.649 -1.1326  1.1477 -1.1614
  548MOL0     H72309  -0.068   8.455   3.763  0.2084  1.4734  0.0391
  548MOL0     H72310  -0.285   8.490   3.637 -1.2810  1.6772 -0.8155
  548MOL0     H72311  -0.207   8.506   3.486 -1.4257  2.4840 -0.2788
  548MOL0     H72312  -0.130   8.697   3.718  0.1631  2.4188 -0.3917
  548MOL0     H72313  -0.264   8.730   3.613  0.2677  0.1133 -2.7336
  548MOL0     H72314   0.011   8.690   3.499  0.6960 -0.2838 -0.5010
  548MOL0     H72315  -0.149   8.688   3.409  2.0149 -0.0970 -1.1514
  548MOL0     H72316  -0.163   8.941   3.481 -0.2790 -0.6963 -2.4214
  548MOL0     H72317  -0.004   8.894   3.405 -0.2568 -0.7866  0.1057
  548MOL0     H72318   0.430   8.401   3.300 -2.7879 -0.4986 -1.6687
  548MOL0     H72319   0.656   8.501   3.195 -0.8308  0.6909  0.7938
  548MOL0     H72320   0.958   8.775   3.302 -0.9516 -2.2664 -0.6906
  548MOL0     H72321   1.199   8.796   3.289  0.9269  3.3078 -0.6532
  548MOL0     H72322   3.023   8.999   3.728 -0.7257 -0.1554 -2.5669
  548MOL0     H72323   3.223   9.147   3.810  1.1641  0.6599  0.1431
  548MOL0     H72324   3.380   9.606   3.839  0.3638 -2.7026  1.3208
  548MOL0     H72325   3.562   9.765   3.854 -1.0972  0.0980  0.7191
  548MOL0     H72326   3.965   9.820   3.750  3.9387 -0.9143 -0.0438
  548MOL0     H72327   3.910   9.672   3.665 -0.8328 -1.0211  0.4746
  548MOL0     H72328   3.966   9.618   3.950  0.1275 -1.5486 -1.1021
  548MOL0     H72329   4.032   9.535   3.809 -2.6182 -0.1620  0.5615
  548MOL0     H72330   4.140   9.775   3.953  0.4634  0.2733  0.2553
  548MOL0     H72331   4.165   9.776   3.777  1.1874 -1.0493  0.3527
  548MOL0     H72332   4.287   9.552   3.794 -0.7582  1.7508 -1.3846
  548MOL0     H72333   4.364   9.686   3.880  0.9140 -0.5772  1.4198
  548MOL0     H72334   4.272   9.360   4.135 -1.0527  0.1259 -0.2357
  548MOL0     H72335   3.825   9.449   3.739 -0.2183 -0.0435  3.2922
  548MOL0     H72336   3.654   9.317   3.669  2.6298  2.5860 -3.8415
  549MOL0     O72337   1.573   5.085   6.847  0.3895  0.0855  0.0140
  549MOL0     C72338   1.585   4.967   6.811  0.2492 -0.8144 -0.0405
  549MOL0     O72339   1.487   4.890   6.745 -0.9758 -0.3378 -0.2474
  549MOL0     C72340   1.367   4.945   6.710 -0.0369  0.8727  0.9569
  549MOL0     C72341   1.253   4.874   6.721 -0.7932 -0.1189 -0.4977
  549MOL0     C72342   1.125   4.913   6.662 -0.4704  0.5531 -0.6922
  549MOL0     C72343   1.107   5.039   6.602 -0.6381 -0.6677 -0.6418
  549MOL0     O72344   1.000   5.090   6.534 -1.0960  0.3819  0.0242
  549MOL0     C72345   0.883   5.113   6.610  0.9260 -0.4071 -0.2866
  549MOL0     C72346   0.823   5.249   6.586 -0.4776  0.2184  0.8557
  549MOL0     C72347   0.916   5.368   6.596 -0.0136 -0.0527  0.0571
  549MOL0     C72348   0.975   5.373   6.730  0.7951 -0.4463  0.2983
  549MOL0     C72349   1.075   5.490   6.742 -0.3056  0.6918  1.1191
  549MOL0     C72350   1.131   5.523   6.877  0.4115 -0.3540 -0.5287
  549MOL0     C72351   1.031   5.576   6.978 -0.4519  0.1574 -0.4615
  549MOL0     C72352   1.054   5.719   7.012 -0.0940  1.2057 -0.8291
  549MOL0     N72353   1.002   5.809   6.919  0.7269  0.0301  0.8574
  549MOL0     C72354   0.875   5.855   6.935  0.1531  0.1959 -0.9469
  549MOL0     C72355   0.863   5.966   6.851 -0.5783 -0.3744 -1.0576
  549MOL0     C72356   0.742   6.052   6.814  0.2896 -0.3409 -0.2813
  549MOL0     C72357   0.616   5.979   6.793 -0.2590  0.7268  1.0696
  549MOL0     C72358   0.508   6.084   6.760  1.1247 -0.0198 -0.0015
  549MOL0     C72359   0.439   6.059   6.628  1.8413 -0.3618  0.5349
  549MOL0     O72360   0.366   6.178   6.592 -0.5378 -0.0988 -0.4137
  549MOL0     C72361   0.237   6.188   6.632  0.4234  0.6215  0.2853
  549MOL0     C72362   0.179   6.104   6.726  0.8692 -0.0823 -0.0535
  549MOL0     C72363   0.033   6.120   6.752 -0.7125  0.0774 -0.1637
  549MOL0     C72364  -0.050   6.198   6.667 -0.1363 -0.1315  0.4637
  549MOL0     C72365  -0.195   6.215   6.689  0.1288 -0.7347 -0.2314
  549MOL0     O72366  -0.280   6.268   6.583 -0.3671  0.0191  0.0306
  549MOL0     C72367  -0.400   6.304   6.617 -0.2377  0.4527 -0.2207
  549MOL0     C72368  -0.437   6.375   6.736 -0.0602 -0.5390 -0.1678
  549MOL0     C72369  -0.575   6.399   6.757  0.1181  0.6508  0.3333
  549MOL0     C72370  -0.676   6.340   6.684 -0.2483  0.2950 -0.1771
  549MOL0     O72371  -0.798   6.350   6.727  0.4710 -0.4126 -0.0761
  549MOL0     C72372  -0.908   6.272   6.681 -0.2649  0.5233 -0.3995
  549MOL0     C72373  -1.034   6.312   6.752 -0.5139 -0.7215  0.1037
  549MOL0     C72374  -1.161   6.293   6.672  0.8262  0.0283  0.2364
  549MOL0     C72375  -1.289   6.316   6.748  1.4946  0.0263 -0.8252
  549MOL0     C72376  -1.412   6.322   6.651  0.2791 -0.6404 -0.2627
  549MOL0     C72377  -1.539   6.399   6.703  0.7518  0.1476  0.6669
  549MOL0     C72378  -1.658   6.375   6.613 -0.6836 -0.3319 -1.0539
  549MOL0     C72379  -1.777   6.465   6.663  0.3577  0.0593  0.0353
  549MOL0    Cl72380  -1.842   6.420   6.822  0.0773 -0.1801 -0.3886
  549MOL0     C72381  -0.639   6.262   6.575  0.0279  1.1022 -0.0541
  549MOL0     C72382  -0.503   6.238   6.548 -0.1520  0.9106  1.1917
  549MOL0     O72383  -0.236   6.195   6.802 -0.5264  0.1569 -0.7111
  549MOL0     C72384   0.017   6.280   6.574  0.5202 -0.4486 -0.7482
  549MOL0     C72385   0.153   6.265   6.557 -0.4816 -0.6582 -0.1396
  549MOL0     N72386   0.985   5.973   6.782  0.8036 -1.3007 -0.7799
  549MOL0     N72387   1.065   5.881   6.826 -1.5380 -0.6700  1.0531
  549MOL0     C72388   1.219   5.115   6.605  0.2544 -0.7300 -0.1085
  549MOL0     C72389   1.343   5.074   6.662  0.1464  0.4770  0.3041
  549MOL0     C72390   1.720   4.907   6.824  0.0836 -0.5319 -0.2264
  549MOL0     C72391   1.828   4.988   6.830  0.5711 -0.3607 -0.2237
  549MOL0     C72392   1.957   4.938   6.843  0.2666 -0.0095  0.3846
  549MOL0     C72393   1.979   4.799   6.845 -0.8664 -0.7837 -0.4571
  549MOL0     O72394   2.109   4.750   6.871  0.0309 -0.1850 -0.7280
  549MOL0     C72395   2.225   4.824   6.813 -0.4366  0.1303 -0.5736
  549MOL0     C72396   2.343   4.719   6.790 -0.1471  0.4213 -0.0087
  549MOL0     C72397   2.299   4.607   6.692 -0.4574 -0.7290  0.1391
  549MOL0     C72398   2.425   4.525   6.643  0.6022  0.6445  0.0336
  549MOL0     C72399   2.391   4.425   6.538  0.0797  0.4693  0.4790
  549MOL0     C72400   2.354   4.347   6.448  0.1789  0.0630 -0.7085
  549MOL0     C72401   1.872   4.713   6.825  0.8372 -0.5239  0.5877
  549MOL0     C72402   1.745   4.767   6.818 -0.2908  0.2700  0.2042
  549MOL0     H72403   1.275   4.775   6.760  1.5372 -0.2817 -2.0295
  549MOL0     H72404   1.032   4.858   6.662  0.1179 -0.5394  1.1956
  549MOL0     H72405   0.906   5.103   6.716  2.5346  1.5351 -0.3900
  549MOL0     H72406   0.803   5.042   6.586  0.4358 -0.8079  2.3041
  549MOL0     H72407   0.734   5.262   6.648  0.2316 -0.1755  1.9727
  549MOL0     H72408   0.782   5.240   6.485  0.9463 -0.3268  0.3001
  549MOL0     H72409   0.863   5.460   6.569  1.5027  0.5597 -0.9890
  549MOL0     H72410   1.002   5.361   6.529  1.1470 -1.0317  1.5691
  549MOL0     H72411   0.898   5.390   6.807  0.2028 -3.1691  0.4290
  549MOL0     H72412   1.033   5.283   6.752  2.7957  0.6592 -0.2695
  549MOL0     H72413   1.037   5.567   6.675  0.7355 -1.0154 -1.6370
  549MOL0     H72414   1.167   5.464   6.688 -2.3087 -1.6573 -1.4801
  549MOL0     H72415   1.211   5.595   6.859  0.9202 -1.2928 -2.3141
  549MOL0     H72416   1.179   5.433   6.917  2.1499 -0.3927 -2.4924
  549MOL0     H72417   0.927   5.565   6.945 -0.1611 -1.3806 -0.9296
  549MOL0     H72418   1.044   5.517   7.069  2.0307 -2.4057 -2.2787
  549MOL0     H72419   1.163   5.732   7.020  0.4061 -2.4092 -0.1399
  549MOL0     H72420   1.015   5.742   7.111 -0.4032  0.3385 -0.7443
  549MOL0     H72421   0.808   5.821   7.014  2.0227  0.9944  1.0885
  549MOL0     H72422   0.762   6.098   6.717 -2.5065  1.3700 -0.1436
  549MOL0     H72423   0.745   6.138   6.883 -0.3063  1.9313 -2.9230
  549MOL0     H72424   0.594   5.919   6.882 -1.6038  0.1850  0.3986
  549MOL0     H72425   0.627   5.902   6.716 -1.2098  2.8647 -1.3280
  549MOL0     H72426   0.431   6.081   6.838  1.0682  0.0284 -0.0550
  549MOL0     H72427   0.547   6.186   6.749 -0.0815  0.2407 -2.7378
  549MOL0     H72428   0.371   5.975   6.646 -1.6481  2.4387  1.6881
  549MOL0     H72429   0.505   6.044   6.542  1.6022  0.6323  0.1707
  549MOL0     H72430   0.239   6.035   6.785 -0.3658 -1.9501 -0.8628
  549MOL0     H72431  -0.009   6.062   6.833 -0.4447  0.6109  0.3682
  549MOL0     H72432  -0.363   6.417   6.804 -2.0604  0.0553  1.7309
  549MOL0     H72433  -0.600   6.462   6.843  1.1565  0.9766  0.4100
  549MOL0     H72434  -0.891   6.165   6.694  0.7667  0.6160 -0.8137
  549MOL0     H72435  -0.919   6.287   6.573 -3.2077 -0.9334 -0.3907
  549MOL0     H72436  -1.022   6.407   6.804  0.9577 -1.4394  1.1521
  549MOL0     H72437  -1.034   6.245   6.839  3.0310  1.6487  2.1876
  549MOL0     H72438  -1.159   6.185   6.655  0.8917  0.3769 -2.2164
  549MOL0     H72439  -1.148   6.352   6.581 -0.8382 -1.5765 -1.1041
  549MOL0     H72440  -1.291   6.237   6.823  3.6791  0.4371 -0.2660
  549MOL0     H72441  -1.273   6.407   6.807  2.4978 -0.1809 -0.7504
  549MOL0     H72442  -1.443   6.218   6.636 -0.4718 -0.5282  0.4178
  549MOL0     H72443  -1.368   6.368   6.563 -0.3906 -0.9081 -0.7482
  549MOL0     H72444  -1.526   6.508   6.707  1.2432  0.1431 -0.5543
  549MOL0     H72445  -1.557   6.378   6.809 -1.0113  3.0785  1.0755
  549MOL0     H72446  -1.636   6.415   6.514 -2.9317  2.8911 -0.3754
  549MOL0     H72447  -1.684   6.269   6.598  0.4722 -1.0138  1.2431
  549MOL0     H72448  -1.855   6.455   6.587  0.0601  1.5654  0.1017
  549MOL0     H72449  -1.737   6.567   6.655  1.7431 -0.4221  0.6770
  549MOL0     H72450  -0.712   6.212   6.512  0.6205  0.8697 -0.5572
  549MOL0     H72451  -0.471   6.173   6.468 -1.1889 -0.2636  1.7033
  549MOL0     H72452  -0.039   6.352   6.514  0.7294  0.4336  0.0761
  549MOL0     H72453   0.178   6.343   6.486 -1.7171 -0.6915 -0.6393
  549MOL0     H72454   1.217   5.207   6.547 -1.6677  1.1450  2.6390
  549MOL0     H72455   1.424   5.145   6.649 -0.5886  1.2822  0.0525
  549MOL0     H72456   1.818   5.096   6.837 -3.9748 -0.6588  5.0928
  549MOL0     H72457   2.041   5.004   6.859  0.1498 -0.3755  2.9052
  549MOL0     H72458   2.265   4.894   6.887  3.7936 -0.6437 -1.8753
  549MOL0     H72459   2.203   4.869   6.715 -0.9093  2.4125  0.5190
  549MOL0     H72460   2.430   4.771   6.750 -0.0891  0.3023 -0.0364
  549MOL0     H72461   2.376   4.667   6.880  0.2635 -2.2909 -1.6109
  549MOL0     H72462   2.245   4.664   6.616  1.3282  0.2481 -0.4544
  549MOL0     H72463   2.223   4.543   6.739 -1.0458 -0.9045 -1.0080
  549MOL0     H72464   2.491   4.594   6.589 -1.1577  0.9009 -1.9521
  549MOL0     H72465   2.482   4.477   6.722 -1.0527 -0.9678  0.3014
  549MOL0     H72466   2.323   4.268   6.382  0.4903 -1.3599  0.7766
  549MOL0     H72467   1.871   4.605   6.838 -2.8308 -0.4995  1.4092
  549MOL0     H72468   1.664   4.695   6.812 -0.0003 -0.0975  0.6415
  550MOL0     O72469  10.223   4.204   2.071 -0.8173  0.5517 -0.0060
  550MOL0     C72470  10.207   4.091   2.122 -0.4826  0.6110 -0.1541
  550MOL0     O72471  10.089   4.028   2.126 -0.1943  0.1516  0.0026
  550MOL0     C72472   9.971   4.094   2.084 -0.6009  0.3629 -0.2091
  550MOL0     C72473   9.960   4.180   1.978  0.7057 -1.0787 -0.4769
  550MOL0     C72474   9.848   4.255   1.951 -0.1806  0.0734 -0.5021
  550MOL0     C72475   9.737   4.232   2.026  0.7881 -0.1347  0.2989
  550MOL0     O72476   9.615   4.286   2.004 -0.4126 -0.0241 -0.3638
  550MOL0     C72477   9.585   4.341   1.873 -0.2815  0.2446  0.7710
  550MOL0     C72478   9.434   4.356   1.837  0.6990  1.1979 -0.2611
  550MOL0     C72479   9.355   4.229   1.882 -0.6632  0.3191  0.2379
  550MOL0     C72480   9.320   4.214   2.032 -0.1693  0.0010 -0.4340
  550MOL0     C72481   9.255   4.082   2.060 -0.0404  0.0847  0.5363
  550MOL0     C72482   9.236   4.070   2.211  0.6873  0.1790  0.1073
  550MOL0     C72483   9.147   3.941   2.229 -0.6124 -1.1877 -0.9407
  550MOL0     C72484   9.103   3.955   2.375  0.6012  1.0122 -0.1627
  550MOL0     N72485   9.036   3.831   2.411 -1.1746  0.4053 -0.1891
  550MOL0     C72486   8.904   3.832   2.444 -0.3871 -0.8295 -0.8149
  550MOL0     C72487   8.879   3.712   2.499  0.2636  0.7233  0.3671
  550MOL0     C72488   8.744   3.674   2.563 -0.6804 -0.7854 -0.3562
  550MOL0     C72489   8.751   3.703   2.714 -0.3966  0.7068  0.3378
  550MOL0     C72490   8.656   3.813   2.779 -0.6662  0.3874  0.7040
  550MOL0     C72491   8.505   3.783   2.782 -0.1856 -0.4632  0.2343
  550MOL0     O72492   8.475   3.688   2.883 -0.2122 -0.4616  0.0882
  550MOL0     C72493   8.356   3.697   2.951 -0.2691 -0.1396  0.5161
  550MOL0     C72494   8.299   3.823   2.974  0.7712 -0.1798  0.7217
  550MOL0     C72495   8.169   3.822   3.017  1.0964  0.6041  0.4624
  550MOL0     C72496   8.092   3.704   3.037 -0.2081 -0.5139  0.1398
  550MOL0     C72497   7.952   3.718   3.082  0.5888 -0.1468 -0.0931
  550MOL0     O72498   7.873   3.606   3.065 -0.3814  0.1634 -0.0227
  550MOL0     C72499   7.753   3.578   3.126 -0.7355 -0.0533  0.1529
  550MOL0     C72500   7.651   3.662   3.165 -0.1363  1.0863 -0.0008
  550MOL0     C72501   7.529   3.605   3.209 -0.6428 -0.3519  0.8164
  550MOL0     C72502   7.511   3.463   3.200  0.3621 -0.6267  0.0270
  550MOL0     O72503   7.394   3.400   3.241  0.7347 -0.5213 -0.0046
  550MOL0     C72504   7.287   3.430   3.152 -0.3110 -0.0470  0.8392
  550MOL0     C72505   7.146   3.375   3.199 -0.3134  0.0343 -0.5670
  550MOL0     C72506   7.056   3.451   3.309 -0.0106  0.3995 -0.0275
  550MOL0     C72507   6.963   3.350   3.376  0.0282 -0.4902  0.0768
  550MOL0     C72508   6.852   3.406   3.464 -1.2848 -0.1725 -0.1898
  550MOL0     C72509   6.908   3.471   3.594 -0.8239  0.3382  0.3771
  550MOL0     C72510   6.831   3.592   3.640 -0.1124 -0.0516  0.3140
  550MOL0     C72511   6.838   3.722   3.552 -0.2483  0.1318  0.2065
  550MOL0    Cl72512   6.712   3.833   3.599 -0.1436  0.1055 -0.0704
  550MOL0     C72513   7.610   3.375   3.151  0.5641 -0.5398 -0.0762
  550MOL0     C72514   7.733   3.436   3.120 -0.4219 -0.3456  0.2006
  550MOL0     O72515   7.908   3.831   3.120 -0.0807  0.1543  0.3188
  550MOL0     C72516   8.149   3.578   3.016  0.8716 -0.3703 -0.4901
  550MOL0     C72517   8.276   3.579   2.962 -0.5857  0.1439 -0.2139
  550MOL0     N72518   8.991   3.635   2.500 -0.4547  0.3687 -0.1807
  550MOL0     N72519   9.090   3.705   2.439  0.3616 -0.0525  0.3714
  550MOL0     C72520   9.743   4.148   2.139 -0.3424  0.6006 -0.4225
  550MOL0     C72521   9.861   4.075   2.175 -0.5955  1.1187  0.3255
  550MOL0     C72522  10.324   4.023   2.185  0.2849  0.3220 -0.2272
  550MOL0     C72523  10.448   4.083   2.204 -0.3441 -0.2425 -0.1830
  550MOL0     C72524  10.555   4.002   2.250  0.2621 -0.9856  0.3974
  550MOL0     C72525  10.546   3.857   2.272 -1.2758 -0.0428  0.7439
  550MOL0     O72526  10.652   3.771   2.301  0.4355  0.2734  0.2428
  550MOL0     C72527  10.778   3.821   2.326 -0.3275 -0.0570  0.4002
  550MOL0     C72528  10.878   3.707   2.339  0.5093 -0.3443 -0.0995
  550MOL0     C72529  11.018   3.769   2.369 -0.1114 -0.0035  0.5907
  550MOL0     C72530  11.028   3.798   2.520  0.6416 -0.8483 -0.7292
  550MOL0     C72531  11.168   3.831   2.562  0.7375 -1.3705  0.4325
  550MOL0     C72532  11.274   3.855   2.606 -0.5198 -0.8879  0.1920
  550MOL0     C72533  10.419   3.803   2.264  0.0147 -0.1350 -0.2955
  550MOL0     C72534  10.309   3.887   2.227 -0.1212 -0.4980 -0.1134
  550MOL0     H72535  10.045   4.191   1.912 -0.0158 -2.0045 -1.6024
  550MOL0     H72536   9.860   4.314   1.861 -0.8999 -0.6601 -1.0999
  550MOL0     H72537   9.634   4.282   1.796 -1.3534  0.1358  0.1610
  550MOL0     H72538   9.621   4.444   1.864  1.9363 -0.6328 -1.2957
  550MOL0     H72539   9.425   4.358   1.728 -1.7609 -2.9970 -0.3377
  550MOL0     H72540   9.394   4.446   1.884  0.5452  0.5923  0.7895
  550MOL0     H72541   9.420   4.145   1.858 -0.3397  0.5776  0.2160
  550MOL0     H72542   9.262   4.234   1.824 -0.2396  0.4183 -0.4354
  550MOL0     H72543   9.400   4.234   2.104 -0.2478  0.5310 -0.4869
  550MOL0     H72544   9.246   4.293   2.048 -0.5699 -0.5679  0.6296
  550MOL0     H72545   9.320   4.006   2.015  1.0549  0.9824  0.5525
  550MOL0     H72546   9.157   4.069   2.013  0.5967 -1.8174 -0.3785
  550MOL0     H72547   9.182   4.160   2.241 -0.3760 -0.4171  0.0500
  550MOL0     H72548   9.334   4.070   2.259 -0.4634  0.1896  2.6203
  550MOL0     H72549   9.059   3.957   2.166 -1.6754 -0.4640  0.6523
  550MOL0     H72550   9.193   3.848   2.195 -0.8135 -1.1356 -1.3546
  550MOL0     H72551   9.027   4.033   2.377 -0.7704 -0.2940  0.0970
  550MOL0     H72552   9.184   3.964   2.448 -0.8669 -2.3560  2.1088
  550MOL0     H72553   8.830   3.907   2.423 -0.3394 -1.1544 -2.2939
  550MOL0     H72554   8.731   3.568   2.539 -1.4524 -0.0221 -3.8577
  550MOL0     H72555   8.664   3.725   2.507  0.6451 -1.1090 -2.6907
  550MOL0     H72556   8.857   3.719   2.732 -0.3747  1.3898 -0.3261
  550MOL0     H72557   8.726   3.611   2.769  0.6331 -1.8857 -3.1831
  550MOL0     H72558   8.689   3.851   2.876 -0.6158  2.8630 -0.2172
  550MOL0     H72559   8.665   3.894   2.707 -3.1814  0.2578  0.1422
  550MOL0     H72560   8.479   3.748   2.681 -4.0008  1.7643  0.2619
  550MOL0     H72561   8.462   3.883   2.791  1.7715  0.3068  1.7840
  550MOL0     H72562   8.360   3.912   2.984  1.4113 -0.6669  1.2631
  550MOL0     H72563   8.107   3.911   3.025  1.0419  0.4610  1.8462
  550MOL0     H72564   7.677   3.766   3.182  0.2623  1.1404 -0.8913
  550MOL0     H72565   7.446   3.671   3.232  0.2539  1.2009 -0.1724
  550MOL0     H72566   7.303   3.384   3.054 -1.4236 -0.8747  1.0256
  550MOL0     H72567   7.283   3.536   3.127  1.4346 -0.6692 -2.6945
  550MOL0     H72568   7.162   3.268   3.213  0.5973  0.0790 -1.1775
  550MOL0     H72569   7.087   3.367   3.108 -2.9747 -4.1028  1.2284
  550MOL0     H72570   6.993   3.524   3.259  0.5553 -0.6008 -2.3171
  550MOL0     H72571   7.110   3.504   3.389 -1.7576  2.0705  0.1043
  550MOL0     H72572   6.921   3.289   3.296  2.8402 -1.2318 -0.9657
  550MOL0     H72573   7.029   3.291   3.441  1.7657  2.0167  0.7568
  550MOL0     H72574   6.773   3.332   3.481 -2.2464  0.9313  0.3096
  550MOL0     H72575   6.804   3.481   3.401 -0.7455  0.7575  0.4805
  550MOL0     H72576   7.015   3.493   3.595 -0.5212 -0.9070 -0.8227
  550MOL0     H72577   6.899   3.390   3.667  1.7288  1.3313  1.9090
  550MOL0     H72578   6.727   3.563   3.622 -0.3064 -0.1073  1.4239
  550MOL0     H72579   6.845   3.613   3.747 -2.4977  1.1147  0.4511
  550MOL0     H72580   6.815   3.698   3.448  2.6775  2.5987 -1.1669
  550MOL0     H72581   6.940   3.763   3.558 -0.2921  0.1882  0.5922
  550MOL0     H72582   7.594   3.268   3.150 -1.5723 -0.2490  0.1227
  550MOL0     H72583   7.819   3.374   3.094 -1.2810 -0.6103 -2.1564
  550MOL0     H72584   8.091   3.486   3.017 -1.5510  1.0190 -1.6745
  550MOL0     H72585   8.318   3.486   2.924 -0.7823  0.1907 -0.5485
  550MOL0     H72586   9.653   4.138   2.200 -1.3413 -0.6524 -2.0209
  550MOL0     H72587   9.870   4.010   2.261 -0.3182 -0.9072 -1.1574
  550MOL0     H72588  10.476   4.185   2.180 -3.5827  0.5474 -1.0793
  550MOL0     H72589  10.652   4.050   2.258  0.0816 -0.7314  1.1390
  550MOL0     H72590  10.794   3.869   2.423  1.2470  1.3014 -0.4749
  550MOL0     H72591  10.813   3.894   2.252 -1.7259 -0.6168 -0.8458
  550MOL0     H72592  10.859   3.634   2.418  1.4284 -0.4986 -0.0100
  550MOL0     H72593  10.879   3.657   2.241 -0.9036 -0.1557 -0.2384
  550MOL0     H72594  11.034   3.856   2.305  2.5078 -1.0496 -0.3158
  550MOL0     H72595  11.089   3.690   2.344 -0.3925 -0.2923  0.6930
  550MOL0     H72596  10.967   3.888   2.533  0.2321 -0.9828 -1.6581
  550MOL0     H72597  10.987   3.723   2.588  2.2370 -1.1850 -0.0810
  550MOL0     H72598  11.369   3.859   2.655  0.5637 -1.1934 -1.7812
  550MOL0     H72599  10.407   3.706   2.311  2.0297  0.3978  1.4778
  550MOL0     H72600  10.208   3.847   2.233 -0.4066  0.1668 -0.3993
  551MOL0     O72601   3.927   1.896   7.282 -0.3064 -0.3456  0.8568
  551MOL0     C72602   3.846   1.827   7.212 -0.5125 -0.5647 -0.1643
  551MOL0     O72603   3.716   1.868   7.182  0.4678  0.2884  0.0849
  551MOL0     C72604   3.660   1.993   7.219  0.5357 -0.1238  1.1545
  551MOL0     C72605   3.727   2.123   7.232  0.7209  0.2396 -0.8034
  551MOL0     C72606   3.653   2.235   7.277 -0.8288 -0.3972  0.2779
  551MOL0     C72607   3.526   2.223   7.318 -0.2430 -0.1655  0.2514
  551MOL0     O72608   3.461   2.337   7.358  0.4369 -0.2831  0.9429
  551MOL0     C72609   3.318   2.363   7.324  0.0713  0.1329  1.0574
  551MOL0     C72610   3.260   2.498   7.366 -0.2742 -0.4346  0.9852
  551MOL0     C72611   3.118   2.453   7.412 -0.5851  0.2230  1.7972
  551MOL0     C72612   3.045   2.572   7.481 -0.2798 -0.0664  0.8899
  551MOL0     C72613   2.894   2.538   7.512  0.1835 -1.0183 -0.6797
  551MOL0     C72614   2.832   2.663   7.579  0.2165  0.0081  0.4750
  551MOL0     C72615   2.722   2.627   7.689 -0.6767  0.3434 -0.5734
  551MOL0     C72616   2.599   2.592   7.628 -1.6828  0.2570  0.0748
  551MOL0     N72617   2.494   2.540   7.718 -0.3348 -0.1821 -0.4251
  551MOL0     C72618   2.459   2.608   7.832  1.0317  0.6745  0.0300
  551MOL0     C72619   2.357   2.530   7.887  0.2835 -0.8775 -0.0309
  551MOL0     C72620   2.278   2.552   8.021  1.0933 -0.0535  0.2043
  551MOL0     C72621   2.127   2.540   8.005  0.3798  0.1052  0.1150
  551MOL0     C72622   2.048   2.650   7.933 -0.4566 -0.4849  0.3107
  551MOL0     C72623   1.911   2.691   7.992 -0.7862  0.0677  0.6264
  551MOL0     O72624   1.835   2.581   8.016  0.0150  0.3838  0.5734
  551MOL0     C72625   1.701   2.583   7.994 -0.0823  0.6035  0.0975
  551MOL0     C72626   1.653   2.518   7.882  0.2165  1.6689  0.2700
  551MOL0     C72627   1.522   2.536   7.854  0.2545  0.4409  0.0282
  551MOL0     C72628   1.439   2.606   7.944 -0.2942 -1.0159 -0.2739
  551MOL0     C72629   1.302   2.630   7.913 -0.4986 -0.8708  0.6861
  551MOL0     O72630   1.235   2.742   7.958 -1.2191 -0.0450 -0.4810
  551MOL0     C72631   1.103   2.735   7.939  0.6662 -1.0846 -0.5322
  551MOL0     C72632   1.017   2.691   8.038  0.4344 -0.5963 -0.1989
  551MOL0     C72633   0.879   2.673   8.022 -0.1100 -0.3588 -0.2463
  551MOL0     C72634   0.826   2.721   7.903  0.3369  0.4104 -1.4090
  551MOL0     O72635   0.695   2.708   7.860 -0.6448  0.0600 -0.4591
  551MOL0     C72636   0.605   2.621   7.937  0.0994  0.4365 -0.3593
  551MOL0     C72637   0.522   2.708   8.035 -0.2579  0.2509  0.3282
  551MOL0     C72638   0.428   2.622   8.119  0.5160  1.0027 -0.4273
  551MOL0     C72639   0.324   2.521   8.049  0.1369 -0.5255  1.2852
  551MOL0     C72640   0.221   2.485   8.157  1.0051  0.3340 -0.5028
  551MOL0     C72641   0.092   2.434   8.097  0.1493 -0.3658  0.5160
  551MOL0     C72642  -0.029   2.421   8.189 -0.6238 -0.1984 -0.0230
  551MOL0     C72643  -0.038   2.283   8.263 -0.3879 -0.6106  0.1824
  551MOL0    Cl72644  -0.204   2.270   8.330 -0.1262 -0.2683  0.3363
  551MOL0     C72645   0.908   2.770   7.805 -0.0075 -0.4333  0.9895
  551MOL0     C72646   1.045   2.772   7.819 -0.6732  0.3273  0.1250
  551MOL0     O72647   1.253   2.547   7.828 -0.6748  0.2991 -1.0640
  551MOL0     C72648   1.498   2.675   8.054  0.8254 -0.1409  0.2701
  551MOL0     C72649   1.631   2.664   8.071 -0.1678  0.0309 -1.0310
  551MOL0     N72650   2.331   2.428   7.799  0.3155 -0.2768 -0.1824
  551MOL0     N72651   2.409   2.435   7.705 -0.2152 -0.4209 -0.0800
  551MOL0     C72652   3.452   2.101   7.301 -1.2942  0.2773  0.1910
  551MOL0     C72653   3.520   1.993   7.240 -0.1304  0.4544 -1.1126
  551MOL0     C72654   3.881   1.684   7.191  0.2624  0.9850  0.4735
  551MOL0     C72655   3.795   1.572   7.164 -0.0823 -0.3204 -0.3112
  551MOL0     C72656   3.827   1.442   7.172 -0.4114  0.7039 -0.0864
  551MOL0     C72657   3.964   1.408   7.193  0.4002  0.5111  0.1417
  551MOL0     O72658   4.005   1.275   7.200  0.0652  0.5709  0.2909
  551MOL0     C72659   3.956   1.193   7.087 -0.4418  0.0611  1.2075
  551MOL0     C72660   4.070   1.119   7.024 -1.3945  0.8556 -1.7304
  551MOL0     C72661   4.054   1.086   6.874 -0.2868  0.1464 -0.5240
  551MOL0     C72662   4.187   1.019   6.821  0.1465  0.9309  0.4929
  551MOL0     C72663   4.284   1.116   6.762  0.8036  0.7178 -0.3669
  551MOL0     C72664   4.359   1.197   6.718 -0.5531 -0.0432 -0.0221
  551MOL0     C72665   4.050   1.508   7.229  0.4482  0.5862  0.2735
  551MOL0     C72666   4.016   1.643   7.222  0.9818 -0.1880  0.8676
  551MOL0     H72667   3.833   2.132   7.212  1.4800 -2.8800  1.0690
  551MOL0     H72668   3.704   2.330   7.283  0.9759 -1.3599  1.1047
  551MOL0     H72669   3.260   2.280   7.364  1.0641 -1.2900 -0.3763
  551MOL0     H72670   3.309   2.354   7.216 -1.3697  1.0784  1.0636
  551MOL0     H72671   3.255   2.557   7.274  1.7389 -0.6776  0.6643
  551MOL0     H72672   3.326   2.541   7.442  0.9919 -0.2222 -0.1753
  551MOL0     H72673   3.121   2.373   7.486  2.1104 -1.7442 -0.1958
  551MOL0     H72674   3.068   2.412   7.323  2.6588 -1.2705  0.4936
  551MOL0     H72675   3.095   2.611   7.571 -2.2342  1.5204  1.3620
  551MOL0     H72676   3.054   2.652   7.407  1.0971 -0.8153  0.2156
  551MOL0     H72677   2.891   2.456   7.585 -1.9232  0.0290  0.5011
  551MOL0     H72678   2.839   2.507   7.423 -1.2075 -0.7357  0.0450
  551MOL0     H72679   2.802   2.726   7.495  1.8757 -0.6500 -0.6480
  551MOL0     H72680   2.908   2.721   7.633 -0.0886  0.8837 -0.0129
  551MOL0     H72681   2.754   2.548   7.758 -3.2343  1.6867  2.3578
  551MOL0     H72682   2.717   2.706   7.764  0.3826 -2.4021  2.6591
  551MOL0     H72683   2.605   2.519   7.546  0.9562 -2.0104  2.0968
  551MOL0     H72684   2.566   2.690   7.593 -0.3886  1.6044  2.3928
  551MOL0     H72685   2.496   2.701   7.874 -2.8903  2.3679  0.2044
  551MOL0     H72686   2.310   2.648   8.064  3.1760 -1.1981  1.3382
  551MOL0     H72687   2.307   2.467   8.084  1.0235  0.3528  0.7999
  551MOL0     H72688   2.093   2.532   8.108 -0.6263 -0.0095 -0.2116
  551MOL0     H72689   2.122   2.451   7.941  0.1935  1.8247 -2.4206
  551MOL0     H72690   2.099   2.746   7.938 -1.7717  0.2369  0.5228
  551MOL0     H72691   2.056   2.629   7.826  0.0956 -2.2394  0.6549
  551MOL0     H72692   1.877   2.754   7.909  1.2222  3.2590  2.0528
  551MOL0     H72693   1.916   2.758   8.078 -1.6952  0.3015  0.5079
  551MOL0     H72694   1.724   2.476   7.812 -0.1356  0.8653  0.3837
  551MOL0     H72695   1.480   2.483   7.769 -2.6609  1.4751  0.7029
  551MOL0     H72696   1.070   2.666   8.129 -1.0539  0.4323  1.0036
  551MOL0     H72697   0.812   2.647   8.104  2.0771  2.4609  2.7322
  551MOL0     H72698   0.651   2.541   7.996 -0.0055  1.0303  0.5532
  551MOL0     H72699   0.534   2.570   7.871 -1.8629  2.2384  0.2404
  551MOL0     H72700   0.469   2.783   7.976 -0.4987 -0.5295 -0.4795
  551MOL0     H72701   0.588   2.744   8.115  0.2476  2.6454 -1.0739
  551MOL0     H72702   0.374   2.692   8.184 -0.0060  0.3520 -0.1578
  551MOL0     H72703   0.485   2.552   8.180 -0.8090 -2.0112 -2.4150
  551MOL0     H72704   0.283   2.571   7.961  2.7642  2.6128  1.6752
  551MOL0     H72705   0.371   2.430   8.010 -1.5068 -0.2761 -1.4960
  551MOL0     H72706   0.190   2.568   8.221  3.8529  0.7338  0.5012
  551MOL0     H72707   0.258   2.406   8.223 -2.3246 -1.6340 -0.7307
  551MOL0     H72708   0.119   2.339   8.051  0.2000  0.3184 -0.9046
  551MOL0     H72709   0.074   2.504   8.016  0.6089 -0.2018  0.5555
  551MOL0     H72710  -0.031   2.509   8.254 -1.3383 -1.7001  2.0952
  551MOL0     H72711  -0.117   2.431   8.124 -1.0584 -1.7804  0.2861
  551MOL0     H72712   0.032   2.263   8.345 -2.4533 -1.3364  1.8665
  551MOL0     H72713  -0.027   2.209   8.183 -0.9006  3.0098 -3.5898
  551MOL0     H72714   0.866   2.799   7.709  0.8335  0.9711  1.0130
  551MOL0     H72715   1.113   2.811   7.744 -2.0322 -0.1224 -1.3868
  551MOL0     H72716   1.439   2.747   8.110 -0.6556 -0.7601 -0.4415
  551MOL0     H72717   1.676   2.715   8.155 -0.4962 -1.1404 -0.1179
  551MOL0     H72718   3.349   2.084   7.330 -1.3531 -1.9983 -1.1294
  551MOL0     H72719   3.463   1.903   7.217 -0.6448  0.6308 -0.5637
  551MOL0     H72720   3.695   1.604   7.137  0.1927  0.0048 -0.9515
  551MOL0     H72721   3.758   1.363   7.144  0.2998  0.0562 -0.0263
  551MOL0     H72722   3.911   1.256   7.009 -1.3997 -0.5154  1.2816
  551MOL0     H72723   3.877   1.123   7.114 -1.6085  0.1528 -1.5755
  551MOL0     H72724   4.165   1.172   7.034  1.4079 -3.7187 -1.1236
  551MOL0     H72725   4.090   1.027   7.080 -0.1571  2.0521 -0.1021
  551MOL0     H72726   4.033   1.170   6.807 -1.8424 -1.2528 -1.8814
  551MOL0     H72727   3.973   1.016   6.855  0.7161 -0.5144 -2.6454
  551MOL0     H72728   4.238   0.961   6.899 -1.0254  0.4232  0.9066
  551MOL0     H72729   4.171   0.942   6.746 -1.3600  0.9011  0.8151
  551MOL0     H72730   4.429   1.267   6.677 -0.1228  0.3249  1.3177
  551MOL0     H72731   4.147   1.465   7.250 -0.3869 -2.3181 -1.2209
  551MOL0     H72732   4.096   1.714   7.245  0.2136  0.0085  3.1939
  552MOL0     O72733   9.092   2.330  10.603  0.1927  1.0090 -0.0326
  552MOL0     C72734   9.119   2.394  10.704  1.0083 -0.7025  0.9456
  552MOL0     O72735   9.034   2.476  10.773 -0.1007 -0.6502  0.0763
  552MOL0     C72736   8.900   2.501  10.739 -0.3742 -0.4850  1.0894
  552MOL0     C72737   8.850   2.613  10.799 -0.3882  0.1944 -0.2953
  552MOL0     C72738   8.717   2.658  10.773  0.4059 -0.0340  0.1359
  552MOL0     C72739   8.634   2.573  10.699  0.2453 -0.7802  0.7199
  552MOL0     O72740   8.498   2.601  10.670  0.0131  0.2419  0.1188
  552MOL0     C72741   8.434   2.731  10.713 -0.5977 -0.0257 -0.7005
  552MOL0     C72742   8.278   2.724  10.712 -0.6697  1.0166 -0.0179
  552MOL0     C72743   8.234   2.626  10.825  0.5130  0.0246 -0.8503
  552MOL0     C72744   8.088   2.590  10.798  0.4384 -0.2500 -0.7940
  552MOL0     C72745   8.009   2.549  10.918 -0.3360 -0.7594 -0.8230
  552MOL0     C72746   7.869   2.613  10.922 -0.2094  0.1521 -0.1434
  552MOL0     C72747   7.774   2.560  10.803 -0.2759 -0.5642 -0.0734
  552MOL0     C72748   7.673   2.664  10.767  0.6080 -0.1286  0.1425
  552MOL0     N72749   7.564   2.628  10.670 -0.2825  0.4193 -0.0268
  552MOL0     C72750   7.495   2.507  10.685  0.2769  0.1523 -0.5029
  552MOL0     C72751   7.404   2.514  10.585 -0.2494  1.0308  0.1495
  552MOL0     C72752   7.311   2.395  10.565 -0.3507 -1.0735  0.0484
  552MOL0     C72753   7.164   2.442  10.590  0.7315  0.3060 -0.1729
  552MOL0     C72754   7.074   2.318  10.611 -0.2340  0.1163  0.2130
  552MOL0     C72755   6.938   2.353  10.653 -0.1335  0.0352  0.2698
  552MOL0     O72756   6.865   2.244  10.710 -0.5195  0.2027  0.2604
  552MOL0     C72757   6.733   2.247  10.680 -0.5001 -0.3874 -0.0304
  552MOL0     C72758   6.684   2.249  10.548  0.0998  0.3426 -0.9993
  552MOL0     C72759   6.546   2.229  10.524 -1.4550  0.4797  0.0107
  552MOL0     C72760   6.455   2.225  10.629  0.5395 -0.5940 -1.0668
  552MOL0     C72761   6.311   2.209  10.612  0.5679  0.0980  0.5314
  552MOL0     O72762   6.242   2.230  10.722  1.3805 -0.0412  0.4777
  552MOL0     C72763   6.106   2.196  10.717 -0.9316  0.3505 -0.4548
  552MOL0     C72764   6.020   2.303  10.739  0.4078 -0.1908 -0.8480
  552MOL0     C72765   5.885   2.268  10.751 -0.2923  0.2768  0.1832
  552MOL0     C72766   5.838   2.133  10.767 -0.4167  0.7750  0.7979
  552MOL0     O72767   5.694   2.114  10.762  0.7025 -0.0287  0.1921
  552MOL0     C72768   5.638   1.987  10.764 -0.1430 -0.0104  0.7232
  552MOL0     C72769   5.499   2.003  10.699 -0.0308  0.3508  0.8757
  552MOL0     C72770   5.424   1.876  10.742 -0.0829 -0.5538 -0.3097
  552MOL0     C72771   5.288   1.860  10.673  0.8379  0.3976 -0.3213
  552MOL0     C72772   5.309   1.821  10.521 -0.4810  0.3541  0.2046
  552MOL0     C72773   5.172   1.818  10.453  0.1052  0.8303  0.8998
  552MOL0     C72774   5.195   1.812  10.301 -0.1946 -0.5366  0.4809
  552MOL0     C72775   5.085   1.748  10.216 -0.2702 -0.1749  0.1252
  552MOL0    Cl72776   5.076   1.578  10.262  0.2426  0.0933  0.4024
  552MOL0     C72777   5.934   2.032  10.734 -0.0357 -0.0612  0.1460
  552MOL0     C72778   6.067   2.065  10.715 -0.5126 -0.8334 -0.1958
  552MOL0     O72779   6.259   2.181  10.502 -0.0473 -0.0734  0.4662
  552MOL0     C72780   6.500   2.231  10.762 -1.0411 -0.0644  0.7133
  552MOL0     C72781   6.640   2.240  10.787  0.1121 -0.1543  0.6118
  552MOL0     N72782   7.413   2.643  10.519  0.0657  0.2311  0.6003
  552MOL0     N72783   7.511   2.709  10.577 -0.3538 -0.2780 -0.8079
  552MOL0     C72784   8.676   2.452  10.643  0.0046  0.2108  0.8310
  552MOL0     C72785   8.809   2.417  10.663 -0.1152 -1.2327 -1.0129
  552MOL0     C72786   9.242   2.375  10.773 -0.6668  0.3562 -0.3469
  552MOL0     C72787   9.307   2.476  10.846 -0.0365 -0.5441  0.0155
  552MOL0     C72788   9.435   2.457  10.898 -0.5464 -0.5100 -0.2280
  552MOL0     C72789   9.497   2.329  10.905 -0.1459 -0.1751 -0.5427
  552MOL0     O72790   9.609   2.322  10.982 -0.2525 -0.6390  1.0075
  552MOL0     C72791   9.680   2.204  10.999 -0.6256  0.0782 -0.3306
  552MOL0     C72792   9.785   2.221  11.110 -0.1404  0.4779  0.0513
  552MOL0     C72793   9.849   2.091  11.149 -0.8385  0.6374 -0.4984
  552MOL0     C72794   9.787   2.013  11.261 -0.6051 -0.0255 -0.1366
  552MOL0     C72795   9.792   2.088  11.388  0.4199  0.6013 -1.4085
  552MOL0     C72796   9.777   2.140  11.498  0.4757  0.3221  0.6606
  552MOL0     C72797   9.426   2.228  10.834 -0.5710 -1.0170 -0.4865
  552MOL0     C72798   9.309   2.254  10.768  1.0038  0.2457  0.3385
  552MOL0     H72799   8.906   2.673  10.870  2.0057 -1.9915 -0.1635
  552MOL0     H72800   8.684   2.756  10.806  5.0536  1.5598  0.8018
  552MOL0     H72801   8.462   2.810  10.643 -2.7600  2.1618  0.7413
  552MOL0     H72802   8.458   2.762  10.815  1.3830 -3.1203 -0.0572
  552MOL0     H72803   8.228   2.699  10.618  0.8887  0.8137 -0.8157
  552MOL0     H72804   8.244   2.822  10.746 -2.4862 -0.2524  2.0814
  552MOL0     H72805   8.251   2.683  10.917 -1.5005 -2.5499  1.2635
  552MOL0     H72806   8.286   2.530  10.836 -0.8253 -0.6932 -0.6901
  552MOL0     H72807   8.038   2.674  10.750 -1.0718 -0.9406 -0.5124
  552MOL0     H72808   8.082   2.518  10.715  0.0150  0.4117 -1.3432
  552MOL0     H72809   8.060   2.587  11.006 -1.5842 -0.1870 -0.3288
  552MOL0     H72810   8.005   2.440  10.920  1.3555 -0.8811 -1.7327
  552MOL0     H72811   7.879   2.722  10.918 -1.5978  0.3726  1.4573
  552MOL0     H72812   7.810   2.596  11.012 -1.1864 -0.5943 -0.8978
  552MOL0     H72813   7.833   2.539  10.713  2.1409 -3.0324  1.8948
  552MOL0     H72814   7.727   2.471  10.847  0.3553 -0.6705  0.4019
  552MOL0     H72815   7.732   2.747  10.726  2.9550 -1.7409  0.0755
  552MOL0     H72816   7.620   2.684  10.861  1.3787 -0.8137  0.7340
  552MOL0     H72817   7.519   2.423  10.748 -3.0193 -1.3856 -1.0567
  552MOL0     H72818   7.327   2.317  10.640  0.3569 -0.3383  0.6737
  552MOL0     H72819   7.315   2.360  10.462 -2.1608  1.4634 -0.9985
  552MOL0     H72820   7.121   2.504  10.511 -2.1088 -0.3386  0.7236
  552MOL0     H72821   7.157   2.502  10.682 -1.6429 -0.0875 -0.0241
  552MOL0     H72822   7.062   2.261  10.518 -1.1747 -3.7080  2.4919
  552MOL0     H72823   7.115   2.254  10.690 -0.9833 -0.4242  0.1741
  552MOL0     H72824   6.883   2.409  10.578  0.8210  1.1404  0.3662
  552MOL0     H72825   6.952   2.416  10.741  1.1256 -0.3938  0.4015
  552MOL0     H72826   6.761   2.254  10.472  1.2988  1.7398  0.2570
  552MOL0     H72827   6.510   2.227  10.422 -1.3354  0.5370 -0.0328
  552MOL0     H72828   6.046   2.408  10.730  0.1190  0.8116  5.3587
  552MOL0     H72829   5.815   2.350  10.737  0.6005  1.0107 -0.1077
  552MOL0     H72830   5.617   1.951  10.865 -1.0038  0.9780  0.9129
  552MOL0     H72831   5.699   1.921  10.702  1.0188  1.4688  0.2363
  552MOL0     H72832   5.507   2.018  10.591  0.8765  3.7255  1.2842
  552MOL0     H72833   5.454   2.096  10.737 -2.3241  0.2297 -1.2829
  552MOL0     H72834   5.409   1.862  10.849 -0.8452 -1.3091 -0.5024
  552MOL0     H72835   5.480   1.785  10.718 -0.6259 -0.9938  0.0812
  552MOL0     H72836   5.239   1.774  10.721  0.9794  0.1899 -0.5544
  552MOL0     H72837   5.232   1.953  10.686  2.8006  1.2935  2.8620
  552MOL0     H72838   5.357   1.723  10.514  1.1039  1.0883  0.2250
  552MOL0     H72839   5.363   1.904  10.475 -2.2091  0.4361 -1.8060
  552MOL0     H72840   5.110   1.904  10.478  0.3015  0.4955  2.6634
  552MOL0     H72841   5.136   1.718  10.480  1.3532 -0.6583 -2.3623
  552MOL0     H72842   5.217   1.910  10.257  0.3975 -1.5855 -1.6639
  552MOL0     H72843   5.281   1.745  10.292 -1.5298 -2.4237  1.0296
  552MOL0     H72844   5.088   1.755  10.107 -2.8886 -2.1150 -0.1558
  552MOL0     H72845   4.991   1.801  10.236  0.0322  0.2992  0.3125
  552MOL0     H72846   5.904   1.928  10.731 -1.2607  0.2966 -0.8639
  552MOL0     H72847   6.147   1.993  10.699  0.4186 -0.5019  2.4066
  552MOL0     H72848   6.432   2.206  10.842 -2.1201  1.4687  0.3143
  552MOL0     H72849   6.673   2.234  10.890  1.0703 -2.0509  0.2392
  552MOL0     H72850   8.598   2.411  10.580  2.1322  1.1735 -2.7437
  552MOL0     H72851   8.860   2.330  10.621  2.3840 -0.2291 -0.2762
  552MOL0     H72852   9.270   2.577  10.857  4.0981  1.2347 -0.3903
  552MOL0     H72853   9.487   2.542  10.942 -0.1029  0.2813 -2.1697
  552MOL0     H72854   9.720   2.182  10.899 -0.2993 -0.2080 -0.1395
  552MOL0     H72855   9.610   2.122  11.019  0.9018 -1.3184 -0.4344
  552MOL0     H72856   9.856   2.294  11.070  1.3014 -2.1320 -2.5369
  552MOL0     H72857   9.724   2.256  11.194 -1.1369 -1.8208  0.3486
  552MOL0     H72858   9.954   2.114  11.170 -0.8766  1.3073 -1.0047
  552MOL0     H72859   9.846   2.035  11.055  3.0891  1.2720 -1.1555
  552MOL0     H72860   9.683   1.997  11.232 -1.2240  0.8949  1.4333
  552MOL0     H72861   9.834   1.914  11.268 -0.8676 -0.2645 -1.5564
  552MOL0     H72862   9.776   2.187  11.594 -1.3094 -1.1334  1.4015
  552MOL0     H72863   9.462   2.126  10.829  0.0699 -0.8727  0.7965
  552MOL0     H72864   9.254   2.177  10.716 -2.0664  1.2923  1.8156
  553MOL0     O72865   8.568   0.969   5.492 -0.3337 -0.0313 -0.1017
  553MOL0     C72866   8.570   1.076   5.434 -0.0917  0.9890  0.5475
  553MOL0     O72867   8.471   1.166   5.412  0.6086 -0.0055 -0.1461
  553MOL0     C72868   8.335   1.137   5.417  0.5411 -1.3113 -0.6310
  553MOL0     C72869   8.275   1.009   5.421 -0.6929 -0.8185  0.3638
  553MOL0     C72870   8.139   0.993   5.419  0.2238 -0.7645  0.0999
  553MOL0     C72871   8.053   1.103   5.407  0.7858 -0.5591  1.0779
  553MOL0     O72872   7.918   1.093   5.387  0.6681  0.1884 -0.6810
  553MOL0     C72873   7.861   0.966   5.368 -0.2192  0.4458  0.3872
  553MOL0     C72874   7.714   0.988   5.337 -0.2162 -0.0030  0.1880
  553MOL0     C72875   7.690   1.104   5.242  0.2721 -0.5809 -0.3371
  553MOL0     C72876   7.558   1.086   5.166  0.4196 -0.5454 -0.7210
  553MOL0     C72877   7.502   1.212   5.092 -0.4551 -0.0014  0.7425
  553MOL0     C72878   7.389   1.168   4.989  1.1552  0.5811  0.2503
  553MOL0     C72879   7.325   1.298   4.932 -0.9911 -0.5117 -0.6266
  553MOL0     C72880   7.268   1.266   4.796 -0.3059 -0.2366 -0.3495
  553MOL0     N72881   7.171   1.156   4.792 -0.4677  0.2962 -0.6351
  553MOL0     C72882   7.037   1.147   4.834  0.2583  0.2436  0.2661
  553MOL0     C72883   6.995   1.027   4.786 -0.1497 -0.8698  0.4909
  553MOL0     C72884   6.859   0.972   4.822 -0.2605  0.0209  0.8650
  553MOL0     C72885   6.742   1.069   4.827  0.7075 -0.0018  0.3173
  553MOL0     C72886   6.717   1.128   4.959 -0.2845  0.1166 -0.2950
  553MOL0     C72887   6.672   1.025   5.058 -0.6880 -0.5539 -0.7041
  553MOL0     O72888   6.616   1.093   5.177 -0.5378  0.2151 -0.1111
  553MOL0     C72889   6.485   1.126   5.176 -0.7071 -0.7016 -0.7048
  553MOL0     C72890   6.388   1.038   5.213 -0.9036  0.6414  0.8565
  553MOL0     C72891   6.257   1.067   5.188 -0.2945  0.5631 -0.6906
  553MOL0     C72892   6.217   1.189   5.148  0.2089 -0.3613 -0.4343
  553MOL0     C72893   6.070   1.233   5.130 -0.3448 -0.1729 -0.5108
  553MOL0     O72894   6.039   1.356   5.069 -0.1870  0.0617 -0.7388
  553MOL0     C72895   5.914   1.403   5.065  0.2060 -0.0061  0.1866
  553MOL0     C72896   5.865   1.451   4.943 -1.0450  1.0978  0.0807
  553MOL0     C72897   5.738   1.493   4.916  0.3076 -0.4099 -0.7547
  553MOL0     C72898   5.649   1.509   5.026 -0.3185 -0.5264 -0.5523
  553MOL0     O72899   5.520   1.543   5.016 -0.5230  0.1201 -0.1344
  553MOL0     C72900   5.466   1.577   4.888 -0.0028  0.4897 -0.9856
  553MOL0     C72901   5.329   1.633   4.909  0.2073  0.3673  0.0496
  553MOL0     C72902   5.238   1.517   4.959  0.4180  0.2354 -0.5470
  553MOL0     C72903   5.091   1.567   4.980 -0.3210 -0.2954  0.3153
  553MOL0     C72904   5.004   1.450   5.013 -0.0563  0.4793 -0.2355
  553MOL0     C72905   4.986   1.355   4.890  0.0315  0.0531  0.1975
  553MOL0     C72906   4.906   1.236   4.934 -0.3059 -0.5095  0.8447
  553MOL0     C72907   4.860   1.158   4.816 -0.7125  0.0039 -0.1367
  553MOL0    Cl72908   4.805   0.988   4.872  0.3037 -0.3113  0.3405
  553MOL0     C72909   5.700   1.473   5.158  0.3378 -1.1297  0.5380
  553MOL0     C72910   5.822   1.416   5.173  0.2361 -1.3564 -0.2381
  553MOL0     O72911   5.988   1.157   5.177  0.0651 -0.4706 -0.2493
  553MOL0     C72912   6.315   1.287   5.123  0.0483 -0.6160 -1.1492
  553MOL0     C72913   6.450   1.253   5.136  0.3991 -0.3943  0.0942
  553MOL0     N72914   7.095   0.960   4.714  0.2789 -0.0565  0.3949
  553MOL0     N72915   7.200   1.035   4.728 -0.3174  0.1212  0.3184
  553MOL0     C72916   8.110   1.230   5.391  0.3611  0.0557  0.0366
  553MOL0     C72917   8.248   1.242   5.399  1.2025  0.5113  0.8200
  553MOL0     C72918   8.704   1.119   5.378 -0.7768 -0.0878 -0.6399
  553MOL0     C72919   8.829   1.074   5.433  0.3739 -0.1659  0.1769
  553MOL0     C72920   8.947   1.119   5.380  0.1951  0.6824 -0.1035
  553MOL0     C72921   8.954   1.208   5.270 -1.2209  0.0423 -0.4981
  553MOL0     O72922   9.064   1.270   5.214  0.1277  0.0716  0.7707
  553MOL0     C72923   9.193   1.250   5.280 -0.1025 -0.2170  0.1529
  553MOL0     C72924   9.202   1.338   5.403 -0.0071 -0.5814  0.3758
  553MOL0     C72925   9.333   1.351   5.477 -0.0982  0.4044  0.8754
  553MOL0     C72926   9.446   1.402   5.385  0.8103 -0.0892  0.2502
  553MOL0     C72927   9.433   1.539   5.341 -0.5590 -1.1250  0.3869
  553MOL0     C72928   9.429   1.663   5.315  0.4781  0.6678 -0.4249
  553MOL0     C72929   8.826   1.262   5.229 -0.9767  0.1326 -0.5290
  553MOL0     C72930   8.714   1.216   5.280  1.0361  0.6639  0.5065
  553MOL0     H72931   8.332   0.916   5.426  0.0934 -0.3391  0.4678
  553MOL0     H72932   8.091   0.896   5.429 -1.0809 -0.1599 -0.0374
  553MOL0     H72933   7.884   0.896   5.450  3.8098 -1.2380 -1.8507
  553MOL0     H72934   7.914   0.916   5.286 -1.5493 -1.0074  0.3515
  553MOL0     H72935   7.664   1.009   5.433  2.0663 -3.4516  2.3269
  553MOL0     H72936   7.669   0.895   5.300 -0.6196 -0.7864  2.4698
  553MOL0     H72937   7.774   1.101   5.173  1.1373  0.8266  0.6021
  553MOL0     H72938   7.712   1.197   5.296 -0.2153 -0.4814 -0.3091
  553MOL0     H72939   7.575   1.003   5.098 -0.6794  0.5343 -2.3992
  553MOL0     H72940   7.481   1.064   5.241 -1.2078  2.9525 -1.1199
  553MOL0     H72941   7.576   1.252   5.022 -3.3742  3.3307 -0.7276
  553MOL0     H72942   7.470   1.287   5.165 -1.6974 -1.3516  1.6448
  553MOL0     H72943   7.314   1.107   5.040 -0.0853  2.4631  0.7891
  553MOL0     H72944   7.433   1.113   4.906 -0.0063 -0.5076  0.3290
  553MOL0     H72945   7.255   1.330   5.009 -2.4801 -3.4441 -0.6643
  553MOL0     H72946   7.398   1.379   4.921  0.5456 -1.5223  1.4894
  553MOL0     H72947   7.351   1.255   4.727  0.2494  0.8983  0.1170
  553MOL0     H72948   7.223   1.362   4.771  2.3841  1.0594 -0.4592
  553MOL0     H72949   6.986   1.227   4.886  2.3455  0.2138  2.5638
  553MOL0     H72950   6.872   0.931   4.923 -0.1750  2.8630  2.0780
  553MOL0     H72951   6.837   0.890   4.752 -3.6987  3.8409 -3.1107
  553MOL0     H72952   6.662   1.003   4.791  0.2537 -0.0305  1.3550
  553MOL0     H72953   6.755   1.152   4.757 -4.2335  1.6314  0.8779
  553MOL0     H72954   6.800   1.186   5.002  0.0342  0.7607 -1.7111
  553MOL0     H72955   6.638   1.203   4.943 -2.4422 -1.8668  0.4899
  553MOL0     H72956   6.763   0.975   5.094  0.7112 -0.0017 -3.2280
  553MOL0     H72957   6.602   0.960   5.006 -2.2581 -0.2817  0.9915
  553MOL0     H72958   6.410   0.937   5.245  0.7779  0.6594 -0.1326
  553MOL0     H72959   6.181   0.993   5.212 -0.3975  0.9041  0.0736
  553MOL0     H72960   5.928   1.446   4.856 -3.6190  1.6090 -1.9409
  553MOL0     H72961   5.719   1.526   4.815 -0.0022 -0.1326 -0.6077
  553MOL0     H72962   5.461   1.485   4.828  0.4811  0.7663 -1.4481
  553MOL0     H72963   5.534   1.645   4.837 -0.8693  1.8331 -0.3862
  553MOL0     H72964   5.290   1.674   4.815  4.8256  1.9868 -1.4701
  553MOL0     H72965   5.342   1.720   4.975 -0.0868 -0.9994  1.9786
  553MOL0     H72966   5.282   1.473   5.049 -0.3404 -2.8817 -1.5756
  553MOL0     H72967   5.229   1.433   4.889 -0.1797  1.3109 -1.7869
  553MOL0     H72968   5.103   1.656   5.043  3.5478 -1.3018  1.3016
  553MOL0     H72969   5.070   1.615   4.884  1.4621  2.4848  1.1761
  553MOL0     H72970   4.903   1.479   5.043 -0.9627 -0.1898 -2.3891
  553MOL0     H72971   5.045   1.400   5.101 -0.6433 -0.6417 -0.5857
  553MOL0     H72972   5.073   1.324   4.831  1.6183 -3.7240  3.9540
  553MOL0     H72973   4.920   1.398   4.815 -0.0354  2.6217  1.6284
  553MOL0     H72974   4.964   1.171   5.000  0.1978 -0.0444  0.8674
  553MOL0     H72975   4.816   1.255   4.993  1.4116 -1.4883  4.0224
  553MOL0     H72976   4.938   1.149   4.739  1.7310 -0.4395  2.2615
  553MOL0     H72977   4.777   1.217   4.777 -0.3069  1.5511  1.2344
  553MOL0     H72978   5.625   1.484   5.235  0.9206 -2.4279  1.3261
  553MOL0     H72979   5.856   1.390   5.273  2.0636  1.6365  0.0267
  553MOL0     H72980   6.282   1.387   5.095  0.0731 -1.4110 -4.4110
  553MOL0     H72981   6.525   1.324   5.103 -0.4802 -0.6465 -2.6360
  553MOL0     H72982   8.060   1.326   5.399 -3.2308 -1.6957  0.5406
  553MOL0     H72983   8.285   1.344   5.410 -2.8412  2.2316  0.2499
  553MOL0     H72984   8.826   0.999   5.512  2.5131 -1.6964 -1.0901
  553MOL0     H72985   9.025   1.055   5.421  0.0261 -1.9398 -3.4555
  553MOL0     H72986   9.269   1.292   5.214 -1.3342 -1.1623 -1.9863
  553MOL0     H72987   9.212   1.146   5.310 -1.5516 -0.1654  1.3855
  553MOL0     H72988   9.175   1.438   5.367  1.4658 -0.4573 -0.4338
  553MOL0     H72989   9.133   1.300   5.480  0.2526  1.0835  1.5093
  553MOL0     H72990   9.361   1.257   5.526  1.0623 -0.1344 -0.7467
  553MOL0     H72991   9.315   1.420   5.560  0.5195  0.1153  1.2555
  553MOL0     H72992   9.535   1.389   5.446 -0.5752  1.0856  2.6636
  553MOL0     H72993   9.460   1.357   5.286 -0.1291 -0.0780  0.1057
  553MOL0     H72994   9.415   1.766   5.292 -2.8570  0.0660 -1.6372
  553MOL0     H72995   8.823   1.351   5.166 -0.6993  0.6691  0.1985
  553MOL0     H72996   8.623   1.266   5.248 -0.2132 -1.1722  0.9622
  554MOL0     O72997   7.649   8.239   3.007  0.1002 -0.7351  0.1158
  554MOL0     C72998   7.737   8.306   3.057 -0.5226  0.1355  0.4673
  554MOL0     O72999   7.733   8.439   3.093  0.6749 -0.0225  1.3469
  554MOL0     C73000   7.619   8.502   3.040 -0.1027 -0.7981 -0.2387
  554MOL0     C73001   7.491   8.495   3.083 -0.5353  0.3736  0.3075
  554MOL0     C73002   7.385   8.567   3.027  0.4015 -0.3000 -0.7823
  554MOL0     C73003   7.409   8.668   2.936  1.0436 -0.9776  0.0438
  554MOL0     O73004   7.319   8.745   2.872  0.6463 -0.6207  0.6657
  554MOL0     C73005   7.182   8.750   2.905 -0.3066  0.2322 -1.4098
  554MOL0     C73006   7.109   8.861   2.829  0.4180 -0.6763 -0.0805
  554MOL0     C73007   6.957   8.862   2.835  0.0126  0.7617  0.1156
  554MOL0     C73008   6.904   8.870   2.975 -0.4450  0.1842 -0.4072
  554MOL0     C73009   6.753   8.873   2.985 -0.5635 -0.8294 -0.4413
  554MOL0     C73010   6.694   8.736   2.927  0.0379 -0.9046  0.0686
  554MOL0     C73011   6.541   8.737   2.919 -0.4028  0.2060 -0.2467
  554MOL0     C73012   6.486   8.829   2.809  0.9208  0.2156  0.0262
  554MOL0     N73013   6.339   8.841   2.826  0.9161  0.3260 -0.7543
  554MOL0     C73014   6.290   8.942   2.896  1.0629 -0.7195  0.3755
  554MOL0     C73015   6.162   8.914   2.915  0.0233 -0.1859  0.2625
  554MOL0     C73016   6.070   9.001   3.002  0.2766 -1.0457 -0.2514
  554MOL0     C73017   5.993   9.104   2.926  0.1629  1.4854  0.3391
  554MOL0     C73018   5.903   9.034   2.825 -1.5527  1.0395 -0.0774
  554MOL0     C73019   5.833   9.147   2.741  0.5262 -0.5575  0.6370
  554MOL0     O73020   5.738   9.221   2.820 -0.3854 -0.3193 -0.3619
  554MOL0     C73021   5.615   9.244   2.766  1.1279  0.5959  0.7959
  554MOL0     C73022   5.512   9.276   2.858  1.1077  0.4988 -0.9752
  554MOL0     C73023   5.386   9.298   2.825 -0.0058  0.7414  0.0836
  554MOL0     C73024   5.343   9.273   2.693 -0.7718  1.4603 -0.0463
  554MOL0     C73025   5.195   9.277   2.654  0.7775 -0.2527 -1.2223
  554MOL0     O73026   5.105   9.299   2.755  0.1928 -0.1502 -0.0635
  554MOL0     C73027   4.976   9.329   2.726  0.4449  0.4545  0.0208
  554MOL0     C73028   4.918   9.405   2.824 -0.2502 -0.5023 -0.1585
  554MOL0     C73029   4.786   9.446   2.819  0.6215  0.5888  0.4846
  554MOL0     C73030   4.697   9.409   2.715 -0.2933  0.2924 -0.4661
  554MOL0     O73031   4.566   9.445   2.722 -0.5094 -0.1664 -0.5044
  554MOL0     C73032   4.491   9.452   2.604  0.6778  0.1090 -0.4492
  554MOL0     C73033   4.334   9.490   2.617 -1.1784  0.2035 -0.1312
  554MOL0     C73034   4.320   9.595   2.726  0.4920  0.3701 -0.2024
  554MOL0     C73035   4.178   9.659   2.739 -0.3384 -0.3464  1.3458
  554MOL0     C73036   4.170   9.785   2.829  0.1099 -0.7578 -0.3275
  554MOL0     C73037   4.238   9.754   2.966 -0.0157  0.4105 -0.7511
  554MOL0     C73038   4.230   9.878   3.064 -0.6893 -0.3365  0.5573
  554MOL0     C73039   4.241   9.827   3.204 -0.0531 -0.5251 -0.2870
  554MOL0    Cl73040   4.403   9.751   3.229  0.4751  0.4123 -0.0790
  554MOL0     C73041   4.757   9.331   2.616 -0.2269  0.7568  0.0470
  554MOL0     C73042   4.896   9.291   2.618  0.3838  0.1418 -0.2788
  554MOL0     O73043   5.174   9.284   2.536  0.6753  0.7994 -0.6864
  554MOL0     C73044   5.439   9.242   2.595 -0.3826 -0.1515  0.3682
  554MOL0     C73045   5.571   9.222   2.635 -0.0061 -1.5403  0.0510
  554MOL0     N73046   6.137   8.795   2.848  0.4748 -0.3785  0.4042
  554MOL0     N73047   6.244   8.746   2.800 -0.0154  0.0984  0.4138
  554MOL0     C73048   7.538   8.669   2.880  0.4857 -0.5348  0.3502
  554MOL0     C73049   7.639   8.592   2.933 -0.1533  0.1257  1.0884
  554MOL0     C73050   7.865   8.242   3.096  0.6627  0.6351 -0.4669
  554MOL0     C73051   7.869   8.110   3.133 -0.0265 -0.6696  0.5442
  554MOL0     C73052   7.987   8.047   3.182  1.2055  1.5237  0.8059
  554MOL0     C73053   8.101   8.126   3.197  0.6136 -0.3350 -0.2922
  554MOL0     O73054   8.229   8.081   3.233 -0.4954  0.0319 -0.4133
  554MOL0     C73055   8.244   7.953   3.307  0.5664 -0.3896  0.5858
  554MOL0     C73056   8.393   7.923   3.325  0.1877  0.6323  0.0005
  554MOL0     C73057   8.425   7.835   3.437  0.0705  0.0732  0.8836
  554MOL0     C73058   8.570   7.787   3.429 -0.1351  0.0713  0.1539
  554MOL0     C73059   8.612   7.712   3.545  0.9374  0.4733  0.0002
  554MOL0     C73060   8.642   7.638   3.638 -0.3561 -0.1219  0.0777
  554MOL0     C73061   8.098   8.256   3.153  0.0270 -0.3509  0.0640
  554MOL0     C73062   7.980   8.315   3.108 -0.3580 -0.6648  0.1284
  554MOL0     H73063   7.467   8.429   3.166 -1.7813  0.3225 -0.0630
  554MOL0     H73064   7.285   8.543   3.063 -0.7585 -0.0275 -3.5860
  554MOL0     H73065   7.152   8.757   3.010 -0.6028 -2.4300 -1.2644
  554MOL0     H73066   7.133   8.658   2.872 -0.1459 -0.8163  1.0531
  554MOL0     H73067   7.144   8.852   2.725  1.2652 -0.0252  0.1451
  554MOL0     H73068   7.144   8.956   2.867 -2.7074  1.6399 -2.3957
  554MOL0     H73069   6.929   8.764   2.795  2.1958 -0.3305  1.0778
  554MOL0     H73070   6.918   8.949   2.781  2.4685  0.8587 -1.6997
  554MOL0     H73071   6.935   8.793   3.046 -1.9321 -0.7116 -0.6721
  554MOL0     H73072   6.951   8.958   3.020  0.6933  0.0574 -1.2991
  554MOL0     H73073   6.720   8.962   2.931  0.7667 -0.7274 -1.1463
  554MOL0     H73074   6.727   8.887   3.090  0.5572  2.3842 -0.4652
  554MOL0     H73075   6.724   8.655   2.994  1.1439 -1.2030 -0.7811
  554MOL0     H73076   6.729   8.724   2.825  2.3979  0.8771  0.5874
  554MOL0     H73077   6.504   8.637   2.893  0.7902 -0.4172  0.3823
  554MOL0     H73078   6.503   8.765   3.018  1.3028 -0.1276  0.5400
  554MOL0     H73079   6.499   8.780   2.712  2.3093 -0.3335  0.4740
  554MOL0     H73080   6.540   8.924   2.806  3.1420 -0.9956 -0.6161
  554MOL0     H73081   6.342   9.020   2.951 -1.0880  1.5018 -0.5652
  554MOL0     H73082   6.128   9.054   3.078  0.6836 -0.8878 -0.6715
  554MOL0     H73083   6.004   8.926   3.046 -1.4669  0.8257  0.5360
  554MOL0     H73084   6.057   9.172   2.868 -0.9692  1.2946 -1.1954
  554MOL0     H73085   5.928   9.158   2.996 -2.9378  0.4109 -1.5266
  554MOL0     H73086   5.960   8.973   2.754 -1.0619  0.0150  1.1558
  554MOL0     H73087   5.824   8.969   2.865  1.5278 -4.2886 -1.6874
  554MOL0     H73088   5.786   9.107   2.650  0.3045  1.0019  0.0359
  554MOL0     H73089   5.920   9.206   2.712  0.9442  0.2783  3.3651
  554MOL0     H73090   5.526   9.297   2.964 -0.9211  2.5742 -1.0264
  554MOL0     H73091   5.315   9.315   2.906 -1.6138 -2.5074 -0.4766
  554MOL0     H73092   4.977   9.448   2.904 -1.2249  0.3664  0.1021
  554MOL0     H73093   4.756   9.512   2.899  4.2572 -0.2653  2.8181
  554MOL0     H73094   4.478   9.350   2.568 -1.1778 -2.0071  5.1146
  554MOL0     H73095   4.537   9.530   2.542  1.1614 -0.3489 -0.6766
  554MOL0     H73096   4.269   9.405   2.635 -1.6051  0.2215 -1.5114
  554MOL0     H73097   4.297   9.521   2.520 -1.6392 -1.2631 -0.4411
  554MOL0     H73098   4.390   9.679   2.720 -1.2583  2.0063  1.0534
  554MOL0     H73099   4.342   9.542   2.819 -2.5722 -1.0538 -0.1765
  554MOL0     H73100   4.133   9.682   2.642 -0.3644 -1.4298  1.0852
  554MOL0     H73101   4.113   9.578   2.773 -0.6921 -0.8015 -0.3232
  554MOL0     H73102   4.066   9.814   2.846  0.2467 -1.0539  1.1823
  554MOL0     H73103   4.225   9.864   2.776  1.1077 -1.7861 -0.8515
  554MOL0     H73104   4.341   9.722   2.946  0.1414 -0.3724  1.0729
  554MOL0     H73105   4.186   9.673   3.017 -0.3037  0.6698 -0.6264
  554MOL0     H73106   4.297   9.961   3.038 -2.3578  1.4061  1.5887
  554MOL0     H73107   4.130   9.922   3.064 -0.5035  0.1155 -0.3118
  554MOL0     H73108   4.166   9.749   3.223  0.1771 -1.7687 -3.7767
  554MOL0     H73109   4.223   9.916   3.265 -0.2444  1.1836 -2.6899
  554MOL0     H73110   4.706   9.295   2.527  1.2290  0.6226 -0.7640
  554MOL0     H73111   4.937   9.215   2.552  0.3889 -0.0306 -0.0800
  554MOL0     H73112   5.419   9.231   2.489  1.4436 -3.8603  0.2475
  554MOL0     H73113   5.631   9.200   2.547 -0.6585 -0.6833 -0.6297
  554MOL0     H73114   7.563   8.745   2.806  0.0366  0.1630  0.9031
  554MOL0     H73115   7.743   8.603   2.902 -0.1713 -2.2590 -0.0928
  554MOL0     H73116   7.783   8.045   3.121 -0.9709  1.0201 -3.1816
  554MOL0     H73117   7.996   7.941   3.200  2.0422  1.8121  2.2448
  554MOL0     H73118   8.206   7.876   3.239 -0.1789  1.8116 -1.6853
  554MOL0     H73119   8.204   7.958   3.408 -0.7546 -2.4287  0.2127
  554MOL0     H73120   8.423   7.885   3.227 -0.1321  0.1461  0.0894
  554MOL0     H73121   8.443   8.020   3.328 -0.5634  1.0503 -0.6518
  554MOL0     H73122   8.367   7.743   3.424  0.1245  0.0626  0.7082
  554MOL0     H73123   8.414   7.883   3.534  0.9423  0.4974  0.7806
  554MOL0     H73124   8.578   7.719   3.344 -1.5778  0.0554  0.0178
  554MOL0     H73125   8.634   7.875   3.415 -1.2829  0.9982  0.5501
  554MOL0     H73126   8.663   7.568   3.717 -0.4613 -2.6193 -1.9806
  554MOL0     H73127   8.197   8.301   3.154 -0.2446  0.2371  0.5118
  554MOL0     H73128   7.981   8.421   3.082  1.2179 -0.8504 -0.7226
  555MOL0     O73129   2.734   4.211   9.071 -0.0847 -0.3511 -0.0607
  555MOL0     C73130   2.781   4.219   9.185  0.1354 -0.0120 -0.5707
  555MOL0     O73131   2.712   4.217   9.307 -0.1555  0.3929  0.0396
  555MOL0     C73132   2.575   4.214   9.294 -0.4041  0.9615 -0.0759
  555MOL0     C73133   2.508   4.090   9.302  0.0959  0.0716 -0.0459
  555MOL0     C73134   2.364   4.089   9.294 -1.3250 -0.1124 -0.1777
  555MOL0     C73135   2.294   4.209   9.273 -0.6188 -0.1014  0.1663
  555MOL0     O73136   2.161   4.199   9.248  0.4405 -0.1897 -0.0910
  555MOL0     C73137   2.082   4.302   9.305  0.4425  0.2594  0.3216
  555MOL0     C73138   1.930   4.265   9.308  0.5140 -0.1611 -0.1473
  555MOL0     C73139   1.898   4.128   9.352 -0.6371  0.8241  0.0918
  555MOL0     C73140   1.746   4.106   9.358  0.7381 -0.0165 -0.4609
  555MOL0     C73141   1.719   3.968   9.394  0.4301  0.5830 -0.5360
  555MOL0     C73142   1.584   3.916   9.361 -0.5984  0.1628 -0.5390
  555MOL0     C73143   1.480   3.966   9.459 -0.0053 -0.1910  0.8740
  555MOL0     C73144   1.409   4.095   9.417 -0.2992 -0.7156  0.8099
  555MOL0     N73145   1.289   4.115   9.495 -0.5934  0.7806 -0.4671
  555MOL0     C73146   1.198   4.214   9.466  0.1499 -0.4449  0.0645
  555MOL0     C73147   1.157   4.259   9.589  0.3640 -0.2396  0.1890
  555MOL0     C73148   1.066   4.383   9.605 -0.1638  0.4158 -0.1377
  555MOL0     C73149   0.960   4.415   9.500  0.2002 -1.0791  0.0601
  555MOL0     C73150   0.869   4.301   9.442  0.3504  0.6669 -0.7161
  555MOL0     C73151   0.771   4.240   9.551 -0.0965 -0.2655  0.2329
  555MOL0     O73152   0.690   4.350   9.607  0.2089 -0.2599  0.7692
  555MOL0     C73153   0.560   4.349   9.575  0.2587  0.6172 -1.1581
  555MOL0     C73154   0.481   4.235   9.619  0.4402  0.7025 -0.7312
  555MOL0     C73155   0.354   4.220   9.566  0.3468  0.4818  0.2203
  555MOL0     C73156   0.305   4.314   9.470  0.2135 -0.6728 -0.2060
  555MOL0     C73157   0.173   4.294   9.411  0.3424 -0.2584  1.0894
  555MOL0     O73158   0.134   4.389   9.320  0.7463 -0.4855 -0.3813
  555MOL0     C73159   0.004   4.391   9.279  0.2164 -0.1877 -0.4403
  555MOL0     C73160  -0.043   4.379   9.149  0.2155 -0.4817 -0.5902
  555MOL0     C73161  -0.188   4.391   9.126 -0.0532  0.4394 -0.0616
  555MOL0     C73162  -0.284   4.417   9.224 -0.2690 -0.8401 -0.3403
  555MOL0     O73163  -0.412   4.426   9.173  0.2841  0.2502 -0.2980
  555MOL0     C73164  -0.511   4.400   9.275 -0.0786 -0.9110 -0.3038
  555MOL0     C73165  -0.658   4.406   9.224  0.0124 -0.7037 -0.1417
  555MOL0     C73166  -0.672   4.328   9.104  0.5829 -0.5593 -0.3026
  555MOL0     C73167  -0.823   4.273   9.083  0.0217 -0.0140  0.0189
  555MOL0     C73168  -0.839   4.194   8.958 -0.5156  0.5884 -0.4479
  555MOL0     C73169  -0.785   4.047   8.983  0.2616 -0.0523  0.5985
  555MOL0     C73170  -0.781   3.960   8.859 -0.2505  0.4555  0.1472
  555MOL0     C73171  -0.914   3.884   8.818  0.2887 -0.2288 -0.5140
  555MOL0    Cl73172  -1.033   3.986   8.730 -0.1485  0.7015 -0.6243
  555MOL0     C73173  -0.231   4.463   9.345  0.0441  0.4250 -0.2215
  555MOL0     C73174  -0.088   4.442   9.377 -0.6877  0.8623  1.0465
  555MOL0     O73175   0.104   4.198   9.441  0.0986 -0.1060 -0.2653
  555MOL0     C73176   0.384   4.423   9.434  0.6641 -0.8616 -0.6120
  555MOL0     C73177   0.513   4.436   9.486 -0.1016 -0.4980 -0.1397
  555MOL0     N73178   1.197   4.176   9.682 -0.2894  0.0676  0.9067
  555MOL0     N73179   1.274   4.087   9.627  0.0895  0.1484 -1.0000
  555MOL0     C73180   2.368   4.330   9.253  0.6180  0.3649 -0.8889
  555MOL0     C73181   2.508   4.334   9.269  0.0493 -0.0884  0.5849
  555MOL0     C73182   2.931   4.245   9.190  0.0041  0.7755 -0.1160
  555MOL0     C73183   3.005   4.213   9.301  0.5212  1.1550 -0.2466
  555MOL0     C73184   3.138   4.239   9.302 -0.5651 -0.7778 -0.1021
  555MOL0     C73185   3.197   4.312   9.201  0.0096  0.2599 -0.1756
  555MOL0     O73186   3.337   4.338   9.191  0.0127 -0.3845 -0.7355
  555MOL0     C73187   3.403   4.267   9.079 -0.1670 -0.0675 -1.5555
  555MOL0     C73188   3.446   4.126   9.134 -1.2414 -0.0017  0.4933
  555MOL0     C73189   3.560   4.125   9.258  0.0764  0.3993 -0.1387
  555MOL0     C73190   3.572   3.988   9.327 -0.5665 -0.2000  0.3279
  555MOL0     C73191   3.617   3.882   9.234 -0.3360 -1.1417 -0.9687
  555MOL0     C73192   3.668   3.808   9.155 -0.3955 -0.5392 -0.6924
  555MOL0     C73193   3.122   4.347   9.088 -0.1392  0.4158 -0.2136
  555MOL0     C73194   2.989   4.313   9.082 -0.1053  1.2877 -0.0054
  555MOL0     H73195   2.556   3.994   9.316  0.4232  0.4678  1.7986
  555MOL0     H73196   2.322   3.989   9.301  1.2005 -1.4064 -2.3224
  555MOL0     H73197   2.086   4.391   9.241 -2.0938 -0.4891 -1.0222
  555MOL0     H73198   2.115   4.333   9.405 -0.2628 -0.2072  0.7076
  555MOL0     H73199   1.898   4.286   9.206  1.2539 -0.6211 -0.4782
  555MOL0     H73200   1.876   4.339   9.370  1.5291  1.0917 -0.7094
  555MOL0     H73201   1.947   4.111   9.448  1.1100 -0.5614 -0.9822
  555MOL0     H73202   1.940   4.057   9.279 -4.2612 -1.1346 -0.3267
  555MOL0     H73203   1.689   4.181   9.414  0.7357 -0.5319  0.2417
  555MOL0     H73204   1.704   4.120   9.258  0.3486 -0.9531 -0.4453
  555MOL0     H73205   1.744   3.955   9.499 -1.4304  1.6562  0.0762
  555MOL0     H73206   1.780   3.908   9.325 -0.8551 -0.9486 -0.4250
  555MOL0     H73207   1.592   3.807   9.366  1.2101  0.2994  0.8510
  555MOL0     H73208   1.558   3.928   9.256 -2.4010 -0.0325 -0.1406
  555MOL0     H73209   1.407   3.885   9.470  1.5294 -1.3255  3.6719
  555MOL0     H73210   1.504   3.966   9.565  0.2622  2.3302  0.8782
  555MOL0     H73211   1.390   4.085   9.309  0.9675 -2.0368  0.6794
  555MOL0     H73212   1.473   4.182   9.431 -2.9084  1.5884 -0.5709
  555MOL0     H73213   1.192   4.265   9.371 -4.7541 -1.4301 -0.3956
  555MOL0     H73214   1.132   4.471   9.609 -0.7750  0.8393  1.7247
  555MOL0     H73215   1.024   4.375   9.705  0.2580 -1.2697 -0.0712
  555MOL0     H73216   1.021   4.461   9.422  2.4830 -2.4626  0.9195
  555MOL0     H73217   0.894   4.499   9.525 -0.5256 -1.8923  0.9670
  555MOL0     H73218   0.822   4.333   9.349  1.1688 -2.5177 -2.3934
  555MOL0     H73219   0.922   4.214   9.401  4.0937  1.3567  2.1270
  555MOL0     H73220   0.820   4.195   9.638  0.6921  3.0399  1.6443
  555MOL0     H73221   0.711   4.161   9.504  2.4768 -2.2878  0.0581
  555MOL0     H73222   0.525   4.156   9.680  0.3555  1.1928 -0.0137
  555MOL0     H73223   0.305   4.125   9.587  1.2529 -0.2154 -0.7067
  555MOL0     H73224   0.028   4.365   9.068  2.7867  0.7254  1.3104
  555MOL0     H73225  -0.231   4.388   9.027 -0.9679  1.9149  0.2597
  555MOL0     H73226  -0.501   4.483   9.346 -0.3834  1.0515 -2.4232
  555MOL0     H73227  -0.492   4.310   9.334 -0.2695 -1.9715 -1.7986
  555MOL0     H73228  -0.684   4.509   9.196 -1.2190 -1.0422 -0.2960
  555MOL0     H73229  -0.728   4.387   9.305 -1.4160  0.5451 -1.0270
  555MOL0     H73230  -0.597   4.249   9.114  2.3624  1.2135  1.2906
  555MOL0     H73231  -0.633   4.377   9.014  0.1918 -0.6529 -0.5256
  555MOL0     H73232  -0.861   4.226   9.174 -1.8630  3.2350  1.0879
  555MOL0     H73233  -0.884   4.363   9.070  0.6280  0.8858  2.6726
  555MOL0     H73234  -0.783   4.239   8.875  3.1798 -3.1625 -0.3274
  555MOL0     H73235  -0.945   4.183   8.935 -0.7199 -1.9237  1.3192
  555MOL0     H73236  -0.841   3.984   9.052 -1.2954  0.2115 -0.3680
  555MOL0     H73237  -0.685   4.057   9.027  0.7980 -1.5460 -0.1997
  555MOL0     H73238  -0.760   4.004   8.761  4.1606 -3.3281 -0.9593
  555MOL0     H73239  -0.700   3.886   8.866 -2.2785 -2.2820 -2.6684
  555MOL0     H73240  -0.964   3.853   8.910  0.8363 -1.5227 -0.6410
  555MOL0     H73241  -0.884   3.797   8.759 -0.8431 -0.3115 -1.0053
  555MOL0     H73242  -0.299   4.513   9.413 -1.2723 -1.5442 -0.0159
  555MOL0     H73243  -0.064   4.493   9.469 -0.1174  2.6824 -0.0571
  555MOL0     H73244   0.342   4.484   9.355  2.3476 -1.2934 -1.9174
  555MOL0     H73245   0.581   4.511   9.446  0.6503 -1.0180  0.1381
  555MOL0     H73246   2.318   4.421   9.221  0.3773  1.2892  1.8482
  555MOL0     H73247   2.557   4.431   9.260 -0.0133 -0.0122  1.0354
  555MOL0     H73248   2.957   4.155   9.378 -3.3781  0.6161 -2.8366
  555MOL0     H73249   3.192   4.219   9.394 -0.1010  0.8115  0.0043
  555MOL0     H73250   3.491   4.323   9.045 -0.9353  2.0185 -0.3015
  555MOL0     H73251   3.332   4.263   8.995  0.4026 -0.2931 -2.0387
  555MOL0     H73252   3.357   4.083   9.181 -0.6104  1.3762  3.2005
  555MOL0     H73253   3.479   4.069   9.047  1.3186 -1.3521  2.2348
  555MOL0     H73254   3.526   4.194   9.335  1.7242 -0.1892  1.1886
  555MOL0     H73255   3.662   4.156   9.231  0.2799  0.5744  0.7778
  555MOL0     H73256   3.655   4.004   9.397 -0.5861  2.8100 -0.1791
  555MOL0     H73257   3.482   3.961   9.383 -1.0166  1.9061  0.7346
  555MOL0     H73258   3.711   3.734   9.092 -1.8114 -1.5397 -0.5406
  555MOL0     H73259   3.179   4.399   9.012  1.7092 -2.0286 -0.6158
  555MOL0     H73260   2.933   4.353   8.998  0.2175  0.1186 -0.8023
  556MOL0     O73261   7.553   3.037   0.194  0.1789  0.3193  0.0793
  556MOL0     C73262   7.499   3.071   0.298  0.4521  0.3262 -0.0566
  556MOL0     O73263   7.372   3.050   0.336  0.2960 -0.6926  0.4122
  556MOL0     C73264   7.282   2.990   0.256  0.5188  0.0300 -0.0898
  556MOL0     C73265   7.281   2.964   0.117 -1.1256  0.6561  0.0439
  556MOL0     C73266   7.173   2.924   0.040 -0.0740  0.0217 -0.1618
  556MOL0     C73267   7.049   2.897   0.096 -0.2044 -0.8634 -1.1123
  556MOL0     O73268   6.958   2.841   0.004 -0.2679 -0.4492 -0.4423
  556MOL0     C73269   6.830   2.803   0.054 -0.0801 -0.0369 -0.2265
  556MOL0     C73270   6.739   2.721  -0.042  1.5972 -1.0952 -0.1985
  556MOL0     C73271   6.588   2.726  -0.005 -0.7477 -0.3260 -0.6038
  556MOL0     C73272   6.522   2.858   0.006 -0.0345  0.0398 -0.7261
  556MOL0     C73273   6.367   2.833  -0.002 -0.1098 -0.4341  0.3834
  556MOL0     C73274   6.311   2.794  -0.134 -0.0838 -0.3694  0.3930
  556MOL0     C73275   6.155   2.807  -0.144  0.0157 -0.2506 -0.1651
  556MOL0     C73276   6.067   2.689  -0.099  0.7596  0.2120 -0.6150
  556MOL0     N73277   5.925   2.719  -0.120  0.5403  0.8300 -0.6420
  556MOL0     C73278   5.822   2.689  -0.038  0.2103 -0.0567  0.7976
  556MOL0     C73279   5.714   2.719  -0.105  0.2085  0.7746  1.0363
  556MOL0     C73280   5.574   2.676  -0.054  0.4263  0.3269  0.0264
  556MOL0     C73281   5.497   2.799  -0.005  0.7681 -0.1720 -0.5785
  556MOL0     C73282   5.358   2.768   0.052  0.0631 -0.0445  0.0818
  556MOL0     C73283   5.247   2.768  -0.052 -0.6440 -0.4084 -0.7204
  556MOL0     O73284   5.272   2.672  -0.157  0.4187 -0.3388  0.6615
  556MOL0     C73285   5.182   2.681  -0.261  0.9694  0.3770 -0.2123
  556MOL0     C73286   5.219   2.607  -0.375 -0.2706  0.3883 -0.6455
  556MOL0     C73287   5.160   2.630  -0.494  0.2504  0.5419 -0.0591
  556MOL0     C73288   5.053   2.726  -0.506 -0.8198 -0.3013  0.3579
  556MOL0     C73289   4.991   2.751  -0.636  0.3741  0.1161  0.5818
  556MOL0     O73290   4.860   2.803  -0.633 -0.5400  0.7305  0.9882
  556MOL0     C73291   4.781   2.822  -0.745  0.3135 -0.5430 -0.0685
  556MOL0     C73292   4.825   2.809  -0.884 -0.0135 -0.1612 -0.3282
  556MOL0     C73293   4.738   2.848  -0.981 -0.8590  0.6782  0.2723
  556MOL0     C73294   4.605   2.898  -0.953 -0.7282  0.4469 -0.0744
  556MOL0     O73295   4.505   2.936  -1.047  0.3435  0.2493 -0.3224
  556MOL0     C73296   4.508   2.869  -1.173 -0.0539  0.8654  0.4479
  556MOL0     C73297   4.360   2.845  -1.222  0.4670  0.5661 -0.5255
  556MOL0     C73298   4.374   2.823  -1.376  0.2671  0.2455  0.2954
  556MOL0     C73299   4.236   2.763  -1.429 -0.3308  0.5685  0.1094
  556MOL0     C73300   4.217   2.755  -1.583 -0.9025 -0.5516 -0.2716
  556MOL0     C73301   4.316   2.661  -1.638  0.0278 -0.5914 -0.0452
  556MOL0     C73302   4.281   2.607  -1.775 -0.7877 -0.2293 -0.1221
  556MOL0     C73303   4.271   2.694  -1.897 -0.3586 -0.5539  0.6392
  556MOL0    Cl73304   4.136   2.814  -1.894 -0.2039 -0.2815  0.3678
  556MOL0     C73305   4.564   2.913  -0.817  0.2997 -0.1183  0.2240
  556MOL0     C73306   4.655   2.876  -0.714  0.7035  0.0566  0.5178
  556MOL0     O73307   5.051   2.718  -0.735  0.3459 -0.0951 -0.1149
  556MOL0     C73308   5.009   2.785  -0.391 -0.3429  0.0134  0.0008
  556MOL0     C73309   5.074   2.773  -0.271 -0.7000  0.5871 -0.6381
  556MOL0     N73310   5.749   2.770  -0.227  0.5654 -0.2741  0.1553
  556MOL0     N73311   5.876   2.765  -0.231 -0.3291 -0.3367 -0.2107
  556MOL0     C73312   7.038   2.922   0.228 -0.0603  0.1863 -0.9680
  556MOL0     C73313   7.150   2.966   0.308  0.6551 -0.1374  0.4523
  556MOL0     C73314   7.581   3.157   0.384  0.4339  0.0063  0.1729
  556MOL0     C73315   7.716   3.137   0.392 -0.2611  0.1166 -0.1859
  556MOL0     C73316   7.800   3.212   0.481 -0.1383  0.4608 -0.2815
  556MOL0     C73317   7.738   3.295   0.575 -0.2556 -0.0525  0.0191
  556MOL0     O73318   7.798   3.352   0.683  0.0629  0.9411 -0.5045
  556MOL0     C73319   7.917   3.292   0.736 -0.2181  0.7570  0.0452
  556MOL0     C73320   7.959   3.374   0.857 -0.5771  0.6153  0.0689
  556MOL0     C73321   8.095   3.344   0.922 -0.3353  0.3729  0.8468
  556MOL0     C73322   8.122   3.442   1.038 -0.6101  0.8274  0.2098
  556MOL0     C73323   8.203   3.553   0.990  0.4245  0.1553  0.2131
  556MOL0     C73324   8.286   3.632   0.961 -0.2206 -0.2864 -0.5353
  556MOL0     C73325   7.601   3.316   0.565 -0.9631  0.7807  0.1159
  556MOL0     C73326   7.518   3.255   0.467 -0.6190  0.3296  0.8361
  556MOL0     H73327   7.369   2.978   0.056 -0.4445 -4.1305 -0.4681
  556MOL0     H73328   7.189   2.915  -0.066 -0.7323  1.2475 -0.3891
  556MOL0     H73329   6.773   2.890   0.086 -1.7593 -1.5097  0.9087
  556MOL0     H73330   6.847   2.730   0.134 -0.5027 -1.2054 -1.1762
  556MOL0     H73331   6.773   2.618  -0.049  2.7772 -0.8456  1.1944
  556MOL0     H73332   6.736   2.779  -0.135 -0.1875 -0.5550  0.1635
  556MOL0     H73333   6.572   2.659   0.080  0.9858 -0.5310 -0.4128
  556MOL0     H73334   6.536   2.683  -0.091  0.3654 -1.5255 -0.7146
  556MOL0     H73335   6.565   2.906   0.094 -0.8633 -2.6145  1.2604
  556MOL0     H73336   6.548   2.930  -0.072  1.3675 -0.0999 -0.4068
  556MOL0     H73337   6.313   2.922   0.032 -2.0552 -1.6531  0.5827
  556MOL0     H73338   6.342   2.767   0.081  1.3283 -1.1571  0.2714
  556MOL0     H73339   6.332   2.689  -0.153  0.8077 -0.6149  2.4367
  556MOL0     H73340   6.356   2.850  -0.216  0.5242  0.8168  1.4997
  556MOL0     H73341   6.130   2.895  -0.083 -3.0298 -0.7035 -0.5752
  556MOL0     H73342   6.121   2.831  -0.246  1.9149 -1.6576 -1.1878
  556MOL0     H73343   6.094   2.670   0.006 -2.9944  1.7017  0.8201
  556MOL0     H73344   6.099   2.595  -0.145  2.6410 -1.0488  2.8766
  556MOL0     H73345   5.829   2.654   0.065  0.3670  1.9582  1.5168
  556MOL0     H73346   5.582   2.612   0.035  1.5147 -0.7446 -0.8010
  556MOL0     H73347   5.517   2.626  -0.132 -1.8695  2.5192  0.1798
  556MOL0     H73348   5.502   2.876  -0.083  0.7917 -0.9071 -1.3172
  556MOL0     H73349   5.557   2.844   0.074  2.1770  0.0649 -1.7345
  556MOL0     H73350   5.367   2.673   0.105  0.2121  0.3778  0.8223
  556MOL0     H73351   5.342   2.841   0.131  0.1700 -1.1528  1.1542
  556MOL0     H73352   5.247   2.871  -0.088 -1.1790  0.1945  0.9316
  556MOL0     H73353   5.148   2.754  -0.006 -0.4106 -1.8117 -0.5891
  556MOL0     H73354   5.294   2.529  -0.363 -3.5040 -3.0683 -1.1582
  556MOL0     H73355   5.206   2.568  -0.571  1.0643 -1.2278  1.7396
  556MOL0     H73356   4.919   2.761  -0.911 -1.7259 -3.3158 -1.1810
  556MOL0     H73357   4.767   2.851  -1.085 -2.9576 -2.1920 -0.5135
  556MOL0     H73358   4.565   2.776  -1.175 -1.7919 -0.2188 -0.6534
  556MOL0     H73359   4.557   2.935  -1.245  2.1896 -0.3105  0.7972
  556MOL0     H73360   4.286   2.925  -1.211 -0.7834 -0.3920 -1.7266
  556MOL0     H73361   4.330   2.753  -1.171  5.1132  0.3573  2.5453
  556MOL0     H73362   4.457   2.760  -1.408 -1.1151 -1.8815  0.6907
  556MOL0     H73363   4.396   2.922  -1.418 -1.4199  1.1667  1.4842
  556MOL0     H73364   4.240   2.659  -1.395  0.6642  0.6643  0.3048
  556MOL0     H73365   4.148   2.799  -1.375  0.9781  2.0971  1.3204
  556MOL0     H73366   4.229   2.853  -1.631  0.0106  0.8458  2.5223
  556MOL0     H73367   4.114   2.727  -1.607 -1.1091  0.7295 -0.9935
  556MOL0     H73368   4.331   2.579  -1.567  1.4362 -0.2603  0.0660
  556MOL0     H73369   4.408   2.719  -1.644 -0.0099 -0.5037  0.2240
  556MOL0     H73370   4.351   2.524  -1.791  0.2639  0.6100  0.0656
  556MOL0     H73371   4.187   2.552  -1.763 -0.7419 -0.4605 -0.7625
  556MOL0     H73372   4.252   2.618  -1.973  2.3145  0.1857 -0.9269
  556MOL0     H73373   4.370   2.739  -1.914 -1.1913  1.0637 -0.1443
  556MOL0     H73374   4.466   2.958  -0.799 -0.1818 -0.6370 -1.0020
  556MOL0     H73375   4.626   2.893  -0.610  2.5507 -0.2458  1.1107
  556MOL0     H73376   4.927   2.856  -0.393  0.7350  1.3148  0.5520
  556MOL0     H73377   5.038   2.822  -0.181  4.8150  3.0731  0.5790
  556MOL0     H73378   6.942   2.924   0.278  1.5762  1.7594  2.4219
  556MOL0     H73379   7.123   2.991   0.410 -0.3937  0.6387  0.0014
  556MOL0     H73380   7.767   3.065   0.328 -2.8612 -2.8144  0.7814
  556MOL0     H73381   7.899   3.170   0.497 -1.4261 -2.4068  0.8054
  556MOL0     H73382   8.002   3.295   0.667 -2.3381  0.4375 -2.7164
  556MOL0     H73383   7.904   3.187   0.767  0.8781  0.7254  0.4646
  556MOL0     H73384   7.963   3.474   0.814 -0.5434 -0.5380 -2.8685
  556MOL0     H73385   7.882   3.360   0.934 -4.1405 -1.6787 -3.4785
  556MOL0     H73386   8.166   3.364   0.841 -0.2685 -0.1267  0.7756
  556MOL0     H73387   8.122   3.240   0.941  1.5337  0.5072 -0.7421
  556MOL0     H73388   8.023   3.483   1.060 -1.6788  0.2964 -3.0359
  556MOL0     H73389   8.169   3.396   1.126  0.4424  2.4773  0.5661
  556MOL0     H73390   8.355   3.709   0.933 -0.1605 -0.1722 -0.0844
  556MOL0     H73391   7.557   3.380   0.641 -1.5810 -0.7350  1.0897
  556MOL0     H73392   7.414   3.285   0.457  0.1060  2.3635 -1.8982
  557MOL0     O73393   7.537   7.714   5.489 -0.0809 -0.0860 -0.9198
  557MOL0     C73394   7.656   7.696   5.513  0.0715 -0.5311  0.1749
  557MOL0     O73395   7.705   7.585   5.561 -0.1223 -0.0005  0.0452
  557MOL0     C73396   7.621   7.497   5.627  0.0962 -0.6750 -0.0440
  557MOL0     C73397   7.597   7.377   5.569 -1.5457 -0.3631  0.2001
  557MOL0     C73398   7.505   7.287   5.629 -0.0512  0.1296 -0.9144
  557MOL0     C73399   7.453   7.308   5.756  0.9278 -0.3014  0.7092
  557MOL0     O73400   7.366   7.209   5.799 -0.0135 -0.0814 -0.1604
  557MOL0     C73401   7.234   7.259   5.845 -0.7406 -0.0906 -0.1539
  557MOL0     C73402   7.129   7.173   5.780  0.4694 -0.6410  0.2213
  557MOL0     C73403   7.166   7.022   5.805  0.2088 -0.6757 -0.5034
  557MOL0     C73404   7.186   6.976   5.950 -0.3534 -0.3358  0.1879
  557MOL0     C73405   7.235   6.834   5.940 -0.2393  0.8963  0.1267
  557MOL0     C73406   7.350   6.800   5.843 -0.2014  0.3252 -0.5788
  557MOL0     C73407   7.392   6.656   5.874  0.4656  0.5408  0.4452
  557MOL0     C73408   7.515   6.619   5.793 -0.9796  0.7063  0.1272
  557MOL0     N73409   7.468   6.568   5.663 -0.7725 -0.9396 -0.0978
  557MOL0     C73410   7.483   6.639   5.546  0.1514  0.5341 -0.2288
  557MOL0     C73411   7.449   6.549   5.447 -0.7276 -0.4859 -0.9036
  557MOL0     C73412   7.485   6.569   5.301  1.0419 -1.2231 -0.0126
  557MOL0     C73413   7.621   6.509   5.295  0.5090 -0.0859  0.6408
  557MOL0     C73414   7.622   6.361   5.265  0.3269 -0.4010 -0.2432
  557MOL0     C73415   7.582   6.317   5.124 -0.3168 -1.0724  0.7896
  557MOL0     O73416   7.678   6.350   5.012  1.4880 -0.7339  0.0870
  557MOL0     C73417   7.804   6.310   5.000  0.2650 -0.2889 -0.3561
  557MOL0     C73418   7.892   6.392   4.917  0.2425  0.1240 -0.1284
  557MOL0     C73419   8.029   6.360   4.905 -0.0809 -0.0946  0.5887
  557MOL0     C73420   8.084   6.260   4.985  0.1356  0.4033 -0.5129
  557MOL0     C73421   8.236   6.244   4.987  0.4817  0.5927 -0.3774
  557MOL0     O73422   8.309   6.320   4.895  0.6467 -0.5739  0.3362
  557MOL0     C73423   8.437   6.339   4.905 -0.4204  0.2210  0.1620
  557MOL0     C73424   8.541   6.256   4.858  0.2875 -1.0112  0.1585
  557MOL0     C73425   8.676   6.300   4.848 -0.1222 -0.2021 -0.7196
  557MOL0     C73426   8.703   6.421   4.890  0.0500 -1.3306 -0.2013
  557MOL0     O73427   8.825   6.482   4.883 -0.1777 -0.3282  0.1296
  557MOL0     C73428   8.900   6.461   4.754  0.5492 -0.4125 -1.0968
  557MOL0     C73429   9.052   6.490   4.780  0.4400  0.1403  0.7757
  557MOL0     C73430   9.119   6.445   4.906 -0.0313 -0.0613  0.4637
  557MOL0     C73431   9.263   6.442   4.885  1.0796  0.9128 -0.2475
  557MOL0     C73432   9.337   6.571   4.849 -0.0197  0.3445  0.2535
  557MOL0     C73433   9.490   6.551   4.881  1.2968  0.6940  0.7570
  557MOL0     C73434   9.531   6.573   5.032  0.9934  1.0778 -0.0409
  557MOL0     C73435   9.667   6.509   5.058 -0.6512  0.4393 -0.3163
  557MOL0    Cl73436   9.647   6.328   5.070 -0.2047 -0.1562  0.1696
  557MOL0     C73437   8.602   6.503   4.959 -0.5745  0.5589 -0.1118
  557MOL0     C73438   8.473   6.471   4.956  0.6001 -0.1849 -0.2912
  557MOL0     O73439   8.291   6.172   5.074  0.1377 -1.1977 -0.1023
  557MOL0     C73440   7.999   6.191   5.075  0.5996  0.5432 -0.0125
  557MOL0     C73441   7.856   6.205   5.075 -0.3084  0.3079 -0.3980
  557MOL0     N73442   7.412   6.434   5.515  1.0847  1.1059 -0.1399
  557MOL0     N73443   7.427   6.441   5.636  0.0805 -0.0994 -0.2202
  557MOL0     C73444   7.478   7.429   5.821  0.5405  0.0580  0.4144
  557MOL0     C73445   7.573   7.520   5.754  0.6352  0.1986 -0.1741
  557MOL0     C73446   7.754   7.808   5.479  0.0988  0.4936  0.1181
  557MOL0     C73447   7.732   7.907   5.383 -0.2433  0.8680  0.4403
  557MOL0     C73448   7.835   8.005   5.357  0.0938  0.6379 -0.0497
  557MOL0     C73449   7.955   8.008   5.439 -0.4238 -0.7507 -0.5067
  557MOL0     O73450   8.052   8.105   5.424  0.4833 -0.1824  0.6728
  557MOL0     C73451   8.178   8.078   5.365 -0.3164  0.3860  0.1597
  557MOL0     C73452   8.263   8.197   5.398 -1.0087  0.4471 -0.3280
  557MOL0     C73453   8.297   8.195   5.554  0.1149 -0.7125 -0.1441
  557MOL0     C73454   8.429   8.256   5.594 -0.8220 -0.2430 -0.7912
  557MOL0     C73455   8.552   8.179   5.545  0.1115 -0.0855 -0.2609
  557MOL0     C73456   8.646   8.123   5.483  0.2828 -0.5657 -0.2064
  557MOL0     C73457   7.973   7.915   5.542  0.6736 -0.1158  0.6460
  557MOL0     C73458   7.879   7.805   5.553 -0.6546 -0.3424 -0.0217
  557MOL0     H73459   7.646   7.350   5.476  1.4609  3.1465  0.5664
  557MOL0     H73460   7.488   7.193   5.577 -0.0909  0.0587 -0.7734
  557MOL0     H73461   7.215   7.359   5.804  2.4562  0.0644 -1.5629
  557MOL0     H73462   7.240   7.254   5.954 -0.4714  1.5591 -0.0692
  557MOL0     H73463   7.128   7.188   5.672  2.4557 -4.0027 -0.4079
  557MOL0     H73464   7.027   7.190   5.816 -0.9891 -0.4813 -3.5052
  557MOL0     H73465   7.254   7.004   5.742  0.6046  2.3065 -0.9934
  557MOL0     H73466   7.081   6.960   5.777 -0.1622 -0.0978 -0.6699
  557MOL0     H73467   7.264   7.036   5.999 -0.0148 -0.7585  0.1770
  557MOL0     H73468   7.104   7.007   6.015  0.8099  2.7589  0.3708
  557MOL0     H73469   7.153   6.765   5.919 -1.2977  2.1001  0.1859
  557MOL0     H73470   7.277   6.820   6.040  3.1470  0.5324 -1.2170
  557MOL0     H73471   7.430   6.870   5.867 -1.7453  1.1901  2.5752
  557MOL0     H73472   7.320   6.816   5.739  2.5255 -1.5692 -1.7740
  557MOL0     H73473   7.421   6.661   5.980  2.1498  1.2998 -0.0359
  557MOL0     H73474   7.313   6.580   5.865  1.5563 -1.1994  3.7727
  557MOL0     H73475   7.562   6.535   5.844 -0.5376  0.9768  0.1705
  557MOL0     H73476   7.589   6.699   5.783  0.0286 -0.0968  0.9128
  557MOL0     H73477   7.522   6.740   5.539  1.0672  0.5633  3.5067
  557MOL0     H73478   7.484   6.676   5.281 -0.6483 -1.3827 -1.0224
  557MOL0     H73479   7.420   6.514   5.232  0.5826 -3.3311  1.9864
  557MOL0     H73480   7.680   6.529   5.385 -0.5041 -0.3148  1.3674
  557MOL0     H73481   7.668   6.551   5.206 -1.0190  0.9145  0.2637
  557MOL0     H73482   7.716   6.315   5.296  0.7816  1.1865  0.8470
  557MOL0     H73483   7.548   6.316   5.331 -0.2185 -1.0473 -1.2579
  557MOL0     H73484   7.483   6.356   5.100  1.0853  1.9610 -0.7265
  557MOL0     H73485   7.574   6.209   5.137 -1.9520 -1.0804 -0.0091
  557MOL0     H73486   7.851   6.480   4.868 -0.5378 -0.6336 -0.8704
  557MOL0     H73487   8.093   6.420   4.840  0.3257  0.0415  1.1063
  557MOL0     H73488   8.511   6.159   4.819 -1.5200 -0.0664 -0.9278
  557MOL0     H73489   8.746   6.234   4.798  1.0556  2.5955 -3.0205
  557MOL0     H73490   8.863   6.533   4.680 -0.6267  0.9972  0.7585
  557MOL0     H73491   8.889   6.366   4.702  2.2007 -0.6525 -1.0533
  557MOL0     H73492   9.075   6.596   4.772 -2.0410  0.6595 -0.5787
  557MOL0     H73493   9.109   6.454   4.694 -1.0025 -3.2071  1.0376
  557MOL0     H73494   9.082   6.347   4.937 -3.5367  0.9630 -0.0227
  557MOL0     H73495   9.093   6.511   4.990 -0.8183 -1.3841  1.3043
  557MOL0     H73496   9.314   6.399   4.971 -0.0661 -3.6135 -1.5088
  557MOL0     H73497   9.285   6.383   4.794 -0.8079 -0.9432  0.4100
  557MOL0     H73498   9.305   6.665   4.896  0.3640  0.5144  0.1836
  557MOL0     H73499   9.321   6.580   4.741 -0.9336 -2.4666  0.0791
  557MOL0     H73500   9.530   6.632   4.819  3.4800  1.1890  2.6833
  557MOL0     H73501   9.520   6.456   4.835  0.6507  0.8761 -0.0710
  557MOL0     H73502   9.552   6.677   5.056  1.6251  1.3151 -1.5277
  557MOL0     H73503   9.454   6.524   5.093  0.5355 -0.9209 -2.0810
  557MOL0     H73504   9.694   6.553   5.155  0.8831  0.3616 -0.6856
  557MOL0     H73505   9.742   6.549   4.989  2.8322 -1.8274  1.8605
  557MOL0     H73506   8.640   6.592   5.008  1.3927 -0.0523 -0.4234
  557MOL0     H73507   8.395   6.542   4.984 -0.2305 -1.5597  1.0383
  557MOL0     H73508   8.039   6.115   5.141 -0.5358 -1.1590 -1.2063
  557MOL0     H73509   7.793   6.141   5.137 -0.3559 -2.4763 -3.1141
  557MOL0     H73510   7.418   7.445   5.910 -3.4629 -0.8566 -1.8322
  557MOL0     H73511   7.606   7.610   5.805  3.7858 -0.4432 -0.8311
  557MOL0     H73512   7.639   7.906   5.327 -1.3936 -2.4774  2.1757
  557MOL0     H73513   7.821   8.078   5.277  3.4774 -0.5845 -1.9926
  557MOL0     H73514   8.165   8.059   5.258  1.1530  2.2190 -0.3899
  557MOL0     H73515   8.222   7.985   5.399 -1.1307 -0.0782 -0.0139
  557MOL0     H73516   8.350   8.182   5.333 -1.0488 -2.0087  0.0846
  557MOL0     H73517   8.214   8.292   5.377 -1.5769  0.4820  1.0534
  557MOL0     H73518   8.308   8.090   5.584  0.1744 -0.3342  1.2193
  557MOL0     H73519   8.215   8.243   5.606 -0.6553 -1.5955 -0.5067
  557MOL0     H73520   8.444   8.353   5.544  1.7838  1.8987  3.5832
  557MOL0     H73521   8.439   8.268   5.702  0.9278 -0.4468 -0.8902
  557MOL0     H73522   8.721   8.067   5.431 -2.3536 -2.2039 -2.5552
  557MOL0     H73523   8.063   7.913   5.602  0.2002  0.9891  1.4153
  557MOL0     H73524   7.893   7.728   5.628 -2.1219 -1.3199 -0.6987
  558MOL0     O73525  11.313   6.655   2.835  0.4935  0.8134  0.9474
  558MOL0     C73526  11.381   6.661   2.731 -0.7071  0.5716 -0.1605
  558MOL0     O73527  11.343   6.678   2.603 -0.1524 -0.3542  0.1728
  558MOL0     C73528  11.212   6.696   2.573 -0.6677 -0.3403  0.0914
  558MOL0     C73529  11.136   6.807   2.632  0.2660 -0.5353  0.4717
  558MOL0     C73530  11.006   6.831   2.582 -0.0549 -0.0896 -0.5008
  558MOL0     C73531  10.942   6.735   2.502 -0.4856 -0.3888 -1.0888
  558MOL0     O73532  10.819   6.751   2.471  0.0164 -0.1095 -0.7129
  558MOL0     C73533  10.752   6.647   2.394  0.0085 -0.3083 -0.0712
  558MOL0     C73534  10.607   6.681   2.382  0.5244 -0.1031 -0.2727
  558MOL0     C73535  10.595   6.821   2.309 -0.1034 -0.0675 -0.4606
  558MOL0     C73536  10.453   6.879   2.285 -0.8036 -0.3789 -0.7996
  558MOL0     C73537  10.376   6.936   2.399  0.2663  0.4688  0.6487
  558MOL0     C73538  10.230   6.945   2.375 -0.0041 -0.1653 -0.4842
  558MOL0     C73539  10.169   6.804   2.383  0.3072  0.4923 -0.9942
  558MOL0     C73540  10.016   6.807   2.397 -0.1901  0.1967 -0.1953
  558MOL0     N73541   9.961   6.676   2.348  0.0880 -0.3367 -0.1346
  558MOL0     C73542   9.951   6.563   2.433 -0.8356 -0.5456 -0.7698
  558MOL0     C73543   9.841   6.503   2.387  0.8833  0.5840  1.3701
  558MOL0     C73544   9.786   6.375   2.439 -0.1903  0.3987 -0.7709
  558MOL0     C73545   9.751   6.374   2.594 -0.5505  1.3867 -0.3928
  558MOL0     C73546   9.665   6.485   2.654 -1.2845 -0.6558  1.4520
  558MOL0     C73547   9.623   6.450   2.795  0.1381 -0.3888 -0.6005
  558MOL0     O73548   9.560   6.320   2.802 -0.0016  0.2803  0.0467
  558MOL0     C73549   9.444   6.310   2.878  0.7535  0.5468  0.2272
  558MOL0     C73550   9.339   6.404   2.883 -0.1863 -0.5583 -0.4457
  558MOL0     C73551   9.216   6.369   2.930  0.4128 -0.3956 -0.4749
  558MOL0     C73552   9.197   6.246   2.986  0.2108 -0.1003 -1.1839
  558MOL0     C73553   9.065   6.211   3.044  0.2248 -0.2204 -0.2369
  558MOL0     O73554   8.994   6.323   3.083 -0.7895  0.2442  0.0704
  558MOL0     C73555   8.878   6.315   3.149  0.5465 -0.6398 -0.1400
  558MOL0     C73556   8.867   6.348   3.286  0.5419  1.0924 -0.2977
  558MOL0     C73557   8.745   6.325   3.349 -0.5544 -0.7034 -0.3660
  558MOL0     C73558   8.631   6.273   3.285  0.0015  0.0172 -0.2503
  558MOL0     O73559   8.517   6.250   3.361  0.3661 -0.1216 -0.2137
  558MOL0     C73560   8.401   6.272   3.283  1.1291  0.1974  0.2536
  558MOL0     C73561   8.297   6.307   3.384  0.6257 -0.3366 -0.2832
  558MOL0     C73562   8.159   6.328   3.334 -0.0606  0.1903 -0.6618
  558MOL0     C73563   8.065   6.369   3.446 -0.4408 -0.6627 -0.3321
  558MOL0     C73564   7.929   6.425   3.400 -0.4903  0.5522 -0.2249
  558MOL0     C73565   7.848   6.305   3.333 -0.0016 -0.4092 -0.1230
  558MOL0     C73566   7.701   6.340   3.321 -0.1802  0.5505  0.5361
  558MOL0     C73567   7.611   6.228   3.263  0.2436  0.3077  0.0455
  558MOL0    Cl73568   7.691   6.146   3.119 -0.4994 -1.0242 -0.0542
  558MOL0     C73569   8.645   6.238   3.148  0.2652 -0.4083  0.3453
  558MOL0     C73570   8.764   6.267   3.085 -0.0419  0.2942  0.1878
  558MOL0     O73571   9.035   6.092   3.071 -0.2391 -0.2229  0.6032
  558MOL0     C73572   9.306   6.160   2.994  0.4630  0.1002 -0.7008
  558MOL0     C73573   9.424   6.189   2.937 -0.2173  0.1603 -0.5221
  558MOL0     N73574   9.787   6.581   2.281  0.0624  0.5062 -0.0139
  558MOL0     N73575   9.864   6.681   2.257  0.0267  0.7474  0.1592
  558MOL0     C73576  11.019   6.631   2.441  0.2424  0.4292 -0.3405
  558MOL0     C73577  11.148   6.615   2.476 -0.7818 -0.2594  1.3980
  558MOL0     C73578  11.531   6.628   2.749 -0.5533 -0.8257  0.1807
  558MOL0     C73579  11.587   6.631   2.879 -1.0666 -0.0812  0.4223
  558MOL0     C73580  11.726   6.605   2.892 -0.1666 -0.1017 -0.3977
  558MOL0     C73581  11.797   6.569   2.773 -0.0689  0.6713  0.4139
  558MOL0     O73582  11.919   6.525   2.791 -0.0745 -0.6645 -1.0138
  558MOL0     C73583  11.999   6.478   2.689  0.0669 -0.7573  0.1430
  558MOL0     C73584  12.118   6.405   2.755 -0.1961  0.5115 -0.9596
  558MOL0     C73585  12.253   6.388   2.674  0.3183  0.2567 -0.6712
  558MOL0     C73586  12.375   6.399   2.756 -0.1838  0.4230  0.4248
  558MOL0     C73587  12.379   6.307   2.872 -0.4426  0.9964  0.8213
  558MOL0     C73588  12.393   6.221   2.956  0.0366  0.5582  0.0353
  558MOL0     C73589  11.742   6.586   2.645  0.3525  0.1798  0.0019
  558MOL0     C73590  11.608   6.617   2.627  0.6459 -0.2879  0.7421
  558MOL0     H73591  11.182   6.875   2.703  0.7989  0.3341 -0.6774
  558MOL0     H73592  10.965   6.920   2.629  0.3718 -0.9177  1.5700
  558MOL0     H73593  10.758   6.552   2.447 -1.9848 -1.1298 -1.2124
  558MOL0     H73594  10.800   6.648   2.295 -2.0059 -1.2940 -1.1244
  558MOL0     H73595  10.554   6.682   2.478 -0.8750 -0.5285 -1.0130
  558MOL0     H73596  10.564   6.606   2.315  2.4915 -0.8541 -0.7829
  558MOL0     H73597  10.626   6.808   2.205  0.5376 -2.0064 -0.0720
  558MOL0     H73598  10.650   6.905   2.351 -2.5306  1.1189  0.5067
  558MOL0     H73599  10.461   6.965   2.219  1.3531 -0.4303 -0.6472
  558MOL0     H73600  10.401   6.805   2.223 -1.5351 -1.4869  1.0609
  558MOL0     H73601  10.398   7.040   2.424  1.0295  1.2859 -2.8677
  558MOL0     H73602  10.395   6.872   2.486  1.4774 -0.6094 -0.3747
  558MOL0     H73603  10.218   6.973   2.270  1.2098 -3.0138 -1.4926
  558MOL0     H73604  10.184   7.012   2.448 -1.0552 -0.4135 -0.8930
  558MOL0     H73605  10.197   6.742   2.297 -3.3420 -3.9929  0.5945
  558MOL0     H73606  10.207   6.753   2.472  2.6529  0.8006 -1.7712
  558MOL0     H73607   9.988   6.898   2.343  1.8141  0.3969 -0.9909
  558MOL0     H73608   9.986   6.821   2.501  0.6087  0.7715 -0.0331
  558MOL0     H73609  10.026   6.536   2.508  0.2236 -1.4374 -2.0871
  558MOL0     H73610   9.864   6.300   2.422 -1.6962 -1.0932 -1.3384
  558MOL0     H73611   9.706   6.334   2.378 -0.7908 -1.3007  1.0670
  558MOL0     H73612   9.834   6.349   2.660 -3.5842  1.7970  3.9499
  558MOL0     H73613   9.692   6.283   2.608  4.0849 -1.8000  0.9024
  558MOL0     H73614   9.715   6.582   2.654  0.2550 -1.4028  1.7023
  558MOL0     H73615   9.581   6.490   2.585  1.2044  1.2609 -1.7213
  558MOL0     H73616   9.563   6.526   2.845  0.6798  1.2823 -2.3695
  558MOL0     H73617   9.706   6.437   2.865 -1.3074 -0.7538  1.1261
  558MOL0     H73618   9.365   6.504   2.850  0.0019 -0.9873 -1.6194
  558MOL0     H73619   9.135   6.441   2.927  0.0520 -0.8054 -0.7466
  558MOL0     H73620   8.951   6.384   3.344 -0.9827  2.1955  1.3030
  558MOL0     H73621   8.732   6.363   3.450 -1.6707  3.5316 -1.8663
  558MOL0     H73622   8.365   6.184   3.230 -0.3348 -0.8420  2.7678
  558MOL0     H73623   8.409   6.358   3.216  0.0279  1.0698  1.1924
  558MOL0     H73624   8.318   6.394   3.447  0.0421  0.3840 -1.0585
  558MOL0     H73625   8.295   6.224   3.455 -0.2786 -0.2563 -0.1976
  558MOL0     H73626   8.122   6.233   3.293  1.4782 -0.2997 -0.9631
  558MOL0     H73627   8.163   6.404   3.256 -0.4354  2.5592  1.5033
  558MOL0     H73628   8.056   6.280   3.509  0.7882 -0.7892 -0.3062
  558MOL0     H73629   8.105   6.449   3.509 -1.8956  0.7810 -1.1576
  558MOL0     H73630   7.943   6.512   3.336  1.6867  0.7158  0.3985
  558MOL0     H73631   7.876   6.444   3.494 -0.3927 -0.7923  0.1293
  558MOL0     H73632   7.859   6.212   3.390  1.9280  0.1444  0.4909
  558MOL0     H73633   7.892   6.285   3.235 -3.5894 -0.8522 -1.7672
  558MOL0     H73634   7.666   6.364   3.422  0.4154 -2.0376  1.4257
  558MOL0     H73635   7.705   6.429   3.258  0.7063  0.5241  0.5494
  558MOL0     H73636   7.522   6.281   3.230  0.5236  0.6242 -0.2077
  558MOL0     H73637   7.579   6.173   3.352  1.7059 -1.2302 -0.3039
  558MOL0     H73638   8.562   6.186   3.101 -1.0728  1.8624  0.0278
  558MOL0     H73639   8.769   6.244   2.979 -1.8514 -0.1030  0.1493
  558MOL0     H73640   9.291   6.058   3.025  1.3439  0.1026 -0.2595
  558MOL0     H73641   9.507   6.118   2.933 -1.4021 -1.3824  0.7686
  558MOL0     H73642  10.976   6.559   2.371 -0.5311 -1.0021  1.5377
  558MOL0     H73643  11.208   6.539   2.428 -3.7288 -0.9939 -1.4504
  558MOL0     H73644  11.548   6.667   2.973  1.4195  0.3569  1.3594
  558MOL0     H73645  11.765   6.593   2.993 -0.4187 -3.5283 -0.5677
  558MOL0     H73646  12.030   6.568   2.634  0.4996 -0.0972  1.4277
  558MOL0     H73647  11.955   6.417   2.609  1.4106  0.4684 -1.5984
  558MOL0     H73648  12.145   6.456   2.848  0.7820 -0.9104 -0.4371
  558MOL0     H73649  12.097   6.301   2.780  1.3112 -0.1566 -2.3487
  558MOL0     H73650  12.261   6.466   2.598  1.7184  0.5493 -0.2471
  558MOL0     H73651  12.241   6.290   2.627 -2.7765 -1.3565  2.9635
  558MOL0     H73652  12.461   6.371   2.694 -0.5700 -1.7830  0.8263
  558MOL0     H73653  12.394   6.503   2.786  0.8102  1.2902 -2.8757
  558MOL0     H73654  12.404   6.143   3.029  1.9997  2.5259  1.9655
  558MOL0     H73655  11.798   6.569   2.554  0.8412  1.0070  0.1334
  558MOL0     H73656  11.556   6.626   2.532 -0.5026 -3.4145  0.9694
  559MOL0     O73657   4.677   2.772   5.262  0.2894  0.0773 -1.0407
  559MOL0     C73658   4.690   2.758   5.387 -0.0012  0.1361  0.0012
  559MOL0     O73659   4.594   2.783   5.483 -0.8475  1.4052  0.2022
  559MOL0     C73660   4.463   2.830   5.445 -0.7036 -1.0727  0.4287
  559MOL0     C73661   4.429   2.919   5.340 -0.1776  0.1801  0.2542
  559MOL0     C73662   4.301   2.967   5.329 -0.5559  0.4450  0.7340
  559MOL0     C73663   4.200   2.899   5.405  0.0505  0.5485  0.5095
  559MOL0     O73664   4.074   2.951   5.414 -0.3188  0.0436 -0.1618
  559MOL0     C73665   4.021   3.031   5.298  0.7945  0.3198  0.1581
  559MOL0     C73666   3.886   3.094   5.329  0.6847  0.1372 -0.5495
  559MOL0     C73667   3.843   3.186   5.217  0.1422 -1.0035  0.1557
  559MOL0     C73668   3.710   3.271   5.242  0.1800  0.1770 -0.2824
  559MOL0     C73669   3.579   3.189   5.223  0.1540 -0.3197 -0.7696
  559MOL0     C73670   3.554   3.145   5.081  0.1165  0.5883  0.6864
  559MOL0     C73671   3.501   3.253   5.006 -0.3404 -0.9036  0.6691
  559MOL0     C73672   3.448   3.210   4.875 -0.5607 -0.7242 -0.0107
  559MOL0     N73673   3.382   3.309   4.803  0.1061 -0.7221  0.7204
  559MOL0     C73674   3.249   3.332   4.819 -1.3237  0.0190 -1.2361
  559MOL0     C73675   3.205   3.407   4.717 -0.4996  0.6607 -1.0509
  559MOL0     C73676   3.071   3.467   4.685  0.0856 -1.0715 -0.2789
  559MOL0     C73677   2.996   3.419   4.563 -0.4283 -0.0081  0.0660
  559MOL0     C73678   2.918   3.283   4.601 -0.8008 -0.8441  0.1274
  559MOL0     C73679   2.869   3.213   4.471  0.2648 -0.8507  1.2300
  559MOL0     O73680   2.774   3.104   4.492  0.3909  0.3288 -0.2135
  559MOL0     C73681   2.650   3.123   4.449  0.1869 -0.2089  0.2009
  559MOL0     C73682   2.598   3.052   4.337 -1.1279  0.3889 -0.1327
  559MOL0     C73683   2.461   3.064   4.305  0.8423 -0.7165 -0.3709
  559MOL0     C73684   2.385   3.157   4.378 -0.5080 -0.3123 -0.0147
  559MOL0     C73685   2.250   3.189   4.331  0.8709 -0.0849  0.1525
  559MOL0     O73686   2.169   3.091   4.278  0.3720  0.4048 -0.0155
  559MOL0     C73687   2.039   3.116   4.251  0.0931 -0.6240  0.6068
  559MOL0     C73688   1.980   3.052   4.138  0.1980  0.1228 -0.5911
  559MOL0     C73689   1.841   3.064   4.118 -0.4762  0.4999  0.0040
  559MOL0     C73690   1.752   3.121   4.211 -0.6557 -1.1288  0.2253
  559MOL0     O73691   1.617   3.131   4.172  0.0419  0.2329  1.0182
  559MOL0     C73692   1.530   3.202   4.255 -0.0533  0.4543 -0.2013
  559MOL0     C73693   1.392   3.209   4.194  0.9373  0.2681  0.1406
  559MOL0     C73694   1.307   3.296   4.294 -0.0187  0.6204  0.2743
  559MOL0     C73695   1.168   3.317   4.234 -0.0072 -0.4533 -0.9772
  559MOL0     C73696   1.064   3.351   4.341  1.3715  0.0297 -0.2019
  559MOL0     C73697   0.924   3.340   4.280 -0.3808 -0.0137 -0.0336
  559MOL0     C73698   0.808   3.361   4.377 -0.8022 -0.0731  0.6791
  559MOL0     C73699   0.665   3.346   4.312 -0.4496  0.2031  0.4061
  559MOL0    Cl73700   0.556   3.274   4.428  0.6378 -0.2073  0.2584
  559MOL0     C73701   1.812   3.182   4.327  0.0242  0.6702 -0.5465
  559MOL0     C73702   1.951   3.181   4.337 -0.2516  0.6765 -0.5861
  559MOL0     O73703   2.215   3.305   4.355  0.1025  0.0677 -0.0118
  559MOL0     C73704   2.435   3.236   4.484 -1.1376 -0.5252  0.1636
  559MOL0     C73705   2.570   3.217   4.520 -0.2330  0.0735 -0.3976
  559MOL0     N73706   3.310   3.421   4.630 -0.6205 -0.0581 -0.8229
  559MOL0     N73707   3.416   3.367   4.687  0.5215  0.0200 -0.3827
  559MOL0     C73708   4.227   2.798   5.493  0.4412  0.0208 -0.4292
  559MOL0     C73709   4.361   2.764   5.515  0.1221 -0.6851 -0.3449
  559MOL0     C73710   4.824   2.711   5.441 -0.3695  0.4374 -0.5181
  559MOL0     C73711   4.920   2.655   5.346 -0.2665 -0.0401  0.5917
  559MOL0     C73712   5.043   2.621   5.400  0.2077 -0.2285 -0.6634
  559MOL0     C73713   5.082   2.631   5.531  0.2723  0.5689 -0.1307
  559MOL0     O73714   5.211   2.576   5.555  0.2783 -0.4976 -0.0868
  559MOL0     C73715   5.230   2.529   5.684  0.1667 -0.2661  0.0913
  559MOL0     C73716   5.136   2.420   5.728  0.0146  0.6903 -0.7253
  559MOL0     C73717   5.098   2.329   5.611  0.0745  0.3692  0.3188
  559MOL0     C73718   5.028   2.207   5.656 -0.7149 -0.4135 -0.8187
  559MOL0     C73719   5.126   2.105   5.703  0.1146  0.2083  0.0824
  559MOL0     C73720   5.203   2.015   5.740  0.0324  0.0421  0.4128
  559MOL0     C73721   4.982   2.673   5.625  0.1478  1.1042  0.1884
  559MOL0     C73722   4.858   2.708   5.579 -0.5371 -0.2693 -0.1115
  559MOL0     H73723   4.510   2.952   5.275  3.3869 -1.7940  3.3039
  559MOL0     H73724   4.276   3.053   5.267  0.4843  1.4192  1.6048
  559MOL0     H73725   4.012   2.968   5.209  1.5701  1.1027 -0.4778
  559MOL0     H73726   4.092   3.109   5.272  1.5795  0.6026  2.8705
  559MOL0     H73727   3.899   3.164   5.413  0.5473 -2.6549  1.9709
  559MOL0     H73728   3.810   3.019   5.352  1.1979  0.0541  1.0205
  559MOL0     H73729   3.840   3.140   5.117  2.3608 -0.7008 -0.1069
  559MOL0     H73730   3.923   3.257   5.194 -1.1506  0.2350 -0.6544
  559MOL0     H73731   3.716   3.302   5.347 -0.9194  1.8577 -0.6729
  559MOL0     H73732   3.715   3.360   5.179  1.5785  0.3507  0.0410
  559MOL0     H73733   3.500   3.256   5.258 -0.3556 -1.5520  0.5512
  559MOL0     H73734   3.578   3.107   5.296 -2.2198  1.4945  1.4547
  559MOL0     H73735   3.478   3.065   5.077  0.4960  0.2596 -1.7965
  559MOL0     H73736   3.644   3.103   5.035 -0.9447  0.9912 -2.0059
  559MOL0     H73737   3.412   3.287   5.060 -1.0466 -1.2783 -0.2297
  559MOL0     H73738   3.571   3.336   4.992 -0.1527 -1.3487 -1.2423
  559MOL0     H73739   3.392   3.117   4.886  0.3731 -1.2966  0.0473
  559MOL0     H73740   3.542   3.186   4.825  2.0334  3.0411  2.4787
  559MOL0     H73741   3.199   3.319   4.915 -0.3066 -1.5469 -0.8743
  559MOL0     H73742   3.074   3.576   4.672  0.5918 -1.1822 -1.2108
  559MOL0     H73743   3.009   3.444   4.771  0.3846  0.9349  0.5418
  559MOL0     H73744   3.065   3.387   4.485 -1.3234 -0.1059 -0.7148
  559MOL0     H73745   2.933   3.496   4.518  1.1686  0.6872 -1.0343
  559MOL0     H73746   2.989   3.214   4.649  0.3870  0.9179  1.0235
  559MOL0     H73747   2.830   3.296   4.665 -0.5899  2.8965 -0.1267
  559MOL0     H73748   2.961   3.180   4.421 -0.3682 -1.8305  0.6726
  559MOL0     H73749   2.819   3.293   4.416  1.2482  0.2430  1.8934
  559MOL0     H73750   2.663   2.998   4.270 -1.6643 -0.1407 -0.2406
  559MOL0     H73751   2.411   3.007   4.227 -0.8052 -1.1577  0.9595
  559MOL0     H73752   2.040   2.994   4.069 -0.7641 -1.4723 -0.1435
  559MOL0     H73753   1.789   3.011   4.039 -0.3175  2.1217 -1.2461
  559MOL0     H73754   1.574   3.299   4.282 -0.7219  0.2831  1.6055
  559MOL0     H73755   1.518   3.157   4.354 -3.9700 -0.6389 -1.0171
  559MOL0     H73756   1.352   3.108   4.187 -0.6330  0.6814  2.1699
  559MOL0     H73757   1.389   3.251   4.093 -2.2671 -1.7114 -0.7025
  559MOL0     H73758   1.357   3.387   4.329 -0.3259 -0.0749  2.6992
  559MOL0     H73759   1.297   3.220   4.372  1.8327 -0.6705 -0.6811
  559MOL0     H73760   1.171   3.389   4.153 -2.8758 -0.8639 -1.5592
  559MOL0     H73761   1.135   3.228   4.179 -2.1430 -0.4970  0.2710
  559MOL0     H73762   1.075   3.452   4.380  1.7273  1.0310 -2.7207
  559MOL0     H73763   1.066   3.287   4.430 -0.9240 -0.6153 -0.5547
  559MOL0     H73764   0.921   3.238   4.240 -1.1298 -0.7730  1.8354
  559MOL0     H73765   0.931   3.417   4.202  0.8495 -0.3456 -0.2637
  559MOL0     H73766   0.814   3.289   4.459  1.4458  0.5271  1.1159
  559MOL0     H73767   0.819   3.458   4.427 -1.4254 -0.6446  1.9817
  559MOL0     H73768   0.680   3.267   4.238  2.7737 -0.5484  1.6991
  559MOL0     H73769   0.632   3.440   4.267 -0.3372  0.8888  1.7058
  559MOL0     H73770   1.756   3.240   4.400 -1.2293  3.0577 -3.2134
  559MOL0     H73771   1.996   3.212   4.430 -0.9805 -0.3842  0.1373
  559MOL0     H73772   2.380   3.314   4.535 -0.0973 -0.6927  1.5720
  559MOL0     H73773   2.615   3.276   4.599  0.3140 -0.3258 -0.4045
  559MOL0     H73774   4.138   2.762   5.545  1.7288  1.6322  3.2671
  559MOL0     H73775   4.392   2.683   5.580 -0.1804 -0.8160 -0.3599
  559MOL0     H73776   4.893   2.646   5.241  3.5470 -0.2714 -0.4958
  559MOL0     H73777   5.110   2.567   5.334 -1.7071 -2.0092 -1.2549
  559MOL0     H73778   5.232   2.611   5.757  0.5893 -2.6297  2.9171
  559MOL0     H73779   5.334   2.495   5.681  0.0000 -0.9008  0.9923
  559MOL0     H73780   5.198   2.361   5.797  1.5550  0.7973 -1.9505
  559MOL0     H73781   5.050   2.449   5.789  0.0620 -3.3938  1.6836
  559MOL0     H73782   5.182   2.301   5.547 -1.3771  0.5599 -1.7511
  559MOL0     H73783   5.027   2.377   5.543 -2.2310  0.1803  2.4408
  559MOL0     H73784   4.964   2.236   5.740  0.2073 -0.0138 -0.2354
  559MOL0     H73785   4.953   2.174   5.584 -0.8765  2.9299 -2.3829
  559MOL0     H73786   5.258   1.927   5.769  0.5566 -0.1827 -1.1909
  559MOL0     H73787   5.003   2.687   5.730  1.6042  0.4573  0.0150
  559MOL0     H73788   4.780   2.735   5.649 -0.6320  0.1966 -0.3991
  560MOL0     O73789   4.676   8.258   9.774 -0.5259 -0.3345 -0.2882
  560MOL0     C73790   4.599   8.330   9.832 -0.3837 -0.5474  0.4005
  560MOL0     O73791   4.515   8.417   9.762  0.7552  0.4245 -0.6073
  560MOL0     C73792   4.515   8.396   9.627 -1.0546  0.1899  0.0233
  560MOL0     C73793   4.600   8.464   9.539  0.5507  0.1161 -0.0167
  560MOL0     C73794   4.589   8.444   9.410  0.9870 -0.3383 -0.3222
  560MOL0     C73795   4.488   8.369   9.352 -1.0375 -0.4571  0.7105
  560MOL0     O73796   4.496   8.364   9.217  0.5013 -0.6764  0.1309
  560MOL0     C73797   4.391   8.290   9.158 -0.3287  0.2292  0.7800
  560MOL0     C73798   4.430   8.249   9.018  0.0834  0.6177  0.5130
  560MOL0     C73799   4.318   8.168   8.937 -0.2355 -0.3288  0.7282
  560MOL0     C73800   4.199   8.252   8.887  0.0902  0.4316 -1.4012
  560MOL0     C73801   4.132   8.173   8.784 -0.6430 -0.3030  0.2064
  560MOL0     C73802   3.996   8.232   8.761  0.0734 -0.8285  0.8955
  560MOL0     C73803   3.931   8.146   8.645  0.6424 -0.5243  0.1096
  560MOL0     C73804   3.859   8.029   8.700  1.1407  0.4842 -0.4195
  560MOL0     N73805   3.712   8.056   8.694 -0.3756  0.4067 -0.2404
  560MOL0     C73806   3.618   7.985   8.629 -0.3946  0.0031  0.6175
  560MOL0     C73807   3.497   8.047   8.639 -0.1515 -0.6846  0.4963
  560MOL0     C73808   3.354   8.011   8.600 -0.2020 -0.1263  0.2024
  560MOL0     C73809   3.281   7.948   8.721  0.3986 -0.6709  0.4009
  560MOL0     C73810   3.271   7.796   8.688  0.1667  0.0452  0.0041
  560MOL0     C73811   3.180   7.726   8.788 -0.5426 -0.6266 -0.2676
  560MOL0     O73812   3.131   7.604   8.727  0.1937 -0.5570 -0.3657
  560MOL0     C73813   3.052   7.508   8.796  0.1686 -0.4570  0.2814
  560MOL0     C73814   2.984   7.421   8.711 -0.1366 -0.4563 -1.0126
  560MOL0     C73815   2.902   7.317   8.769 -0.3327  0.7435 -0.1470
  560MOL0     C73816   2.875   7.306   8.906  0.4564 -0.0426 -0.5296
  560MOL0     C73817   2.784   7.210   8.971  1.0370 -1.0169  0.0809
  560MOL0     O73818   2.767   7.221   9.103  0.7591 -0.1121 -0.2475
  560MOL0     C73819   2.681   7.145   9.180  0.2784 -0.7902  0.1826
  560MOL0     C73820   2.680   7.008   9.197  0.5923  0.8097  0.3913
  560MOL0     C73821   2.597   6.946   9.286  0.5160  0.2979 -0.0145
  560MOL0     C73822   2.491   7.007   9.357 -0.8531 -0.1566 -0.8105
  560MOL0     O73823   2.402   6.933   9.424  1.0363  0.3749  0.4368
  560MOL0     C73824   2.318   6.995   9.523  0.0017  0.2830 -0.7272
  560MOL0     C73825   2.224   6.895   9.598  0.0943  0.2057 -0.0188
  560MOL0     C73826   2.136   6.823   9.490 -0.4245 -0.4896  0.6110
  560MOL0     C73827   2.016   6.750   9.559  0.1858  0.6004  0.3208
  560MOL0     C73828   1.949   6.643   9.475  0.4298 -0.2509 -0.5339
  560MOL0     C73829   2.043   6.528   9.443 -0.2168 -0.7575  0.0955
  560MOL0     C73830   1.961   6.413   9.397 -0.6653 -0.7189 -0.0594
  560MOL0     C73831   2.051   6.288   9.375  0.6640 -0.7109  0.2922
  560MOL0    Cl73832   1.945   6.171   9.300 -0.0454 -0.0741  0.2449
  560MOL0     C73833   2.491   7.144   9.348  0.5555  0.4806 -0.1274
  560MOL0     C73834   2.592   7.210   9.270 -0.9274 -0.0175  0.2481
  560MOL0     O73835   2.732   7.118   8.900  0.5804  0.4306 -0.6952
  560MOL0     C73836   2.929   7.407   8.984  0.1024  0.0634 -0.0292
  560MOL0     C73837   3.022   7.500   8.933 -0.5242 -0.0426 -0.8808
  560MOL0     N73838   3.525   8.164   8.705 -0.0958  0.1110 -0.6880
  560MOL0     N73839   3.651   8.171   8.738  0.0092 -1.0220  0.2684
  560MOL0     C73840   4.404   8.300   9.434 -0.1041 -0.0089  0.0703
  560MOL0     C73841   4.415   8.318   9.574 -0.6074  0.5663  0.4540
  560MOL0     C73842   4.589   8.327   9.974 -1.0437  0.2793 -0.3452
  560MOL0     C73843   4.484   8.374  10.037 -0.5757  0.0079  0.0406
  560MOL0     C73844   4.475   8.382  10.173  0.1435  0.9008  0.2203
  560MOL0     C73845   4.571   8.310  10.253 -0.2766  0.2897  0.0297
  560MOL0     O73846   4.565   8.282  10.387 -0.1346 -0.5245  0.4363
  560MOL0     C73847   4.437   8.315  10.454  0.0639 -0.0931  1.1128
  560MOL0     C73848   4.468   8.379  10.584 -0.7395 -0.0483 -0.1212
  560MOL0     C73849   4.336   8.445  10.641  0.0957 -0.2845 -0.1053
  560MOL0     C73850   4.230   8.351  10.700 -0.0725  0.0027  1.0546
  560MOL0     C73851   4.253   8.297  10.833  0.6195  0.1009  0.1823
  560MOL0     C73852   4.263   8.227  10.928 -0.3049  0.0316 -0.7093
  560MOL0     C73853   4.685   8.268  10.193 -0.4287 -0.2547  0.0218
  560MOL0     C73854   4.701   8.285  10.057 -0.6398  0.0356  1.0120
  560MOL0     H73855   4.687   8.514   9.578  1.9615 -0.7615 -1.8664
  560MOL0     H73856   4.674   8.476   9.350  0.3500  1.2731 -0.4375
  560MOL0     H73857   4.308   8.361   9.153  0.4528  1.0732 -1.6343
  560MOL0     H73858   4.360   8.197   9.207 -0.1123 -0.9669 -1.2697
  560MOL0     H73859   4.509   8.174   9.028 -0.3735  0.2898  1.9411
  560MOL0     H73860   4.467   8.336   8.962  1.5419  1.7730  3.0950
  560MOL0     H73861   4.284   8.092   9.007 -0.9992 -1.0344 -0.3644
  560MOL0     H73862   4.374   8.125   8.853 -2.2498  1.9228 -1.9960
  560MOL0     H73863   4.130   8.271   8.971 -2.3437  1.0904 -3.4345
  560MOL0     H73864   4.235   8.345   8.844  1.1966  1.8808  2.2333
  560MOL0     H73865   4.130   8.066   8.808  0.3405 -0.5627 -0.7994
  560MOL0     H73866   4.180   8.172   8.686  1.4553 -2.2235  1.1617
  560MOL0     H73867   3.999   8.337   8.730 -0.0519 -1.0823 -0.0068
  560MOL0     H73868   3.926   8.235   8.845 -1.1601  0.5990 -0.1368
  560MOL0     H73869   3.859   8.210   8.593 -0.8523  2.1383  4.8716
  560MOL0     H73870   4.004   8.116   8.570  0.4027  1.4537 -0.9877
  560MOL0     H73871   3.875   8.015   8.808 -0.5256  1.5266  0.0015
  560MOL0     H73872   3.877   7.939   8.640  0.4857  0.8177 -1.1337
  560MOL0     H73873   3.641   7.896   8.571  2.3030  0.7158  0.4514
  560MOL0     H73874   3.359   7.952   8.507  3.6762 -0.1109  0.2171
  560MOL0     H73875   3.303   8.105   8.580 -3.7956 -1.4774  2.2141
  560MOL0     H73876   3.187   7.993   8.754  1.2325 -0.7957  3.1814
  560MOL0     H73877   3.339   7.945   8.814 -1.0394 -4.5250  1.3800
  560MOL0     H73878   3.243   7.778   8.584 -0.0987 -0.3473  0.1416
  560MOL0     H73879   3.365   7.740   8.692  0.2666  0.2069 -0.1018
  560MOL0     H73880   3.097   7.786   8.827  0.6868 -0.5966  2.5094
  560MOL0     H73881   3.250   7.714   8.871  0.4493 -0.0497 -1.0032
  560MOL0     H73882   3.013   7.431   8.607  0.5556 -0.9106 -0.8752
  560MOL0     H73883   2.858   7.243   8.702  1.2476 -1.6208  1.2815
  560MOL0     H73884   2.744   6.939   9.143 -2.1763 -2.6908  1.1186
  560MOL0     H73885   2.593   6.838   9.297 -2.7242  0.3941  0.9677
  560MOL0     H73886   2.247   7.067   9.481  0.5697  0.9637 -0.5411
  560MOL0     H73887   2.372   7.055   9.597 -2.1006 -0.0122  1.1749
  560MOL0     H73888   2.162   6.955   9.665  1.7190  0.6848  1.1218
  560MOL0     H73889   2.284   6.830   9.662  2.7421  3.6802  1.3820
  560MOL0     H73890   2.193   6.757   9.424 -1.4626 -1.3548  0.5648
  560MOL0     H73891   2.077   6.898   9.436 -0.4602 -0.4895  0.6505
  560MOL0     H73892   2.052   6.696   9.647 -1.0277 -2.1924 -0.7630
  560MOL0     H73893   1.940   6.816   9.601 -2.1373 -1.2293 -0.8113
  560MOL0     H73894   1.924   6.689   9.379  1.2482 -0.9107 -1.0814
  560MOL0     H73895   1.859   6.608   9.526 -0.6315 -0.1609 -2.2611
  560MOL0     H73896   2.099   6.504   9.534 -0.6895  1.0531  0.9188
  560MOL0     H73897   2.122   6.563   9.376  0.5727  1.4908  2.0469
  560MOL0     H73898   1.896   6.379   9.478 -1.0015 -1.3401 -0.5881
  560MOL0     H73899   1.906   6.433   9.305  0.1079  1.0073 -0.1888
  560MOL0     H73900   2.094   6.256   9.470  2.0516 -0.3337 -0.1866
  560MOL0     H73901   2.133   6.307   9.306 -0.7841 -0.4715 -1.4504
  560MOL0     H73902   2.414   7.204   9.396  2.0025  1.8872  0.5073
  560MOL0     H73903   2.611   7.317   9.274 -0.8558 -0.0323  4.0755
  560MOL0     H73904   2.921   7.416   9.092  0.5501 -0.5007  0.0554
  560MOL0     H73905   3.064   7.569   9.005 -0.4764  2.2186 -2.9523
  560MOL0     H73906   4.323   8.237   9.399 -0.4677  0.9202 -0.8211
  560MOL0     H73907   4.344   8.278   9.645  2.6611 -2.1337  2.5464
  560MOL0     H73908   4.394   8.403   9.984 -0.1432 -0.2218 -0.8186
  560MOL0     H73909   4.375   8.406  10.206 -1.0183 -2.0265 -0.8011
  560MOL0     H73910   4.379   8.222  10.460 -1.3780  0.6121 -0.7975
  560MOL0     H73911   4.375   8.388  10.401  1.3871  1.5136  1.6922
  560MOL0     H73912   4.505   8.309  10.660 -0.7749 -1.5151 -1.4059
  560MOL0     H73913   4.541   8.455  10.555 -0.4175 -1.1388 -2.3714
  560MOL0     H73914   4.289   8.501  10.560 -0.5907 -0.7695 -0.0544
  560MOL0     H73915   4.370   8.514  10.718 -1.6547 -1.3611  1.7319
  560MOL0     H73916   4.145   8.420  10.701  0.9025  1.3302 -0.9870
  560MOL0     H73917   4.203   8.266  10.637 -2.1295  2.2343 -1.2959
  560MOL0     H73918   4.269   8.171  11.020  0.9403 -0.6856 -1.2016
  560MOL0     H73919   4.767   8.232  10.254 -0.2739 -0.7120 -0.4488
  560MOL0     H73920   4.783   8.236  10.006 -1.7709  0.0142 -0.8856
  561MOL0     O73921   4.744   6.008   3.182  0.7712 -0.2927 -0.1065
  561MOL0     C73922   4.853   5.953   3.193 -0.1297  0.4076 -0.9155
  561MOL0     O73923   4.900   5.893   3.301  0.4626 -0.0032 -0.1799
  561MOL0     C73924   4.847   5.896   3.424 -0.3269  0.4872 -0.5018
  561MOL0     C73925   4.822   6.023   3.482  0.6330  0.5586 -0.0947
  561MOL0     C73926   4.779   6.036   3.614  0.0377 -0.3374 -0.1951
  561MOL0     C73927   4.739   5.918   3.687 -0.0286 -0.6282 -0.5255
  561MOL0     O73928   4.673   5.928   3.805  0.1428 -0.1925 -0.0115
  561MOL0     C73929   4.637   5.813   3.876 -0.1442 -0.4157  0.2965
  561MOL0     C73930   4.583   5.850   4.008  0.4328 -0.2009 -1.0979
  561MOL0     C73931   4.466   5.948   4.003  0.3722  0.1242  0.5566
  561MOL0     C73932   4.394   5.966   4.145 -0.2989  0.0732 -0.5945
  561MOL0     C73933   4.265   6.040   4.152  0.1042  0.1525  0.4009
  561MOL0     C73934   4.289   6.199   4.119  0.1938  0.4892  0.3580
  561MOL0     C73935   4.176   6.302   4.163 -0.1709  0.6945  0.4117
  561MOL0     C73936   4.051   6.295   4.082  0.7153  0.3338  0.3278
  561MOL0     N73937   3.950   6.346   4.174 -0.5586  0.3650  0.7275
  561MOL0     C73938   3.935   6.480   4.201 -0.5571 -0.4655 -0.7998
  561MOL0     C73939   3.825   6.502   4.289 -0.7336  0.6695  0.8902
  561MOL0     C73940   3.787   6.626   4.360  0.2545  0.1218 -0.1653
  561MOL0     C73941   3.818   6.599   4.504 -0.3666  0.3482 -0.3285
  561MOL0     C73942   3.787   6.710   4.615  0.5163  0.7316 -0.6466
  561MOL0     C73943   3.775   6.849   4.568  0.5495 -1.0036 -0.0807
  561MOL0     O73944   3.682   6.883   4.464  0.5439 -0.2237  0.7084
  561MOL0     C73945   3.548   6.845   4.471 -0.4176  0.2224 -0.8031
  561MOL0     C73946   3.486   6.825   4.347  0.2258 -0.0038 -1.0448
  561MOL0     C73947   3.348   6.794   4.345 -0.5659 -0.7265 -1.2099
  561MOL0     C73948   3.273   6.791   4.465 -0.3366 -0.8253 -0.7014
  561MOL0     C73949   3.129   6.771   4.465 -1.3200  0.1040 -0.1190
  561MOL0     O73950   3.063   6.765   4.344 -0.9986  0.2244 -0.5774
  561MOL0     C73951   2.927   6.771   4.352 -0.3459  0.1076  0.7941
  561MOL0     C73952   2.877   6.897   4.308 -0.0259  0.8383 -0.4067
  561MOL0     C73953   2.740   6.919   4.305 -0.0184  0.7106 -0.1964
  561MOL0     C73954   2.654   6.805   4.332  0.2519 -0.2383  0.3608
  561MOL0     O73955   2.515   6.813   4.328  0.2218 -0.5125 -0.0007
  561MOL0     C73956   2.454   6.944   4.363  0.0446 -0.0777 -0.0288
  561MOL0     C73957   2.311   6.913   4.381 -0.8706 -0.2383 -0.5367
  561MOL0     C73958   2.210   7.034   4.365  0.2847 -0.5857 -0.2336
  561MOL0     C73959   2.062   6.977   4.362  0.0361 -0.6322  0.1340
  561MOL0     C73960   1.963   7.098   4.365  0.5960 -0.6216 -0.0597
  561MOL0     C73961   1.835   7.047   4.311  0.4885  0.5705  1.1621
  561MOL0     C73962   1.717   7.133   4.350 -0.4117  0.2257 -0.3672
  561MOL0     C73963   1.587   7.107   4.272 -0.9864  0.0617  0.2818
  561MOL0    Cl73964   1.448   7.212   4.329 -0.3794  0.3497  0.1227
  561MOL0     C73965   2.705   6.680   4.360 -0.3226 -0.1667 -0.3807
  561MOL0     C73966   2.846   6.664   4.371 -0.8807  0.1865  0.4619
  561MOL0     O73967   3.086   6.750   4.577  0.1111 -0.2761 -0.4970
  561MOL0     C73968   3.339   6.817   4.587 -0.5591 -0.8228  0.1461
  561MOL0     C73969   3.476   6.849   4.595 -0.2661  0.8785  0.3976
  561MOL0     N73970   3.764   6.372   4.296  0.4166 -0.6478 -0.0972
  561MOL0     N73971   3.829   6.290   4.214  0.4130 -0.4156 -0.1090
  561MOL0     C73972   4.766   5.792   3.625 -0.3894 -0.4650 -0.2715
  561MOL0     C73973   4.826   5.781   3.500 -0.7075  0.4967  0.2722
  561MOL0     C73974   4.940   5.948   3.074  0.6311  0.3121  0.3264
  561MOL0     C73975   5.073   5.924   3.081 -0.2504  0.4564 -0.1077
  561MOL0     C73976   5.154   5.903   2.964 -0.3076 -0.0305  0.5559
  561MOL0     C73977   5.100   5.916   2.833 -0.1868  0.3621  0.5064
  561MOL0     O73978   5.186   5.885   2.733  0.8479 -0.2218  0.2452
  561MOL0     C73979   5.209   5.981   2.629  0.9374 -0.9105 -0.5695
  561MOL0     C73980   5.348   6.052   2.641  0.1896 -0.7963  0.0503
  561MOL0     C73981   5.465   5.966   2.601  0.3897  0.0813  0.9469
  561MOL0     C73982   5.589   6.063   2.586  0.5097  0.9549 -0.3221
  561MOL0     C73983   5.717   5.998   2.566 -0.6922 -0.4218  0.0314
  561MOL0     C73984   5.833   5.956   2.570  1.1132  0.0285 -0.6082
  561MOL0     C73985   4.962   5.930   2.824  0.8619  0.4992  0.1280
  561MOL0     C73986   4.886   5.955   2.940  0.0882 -0.3662 -0.6445
  561MOL0     H73987   4.831   6.109   3.416 -1.3683 -1.8250 -3.8922
  561MOL0     H73988   4.754   6.134   3.653  2.7986  1.0944 -1.7552
  561MOL0     H73989   4.722   5.744   3.884 -1.6325 -2.1319  3.0428
  561MOL0     H73990   4.555   5.772   3.816 -1.6806  2.2447  0.4661
  561MOL0     H73991   4.653   5.885   4.085 -0.3515 -0.5761 -0.1841
  561MOL0     H73992   4.541   5.761   4.056 -1.4461  2.4573  2.7060
  561MOL0     H73993   4.391   5.911   3.932  1.4068  0.7529 -0.9184
  561MOL0     H73994   4.510   6.045   3.976  0.8886 -0.3652 -0.4023
  561MOL0     H73995   4.363   5.867   4.179  0.6543 -0.3721 -0.9767
  561MOL0     H73996   4.462   6.013   4.217 -1.2763  1.3078 -0.4522
  561MOL0     H73997   4.210   6.034   4.247 -1.7477  1.9151 -0.4840
  561MOL0     H73998   4.198   5.993   4.080  1.2496 -2.4780  0.9230
  561MOL0     H73999   4.308   6.215   4.012 -0.1866 -0.2382  0.1784
  561MOL0     H74000   4.372   6.222   4.185  0.3474 -1.1664  0.7741
  561MOL0     H74001   4.156   6.275   4.267  1.8143 -1.3597  0.3518
  561MOL0     H74002   4.211   6.405   4.164 -3.5505  1.9385  0.1680
  561MOL0     H74003   4.038   6.191   4.050  2.3952  0.0879  0.3380
  561MOL0     H74004   4.059   6.348   3.987  0.8358 -1.7544 -0.8985
  561MOL0     H74005   4.001   6.562   4.174 -0.2265  0.1709  1.7265
  561MOL0     H74006   3.685   6.657   4.336  0.7183  1.4644 -0.5536
  561MOL0     H74007   3.854   6.706   4.326  4.4822 -3.4445 -0.9995
  561MOL0     H74008   3.927   6.596   4.500 -0.4162 -1.2900 -3.0338
  561MOL0     H74009   3.778   6.504   4.542 -1.5355 -0.7778 -3.9385
  561MOL0     H74010   3.690   6.700   4.664  1.2729  0.9673  0.9438
  561MOL0     H74011   3.858   6.692   4.695  0.6083  0.4547 -0.7853
  561MOL0     H74012   3.875   6.870   4.527  1.0200 -2.0355  0.4778
  561MOL0     H74013   3.770   6.912   4.657  1.5218 -0.7562 -0.1904
  561MOL0     H74014   3.534   6.837   4.250 -1.0006  1.2623 -1.5352
  561MOL0     H74015   3.298   6.803   4.249 -2.0252  1.5622 -0.3211
  561MOL0     H74016   2.945   6.980   4.292 -0.6307  1.2943 -0.6550
  561MOL0     H74017   2.691   7.011   4.274 -1.1822 -0.3428 -1.5941
  561MOL0     H74018   2.469   7.015   4.281  2.3670 -2.7287 -2.0755
  561MOL0     H74019   2.498   6.984   4.455  0.0487  0.8751 -0.4348
  561MOL0     H74020   2.299   6.864   4.479  0.2437 -1.2230 -0.8700
  561MOL0     H74021   2.288   6.840   4.303  0.9418 -1.8876  0.3747
  561MOL0     H74022   2.232   7.090   4.273  0.0248  2.1472  1.2633
  561MOL0     H74023   2.226   7.100   4.451  1.3972 -0.7042 -0.3389
  561MOL0     H74024   2.042   6.919   4.272  0.4341 -0.3918 -0.1099
  561MOL0     H74025   2.043   6.921   4.454 -0.1812  0.2041  0.6081
  561MOL0     H74026   1.997   7.186   4.309  2.1639  0.4852  2.4585
  561MOL0     H74027   1.952   7.123   4.471 -1.0372 -0.1366 -0.3059
  561MOL0     H74028   1.819   6.949   4.355  0.8531 -0.1970 -0.3518
  561MOL0     H74029   1.832   7.014   4.207 -1.2268 -0.8223  1.6129
  561MOL0     H74030   1.714   7.142   4.459  3.5348  1.4752 -0.2206
  561MOL0     H74031   1.743   7.231   4.308 -0.4647 -1.2940 -4.3844
  561MOL0     H74032   1.560   7.001   4.280  2.1903 -0.7177  2.6517
  561MOL0     H74033   1.609   7.136   4.169 -0.1921  1.9198  0.9342
  561MOL0     H74034   2.634   6.606   4.395 -0.9417  2.1982  4.1130
  561MOL0     H74035   2.885   6.564   4.389 -1.5295 -0.1600 -0.0455
  561MOL0     H74036   3.292   6.818   4.685  1.6600  0.0455  1.2638
  561MOL0     H74037   3.518   6.868   4.693 -3.0400  2.7601  1.3411
  561MOL0     H74038   4.756   5.688   3.654 -4.1695 -0.0546  0.4059
  561MOL0     H74039   4.867   5.688   3.462 -1.9646  0.2352 -0.4828
  561MOL0     H74040   5.124   5.908   3.175 -0.3913  1.0003  0.0626
  561MOL0     H74041   5.261   5.887   2.973 -0.4507 -3.0913 -1.5271
  561MOL0     H74042   5.123   6.047   2.629  1.3825 -0.3237 -0.9528
  561MOL0     H74043   5.202   5.923   2.536  0.8767 -1.8086 -0.0156
  561MOL0     H74044   5.343   6.130   2.564 -1.6121 -0.4314  0.4862
  561MOL0     H74045   5.370   6.098   2.738  1.3738  0.6373 -0.8545
  561MOL0     H74046   5.446   5.926   2.501  0.6197 -0.6264  1.1741
  561MOL0     H74047   5.473   5.884   2.674 -1.5466  0.3349  1.5133
  561MOL0     H74048   5.573   6.098   2.483 -0.7743 -5.0734 -2.6209
  561MOL0     H74049   5.588   6.146   2.658 -0.0061 -0.8783  1.9041
  561MOL0     H74050   5.927   5.906   2.581  1.6846  0.8787 -1.4651
  561MOL0     H74051   4.926   5.930   2.722 -2.8273  2.3221  1.2796
  561MOL0     H74052   4.779   5.973   2.935 -0.1316 -0.7823  1.4237
  562MOL0     O74053   7.792   2.747   8.518  0.4112 -0.3439 -0.0119
  562MOL0     C74054   7.806   2.660   8.434 -0.1704 -0.6359 -0.3211
  562MOL0     O74055   7.704   2.589   8.373  0.1486 -0.6653  0.0831
  562MOL0     C74056   7.572   2.614   8.405 -0.7332 -1.4936 -0.2602
  562MOL0     C74057   7.481   2.653   8.311  0.6542  0.4032 -0.3899
  562MOL0     C74058   7.348   2.689   8.346 -0.0626 -0.3552  0.2509
  562MOL0     C74059   7.312   2.683   8.478 -0.1036  1.2031 -0.3834
  562MOL0     O74060   7.182   2.718   8.516 -0.2816 -0.0342 -0.3196
  562MOL0     C74061   7.157   2.753   8.654 -0.1605  0.0015 -0.0733
  562MOL0     C74062   7.025   2.822   8.650  0.4984 -0.4807  0.3987
  562MOL0     C74063   7.033   2.960   8.584 -0.3623 -0.1582  0.4325
  562MOL0     C74064   6.917   3.055   8.588  0.4588 -0.8549 -0.3742
  562MOL0     C74065   6.800   2.983   8.506 -0.4053  0.2678 -0.3870
  562MOL0     C74066   6.679   3.072   8.515 -0.6198 -0.2803 -0.0458
  562MOL0     C74067   6.553   3.000   8.488 -0.5637  0.3990 -0.6855
  562MOL0     C74068   6.435   3.100   8.473  0.5323  0.1878 -0.3974
  562MOL0     N74069   6.325   3.055   8.393 -0.1848 -0.3852 -1.1725
  562MOL0     C74070   6.231   2.960   8.427 -0.2679  0.2640  0.6180
  562MOL0     C74071   6.143   2.949   8.326  0.4656 -1.4931  0.3021
  562MOL0     C74072   6.030   2.853   8.321  1.0025  0.1387  0.0319
  562MOL0     C74073   5.956   2.841   8.185 -1.4324  0.3526 -1.1612
  562MOL0     C74074   5.847   2.950   8.180  0.0484 -1.5519  0.2668
  562MOL0     C74075   5.737   2.940   8.084 -0.3858 -0.4162 -0.2707
  562MOL0     O74076   5.664   2.817   8.122 -0.3103  0.5460 -0.1923
  562MOL0     C74077   5.550   2.792   8.058 -0.1790  0.3166  0.1142
  562MOL0     C74078   5.480   2.687   8.107 -0.2558  0.7972 -0.1940
  562MOL0     C74079   5.353   2.650   8.053 -0.2382  0.5180 -0.2632
  562MOL0     C74080   5.292   2.720   7.949 -0.3119  0.0607 -0.3372
  562MOL0     C74081   5.159   2.674   7.901  1.2983 -0.0042  0.3038
  562MOL0     O74082   5.121   2.707   7.769  0.2780 -0.1996 -0.1091
  562MOL0     C74083   4.997   2.670   7.720 -0.2409 -0.3468  1.0192
  562MOL0     C74084   4.998   2.611   7.593 -0.1519  0.1580  0.3953
  562MOL0     C74085   4.873   2.579   7.534  0.8380 -0.1232  0.0467
  562MOL0     C74086   4.750   2.608   7.599 -0.0581  0.0667 -0.3813
  562MOL0     O74087   4.633   2.578   7.532 -0.2348 -0.0688 -0.2186
  562MOL0     C74088   4.611   2.679   7.432  0.1427 -0.0038  0.0396
  562MOL0     C74089   4.468   2.679   7.375  0.8398  0.0392 -0.4984
  562MOL0     C74090   4.357   2.640   7.478 -0.2222 -0.6770 -0.1741
  562MOL0     C74091   4.209   2.686   7.446 -0.8346  0.8161  0.3877
  562MOL0     C74092   4.114   2.624   7.551 -0.6576 -0.4306  0.3068
  562MOL0     C74093   4.001   2.723   7.571  0.0969 -1.0002  0.2592
  562MOL0     C74094   3.919   2.684   7.691  0.7167 -0.1726 -1.0987
  562MOL0     C74095   3.779   2.748   7.681 -0.0941 -0.0360 -0.9422
  562MOL0    Cl74096   3.676   2.714   7.534 -0.2664  0.1488 -0.3767
  562MOL0     C74097   4.754   2.671   7.714 -0.6712  0.0146 -0.6690
  562MOL0     C74098   4.876   2.707   7.782 -0.3106  0.4733  0.7758
  562MOL0     O74099   5.088   2.612   7.980  0.6238  0.3218  0.3657
  562MOL0     C74100   5.365   2.830   7.902  0.6100  0.5248  0.2736
  562MOL0     C74101   5.494   2.860   7.952  0.6642 -0.2125 -0.0061
  562MOL0     N74102   6.189   3.037   8.228  0.3415  0.5618  0.5032
  562MOL0     N74103   6.294   3.103   8.272  0.5213  0.0348 -0.1166
  562MOL0     C74104   7.402   2.638   8.578 -0.7351 -0.4208  0.3225
  562MOL0     C74105   7.531   2.610   8.540  0.3168 -0.3176  0.5278
  562MOL0     C74106   7.943   2.615   8.426  0.5797  0.4900  0.9516
  562MOL0     C74107   8.039   2.712   8.441 -0.5482  1.1803  0.9077
  562MOL0     C74108   8.176   2.675   8.436 -0.0071  0.1553  0.0580
  562MOL0     C74109   8.214   2.536   8.401  0.1023  0.4664 -0.3483
  562MOL0     O74110   8.342   2.491   8.379 -0.4080 -1.0779  0.0206
  562MOL0     C74111   8.447   2.593   8.409  0.6005 -1.3434  0.6188
  562MOL0     C74112   8.471   2.575   8.556  0.1456 -0.1757  0.1990
  562MOL0     C74113   8.552   2.691   8.612 -0.2576 -0.4559  0.0177
  562MOL0     C74114   8.563   2.705   8.759 -0.7257 -0.2093  0.1608
  562MOL0     C74115   8.647   2.602   8.822 -0.0019  0.0664 -0.2694
  562MOL0     C74116   8.735   2.525   8.861  0.0333  0.3960 -0.6540
  562MOL0     C74117   8.104   2.440   8.386  0.0309  0.1912 -0.2242
  562MOL0     C74118   7.971   2.476   8.390 -0.0128  0.9093  0.0462
  562MOL0     H74119   7.516   2.660   8.209 -0.9064 -0.0702 -0.9834
  562MOL0     H74120   7.276   2.727   8.274  0.5440 -0.4067 -0.3996
  562MOL0     H74121   7.240   2.810   8.696  1.3490 -0.4801 -2.2222
  562MOL0     H74122   7.147   2.662   8.714  0.2058 -0.5902 -0.8858
  562MOL0     H74123   6.990   2.837   8.752  2.3685  1.4550  0.8279
  562MOL0     H74124   6.954   2.764   8.591 -1.8179  2.5418 -0.0187
  562MOL0     H74125   7.069   2.962   8.481  0.2261  3.6018  0.5704
  562MOL0     H74126   7.102   3.026   8.636 -0.1830 -0.2488  0.3096
  562MOL0     H74127   6.883   3.069   8.691 -0.3033  1.8141 -0.9006
  562MOL0     H74128   6.933   3.154   8.544 -2.2399 -0.6306 -1.0515
  562MOL0     H74129   6.774   2.882   8.538 -0.8446  0.0237 -1.4639
  562MOL0     H74130   6.844   2.972   8.407 -0.4240 -1.7591 -0.2044
  562MOL0     H74131   6.687   3.154   8.443  0.0791  1.4386  1.8791
  562MOL0     H74132   6.679   3.131   8.607 -1.8866  1.6947 -1.2584
  562MOL0     H74133   6.564   2.950   8.391  1.5960  0.6794 -0.6404
  562MOL0     H74134   6.543   2.920   8.562  2.0516  0.0571 -0.5956
  562MOL0     H74135   6.472   3.187   8.418  1.0941  0.1616 -0.0670
  562MOL0     H74136   6.399   3.127   8.573 -0.7257 -0.1382 -0.7431
  562MOL0     H74137   6.233   2.909   8.523  0.0127 -1.2795 -0.1792
  562MOL0     H74138   5.956   2.859   8.401  0.7042 -4.7865  0.4200
  562MOL0     H74139   6.078   2.758   8.349  1.1688 -0.4755 -2.1515
  562MOL0     H74140   5.924   2.736   8.189 -0.0582 -0.0552  0.2008
  562MOL0     H74141   6.029   2.848   8.104 -0.4905 -1.1021 -0.4843
  562MOL0     H74142   5.802   2.974   8.277  1.8582  3.2398  0.2297
  562MOL0     H74143   5.897   3.047   8.172 -1.1123 -0.8368  1.1440
  562MOL0     H74144   5.786   2.938   7.986 -0.7043  0.1457 -0.4435
  562MOL0     H74145   5.676   3.031   8.086  0.7339  0.5775 -3.7435
  562MOL0     H74146   5.521   2.629   8.188 -0.2655  1.2146  0.1124
  562MOL0     H74147   5.298   2.561   8.084 -0.9428  1.0483  0.0309
  562MOL0     H74148   5.094   2.596   7.545 -1.6875 -1.8969 -2.2792
  562MOL0     H74149   4.860   2.545   7.432 -0.7690  1.0472 -0.1707
  562MOL0     H74150   4.681   2.674   7.348  0.7799  1.0869  0.4763
  562MOL0     H74151   4.614   2.778   7.479 -3.5710  0.5723 -0.6215
  562MOL0     H74152   4.459   2.604   7.296 -1.0219  2.0872 -2.4116
  562MOL0     H74153   4.436   2.769   7.320 -1.2312 -1.1134 -1.2862
  562MOL0     H74154   4.396   2.686   7.569  4.6455  0.5646 -2.5704
  562MOL0     H74155   4.363   2.532   7.495 -1.2527 -0.8715 -0.9056
  562MOL0     H74156   4.195   2.795   7.448  0.8160  1.0428  2.4201
  562MOL0     H74157   4.190   2.655   7.343  1.1560  0.6968  0.0341
  562MOL0     H74158   4.165   2.621   7.648  2.3445 -3.5970 -1.1294
  562MOL0     H74159   4.078   2.524   7.530  1.6099 -1.2930  0.2098
  562MOL0     H74160   3.936   2.728   7.483 -1.2706 -1.1555  1.2322
  562MOL0     H74161   4.031   2.827   7.580  0.4176 -1.0984  0.3386
  562MOL0     H74162   3.908   2.575   7.690  0.7788 -0.2556  1.2268
  562MOL0     H74163   3.968   2.718   7.782  1.6382 -3.2465 -0.3235
  562MOL0     H74164   3.782   2.857   7.692 -1.9763 -0.2000  3.0044
  562MOL0     H74165   3.722   2.712   7.767  0.5831 -2.1116 -1.2998
  562MOL0     H74166   4.661   2.706   7.756 -0.0144 -2.2904  3.1661
  562MOL0     H74167   4.881   2.757   7.878 -2.8176 -0.0596  1.2523
  562MOL0     H74168   5.324   2.884   7.818 -0.9042  0.8168  1.1694
  562MOL0     H74169   5.552   2.936   7.901 -1.0060  1.0675 -0.0997
  562MOL0     H74170   7.379   2.630   8.683 -1.8453 -3.2007 -0.0530
  562MOL0     H74171   7.608   2.584   8.611  4.4734  0.0131 -3.4213
  562MOL0     H74172   8.022   2.815   8.469 -0.1337  0.5601  3.7667
  562MOL0     H74173   8.247   2.748   8.472  0.7896  0.7096 -2.4186
  562MOL0     H74174   8.414   2.696   8.393 -3.0026 -2.0011  2.7194
  562MOL0     H74175   8.536   2.568   8.350  1.1219 -0.4337  1.0008
  562MOL0     H74176   8.379   2.562   8.613  0.7191 -0.7151  1.0236
  562MOL0     H74177   8.524   2.481   8.575 -0.0214 -0.5785 -1.1985
  562MOL0     H74178   8.514   2.786   8.573 -0.3381  0.6381  2.5657
  562MOL0     H74179   8.653   2.675   8.572 -0.2763  0.6632 -0.5383
  562MOL0     H74180   8.606   2.801   8.789  0.9021  0.0166 -2.6027
  562MOL0     H74181   8.457   2.688   8.784 -1.2122  0.0760 -1.6148
  562MOL0     H74182   8.792   2.436   8.877  1.0931  0.8705 -1.5701
  562MOL0     H74183   8.121   2.335   8.364 -0.4377  0.1338 -0.3243
  562MOL0     H74184   7.893   2.406   8.366  1.0114 -1.6504  3.4072
  563MOL0     O74185   3.660   6.534   2.897 -0.2447 -0.1642  1.0430
  563MOL0     C74186   3.717   6.461   2.816 -0.7607 -0.2661  0.2180
  563MOL0     O74187   3.655   6.380   2.724  1.4676  0.3173 -0.4807
  563MOL0     C74188   3.517   6.370   2.722  0.5040  0.1730  0.2063
  563MOL0     C74189   3.429   6.482   2.711  0.4433 -0.3154 -0.0731
  563MOL0     C74190   3.290   6.474   2.699  0.4441  0.1813 -0.4481
  563MOL0     C74191   3.235   6.341   2.681 -0.1171  0.5495  0.0555
  563MOL0     O74192   3.100   6.334   2.663 -0.1955 -0.5417 -0.0735
  563MOL0     C74193   3.037   6.225   2.604  0.1499 -0.0401  0.2052
  563MOL0     C74194   3.076   6.215   2.464  0.7972 -0.2144  0.3976
  563MOL0     C74195   3.009   6.097   2.395  1.0128 -0.0934  0.2608
  563MOL0     C74196   3.018   6.098   2.236  0.4986  0.3408 -0.1276
  563MOL0     C74197   2.913   6.011   2.169  0.3530 -0.2030 -0.5726
  563MOL0     C74198   2.895   5.877   2.236  0.3688 -0.6346 -0.4702
  563MOL0     C74199   2.835   5.765   2.142 -0.3042 -0.3044  0.3584
  563MOL0     C74200   2.700   5.777   2.074  0.0797 -0.5362 -0.3043
  563MOL0     N74201   2.589   5.749   2.175 -1.0485  0.7769 -0.0830
  563MOL0     C74202   2.529   5.847   2.251 -1.2038  0.7379 -0.2046
  563MOL0     C74203   2.472   5.782   2.357 -0.0758 -0.5945  0.9008
  563MOL0     C74204   2.393   5.856   2.463  0.4420  0.1002 -0.5890
  563MOL0     C74205   2.258   5.906   2.397  1.3370  0.2635 -0.1690
  563MOL0     C74206   2.164   5.791   2.350 -0.5808 -0.4239 -0.5339
  563MOL0     C74207   2.032   5.848   2.319 -0.6440  0.4439 -0.2237
  563MOL0     O74208   2.027   5.914   2.196  0.0873 -0.0301  0.2075
  563MOL0     C74209   1.903   5.966   2.160  0.1458 -0.0198  0.2122
  563MOL0     C74210   1.894   6.018   2.029 -0.3390 -0.0830 -0.2748
  563MOL0     C74211   1.787   6.090   1.981  0.7636 -0.2740 -0.3009
  563MOL0     C74212   1.668   6.082   2.057 -0.2753  0.5036  0.3604
  563MOL0     C74213   1.545   6.153   2.004  0.0018 -0.9345  0.0147
  563MOL0     O74214   1.577   6.265   1.936  0.1608  0.2527 -0.3788
  563MOL0     C74215   1.486   6.362   1.889  0.6948  0.5029  0.6709
  563MOL0     C74216   1.533   6.470   1.819  1.3605  0.2785  0.3805
  563MOL0     C74217   1.453   6.578   1.778  0.7483 -1.3076 -0.1002
  563MOL0     C74218   1.315   6.583   1.811 -0.9798 -0.2030 -0.5423
  563MOL0     O74219   1.245   6.690   1.764  0.1150  0.4833 -0.3304
  563MOL0     C74220   1.107   6.674   1.729  0.4535  1.0564 -0.1719
  563MOL0     C74221   1.008   6.757   1.808  0.0775 -0.1915  0.0913
  563MOL0     C74222   0.871   6.760   1.738 -0.3868  0.0401 -0.1872
  563MOL0     C74223   0.766   6.817   1.841  0.8520  1.2543 -0.0553
  563MOL0     C74224   0.717   6.711   1.938 -1.0758 -0.2539 -0.0322
  563MOL0     C74225   0.636   6.588   1.873  0.5420 -0.4638  0.3203
  563MOL0     C74226   0.492   6.639   1.832 -0.7279  0.8195  0.1937
  563MOL0     C74227   0.485   6.653   1.682  0.1920  0.2641 -1.4781
  563MOL0    Cl74228   0.473   6.489   1.613  0.0563  0.2904  0.5025
  563MOL0     C74229   1.273   6.480   1.900 -0.4214 -0.6218  0.0962
  563MOL0     C74230   1.355   6.368   1.928  0.8106  0.0807  0.0797
  563MOL0     O74231   1.430   6.111   2.039 -0.4220 -0.3431  0.0534
  563MOL0     C74232   1.663   6.023   2.184 -0.0338  0.4613 -0.3309
  563MOL0     C74233   1.787   5.971   2.239  0.2873 -0.5837 -0.1107
  563MOL0     N74234   2.495   5.654   2.346 -0.5571  1.1737  0.1345
  563MOL0     N74235   2.571   5.635   2.244 -0.4895  0.6271 -0.2146
  563MOL0     C74236   3.319   6.229   2.695 -0.4094 -0.0608  0.9538
  563MOL0     C74237   3.458   6.240   2.712 -0.3899 -0.6547  0.3704
  563MOL0     C74238   3.866   6.444   2.818  0.2469 -0.3684 -0.5136
  563MOL0     C74239   3.939   6.355   2.737 -0.4349  0.4385 -0.1677
  563MOL0     C74240   4.082   6.342   2.736 -0.3574  0.1911  0.1314
  563MOL0     C74241   4.155   6.425   2.821 -0.2047  0.1210  0.0687
  563MOL0     O74242   4.287   6.404   2.816  0.8349  0.2220 -0.4896
  563MOL0     C74243   4.371   6.506   2.863  0.3132 -0.7430  0.5039
  563MOL0     C74244   4.512   6.481   2.807 -0.0556  0.7307 -0.2391
  563MOL0     C74245   4.602   6.602   2.823 -0.5817  0.2765 -0.0518
  563MOL0     C74246   4.755   6.581   2.799 -0.2112 -0.5997 -0.1308
  563MOL0     C74247   4.810   6.453   2.832 -0.2335  1.3520 -0.4253
  563MOL0     C74248   4.865   6.338   2.837 -0.5214 -0.4279 -1.3016
  563MOL0     C74249   4.083   6.521   2.897  0.0267  0.4115  0.0854
  563MOL0     C74250   3.938   6.533   2.890 -1.4718 -0.1195 -0.1639
  563MOL0     H74251   3.464   6.585   2.724  1.5516 -0.6474 -0.3214
  563MOL0     H74252   3.240   6.570   2.700 -0.9424 -0.4543  1.9703
  563MOL0     H74253   2.930   6.234   2.625 -0.0415 -3.3763  1.2828
  563MOL0     H74254   3.075   6.136   2.656  3.0269  0.2772 -1.1977
  563MOL0     H74255   3.184   6.197   2.467  0.7274 -1.0164 -1.0744
  563MOL0     H74256   3.056   6.310   2.414  0.1375 -0.7086 -0.2935
  563MOL0     H74257   2.903   6.093   2.420  0.8488 -4.2923 -0.4764
  563MOL0     H74258   3.050   6.002   2.429  0.5574 -0.4986 -0.3084
  563MOL0     H74259   3.010   6.198   2.190 -0.8820 -0.0478 -0.7686
  563MOL0     H74260   3.119   6.064   2.211  0.8441  1.4353 -0.2829
  563MOL0     H74261   2.946   5.996   2.065 -1.0185  0.7030 -1.1716
  563MOL0     H74262   2.817   6.064   2.166  0.6869  0.6922  2.2212
  563MOL0     H74263   2.837   5.894   2.327  1.6653  3.0196 -0.1500
  563MOL0     H74264   2.993   5.837   2.265  1.0218 -1.5969 -3.6543
  563MOL0     H74265   2.907   5.741   2.063 -1.0616 -2.0104  0.1403
  563MOL0     H74266   2.823   5.677   2.205  0.7142 -2.1801 -1.9194
  563MOL0     H74267   2.695   5.705   1.991 -1.0491 -1.7017  0.7355
  563MOL0     H74268   2.688   5.878   2.035 -1.5294 -0.9841 -1.0361
  563MOL0     H74269   2.532   5.955   2.241  0.5390  0.8532  1.0926
  563MOL0     H74270   2.442   5.937   2.518  3.2447 -2.0692  0.3170
  563MOL0     H74271   2.373   5.783   2.541  0.1535  0.0908 -0.6700
  563MOL0     H74272   2.280   5.977   2.317 -1.4436  3.6849  1.7956
  563MOL0     H74273   2.206   5.964   2.474  0.3149 -0.7311 -0.0948
  563MOL0     H74274   2.204   5.750   2.256  1.4412 -1.2880  0.6415
  563MOL0     H74275   2.168   5.719   2.432 -1.2459  0.2675  0.1096
  563MOL0     H74276   2.003   5.919   2.398 -0.7392 -0.9643  1.0650
  563MOL0     H74277   1.961   5.765   2.317 -1.2990  0.9787 -2.6212
  563MOL0     H74278   1.979   6.015   1.961  0.4998  0.1037  0.7494
  563MOL0     H74279   1.790   6.143   1.887 -0.0337  0.8408  0.2879
  563MOL0     H74280   1.629   6.466   1.769  1.4369  2.0202  0.3522
  563MOL0     H74281   1.498   6.653   1.714 -1.4686 -0.5882 -0.9093
  563MOL0     H74282   1.091   6.567   1.742  2.1904  0.5770 -1.4844
  563MOL0     H74283   1.098   6.695   1.622 -0.7704 -1.5010 -0.6438
  563MOL0     H74284   1.047   6.857   1.830  2.1701 -1.4799  2.8791
  563MOL0     H74285   1.012   6.706   1.905  1.5841  0.7819  0.5805
  563MOL0     H74286   0.842   6.659   1.710  0.5482 -0.0511 -0.8885
  563MOL0     H74287   0.855   6.826   1.652 -2.6188  0.6162  0.6087
  563MOL0     H74288   0.821   6.900   1.886  4.5054 -0.5444 -0.8022
  563MOL0     H74289   0.679   6.861   1.791  1.0142 -0.3592 -1.8968
  563MOL0     H74290   0.668   6.759   2.023  0.1050  2.5220 -0.7838
  563MOL0     H74291   0.813   6.669   1.971 -0.7670 -0.1797 -0.8073
  563MOL0     H74292   0.620   6.519   1.957  0.1147 -2.7460 -1.5165
  563MOL0     H74293   0.691   6.533   1.796  0.6610  1.0372 -0.6986
  563MOL0     H74294   0.404   6.575   1.846  0.3736 -1.4373 -2.2032
  563MOL0     H74295   0.481   6.733   1.885  1.0662  0.3378  1.5333
  563MOL0     H74296   0.564   6.709   1.631  0.3331  2.4612  0.9568
  563MOL0     H74297   0.399   6.718   1.665 -2.1299 -0.7969  4.0441
  563MOL0     H74298   1.170   6.473   1.934 -0.0452 -2.5162  1.0015
  563MOL0     H74299   1.317   6.289   1.992  2.8306 -1.3311 -0.3700
  563MOL0     H74300   1.573   5.997   2.238  2.0191 -2.3835  2.1032
  563MOL0     H74301   1.776   5.935   2.340  1.7509  1.7063  0.9584
  563MOL0     H74302   3.276   6.130   2.692  0.2862 -0.3514 -0.2131
  563MOL0     H74303   3.521   6.153   2.726  1.9295  0.8799  0.1520
  563MOL0     H74304   3.889   6.282   2.673  2.3408 -0.3516 -1.5977
  563MOL0     H74305   4.126   6.264   2.674  1.7056  1.2670  0.1382
  563MOL0     H74306   4.363   6.513   2.972 -3.7406 -3.4201  0.5876
  563MOL0     H74307   4.338   6.604   2.827  1.7892 -0.4984 -0.2612
  563MOL0     H74308   4.551   6.387   2.847 -2.5095 -0.0583  0.4496
  563MOL0     H74309   4.493   6.459   2.701  2.4116  0.1230 -0.6310
  563MOL0     H74310   4.592   6.632   2.927 -0.0253 -0.5225  0.2373
  563MOL0     H74311   4.590   6.687   2.755 -1.5292 -1.0219 -1.5886
  563MOL0     H74312   4.769   6.601   2.692  0.3236 -0.5593 -0.0569
  563MOL0     H74313   4.811   6.646   2.867 -2.2874 -0.7091  1.8047
  563MOL0     H74314   4.922   6.247   2.837  0.8332  0.3686  0.0527
  563MOL0     H74315   4.135   6.586   2.967  0.2016  1.1032 -0.6735
  563MOL0     H74316   3.887   6.605   2.953 -0.3699  2.0834 -1.6540
  564MOL0     O74317  10.956   3.389   2.471 -0.8306 -0.1670 -0.0011
  564MOL0     C74318  11.056   3.346   2.412 -0.9923 -0.0358  0.1570
  564MOL0     O74319  11.062   3.277   2.300 -0.1803 -0.1510  0.2960
  564MOL0     C74320  10.957   3.219   2.226 -0.5572  0.1723  0.2546
  564MOL0     C74321  11.001   3.120   2.134  0.9341 -0.4569  0.1958
  564MOL0     C74322  10.903   3.048   2.054 -0.0935 -0.1501 -0.6523
  564MOL0     C74323  10.761   3.068   2.075 -1.0809 -0.6243 -1.5414
  564MOL0     O74324  10.661   3.011   2.008 -0.2844 -0.2638 -0.3195
  564MOL0     C74325  10.675   2.978   1.873 -0.5782  1.1392  1.1598
  564MOL0     C74326  10.549   3.017   1.797  0.3906 -0.4365 -0.4686
  564MOL0     C74327  10.558   3.169   1.784  0.4754 -1.0305 -0.2643
  564MOL0     C74328  10.434   3.229   1.711  0.7485 -0.0585  0.0674
  564MOL0     C74329  10.313   3.228   1.812  0.3254 -0.3463  1.1349
  564MOL0     C74330  10.170   3.258   1.745 -1.0097 -0.4885  0.2839
  564MOL0     C74331  10.060   3.282   1.841  0.6691 -0.4033 -0.7828
  564MOL0     C74332  10.004   3.149   1.914  0.2160  0.4848  0.3934
  564MOL0     N74333   9.902   3.192   2.006 -0.7201  0.0985 -0.4892
  564MOL0     C74334   9.798   3.276   1.977  0.4332  0.3309 -0.5986
  564MOL0     C74335   9.717   3.257   2.081  0.3272 -0.4954 -0.6779
  564MOL0     C74336   9.590   3.328   2.102  0.5166 -0.9028  0.4742
  564MOL0     C74337   9.465   3.246   2.130  1.3574 -0.3745 -0.3626
  564MOL0     C74338   9.380   3.230   2.007  0.4660 -0.0243 -0.2754
  564MOL0     C74339   9.235   3.189   2.043 -0.3478 -0.8093 -0.2238
  564MOL0     O74340   9.180   3.282   2.143 -0.2415 -0.6790  0.4471
  564MOL0     C74341   9.045   3.273   2.182  0.1653 -0.1353  0.7434
  564MOL0     C74342   8.961   3.167   2.159  0.1531 -1.1141  0.5566
  564MOL0     C74343   8.823   3.168   2.202  0.7834 -0.5167 -0.1051
  564MOL0     C74344   8.780   3.266   2.292 -0.2270  0.1839 -0.7606
  564MOL0     C74345   8.640   3.264   2.348  0.0172 -0.7571  0.5948
  564MOL0     O74346   8.603   3.381   2.409  0.1159  0.0816  0.5356
  564MOL0     C74347   8.470   3.396   2.436 -0.0041  0.7622 -0.8907
  564MOL0     C74348   8.435   3.426   2.566 -0.9607  0.6138 -1.3361
  564MOL0     C74349   8.306   3.438   2.608  0.9588  0.9264 -0.1780
  564MOL0     C74350   8.202   3.425   2.520  0.8875  0.0196 -0.4497
  564MOL0     O74351   8.065   3.425   2.564 -0.0737  0.2524  0.4209
  564MOL0     C74352   8.039   3.445   2.700  0.3472  0.7218  1.0999
  564MOL0     C74353   7.883   3.421   2.700  0.5889 -0.2903 -1.2151
  564MOL0     C74354   7.840   3.294   2.769 -0.3449 -0.1816 -0.0811
  564MOL0     C74355   7.687   3.294   2.788 -0.1108 -1.0533  0.4019
  564MOL0     C74356   7.622   3.166   2.842  0.0390  0.5408 -0.9743
  564MOL0     C74357   7.468   3.188   2.836  0.5893  0.5041 -0.5586
  564MOL0     C74358   7.402   3.052   2.850 -0.7531  0.7022  0.7260
  564MOL0     C74359   7.422   2.958   2.968  0.9614 -0.5148  0.4047
  564MOL0    Cl74360   7.316   2.809   2.934 -0.1083  0.1300  0.3900
  564MOL0     C74361   8.232   3.408   2.387 -0.0851 -0.5320 -0.6308
  564MOL0     C74362   8.370   3.387   2.341  0.8739 -0.2378 -0.3201
  564MOL0     O74363   8.567   3.165   2.325  0.4183  0.4644 -0.1149
  564MOL0     C74364   8.870   3.370   2.327  1.3395 -0.3131 -0.2570
  564MOL0     C74365   8.997   3.369   2.265  0.3889 -0.1429  0.0820
  564MOL0     N74366   9.778   3.180   2.179  0.3214 -0.9496  0.7898
  564MOL0     N74367   9.900   3.151   2.138  0.0416  0.8426 -0.7786
  564MOL0     C74368  10.730   3.176   2.158  0.6586  0.0713  0.3818
  564MOL0     C74369  10.829   3.251   2.223  0.5450  0.2126  0.4807
  564MOL0     C74370  11.194   3.373   2.472  0.5844 -0.5435 -0.1814
  564MOL0     C74371  11.302   3.312   2.422 -0.0843  0.4598  0.0725
  564MOL0     C74372  11.433   3.344   2.468 -0.1919  1.0674  0.6159
  564MOL0     C74373  11.450   3.444   2.558  1.0406 -0.1515 -1.4220
  564MOL0     O74374  11.561   3.493   2.621 -1.0470 -0.1544 -0.7136
  564MOL0     C74375  11.687   3.424   2.611  0.4586 -0.6788 -0.1626
  564MOL0     C74376  11.760   3.432   2.743  0.1350 -0.8040 -0.2501
  564MOL0     C74377  11.903   3.385   2.725 -0.9376  0.4511  0.6083
  564MOL0     C74378  12.003   3.467   2.805  1.2123  0.4616  0.5185
  564MOL0     C74379  12.044   3.584   2.726  0.0182  0.2490  0.2740
  564MOL0     C74380  12.074   3.679   2.660 -0.4064  1.1019 -0.0813
  564MOL0     C74381  11.334   3.511   2.610  0.4016 -0.0606  0.4628
  564MOL0     C74382  11.209   3.476   2.566 -1.3338 -0.8102 -0.6558
  564MOL0     H74383  11.109   3.123   2.122  0.6969  4.4172 -4.1751
  564MOL0     H74384  10.944   2.979   1.981  0.6721 -0.0965 -0.2750
  564MOL0     H74385  10.667   2.869   1.869 -2.0929  1.2572  0.1275
  564MOL0     H74386  10.768   3.010   1.827 -0.8959  4.0069  2.2988
  564MOL0     H74387  10.455   2.990   1.845 -1.4293  2.2869 -2.1708
  564MOL0     H74388  10.532   2.982   1.695 -0.1023 -0.3532 -0.4148
  564MOL0     H74389  10.649   3.197   1.730  0.8932 -1.1442  0.3674
  564MOL0     H74390  10.554   3.228   1.875 -1.8627  2.2475 -2.2713
  564MOL0     H74391  10.456   3.330   1.676 -2.9774  0.1397 -2.2815
  564MOL0     H74392  10.411   3.166   1.625  0.0842  0.8289 -0.4241
  564MOL0     H74393  10.333   3.301   1.891  1.7076  0.5368  0.0272
  564MOL0     H74394  10.308   3.133   1.867 -3.5465 -1.9963 -1.6071
  564MOL0     H74395  10.138   3.184   1.672 -0.2442 -2.7956  2.1742
  564MOL0     H74396  10.181   3.354   1.693  0.8553 -0.4297  0.7188
  564MOL0     H74397  10.088   3.355   1.917  0.9276 -3.4536  2.2875
  564MOL0     H74398   9.976   3.330   1.790 -1.1724 -1.5784  0.9949
  564MOL0     H74399  10.081   3.095   1.969  1.3546  1.3439 -0.3060
  564MOL0     H74400   9.957   3.084   1.839 -0.1699 -2.1829  2.7617
  564MOL0     H74401   9.770   3.332   1.888 -1.5779  0.9108  0.3404
  564MOL0     H74402   9.575   3.394   2.016 -0.6826 -2.5630 -0.6694
  564MOL0     H74403   9.599   3.386   2.194  2.1323 -0.3834  0.0100
  564MOL0     H74404   9.400   3.297   2.202 -0.8930  1.3090 -3.3391
  564MOL0     H74405   9.489   3.147   2.171 -1.4519 -0.4249  1.4926
  564MOL0     H74406   9.378   3.322   1.947  2.5389  1.1483  1.3203
  564MOL0     H74407   9.429   3.147   1.956 -2.6837 -2.6419  0.6160
  564MOL0     H74408   9.232   3.088   2.084 -0.1807 -0.9403 -0.5242
  564MOL0     H74409   9.175   3.169   1.954 -2.0326 -4.7644  1.5709
  564MOL0     H74410   8.992   3.079   2.103  1.4002  0.0779 -0.7093
  564MOL0     H74411   8.759   3.082   2.184 -0.9033  0.8208 -0.6692
  564MOL0     H74412   8.514   3.454   2.635 -0.7714  0.1826 -1.3740
  564MOL0     H74413   8.294   3.461   2.714 -1.8299 -2.6114  0.4647
  564MOL0     H74414   8.062   3.549   2.726  1.5035  0.3920  1.4432
  564MOL0     H74415   8.086   3.370   2.764 -2.6823 -3.4370 -1.0827
  564MOL0     H74416   7.833   3.411   2.602 -0.7264  0.0172 -0.6002
  564MOL0     H74417   7.842   3.505   2.756  1.9770 -2.2005  3.0203
  564MOL0     H74418   7.893   3.286   2.864  2.1023  0.4496 -1.3037
  564MOL0     H74419   7.857   3.218   2.692 -2.0053  0.0053 -0.6725
  564MOL0     H74420   7.659   3.385   2.842 -0.4134  0.3576 -1.9834
  564MOL0     H74421   7.652   3.316   2.687 -1.8017  3.5289  1.7151
  564MOL0     H74422   7.651   3.143   2.944  0.1016 -0.1494 -1.1444
  564MOL0     H74423   7.658   3.084   2.779  2.5573  0.0241  1.0262
  564MOL0     H74424   7.439   3.234   2.741  2.2169 -1.2284 -1.9643
  564MOL0     H74425   7.447   3.251   2.923 -1.1114 -0.0373 -0.5355
  564MOL0     H74426   7.294   3.062   2.834 -0.3224  0.3144 -3.3966
  564MOL0     H74427   7.435   2.998   2.761 -2.9356  0.9693 -0.3056
  564MOL0     H74428   7.395   3.017   3.056 -2.6434  0.0406 -0.8954
  564MOL0     H74429   7.526   2.927   2.979  1.4111  0.2667 -1.2559
  564MOL0     H74430   8.162   3.393   2.306 -1.1892  0.6055  0.0719
  564MOL0     H74431   8.386   3.366   2.236  2.6871  1.0367 -0.3279
  564MOL0     H74432   8.837   3.451   2.391  3.6337  2.1340 -1.9437
  564MOL0     H74433   9.053   3.461   2.274 -0.0329  0.0222  1.1998
  564MOL0     H74434  10.627   3.206   2.169  1.0230  1.6419 -0.1973
  564MOL0     H74435  10.793   3.336   2.281 -1.3944 -1.2001  1.4582
  564MOL0     H74436  11.280   3.236   2.348 -5.2263  0.9670  0.7246
  564MOL0     H74437  11.515   3.301   2.411 -0.6158 -0.7448  1.3233
  564MOL0     H74438  11.747   3.467   2.530  0.0247  1.3703  0.5319
  564MOL0     H74439  11.678   3.320   2.577  0.3974 -1.1139  1.1509
  564MOL0     H74440  11.778   3.538   2.762  1.1461 -0.7291 -1.5373
  564MOL0     H74441  11.690   3.382   2.811 -1.1891 -1.2051 -1.8508
  564MOL0     H74442  11.941   3.388   2.622  1.8560 -1.5582  1.4676
  564MOL0     H74443  11.909   3.281   2.756 -0.6141 -0.8783 -3.3188
  564MOL0     H74444  11.974   3.502   2.905 -0.1041 -0.6729  0.5534
  564MOL0     H74445  12.094   3.406   2.807  1.1228  0.1708 -1.7063
  564MOL0     H74446  12.104   3.765   2.604 -2.3724  1.7083 -0.2634
  564MOL0     H74447  11.355   3.595   2.675  1.2846  1.9780 -2.2797
  564MOL0     H74448  11.133   3.548   2.595  0.0880  0.2666  0.5148
  565MOL0     O74449   9.023   1.100   9.701 -0.2590 -0.0079  0.0766
  565MOL0     C74450   9.044   1.003   9.777  1.1691  0.3189  0.1894
  565MOL0     O74451   8.951   0.949   9.867  0.1511  0.0586 -0.4356
  565MOL0     C74452   8.825   0.956   9.816 -0.3165  0.4259  0.1862
  565MOL0     C74453   8.789   0.878   9.704  0.0081 -1.3521  0.1997
  565MOL0     C74454   8.659   0.891   9.654  0.2335  0.6811 -0.5969
  565MOL0     C74455   8.575   0.999   9.697 -0.5645  0.0876 -0.2244
  565MOL0     O74456   8.445   1.012   9.650 -0.1282  0.4569 -0.4226
  565MOL0     C74457   8.395   0.905   9.565 -0.0503  0.8793 -0.7681
  565MOL0     C74458   8.254   0.948   9.518  0.2818 -0.2829  0.5176
  565MOL0     C74459   8.272   1.041   9.393 -0.1090 -0.4345 -0.3381
  565MOL0     C74460   8.322   1.180   9.440  0.0406 -1.2239  0.7486
  565MOL0     C74461   8.291   1.298   9.340  0.1249  1.6819  0.2642
  565MOL0     C74462   8.149   1.361   9.355  0.0618 -0.4433  0.5216
  565MOL0     C74463   8.107   1.476   9.247  0.2492 -0.6809 -0.2772
  565MOL0     C74464   8.049   1.421   9.112  0.1409  1.0232  0.4384
  565MOL0     N74465   7.939   1.320   9.121 -0.4324 -0.6653 -0.5580
  565MOL0     C74466   7.834   1.340   9.203  0.1292 -0.4695 -0.4178
  565MOL0     C74467   7.726   1.266   9.159  0.4051 -0.2195  0.1614
  565MOL0     C74468   7.598   1.261   9.241  0.3328  0.4065  0.5014
  565MOL0     C74469   7.464   1.279   9.165  0.6842  0.0299  1.0286
  565MOL0     C74470   7.398   1.140   9.125 -0.0349 -0.8740  0.0618
  565MOL0     C74471   7.272   1.149   9.039  0.1868 -0.4641  0.0537
  565MOL0     O74472   7.224   1.016   8.996  0.1629 -0.8951  0.3434
  565MOL0     C74473   7.090   1.001   8.963  0.3926 -1.0201  0.5850
  565MOL0     C74474   7.003   1.114   8.925 -0.3997 -0.0428  0.3430
  565MOL0     C74475   6.883   1.094   8.871 -0.0114  0.0260  0.1500
  565MOL0     C74476   6.838   0.965   8.844 -1.1972 -0.0679  0.1522
  565MOL0     C74477   6.708   0.948   8.775 -0.8354 -1.1759 -1.1979
  565MOL0     O74478   6.638   1.065   8.741 -0.5548  0.1364 -0.7706
  565MOL0     C74479   6.509   1.055   8.691  0.2475 -0.6165 -1.0852
  565MOL0     C74480   6.412   0.965   8.748  0.1511  0.1754 -1.1380
  565MOL0     C74481   6.282   0.975   8.707  0.1734 -0.3254 -1.1003
  565MOL0     C74482   6.243   1.069   8.608 -0.4087  0.1911  0.9639
  565MOL0     O74483   6.107   1.085   8.570  0.1877  0.5308 -0.1893
  565MOL0     C74484   6.069   1.006   8.461  0.5566  0.1335 -0.6655
  565MOL0     C74485   6.004   0.889   8.527  0.8993  0.7140  0.0198
  565MOL0     C74486   5.866   0.922   8.588 -0.2513 -0.0007 -0.8992
  565MOL0     C74487   5.796   0.806   8.639 -0.3308  0.8925 -1.3618
  565MOL0     C74488   5.654   0.839   8.682 -0.5467 -0.1958 -1.3332
  565MOL0     C74489   5.572   0.727   8.733  0.2331 -0.4504 -0.7004
  565MOL0     C74490   5.427   0.771   8.752  0.6008 -0.0458 -0.0586
  565MOL0     C74491   5.348   0.650   8.802 -0.0537  0.5935  0.0108
  565MOL0    Cl74492   5.169   0.671   8.793  0.6299 -0.3901 -0.0822
  565MOL0     C74493   6.332   1.155   8.548 -0.6176  0.1348  1.0434
  565MOL0     C74494   6.472   1.146   8.590 -0.7105  0.2606 -0.5700
  565MOL0     O74495   6.680   0.833   8.740  0.2437  0.0763  0.1577
  565MOL0     C74496   6.917   0.861   8.872 -0.3404  1.1408  0.3746
  565MOL0     C74497   7.036   0.878   8.945  0.5144 -0.2633  0.5029
  565MOL0     N74498   7.762   1.184   9.052  0.3469 -0.9970  0.4945
  565MOL0     N74499   7.893   1.221   9.034  0.2559 -0.2465  0.6104
  565MOL0     C74500   8.616   1.079   9.811  0.6596  0.0604  0.8542
  565MOL0     C74501   8.739   1.059   9.862 -0.1948 -0.2965  0.6750
  565MOL0     C74502   9.178   0.965   9.792  0.2054 -0.6761 -0.6015
  565MOL0     C74503   9.287   1.025   9.728 -1.1090  0.4554 -0.4651
  565MOL0     C74504   9.421   0.986   9.744  0.2948  0.4183  1.0734
  565MOL0     C74505   9.448   0.869   9.817 -0.0236 -0.2467 -0.6696
  565MOL0     O74506   9.570   0.801   9.816  0.1945 -0.2510 -0.2965
  565MOL0     C74507   9.673   0.854   9.741 -0.1370 -0.7194 -0.4705
  565MOL0     C74508   9.806   0.794   9.773  0.7075 -0.4654  0.8595
  565MOL0     C74509   9.909   0.828   9.673 -0.3840 -0.0606  0.2844
  565MOL0     C74510   9.940   0.973   9.648 -0.2815 -0.5246 -0.1748
  565MOL0     C74511   9.850   1.047   9.551 -0.9085  0.1108  0.9764
  565MOL0     C74512   9.772   1.107   9.477  0.0118 -0.2121 -0.2860
  565MOL0     C74513   9.348   0.801   9.883 -0.1319 -0.3498  0.4993
  565MOL0     C74514   9.213   0.851   9.875  0.4431  0.5162 -0.5870
  565MOL0     H74515   8.850   0.797   9.666 -1.1654 -2.3291  0.3382
  565MOL0     H74516   8.634   0.829   9.569 -1.5019  1.5974 -0.7997
  565MOL0     H74517   8.391   0.818   9.632 -1.8032  0.7525 -0.9917
  565MOL0     H74518   8.455   0.883   9.477 -3.8430 -0.5408 -3.2104
  565MOL0     H74519   8.194   0.986   9.601  0.4639 -2.1695  1.5746
  565MOL0     H74520   8.206   0.853   9.490  0.3608  0.2524 -1.6079
  565MOL0     H74521   8.175   1.045   9.343 -1.7990  0.7523  2.7288
  565MOL0     H74522   8.327   0.975   9.326 -0.1815  1.0296 -1.9009
  565MOL0     H74523   8.282   1.198   9.541  1.3234 -0.2863  1.1098
  565MOL0     H74524   8.430   1.178   9.454  0.1999 -0.7246 -0.3268
  565MOL0     H74525   8.303   1.252   9.241  2.0964  0.0994  1.1611
  565MOL0     H74526   8.371   1.372   9.347  0.9894  0.9705 -1.5177
  565MOL0     H74527   8.157   1.427   9.442  0.7660  2.7902 -1.7906
  565MOL0     H74528   8.074   1.282   9.359 -1.3840  0.6091 -2.6463
  565MOL0     H74529   8.024   1.536   9.285  2.1699  0.6515  2.1101
  565MOL0     H74530   8.194   1.541   9.232 -0.6970  0.6075 -0.3365
  565MOL0     H74531   8.140   1.381   9.065 -0.0459  2.3334 -1.1052
  565MOL0     H74532   8.015   1.506   9.052  1.1504  1.1499  0.0144
  565MOL0     H74533   7.830   1.392   9.298  0.7269  0.6705 -1.0005
  565MOL0     H74534   7.594   1.338   9.319  0.8432  1.7842 -0.7722
  565MOL0     H74535   7.600   1.166   9.294 -0.2484  0.9030  1.4341
  565MOL0     H74536   7.479   1.333   9.071 -0.2255  0.2512  1.0042
  565MOL0     H74537   7.404   1.342   9.232 -1.1114 -1.0733  0.5380
  565MOL0     H74538   7.474   1.084   9.070  3.1211  0.0084  3.1749
  565MOL0     H74539   7.377   1.072   9.209 -1.1407  0.6845  1.1037
  565MOL0     H74540   7.295   1.209   8.951 -0.8089 -0.6239 -0.3272
  565MOL0     H74541   7.195   1.196   9.101 -0.2452 -0.3747 -0.5410
  565MOL0     H74542   7.031   1.218   8.928 -2.9312  0.7959 -1.7633
  565MOL0     H74543   6.829   1.180   8.832  0.9336 -1.6453 -5.7697
  565MOL0     H74544   6.441   0.900   8.830 -1.7554  0.4844 -0.1665
  565MOL0     H74545   6.209   0.906   8.747 -2.1521  0.6138 -3.4163
  565MOL0     H74546   6.157   0.976   8.404  1.9278  2.7265 -0.0854
  565MOL0     H74547   5.997   1.059   8.397  0.6544  1.4925  0.2990
  565MOL0     H74548   6.076   0.848   8.598  3.0724  1.7642 -1.4656
  565MOL0     H74549   5.981   0.815   8.449  0.6165 -1.9147  2.4262
  565MOL0     H74550   5.805   0.969   8.510  0.4214 -2.0037 -2.7206
  565MOL0     H74551   5.882   0.979   8.680 -2.6453 -4.2233  2.5259
  565MOL0     H74552   5.777   0.727   8.567  1.8413 -3.3339  2.2351
  565MOL0     H74553   5.850   0.768   8.726 -0.7580 -2.4315 -2.4467
  565MOL0     H74554   5.605   0.875   8.591  1.0252  4.2388 -0.6930
  565MOL0     H74555   5.651   0.923   8.752  0.2191  0.0815 -1.6105
  565MOL0     H74556   5.614   0.690   8.827 -0.1978  0.6648 -0.0559
  565MOL0     H74557   5.581   0.642   8.665 -1.6325 -1.9459  0.7800
  565MOL0     H74558   5.418   0.854   8.824 -2.2181  0.8883 -1.3736
  565MOL0     H74559   5.392   0.796   8.652  2.1536 -2.2537 -1.2299
  565MOL0     H74560   5.380   0.634   8.905 -1.4449  0.3407  0.4293
  565MOL0     H74561   5.377   0.562   8.745  2.7033  1.2017  0.3344
  565MOL0     H74562   6.304   1.228   8.473 -1.2370  1.3828  2.4276
  565MOL0     H74563   6.541   1.221   8.552  1.0059 -1.3208 -0.7268
  565MOL0     H74564   6.883   0.760   8.855  0.5267  0.6550  1.4114
  565MOL0     H74565   7.096   0.800   8.991  1.2070  1.3425  2.4870
  565MOL0     H74566   8.552   1.149   9.863  0.2293 -0.8583  1.5897
  565MOL0     H74567   8.770   1.112   9.952  1.5482  0.2162 -0.1858
  565MOL0     H74568   9.272   1.111   9.664  0.2901  2.7057  2.0149
  565MOL0     H74569   9.504   1.034   9.694  1.0673 -1.5646  0.3796
  565MOL0     H74570   9.685   0.961   9.758  4.0494 -1.1138  0.1660
  565MOL0     H74571   9.653   0.840   9.634  0.8920 -2.2383 -0.4974
  565MOL0     H74572   9.842   0.819   9.873  0.6071 -0.7397  0.9649
  565MOL0     H74573   9.792   0.685   9.775 -0.6655 -0.2967  1.5395
  565MOL0     H74574   9.889   0.761   9.589  0.9536 -3.1067  2.2018
  565MOL0     H74575  10.002   0.786   9.713  1.1844  1.0803 -1.9753
  565MOL0     H74576   9.950   1.013   9.749 -0.2424  0.8114 -0.6963
  565MOL0     H74577  10.042   0.985   9.613 -0.9917  2.0195 -1.6186
  565MOL0     H74578   9.712   1.164   9.409  2.4002  2.3645 -0.3897
  565MOL0     H74579   9.376   0.705   9.927  1.5691 -0.6198 -1.0385
  565MOL0     H74580   9.128   0.800   9.920  0.7742 -1.0084 -1.5948
  566MOL0     O74581   1.495   6.461   6.075  0.7870 -0.3865 -0.0588
  566MOL0     C74582   1.447   6.529   5.982  0.2030 -0.6389  0.6859
  566MOL0     O74583   1.522   6.599   5.891  0.1889  0.2909  0.0293
  566MOL0     C74584   1.651   6.636   5.914 -1.1322  0.6056 -0.3112
  566MOL0     C74585   1.715   6.653   6.039 -0.2910 -0.8122 -0.2011
  566MOL0     C74586   1.841   6.710   6.043  1.0192 -0.1059  0.0400
  566MOL0     C74587   1.914   6.733   5.926 -0.8120  0.5688  0.4286
  566MOL0     O74588   2.038   6.787   5.930  0.1332  0.8060 -0.6335
  566MOL0     C74589   2.130   6.766   5.824  0.1022  0.4414 -0.2340
  566MOL0     C74590   2.267   6.823   5.875 -0.5374  0.0443 -0.2424
  566MOL0     C74591   2.302   6.780   6.015  0.4600 -0.9908 -0.5513
  566MOL0     C74592   2.430   6.840   6.068 -1.1722 -0.7111 -0.6830
  566MOL0     C74593   2.462   6.798   6.212  0.0646  0.0667 -0.5657
  566MOL0     C74594   2.588   6.870   6.257 -0.3862 -1.3074  0.2180
  566MOL0     C74595   2.648   6.806   6.383  0.8077 -0.0643 -0.1043
  566MOL0     C74596   2.565   6.832   6.511 -0.4630 -0.2083 -0.1589
  566MOL0     N74597   2.646   6.812   6.631  0.1472  0.7586 -0.2786
  566MOL0     C74598   2.654   6.690   6.688 -0.1170  0.4267 -0.4418
  566MOL0     C74599   2.731   6.715   6.803 -0.1749  0.2092  1.0304
  566MOL0     C74600   2.776   6.616   6.900 -0.3608 -0.1087 -0.6783
  566MOL0     C74601   2.871   6.678   7.009  0.3338  0.8518 -0.1039
  566MOL0     C74602   2.792   6.747   7.127 -0.7482 -0.2173  0.7231
  566MOL0     C74603   2.889   6.818   7.229 -0.6855 -0.4835 -0.5248
  566MOL0     O74604   2.956   6.918   7.157 -0.0371 -0.1361  0.0888
  566MOL0     C74605   3.081   6.926   7.194 -0.6262 -0.4756 -0.5540
  566MOL0     C74606   3.115   6.996   7.311  0.4510  0.1697  1.1809
  566MOL0     C74607   3.247   7.016   7.352  0.6476 -0.4100 -0.9405
  566MOL0     C74608   3.356   6.963   7.278  0.6420  1.2119 -0.6083
  566MOL0     C74609   3.493   6.971   7.327 -0.0868  0.4396  0.3516
  566MOL0     O74610   3.584   6.925   7.236  0.1236  1.0776  0.3238
  566MOL0     C74611   3.711   6.871   7.265  0.2636  0.9278  0.4619
  566MOL0     C74612   3.796   6.856   7.151  0.3795  0.7621 -0.1778
  566MOL0     C74613   3.926   6.799   7.157  0.2713  0.5656 -0.6109
  566MOL0     C74614   3.968   6.765   7.293 -0.9796  0.4753 -0.5048
  566MOL0     O74615   4.101   6.721   7.318  0.2053 -0.7473 -0.6724
  566MOL0     C74616   4.202   6.755   7.222 -0.2406  0.9264  0.4052
  566MOL0     C74617   4.337   6.801   7.292 -0.0214 -0.0340 -0.7629
  566MOL0     C74618   4.477   6.805   7.217  0.3133 -0.0262  0.3832
  566MOL0     C74619   4.583   6.806   7.328 -0.2666  0.9253 -0.9227
  566MOL0     C74620   4.710   6.854   7.266  0.2428 -0.6112 -0.0129
  566MOL0     C74621   4.827   6.816   7.360 -0.1029 -0.8881  0.0448
  566MOL0     C74622   4.967   6.864   7.324 -0.3772  0.1217 -0.2313
  566MOL0     C74623   5.038   6.783   7.210  0.0371 -0.4287  0.0920
  566MOL0    Cl74624   5.213   6.830   7.213  0.1215 -0.0175  0.4085
  566MOL0     C74625   3.889   6.788   7.403 -0.0745  0.2999 -0.4052
  566MOL0     C74626   3.758   6.835   7.389 -0.2215  0.2853 -0.2018
  566MOL0     O74627   3.522   6.989   7.448 -0.8864 -0.1201 -0.0705
  566MOL0     C74628   3.314   6.893   7.160 -0.5097  1.1991 -0.1271
  566MOL0     C74629   3.184   6.883   7.117  0.4632 -0.2573 -0.6291
  566MOL0     N74630   2.763   6.846   6.798  0.1863  0.1097  0.2074
  566MOL0     N74631   2.707   6.906   6.701 -0.3450 -0.9719  0.6356
  566MOL0     C74632   1.843   6.718   5.803 -1.1921 -0.6523  0.3640
  566MOL0     C74633   1.721   6.662   5.794 -0.0344  0.5727 -0.6277
  566MOL0     C74634   1.299   6.524   5.958 -0.4742 -0.2833 -0.7763
  566MOL0     C74635   1.213   6.488   6.058 -1.0127  0.5738 -0.2225
  566MOL0     C74636   1.077   6.488   6.044 -0.0314  0.4682  0.2745
  566MOL0     C74637   1.029   6.528   5.920 -0.2410  0.3063 -0.1102
  566MOL0     O74638   0.899   6.521   5.894 -0.5791 -0.0626  0.0444
  566MOL0     C74639   0.829   6.609   5.807  0.4083 -0.2174 -0.1294
  566MOL0     C74640   0.832   6.754   5.856 -0.3059 -0.3091 -1.3739
  566MOL0     C74641   0.690   6.810   5.907 -0.2863  0.2146 -0.4759
  566MOL0     C74642   0.642   6.745   6.040  0.1005 -0.8609 -0.3556
  566MOL0     C74643   0.728   6.788   6.154  0.1770  0.1833  0.0769
  566MOL0     C74644   0.786   6.830   6.245 -1.0197 -0.0712  0.3062
  566MOL0     C74645   1.113   6.547   5.815  0.2142  0.0029 -0.3443
  566MOL0     C74646   1.252   6.555   5.834  0.4218  0.1512 -0.1507
  566MOL0     H74647   1.661   6.633   6.131 -2.4562  0.4686 -1.1405
  566MOL0     H74648   1.879   6.738   6.141  3.3752 -0.0549 -0.8326
  566MOL0     H74649   2.103   6.811   5.728  0.0485  0.9638  0.0217
  566MOL0     H74650   2.144   6.661   5.797  0.9593  0.5590 -0.2763
  566MOL0     H74651   2.282   6.932   5.870  0.7183 -0.0875  0.3283
  566MOL0     H74652   2.348   6.788   5.811  1.7477  2.2656  1.2636
  566MOL0     H74653   2.318   6.671   6.022 -1.2870 -1.1498  2.8279
  566MOL0     H74654   2.234   6.804   6.097  0.9999  0.8690 -0.6177
  566MOL0     H74655   2.514   6.819   6.002 -0.0326  0.9254  0.1912
  566MOL0     H74656   2.436   6.949   6.062  2.2054 -0.8704 -2.4692
  566MOL0     H74657   2.474   6.689   6.215 -1.3184 -0.1192  3.3472
  566MOL0     H74658   2.377   6.827   6.274 -0.6695  0.9922 -1.9302
  566MOL0     H74659   2.573   6.978   6.272 -0.4378 -1.1897 -0.6311
  566MOL0     H74660   2.658   6.845   6.177  0.2601 -4.8752  1.7184
  566MOL0     H74661   2.642   6.697   6.377 -0.4888 -0.0116  0.0360
  566MOL0     H74662   2.752   6.838   6.398  0.8660 -0.3471  0.1095
  566MOL0     H74663   2.478   6.766   6.503  1.5283 -3.1601  0.7743
  566MOL0     H74664   2.548   6.940   6.507  2.9110  0.4181 -1.7253
  566MOL0     H74665   2.593   6.603   6.666 -2.4988  2.5472 -2.8706
  566MOL0     H74666   2.812   6.526   6.850 -2.9542 -0.4202 -2.1900
  566MOL0     H74667   2.694   6.575   6.960  0.0584 -0.7044 -0.5082
  566MOL0     H74668   2.936   6.744   6.950  0.7749 -1.3266 -2.2592
  566MOL0     H74669   2.921   6.587   7.044 -0.0711  0.9296  0.6826
  566MOL0     H74670   2.734   6.819   7.069 -0.9594 -1.4998 -0.7526
  566MOL0     H74671   2.721   6.678   7.176 -2.3890 -0.8334 -2.2618
  566MOL0     H74672   2.957   6.743   7.271  1.6403  1.9933  0.3948
  566MOL0     H74673   2.829   6.862   7.309 -1.1425 -2.0216  0.0165
  566MOL0     H74674   3.045   7.045   7.379  0.3825 -0.1797  1.3617
  566MOL0     H74675   3.255   7.067   7.448 -1.5155  0.3840 -1.1313
  566MOL0     H74676   3.747   6.885   7.059 -1.1442 -2.3956 -0.5013
  566MOL0     H74677   3.982   6.777   7.067 -0.2780 -0.1359 -0.7910
  566MOL0     H74678   4.168   6.846   7.171 -0.3655  1.1446  0.8731
  566MOL0     H74679   4.218   6.690   7.135 -0.8033  1.8473 -0.4184
  566MOL0     H74680   4.350   6.746   7.386 -0.7576 -1.4380 -1.4396
  566MOL0     H74681   4.312   6.904   7.319  1.8094  0.2459 -0.0047
  566MOL0     H74682   4.484   6.895   7.156  0.8662 -1.2821 -1.5017
  566MOL0     H74683   4.512   6.722   7.154  1.7160  0.2391  0.7685
  566MOL0     H74684   4.558   6.878   7.406 -0.5229  0.4769 -0.5874
  566MOL0     H74685   4.597   6.706   7.371 -0.5850  0.6146 -1.5289
  566MOL0     H74686   4.702   6.962   7.252  1.9459 -0.5002 -0.3386
  566MOL0     H74687   4.728   6.806   7.170  0.9158  2.7083 -1.6875
  566MOL0     H74688   4.826   6.708   7.374  1.2433 -0.8190  0.9549
  566MOL0     H74689   4.804   6.865   7.456  0.9915  2.6613 -1.3161
  566MOL0     H74690   4.969   6.973   7.316  1.5946  0.3802  2.5048
  566MOL0     H74691   5.028   6.848   7.413  1.9628  1.0682 -1.5790
  566MOL0     H74692   4.993   6.824   7.118 -0.2590 -1.6167 -0.3226
  566MOL0     H74693   5.021   6.675   7.223  0.0798 -0.8328 -2.5940
  566MOL0     H74694   3.930   6.772   7.501 -0.7046  0.2694 -0.1400
  566MOL0     H74695   3.706   6.839   7.484  0.2309  1.5511  0.0146
  566MOL0     H74696   3.380   6.836   7.096 -1.5907 -0.4378  0.1526
  566MOL0     H74697   3.164   6.834   7.022  0.9139  0.7213 -1.2566
  566MOL0     H74698   1.897   6.735   5.710 -2.1069 -2.8426 -0.6324
  566MOL0     H74699   1.671   6.637   5.701  1.3432  1.5091 -1.6734
  566MOL0     H74700   1.240   6.473   6.162 -2.4681 -0.5186  0.0464
  566MOL0     H74701   1.005   6.470   6.123  0.3083  1.8310  0.9222
  566MOL0     H74702   0.721   6.588   5.814 -0.0866  1.5737 -1.6937
  566MOL0     H74703   0.853   6.599   5.701 -2.4332 -1.5199 -0.7502
  566MOL0     H74704   0.901   6.759   5.941 -0.3083  1.3529 -1.4418
  566MOL0     H74705   0.880   6.806   5.772  1.0962 -0.9472 -1.0066
  566MOL0     H74706   0.616   6.794   5.828 -0.1902  1.3355 -0.8140
  566MOL0     H74707   0.707   6.917   5.921 -2.5308  0.2831  3.3723
  566MOL0     H74708   0.541   6.786   6.053 -0.5749 -1.2230 -3.6292
  566MOL0     H74709   0.637   6.636   6.038 -2.2844 -0.7915 -1.6348
  566MOL0     H74710   0.832   6.884   6.326  1.0802  1.7042 -1.9198
  566MOL0     H74711   1.068   6.567   5.718  1.2360  2.2958 -0.3994
  566MOL0     H74712   1.320   6.578   5.753 -0.1370  1.9452 -0.1419
  567MOL0     O74713   6.383   5.087   7.160 -0.7249  0.1808  0.0869
  567MOL0     C74714   6.315   5.064   7.267 -0.5721 -0.4015  0.3987
  567MOL0     O74715   6.365   4.991   7.369 -0.5832  0.5712 -0.5970
  567MOL0     C74716   6.497   4.956   7.386  0.2737  0.3584  1.5877
  567MOL0     C74717   6.602   5.044   7.365 -1.0250 -0.7578  0.1325
  567MOL0     C74718   6.729   4.998   7.364  0.4171 -0.1444  0.3954
  567MOL0     C74719   6.758   4.861   7.401  0.6559 -0.0004  0.3500
  567MOL0     O74720   6.878   4.807   7.417  0.7954 -0.1364 -0.0662
  567MOL0     C74721   6.990   4.894   7.427 -0.3406  0.1794 -0.1802
  567MOL0     C74722   7.116   4.815   7.455  0.7931  0.7987 -0.1318
  567MOL0     C74723   7.217   4.913   7.523  0.2560  0.4345  0.9981
  567MOL0     C74724   7.363   4.848   7.560  0.2577 -0.2833 -0.3852
  567MOL0     C74725   7.470   4.956   7.579 -0.2809 -0.0536  0.2799
  567MOL0     C74726   7.436   5.069   7.679  0.5044 -0.2520 -0.8700
  567MOL0     C74727   7.542   5.172   7.695  0.4396  0.5792  0.6726
  567MOL0     C74728   7.482   5.312   7.733 -0.1670 -0.3400 -0.8187
  567MOL0     N74729   7.421   5.327   7.867 -0.4355 -0.0816  0.0148
  567MOL0     C74730   7.476   5.272   7.980 -0.1878  0.2716 -0.0282
  567MOL0     C74731   7.394   5.301   8.081 -0.5780  0.1863 -0.3407
  567MOL0     C74732   7.422   5.254   8.220 -1.2384  0.7084 -0.1907
  567MOL0     C74733   7.513   5.346   8.302  0.6734  0.1196  0.3759
  567MOL0     C74734   7.463   5.487   8.343 -0.4888 -0.6273  0.2367
  567MOL0     C74735   7.340   5.491   8.432 -0.1992  0.0385 -0.7008
  567MOL0     O74736   7.377   5.423   8.559 -0.0053  0.4532 -0.8417
  567MOL0     C74737   7.277   5.411   8.649  1.1371  0.2966 -0.5843
  567MOL0     C74738   7.148   5.466   8.644 -0.9994  0.0532 -0.0973
  567MOL0     C74739   7.065   5.438   8.751  0.6209 -1.0485  0.0774
  567MOL0     C74740   7.085   5.348   8.862 -0.2258 -0.0056 -0.7365
  567MOL0     C74741   6.974   5.317   8.959 -0.0526  0.8386  0.0732
  567MOL0     O74742   6.851   5.372   8.943 -0.3214  1.0180 -0.2704
  567MOL0     C74743   6.758   5.385   9.041 -0.0847 -0.3817 -0.6686
  567MOL0     C74744   6.644   5.458   9.005  0.5511  0.4185 -0.4599
  567MOL0     C74745   6.536   5.463   9.092 -0.1494  0.5953  0.3033
  567MOL0     C74746   6.544   5.437   9.234 -0.8887 -0.1424 -0.8095
  567MOL0     O74747   6.444   5.476   9.323  0.6588 -0.2253 -0.5173
  567MOL0     C74748   6.301   5.463   9.284 -0.2394  0.4009  1.1605
  567MOL0     C74749   6.232   5.412   9.409  0.3955  0.3544  0.2635
  567MOL0     C74750   6.083   5.421   9.377 -0.1656  0.2879 -0.0643
  567MOL0     C74751   6.003   5.378   9.502 -0.0926  0.8106  0.4491
  567MOL0     C74752   5.859   5.426   9.491 -0.2493 -0.0116 -0.0029
  567MOL0     C74753   5.771   5.362   9.600  0.2354  0.0149 -0.2044
  567MOL0     C74754   5.631   5.426   9.624 -0.1255  0.5869  0.3933
  567MOL0     C74755   5.585   5.351   9.754  0.2951 -0.7440 -0.8236
  567MOL0    Cl74756   5.401   5.372   9.783  0.4137  0.1187  0.2359
  567MOL0     C74757   6.663   5.380   9.272  0.2838  0.3927  0.4256
  567MOL0     C74758   6.768   5.350   9.177 -0.3012 -0.0220  0.1885
  567MOL0     O74759   7.000   5.219   9.029 -0.0978 -0.1585  0.4387
  567MOL0     C74760   7.209   5.285   8.865 -0.6485 -0.2547  0.7977
  567MOL0     C74761   7.297   5.319   8.761 -0.8848  0.5832  0.4369
  567MOL0     N74762   7.283   5.368   8.040 -0.3070 -0.5406 -0.0037
  567MOL0     N74763   7.300   5.383   7.908 -0.6185 -0.7373 -1.2742
  567MOL0     C74764   6.651   4.772   7.413 -0.0414 -0.1632  0.3107
  567MOL0     C74765   6.521   4.824   7.407 -0.1038  0.2350 -0.0160
  567MOL0     C74766   6.180   5.096   7.262  0.8269 -0.5153  0.3176
  567MOL0     C74767   6.104   5.106   7.378  0.5042 -0.1218 -0.8584
  567MOL0     C74768   5.981   5.172   7.388  0.8008  0.0283  0.1472
  567MOL0     C74769   5.915   5.213   7.270  0.1725 -0.0372  1.1324
  567MOL0     O74770   5.795   5.276   7.252 -0.0312 -0.0592 -0.0589
  567MOL0     C74771   5.694   5.234   7.344  0.8153  0.1732  0.0407
  567MOL0     C74772   5.665   5.357   7.429 -0.2659  0.6023 -0.8524
  567MOL0     C74773   5.553   5.320   7.528 -0.3690 -0.7312 -0.1697
  567MOL0     C74774   5.431   5.259   7.479  0.6154 -0.6172  0.3676
  567MOL0     C74775   5.345   5.356   7.400 -0.0347  0.8048 -0.2721
  567MOL0     C74776   5.272   5.431   7.340  0.0134  0.3067  0.5993
  567MOL0     C74777   5.986   5.193   7.151 -1.6324  0.0773 -0.8204
  567MOL0     C74778   6.115   5.142   7.140 -0.6830 -0.0354 -0.1140
  567MOL0     H74779   6.589   5.148   7.338  0.3999 -0.4675  0.5321
  567MOL0     H74780   6.812   5.063   7.340  0.8936 -1.6467 -2.3401
  567MOL0     H74781   6.973   4.962   7.511 -1.5821  1.9083 -1.7435
  567MOL0     H74782   6.997   4.957   7.338 -1.4513  0.7657  0.1343
  567MOL0     H74783   7.158   4.757   7.372 -0.3921  0.5273 -0.5687
  567MOL0     H74784   7.089   4.738   7.528 -1.1567  0.7923 -0.7818
  567MOL0     H74785   7.176   4.956   7.615  1.5019  2.4205  0.6834
  567MOL0     H74786   7.244   5.001   7.464 -0.1791  0.0598  0.2351
  567MOL0     H74787   7.353   4.781   7.646  1.0239 -1.9332 -1.5200
  567MOL0     H74788   7.388   4.774   7.484  0.1985  0.8215 -1.5110
  567MOL0     H74789   7.477   5.011   7.484  0.8098 -2.5108 -1.1421
  567MOL0     H74790   7.565   4.907   7.599 -0.0498  0.4589  0.4572
  567MOL0     H74791   7.407   5.015   7.769 -4.0281 -0.3512 -2.1606
  567MOL0     H74792   7.346   5.103   7.627 -0.3859 -0.5910  0.4083
  567MOL0     H74793   7.610   5.130   7.769 -0.9845  1.5991  2.6703
  567MOL0     H74794   7.594   5.195   7.602  1.3157  0.8930  1.2241
  567MOL0     H74795   7.415   5.358   7.659 -1.6782  0.0342  0.7315
  567MOL0     H74796   7.566   5.382   7.739  0.5403 -1.3118  1.6262
  567MOL0     H74797   7.574   5.227   7.996 -0.4037  0.4896  2.1422
  567MOL0     H74798   7.484   5.164   8.214  0.6817  1.9322  0.3384
  567MOL0     H74799   7.327   5.232   8.270 -1.7557 -0.5704 -1.6455
  567MOL0     H74800   7.609   5.361   8.252 -0.4438  1.0769 -1.6273
  567MOL0     H74801   7.548   5.287   8.387  1.0784  0.3124  0.3434
  567MOL0     H74802   7.542   5.551   8.383 -1.6353 -0.4588  2.3764
  567MOL0     H74803   7.444   5.557   8.260  3.5452  3.5560  2.4198
  567MOL0     H74804   7.256   5.447   8.376 -1.1320 -2.2232  2.2157
  567MOL0     H74805   7.313   5.593   8.457 -0.2812 -0.2418  0.4154
  567MOL0     H74806   7.107   5.528   8.565 -2.8409 -2.0400 -0.8807
  567MOL0     H74807   6.968   5.483   8.731  1.8607  2.0005  0.3876
  567MOL0     H74808   6.635   5.488   8.901 -2.3362  1.3587 -0.0201
  567MOL0     H74809   6.441   5.506   9.062 -1.2393  0.5590  3.3099
  567MOL0     H74810   6.291   5.387   9.206 -1.0129 -0.2142  1.8505
  567MOL0     H74811   6.260   5.558   9.249  0.9269  0.9527  1.2266
  567MOL0     H74812   6.248   5.483   9.490  3.3584  1.2790 -1.0108
  567MOL0     H74813   6.262   5.308   9.427 -1.3364 -0.7675 -2.5769
  567MOL0     H74814   6.060   5.355   9.292  2.4814 -0.0426 -0.6262
  567MOL0     H74815   6.055   5.521   9.344 -3.1434  0.3584  2.2854
  567MOL0     H74816   6.010   5.270   9.520 -2.2312 -0.0959 -3.1116
  567MOL0     H74817   6.044   5.426   9.591  0.8144 -2.2272  1.8273
  567MOL0     H74818   5.812   5.403   9.395 -1.6897 -1.6142  1.0196
  567MOL0     H74819   5.880   5.532   9.506  1.4932  0.1483 -2.9215
  567MOL0     H74820   5.817   5.359   9.699 -2.7377  0.1290  1.2760
  567MOL0     H74821   5.745   5.259   9.574  3.0784 -1.2557  1.5187
  567MOL0     H74822   5.636   5.534   9.642  0.4390  0.3094  2.0610
  567MOL0     H74823   5.569   5.409   9.535 -1.2640 -0.0747  1.2825
  567MOL0     H74824   5.643   5.387   9.839  1.7043 -3.1724 -0.6817
  567MOL0     H74825   5.606   5.244   9.747  0.8707 -0.8552  1.7765
  567MOL0     H74826   6.676   5.372   9.380 -3.9191  3.2029  1.3633
  567MOL0     H74827   6.858   5.296   9.206  0.4103  1.5827  1.1251
  567MOL0     H74828   7.227   5.214   8.945  0.4237 -0.3267  0.5084
  567MOL0     H74829   7.395   5.273   8.763 -1.1296  0.0503  0.5204
  567MOL0     H74830   6.656   4.667   7.439  0.0101  0.4727  3.2293
  567MOL0     H74831   6.439   4.754   7.416  0.6679 -0.8069 -0.8594
  567MOL0     H74832   6.152   5.067   7.467  0.9549 -0.6050 -1.3049
  567MOL0     H74833   5.932   5.183   7.484 -0.2487 -0.2462 -0.3401
  567MOL0     H74834   5.709   5.145   7.406 -3.4091 -0.2310  0.7295
  567MOL0     H74835   5.606   5.215   7.282  0.4702  0.7245  0.3609
  567MOL0     H74836   5.755   5.391   7.481 -0.9161 -0.9936  1.4664
  567MOL0     H74837   5.624   5.439   7.368 -1.0535 -0.0597 -1.2328
  567MOL0     H74838   5.526   5.415   7.577 -4.4510 -0.6285 -2.2110
  567MOL0     H74839   5.579   5.249   7.607 -1.9992 -0.2990  0.7853
  567MOL0     H74840   5.438   5.163   7.426 -0.9304 -2.3744  3.1164
  567MOL0     H74841   5.375   5.231   7.569  0.4200 -2.8617 -0.3819
  567MOL0     H74842   5.195   5.496   7.303 -0.1294 -0.3067 -0.1974
  567MOL0     H74843   5.939   5.220   7.057  2.2256 -0.5631 -3.1649
  567MOL0     H74844   6.169   5.136   7.046  0.2181 -3.2208  0.4634
  568MOL0     O74845   1.272   2.157   2.325 -0.1927  0.1657  0.5643
  568MOL0     C74846   1.331   2.222   2.243 -0.1110  0.3591 -1.2691
  568MOL0     O74847   1.291   2.331   2.171  0.4799  0.2345 -0.6638
  568MOL0     C74848   1.168   2.384   2.202 -0.5416  0.0204 -0.6790
  568MOL0     C74849   1.049   2.310   2.226  0.0533 -0.5091 -0.9484
  568MOL0     C74850   0.928   2.374   2.276  0.2085 -0.4947  0.1240
  568MOL0     C74851   0.911   2.519   2.293 -0.7576  0.1689  0.0826
  568MOL0     O74852   0.805   2.596   2.334 -0.4380  0.4121 -0.1659
  568MOL0     C74853   0.684   2.533   2.374 -0.0352 -0.3747 -0.2101
  568MOL0     C74854   0.589   2.499   2.260 -0.4311  0.4644  0.6483
  568MOL0     C74855   0.459   2.438   2.319  0.2120  0.2565 -0.3727
  568MOL0     C74856   0.329   2.468   2.244 -0.7484  0.9079 -0.1175
  568MOL0     C74857   0.214   2.366   2.254  0.5104  0.3980  0.5127
  568MOL0     C74858   0.234   2.212   2.223  0.0189 -0.4353 -0.4372
  568MOL0     C74859   0.113   2.120   2.239  0.5019  0.1969 -0.4713
  568MOL0     C74860  -0.011   2.170   2.158 -0.4354 -0.3496 -0.6350
  568MOL0     N74861  -0.133   2.114   2.217  1.3040 -0.3611 -0.4172
  568MOL0     C74862  -0.232   2.064   2.132  0.6093 -0.8215 -0.1604
  568MOL0     C74863  -0.326   2.016   2.222 -0.1000  0.9109  0.5799
  568MOL0     C74864  -0.465   1.958   2.179 -0.8458  0.1955 -0.7087
  568MOL0     C74865  -0.573   2.038   2.252 -0.6543 -0.0154  0.3359
  568MOL0     C74866  -0.711   1.991   2.208 -0.1584  0.5637  0.2603
  568MOL0     C74867  -0.819   2.087   2.232 -0.8677 -0.2593  0.9591
  568MOL0     O74868  -0.878   2.046   2.358  0.0935  0.6695 -0.0246
  568MOL0     C74869  -0.996   1.971   2.336 -0.6988 -0.2817  0.5187
  568MOL0     C74870  -0.986   1.836   2.360  0.0980  1.5130 -0.2362
  568MOL0     C74871  -1.096   1.756   2.316 -0.2685  0.1459  0.5164
  568MOL0     C74872  -1.211   1.816   2.254  0.3432  0.2986 -0.3443
  568MOL0     C74873  -1.325   1.737   2.231  0.3286 -0.9569  0.3997
  568MOL0     O74874  -1.320   1.607   2.281 -0.7200 -0.1710 -0.3281
  568MOL0     C74875  -1.431   1.527   2.301  0.9891  0.6301 -1.0709
  568MOL0     C74876  -1.570   1.558   2.307  0.1336 -0.1823  0.1457
  568MOL0     C74877  -1.671   1.469   2.343  0.4068  0.3947  1.0017
  568MOL0     C74878  -1.637   1.332   2.366  0.2205 -0.2414  0.0478
  568MOL0     O74879  -1.733   1.237   2.401 -0.1571 -0.2998 -0.4315
  568MOL0     C74880  -1.872   1.279   2.410 -0.5481 -0.0901 -0.0509
  568MOL0     C74881  -1.948   1.157   2.451 -0.0115 -0.4865 -0.5513
  568MOL0     C74882  -1.920   1.118   2.599  0.4921  0.1871  0.5251
  568MOL0     C74883  -1.937   1.233   2.702  0.6223  0.3850  0.4362
  568MOL0     C74884  -1.911   1.188   2.841 -1.3360 -0.2989 -0.7669
  568MOL0     C74885  -1.958   1.297   2.940 -0.1330 -0.5762 -0.7967
  568MOL0     C74886  -1.954   1.253   3.091 -0.5541 -0.1177 -0.4413
  568MOL0     C74887  -2.036   1.351   3.183  1.0122  0.4425  0.6382
  568MOL0    Cl74888  -2.031   1.294   3.356 -0.1288 -0.0111 -0.3986
  568MOL0     C74889  -1.499   1.294   2.347  0.2678  0.0622 -0.1354
  568MOL0     C74890  -1.396   1.389   2.326  0.4501 -0.2962 -0.0957
  568MOL0     O74891  -1.427   1.795   2.189 -0.4337 -0.3447  0.2983
  568MOL0     C74892  -1.220   1.952   2.256  0.2855 -0.5823 -1.2095
  568MOL0     C74893  -1.113   2.037   2.299  0.4797 -0.1044  0.0416
  568MOL0     N74894  -0.284   2.021   2.350 -0.2235 -0.6821  0.0040
  568MOL0     N74895  -0.171   2.086   2.346 -0.6434  0.1397 -0.7124
  568MOL0     C74896   1.030   2.586   2.261 -0.5160 -0.0992  0.6738
  568MOL0     C74897   1.146   2.525   2.216 -0.4885 -0.5600 -0.0201
  568MOL0     C74898   1.464   2.175   2.204  1.2993  0.4139 -0.0509
  568MOL0     C74899   1.534   2.090   2.284 -0.6434  0.3776 -0.1861
  568MOL0     C74900   1.657   2.032   2.238  0.5533  0.5374 -0.0163
  568MOL0     C74901   1.701   2.050   2.105  0.3446 -0.4375 -0.5988
  568MOL0     O74902   1.809   1.990   2.050 -0.1946  0.0218 -0.3822
  568MOL0     C74903   1.871   1.883   2.129  0.2909  0.7953 -0.0762
  568MOL0     C74904   1.986   1.842   2.048  0.0770  0.5907  0.0902
  568MOL0     C74905   2.099   1.947   2.050  0.5564 -0.2203  0.7976
  568MOL0     C74906   2.176   1.938   1.919 -0.1403 -0.1257  0.2026
  568MOL0     C74907   2.292   2.022   1.919  0.4740 -0.1433 -0.0441
  568MOL0     C74908   2.391   2.086   1.912 -0.2180 -0.0959  0.6119
  568MOL0     C74909   1.638   2.148   2.027 -0.1986 -0.3490 -0.0730
  568MOL0     C74910   1.519   2.210   2.076 -0.5358 -0.5738 -0.0045
  568MOL0     H74911   1.054   2.202   2.220  0.3973 -0.5443 -0.0763
  568MOL0     H74912   0.850   2.302   2.295 -1.6115  1.1729 -0.7169
  568MOL0     H74913   0.635   2.613   2.430 -2.2289 -1.1378 -0.9287
  568MOL0     H74914   0.710   2.455   2.445 -0.4758 -1.8481 -1.6125
  568MOL0     H74915   0.631   2.425   2.192 -1.3698  0.0335  0.5214
  568MOL0     H74916   0.565   2.591   2.206 -0.0588  0.1817 -0.0038
  568MOL0     H74917   0.439   2.469   2.422 -0.7789 -0.9956 -0.1607
  568MOL0     H74918   0.478   2.331   2.316  1.4475  0.2588  3.0493
  568MOL0     H74919   0.297   2.571   2.264 -0.6562  0.8990  0.0843
  568MOL0     H74920   0.353   2.487   2.139  1.5990  1.1188  0.4111
  568MOL0     H74921   0.140   2.414   2.189 -0.0850  0.1403  0.9871
  568MOL0     H74922   0.180   2.358   2.358  2.0716 -3.0346  0.9013
  568MOL0     H74923   0.298   2.168   2.299 -0.2426 -2.1773 -1.1812
  568MOL0     H74924   0.277   2.198   2.123  0.1106  1.7146 -0.7466
  568MOL0     H74925   0.131   2.018   2.205  1.7597  0.7864 -1.7040
  568MOL0     H74926   0.084   2.112   2.344  0.2288 -4.3133 -0.7156
  568MOL0     H74927   0.012   2.142   2.054 -0.3955 -0.7699 -0.5158
  568MOL0     H74928  -0.015   2.279   2.170  2.8864 -0.2301  0.6100
  568MOL0     H74929  -0.239   2.067   2.024 -1.4197 -1.9732 -0.1138
  568MOL0     H74930  -0.477   1.851   2.199 -3.0236  0.6863  1.0060
  568MOL0     H74931  -0.493   1.979   2.075 -3.1653  0.9429 -0.0010
  568MOL0     H74932  -0.550   2.143   2.231  1.2666 -0.8083 -2.0164
  568MOL0     H74933  -0.552   2.032   2.359 -0.3881 -0.8243  0.2480
  568MOL0     H74934  -0.707   1.981   2.100 -3.3279 -0.8179  0.1591
  568MOL0     H74935  -0.734   1.892   2.248 -1.7206  1.4004  1.5967
  568MOL0     H74936  -0.878   2.117   2.144  1.7138 -1.1753 -1.2169
  568MOL0     H74937  -0.764   2.181   2.237 -0.6608 -0.3218  0.0116
  568MOL0     H74938  -0.912   1.790   2.424 -2.8339 -2.6975  0.5260
  568MOL0     H74939  -1.087   1.649   2.333  1.4158  0.0892 -0.4632
  568MOL0     H74940  -1.612   1.656   2.289  0.4548 -0.1288 -0.3351
  568MOL0     H74941  -1.772   1.507   2.330  0.7980  1.2452  0.3611
  568MOL0     H74942  -1.898   1.321   2.313 -0.7247  0.1402  0.0932
  568MOL0     H74943  -1.879   1.354   2.490  1.0803 -2.8128  2.8684
  568MOL0     H74944  -1.932   1.069   2.389  1.0314  0.7361 -2.0691
  568MOL0     H74945  -2.052   1.191   2.442 -0.0060  0.0373  0.9694
  568MOL0     H74946  -1.821   1.075   2.612  0.5999  0.5387  0.9018
  568MOL0     H74947  -1.976   1.029   2.631  4.7145 -2.8269  0.2680
  568MOL0     H74948  -1.876   1.323   2.690 -1.0400  1.8851  2.5065
  568MOL0     H74949  -2.043   1.260   2.696 -0.2395 -2.7113  0.0458
  568MOL0     H74950  -1.804   1.172   2.858 -1.3212  1.1072  0.6649
  568MOL0     H74951  -1.961   1.094   2.866 -3.1944  0.4695 -1.4205
  568MOL0     H74952  -2.060   1.325   2.910 -0.2846  1.4862  1.3458
  568MOL0     H74953  -1.898   1.387   2.923 -0.8189  0.4030  1.5750
  568MOL0     H74954  -1.975   1.146   3.100 -0.3006 -0.0764  0.8219
  568MOL0     H74955  -1.852   1.283   3.117 -1.8539  2.6284  2.0195
  568MOL0     H74956  -2.139   1.357   3.147  1.7141  2.8989 -1.2201
  568MOL0     H74957  -1.998   1.453   3.189 -1.9322  1.5913  1.3279
  568MOL0     H74958  -1.465   1.191   2.353 -2.4586 -0.9718 -1.0497
  568MOL0     H74959  -1.289   1.366   2.324  0.2013 -1.4971 -1.6880
  568MOL0     H74960  -1.315   2.002   2.240  2.0593  4.7040  2.1432
  568MOL0     H74961  -1.122   2.145   2.287 -1.1097 -0.3034 -0.8133
  568MOL0     H74962   1.027   2.695   2.269  0.0534 -0.0342  0.0478
  568MOL0     H74963   1.226   2.596   2.195 -1.8056  0.7620 -0.7670
  568MOL0     H74964   1.512   2.081   2.390  4.2818 -0.5807  1.0175
  568MOL0     H74965   1.716   1.964   2.299 -3.2437 -1.2965  1.9613
  568MOL0     H74966   1.808   1.795   2.141  0.1010  1.3105  4.4753
  568MOL0     H74967   1.905   1.913   2.228  2.0399  3.4013 -1.3424
  568MOL0     H74968   2.019   1.745   2.085  5.2870  2.3104  0.7846
  568MOL0     H74969   1.958   1.822   1.944  3.1133  2.0881 -1.1352
  568MOL0     H74970   2.169   1.935   2.134  0.6086 -2.8987  0.4715
  568MOL0     H74971   2.061   2.049   2.040  0.8704 -0.1914 -0.2028
  568MOL0     H74972   2.201   1.832   1.903 -0.0431 -0.2608  1.1742
  568MOL0     H74973   2.116   1.971   1.833  1.7414 -0.3727 -1.2797
  568MOL0     H74974   2.471   2.157   1.921 -0.2164  0.4410 -2.6369
  568MOL0     H74975   1.679   2.180   1.932  0.5109 -1.1019 -0.0334
  568MOL0     H74976   1.476   2.281   2.006  0.4508 -1.3459 -1.4427
  569MOL0     O74977   0.046   0.656  10.838 -0.4855  0.2008  0.5346
  569MOL0     C74978   0.025   0.687  10.726  0.5375  1.0271  0.4158
  569MOL0     O74979   0.103   0.769  10.647  0.4431  0.1353  0.1971
  569MOL0     C74980   0.215   0.828  10.700  0.1800  0.4013  1.0742
  569MOL0     C74981   0.317   0.866  10.610 -0.2100  0.0598  0.8370
  569MOL0     C74982   0.435   0.924  10.660 -0.7135  0.7329  0.6563
  569MOL0     C74983   0.449   0.963  10.794  0.4966 -0.0929 -0.1034
  569MOL0     O74984   0.562   1.014  10.847 -0.5042 -0.0001  0.4983
  569MOL0     C74985   0.619   0.932  10.949  0.5771 -0.6159  0.4323
  569MOL0     C74986   0.756   1.000  10.973 -0.2851 -0.8278  0.6460
  569MOL0     C74987   0.858   0.956  10.869  0.3455  0.3310 -0.2188
  569MOL0     C74988   0.991   1.018  10.915  0.4957 -1.2192 -0.7722
  569MOL0     C74989   1.090   1.032  10.795 -0.4309 -0.4687 -0.6746
  569MOL0     C74990   1.100   0.912  10.697 -0.0006  0.0842  0.2715
  569MOL0     C74991   1.189   0.964  10.581 -0.4432  0.1130  0.0871
  569MOL0     C74992   1.242   0.842  10.501 -0.1061  0.7697  1.1791
  569MOL0     N74993   1.146   0.734  10.462 -0.0345  1.2304 -0.3121
  569MOL0     C74994   1.027   0.747  10.393  0.3959 -0.0177 -1.3018
  569MOL0     C74995   0.962   0.633  10.431 -0.0434 -0.5696 -0.5829
  569MOL0     C74996   0.821   0.584  10.409  0.9044 -0.0771 -0.7098
  569MOL0     C74997   0.702   0.671  10.466  0.1486 -0.2872 -0.8869
  569MOL0     C74998   0.575   0.600  10.489 -0.5432 -0.2479 -0.0814
  569MOL0     C74999   0.506   0.576  10.353 -0.7680  0.2010 -0.1297
  569MOL0     O75000   0.559   0.449  10.291  0.6950 -0.4102  0.2357
  569MOL0     C75001   0.456   0.369  10.230 -0.3796  0.2652  0.9234
  569MOL0     C75002   0.424   0.240  10.274 -0.5180  0.2866 -0.3015
  569MOL0     C75003   0.330   0.154  10.202 -0.2092 -0.9482  1.2140
  569MOL0     C75004   0.261   0.201  10.091 -0.5669  0.0978  0.0415
  569MOL0     C75005   0.151   0.127  10.024 -0.5153 -0.7414 -0.2871
  569MOL0     O75006   0.098   0.171   9.908 -0.1260 -0.1023  0.1555
  569MOL0     C75007   0.029   0.075   9.848  0.3063  0.6608  0.2288
  569MOL0     C75008   0.087  -0.006   9.755 -0.1017  0.1996  0.4614
  569MOL0     C75009   0.006  -0.089   9.674  0.6941  0.0789  0.0357
  569MOL0     C75010  -0.133  -0.101   9.697  0.3727 -0.1964 -1.0802
  569MOL0     O75011  -0.198  -0.197   9.630  0.6968  0.3654 -0.2277
  569MOL0     C75012  -0.265  -0.309   9.698  0.2131 -0.0367  1.2087
  569MOL0     C75013  -0.275  -0.428   9.600  0.0957  0.1075 -0.6464
  569MOL0     C75014  -0.378  -0.388   9.501 -0.6935 -0.1578  0.9234
  569MOL0     C75015  -0.388  -0.489   9.371 -0.0939 -0.1934 -0.0362
  569MOL0     C75016  -0.540  -0.476   9.307  0.5593 -0.7801 -0.2820
  569MOL0     C75017  -0.541  -0.452   9.158 -0.9403  0.8195  0.2657
  569MOL0     C75018  -0.501  -0.581   9.084  0.0312  0.6823 -0.5575
  569MOL0     C75019  -0.418  -0.548   8.959 -0.0870  0.9533 -0.4093
  569MOL0    Cl75020  -0.257  -0.539   8.988 -0.0886 -0.0203  0.0668
  569MOL0     C75021  -0.191  -0.026   9.799  0.8198 -1.2073 -0.9689
  569MOL0     C75022  -0.113   0.071   9.871 -0.8878  0.1391 -0.5252
  569MOL0     O75023   0.128   0.020  10.084 -0.2966  0.1191 -0.7967
  569MOL0     C75024   0.305   0.331  10.040 -0.0673  0.2230 -0.7226
  569MOL0     C75025   0.395   0.416  10.116  0.7547 -0.0475 -0.7882
  569MOL0     N75026   1.046   0.547  10.497  0.1711  0.0777  0.0770
  569MOL0     N75027   1.156   0.606  10.518  0.0195 -0.1266 -0.1500
  569MOL0     C75028   0.341   0.951  10.874  0.6041  0.6180 -0.7232
  569MOL0     C75029   0.230   0.871  10.834  0.3457  1.0305  0.3711
  569MOL0     C75030  -0.097   0.628  10.663 -0.6760  0.0031 -0.4584
  569MOL0     C75031  -0.130   0.653  10.538  0.7834  0.5990  1.0057
  569MOL0     C75032  -0.231   0.584  10.476 -0.1712 -0.7272 -0.1035
  569MOL0     C75033  -0.319   0.497  10.552 -0.6730 -0.4548 -0.2729
  569MOL0     O75034  -0.435   0.433  10.509  0.8869 -0.7329 -0.1686
  569MOL0     C75035  -0.474   0.442  10.367  0.1508 -0.0648 -0.0133
  569MOL0     C75036  -0.556   0.326  10.332  0.4668 -0.2040 -0.1079
  569MOL0     C75037  -0.680   0.346  10.243 -1.4363  0.2003  0.0363
  569MOL0     C75038  -0.644   0.373  10.092 -0.0324 -0.2200 -0.7617
  569MOL0     C75039  -0.515   0.329  10.043 -0.5981 -0.4683 -0.8819
  569MOL0     C75040  -0.414   0.287  10.000 -0.5558 -0.3034  1.6544
  569MOL0     C75041  -0.280   0.474  10.689  0.0476  0.6147 -0.9544
  569MOL0     C75042  -0.170   0.536  10.745  0.3674 -0.8212  0.1115
  569MOL0     H75043   0.302   0.855  10.503 -1.4556  0.9710  0.8986
  569MOL0     H75044   0.514   0.937  10.587 -0.9394 -2.8933 -0.4805
  569MOL0     H75045   0.655   0.833  10.917  0.5424 -0.8659  1.1394
  569MOL0     H75046   0.561   0.923  11.041  2.2184  1.8718  1.8365
  569MOL0     H75047   0.787   0.966  11.072 -0.6614 -0.2779  0.9598
  569MOL0     H75048   0.744   1.109  10.972  0.4947 -0.7325 -0.3591
  569MOL0     H75049   0.822   1.003  10.777 -1.1158 -2.0899 -0.9702
  569MOL0     H75050   0.862   0.847  10.863 -1.1648  0.1823  0.9540
  569MOL0     H75051   0.972   1.119  10.954  2.1717 -1.7436  1.6496
  569MOL0     H75052   1.025   0.970  11.007 -2.3638 -2.4879 -0.2812
  569MOL0     H75053   1.189   1.048  10.839 -0.4447 -1.2965 -0.3154
  569MOL0     H75054   1.059   1.125  10.746 -0.7556  0.1151  0.5903
  569MOL0     H75055   1.002   0.902  10.650 -1.8039 -0.0163  3.6782
  569MOL0     H75056   1.122   0.818  10.748  0.0640 -0.5892 -0.9795
  569MOL0     H75057   1.131   1.025  10.511 -1.3856 -2.5538 -1.6418
  569MOL0     H75058   1.275   1.026  10.607 -1.6207  2.2848 -0.9373
  569MOL0     H75059   1.326   0.805  10.560  0.3834  1.7502  1.1133
  569MOL0     H75060   1.278   0.874  10.403  1.1005  0.4841  1.5156
  569MOL0     H75061   0.982   0.835  10.348  1.4064  2.0577  1.4676
  569MOL0     H75062   0.818   0.486  10.457 -0.7009 -0.4809 -1.5719
  569MOL0     H75063   0.795   0.575  10.303 -2.1849 -2.9278  0.1340
  569MOL0     H75064   0.686   0.760  10.406 -1.4061 -0.0103 -0.1294
  569MOL0     H75065   0.723   0.706  10.568 -1.0193 -1.4421 -0.2134
  569MOL0     H75066   0.586   0.504  10.540 -1.5194  0.5821  1.7803
  569MOL0     H75067   0.498   0.650  10.547  0.7385 -0.4110  1.8408
  569MOL0     H75068   0.531   0.663  10.292  0.8103  1.2620  1.8785
  569MOL0     H75069   0.398   0.570  10.369 -0.4254 -1.0592  2.1263
  569MOL0     H75070   0.477   0.194  10.357 -1.1072  2.2677  1.2400
  569MOL0     H75071   0.313   0.054  10.242  4.8283 -2.4340  0.3978
  569MOL0     H75072   0.191  -0.000   9.726 -0.4753  3.0386 -0.6277
  569MOL0     H75073   0.050  -0.148   9.595 -2.1175 -0.1843 -1.4826
  569MOL0     H75074  -0.356  -0.263   9.738  1.3596  1.9470  1.6849
  569MOL0     H75075  -0.203  -0.348   9.780  3.3458  0.1194 -0.9085
  569MOL0     H75076  -0.316  -0.518   9.648 -0.2945 -0.5392 -2.1268
  569MOL0     H75077  -0.182  -0.467   9.557 -0.6156 -0.2628 -1.8950
  569MOL0     H75078  -0.360  -0.289   9.460 -0.5850 -1.4680 -2.5048
  569MOL0     H75079  -0.473  -0.384   9.556 -0.0799  1.7606  1.9383
  569MOL0     H75080  -0.324  -0.451   9.290 -1.4113  0.4244 -0.8239
  569MOL0     H75081  -0.360  -0.591   9.395 -0.3075  0.0081  1.1332
  569MOL0     H75082  -0.575  -0.382   9.349  1.8460 -0.4311  0.0664
  569MOL0     H75083  -0.598  -0.560   9.347  1.0100 -0.4496  1.1387
  569MOL0     H75084  -0.478  -0.366   9.136 -0.1679 -0.5652 -4.0914
  569MOL0     H75085  -0.646  -0.437   9.129 -0.7225 -0.4468 -1.3404
  569MOL0     H75086  -0.451  -0.648   9.155 -1.3157 -0.1625 -0.3799
  569MOL0     H75087  -0.584  -0.640   9.045  0.4734  3.0715 -6.0111
  569MOL0     H75088  -0.449  -0.451   8.921 -1.2450  0.8393  0.1719
  569MOL0     H75089  -0.432  -0.620   8.877 -1.7293  0.9944 -0.2124
  569MOL0     H75090  -0.295  -0.041   9.828  0.7995 -0.1787 -0.4685
  569MOL0     H75091  -0.163   0.133   9.944 -0.0763  1.1432 -0.8101
  569MOL0     H75092   0.261   0.381   9.954 -0.9219  2.6076  1.0080
  569MOL0     H75093   0.421   0.515  10.080 -1.8567  1.1672  0.3983
  569MOL0     H75094   0.336   0.983  10.978 -0.7980  1.3390 -0.9778
  569MOL0     H75095   0.158   0.848  10.911 -0.4354 -2.8990 -1.2897
  569MOL0     H75096  -0.078   0.730  10.483 -0.2587  1.2362  0.8948
  569MOL0     H75097  -0.250   0.613  10.372  1.2961  0.3132 -0.1097
  569MOL0     H75098  -0.381   0.436  10.310  0.0149 -2.6976 -0.0535
  569MOL0     H75099  -0.539   0.528  10.345 -2.7552 -2.3238 -0.9950
  569MOL0     H75100  -0.493   0.246  10.290  1.5121  0.6087 -0.1281
  569MOL0     H75101  -0.595   0.286  10.426 -0.6153  0.4209 -0.2722
  569MOL0     H75102  -0.743   0.428  10.277 -2.3480 -0.5551  0.2207
  569MOL0     H75103  -0.738   0.254  10.258 -0.6230 -0.2495  0.5177
  569MOL0     H75104  -0.722   0.342  10.021 -0.8225 -0.2243  0.0891
  569MOL0     H75105  -0.626   0.481  10.087  1.6214 -0.5200 -2.7575
  569MOL0     H75106  -0.340   0.238   9.940 -3.9848 -2.7657 -0.9979
  569MOL0     H75107  -0.337   0.414  10.759  1.5687  0.6797  0.3985
  569MOL0     H75108  -0.148   0.522  10.850 -3.2528  1.1526  1.3130
  570MOL0     O75109   6.577  10.808   2.295 -0.1807 -0.7485  0.4819
  570MOL0     C75110   6.631  10.916   2.323  1.6561 -0.0472 -0.9981
  570MOL0     O75111   6.573  11.010   2.408  0.2873 -0.2760  0.3870
  570MOL0     C75112   6.449  10.992   2.451  0.0655 -0.0700 -0.1050
  570MOL0     C75113   6.345  11.061   2.392 -0.3795  0.2725  0.5712
  570MOL0     C75114   6.213  11.047   2.452 -0.7390 -0.4361 -0.6438
  570MOL0     C75115   6.188  10.965   2.560  1.4127 -0.2228 -0.0554
  570MOL0     O75116   6.063  10.950   2.621 -0.4138 -0.0867 -0.3668
  570MOL0     C75117   5.942  10.998   2.557 -0.1333 -0.3424 -0.4701
  570MOL0     C75118   5.823  10.937   2.644 -0.4099  0.0539  0.0361
  570MOL0     C75119   5.700  10.898   2.558  0.1511 -0.0531 -0.3264
  570MOL0     C75120   5.584  10.874   2.656  0.1330 -0.7871  0.4986
  570MOL0     C75121   5.475  10.800   2.579  0.0031 -0.4630 -0.4612
  570MOL0     C75122   5.343  10.793   2.654  0.0098  0.5480  0.4165
  570MOL0     C75123   5.356  10.706   2.776 -0.0139 -0.0161 -0.1129
  570MOL0     C75124   5.228  10.681   2.860  0.2410 -0.2507  0.9751
  570MOL0     N75125   5.235  10.570   2.950  0.9995  0.1124  0.4662
  570MOL0     C75126   5.280  10.440   2.924 -0.5667 -0.0326  0.1887
  570MOL0     C75127   5.241  10.368   3.032 -0.0167 -0.3517 -1.0147
  570MOL0     C75128   5.267  10.217   3.069  0.4301 -0.2468 -0.8854
  570MOL0     C75129   5.157  10.123   3.027  0.1247  0.5342  1.4045
  570MOL0     C75130   5.189   9.969   3.037  0.3068 -0.7088 -0.0976
  570MOL0     C75131   5.210   9.907   3.177 -0.3122  0.1133 -0.2034
  570MOL0     O75132   5.224   9.762   3.160 -0.4062  0.3542  0.3498
  570MOL0     C75133   5.107   9.689   3.164  0.2117 -0.0391 -0.2214
  570MOL0     C75134   4.991   9.712   3.091  0.2223 -0.1288 -0.2976
  570MOL0     C75135   4.875   9.634   3.112  0.9398 -0.0792 -0.5108
  570MOL0     C75136   4.876   9.521   3.202 -0.0987  0.5155 -1.0023
  570MOL0     C75137   4.753   9.444   3.224 -0.6991  0.3919 -0.0741
  570MOL0     O75138   4.653   9.465   3.131 -0.9651  0.1899 -1.1543
  570MOL0     C75139   4.523   9.439   3.158  0.9519  0.8198  0.4393
  570MOL0     C75140   4.458   9.433   3.289 -1.1646 -0.3923  0.8575
  570MOL0     C75141   4.320   9.418   3.296  0.0150 -1.1467  0.6695
  570MOL0     C75142   4.245   9.407   3.177  0.1799 -0.2514  0.5549
  570MOL0     O75143   4.106   9.412   3.171 -0.6827 -0.4504 -0.3398
  570MOL0     C75144   4.031   9.386   3.288 -0.1494 -0.6841  0.0010
  570MOL0     C75145   4.019   9.517   3.378 -0.8333  0.1732  0.3715
  570MOL0     C75146   3.890   9.592   3.358  1.0867 -0.8999 -0.2349
  570MOL0     C75147   3.886   9.667   3.224  0.0570  0.3984 -0.6007
  570MOL0     C75148   3.742   9.699   3.193  0.1072  0.0862 -1.3496
  570MOL0     C75149   3.738   9.763   3.051  0.3020  0.9854 -0.2943
  570MOL0     C75150   3.589   9.808   3.026  0.9804  0.1668 -0.0277
  570MOL0     C75151   3.591   9.858   2.881  0.2964  0.1743  0.4885
  570MOL0    Cl75152   3.435   9.929   2.874 -0.0332  0.5409 -0.3360
  570MOL0     C75153   4.304   9.399   3.056 -0.3867  0.5465  0.2740
  570MOL0     C75154   4.443   9.407   3.050 -0.7186 -0.2015 -0.6243
  570MOL0     O75155   4.748   9.378   3.326 -0.0199 -0.5145 -0.1878
  570MOL0     C75156   4.993   9.500   3.269  0.8591  0.1368 -0.7374
  570MOL0     C75157   5.109   9.582   3.256  0.1842  0.5590 -0.0837
  570MOL0     N75158   5.176  10.449   3.123  0.4563  0.0687  1.0845
  570MOL0     N75159   5.190  10.569   3.083  0.6248 -0.0389 -0.7085
  570MOL0     C75160   6.292  10.905   2.620  0.0846  0.4929  0.1812
  570MOL0     C75161   6.424  10.920   2.572 -1.0368 -0.9125 -0.1072
  570MOL0     C75162   6.767  10.951   2.273  0.3462  0.4448 -0.0558
  570MOL0     C75163   6.821  10.886   2.167  1.2186 -0.8882 -0.4544
  570MOL0     C75164   6.953  10.913   2.124  0.0040  0.6694  0.2476
  570MOL0     C75165   7.029  11.006   2.191  1.1729 -0.6402 -0.1225
  570MOL0     O75166   7.161  11.024   2.147  0.4483 -0.3667 -0.0535
  570MOL0     C75167   7.228  11.148   2.181 -0.0284  0.4540 -0.3089
  570MOL0     C75168   7.367  11.153   2.109  0.3102 -0.7020  0.1664
  570MOL0     C75169   7.485  11.089   2.195 -0.9824 -0.3550  0.3234
  570MOL0     C75170   7.552  11.184   2.292  0.1920 -0.1520 -0.3167
  570MOL0     C75171   7.629  11.301   2.231 -0.6680  0.8723  0.6376
  570MOL0     C75172   7.678  11.397   2.179  0.6936 -0.4612 -0.0001
  570MOL0     C75173   6.977  11.073   2.305 -0.7251  0.1995 -0.1755
  570MOL0     C75174   6.848  11.048   2.343 -0.0991  0.2605 -0.2732
  570MOL0     H75175   6.350  11.137   2.314 -0.8246  0.2598  0.5273
  570MOL0     H75176   6.142  11.116   2.409 -0.9265 -0.1418  0.1189
  570MOL0     H75177   5.920  10.961   2.456 -2.3664  0.3100 -0.2883
  570MOL0     H75178   5.941  11.106   2.576  2.6372 -0.3466  0.1097
  570MOL0     H75179   5.796  11.019   2.712  1.1016  0.6994 -0.0930
  570MOL0     H75180   5.852  10.852   2.707  2.1497  1.8806  1.4964
  570MOL0     H75181   5.706  10.809   2.495  4.4549  0.1298 -0.5087
  570MOL0     H75182   5.678  10.980   2.489  1.0732 -1.9524 -3.0603
  570MOL0     H75183   5.612  10.799   2.730 -0.0895 -1.6725 -0.2980
  570MOL0     H75184   5.550  10.963   2.710  2.9225 -0.8112  2.5090
  570MOL0     H75185   5.508  10.697   2.563  0.0747 -0.6818  0.9491
  570MOL0     H75186   5.454  10.844   2.481  1.0653  0.9407 -0.0753
  570MOL0     H75187   5.268  10.748   2.589 -2.4081  0.3366  3.1364
  570MOL0     H75188   5.298  10.890   2.676 -0.6419  0.4910 -0.6346
  570MOL0     H75189   5.385  10.608   2.735  0.3718 -0.3068  0.8322
  570MOL0     H75190   5.430  10.745   2.845  0.0237  1.6791 -1.0765
  570MOL0     H75191   5.139  10.661   2.799 -0.2165  2.1194  0.7620
  570MOL0     H75192   5.207  10.765   2.927  0.0743  1.6142 -1.2707
  570MOL0     H75193   5.341  10.399   2.844  2.4112 -2.9999  3.6205
  570MOL0     H75194   5.276  10.209   3.178 -1.4547  1.6171 -0.5398
  570MOL0     H75195   5.364  10.192   3.025 -0.3173 -1.6123 -1.8007
  570MOL0     H75196   5.138  10.141   2.920 -1.0991 -2.2468  1.0759
  570MOL0     H75197   5.060  10.152   3.068 -2.9238  1.3833 -5.0556
  570MOL0     H75198   5.122   9.910   2.974  0.9123  0.4472 -1.9035
  570MOL0     H75199   5.282   9.957   2.981  0.5090 -1.4553  0.3886
  570MOL0     H75200   5.121   9.934   3.234 -0.0247  1.4759 -0.3738
  570MOL0     H75201   5.296   9.948   3.231 -3.2160  2.5803  2.9715
  570MOL0     H75202   4.986   9.797   3.023 -1.0173  0.0750  0.0328
  570MOL0     H75203   4.781   9.667   3.069  1.6738  0.1974 -1.9378
  570MOL0     H75204   4.515   9.459   3.377  2.9401 -0.9787 -1.3852
  570MOL0     H75205   4.284   9.425   3.398 -1.2572 -0.4382  0.1989
  570MOL0     H75206   4.074   9.303   3.345  0.4698 -3.2129 -3.8315
  570MOL0     H75207   3.930   9.357   3.258  0.3436 -0.4339 -2.0216
  570MOL0     H75208   4.106   9.582   3.364 -0.3134 -0.8795 -1.6138
  570MOL0     H75209   4.024   9.475   3.480  2.2103 -0.2798  0.1335
  570MOL0     H75210   3.866   9.656   3.443 -2.7508 -0.6337 -1.3245
  570MOL0     H75211   3.816   9.511   3.353  1.1885 -1.0053 -0.0462
  570MOL0     H75212   3.949   9.755   3.239 -1.2368  1.6547 -2.1998
  570MOL0     H75213   3.923   9.604   3.142 -1.4476  0.8825 -1.7024
  570MOL0     H75214   3.706   9.772   3.266 -2.9171 -1.3043 -1.3200
  570MOL0     H75215   3.685   9.607   3.203  3.3501 -2.2177 -2.5184
  570MOL0     H75216   3.767   9.682   2.983  0.5680  0.7266  0.1272
  570MOL0     H75217   3.811   9.844   3.050  3.5190 -1.6565  0.5836
  570MOL0     H75218   3.513   9.732   3.046  0.5329  1.1864  2.3851
  570MOL0     H75219   3.569   9.894   3.090  1.8278 -1.4452  2.5412
  570MOL0     H75220   3.587   9.776   2.810 -2.3101 -0.5792  1.3812
  570MOL0     H75221   3.673   9.927   2.857  0.1888  0.3224  0.5431
  570MOL0     H75222   4.233   9.400   2.973 -1.5389  0.4022  1.2331
  570MOL0     H75223   4.500   9.413   2.958 -1.4085  1.8472 -0.9629
  570MOL0     H75224   4.996   9.430   3.352 -0.8132  1.5730  0.6041
  570MOL0     H75225   5.194   9.573   3.323  0.3020  0.9403 -0.1773
  570MOL0     H75226   6.285  10.859   2.717  1.5515  0.2306  0.1949
  570MOL0     H75227   6.514  10.888   2.623  2.7757  4.7387 -2.2527
  570MOL0     H75228   6.766  10.813   2.108 -0.9641 -0.8403  1.3553
  570MOL0     H75229   6.978  10.859   2.033 -0.1232 -0.3203  0.7796
  570MOL0     H75230   7.251  11.161   2.287  1.3346  1.0816 -0.6563
  570MOL0     H75231   7.167  11.224   2.132 -0.7876 -0.9786 -1.6782
  570MOL0     H75232   7.363  11.091   2.020  3.2847 -0.9727  0.1213
  570MOL0     H75233   7.395  11.258   2.097  5.2396 -1.2766  3.4127
  570MOL0     H75234   7.563  11.051   2.128 -0.4119  1.2689  0.0146
  570MOL0     H75235   7.447  11.011   2.263 -0.7577  1.3039  2.4653
  570MOL0     H75236   7.475  11.229   2.356 -0.3911 -0.8121 -0.5389
  570MOL0     H75237   7.621  11.124   2.352  0.4572  0.9864  0.5744
  570MOL0     H75238   7.721  11.493   2.161 -1.3974  1.0045  2.1507
  570MOL0     H75239   7.040  11.138   2.365  1.4104 -1.4164 -0.5129
  570MOL0     H75240   6.806  11.095   2.432 -0.5765  0.6843 -0.7119
  571MOL0     O75241   6.094  11.245   7.966 -0.1915 -0.1526  0.6943
  571MOL0     C75242   6.169  11.149   7.960  0.5059 -0.4261  0.3056
  571MOL0     O75243   6.139  11.025   8.000  0.3251 -0.4808  0.6514
  571MOL0     C75244   6.018  10.983   8.067 -0.2844  0.0286 -0.1385
  571MOL0     C75245   5.919  11.073   8.113  0.4354 -0.1222 -0.3952
  571MOL0     C75246   5.806  11.033   8.181 -0.2151  0.4740 -0.0546
  571MOL0     C75247   5.780  10.894   8.205 -0.3359  0.0480  0.9615
  571MOL0     O75248   5.668  10.855   8.274 -0.4709  0.4207 -0.6390
  571MOL0     C75249   5.698  10.835   8.412 -0.5530 -0.4248 -0.3616
  571MOL0     C75250   5.577  10.796   8.498  1.0423 -0.1544 -0.3116
  571MOL0     C75251   5.618  10.779   8.641  0.0544 -0.2804 -1.2933
  571MOL0     C75252   5.557  10.882   8.731 -0.3174  0.0269 -1.0102
  571MOL0     C75253   5.599  10.883   8.879 -0.3505 -0.4109  0.2236
  571MOL0     C75254   5.529  11.006   8.943 -0.0381 -0.0120  0.2929
  571MOL0     C75255   5.559  11.016   9.090  0.1989 -0.7536  0.2040
  571MOL0     C75256   5.496  11.139   9.164 -0.4029  0.2607 -0.0281
  571MOL0     N75257   5.349  11.128   9.169  0.1385  0.2091  0.7304
  571MOL0     C75258   5.286  11.030   9.241 -0.0496 -0.1202 -0.6753
  571MOL0     C75259   5.157  11.058   9.230 -0.4847 -0.3842 -0.3493
  571MOL0     C75260   5.060  10.985   9.314  0.3332 -1.0376 -0.0809
  571MOL0     C75261   4.997  11.083   9.423 -0.6676 -0.1683  1.1049
  571MOL0     C75262   4.911  11.022   9.540 -0.0429  0.2010  0.9709
  571MOL0     C75263   4.812  10.916   9.483 -0.2019 -0.0763 -0.0900
  571MOL0     O75264   4.704  10.990   9.420 -1.0782  0.0654 -0.1346
  571MOL0     C75265   4.587  11.025   9.487  0.0508 -0.1276 -1.0318
  571MOL0     C75266   4.479  11.063   9.417 -0.1244  0.0457  0.3036
  571MOL0     C75267   4.355  11.072   9.477  0.9343 -0.5061  0.8448
  571MOL0     C75268   4.339  11.077   9.612 -1.0154  1.1201 -0.5791
  571MOL0     C75269   4.206  11.095   9.682  0.5191 -0.5535 -0.9705
  571MOL0     O75270   4.212  11.154   9.809  0.2429 -0.0510 -0.8316
  571MOL0     C75271   4.093  11.190   9.869  0.2787 -0.1263  0.5893
  571MOL0     C75272   4.061  11.128   9.994 -0.0701  0.4713 -0.1440
  571MOL0     C75273   3.932  11.163  10.048  0.0587  0.1424 -0.6531
  571MOL0     C75274   3.847  11.253   9.986  0.0537 -0.6812  0.1865
  571MOL0     O75275   3.726  11.280  10.035  0.0543  0.6142  0.1328
  571MOL0     C75276   3.664  11.175  10.113  1.0264 -0.1767 -0.3318
  571MOL0     C75277   3.518  11.200  10.163  0.4937 -0.7125  0.4415
  571MOL0     C75278   3.498  11.344  10.230 -0.0321 -0.0168  0.0962
  571MOL0     C75279   3.365  11.344  10.298  0.0450  0.6907 -0.2564
  571MOL0     C75280   3.254  11.328  10.193 -1.0583  0.1281 -0.1997
  571MOL0     C75281   3.128  11.399  10.226 -0.5476 -1.3191  0.0626
  571MOL0     C75282   3.003  11.334  10.168 -0.0541 -0.3159  0.4431
  571MOL0     C75283   2.894  11.445  10.159 -0.1532 -0.0064 -0.5186
  571MOL0    Cl75284   2.919  11.540  10.016  0.2757 -0.2187  0.3283
  571MOL0     C75285   3.893  11.321   9.873 -0.3039 -0.1700 -0.4829
  571MOL0     C75286   4.012  11.285   9.812 -0.7350 -0.2059 -0.2930
  571MOL0     O75287   4.104  11.093   9.613  0.2431  0.5496  0.5717
  571MOL0     C75288   4.452  11.062   9.692  0.7476 -0.7851 -0.3414
  571MOL0     C75289   4.576  11.037   9.632 -0.3841 -0.4429 -0.1999
  571MOL0     N75290   5.147  11.156   9.137  0.4308  0.2020 -0.0865
  571MOL0     N75291   5.260  11.190   9.092 -0.0225  0.1626 -0.6442
  571MOL0     C75292   5.875  10.803   8.152  0.2525  0.2489  0.5268
  571MOL0     C75293   5.982  10.844   8.081  0.4881  0.5239  0.0606
  571MOL0     C75294   6.293  11.154   7.889  0.2071 -0.2662 -0.0286
  571MOL0     C75295   6.340  11.037   7.823 -0.0585  0.6040 -0.2224
  571MOL0     C75296   6.468  11.045   7.770  1.2639 -0.0682  0.5176
  571MOL0     C75297   6.557  11.144   7.793  0.5762  0.0131 -0.7372
  571MOL0     O75298   6.685  11.148   7.735  0.4110  0.5274 -0.4361
  571MOL0     C75299   6.786  11.229   7.792  0.3170 -0.3030  0.2676
  571MOL0     C75300   6.912  11.230   7.685 -0.0964  0.5961 -0.4980
  571MOL0     C75301   7.043  11.262   7.758  0.2294 -0.4057 -0.5850
  571MOL0     C75302   7.012  11.364   7.881 -0.2062  0.9155  0.7635
  571MOL0     C75303   7.130  11.441   7.922 -0.2995  0.0814  0.8126
  571MOL0     C75304   7.233  11.475   7.977  0.4121 -0.2311 -0.4943
  571MOL0     C75305   6.511  11.259   7.856  0.7920 -0.3554  0.0782
  571MOL0     C75306   6.378  11.260   7.895 -0.6025 -0.3409  0.7323
  571MOL0     H75307   5.919  11.180   8.094 -1.5214 -0.1535 -0.8593
  571MOL0     H75308   5.731  11.105   8.211 -0.7970  0.8201 -2.1412
  571MOL0     H75309   5.746  10.928   8.444 -2.2465 -0.3337  2.1793
  571MOL0     H75310   5.773  10.756   8.419 -0.3154 -0.2680 -0.9900
  571MOL0     H75311   5.526  10.710   8.455  2.5603 -0.3706 -1.7721
  571MOL0     H75312   5.505  10.878   8.498 -2.0916 -2.6069  2.8579
  571MOL0     H75313   5.727  10.783   8.650 -0.1122  1.3369  0.6163
  571MOL0     H75314   5.591  10.678   8.673 -2.9808  0.8107  0.0151
  571MOL0     H75315   5.576  10.981   8.687 -3.7397  1.4953  0.4437
  571MOL0     H75316   5.449  10.869   8.719 -1.1253  2.0789  2.7057
  571MOL0     H75317   5.707  10.872   8.888 -0.4744 -1.0685  1.0431
  571MOL0     H75318   5.557  10.794   8.927 -0.5658 -0.9792 -0.9839
  571MOL0     H75319   5.423  11.013   8.920  0.0492  0.3984  0.0171
  571MOL0     H75320   5.556  11.101   8.896  0.9819 -2.3625 -4.4915
  571MOL0     H75321   5.537  10.924   9.145  2.6251 -0.4153  1.8859
  571MOL0     H75322   5.668  11.026   9.099  0.0059  0.9727  0.9601
  571MOL0     H75323   5.524  11.234   9.118  0.0690  0.4712  0.6860
  571MOL0     H75324   5.537  11.121   9.264  4.2013 -1.2534 -1.9345
  571MOL0     H75325   5.332  10.953   9.302 -0.2329  0.4105  0.1487
  571MOL0     H75326   5.101  10.894   9.359  1.0412 -0.1066  1.2017
  571MOL0     H75327   4.983  10.940   9.251  0.5302 -1.6707  0.1207
  571MOL0     H75328   4.933  11.143   9.359  1.8869 -0.4083 -1.8970
  571MOL0     H75329   5.081  11.135   9.470  0.6662 -3.0767  2.2401
  571MOL0     H75330   4.980  10.973   9.609  1.2420  1.5900  0.7275
  571MOL0     H75331   4.872  11.102   9.603  3.8466  1.0676  2.5943
  571MOL0     H75332   4.776  10.853   9.565 -1.0671 -2.4060 -2.1357
  571MOL0     H75333   4.873  10.849   9.421  0.7510  1.4873 -0.9174
  571MOL0     H75334   4.486  11.047   9.310 -1.0740 -2.6232  0.5513
  571MOL0     H75335   4.265  11.100   9.422  0.5003 -1.9208  0.7967
  571MOL0     H75336   4.121  11.052  10.041  2.5063  1.7354 -1.1465
  571MOL0     H75337   3.916  11.122  10.147  1.2943 -0.0223 -0.5093
  571MOL0     H75338   3.714  11.154  10.208  2.1673  0.0241 -0.8706
  571MOL0     H75339   3.673  11.083  10.055  3.9540  1.7988 -3.3700
  571MOL0     H75340   3.473  11.125  10.228 -0.4471  2.8182  4.3299
  571MOL0     H75341   3.454  11.195  10.074  2.1964  0.7767 -0.9482
  571MOL0     H75342   3.503  11.427  10.159  1.2638 -0.7137 -0.6651
  571MOL0     H75343   3.571  11.375  10.306  2.1335  0.8525 -2.1763
  571MOL0     H75344   3.358  11.260  10.368  1.0142 -2.3728 -3.5563
  571MOL0     H75345   3.347  11.435  10.356  0.2552 -0.7220  2.1585
  571MOL0     H75346   3.234  11.222  10.173 -0.2931 -0.0014 -0.3169
  571MOL0     H75347   3.294  11.371  10.101  0.0637  2.4086  1.2505
  571MOL0     H75348   3.139  11.505  10.199 -1.8726 -1.4532 -1.1340
  571MOL0     H75349   3.104  11.400  10.333 -3.7059  0.2646 -0.5112
  571MOL0     H75350   3.024  11.291  10.069  0.0654 -0.2628  0.4450
  571MOL0     H75351   2.962  11.255  10.231 -0.8596 -0.1348  0.1667
  571MOL0     H75352   2.885  11.505  10.250  2.1442 -0.2337 -0.0728
  571MOL0     H75353   2.790  11.412  10.154 -0.7055  1.7463 -1.3264
  571MOL0     H75354   3.825  11.393   9.827 -0.0347  0.5148  0.1726
  571MOL0     H75355   4.045  11.329   9.719 -1.9973 -4.4119 -2.9970
  571MOL0     H75356   4.437  11.049   9.799 -4.3261 -1.9438 -0.9631
  571MOL0     H75357   4.665  11.020   9.691  0.0735 -3.5601 -1.5563
  571MOL0     H75358   5.866  10.698   8.181  0.1073  0.6515  2.0237
  571MOL0     H75359   6.042  10.760   8.048  1.2391 -0.2018  2.9927
  571MOL0     H75360   6.264  10.960   7.811 -0.4433  1.0283 -0.5936
  571MOL0     H75361   6.503  10.956   7.719 -4.2527 -2.7443  0.5911
  571MOL0     H75362   6.813  11.185   7.888 -2.2735 -0.3759  1.0371
  571MOL0     H75363   6.743  11.329   7.795 -2.2582 -1.2759 -0.9514
  571MOL0     H75364   6.909  11.133   7.633 -1.2282 -0.7234  1.8702
  571MOL0     H75365   6.895  11.297   7.600  1.2072  0.8310 -0.5883
  571MOL0     H75366   7.109  11.311   7.686  0.1485  0.1635 -0.2692
  571MOL0     H75367   7.080  11.173   7.811 -0.2712  0.1164  0.6806
  571MOL0     H75368   6.936  11.437   7.852  1.3658  2.5794  0.6479
  571MOL0     H75369   6.977  11.307   7.968  1.2492 -0.0750  0.7287
  571MOL0     H75370   7.326  11.482   8.030 -0.3164  1.8093  0.6479
  571MOL0     H75371   6.562  11.354   7.865 -1.7998  1.4140 -2.3576
  571MOL0     H75372   6.345  11.350   7.946  2.2690  0.0610  2.0795
  572MOL0     O75373   8.478  10.462   2.861 -0.2034 -0.0073  0.4572
  572MOL0     C75374   8.488  10.585   2.873  0.2203 -0.7093 -0.2632
  572MOL0     O75375   8.382  10.671   2.900  0.0297 -0.3673  0.1697
  572MOL0     C75376   8.263  10.613   2.932  0.4766 -0.7334 -0.8706
  572MOL0     C75377   8.149  10.614   2.856  0.5147 -0.8869  0.8984
  572MOL0     C75378   8.024  10.569   2.905 -0.4609 -0.2253  0.0795
  572MOL0     C75379   8.013  10.516   3.034  0.7160  0.3308 -0.3034
  572MOL0     O75380   7.889  10.460   3.077 -0.8471 -0.0751 -0.3796
  572MOL0     C75381   7.871  10.369   3.187  0.5710  0.3437 -0.4947
  572MOL0     C75382   7.729  10.351   3.219  0.3590 -0.4395  0.0736
  572MOL0     C75383   7.713  10.255   3.346  0.3987  0.2505  0.1109
  572MOL0     C75384   7.744  10.114   3.312 -0.2904 -0.8847  0.3119
  572MOL0     C75385   7.878  10.079   3.367 -0.1417  0.4030  0.7046
  572MOL0     C75386   7.900  10.043   3.516  0.4167 -0.9350 -0.2640
  572MOL0     C75387   8.054  10.014   3.537 -0.2413  0.3256  0.2208
  572MOL0     C75388   8.155  10.119   3.526  0.0175 -0.7857  0.3400
  572MOL0     N75389   8.091  10.252   3.551 -0.1734 -0.3609 -0.6489
  572MOL0     C75390   8.026  10.294   3.670 -0.7889 -1.0291  0.1412
  572MOL0     C75391   7.999  10.431   3.645 -0.4089 -0.7946 -0.1002
  572MOL0     C75392   7.943  10.529   3.752 -0.1059  0.2595 -0.6412
  572MOL0     C75393   7.931  10.656   3.688 -0.2439  0.9234  0.1552
  572MOL0     C75394   7.886  10.746   3.802  0.1209 -0.5049  0.6459
  572MOL0     C75395   7.856  10.886   3.758 -0.5589 -0.1365  0.6265
  572MOL0     O75396   7.733  10.890   3.687  1.3781 -0.0837  0.1238
  572MOL0     C75397   7.702  11.019   3.649  0.2376  0.4249  0.3978
  572MOL0     C75398   7.566  11.030   3.625 -0.4972 -0.2050  0.7952
  572MOL0     C75399   7.508  11.159   3.599  0.8927 -0.0917  0.6344
  572MOL0     C75400   7.590  11.274   3.587 -0.0617 -0.4980  0.4083
  572MOL0     C75401   7.540  11.399   3.545  0.1014  0.1521 -0.3075
  572MOL0     O75402   7.410  11.402   3.526 -0.2168  0.5397  0.6109
  572MOL0     C75403   7.346  11.516   3.490  0.0012 -0.2854 -1.2056
  572MOL0     C75404   7.244  11.517   3.393  0.3506 -0.1577  0.4315
  572MOL0     C75405   7.179  11.640   3.361 -0.4099  0.1190 -0.7651
  572MOL0     C75406   7.209  11.756   3.429  0.4856  0.9218  0.2453
  572MOL0     O75407   7.148  11.874   3.385 -0.0715 -0.0850 -0.0200
  572MOL0     C75408   7.091  11.963   3.482 -0.5800 -0.6692  0.4338
  572MOL0     C75409   6.983  12.046   3.416 -0.3147 -0.1230  0.7953
  572MOL0     C75410   6.887  11.969   3.327  0.5094 -0.6176  0.4915
  572MOL0     C75411   6.769  12.062   3.273 -0.2035 -1.2478 -0.1297
  572MOL0     C75412   6.682  12.134   3.382 -0.8799 -0.2389  0.3302
  572MOL0     C75413   6.547  12.190   3.335 -0.2436 -0.2176  0.2055
  572MOL0     C75414   6.481  12.124   3.217 -0.4360 -0.3573  0.3477
  572MOL0     C75415   6.343  12.181   3.191 -0.1721 -0.6055 -0.0596
  572MOL0    Cl75416   6.351  12.354   3.134 -0.5015  0.0585  0.1150
  572MOL0     C75417   7.318  11.760   3.517  0.1835  0.1301  0.2099
  572MOL0     C75418   7.380  11.640   3.554  0.1582 -0.1403 -0.8008
  572MOL0     O75419   7.614  11.485   3.511  0.0464  0.0070 -0.2089
  572MOL0     C75420   7.727  11.256   3.610 -0.1454 -0.2405  0.0864
  572MOL0     C75421   7.782  11.131   3.631 -0.0995  0.8411  0.2747
  572MOL0     N75422   8.039  10.451   3.514  0.1313 -0.5983  0.2447
  572MOL0     N75423   8.089  10.345   3.453 -0.4833 -0.5938 -1.0935
  572MOL0     C75424   8.141  10.507   3.110 -0.1867 -0.2554 -0.1813
  572MOL0     C75425   8.261  10.558   3.063  0.1872 -0.4175  0.8565
  572MOL0     C75426   8.631  10.640   2.878  0.0360 -0.8215  0.0259
  572MOL0     C75427   8.752  10.559   2.870  0.4122 -0.3594 -0.2179
  572MOL0     C75428   8.876  10.629   2.887 -0.0223 -0.0692  0.0615
  572MOL0     C75429   8.884  10.763   2.909  0.3085  0.0215  0.9524
  572MOL0     O75430   9.014  10.809   2.913 -0.2676 -0.0510 -0.0313
  572MOL0     C75431   9.030  10.954   2.906  0.0476  0.1857 -0.6512
  572MOL0     C75432   9.176  10.985   2.885  0.0943  0.4668  0.6670
  572MOL0     C75433   9.220  11.131   2.924  0.5476  0.3821  0.1920
  572MOL0     C75434   9.164  11.238   2.828  0.8591 -0.4288 -0.1254
  572MOL0     C75435   9.168  11.368   2.898  0.3655 -0.5614 -0.2103
  572MOL0     C75436   9.177  11.475   2.955  1.3785 -0.1456  0.3486
  572MOL0     C75437   8.770  10.839   2.914 -0.3956  0.5655  0.5701
  572MOL0     C75438   8.645  10.776   2.901  1.2776 -0.2321  0.6054
  572MOL0     H75439   8.166  10.656   2.757  0.1103  0.6803  1.4503
  572MOL0     H75440   7.944  10.545   2.836 -0.5122 -1.8406  0.6568
  572MOL0     H75441   7.916  10.410   3.278 -3.0040 -1.1772  2.1727
  572MOL0     H75442   7.925  10.275   3.170 -1.1837 -0.8298  0.2463
  572MOL0     H75443   7.670  10.322   3.131 -2.7496  0.8055  1.5696
  572MOL0     H75444   7.685  10.449   3.243 -0.8134 -0.8319 -0.4053
  572MOL0     H75445   7.612  10.249   3.387  0.3887 -1.3233 -0.0536
  572MOL0     H75446   7.779  10.294   3.424 -1.5056  1.8390  0.9811
  572MOL0     H75447   7.674  10.040   3.352  0.0992 -0.6634  1.4332
  572MOL0     H75448   7.743  10.107   3.203 -2.3388 -1.2656  0.3303
  572MOL0     H75449   7.956  10.148   3.334  1.0530 -0.6048  1.3316
  572MOL0     H75450   7.903   9.984   3.319  0.1834 -1.1690  3.6838
  572MOL0     H75451   7.853   9.948   3.542 -1.8965  0.2766  0.2146
  572MOL0     H75452   7.861  10.125   3.577  1.9236 -1.2194  1.1642
  572MOL0     H75453   8.059   9.977   3.639  1.8056  3.4368  1.4069
  572MOL0     H75454   8.081   9.935   3.467 -2.4312  0.8108 -1.3056
  572MOL0     H75455   8.203  10.113   3.428 -0.5363  0.0500  0.0033
  572MOL0     H75456   8.239  10.114   3.596 -1.1901  0.9704  2.0238
  572MOL0     H75457   8.007  10.232   3.758  0.7793 -0.2416  1.0754
  572MOL0     H75458   8.025  10.536   3.823 -1.6852 -2.2985  1.6099
  572MOL0     H75459   7.849  10.499   3.800  1.7134  0.2686  3.2570
  572MOL0     H75460   7.853  10.645   3.613 -1.7054 -0.3554  1.7581
  572MOL0     H75461   8.027  10.689   3.646 -0.1080 -1.5047 -1.5928
  572MOL0     H75462   7.792  10.693   3.822 -1.4466  0.0620 -4.0038
  572MOL0     H75463   7.960  10.744   3.882  0.5077 -0.6341  0.2859
  572MOL0     H75464   7.937  10.923   3.694  0.4955 -0.2114  1.8713
  572MOL0     H75465   7.847  10.948   3.847 -1.8853 -0.8355  0.9975
  572MOL0     H75466   7.490  10.954   3.635 -0.3501 -0.3587  0.7585
  572MOL0     H75467   7.400  11.162   3.587  1.0815  2.7005 -1.5096
  572MOL0     H75468   7.221  11.429   3.334 -2.2673 -0.3676  1.6072
  572MOL0     H75469   7.096  11.653   3.291 -1.9010  1.0090  1.0682
  572MOL0     H75470   7.176  12.026   3.512 -0.5866 -1.8221  3.1968
  572MOL0     H75471   7.057  11.900   3.565 -0.8103 -0.4915  0.4754
  572MOL0     H75472   7.024  12.135   3.367  2.2827 -1.6618 -0.0792
  572MOL0     H75473   6.924  12.087   3.498  1.7111  2.4930  1.0699
  572MOL0     H75474   6.835  11.887   3.377 -1.0899  0.5756  0.8638
  572MOL0     H75475   6.935  11.943   3.232  1.9961  1.6513  0.5481
  572MOL0     H75476   6.809  12.133   3.200 -0.6336 -0.4451  0.4018
  572MOL0     H75477   6.709  11.996   3.210 -0.9637 -2.5539  1.8518
  572MOL0     H75478   6.743  12.212   3.427  0.1803 -1.0566  0.3561
  572MOL0     H75479   6.657  12.051   3.449 -0.5660  0.6056  1.5219
  572MOL0     H75480   6.574  12.291   3.303  2.2947 -1.0469 -0.4686
  572MOL0     H75481   6.473  12.186   3.415 -3.2459 -2.3987 -2.3962
  572MOL0     H75482   6.545  12.127   3.128 -0.0295 -0.8222  0.6146
  572MOL0     H75483   6.469  12.017   3.234  0.4051 -0.7469 -1.2763
  572MOL0     H75484   6.292  12.175   3.288 -0.8062  1.9269 -0.1591
  572MOL0     H75485   6.284  12.117   3.126 -2.9392  1.5117  0.1368
  572MOL0     H75486   7.347  11.852   3.568  0.9764  0.3691 -0.6386
  572MOL0     H75487   7.447  11.648   3.639  1.6892 -1.6527 -1.8092
  572MOL0     H75488   7.786  11.346   3.620  2.2354 -1.6436 -0.4301
  572MOL0     H75489   7.888  11.129   3.652 -0.2626  1.5964  1.2768
  572MOL0     H75490   8.139  10.469   3.211 -2.4268  3.2663  1.2860
  572MOL0     H75491   8.352  10.543   3.121  0.0896 -0.9350  0.8807
  572MOL0     H75492   8.741  10.451   2.861  0.3650 -0.4323  0.6650
  572MOL0     H75493   8.964  10.566   2.879 -0.3548 -0.5684  0.2373
  572MOL0     H75494   8.984  11.002   2.994  1.3122  7.3956 -3.2578
  572MOL0     H75495   8.973  10.991   2.821 -1.7195 -2.6637 -0.8637
  572MOL0     H75496   9.228  10.917   2.953 -0.1028  0.9236  1.2823
  572MOL0     H75497   9.214  10.974   2.783  0.6084  1.3281  0.7505
  572MOL0     H75498   9.328  11.151   2.924  0.9318 -1.4239 -1.1681
  572MOL0     H75499   9.183  11.147   3.026 -1.1697 -3.4516  0.3204
  572MOL0     H75500   9.208  11.224   2.728  0.9683 -0.1343 -0.1199
  572MOL0     H75501   9.061  11.204   2.817  0.2422  1.5982 -1.1202
  572MOL0     H75502   9.169  11.565   3.012 -0.6719 -1.0248  1.5371
  572MOL0     H75503   8.770  10.944   2.941 -2.2797  1.3548 -2.1670
  572MOL0     H75504   8.560  10.842   2.914  2.4335  0.8579  3.4824
  573MOL0     O75505   4.799  10.783   2.843  0.0332 -0.3584  0.0611
  573MOL0     C75506   4.700  10.722   2.879 -0.0566 -1.0323 -0.4468
  573MOL0     O75507   4.585  10.726   2.817  0.2946  0.2015 -0.2068
  573MOL0     C75508   4.541  10.756   2.687 -0.1249 -0.4888  0.1499
  573MOL0     C75509   4.630  10.778   2.582  0.4209 -0.1988 -0.0029
  573MOL0     C75510   4.577  10.805   2.452  0.3121  0.6973  0.0896
  573MOL0     C75511   4.443  10.811   2.422 -0.3285 -0.2539 -0.7766
  573MOL0     O75512   4.395  10.840   2.303  0.3928 -0.4750 -0.0632
  573MOL0     C75513   4.265  10.907   2.285  0.3239 -0.1952  0.4450
  573MOL0     C75514   4.268  11.055   2.337 -0.1910  0.5731  0.5934
  573MOL0     C75515   4.145  11.142   2.318  0.2620 -0.2148 -0.3214
  573MOL0     C75516   4.107  11.154   2.159  0.6871 -0.7541 -0.3934
  573MOL0     C75517   3.966  11.220   2.151 -0.2294  0.4715  0.2074
  573MOL0     C75518   3.895  11.175   2.021  0.1560  0.2984  0.4224
  573MOL0     C75519   3.773  11.267   2.005 -0.3289  0.2280  0.3789
  573MOL0     C75520   3.682  11.203   1.900  0.3104 -0.5586  0.3471
  573MOL0     N75521   3.602  11.317   1.842  0.2106 -0.2755 -0.1911
  573MOL0     C75522   3.623  11.382   1.724  0.7116  1.0557 -0.4202
  573MOL0     C75523   3.526  11.475   1.723  1.0276  0.1194 -0.3567
  573MOL0     C75524   3.484  11.567   1.613 -0.0669 -1.1885 -0.3780
  573MOL0     C75525   3.416  11.704   1.649  0.1046  0.3109 -0.7863
  573MOL0     C75526   3.377  11.773   1.518  0.0148 -0.4798 -0.7399
  573MOL0     C75527   3.295  11.910   1.544  0.7021  0.5553 -0.2383
  573MOL0     O75528   3.268  11.969   1.415  0.2634  0.3812  0.0468
  573MOL0     C75529   3.184  12.064   1.403 -0.0509 -0.5489 -0.6141
  573MOL0     C75530   3.166  12.174   1.496  0.3525 -0.2822 -0.2175
  573MOL0     C75531   3.078  12.276   1.455 -0.0287 -0.4714 -0.6741
  573MOL0     C75532   2.994  12.260   1.344 -0.0116 -0.1798  0.2871
  573MOL0     C75533   2.882  12.352   1.317  0.7794 -1.0764  0.1149
  573MOL0     O75534   2.881  12.467   1.383 -0.1584 -0.3792  0.0362
  573MOL0     C75535   2.779  12.555   1.388 -0.5921  0.4958  0.0325
  573MOL0     C75536   2.771  12.624   1.506  0.4716  0.4861 -0.0963
  573MOL0     C75537   2.696  12.739   1.519  0.5065  0.1903  0.0006
  573MOL0     C75538   2.596  12.774   1.431 -1.2388  0.1438  0.4977
  573MOL0     O75539   2.518  12.888   1.454  0.0726  1.2957  0.5221
  573MOL0     C75540   2.377  12.863   1.466  0.2605 -0.2621 -0.6069
  573MOL0     C75541   2.302  12.998   1.479  0.0295 -0.0412 -0.4723
  573MOL0     C75542   2.164  12.984   1.548  0.9032 -0.1634  0.3185
  573MOL0     C75543   2.112  13.127   1.579 -0.3543 -0.6028 -0.0407
  573MOL0     C75544   1.960  13.124   1.603 -0.1110  0.0391  0.1962
  573MOL0     C75545   1.894  13.259   1.613 -0.9532  0.0699  0.5583
  573MOL0     C75546   1.736  13.244   1.613 -0.3196  0.9035  0.4354
  573MOL0     C75547   1.698  13.223   1.758 -0.5626 -0.0184 -0.4672
  573MOL0    Cl75548   1.523  13.179   1.757  0.1651 -0.2264  0.4879
  573MOL0     C75549   2.591  12.695   1.308 -0.0172  0.4910 -0.3880
  573MOL0     C75550   2.683  12.584   1.296  0.6523  0.4212  1.1509
  573MOL0     O75551   2.796  12.320   1.229 -0.1969 -0.0763  0.4861
  573MOL0     C75552   3.010  12.149   1.255 -0.3577  0.3030  0.2944
  573MOL0     C75553   3.104  12.057   1.286 -0.3703 -0.4475 -0.0791
  573MOL0     N75554   3.456  11.470   1.851 -0.1617 -0.0073 -0.4028
  573MOL0     N75555   3.502  11.375   1.912  0.5600 -0.1181 -0.5433
  573MOL0     C75556   4.354  10.760   2.529 -0.0364  0.1946 -0.5070
  573MOL0     C75557   4.402  10.741   2.657 -0.1254  0.1939  0.5558
  573MOL0     C75558   4.713  10.638   3.001 -0.0404  0.1563  0.3288
  573MOL0     C75559   4.604  10.565   3.058 -0.3379  0.6039 -0.3494
  573MOL0     C75560   4.621  10.488   3.174  1.0173 -0.2170 -0.2012
  573MOL0     C75561   4.750  10.479   3.232 -0.5698  1.0617 -0.3719
  573MOL0     O75562   4.765  10.394   3.332 -0.3636  0.0203 -0.3982
  573MOL0     C75563   4.887  10.381   3.405  0.5841  0.3214  0.7052
  573MOL0     C75564   4.862  10.254   3.494 -0.0743  0.0022  0.4110
  573MOL0     C75565   4.801  10.302   3.625 -0.0870  0.0457  0.6043
  573MOL0     C75566   4.647  10.322   3.612 -0.5248  0.1403 -1.1028
  573MOL0     C75567   4.582  10.365   3.738  0.5801  0.0530 -0.0363
  573MOL0     C75568   4.537  10.398   3.850  0.4835 -0.6988  0.1405
  573MOL0     C75569   4.862  10.549   3.175 -0.6555 -0.0381 -0.1734
  573MOL0     C75570   4.841  10.623   3.056  0.2512  0.1483 -0.1536
  573MOL0     H75571   4.737  10.761   2.590  0.2205 -1.2369  0.7959
  573MOL0     H75572   4.633  10.838   2.365  0.6626  1.1218  0.4761
  573MOL0     H75573   4.183  10.847   2.326 -1.5995  2.6581  1.0540
  573MOL0     H75574   4.246  10.920   2.178 -0.6197 -3.2255  0.1533
  573MOL0     H75575   4.346  11.104   2.278 -2.1280  0.8380 -1.9067
  573MOL0     H75576   4.300  11.062   2.442  1.4633 -0.1248  0.1678
  573MOL0     H75577   4.148  11.239   2.368 -1.6123 -0.0974 -0.4026
  573MOL0     H75578   4.070  11.085   2.373 -0.7853  0.7611 -0.7209
  573MOL0     H75579   4.184  11.192   2.092  3.0389 -1.8338  1.5366
  573MOL0     H75580   4.089  11.054   2.120 -1.1709 -1.0841  1.1720
  573MOL0     H75581   3.984  11.327   2.138 -1.8152  0.9283  1.4449
  573MOL0     H75582   3.907  11.204   2.242  1.8158 -2.7527  1.1324
  573MOL0     H75583   3.875  11.068   2.034  3.6503 -0.6726 -0.9850
  573MOL0     H75584   3.964  11.186   1.937 -2.7560 -0.1775 -2.2504
  573MOL0     H75585   3.711  11.268   2.095 -1.9995 -0.6520 -0.6982
  573MOL0     H75586   3.797  11.370   1.977  0.8650 -0.5122 -1.5796
  573MOL0     H75587   3.614  11.127   1.940 -2.6781  0.6182 -2.0165
  573MOL0     H75588   3.744  11.158   1.822  0.4688  0.0711  0.1036
  573MOL0     H75589   3.685  11.351   1.640  0.6316  1.7001 -0.7222
  573MOL0     H75590   3.425  11.516   1.536 -3.4254  1.6251  0.0730
  573MOL0     H75591   3.573  11.595   1.556 -1.7012  3.7563 -0.9433
  573MOL0     H75592   3.484  11.774   1.697 -0.8075  2.4099 -2.3808
  573MOL0     H75593   3.324  11.690   1.706  0.4402  1.7382  0.1495
  573MOL0     H75594   3.463  11.783   1.451  0.8264 -2.4629 -0.0581
  573MOL0     H75595   3.306  11.708   1.465  0.5779 -0.1559 -1.9382
  573MOL0     H75596   3.370  11.971   1.595 -0.2251  2.5080 -1.1269
  573MOL0     H75597   3.213  11.893   1.614  2.2450 -1.7764  1.1363
  573MOL0     H75598   3.221  12.183   1.589  0.6851 -1.5885 -0.2775
  573MOL0     H75599   3.073  12.368   1.512 -2.9403 -0.2761 -1.1112
  573MOL0     H75600   2.832  12.600   1.593  2.0452 -0.3909 -1.3855
  573MOL0     H75601   2.695  12.792   1.614 -1.0057  0.2312 -0.0201
  573MOL0     H75602   2.361  12.794   1.550  1.1254  0.7842  0.4494
  573MOL0     H75603   2.336  12.816   1.376 -2.2730 -0.0306  0.3494
  573MOL0     H75604   2.278  13.038   1.380 -0.6512  2.3439  0.5858
  573MOL0     H75605   2.360  13.068   1.540  1.5726 -0.3870 -1.4928
  573MOL0     H75606   2.188  12.928   1.639 -0.5143  2.4017  2.4044
  573MOL0     H75607   2.082  12.932   1.496  2.8678 -0.2446 -2.9927
  573MOL0     H75608   2.163  13.181   1.659  0.1837 -0.2832 -0.5909
  573MOL0     H75609   2.132  13.177   1.483 -1.6642  2.8964  1.3548
  573MOL0     H75610   1.946  13.075   1.700  2.1452 -0.9662  0.0793
  573MOL0     H75611   1.917  13.062   1.524 -2.4159 -0.3467  1.6565
  573MOL0     H75612   1.924  13.304   1.518 -0.7747 -1.2181 -0.0159
  573MOL0     H75613   1.938  13.321   1.690 -0.4436 -0.4542  0.6978
  573MOL0     H75614   1.691  13.332   1.566 -0.1758 -0.0381 -1.5921
  573MOL0     H75615   1.706  13.159   1.550 -2.7859  3.7006 -2.5234
  573MOL0     H75616   1.719  13.309   1.821  1.4022 -1.2081  0.6160
  573MOL0     H75617   1.772  13.152   1.798  1.3548  2.8256  1.3628
  573MOL0     H75618   2.510  12.712   1.237  0.0641  2.7220 -0.0304
  573MOL0     H75619   2.684  12.543   1.195  5.2813 -2.1364  1.9705
  573MOL0     H75620   2.943  12.142   1.170  1.6052  0.1279 -1.3361
  573MOL0     H75621   3.112  11.969   1.224 -1.2943  0.7197 -1.9219
  573MOL0     H75622   4.251  10.738   2.501 -0.0578  2.3721 -2.4772
  573MOL0     H75623   4.343  10.702   2.740  0.0141 -1.5456 -0.1220
  573MOL0     H75624   4.508  10.565   3.009  0.4113  0.6546 -1.8700
  573MOL0     H75625   4.545  10.421   3.212  0.4572 -0.2597 -1.3536
  573MOL0     H75626   4.925  10.470   3.455  2.2753 -0.9147  1.7186
  573MOL0     H75627   4.967  10.359   3.333 -0.6934 -0.5880 -0.5088
  573MOL0     H75628   4.792  10.189   3.442 -0.3229  1.4445 -1.1537
  573MOL0     H75629   4.954  10.198   3.510 -0.2692 -0.1555  1.0087
  573MOL0     H75630   4.850  10.391   3.667 -1.9143  1.5951 -0.3614
  573MOL0     H75631   4.833  10.227   3.698  1.0650  0.2045  0.2860
  573MOL0     H75632   4.635  10.397   3.534  4.0093  0.6509 -1.5802
  573MOL0     H75633   4.603  10.224   3.590  0.3366 -0.7172  0.7223
  573MOL0     H75634   4.483  10.438   3.933 -0.2527 -3.5359  1.1612
  573MOL0     H75635   4.958  10.562   3.223 -0.0617  2.8573 -1.8790
  573MOL0     H75636   4.927  10.681   3.023  0.7697 -0.8281 -0.5647
  574MOL0     O75637   8.229   3.335   0.445 -0.1918  0.1584  0.9574
  574MOL0     C75638   8.273   3.370   0.553  0.6897  0.4868 -0.6679
  574MOL0     O75639   8.250   3.490   0.611 -0.4769 -0.4488  0.1708
  574MOL0     C75640   8.163   3.589   0.555  0.6157 -0.2711 -0.0163
  574MOL0     C75641   8.040   3.560   0.485 -0.7002  0.1179 -1.4701
  574MOL0     C75642   7.964   3.649   0.423  0.1570 -0.2593  0.1325
  574MOL0     C75643   8.011   3.780   0.429  0.4439 -0.1549 -0.1552
  574MOL0     O75644   7.924   3.877   0.392 -0.1064 -0.6329 -0.4158
  574MOL0     C75645   7.970   3.946   0.275 -0.5935  0.5266 -0.0157
  574MOL0     C75646   7.854   4.000   0.204 -0.4162  0.4040  0.1958
  574MOL0     C75647   7.775   3.893   0.131 -0.5499 -0.1391  0.2393
  574MOL0     C75648   7.645   3.956   0.086  0.1667  0.7811  0.5558
  574MOL0     C75649   7.547   3.849   0.029  0.0498  0.5689  0.1032
  574MOL0     C75650   7.434   3.923  -0.036 -0.7324 -0.9077  1.1482
  574MOL0     C75651   7.323   3.824  -0.070  0.3835  0.3964  0.2687
  574MOL0     C75652   7.239   3.860  -0.193  0.0843 -0.8140  0.2705
  574MOL0     N75653   7.149   3.756  -0.251 -0.8199  0.9162 -0.2826
  574MOL0     C75654   7.027   3.714  -0.203 -0.2746  1.5309  0.0650
  574MOL0     C75655   6.969   3.628  -0.291 -0.9998  1.1094 -1.0230
  574MOL0     C75656   6.835   3.551  -0.274 -0.4140  0.4578 -0.0088
  574MOL0     C75657   6.718   3.607  -0.352  1.4157  1.4210  0.2793
  574MOL0     C75658   6.723   3.595  -0.509  0.5811  0.0037 -0.7534
  574MOL0     C75659   6.588   3.636  -0.574 -0.3227  0.3613 -0.4891
  574MOL0     O75660   6.527   3.746  -0.511  0.2083  0.3201  0.4698
  574MOL0     C75661   6.396   3.781  -0.541 -0.5212  0.4709 -0.6501
  574MOL0     C75662   6.363   3.908  -0.498 -0.2087  0.3486  0.5656
  574MOL0     C75663   6.231   3.955  -0.514 -0.3628  0.2630  0.5505
  574MOL0     C75664   6.136   3.870  -0.572  0.2135 -1.2381 -1.3937
  574MOL0     C75665   6.000   3.919  -0.579  0.3533 -0.0388 -0.2216
  574MOL0     O75666   5.980   4.054  -0.557  0.3369  0.6550  0.0582
  574MOL0     C75667   5.852   4.108  -0.540 -0.2218 -0.0306 -0.5684
  574MOL0     C75668   5.755   4.059  -0.445  0.1228  0.6025 -1.7036
  574MOL0     C75669   5.636   4.122  -0.420  0.2638  0.3940  0.4967
  574MOL0     C75670   5.594   4.236  -0.496 -0.2218  0.2139  0.4982
  574MOL0     O75671   5.467   4.283  -0.481  0.2589 -0.0121 -0.5289
  574MOL0     C75672   5.451   4.406  -0.412 -0.4074  0.7337  0.4805
  574MOL0     C75673   5.429   4.528  -0.509 -0.2946 -0.2177  0.1441
  574MOL0     C75674   5.430   4.653  -0.431 -0.3269  0.0577 -0.1393
  574MOL0     C75675   5.406   4.774  -0.533 -1.0596  0.5584 -0.7790
  574MOL0     C75676   5.465   4.897  -0.459  0.2554 -0.0719 -0.1621
  574MOL0     C75677   5.452   5.022  -0.545 -0.1269  0.4810  0.0040
  574MOL0     C75678   5.469   5.144  -0.452 -0.6950 -0.1181  0.1016
  574MOL0     C75679   5.465   5.278  -0.530 -1.5148 -0.5512 -0.3311
  574MOL0    Cl75680   5.293   5.302  -0.580 -0.2005  0.1912  0.5129
  574MOL0     C75681   5.689   4.290  -0.587  0.9268 -0.5547 -0.3346
  574MOL0     C75682   5.821   4.232  -0.602  0.1975 -0.7919 -0.2568
  574MOL0     O75683   5.908   3.844  -0.609 -0.1467 -0.5371  0.1587
  574MOL0     C75684   6.173   3.747  -0.627  0.7070 -0.2943 -0.7114
  574MOL0     C75685   6.302   3.706  -0.619 -0.7449 -0.8946 -0.8160
  574MOL0     N75686   7.050   3.613  -0.402 -0.8751 -1.1818  1.0353
  574MOL0     N75687   7.156   3.686  -0.375 -0.8165 -0.0314 -0.0445
  574MOL0     C75688   8.129   3.819   0.495 -0.3844 -0.4196 -0.0589
  574MOL0     C75689   8.203   3.724   0.560  0.4958 -0.0920 -0.0119
  574MOL0     C75690   8.375   3.286   0.624  0.5281 -0.8239  0.0407
  574MOL0     C75691   8.437   3.340   0.734  0.4472  0.1061 -0.3788
  574MOL0     C75692   8.545   3.276   0.806  0.7596  0.2132  0.1825
  574MOL0     C75693   8.586   3.143   0.764  0.6088  0.3637  0.2508
  574MOL0     O75694   8.694   3.094   0.836  0.2842 -0.6561  0.3763
  574MOL0     C75695   8.738   2.972   0.792  0.9354  0.4610  0.6709
  574MOL0     C75696   8.863   2.932   0.880 -0.3259  0.0730 -0.6624
  574MOL0     C75697   8.955   2.846   0.793 -0.5826 -0.7763  0.1502
  574MOL0     C75698   9.096   2.845   0.856 -0.8306 -0.0137  0.0628
  574MOL0     C75699   9.118   2.762   0.970  0.6248 -0.7682 -0.5253
  574MOL0     C75700   9.162   2.691   1.054 -0.4417 -0.1420 -0.6688
  574MOL0     C75701   8.523   3.090   0.648  0.4189  0.6271  0.5783
  574MOL0     C75702   8.424   3.162   0.582  0.6103  0.3835  0.0523
  574MOL0     H75703   8.014   3.455   0.469  1.1177 -0.2944 -2.0092
  574MOL0     H75704   7.861   3.636   0.388 -0.9754  4.4774  1.0299
  574MOL0     H75705   8.040   3.884   0.219  0.0957  0.1765  1.1792
  574MOL0     H75706   8.030   4.030   0.313  3.0896 -1.7198 -0.4287
  574MOL0     H75707   7.894   4.073   0.134  1.4188  3.4640  4.0472
  574MOL0     H75708   7.806   4.061   0.281  1.4996  1.0678  0.9238
  574MOL0     H75709   7.755   3.815   0.206  1.3829  0.9242  1.9544
  574MOL0     H75710   7.829   3.854   0.045 -0.7404  1.3755 -0.5960
  574MOL0     H75711   7.603   4.011   0.170  2.2649  1.2257  1.3766
  574MOL0     H75712   7.673   4.019   0.001  0.8980  0.4311  0.5316
  574MOL0     H75713   7.526   3.777   0.109 -1.1673  1.8058  0.9340
  574MOL0     H75714   7.598   3.793  -0.050 -1.3874  0.8852 -1.0886
  574MOL0     H75715   7.483   3.959  -0.127 -1.7610 -0.7107  0.6568
  574MOL0     H75716   7.400   4.006   0.026  0.5287 -0.4075  1.1922
  574MOL0     H75717   7.364   3.728  -0.104 -3.0150 -0.9317 -0.5415
  574MOL0     H75718   7.264   3.813   0.022 -0.2326  2.6680  0.1945
  574MOL0     H75719   7.302   3.886  -0.279  1.2146  0.0994  1.3359
  574MOL0     H75720   7.189   3.953  -0.162  2.8648  0.3377  1.7132
  574MOL0     H75721   6.969   3.732  -0.113 -3.0080  1.4354 -1.5716
  574MOL0     H75722   6.819   3.562  -0.166  2.7338 -1.5360  0.8021
  574MOL0     H75723   6.872   3.449  -0.292  2.6575  1.5405 -0.4572
  574MOL0     H75724   6.708   3.711  -0.320  0.1941  0.9460  1.5843
  574MOL0     H75725   6.625   3.555  -0.327  2.7408 -2.0262 -1.3546
  574MOL0     H75726   6.803   3.663  -0.540  1.2388 -0.7130 -0.6670
  574MOL0     H75727   6.748   3.493  -0.539 -0.8822  0.0833 -2.4004
  574MOL0     H75728   6.522   3.550  -0.558  0.7752 -0.4066  0.0357
  574MOL0     H75729   6.612   3.661  -0.678 -0.8784  0.9475 -0.4798
  574MOL0     H75730   6.434   3.967  -0.442  0.6538  2.1856 -2.2333
  574MOL0     H75731   6.210   4.055  -0.476  4.1458  2.2386 -1.4909
  574MOL0     H75732   5.781   3.975  -0.381  1.5327  2.4137  0.2841
  574MOL0     H75733   5.574   4.062  -0.353  0.0105  0.0509 -0.0433
  574MOL0     H75734   5.537   4.428  -0.348 -0.7245  1.8809  0.5304
  574MOL0     H75735   5.367   4.399  -0.342  0.9415 -0.7089  2.0517
  574MOL0     H75736   5.333   4.505  -0.555 -0.9311  0.7546  0.9554
  574MOL0     H75737   5.501   4.523  -0.592  0.8693 -0.5040  1.1453
  574MOL0     H75738   5.532   4.665  -0.393  0.1330  1.5012 -1.6799
  574MOL0     H75739   5.354   4.650  -0.352  0.7459 -0.2699  0.9053
  574MOL0     H75740   5.460   4.763  -0.627  0.5869 -0.4637  0.2393
  574MOL0     H75741   5.298   4.786  -0.544 -1.3547 -0.7141  0.4584
  574MOL0     H75742   5.573   4.882  -0.446  0.1795 -0.9122 -0.4046
  574MOL0     H75743   5.411   4.905  -0.364 -0.1208 -0.1613 -0.3667
  574MOL0     H75744   5.352   5.026  -0.587 -1.6448  2.0063  3.3404
  574MOL0     H75745   5.531   5.026  -0.620  0.8100  0.0197  0.9423
  574MOL0     H75746   5.391   5.148  -0.376 -0.3430 -2.1638  0.6265
  574MOL0     H75747   5.567   5.140  -0.403 -0.2843  4.1682  0.0363
  574MOL0     H75748   5.534   5.268  -0.614  0.2287  2.8623  0.5198
  574MOL0     H75749   5.510   5.358  -0.470  2.5466 -1.9351 -1.2377
  574MOL0     H75750   5.655   4.375  -0.646  0.1575  0.8436  2.0168
  574MOL0     H75751   5.887   4.285  -0.669 -0.3250  1.2097  0.7355
  574MOL0     H75752   6.098   3.689  -0.681  1.5053  0.3912 -2.6474
  574MOL0     H75753   6.341   3.612  -0.659 -0.4011 -1.1613  0.1375
  574MOL0     H75754   8.166   3.920   0.512  0.9768 -1.0356  0.8071
  574MOL0     H75755   8.288   3.754   0.621 -0.3068 -0.3821  1.2709
  574MOL0     H75756   8.408   3.432   0.785  0.2175  1.3426 -2.6376
  574MOL0     H75757   8.598   3.323   0.888  0.9855 -0.8377  0.6549
  574MOL0     H75758   8.765   2.978   0.686  0.0870  0.8717  0.4658
  574MOL0     H75759   8.667   2.889   0.800  1.0351  0.5209  2.6611
  574MOL0     H75760   8.918   3.019   0.918  1.6802 -1.0444 -0.8571
  574MOL0     H75761   8.828   2.888   0.973  1.9912 -0.5848 -0.0264
  574MOL0     H75762   8.971   2.889   0.694  3.9644 -2.6178 -0.2045
  574MOL0     H75763   8.919   2.743   0.781 -3.3662  0.0462  0.9036
  574MOL0     H75764   9.174   2.806   0.789 -0.3985  0.2863  0.3842
  574MOL0     H75765   9.123   2.942   0.898  1.0573 -1.2778  2.0020
  574MOL0     H75766   9.214   2.625   1.119  1.2164 -1.2846 -2.9908
  574MOL0     H75767   8.559   2.994   0.614 -3.4811 -0.7517 -0.1354
  574MOL0     H75768   8.377   3.107   0.501  3.4400  0.1659 -1.5813
  575MOL0     O75769   2.793   4.422   7.575 -0.1797 -0.3302  0.2591
  575MOL0     C75770   2.866   4.379   7.660 -0.2478 -0.2699 -0.0346
  575MOL0     O75771   2.825   4.311   7.769 -0.2137  0.0107 -0.3915
  575MOL0     C75772   2.690   4.281   7.785  0.6273  0.8548  0.1156
  575MOL0     C75773   2.637   4.150   7.798 -0.3404  0.3514 -0.7548
  575MOL0     C75774   2.498   4.131   7.826  0.1123 -1.1084  0.7202
  575MOL0     C75775   2.398   4.234   7.823 -0.9835  0.2410  0.2483
  575MOL0     O75776   2.264   4.221   7.858 -0.7305  0.0001 -0.4029
  575MOL0     C75777   2.193   4.121   7.783  1.2794  0.4178  0.9565
  575MOL0     C75778   2.042   4.150   7.790  0.1867  0.3807  0.2724
  575MOL0     C75779   1.998   4.269   7.709 -0.2538 -0.1670 -0.0538
  575MOL0     C75780   1.859   4.306   7.742  1.2656  0.0778 -0.2984
  575MOL0     C75781   1.766   4.189   7.751 -0.4970  1.0897 -0.0611
  575MOL0     C75782   1.621   4.233   7.752 -0.4066  0.1466 -0.9207
  575MOL0     C75783   1.535   4.139   7.828 -0.2788 -0.0888 -0.7796
  575MOL0     C75784   1.403   4.208   7.852  0.4939  0.3960  0.2378
  575MOL0     N75785   1.301   4.127   7.925 -0.0997 -0.2783 -0.3779
  575MOL0     C75786   1.304   4.090   8.058  0.0861 -0.6709 -0.5959
  575MOL0     C75787   1.218   3.992   8.076  0.1231 -0.0210  1.0565
  575MOL0     C75788   1.183   3.933   8.204  0.3016  0.3627 -0.1607
  575MOL0     C75789   1.039   3.956   8.224  0.3365  0.2928  0.3567
  575MOL0     C75790   0.992   4.102   8.237  0.2097 -0.4291  0.6510
  575MOL0     C75791   0.848   4.106   8.259  0.9643  0.4049  0.8753
  575MOL0     O75792   0.784   4.080   8.126  0.4001 -0.1169 -0.7859
  575MOL0     C75793   0.647   4.103   8.120  0.5558  0.3554  0.8019
  575MOL0     C75794   0.556   4.145   8.211  0.1456 -0.3026  0.2140
  575MOL0     C75795   0.420   4.170   8.175 -0.0722  0.3252 -0.4970
  575MOL0     C75796   0.370   4.164   8.042 -0.8429  0.2849  0.5126
  575MOL0     C75797   0.237   4.206   8.004 -0.1703 -0.1636 -0.5614
  575MOL0     O75798   0.144   4.192   8.102  0.3847 -0.0653 -0.1333
  575MOL0     C75799   0.012   4.240   8.089 -0.4609  0.0433 -1.0105
  575MOL0     C75800  -0.090   4.158   8.124  0.0076  0.0927  0.2411
  575MOL0     C75801  -0.226   4.199   8.136 -0.3471  0.3701  0.4848
  575MOL0     C75802  -0.255   4.333   8.092 -0.3243  0.1073  0.8093
  575MOL0     O75803  -0.377   4.383   8.079  0.4951  0.1275 -0.0624
  575MOL0     C75804  -0.485   4.330   8.147 -0.9658 -0.6538 -0.2195
  575MOL0     C75805  -0.600   4.319   8.047 -0.1893  0.2875  0.1758
  575MOL0     C75806  -0.551   4.222   7.939 -0.1506  0.0397  0.2036
  575MOL0     C75807  -0.604   4.084   7.983  0.4192 -0.4569  0.8912
  575MOL0     C75808  -0.567   3.970   7.893  0.9101 -0.4711  0.4682
  575MOL0     C75809  -0.450   3.891   7.946  0.2535 -0.1877 -0.7306
  575MOL0     C75810  -0.408   3.780   7.850 -0.1920  0.3239  0.1758
  575MOL0     C75811  -0.275   3.703   7.882  0.3612 -0.8547  0.0108
  575MOL0    Cl75812  -0.225   3.575   7.763  0.0161 -0.2322  0.5538
  575MOL0     C75813  -0.147   4.424   8.062 -0.7727  0.0955  1.0572
  575MOL0     C75814  -0.014   4.368   8.053  0.0762 -0.9214 -0.0671
  575MOL0     O75815   0.226   4.279   7.908  0.5858  0.0991  0.1150
  575MOL0     C75816   0.458   4.113   7.946  0.6061  0.4117  0.1907
  575MOL0     C75817   0.590   4.088   7.988 -0.8700  0.3577 -0.2087
  575MOL0     N75818   1.167   3.965   7.942  0.1217 -0.7452 -0.2739
  575MOL0     N75819   1.211   4.050   7.859 -0.3816 -0.2172  0.7626
  575MOL0     C75820   2.453   4.362   7.793  0.8022  0.2438  0.6481
  575MOL0     C75821   2.591   4.382   7.788 -0.0793 -0.2095  0.4590
  575MOL0     C75822   3.019   4.385   7.641 -0.4809  0.4908  0.7583
  575MOL0     C75823   3.109   4.311   7.726 -0.7558  0.5488 -0.3649
  575MOL0     C75824   3.248   4.313   7.699 -0.3350 -0.3004  0.2699
  575MOL0     C75825   3.298   4.381   7.586  0.1686 -0.4843 -0.1797
  575MOL0     O75826   3.435   4.392   7.560  0.6311 -0.3593 -0.1070
  575MOL0     C75827   3.518   4.335   7.664  1.0913  0.3176  0.1385
  575MOL0     C75828   3.660   4.364   7.603 -0.1839 -0.0426 -0.9661
  575MOL0     C75829   3.771   4.317   7.703  0.6575 -0.5058 -0.1548
  575MOL0     C75830   3.760   4.364   7.843  0.6565 -0.2444  0.3155
  575MOL0     C75831   3.881   4.323   7.927  0.4109  0.7633 -0.3902
  575MOL0     C75832   3.982   4.296   7.993  0.5470  0.6123  0.4181
  575MOL0     C75833   3.209   4.455   7.508 -0.2235 -0.3124 -1.1005
  575MOL0     C75834   3.074   4.453   7.524 -0.3473 -0.1520 -0.5519
  575MOL0     H75835   2.705   4.067   7.814  0.5665  1.3324  0.7003
  575MOL0     H75836   2.477   4.025   7.833  1.3492 -1.3297  1.6551
  575MOL0     H75837   2.211   4.018   7.815 -4.0325 -0.0738  3.3478
  575MOL0     H75838   2.226   4.120   7.679 -3.5399  0.4543 -0.8489
  575MOL0     H75839   2.024   4.181   7.894  2.2881  2.3869  0.1139
  575MOL0     H75840   1.983   4.059   7.773  0.6477 -0.6800  3.5758
  575MOL0     H75841   2.012   4.221   7.612  1.2802  0.9604 -0.4184
  575MOL0     H75842   2.060   4.359   7.699 -1.3836  0.4310 -2.6244
  575MOL0     H75843   1.854   4.350   7.842 -2.1419  0.1519 -0.3970
  575MOL0     H75844   1.831   4.379   7.666  2.9132  0.1733 -0.8697
  575MOL0     H75845   1.780   4.112   7.828  0.5644  1.0190 -0.3194
  575MOL0     H75846   1.783   4.147   7.651  0.6298 -0.9027  0.9082
  575MOL0     H75847   1.591   4.256   7.650  2.7171 -1.5408 -2.3545
  575MOL0     H75848   1.617   4.329   7.805  1.6145  0.2567 -0.8901
  575MOL0     H75849   1.510   4.049   7.771 -1.6409 -0.1953 -0.0477
  575MOL0     H75850   1.573   4.109   7.926 -2.3751 -1.1722 -0.2413
  575MOL0     H75851   1.350   4.236   7.760 -1.3490  0.3901  1.2474
  575MOL0     H75852   1.412   4.306   7.901 -1.2715  2.4662 -3.1108
  575MOL0     H75853   1.354   4.148   8.135 -1.0954 -2.5467  1.7154
  575MOL0     H75854   1.251   3.963   8.285  1.6907 -1.3044 -0.6433
  575MOL0     H75855   1.210   3.827   8.211  0.9202  0.6258  2.4050
  575MOL0     H75856   0.998   3.896   8.306  2.4844 -0.2939  1.0965
  575MOL0     H75857   0.991   3.917   8.134 -0.7629  0.5929  0.8052
  575MOL0     H75858   1.045   4.149   8.320  2.5008  0.9282 -1.4413
  575MOL0     H75859   1.017   4.163   8.150  1.8384 -0.4635  1.0567
  575MOL0     H75860   0.828   4.209   8.290  1.5887  0.7884  0.0348
  575MOL0     H75861   0.816   4.030   8.331 -1.1662  0.5693  0.1567
  575MOL0     H75862   0.592   4.169   8.310  0.3030 -0.4290  0.1893
  575MOL0     H75863   0.359   4.193   8.262  0.4684  1.8779 -0.4933
  575MOL0     H75864  -0.056   4.056   8.141 -0.3737 -0.3566 -1.4454
  575MOL0     H75865  -0.298   4.121   8.158  1.1251 -1.5984 -1.2347
  575MOL0     H75866  -0.513   4.408   8.219  3.0881  4.8479 -3.7375
  575MOL0     H75867  -0.461   4.241   8.205 -1.0047 -1.8151 -1.9215
  575MOL0     H75868  -0.630   4.415   8.004 -0.6638 -0.6550 -1.7435
  575MOL0     H75869  -0.688   4.278   8.096  0.4942 -0.5117  0.7511
  575MOL0     H75870  -0.445   4.225   7.911 -0.6102 -1.2494 -1.9037
  575MOL0     H75871  -0.599   4.251   7.845  1.4939  0.9008 -0.4194
  575MOL0     H75872  -0.552   4.058   8.075  0.8922 -3.7885 -0.1939
  575MOL0     H75873  -0.712   4.078   8.001  0.0357 -2.1363 -1.4692
  575MOL0     H75874  -0.556   4.006   7.791  2.5732  0.4304  0.9299
  575MOL0     H75875  -0.647   3.895   7.890  1.6886 -1.4006  1.6481
  575MOL0     H75876  -0.471   3.855   8.047  1.8299 -0.8745 -0.6057
  575MOL0     H75877  -0.364   3.959   7.952 -1.2322  1.7088  0.3128
  575MOL0     H75878  -0.483   3.700   7.847  1.1025 -0.9102 -0.8599
  575MOL0     H75879  -0.414   3.825   7.750 -2.5614  0.6084  0.4083
  575MOL0     H75880  -0.291   3.653   7.978 -1.4685 -0.7322 -0.1864
  575MOL0     H75881  -0.194   3.776   7.894 -0.7731  0.2299  1.4786
  575MOL0     H75882  -0.164   4.526   8.029 -0.6792 -0.7790 -1.9657
  575MOL0     H75883   0.068   4.430   8.017 -1.1188 -0.6899 -2.5698
  575MOL0     H75884   0.419   4.100   7.846 -1.8153 -0.4907  1.1653
  575MOL0     H75885   0.662   4.046   7.920  0.2943 -0.3978  1.4351
  575MOL0     H75886   2.381   4.442   7.775  0.4384 -0.1414  0.3599
  575MOL0     H75887   2.629   4.480   7.762 -0.1022 -0.3170  0.0126
  575MOL0     H75888   3.067   4.244   7.800  2.4481  0.0721  1.1954
  575MOL0     H75889   3.310   4.244   7.755  1.8883  0.4646 -1.1259
  575MOL0     H75890   3.508   4.227   7.672 -2.2947  0.6641  3.2137
  575MOL0     H75891   3.505   4.378   7.764 -1.2544  0.9191 -0.3623
  575MOL0     H75892   3.659   4.313   7.506 -1.8622  2.3219 -2.3013
  575MOL0     H75893   3.679   4.471   7.596  1.1360  0.0141  2.0635
  575MOL0     H75894   3.873   4.332   7.666  1.2910  0.9486  1.9284
  575MOL0     H75895   3.757   4.209   7.705  1.5972 -0.6763 -1.5249
  575MOL0     H75896   3.752   4.473   7.845 -3.3655 -0.3158 -1.7314
  575MOL0     H75897   3.669   4.316   7.882  0.3679 -0.7341 -0.9125
  575MOL0     H75898   4.082   4.281   8.026  2.0022  3.0256 -2.3459
  575MOL0     H75899   3.257   4.518   7.432 -2.6199  1.3341 -1.3464
  575MOL0     H75900   3.007   4.511   7.461 -2.9286 -2.0984  0.1935
  576MOL0     O75901   3.502   8.351   3.737  0.1203  0.3083 -0.3751
  576MOL0     C75902   3.552   8.249   3.689  0.1524 -0.1547 -0.4246
  576MOL0     O75903   3.481   8.142   3.636  0.3533  0.6739  0.3898
  576MOL0     C75904   3.347   8.163   3.606  0.3289  0.7023  0.1286
  576MOL0     C75905   3.302   8.244   3.500 -0.0879 -0.0088 -0.8990
  576MOL0     C75906   3.166   8.240   3.475  0.8320 -0.8173 -0.6145
  576MOL0     C75907   3.073   8.169   3.551 -0.5498  0.5664  0.4306
  576MOL0     O75908   2.937   8.177   3.536  0.4268  0.4705  0.1978
  576MOL0     C75909   2.866   8.272   3.466  0.0140  0.6268  0.2969
  576MOL0     C75910   2.716   8.261   3.488  1.0479 -0.3932  0.4440
  576MOL0     C75911   2.635   8.337   3.377 -0.7072 -0.4109  0.5283
  576MOL0     C75912   2.489   8.285   3.358 -0.3389 -0.7288 -0.1156
  576MOL0     C75913   2.429   8.371   3.243  0.9384  0.6740 -0.2796
  576MOL0     C75914   2.328   8.283   3.162 -0.0648  0.4127 -1.5343
  576MOL0     C75915   2.238   8.362   3.073 -0.1093 -0.6228 -0.0658
  576MOL0     C75916   2.119   8.407   3.160 -0.3275  1.4197  0.1355
  576MOL0     N75917   2.040   8.300   3.220  0.2832  0.2759  0.5285
  576MOL0     C75918   1.996   8.196   3.146  0.5954  0.2228  0.2615
  576MOL0     C75919   1.939   8.112   3.239 -0.6741  0.2303 -0.6825
  576MOL0     C75920   1.878   7.977   3.205 -0.0204  0.1066  0.2004
  576MOL0     C75921   1.949   7.862   3.282 -0.3800  0.1035 -0.4216
  576MOL0     C75922   2.104   7.854   3.283 -0.4982  0.2746 -0.1575
  576MOL0     C75923   2.137   7.708   3.330  0.2256 -0.4104  0.1078
  576MOL0     O75924   2.207   7.710   3.451 -1.1861  0.1740 -0.4419
  576MOL0     C75925   2.343   7.720   3.442 -0.2796  0.5268  0.2859
  576MOL0     C75926   2.403   7.713   3.561  0.2925  0.6432 -0.1310
  576MOL0     C75927   2.541   7.739   3.583  0.0197  0.2158  0.1939
  576MOL0     C75928   2.625   7.767   3.470  1.1828  1.0346  0.1129
  576MOL0     C75929   2.769   7.766   3.484  0.1568  1.2656  0.3801
  576MOL0     O75930   2.848   7.710   3.384  0.0194  0.1378 -0.5163
  576MOL0     C75931   2.978   7.711   3.412  0.3163 -0.7000 -0.0431
  576MOL0     C75932   3.057   7.824   3.427 -0.2478 -0.2383  0.5126
  576MOL0     C75933   3.192   7.815   3.453  0.7668 -0.6292  0.9280
  576MOL0     C75934   3.260   7.690   3.466  0.2836 -0.0044 -0.7428
  576MOL0     O75935   3.390   7.687   3.496 -0.6349  0.1131  0.4731
  576MOL0     C75936   3.454   7.560   3.519  0.1704  0.2638  0.1533
  576MOL0     C75937   3.602   7.585   3.516  0.0842 -0.3767 -1.0019
  576MOL0     C75938   3.672   7.453   3.535 -1.3282 -0.6932 -0.3525
  576MOL0     C75939   3.828   7.467   3.555 -0.4936  0.1040 -0.2562
  576MOL0     C75940   3.872   7.549   3.676  0.3983 -0.0268  0.1574
  576MOL0     C75941   4.027   7.534   3.694 -0.1647 -0.8399 -0.5263
  576MOL0     C75942   4.094   7.671   3.657  0.2627  0.1794 -0.1130
  576MOL0     C75943   4.082   7.758   3.775  0.8775  0.9914  0.1101
  576MOL0    Cl75944   4.204   7.704   3.895 -0.6598  0.2131 -0.0884
  576MOL0     C75945   3.173   7.575   3.453  0.0258 -0.3751 -0.5443
  576MOL0     C75946   3.038   7.589   3.435  0.2320 -0.0019 -0.0133
  576MOL0     O75947   2.808   7.796   3.596 -0.0889  0.2494  0.4908
  576MOL0     C75948   2.561   7.780   3.348 -0.4622  0.5271 -0.0425
  576MOL0     C75949   2.421   7.754   3.332 -0.5797 -0.0467  0.0009
  576MOL0     N75950   1.961   8.169   3.361  0.1701 -0.0074 -0.6391
  576MOL0     N75951   2.011   8.287   3.348  0.1541  0.6050 -0.4109
  576MOL0     C75952   3.124   8.076   3.645  0.5294  0.4559  0.3978
  576MOL0     C75953   3.254   8.075   3.661 -0.3020  0.7631 -0.1327
  576MOL0     C75954   3.702   8.243   3.696  0.0656 -0.8281 -0.4954
  576MOL0     C75955   3.773   8.353   3.745 -0.0311  0.6174 -0.4024
  576MOL0     C75956   3.914   8.340   3.743 -0.3229 -0.0561  0.0044
  576MOL0     C75957   3.973   8.225   3.687  0.3395 -0.2682  0.1798
  576MOL0     O75958   4.108   8.223   3.668 -0.1900 -0.5362 -0.1871
  576MOL0     C75959   4.187   8.284   3.772 -0.3602 -0.3682 -0.4860
  576MOL0     C75960   4.328   8.218   3.786  0.2798  1.0597  0.6859
  576MOL0     C75961   4.313   8.062   3.821 -0.3564  0.6481  0.3445
  576MOL0     C75962   4.453   7.999   3.792 -0.2807  0.7996 -0.6802
  576MOL0     C75963   4.558   8.038   3.892  0.0373 -0.3484 -0.2759
  576MOL0     C75964   4.651   8.073   3.967  0.4491 -0.0802  0.6100
  576MOL0     C75965   3.899   8.119   3.636  0.3983  0.7047 -0.2303
  576MOL0     C75966   3.764   8.128   3.652 -0.8454  0.0229 -0.5800
  576MOL0     H75967   3.376   8.308   3.453  0.7805  1.1530  1.8504
  576MOL0     H75968   3.128   8.308   3.399 -0.6666  0.1335  0.8813
  576MOL0     H75969   2.878   8.249   3.360 -1.5767  0.1291  0.2056
  576MOL0     H75970   2.909   8.370   3.489  1.8690 -0.8413  3.9789
  576MOL0     H75971   2.685   8.287   3.590  0.2636  1.7368 -0.2907
  576MOL0     H75972   2.683   8.160   3.462 -1.0393  1.0948 -3.5610
  576MOL0     H75973   2.694   8.335   3.285 -3.1254  0.7312 -1.1550
  576MOL0     H75974   2.627   8.441   3.409  2.4365 -0.3624  1.5035
  576MOL0     H75975   2.477   8.179   3.335 -0.4195 -0.6034 -0.6667
  576MOL0     H75976   2.438   8.292   3.454  1.4660 -0.1568  0.8509
  576MOL0     H75977   2.499   8.430   3.182 -0.3675  3.5291  0.8008
  576MOL0     H75978   2.370   8.443   3.300  0.0982  0.1485 -0.4686
  576MOL0     H75979   2.282   8.200   3.218  2.4549 -0.9866 -1.4330
  576MOL0     H75980   2.387   8.230   3.088  0.0427 -0.4135 -0.8765
  576MOL0     H75981   2.287   8.454   3.042  0.8060 -1.0850 -0.0229
  576MOL0     H75982   2.198   8.298   2.994 -1.0234 -3.3799  2.4373
  576MOL0     H75983   2.054   8.471   3.100 -2.0789  0.0293  0.4880
  576MOL0     H75984   2.150   8.468   3.245 -0.7491  0.2530  1.1494
  576MOL0     H75985   2.023   8.185   3.042 -1.5195  0.7990 -0.3872
  576MOL0     H75986   1.881   7.963   3.097  2.3440 -0.6812  0.2944
  576MOL0     H75987   1.773   7.987   3.233 -0.1349 -0.2340 -0.1062
  576MOL0     H75988   1.900   7.766   3.262  1.3693 -1.4971  2.3565
  576MOL0     H75989   1.928   7.878   3.388 -0.2462  0.8264 -0.5043
  576MOL0     H75990   2.147   7.872   3.184  0.2644 -0.1837  0.0763
  576MOL0     H75991   2.146   7.925   3.356 -1.6737  1.6117 -0.7420
  576MOL0     H75992   2.193   7.668   3.245 -2.3507  0.4619 -2.1516
  576MOL0     H75993   2.046   7.648   3.340 -1.6962  2.5736  2.1890
  576MOL0     H75994   2.349   7.696   3.654  3.1264 -2.1109  1.2178
  576MOL0     H75995   2.580   7.724   3.683  0.6684 -1.0085 -0.2325
  576MOL0     H75996   3.025   7.927   3.413 -0.5489 -0.4086 -0.1079
  576MOL0     H75997   3.240   7.913   3.451  0.3434 -0.3970  1.9250
  576MOL0     H75998   3.427   7.493   3.437  0.8158  2.0678 -1.6343
  576MOL0     H75999   3.439   7.525   3.621 -0.0730 -0.3992 -0.1055
  576MOL0     H76000   3.616   7.652   3.601 -2.3035 -2.6985  1.3922
  576MOL0     H76001   3.633   7.634   3.423 -0.2230 -1.5474 -1.7539
  576MOL0     H76002   3.653   7.389   3.448  0.4717  0.5352 -1.7413
  576MOL0     H76003   3.634   7.417   3.631 -0.9497 -2.5525 -0.8615
  576MOL0     H76004   3.876   7.370   3.567 -2.0656 -0.5696  1.0752
  576MOL0     H76005   3.866   7.510   3.462 -0.2209 -1.0834 -0.7005
  576MOL0     H76006   3.810   7.513   3.759 -2.1226  1.4371 -0.9690
  576MOL0     H76007   3.837   7.650   3.654  1.1743  0.0060 -0.9963
  576MOL0     H76008   4.065   7.453   3.632  1.1235 -1.5900  1.1782
  576MOL0     H76009   4.041   7.505   3.799 -0.9539 -0.4837 -0.3103
  576MOL0     H76010   4.197   7.667   3.623  1.1807 -0.6709  2.5345
  576MOL0     H76011   4.042   7.716   3.572  0.3322  2.2010  0.8431
  576MOL0     H76012   3.981   7.751   3.816 -0.1963 -2.1482 -2.5994
  576MOL0     H76013   4.098   7.863   3.748 -2.0855  1.0475 -1.9528
  576MOL0     H76014   3.211   7.473   3.458  2.1664  0.3747 -0.4927
  576MOL0     H76015   2.979   7.499   3.426 -0.6230  0.6494 -1.2318
  576MOL0     H76016   2.619   7.791   3.256 -1.1025 -0.6146 -0.6054
  576MOL0     H76017   2.385   7.762   3.230  0.2960 -2.4191 -0.5471
  576MOL0     H76018   3.063   8.022   3.717 -1.0472  3.2716  1.3151
  576MOL0     H76019   3.281   8.015   3.747 -3.4333  0.7972  1.0088
  576MOL0     H76020   3.727   8.443   3.784 -0.4071 -0.1782  1.0700
  576MOL0     H76021   3.972   8.428   3.770 -0.4897  0.4915 -1.3260
  576MOL0     H76022   4.141   8.277   3.872 -2.3614  0.1403 -1.3202
  576MOL0     H76023   4.198   8.389   3.743  0.6560 -0.8251 -1.8205
  576MOL0     H76024   4.378   8.235   3.690  0.0849  2.6045  0.8224
  576MOL0     H76025   4.387   8.273   3.860  3.4370 -0.9133 -0.1708
  576MOL0     H76026   4.237   8.019   3.756  0.5480  0.1654 -0.4174
  576MOL0     H76027   4.290   8.057   3.928  1.5646  0.9608  0.8090
  576MOL0     H76028   4.437   7.890   3.794  1.4732  0.4787  2.8079
  576MOL0     H76029   4.497   8.010   3.693  1.3857 -1.1473 -0.2217
  576MOL0     H76030   4.735   8.121   4.015  0.4203  0.3802  0.2077
  576MOL0     H76031   3.945   8.031   3.592  0.1691  0.3926  0.1487
  576MOL0     H76032   3.698   8.049   3.617 -1.2130  0.0356  0.0687
  577MOL0     O76033   6.176   4.978   6.661 -0.8797  0.6315  0.6642
  577MOL0     C76034   6.077   4.990   6.584  0.1757  1.2095  0.4898
  577MOL0     O76035   6.072   5.027   6.445  0.3930 -0.6230  0.6303
  577MOL0     C76036   6.186   5.017   6.365  0.0547 -0.4215  0.4493
  577MOL0     C76037   6.184   5.071   6.228  0.1247  0.4463 -0.6043
  577MOL0     C76038   6.280   5.037   6.143 -0.1782  0.1562 -0.1141
  577MOL0     C76039   6.385   4.958   6.182  0.1481  0.1808 -0.7426
  577MOL0     O76040   6.482   4.927   6.094  0.7928  0.1671 -0.1831
  577MOL0     C76041   6.619   4.905   6.123 -0.4114  0.0987 -0.0849
  577MOL0     C76042   6.656   4.759   6.149  0.4373 -0.8389  0.8826
  577MOL0     C76043   6.803   4.728   6.144  0.2846 -0.5380  0.0230
  577MOL0     C76044   6.822   4.591   6.194 -0.1505 -0.4219  0.4565
  577MOL0     C76045   6.968   4.537   6.187 -0.0186  0.2396 -0.5000
  577MOL0     C76046   6.982   4.421   6.282 -0.8139 -0.5771 -0.1989
  577MOL0     C76047   7.127   4.368   6.285 -0.6452  0.1227  0.5575
  577MOL0     C76048   7.164   4.299   6.414 -0.7658  0.3106  0.6553
  577MOL0     N76049   7.097   4.159   6.423 -0.0226 -0.0213  0.0746
  577MOL0     C76050   6.968   4.140   6.455  0.4309  0.0503 -0.7680
  577MOL0     C76051   6.952   4.011   6.462 -0.7999  1.0558  0.3880
  577MOL0     C76052   6.825   3.952   6.487  0.7936 -0.5590 -0.2229
  577MOL0     C76053   6.739   3.963   6.362  0.5188  0.1857 -1.2970
  577MOL0     C76054   6.615   3.869   6.360  0.3688 -0.2126  0.5469
  577MOL0     C76055   6.559   3.852   6.215 -0.2438 -0.0529 -0.1768
  577MOL0     O76056   6.570   3.974   6.149 -0.0697  0.1300  0.8064
  577MOL0     C76057   6.480   3.990   6.052  0.5800  0.3630  0.4693
  577MOL0     C76058   6.521   3.960   5.924 -0.1493  0.1718 -0.4991
  577MOL0     C76059   6.428   3.977   5.812 -0.2435 -0.5783 -0.7304
  577MOL0     C76060   6.290   4.010   5.846 -0.1232 -0.4192 -0.1893
  577MOL0     C76061   6.186   4.027   5.739  0.1321 -0.7476 -0.2016
  577MOL0     O76062   6.195   3.960   5.625  0.3794  0.4819  0.7636
  577MOL0     C76063   6.080   3.934   5.545 -0.1787  0.4695  0.1988
  577MOL0     C76064   6.097   3.922   5.403 -0.0925 -0.0649 -0.2309
  577MOL0     C76065   5.983   3.914   5.317 -0.0793 -0.0244  0.5051
  577MOL0     C76066   5.852   3.880   5.370  0.2195  0.4643 -0.0952
  577MOL0     O76067   5.747   3.849   5.296  0.8630  0.0889  0.1477
  577MOL0     C76068   5.741   3.869   5.156 -0.2275  0.8250 -1.0964
  577MOL0     C76069   5.610   3.809   5.100  0.5108 -0.1990 -0.0876
  577MOL0     C76070   5.609   3.780   4.948 -0.7227 -0.3798  0.1769
  577MOL0     C76071   5.634   3.901   4.858 -0.2233  0.1034 -0.6234
  577MOL0     C76072   5.662   3.861   4.717  0.1637  0.6911  0.0964
  577MOL0     C76073   5.537   3.821   4.647  0.4405  0.3302  0.1962
  577MOL0     C76074   5.555   3.824   4.492  0.4256  0.5528  0.3478
  577MOL0     C76075   5.451   3.912   4.422  0.3668 -0.5100  0.2420
  577MOL0    Cl76076   5.291   3.877   4.486  0.2866 -0.0793  0.2377
  577MOL0     C76077   5.842   3.878   5.507 -0.8212  0.7851 -0.7943
  577MOL0     C76078   5.954   3.909   5.594  0.4018  0.4122 -0.0555
  577MOL0     O76079   6.088   4.077   5.789 -0.5114 -0.3600 -0.2119
  577MOL0     C76080   6.251   4.027   5.986  0.6118  0.7837 -0.1491
  577MOL0     C76081   6.347   4.026   6.089 -0.5667  0.2315  0.5879
  577MOL0     N76082   7.073   3.955   6.456  0.0693 -0.0164 -0.4586
  577MOL0     N76083   7.168   4.045   6.426 -0.2754  0.2061  0.5256
  577MOL0     C76084   6.387   4.904   6.313 -0.7900  0.7122  0.5723
  577MOL0     C76085   6.295   4.937   6.400  0.6357 -0.1277 -0.1047
  577MOL0     C76086   5.950   4.963   6.664  0.4258 -0.2906  1.1603
  577MOL0     C76087   5.939   4.948   6.801 -0.3362 -0.3091  0.5926
  577MOL0     C76088   5.827   4.932   6.881  0.0189 -0.0059  0.4642
  577MOL0     C76089   5.700   4.940   6.814 -0.1876  0.0510  0.3271
  577MOL0     O76090   5.578   4.930   6.876  0.0383  0.2745 -0.5097
  577MOL0     C76091   5.574   5.016   6.992 -0.1437 -0.2494  0.1621
  577MOL0     C76092   5.440   5.052   7.027  0.8996  0.3037  0.1859
  577MOL0     C76093   5.363   5.148   6.928  0.2967  0.3112 -0.0787
  577MOL0     C76094   5.414   5.291   6.947  0.0356  0.1243  0.0545
  577MOL0     C76095   5.368   5.377   6.837  0.1424  0.4729 -0.0009
  577MOL0     C76096   5.331   5.450   6.747  1.0078  0.4078  0.1737
  577MOL0     C76097   5.701   4.950   6.671  0.1003 -0.6488 -0.6209
  577MOL0     C76098   5.819   4.966   6.603 -0.4743 -0.0382  0.7955
  577MOL0     H76099   6.106   5.136   6.189  2.0451  2.4548 -1.3052
  577MOL0     H76100   6.299   5.077   6.043  0.7148  3.3914  1.2350
  577MOL0     H76101   6.649   4.974   6.202 -0.9578  0.5670 -0.2889
  577MOL0     H76102   6.671   4.943   6.035  1.1375  5.2865  2.6521
  577MOL0     H76103   6.613   4.691   6.075 -1.0461 -4.0616  4.4184
  577MOL0     H76104   6.613   4.727   6.244  0.0973 -1.9052  0.3817
  577MOL0     H76105   6.865   4.798   6.201 -0.1658  1.7988 -2.1308
  577MOL0     H76106   6.837   4.733   6.040  0.5924 -0.0907  0.1391
  577MOL0     H76107   6.789   4.590   6.299 -1.5211 -1.6213  0.0488
  577MOL0     H76108   6.770   4.515   6.135  0.3282  0.1733 -0.7467
  577MOL0     H76109   7.043   4.616   6.203 -0.5156  0.6438 -0.1419
  577MOL0     H76110   6.972   4.490   6.088  2.0810  0.0589 -0.3865
  577MOL0     H76111   6.912   4.341   6.255 -0.5832 -0.8203 -0.0720
  577MOL0     H76112   6.953   4.452   6.383  0.7411 -0.4136  0.2272
  577MOL0     H76113   7.141   4.310   6.193  1.6774 -0.3876  1.1816
  577MOL0     H76114   7.194   4.451   6.260 -1.7735  0.3995 -1.9321
  577MOL0     H76115   7.135   4.368   6.494  1.0263  0.5364  1.1701
  577MOL0     H76116   7.273   4.290   6.423 -0.5192  0.8770 -1.3197
  577MOL0     H76117   6.892   4.217   6.467 -2.0385 -2.2475 -0.8185
  577MOL0     H76118   6.777   4.011   6.566  0.4151 -2.9805  1.4648
  577MOL0     H76119   6.828   3.847   6.518  0.8876 -0.3953  0.3445
  577MOL0     H76120   6.814   3.938   6.286  1.2705 -0.1031 -0.4784
  577MOL0     H76121   6.702   4.065   6.348 -0.7715  0.4210  2.6363
  577MOL0     H76122   6.651   3.775   6.403  1.2498  0.5789  1.6114
  577MOL0     H76123   6.539   3.906   6.430  0.9613 -0.9198  1.5951
  577MOL0     H76124   6.456   3.817   6.215 -1.5191  3.0503  3.3638
  577MOL0     H76125   6.630   3.779   6.175  1.8208  2.3942 -1.2580
  577MOL0     H76126   6.624   3.938   5.899 -0.4714 -1.6546 -0.3245
  577MOL0     H76127   6.473   3.963   5.714  1.5870 -1.1236  0.1516
  577MOL0     H76128   6.194   3.922   5.356  0.5855  0.9691  1.1130
  577MOL0     H76129   6.008   3.927   5.212  0.6133  4.2500  1.0141
  577MOL0     H76130   5.833   3.821   5.122 -1.0189 -1.6490  0.0231
  577MOL0     H76131   5.738   3.976   5.132  0.1172  1.0463 -0.1849
  577MOL0     H76132   5.529   3.878   5.124 -1.6659 -2.5299 -0.3923
  577MOL0     H76133   5.579   3.719   5.152 -1.0869  1.0466  1.2215
  577MOL0     H76134   5.513   3.736   4.920 -0.0677 -0.4192 -2.2055
  577MOL0     H76135   5.679   3.701   4.918 -1.9381 -0.7292 -1.8728
  577MOL0     H76136   5.543   3.961   4.871 -0.4929 -0.2275 -0.9763
  577MOL0     H76137   5.717   3.959   4.902 -0.5425  0.4561 -0.4803
  577MOL0     H76138   5.729   3.775   4.719 -1.6837 -0.8100  1.8200
  577MOL0     H76139   5.718   3.944   4.672  1.5932 -0.4257 -0.2753
  577MOL0     H76140   5.468   3.901   4.672  2.0580  1.1748  2.3501
  577MOL0     H76141   5.508   3.722   4.684  1.8665 -0.7840 -1.5235
  577MOL0     H76142   5.655   3.858   4.464  1.3031 -0.4161  2.2082
  577MOL0     H76143   5.555   3.722   4.452 -1.3189  0.9114 -0.7041
  577MOL0     H76144   5.455   3.899   4.314  1.0336  0.3042  0.1542
  577MOL0     H76145   5.470   4.016   4.449 -1.0922 -0.1146 -0.1856
  577MOL0     H76146   5.751   3.847   5.557  0.2071  1.7820  1.8947
  577MOL0     H76147   5.929   3.908   5.700 -1.6025  0.7608 -0.4902
  577MOL0     H76148   6.155   4.055   6.028  1.8496  1.3809  2.5179
  577MOL0     H76149   6.317   4.029   6.193  1.8865  1.0703  1.3328
  577MOL0     H76150   6.473   4.846   6.344  0.1819  1.2984 -0.9231
  577MOL0     H76151   6.325   4.912   6.502 -0.6357  2.5789  1.0399
  577MOL0     H76152   6.034   4.960   6.852 -1.0604  2.3000  1.5103
  577MOL0     H76153   5.835   4.928   6.989 -1.4485 -1.4464  0.5482
  577MOL0     H76154   5.637   5.105   6.989 -1.5216  0.7438 -0.9375
  577MOL0     H76155   5.602   4.949   7.073 -0.8595 -1.8477 -0.8666
  577MOL0     H76156   5.375   4.965   7.042 -0.9100  1.7008  0.8391
  577MOL0     H76157   5.444   5.106   7.122 -0.6859 -0.4633  0.7340
  577MOL0     H76158   5.255   5.144   6.949  0.1956  0.3308 -0.5889
  577MOL0     H76159   5.383   5.100   6.831  0.6450 -1.0326  0.6305
  577MOL0     H76160   5.379   5.328   7.044 -1.2400 -1.3589  0.1948
  577MOL0     H76161   5.521   5.305   6.960  0.6057  1.7244 -4.7258
  577MOL0     H76162   5.304   5.512   6.664 -0.0636 -0.3527 -0.0655
  577MOL0     H76163   5.605   4.939   6.621 -1.7260  0.6230  2.2894
  577MOL0     H76164   5.818   4.970   6.495 -3.2040 -2.9524  0.5381
  578MOL0     O76165   9.314  10.659  10.853 -0.1033  0.1775  0.2809
  578MOL0     C76166   9.389  10.730  10.915 -0.6858  0.0854 -0.6314
  578MOL0     O76167   9.353  10.827  10.998 -0.3410  0.0629  0.1336
  578MOL0     C76168   9.219  10.864  10.999  0.6926  1.1166 -0.3731
  578MOL0     C76169   9.150  10.875  11.119  0.2816  1.3435 -0.1795
  578MOL0     C76170   9.012  10.911  11.118  0.0717 -0.2069  0.5590
  578MOL0     C76171   8.940  10.920  11.001 -0.7924 -0.5004  0.6313
  578MOL0     O76172   8.802  10.934  10.999 -0.5433  0.4608  0.0007
  578MOL0     C76173   8.757  11.049  11.067 -0.1137 -0.9200 -0.0489
  578MOL0     C76174   8.614  11.079  11.005  0.1712  0.5102  0.4047
  578MOL0     C76175   8.640  11.116  10.859  0.7550  0.3773 -0.2707
  578MOL0     C76176   8.514  11.167  10.791  0.2850 -0.7950 -0.1638
  578MOL0     C76177   8.531  11.212  10.644  0.2663 -0.8856 -0.7493
  578MOL0     C76178   8.402  11.234  10.571  0.1279 -0.3312 -0.0094
  578MOL0     C76179   8.306  11.337  10.628  0.3285  0.3649 -0.1587
  578MOL0     C76180   8.366  11.473  10.655 -0.7466 -0.3874  0.5820
  578MOL0     N76181   8.262  11.554  10.729 -0.1806  0.2505 -0.1641
  578MOL0     C76182   8.163  11.612  10.658 -0.2731 -0.5121 -0.0704
  578MOL0     C76183   8.103  11.695  10.737  0.2029 -0.1016 -0.3502
  578MOL0     C76184   7.979  11.791  10.733  0.3183  1.0084 -0.0459
  578MOL0     C76185   7.897  11.775  10.866  1.0353 -0.8731 -0.1966
  578MOL0     C76186   7.841  11.643  10.916  1.1982 -1.0818  0.9665
  578MOL0     C76187   7.759  11.568  10.815 -0.3798 -0.2593 -0.1725
  578MOL0     O76188   7.711  11.460  10.891 -0.4506  0.5508 -0.0366
  578MOL0     C76189   7.588  11.471  10.947  1.0467 -0.3650  0.1277
  578MOL0     C76190   7.563  11.403  11.064  0.6413 -0.3346 -0.4278
  578MOL0     C76191   7.446  11.410  11.136  0.1440  0.4580 -0.2866
  578MOL0     C76192   7.345  11.488  11.092 -0.1266  0.2656  1.0063
  578MOL0     C76193   7.236  11.517  11.177  0.0120 -0.1653  0.2882
  578MOL0     O76194   7.248  11.492  11.313  0.5233  0.7726  0.1457
  578MOL0     C76195   7.136  11.504  11.400 -0.2686  0.1556  0.7180
  578MOL0     C76196   7.061  11.390  11.424  0.2748  1.1544 -0.4002
  578MOL0     C76197   6.944  11.384  11.507  0.1017  0.3999 -0.6139
  578MOL0     C76198   6.913  11.502  11.567 -0.5959 -0.0234 -1.1066
  578MOL0     O76199   6.799  11.491  11.644  0.6936  0.0860  0.1136
  578MOL0     C76200   6.786  11.577  11.756  0.0439 -0.8338 -0.3873
  578MOL0     C76201   6.708  11.541  11.871 -0.3529 -0.0811  0.7491
  578MOL0     C76202   6.560  11.508  11.842  0.0637 -1.3890  0.0788
  578MOL0     C76203   6.486  11.491  11.974 -0.2400  0.7707 -0.5419
  578MOL0     C76204   6.331  11.478  11.972  1.1677 -0.1450 -0.3719
  578MOL0     C76205   6.273  11.347  11.911  0.6144 -1.1385  0.6900
  578MOL0     C76206   6.116  11.352  11.928 -0.3413 -0.5743 -0.5577
  578MOL0     C76207   6.051  11.232  11.856 -0.6309 -0.6119  0.3695
  578MOL0    Cl76208   6.050  11.260  11.679  0.0895 -0.0361  0.0805
  578MOL0     C76209   7.000  11.614  11.559  0.5067 -0.3578 -0.0832
  578MOL0     C76210   7.107  11.618  11.480 -0.6129  0.0150 -0.1763
  578MOL0     O76211   7.130  11.533  11.116 -0.4730  0.1065 -0.6117
  578MOL0     C76212   7.358  11.553  10.968  0.2042 -0.1609 -0.4666
  578MOL0     C76213   7.480  11.548  10.896 -0.8905 -0.3605  0.6509
  578MOL0     N76214   8.171  11.690  10.862  0.3789 -0.3390 -0.1533
  578MOL0     N76215   8.265  11.599  10.858 -0.5859  0.1955  0.5605
  578MOL0     C76216   9.013  10.895  10.886 -0.0333 -0.0469  0.5213
  578MOL0     C76217   9.151  10.887  10.883 -0.7162 -0.0810 -1.0224
  578MOL0     C76218   9.535  10.714  10.895 -0.3317  0.3843  0.7112
  578MOL0     C76219   9.575  10.617  10.800 -0.3552 -0.6588  0.6015
  578MOL0     C76220   9.713  10.600  10.762 -0.1715  0.2484 -0.6397
  578MOL0     C76221   9.818  10.669  10.835 -0.5899  0.3858  0.7529
  578MOL0     O76222   9.955  10.649  10.808 -0.1742 -0.6053  0.6703
  578MOL0     C76223  10.052  10.748  10.842 -0.9627 -0.4352 -1.0217
  578MOL0     C76224  10.121  10.713  10.974 -0.1356  0.9268  0.3818
  578MOL0     C76225  10.224  10.808  11.025 -0.4692  0.8217  0.7148
  578MOL0     C76226  10.284  10.751  11.144 -0.5207 -0.2817 -0.7659
  578MOL0     C76227  10.387  10.841  11.208  0.0061  0.2009 -0.6234
  578MOL0     C76228  10.464  10.929  11.247 -0.1637  0.1119 -0.0712
  578MOL0     C76229   9.773  10.745  10.949 -0.1865  0.9148 -0.2613
  578MOL0     C76230   9.637  10.766  10.979 -0.2579  0.1959  1.1162
  578MOL0     H76231   9.206  10.856  11.210 -0.9828  1.1397  0.5782
  578MOL0     H76232   8.963  10.915  11.215 -1.7179 -0.0050 -0.3143
  578MOL0     H76233   8.837  11.123  11.063  1.7448 -2.8630 -1.3070
  578MOL0     H76234   8.743  11.030  11.174 -0.6462  1.1589  0.2962
  578MOL0     H76235   8.569  11.168  11.050 -1.8562 -0.5386  0.5769
  578MOL0     H76236   8.541  11.001  11.031 -0.6103  1.4290  1.0196
  578MOL0     H76237   8.679  11.030  10.803  0.3725  0.5580 -0.8227
  578MOL0     H76238   8.720  11.191  10.848  1.5339 -0.6141 -1.6353
  578MOL0     H76239   8.447  11.080  10.791 -0.5108 -0.1946  0.1980
  578MOL0     H76240   8.471  11.253  10.844 -2.1650  0.4054 -3.7069
  578MOL0     H76241   8.590  11.134  10.596  1.0282 -1.6045  1.2661
  578MOL0     H76242   8.600  11.297  10.643 -0.1848 -0.4418  1.2880
  578MOL0     H76243   8.337  11.147  10.570 -0.9594  0.4416  0.5902
  578MOL0     H76244   8.431  11.267  10.471 -2.3462 -2.7700 -1.6489
  578MOL0     H76245   8.220  11.347  10.561 -0.2318 -1.5414  0.2239
  578MOL0     H76246   8.265  11.295  10.719  0.2679 -0.4078 -0.5323
  578MOL0     H76247   8.386  11.525  10.561 -4.4686 -0.3292 -0.3199
  578MOL0     H76248   8.457  11.482  10.715  1.3029 -0.2350 -2.3275
  578MOL0     H76249   8.168  11.599  10.550  3.6168 -1.5922  0.1043
  578MOL0     H76250   7.918  11.772  10.645  4.8267  1.0141 -3.5353
  578MOL0     H76251   8.013  11.894  10.721 -3.4236  2.5020  0.8152
  578MOL0     H76252   7.807  11.837  10.859  1.0841 -1.0260 -3.2830
  578MOL0     H76253   7.942  11.824  10.953  0.2921 -3.4015  1.7533
  578MOL0     H76254   7.928  11.591  10.957  0.4794 -1.9991  1.3608
  578MOL0     H76255   7.776  11.671  10.999 -0.2411 -1.5923  0.0331
  578MOL0     H76256   7.825  11.530  10.737 -1.5000  1.4454 -2.0710
  578MOL0     H76257   7.689  11.635  10.764  0.3915  0.2248 -0.6225
  578MOL0     H76258   7.644  11.358  11.120 -1.8124 -1.1707  2.7659
  578MOL0     H76259   7.439  11.371  11.236 -0.7021 -2.8360 -1.5156
  578MOL0     H76260   7.092  11.301  11.370 -2.0564  0.6636 -1.0442
  578MOL0     H76261   6.874  11.301  11.509  0.3209  0.2388  0.7417
  578MOL0     H76262   6.728  11.659  11.712 -3.8644 -1.6879  2.6099
  578MOL0     H76263   6.883  11.619  11.783  0.3586 -0.1998 -2.3128
  578MOL0     H76264   6.709  11.625  11.941 -1.7134 -1.3313  2.3672
  578MOL0     H76265   6.762  11.454  11.911 -0.9573 -0.6079  0.4426
  578MOL0     H76266   6.557  11.419  11.778  1.0552 -0.6005 -1.0874
  578MOL0     H76267   6.507  11.579  11.778 -2.6310 -2.6135  0.7640
  578MOL0     H76268   6.529  11.411  12.036  0.1823  0.4235 -1.2755
  578MOL0     H76269   6.498  11.583  12.031 -3.7019  0.6704  0.5565
  578MOL0     H76270   6.287  11.564  11.920  1.0171 -0.2048 -0.3440
  578MOL0     H76271   6.285  11.488  12.071 -0.4410 -3.9392 -0.5607
  578MOL0     H76272   6.307  11.254  11.955  1.8492 -1.4551 -0.8714
  578MOL0     H76273   6.299  11.343  11.805 -1.6326 -0.4315  0.0538
  578MOL0     H76274   6.094  11.331  12.033  0.8947 -0.9088 -0.3451
  578MOL0     H76275   6.079  11.446  11.885  4.0526  1.0470 -1.3995
  578MOL0     H76276   5.952  11.208  11.897 -0.3601 -2.5228  0.0313
  578MOL0     H76277   6.113  11.142  11.864 -1.3566 -1.1145  0.5199
  578MOL0     H76278   6.981  11.705  11.615  0.8586 -0.6910  0.5834
  578MOL0     H76279   7.180  11.698  11.469  1.2851 -1.0401  3.2116
  578MOL0     H76280   7.289  11.621  10.918  1.5759 -0.8465 -3.5166
  578MOL0     H76281   7.492  11.602  10.803  1.7278 -0.6884  0.7409
  578MOL0     H76282   8.950  10.900  10.798 -0.1971 -1.2450  0.5486
  578MOL0     H76283   9.204  10.889  10.788  0.9138 -0.9070 -0.1658
  578MOL0     H76284   9.503  10.575  10.730 -2.1783  1.7866  0.8563
  578MOL0     H76285   9.732  10.539  10.674  2.4908  0.1083 -0.0463
  578MOL0     H76286  10.005  10.847  10.834  0.0750 -0.0745 -3.6371
  578MOL0     H76287  10.124  10.745  10.760 -0.7939  0.5777 -0.9203
  578MOL0     H76288  10.046  10.718  11.053  0.0443 -2.8510  0.9733
  578MOL0     H76289  10.162  10.612  10.961 -1.4867  0.5064 -0.9288
  578MOL0     H76290  10.175  10.905  11.037 -1.1745  0.6678 -0.7107
  578MOL0     H76291  10.296  10.822  10.943 -1.2320 -1.9259 -0.5434
  578MOL0     H76292  10.213  10.720  11.221  0.5983 -0.1939  0.3294
  578MOL0     H76293  10.337  10.658  11.122 -0.3344 -1.1805  2.8541
  578MOL0     H76294  10.521  11.007  11.293  0.4005  0.9350 -2.0761
  578MOL0     H76295   9.855  10.793  11.001  1.3829 -0.3811 -1.4310
  578MOL0     H76296   9.622  10.825  11.069 -0.7710 -0.9437  1.8018
  579MOL0     O76297   2.973   5.886   4.238  0.1523 -0.4119 -0.2421
  579MOL0     C76298   3.011   5.791   4.300  0.5354  0.0559 -0.0309
  579MOL0     O76299   3.056   5.784   4.434  0.5208  0.1604 -0.5484
  579MOL0     C76300   3.077   5.909   4.490 -0.2546  0.4983 -0.1963
  579MOL0     C76301   3.203   5.948   4.496 -0.3447 -0.9250  1.0760
  579MOL0     C76302   3.234   6.072   4.543  0.2718  0.1469  0.1190
  579MOL0     C76303   3.145   6.162   4.585 -0.5157  0.1920 -0.8458
  579MOL0     O76304   3.211   6.272   4.625  0.7139 -0.1899  0.1618
  579MOL0     C76305   3.146   6.400   4.633  0.3417  0.1831  0.3237
  579MOL0     C76306   3.238   6.486   4.714  1.0295  0.1643 -0.2832
  579MOL0     C76307   3.248   6.434   4.856 -0.2034  0.0943 -0.9042
  579MOL0     C76308   3.263   6.544   4.961 -0.4668 -0.8482  0.1960
  579MOL0     C76309   3.365   6.655   4.927  0.0358  0.2719  0.0643
  579MOL0     C76310   3.455   6.680   5.050  0.7315 -0.3344  0.6155
  579MOL0     C76311   3.559   6.788   5.012  0.4086 -0.1285 -0.6001
  579MOL0     C76312   3.639   6.830   5.135  0.1243 -0.8056  0.3821
  579MOL0     N76313   3.549   6.910   5.230 -0.1215  0.2972 -0.1457
  579MOL0     C76314   3.480   7.020   5.185 -0.1925  0.3591 -1.4373
  579MOL0     C76315   3.430   7.061   5.308 -0.3992 -0.6646  0.6995
  579MOL0     C76316   3.346   7.180   5.347 -0.2912  0.3952  0.7670
  579MOL0     C76317   3.215   7.138   5.413 -0.4161  0.9892 -0.2744
  579MOL0     C76318   3.112   7.077   5.313 -0.9038  0.6345 -0.1962
  579MOL0     C76319   2.976   7.052   5.376  0.3675 -1.0773  0.0110
  579MOL0     O76320   2.896   7.172   5.394  0.8954  0.5442  0.9236
  579MOL0     C76321   2.760   7.150   5.418 -0.6045 -0.4161 -0.3223
  579MOL0     C76322   2.682   7.267   5.427  0.4948 -0.2687 -1.2591
  579MOL0     C76323   2.543   7.259   5.464  0.4831  0.1485 -0.3025
  579MOL0     C76324   2.481   7.131   5.486 -1.4252 -0.0497  0.8094
  579MOL0     C76325   2.341   7.122   5.521  0.0258  0.6636 -0.3725
  579MOL0     O76326   2.277   7.226   5.543  0.4293 -0.1171  0.0996
  579MOL0     C76327   2.145   7.230   5.582  0.2058  0.0042 -1.2023
  579MOL0     C76328   2.057   7.324   5.525  0.5740 -0.5954 -0.8981
  579MOL0     C76329   1.925   7.344   5.559 -0.1752 -0.0967  0.2951
  579MOL0     C76330   1.861   7.253   5.640 -0.0307 -0.8820 -0.0232
  579MOL0     O76331   1.728   7.241   5.669 -0.0559 -0.1280  0.3084
  579MOL0     C76332   1.647   7.347   5.624  0.5402  0.5921 -1.4943
  579MOL0     C76333   1.506   7.292   5.627 -0.7403 -0.0034  0.7898
  579MOL0     C76334   1.411   7.411   5.591  0.1232  0.0757  0.4118
  579MOL0     C76335   1.262   7.371   5.559 -0.0256  0.4673  1.1003
  579MOL0     C76336   1.240   7.321   5.418 -0.3965 -0.5252  0.5635
  579MOL0     C76337   1.086   7.304   5.411  0.6407  0.2819  0.6224
  579MOL0     C76338   1.040   7.180   5.495 -0.8107  0.6669  0.3960
  579MOL0     C76339   0.915   7.117   5.448  0.4020 -0.1561  0.1921
  579MOL0    Cl76340   0.881   6.984   5.571  0.5724 -0.2181  0.0016
  579MOL0     C76341   1.946   7.153   5.695  0.1590  0.7085 -0.1839
  579MOL0     C76342   2.082   7.139   5.664  0.5688  0.2031 -0.3816
  579MOL0     O76343   2.301   7.008   5.544  0.1662  0.2759 -0.7003
  579MOL0     C76344   2.560   7.020   5.476 -0.7071  0.7133  0.4525
  579MOL0     C76345   2.701   7.029   5.452 -0.2038  0.3806 -0.4174
  579MOL0     N76346   3.458   6.972   5.408  0.3306 -0.4839  0.2666
  579MOL0     N76347   3.533   6.884   5.362 -0.0571  0.5183 -0.1048
  579MOL0     C76348   3.009   6.136   4.570 -0.3072  0.5638  0.6995
  579MOL0     C76349   2.982   5.997   4.533 -0.5682 -0.6705 -0.1759
  579MOL0     C76350   3.019   5.656   4.224  1.0394  0.0836 -0.5562
  579MOL0     C76351   2.985   5.636   4.094 -0.4458 -0.7756  0.3809
  579MOL0     C76352   2.974   5.508   4.035 -0.6375  0.1670 -0.7257
  579MOL0     C76353   3.014   5.397   4.104  0.1358  0.2662  0.0466
  579MOL0     O76354   3.004   5.284   4.029  0.2936  0.7869  0.7612
  579MOL0     C76355   3.012   5.160   4.102 -0.2347 -0.4490  0.6685
  579MOL0     C76356   2.865   5.125   4.142  0.1411 -0.0016 -0.4040
  579MOL0     C76357   2.766   5.142   4.022 -0.0494  0.8158  0.7629
  579MOL0     C76358   2.624   5.185   4.057  0.0663 -0.1425 -0.7832
  579MOL0     C76359   2.629   5.326   4.082 -0.5125  0.8324  0.6619
  579MOL0     C76360   2.644   5.446   4.083  0.2435 -0.4943 -0.2263
  579MOL0     C76361   3.075   5.417   4.228  0.4227  0.3002  0.0464
  579MOL0     C76362   3.079   5.547   4.286  0.1951 -0.6172  0.0563
  579MOL0     H76363   3.290   5.885   4.481  1.2232  1.3659 -0.1742
  579MOL0     H76364   3.337   6.099   4.561 -0.2771  2.8088 -0.2568
  579MOL0     H76365   3.048   6.396   4.680  0.6080 -2.2240  0.8064
  579MOL0     H76366   3.136   6.438   4.531  0.0588  3.0127  1.3138
  579MOL0     H76367   3.194   6.586   4.714 -0.0880 -0.2903  0.9996
  579MOL0     H76368   3.338   6.493   4.671  1.4711 -1.9616  0.2626
  579MOL0     H76369   3.338   6.372   4.853 -0.1474  0.1382 -0.3282
  579MOL0     H76370   3.166   6.366   4.880 -1.0149  1.2129 -0.3744
  579MOL0     H76371   3.166   6.590   4.983  0.7704  1.5058  1.1240
  579MOL0     H76372   3.294   6.488   5.050 -1.5082 -1.9325 -0.1072
  579MOL0     H76373   3.306   6.742   4.896 -2.3326 -1.4547 -0.5136
  579MOL0     H76374   3.429   6.622   4.845 -0.7449  0.4752 -0.6385
  579MOL0     H76375   3.515   6.592   5.074  2.2656  0.1852 -1.0832
  579MOL0     H76376   3.379   6.704   5.124 -1.7065 -0.7051 -1.6232
  579MOL0     H76377   3.631   6.752   4.938  2.5008  2.2535  0.1094
  579MOL0     H76378   3.509   6.875   4.968  1.4340  0.7565 -0.0808
  579MOL0     H76379   3.714   6.898   5.093 -0.5049  0.3140  0.9982
  579MOL0     H76380   3.673   6.743   5.191 -0.7256 -1.7439 -0.5235
  579MOL0     H76381   3.460   7.061   5.087 -0.1919  0.9648 -1.1860
  579MOL0     H76382   3.333   7.251   5.265  3.2965  1.5535  1.0270
  579MOL0     H76383   3.405   7.242   5.415  0.1997 -0.4327  1.1177
  579MOL0     H76384   3.167   7.214   5.475  0.9215 -1.4061  4.1594
  579MOL0     H76385   3.240   7.070   5.495  0.2097  0.6386 -0.7491
  579MOL0     H76386   3.099   7.130   5.219 -0.6576 -0.2252 -0.7331
  579MOL0     H76387   3.149   6.981   5.275 -0.3000  0.3352  1.0895
  579MOL0     H76388   2.980   7.004   5.474  1.8927 -3.0209 -0.9145
  579MOL0     H76389   2.932   6.967   5.323 -1.4732 -1.7904  2.5385
  579MOL0     H76390   2.728   7.363   5.409  0.5160 -0.0090  0.0957
  579MOL0     H76391   2.497   7.354   5.487 -0.1344 -0.3667  0.6514
  579MOL0     H76392   2.103   7.393   5.456  2.6827 -3.4048 -2.5421
  579MOL0     H76393   1.881   7.437   5.523  0.1544  0.5107  1.3978
  579MOL0     H76394   1.677   7.390   5.529 -0.6765  0.3782 -2.0026
  579MOL0     H76395   1.660   7.426   5.698 -1.8644 -1.0619  0.8951
  579MOL0     H76396   1.469   7.261   5.726 -0.5700  2.4701  1.6977
  579MOL0     H76397   1.494   7.218   5.547  1.8344  1.6274 -1.2670
  579MOL0     H76398   1.452   7.469   5.507 -0.7815 -0.7392 -0.6165
  579MOL0     H76399   1.414   7.478   5.677  3.7756  0.4338  0.1680
  579MOL0     H76400   1.240   7.291   5.630  1.4733  0.4275  1.5490
  579MOL0     H76401   1.190   7.450   5.578 -2.8127 -1.3386 -1.1257
  579MOL0     H76402   1.293   7.226   5.412  1.7028  0.5903  0.5660
  579MOL0     H76403   1.270   7.393   5.342 -1.0790 -0.1004  0.6860
  579MOL0     H76404   1.063   7.290   5.305  2.8450 -0.7738  0.2412
  579MOL0     H76405   1.034   7.395   5.445 -0.7534  0.2403 -1.1991
  579MOL0     H76406   1.122   7.108   5.496 -3.2220 -2.2625  2.1662
  579MOL0     H76407   1.036   7.206   5.601 -0.8237  0.7170  0.3833
  579MOL0     H76408   0.916   7.072   5.348 -0.5772 -0.3882  0.2781
  579MOL0     H76409   0.832   7.187   5.453  0.9088  0.3619  3.6573
  579MOL0     H76410   1.905   7.079   5.763  0.9858  0.6571  0.2689
  579MOL0     H76411   2.138   7.062   5.715 -1.9824 -0.3185  1.8568
  579MOL0     H76412   2.511   6.927   5.501 -0.1520  0.4622  0.6402
  579MOL0     H76413   2.764   6.942   5.466 -1.3031 -0.3046  0.4391
  579MOL0     H76414   2.928   6.204   4.590 -2.5519 -2.4997  3.0218
  579MOL0     H76415   2.882   5.958   4.518  0.3226 -2.9576 -0.5415
  579MOL0     H76416   2.945   5.718   4.036  1.3593 -0.9269 -1.1714
  579MOL0     H76417   2.942   5.514   3.932 -0.0131  0.9805 -0.8830
  579MOL0     H76418   3.071   5.151   4.194 -0.7697 -3.3610  0.8225
  579MOL0     H76419   3.055   5.081   4.040  0.4376 -1.5445  2.4647
  579MOL0     H76420   2.880   5.024   4.180 -0.1689 -1.6344 -4.1736
  579MOL0     H76421   2.821   5.175   4.229  2.2503 -0.7767  1.2059
  579MOL0     H76422   2.771   5.045   3.972  0.3788  1.0909  0.2683
  579MOL0     H76423   2.809   5.204   3.943  1.6514 -0.4872  0.6242
  579MOL0     H76424   2.567   5.171   3.964 -1.4971 -0.7519  0.2414
  579MOL0     H76425   2.573   5.136   4.140 -0.8574  1.8366 -0.1107
  579MOL0     H76426   2.628   5.550   4.102 -0.1288 -0.8608  1.6329
  579MOL0     H76427   3.116   5.334   4.285  0.9562  0.0591 -0.6701
  579MOL0     H76428   3.122   5.554   4.385  2.4515 -0.9307 -0.8322
  580MOL0     O76429   8.882   3.606   9.337 -0.4353  0.0851  0.3729
  580MOL0     C76430   8.902   3.710   9.285 -0.3414  0.3550 -0.2192
  580MOL0     O76431   8.809   3.818   9.281 -0.8405 -0.0095 -0.6410
  580MOL0     C76432   8.696   3.822   9.358  0.2865 -0.2971 -0.5755
  580MOL0     C76433   8.584   3.880   9.303 -0.0712  0.2566 -0.3880
  580MOL0     C76434   8.479   3.928   9.383 -0.4260  0.6873  0.6643
  580MOL0     C76435   8.483   3.922   9.520  1.5593  0.6993 -0.8253
  580MOL0     O76436   8.399   3.993   9.604 -0.1262  1.3350 -0.0894
  580MOL0     C76437   8.264   4.014   9.554  0.1684 -0.1093  0.1163
  580MOL0     C76438   8.169   4.024   9.676 -1.2177 -0.3224  0.4329
  580MOL0     C76439   8.024   4.020   9.633  0.5088  0.0108 -0.2325
  580MOL0     C76440   7.947   3.997   9.756 -0.2738 -0.3149  0.3127
  580MOL0     C76441   7.792   3.988   9.724 -0.6655 -0.2335 -0.2733
  580MOL0     C76442   7.710   3.994   9.848  0.2873 -0.1521  0.4860
  580MOL0     C76443   7.591   3.909   9.840  1.0775 -0.3415 -0.2381
  580MOL0     C76444   7.477   3.960   9.752 -0.5251 -0.5311 -1.5083
  580MOL0     N76445   7.352   3.886   9.766 -0.1988 -0.2097  0.2353
  580MOL0     C76446   7.230   3.942   9.776  0.4555 -0.6051 -0.0503
  580MOL0     C76447   7.151   3.847   9.720  0.4204 -0.3721  0.0291
  580MOL0     C76448   7.013   3.866   9.676  0.5787 -0.1884 -0.7654
  580MOL0     C76449   6.904   3.803   9.774  0.4381  0.1671  0.4385
  580MOL0     C76450   6.766   3.831   9.719 -0.2029 -0.6618  0.6685
  580MOL0     C76451   6.662   3.743   9.795 -0.0913  0.2072  0.0041
  580MOL0     O76452   6.528   3.773   9.734 -0.2616  0.0377  0.0273
  580MOL0     C76453   6.424   3.703   9.790  0.2483  0.2066 -0.0454
  580MOL0     C76454   6.302   3.700   9.725  1.0873 -0.1312  0.2856
  580MOL0     C76455   6.184   3.643   9.775 -0.1594  0.6902  0.6602
  580MOL0     C76456   6.184   3.558   9.885  0.7479  0.6685  0.2418
  580MOL0     C76457   6.052   3.502   9.929 -0.4222  0.8936 -0.7558
  580MOL0     O76458   5.938   3.504   9.853 -0.1009 -0.1434 -0.0175
  580MOL0     C76459   5.817   3.459   9.905 -0.1939 -0.3144 -0.0337
  580MOL0     C76460   5.723   3.425   9.805 -0.3243 -0.4911 -0.5460
  580MOL0     C76461   5.583   3.416   9.836 -0.2349 -0.4484  0.6704
  580MOL0     C76462   5.545   3.421   9.973  0.2576  0.4965  0.6351
  580MOL0     O76463   5.409   3.407   9.991 -0.0920 -0.1954  0.1428
  580MOL0     C76464   5.352   3.420  10.127 -0.5517  0.3876 -0.1191
  580MOL0     C76465   5.223   3.338  10.147 -0.4959  0.2421 -0.0116
  580MOL0     C76466   5.118   3.390  10.048 -0.0014  0.2608  0.0284
  580MOL0     C76467   4.980   3.317  10.062 -0.0611 -0.0485  0.0028
  580MOL0     C76468   4.869   3.389   9.975  0.1685  0.2843  1.3327
  580MOL0     C76469   4.723   3.352  10.028  0.1893  0.5034  0.0897
  580MOL0     C76470   4.615   3.450   9.977 -0.3327 -0.9710 -0.2201
  580MOL0     C76471   4.480   3.413  10.027  0.7422  0.6123 -0.4158
  580MOL0    Cl76472   4.349   3.496   9.943 -0.5311  0.1124 -0.4332
  580MOL0     C76473   5.640   3.434  10.072 -0.2727 -0.3966 -1.0386
  580MOL0     C76474   5.775   3.454  10.042  0.5091  0.2030 -0.1912
  580MOL0     O76475   6.065   3.431  10.028  0.3393  0.0931  0.8148
  580MOL0     C76476   6.308   3.568   9.956 -0.7508 -0.3229 -0.1741
  580MOL0     C76477   6.429   3.630   9.913  0.3529 -0.0150  0.6320
  580MOL0     N76478   7.223   3.737   9.690  0.5846  0.1551 -0.1679
  580MOL0     N76479   7.341   3.757   9.728  0.2101 -0.4248 -0.2257
  580MOL0     C76480   8.600   3.861   9.575 -0.5853  0.0500 -0.0720
  580MOL0     C76481   8.695   3.804   9.495  0.4930  0.3029  0.0332
  580MOL0     C76482   9.028   3.728   9.218  0.0902  0.0105  1.0094
  580MOL0     C76483   9.147   3.661   9.237  1.1707 -0.2671  0.1287
  580MOL0     C76484   9.264   3.699   9.180 -0.8974  0.5368  0.1708
  580MOL0     C76485   9.276   3.803   9.089  0.4197 -0.5448  0.2613
  580MOL0     O76486   9.395   3.848   9.025  0.4391  0.5046 -0.2484
  580MOL0     C76487   9.524   3.803   9.061 -0.1167 -0.0448 -0.2801
  580MOL0     C76488   9.629   3.912   9.006 -0.1390 -0.3316 -0.3534
  580MOL0     C76489   9.645   4.037   9.090  0.5740  0.4031 -0.3395
  580MOL0     C76490   9.532   4.147   9.084  0.3955 -0.8910  0.6714
  580MOL0     C76491   9.590   4.278   9.111 -0.7853 -0.4203  0.3697
  580MOL0     C76492   9.658   4.376   9.136  0.6127 -0.2632 -0.7735
  580MOL0     C76493   9.159   3.875   9.075 -0.6306  0.3561  0.1525
  580MOL0     C76494   9.042   3.845   9.138 -0.1397  0.1881 -0.8736
  580MOL0     H76495   8.577   3.880   9.195 -0.8713 -0.8484 -0.3594
  580MOL0     H76496   8.390   3.966   9.334  0.0131  0.8896  0.0102
  580MOL0     H76497   8.233   3.928   9.494  0.4311  1.3480 -2.2018
  580MOL0     H76498   8.258   4.101   9.489 -1.1279  0.0315  0.4000
  580MOL0     H76499   8.197   4.107   9.741 -1.5532 -0.3597  0.6266
  580MOL0     H76500   8.195   3.933   9.731  1.3250 -0.1714 -0.3748
  580MOL0     H76501   8.007   3.946   9.555  2.2961  1.0316 -1.6780
  580MOL0     H76502   7.999   4.119   9.594 -1.3494 -0.1055  0.5751
  580MOL0     H76503   7.965   3.906   9.813 -1.4204  0.2725  1.6785
  580MOL0     H76504   7.979   4.082   9.817 -0.0848 -0.4514  0.4039
  580MOL0     H76505   7.765   3.896   9.672  1.3549  0.6167 -3.0403
  580MOL0     H76506   7.770   4.068   9.653  3.8585  2.2784  0.7698
  580MOL0     H76507   7.689   4.098   9.873  0.7894  0.3039 -0.9157
  580MOL0     H76508   7.757   3.972   9.945 -1.3709  1.6785  1.7969
  580MOL0     H76509   7.624   3.809   9.813  0.6987 -0.5108 -0.0803
  580MOL0     H76510   7.551   3.893   9.941  1.7917 -0.6747 -0.0009
  580MOL0     H76511   7.505   3.957   9.646  3.5869 -1.9799 -0.5574
  580MOL0     H76512   7.437   4.058   9.779 -2.8276 -1.5088 -1.1551
  580MOL0     H76513   7.199   4.045   9.795  4.8810  1.3003 -1.7555
  580MOL0     H76514   7.009   3.817   9.579 -2.9477 -1.4756 -0.0892
  580MOL0     H76515   6.998   3.974   9.672  1.6603  0.0684  0.9928
  580MOL0     H76516   6.905   3.843   9.876 -3.8168 -0.5192  0.9328
  580MOL0     H76517   6.927   3.699   9.799  1.8044  0.5946  1.1070
  580MOL0     H76518   6.746   3.939   9.724  0.5678 -0.5029  0.4225
  580MOL0     H76519   6.769   3.823   9.610  1.0221  0.4701  0.5888
  580MOL0     H76520   6.666   3.782   9.897 -0.8145  2.3510 -0.7340
  580MOL0     H76521   6.696   3.640   9.786  3.4200  1.3485 -1.5432
  580MOL0     H76522   6.297   3.761   9.636 -1.5140  2.8457  2.2484
  580MOL0     H76523   6.096   3.656   9.712  0.1067 -2.3334 -0.4854
  580MOL0     H76524   5.763   3.419   9.704 -0.7047 -0.0736 -0.7242
  580MOL0     H76525   5.505   3.402   9.762 -0.2190  0.0400  0.5551
  580MOL0     H76526   5.334   3.524  10.156  1.0573  2.0224 -4.2329
  580MOL0     H76527   5.420   3.376  10.201  0.8140  1.2602 -0.8143
  580MOL0     H76528   5.181   3.361  10.245 -0.7005  2.4835 -0.5681
  580MOL0     H76529   5.245   3.233  10.129 -1.2196  0.0413  0.2579
  580MOL0     H76530   5.152   3.373   9.945  0.6440  2.5655 -0.2028
  580MOL0     H76531   5.111   3.498  10.063  2.3925  0.6890 -1.3683
  580MOL0     H76532   4.988   3.211  10.038 -1.0730 -0.3177  0.7527
  580MOL0     H76533   4.948   3.319  10.167  1.0204  0.5514  0.3300
  580MOL0     H76534   4.871   3.377   9.867 -0.2241  0.0829  1.3448
  580MOL0     H76535   4.874   3.496   9.997  2.3050  0.6256 -0.5516
  580MOL0     H76536   4.720   3.361  10.137 -1.6421 -0.8880  0.2199
  580MOL0     H76537   4.690   3.255   9.990 -2.6029  2.7536 -3.9919
  580MOL0     H76538   4.632   3.554  10.007 -0.0032 -1.0676 -0.0720
  580MOL0     H76539   4.590   3.457   9.871 -3.8825  1.3618  0.6036
  580MOL0     H76540   4.469   3.453  10.129 -0.5175  0.5872 -0.5270
  580MOL0     H76541   4.467   3.305  10.029 -0.0802  0.7059 -0.5159
  580MOL0     H76542   5.613   3.440  10.177  0.5537 -0.6118 -0.8130
  580MOL0     H76543   5.852   3.463  10.118 -1.2836 -2.2680  2.1660
  580MOL0     H76544   6.328   3.531  10.056  3.6159  2.7308  0.3746
  580MOL0     H76545   6.505   3.644   9.990  0.4388 -0.8067  0.6909
  580MOL0     H76546   8.607   3.864   9.683 -1.2519  1.1730 -0.0496
  580MOL0     H76547   8.783   3.765   9.546  1.3800 -1.8158 -2.8497
  580MOL0     H76548   9.143   3.580   9.309 -0.6969  1.5451  2.2126
  580MOL0     H76549   9.347   3.639   9.216 -0.1968  1.4382  0.0940
  580MOL0     H76550   9.555   3.712   9.010  2.2058  1.6852 -2.1559
  580MOL0     H76551   9.525   3.794   9.171  0.8855  1.4140 -0.1468
  580MOL0     H76552   9.724   3.862   8.990  0.1694 -0.9983  2.9143
  580MOL0     H76553   9.603   3.939   8.903  4.0936  0.4654 -1.3738
  580MOL0     H76554   9.739   4.090   9.069  1.2042  0.4028  2.1398
  580MOL0     H76555   9.634   4.005   9.194 -3.1058 -2.6641 -1.4852
  580MOL0     H76556   9.496   4.154   8.981 -2.1350 -3.5917  1.2431
  580MOL0     H76557   9.454   4.116   9.154 -1.8066 -2.7104 -2.3531
  580MOL0     H76558   9.705   4.469   9.163  0.6129 -0.9351  1.7246
  580MOL0     H76559   9.173   3.964   9.014  0.5968  1.5398  2.0308
  580MOL0     H76560   8.945   3.882   9.107 -2.4499 -3.7708  0.8354
  581MOL0     O76561   6.305   2.666   8.716 -0.3907 -0.0818 -0.0939
  581MOL0     C76562   6.308   2.606   8.822 -0.3819  0.0212 -0.2941
  581MOL0     O76563   6.196   2.570   8.895  0.1869 -0.6362  0.1755
  581MOL0     C76564   6.078   2.549   8.841  1.1892  0.5456  0.9757
  581MOL0     C76565   6.030   2.425   8.849 -0.2713 -0.1254 -0.1573
  581MOL0     C76566   5.921   2.379   8.774 -0.3058  0.2937 -0.6955
  581MOL0     C76567   5.854   2.478   8.692  0.4187 -0.1962 -0.7205
  581MOL0     O76568   5.741   2.434   8.634  0.6560 -0.1751 -0.2645
  581MOL0     C76569   5.620   2.523   8.632  0.4733  0.6843  0.6893
  581MOL0     C76570   5.516   2.488   8.530  0.0522  0.3545 -0.1128
  581MOL0     C76571   5.377   2.558   8.560 -0.7762  0.0240 -0.7732
  581MOL0     C76572   5.278   2.560   8.445  0.1046 -0.8314  0.4972
  581MOL0     C76573   5.155   2.652   8.463  0.8546  0.8481  0.0374
  581MOL0     C76574   5.074   2.668   8.342  0.5577 -0.5974 -0.0151
  581MOL0     C76575   4.940   2.742   8.357  0.3460 -0.5685 -0.7851
  581MOL0     C76576   4.814   2.664   8.343  0.2519 -0.0182 -0.0888
  581MOL0     N76577   4.774   2.662   8.199 -0.8508 -0.1327 -0.2041
  581MOL0     C76578   4.749   2.545   8.126 -0.4727 -0.0066 -0.2530
  581MOL0     C76579   4.647   2.572   8.039 -0.8348  0.7924 -0.1851
  581MOL0     C76580   4.569   2.465   7.962  0.2389 -0.4700  0.0355
  581MOL0     C76581   4.460   2.411   8.045 -0.5353 -0.1198 -0.3423
  581MOL0     C76582   4.358   2.323   7.962 -0.2837 -0.5762  0.7558
  581MOL0     C76583   4.282   2.420   7.857 -0.8931 -0.4923 -0.8613
  581MOL0     O76584   4.214   2.521   7.921  0.3691  0.3287  0.5573
  581MOL0     C76585   4.090   2.498   7.978  0.1338 -0.2183 -1.4069
  581MOL0     C76586   4.038   2.618   8.036 -0.8291  0.5900 -0.3179
  581MOL0     C76587   3.913   2.626   8.086  0.1864  0.3538 -0.4199
  581MOL0     C76588   3.833   2.516   8.094  0.0558 -0.3233 -0.0582
  581MOL0     C76589   3.706   2.523   8.166  0.5729 -0.3018 -0.3259
  581MOL0     O76590   3.675   2.648   8.216  0.5004 -0.0215 -0.2121
  581MOL0     C76591   3.546   2.667   8.272 -0.4346  0.5323 -0.6622
  581MOL0     C76592   3.532   2.766   8.369 -0.1786  0.0894  0.2324
  581MOL0     C76593   3.401   2.778   8.425 -0.2627 -0.4669 -0.1653
  581MOL0     C76594   3.289   2.703   8.388  0.7813  1.2350  0.2698
  581MOL0     O76595   3.165   2.726   8.443 -0.3497  0.8278 -0.1683
  581MOL0     C76596   3.045   2.666   8.390  1.4042 -0.6980  0.4832
  581MOL0     C76597   2.926   2.709   8.476 -0.3251 -0.7863 -0.9773
  581MOL0     C76598   2.864   2.856   8.464 -0.2850  0.1060  0.6065
  581MOL0     C76599   2.756   2.871   8.562  0.4991  0.5497 -1.0170
  581MOL0     C76600   2.687   3.007   8.565  0.2828  0.4244  0.5792
  581MOL0     C76601   2.582   3.005   8.681  0.8485 -0.6904  0.8622
  581MOL0     C76602   2.550   3.156   8.719 -0.3630  0.2896  0.0625
  581MOL0     C76603   2.405   3.164   8.761  0.5222  0.1720  0.4547
  581MOL0    Cl76604   2.292   3.109   8.637 -0.0566 -0.0279  0.1623
  581MOL0     C76605   3.308   2.611   8.285  0.3030  0.1304  0.1660
  581MOL0     C76606   3.432   2.598   8.231 -0.7157 -0.7965 -0.4436
  581MOL0     O76607   3.645   2.417   8.180  0.6634  0.0870  0.2568
  581MOL0     C76608   3.893   2.397   8.049  0.2534  0.6555 -0.0228
  581MOL0     C76609   4.013   2.387   7.993 -0.3404  0.5242  0.0688
  581MOL0     N76610   4.636   2.710   8.043 -0.1610 -0.6578 -0.2026
  581MOL0     N76611   4.702   2.760   8.140  0.2310  0.5953 -0.1098
  581MOL0     C76612   5.896   2.610   8.688 -0.3666 -0.0615 -0.1287
  581MOL0     C76613   6.009   2.640   8.762 -0.4626 -0.0798 -0.7332
  581MOL0     C76614   6.432   2.581   8.898 -0.9656  0.4010  0.0042
  581MOL0     C76615   6.438   2.504   9.018 -0.3675 -0.0604  0.6930
  581MOL0     C76616   6.557   2.465   9.084  0.2150  0.6554 -0.5959
  581MOL0     C76617   6.680   2.507   9.029  0.0164  0.4649 -1.0884
  581MOL0     O76618   6.805   2.481   9.061  0.1245  0.0270 -0.2788
  581MOL0     C76619   6.836   2.395   9.168 -0.2966 -0.0429  0.3294
  581MOL0     C76620   6.987   2.351   9.169  0.4811  0.0747 -0.2736
  581MOL0     C76621   7.082   2.470   9.189  0.3061  0.3530 -0.7241
  581MOL0     C76622   7.231   2.430   9.188  0.1432  0.0298  0.9608
  581MOL0     C76623   7.277   2.317   9.269 -0.2445 -0.5187 -0.3452
  581MOL0     C76624   7.335   2.215   9.315  0.2517 -0.6526  0.9395
  581MOL0     C76625   6.678   2.594   8.927  0.1267 -1.0126  0.1155
  581MOL0     C76626   6.560   2.632   8.859  0.0955 -0.2066 -0.7878
  581MOL0     H76627   6.094   2.365   8.911 -1.0320 -1.8961 -1.0058
  581MOL0     H76628   5.890   2.275   8.780  0.2151  0.2079  1.4823
  581MOL0     H76629   5.649   2.629   8.632  1.4592  0.4851  2.7553
  581MOL0     H76630   5.582   2.502   8.733 -3.6433 -0.0694 -0.8252
  581MOL0     H76631   5.509   2.380   8.547 -0.6544  0.4765  0.4029
  581MOL0     H76632   5.559   2.511   8.432  0.6589 -3.6338 -0.9642
  581MOL0     H76633   5.402   2.662   8.584  5.0988 -0.7351 -2.1599
  581MOL0     H76634   5.336   2.508   8.648 -0.0802  0.4525 -0.1923
  581MOL0     H76635   5.335   2.604   8.362 -0.3755  1.5131  1.3351
  581MOL0     H76636   5.235   2.466   8.409 -2.7009  0.8105 -0.8672
  581MOL0     H76637   5.195   2.751   8.484  1.4821  0.8461 -1.0915
  581MOL0     H76638   5.103   2.619   8.554  2.7715  0.9014  1.2007
  581MOL0     H76639   5.051   2.566   8.310 -1.0424  0.3817 -2.2771
  581MOL0     H76640   5.122   2.723   8.260  0.2338  1.2147  0.9467
  581MOL0     H76641   4.948   2.783   8.459 -0.0803 -0.8267 -0.6453
  581MOL0     H76642   4.936   2.833   8.297  0.6254  1.9354  2.6734
  581MOL0     H76643   4.734   2.701   8.408 -0.0302  3.5596 -2.2338
  581MOL0     H76644   4.836   2.566   8.387 -2.5660 -0.0289  1.5572
  581MOL0     H76645   4.774   2.442   8.147 -0.9993  0.3323  2.3897
  581MOL0     H76646   4.637   2.385   7.931  3.2407  2.7777 -2.5277
  581MOL0     H76647   4.532   2.520   7.875  0.3936 -1.4096 -0.6465
  581MOL0     H76648   4.410   2.495   8.095  2.0040  1.5926 -0.4984
  581MOL0     H76649   4.499   2.353   8.129  1.5266  2.0433  0.2997
  581MOL0     H76650   4.415   2.244   7.912  0.0153 -0.0588  0.2643
  581MOL0     H76651   4.274   2.271   8.008 -2.5534  0.3270 -2.0476
  581MOL0     H76652   4.218   2.359   7.792 -1.1345 -0.1893 -0.9089
  581MOL0     H76653   4.348   2.470   7.785  3.6876 -0.6076  2.7683
  581MOL0     H76654   4.104   2.704   8.032  1.5527 -1.0940  0.3104
  581MOL0     H76655   3.871   2.715   8.131 -1.1587 -1.7897  2.9465
  581MOL0     H76656   3.615   2.820   8.414 -0.3338 -1.9909  3.3814
  581MOL0     H76657   3.401   2.846   8.510  3.3085 -3.1545  2.2789
  581MOL0     H76658   3.058   2.557   8.391  2.7258 -0.5456  1.3582
  581MOL0     H76659   3.032   2.708   8.289 -0.2984  3.0981  2.0804
  581MOL0     H76660   2.944   2.674   8.579 -2.3321 -1.0623 -0.6831
  581MOL0     H76661   2.842   2.643   8.456 -2.7429  3.2189 -6.6100
  581MOL0     H76662   2.840   2.868   8.358 -1.1774 -0.7785  0.6949
  581MOL0     H76663   2.941   2.929   8.491 -0.7659  1.6181 -1.7838
  581MOL0     H76664   2.683   2.789   8.560  0.7186  0.0120  3.5696
  581MOL0     H76665   2.795   2.854   8.662  0.1880  1.7877 -0.6756
  581MOL0     H76666   2.647   3.028   8.466 -0.3759  3.2362  1.3518
  581MOL0     H76667   2.759   3.088   8.584  1.0953 -0.5483  1.8430
  581MOL0     H76668   2.624   2.961   8.772 -2.4833 -0.9046  2.4651
  581MOL0     H76669   2.499   2.938   8.655  1.0503 -0.3503 -0.7618
  581MOL0     H76670   2.614   3.184   8.804 -0.8692 -1.7916  1.1960
  581MOL0     H76671   2.576   3.221   8.635 -0.4902 -1.7659 -1.6436
  581MOL0     H76672   2.368   3.261   8.793 -0.4464  1.2290 -3.3360
  581MOL0     H76673   2.394   3.096   8.846 -0.3434  1.3721  1.3229
  581MOL0     H76674   3.228   2.546   8.251 -1.8203  1.6926  1.8753
  581MOL0     H76675   3.443   2.513   8.164  0.3382 -1.4358  0.5009
  581MOL0     H76676   3.834   2.306   8.043  0.2987  0.6208  0.0552
  581MOL0     H76677   4.046   2.287   7.964  0.0213  0.6738 -0.0497
  581MOL0     H76678   5.845   2.686   8.630  1.4016  1.3396  0.0534
  581MOL0     H76679   6.044   2.742   8.754  0.2805 -0.2106  0.7179
  581MOL0     H76680   6.349   2.455   9.057 -1.6217  1.9955  0.5541
  581MOL0     H76681   6.563   2.399   9.169 -0.3300  0.2090 -0.8926
  581MOL0     H76682   6.774   2.305   9.173  1.7492 -1.5761 -0.2897
  581MOL0     H76683   6.808   2.450   9.258 -3.1508 -2.6615  1.2118
  581MOL0     H76684   7.000   2.285   9.256 -1.9182 -1.3850 -0.9181
  581MOL0     H76685   7.011   2.290   9.082 -0.8229  0.2799 -0.8032
  581MOL0     H76686   7.063   2.522   9.283 -0.5072  1.9283 -1.7243
  581MOL0     H76687   7.073   2.548   9.113  0.4662 -0.3562 -1.4868
  581MOL0     H76688   7.261   2.408   9.085 -1.8546 -5.9588  1.2705
  581MOL0     H76689   7.269   2.521   9.234  0.2968 -0.3609  1.6233
  581MOL0     H76690   7.380   2.126   9.353 -0.0495 -1.2468 -0.0667
  581MOL0     H76691   6.767   2.646   8.894 -1.4310  1.8240  0.0496
  581MOL0     H76692   6.569   2.702   8.776  1.2824  0.0154 -0.4876
  582MOL0     O76693   0.285   3.696   1.808  0.3281  0.4035 -0.1410
  582MOL0     C76694   0.357   3.701   1.708 -0.1253 -0.0195 -0.2333
  582MOL0     O76695   0.316   3.684   1.580  0.4403 -0.0522 -0.4382
  582MOL0     C76696   0.183   3.677   1.538 -0.7325  0.7745  1.0691
  582MOL0     C76697   0.082   3.755   1.589 -0.0723  0.1510  0.0123
  582MOL0     C76698  -0.047   3.743   1.533  0.4702 -0.1880 -0.3358
  582MOL0     C76699  -0.081   3.650   1.436 -0.6052 -0.1426  0.2258
  582MOL0     O76700  -0.205   3.635   1.381  0.1546  0.2961 -0.5806
  582MOL0     C76701  -0.251   3.500   1.373  0.5080  0.1833  0.2117
  582MOL0     C76702  -0.397   3.500   1.332 -0.5994 -0.1828  0.4241
  582MOL0     C76703  -0.495   3.567   1.426  0.4962 -0.0486  0.0376
  582MOL0     C76704  -0.624   3.566   1.351  0.6688  0.0206  0.3504
  582MOL0     C76705  -0.740   3.622   1.424  0.0860 -0.0366  0.6979
  582MOL0     C76706  -0.863   3.641   1.337  0.0924  0.7113  0.7781
  582MOL0     C76707  -0.940   3.514   1.300 -0.3051 -0.9430  0.5428
  582MOL0     C76708  -0.983   3.439   1.426 -0.4833 -0.3907  0.9662
  582MOL0     N76709  -1.084   3.338   1.394  0.1301  0.0196  0.2652
  582MOL0     C76710  -1.223   3.346   1.381 -0.5045 -0.0108  1.2328
  582MOL0     C76711  -1.253   3.220   1.348 -0.1433  0.2466 -0.0712
  582MOL0     C76712  -1.395   3.180   1.325  0.1103 -0.0745 -0.2377
  582MOL0     C76713  -1.452   3.154   1.462 -0.3519  0.1165  0.3716
  582MOL0     C76714  -1.571   3.054   1.462 -0.3006  0.1479 -0.7686
  582MOL0     C76715  -1.598   2.992   1.607 -0.3987  0.1439  0.4470
  582MOL0     O76716  -1.635   3.087   1.707  0.1697  0.0128  0.0347
  582MOL0     C76717  -1.754   3.142   1.683  0.7603 -0.7537 -0.5638
  582MOL0     C76718  -1.771   3.269   1.637  0.6302  0.3161 -0.3419
  582MOL0     C76719  -1.900   3.324   1.623  1.2676 -0.1945 -0.5785
  582MOL0     C76720  -2.017   3.242   1.648 -0.4332 -0.7080  0.6253
  582MOL0     C76721  -2.152   3.300   1.630  0.0602  0.3114 -0.4709
  582MOL0     O76722  -2.262   3.214   1.636  0.2787 -0.6146  0.3720
  582MOL0     C76723  -2.388   3.274   1.665  0.0044  0.6284  0.2358
  582MOL0     C76724  -2.453   3.234   1.781  0.1076 -0.0313  0.0479
  582MOL0     C76725  -2.583   3.274   1.809  0.1917 -0.0996  0.5506
  582MOL0     C76726  -2.654   3.360   1.724  0.1207  0.4149  0.1541
  582MOL0     O76727  -2.784   3.394   1.741  0.2224 -0.3221 -0.5056
  582MOL0     C76728  -2.837   3.410   1.872  0.9371  0.1548  0.5292
  582MOL0     C76729  -2.991   3.427   1.854 -0.5566 -0.1820 -0.3149
  582MOL0     C76730  -3.070   3.403   1.986  0.2413  0.5161  0.4508
  582MOL0     C76731  -3.218   3.407   1.953 -0.0633  0.1546 -0.1294
  582MOL0     C76732  -3.314   3.384   2.065 -0.0236 -0.8790 -1.7162
  582MOL0     C76733  -3.457   3.353   2.014  0.1963 -0.5715 -0.4054
  582MOL0     C76734  -3.548   3.336   2.130 -0.5063 -0.9035  0.0556
  582MOL0     C76735  -3.681   3.297   2.091 -0.2377  0.2796 -0.2116
  582MOL0    Cl76736  -3.803   3.428   2.094 -0.3330 -0.1817  0.1585
  582MOL0     C76737  -2.590   3.401   1.614  0.7844  0.4471 -0.4150
  582MOL0     C76738  -2.457   3.359   1.584 -0.4967 -0.2511  0.1927
  582MOL0     O76739  -2.155   3.419   1.610 -0.2910  0.0873  0.4436
  582MOL0     C76740  -1.999   3.109   1.691  0.1013  0.6745 -0.2091
  582MOL0     C76741  -1.870   3.064   1.709  0.1747 -0.0839  0.3628
  582MOL0     N76742  -1.145   3.142   1.354  0.3334 -0.6273 -0.3967
  582MOL0     N76743  -1.054   3.206   1.406  0.0685  0.5702  0.2023
  582MOL0     C76744   0.031   3.578   1.389  0.2328  0.1963  0.7607
  582MOL0     C76745   0.165   3.592   1.430  0.4691  0.0163  0.0246
  582MOL0     C76746   0.500   3.721   1.722 -0.7189 -0.4141 -0.7844
  582MOL0     C76747   0.600   3.668   1.628 -0.3548 -0.6900 -0.6824
  582MOL0     C76748   0.741   3.686   1.656 -0.2271 -0.1311 -0.1966
  582MOL0     C76749   0.790   3.745   1.769  0.4277 -0.4680 -0.2698
  582MOL0     O76750   0.921   3.757   1.804 -0.2341  0.1553  0.0430
  582MOL0     C76751   1.027   3.688   1.737 -0.7026 -0.4627  0.1508
  582MOL0     C76752   1.119   3.602   1.827  0.2569  0.6229 -0.5117
  582MOL0     C76753   1.185   3.682   1.945  0.3706 -0.4099 -0.3927
  582MOL0     C76754   1.308   3.761   1.900 -0.5264  0.4807 -0.2022
  582MOL0     C76755   1.359   3.853   2.001 -1.0578  0.5348 -0.9185
  582MOL0     C76756   1.414   3.909   2.096 -0.2715 -0.3093 -0.4971
  582MOL0     C76757   0.695   3.805   1.860  0.2385 -0.1326  0.0429
  582MOL0     C76758   0.554   3.789   1.840  0.1327  0.4636  0.4252
  582MOL0     H76759   0.098   3.835   1.661 -1.0920 -0.8322  1.4147
  582MOL0     H76760  -0.118   3.814   1.574  0.9859  0.5775 -0.7418
  582MOL0     H76761  -0.248   3.466   1.477 -1.4358  1.2622  0.6804
  582MOL0     H76762  -0.201   3.429   1.307 -2.1899  0.4861 -2.3810
  582MOL0     H76763  -0.423   3.394   1.327 -2.8925  0.3058  0.8054
  582MOL0     H76764  -0.408   3.534   1.229  1.2983  2.6933  1.0417
  582MOL0     H76765  -0.460   3.667   1.454  1.6494 -1.0628  2.5457
  582MOL0     H76766  -0.526   3.512   1.515 -1.7805 -0.1057 -0.7255
  582MOL0     H76767  -0.613   3.610   1.251 -0.1753 -0.4879  0.0232
  582MOL0     H76768  -0.654   3.465   1.321  0.7788 -0.0948  0.6264
  582MOL0     H76769  -0.707   3.721   1.457 -0.5840  0.2409  0.5654
  582MOL0     H76770  -0.747   3.563   1.516  3.5517 -2.3253 -0.3220
  582MOL0     H76771  -0.826   3.695   1.250 -3.5021  3.0876  0.5311
  582MOL0     H76772  -0.937   3.712   1.376 -0.8278  0.2044  0.0032
  582MOL0     H76773  -1.026   3.551   1.244  0.8952 -0.6339 -1.1515
  582MOL0     H76774  -0.883   3.443   1.239 -0.7070  1.4406 -2.8196
  582MOL0     H76775  -1.022   3.509   1.500  0.6148 -1.4504  2.5830
  582MOL0     H76776  -0.895   3.387   1.464  0.1147 -0.2923 -0.2312
  582MOL0     H76777  -1.278   3.440   1.372 -1.2723 -0.6162 -1.2666
  582MOL0     H76778  -1.394   3.097   1.253  1.6582 -1.7112  1.5568
  582MOL0     H76779  -1.461   3.256   1.282 -0.7849 -0.0021  1.2234
  582MOL0     H76780  -1.481   3.250   1.506  1.4395  1.1030 -0.5050
  582MOL0     H76781  -1.379   3.107   1.528  0.5070 -0.2572 -0.8094
  582MOL0     H76782  -1.669   3.091   1.432  0.2647  0.9541 -1.6867
  582MOL0     H76783  -1.538   2.972   1.399  3.1116  1.5516 -1.0375
  582MOL0     H76784  -1.510   2.934   1.637  2.2998  3.1359 -1.0891
  582MOL0     H76785  -1.680   2.920   1.597  1.3667 -1.8357 -0.6521
  582MOL0     H76786  -1.679   3.324   1.618  2.6282 -3.2017 -2.1116
  582MOL0     H76787  -1.920   3.428   1.601  0.9503  0.6327  2.9413
  582MOL0     H76788  -2.385   3.191   1.854  1.1681  1.7949  0.1801
  582MOL0     H76789  -2.621   3.231   1.901 -0.4757 -0.5589  0.0622
  582MOL0     H76790  -2.782   3.495   1.912  0.1051  0.3799  1.2132
  582MOL0     H76791  -2.830   3.320   1.934 -6.4399  0.8789  3.4634
  582MOL0     H76792  -3.034   3.358   1.781 -1.2079 -1.8233  1.5145
  582MOL0     H76793  -3.019   3.525   1.814  1.6074  0.2005 -1.0181
  582MOL0     H76794  -3.051   3.484   2.056  0.5235 -1.4073  2.7312
  582MOL0     H76795  -3.052   3.307   2.035 -2.5432  0.5985  1.8474
  582MOL0     H76796  -3.236   3.503   1.905 -0.3549 -0.0297 -0.3938
  582MOL0     H76797  -3.246   3.326   1.885  0.6433  0.1821 -0.4586
  582MOL0     H76798  -3.302   3.473   2.128 -1.7898  1.5374 -4.4790
  582MOL0     H76799  -3.275   3.295   2.114 -1.4444  0.0046  1.2517
  582MOL0     H76800  -3.454   3.265   1.950 -1.3384 -2.4634  1.9744
  582MOL0     H76801  -3.487   3.444   1.962 -1.3572 -0.3275  0.8472
  582MOL0     H76802  -3.509   3.253   2.190 -3.5181 -2.8345 -0.4224
  582MOL0     H76803  -3.562   3.425   2.192  0.7381 -1.2631  0.8950
  582MOL0     H76804  -3.725   3.222   2.158 -0.9353  1.5497  0.7890
  582MOL0     H76805  -3.684   3.251   1.992  1.7121  0.2539 -0.3079
  582MOL0     H76806  -2.641   3.466   1.543 -1.2406  1.1960  1.6016
  582MOL0     H76807  -2.417   3.387   1.487 -0.7065  0.7390  0.3792
  582MOL0     H76808  -2.088   3.055   1.722  0.0122  0.2704 -1.1474
  582MOL0     H76809  -1.840   2.971   1.756  0.2740 -1.0064 -1.4176
  582MOL0     H76810   0.013   3.506   1.309  1.5723 -0.3030  0.8853
  582MOL0     H76811   0.251   3.541   1.388  2.4669  2.9583  0.2168
  582MOL0     H76812   0.576   3.622   1.533 -0.7064 -0.9779 -0.4560
  582MOL0     H76813   0.796   3.664   1.565 -0.3717 -3.5821  0.4193
  582MOL0     H76814   1.093   3.764   1.693 -0.4059 -0.6948  0.1949
  582MOL0     H76815   0.991   3.623   1.657 -0.1147  2.6610 -2.9410
  582MOL0     H76816   1.060   3.521   1.871  1.0422  0.7659  0.8710
  582MOL0     H76817   1.199   3.548   1.776 -0.0053  0.3554 -0.6428
  582MOL0     H76818   1.224   3.620   2.027 -0.4824  0.1308  0.4470
  582MOL0     H76819   1.121   3.755   1.995  2.9284  0.3187  2.1438
  582MOL0     H76820   1.387   3.685   1.888 -0.3986  0.3849  1.0926
  582MOL0     H76821   1.295   3.817   1.807 -1.5183 -1.1831 -1.1155
  582MOL0     H76822   1.473   3.961   2.168 -1.9612 -3.8982  3.9954
  582MOL0     H76823   0.733   3.845   1.953  0.4751 -2.8807  1.2283
  582MOL0     H76824   0.498   3.820   1.928 -0.3139  0.8564  0.0069
  583MOL0     O76825   0.808   4.681   6.417 -0.2081  0.3524 -0.6212
  583MOL0     C76826   0.789   4.646   6.299  0.0154 -0.5653  0.3794
  583MOL0     O76827   0.887   4.628   6.202 -0.6729  0.3272  0.2006
  583MOL0     C76828   1.018   4.617   6.249  0.1931 -0.5064  1.2445
  583MOL0     C76829   1.087   4.493   6.251  0.3527  0.5906 -0.9477
  583MOL0     C76830   1.206   4.491   6.320 -0.0841  0.1650 -0.2787
  583MOL0     C76831   1.266   4.612   6.373 -1.6195 -0.1722  0.2418
  583MOL0     O76832   1.395   4.614   6.421 -0.2815 -0.6234  0.4340
  583MOL0     C76833   1.500   4.642   6.334  0.0065 -0.4856 -0.2701
  583MOL0     C76834   1.616   4.699   6.423 -0.0114 -0.4796 -0.7697
  583MOL0     C76835   1.740   4.740   6.351 -1.1353 -0.5660 -0.2091
  583MOL0     C76836   1.840   4.791   6.452  0.2672 -0.3670 -0.6041
  583MOL0     C76837   1.964   4.834   6.375  0.2432  0.1797 -0.3593
  583MOL0     C76838   2.035   4.951   6.453  0.3816  1.5837  0.0713
  583MOL0     C76839   2.141   5.027   6.382 -0.4915  0.1807 -0.8199
  583MOL0     C76840   2.155   5.165   6.449 -0.3243  1.1028 -1.0286
  583MOL0     N76841   2.223   5.178   6.578 -0.0418  0.8606  0.9293
  583MOL0     C76842   2.362   5.160   6.588  0.3618 -0.3586  0.5158
  583MOL0     C76843   2.370   5.136   6.725 -0.2170 -0.0123  0.0647
  583MOL0     C76844   2.501   5.132   6.801  0.2799  0.5246  0.2686
  583MOL0     C76845   2.578   5.266   6.781  0.0460 -0.7994 -0.2800
  583MOL0     C76846   2.677   5.275   6.897 -0.1280 -0.2879 -0.0991
  583MOL0     C76847   2.814   5.343   6.849  0.1619  1.2594 -0.3270
  583MOL0     O76848   2.879   5.246   6.774  0.5044 -0.1440 -0.0722
  583MOL0     C76849   2.977   5.292   6.688  0.2776  0.5389  0.0558
  583MOL0     C76850   3.033   5.420   6.690 -0.0270  0.5007  0.6528
  583MOL0     C76851   3.129   5.462   6.597 -1.0808 -0.4797  1.1476
  583MOL0     C76852   3.186   5.375   6.500  0.3986  0.5380 -1.0084
  583MOL0     C76853   3.292   5.410   6.404 -1.4629  0.0272 -0.0152
  583MOL0     O76854   3.375   5.306   6.364  0.4093 -0.0115 -0.2180
  583MOL0     C76855   3.471   5.312   6.261 -0.3503  0.1041 -0.0951
  583MOL0     C76856   3.505   5.417   6.187  0.1795 -1.5630 -0.1694
  583MOL0     C76857   3.607   5.408   6.087 -0.0094 -0.7832 -0.2835
  583MOL0     C76858   3.674   5.288   6.059  0.4804 -0.1616 -0.5360
  583MOL0     O76859   3.755   5.271   5.955 -0.6186  0.3008  0.4811
  583MOL0     C76860   3.754   5.367   5.853  0.9833 -0.1721 -0.4490
  583MOL0     C76861   3.812   5.313   5.727 -1.5862 -0.6271  0.8363
  583MOL0     C76862   3.851   5.414   5.634 -0.5641  0.0006 -0.1311
  583MOL0     C76863   3.900   5.358   5.499 -0.2840  0.4454 -0.6820
  583MOL0     C76864   3.927   5.465   5.392 -0.2163 -0.5967 -0.0259
  583MOL0     C76865   3.795   5.525   5.332 -0.5568 -0.0732 -0.0993
  583MOL0     C76866   3.798   5.552   5.186 -0.6263 -0.7791  0.2517
  583MOL0     C76867   3.647   5.572   5.128 -0.3320 -0.8570 -0.4346
  583MOL0    Cl76868   3.658   5.698   5.003 -0.1601  0.0551  0.1706
  583MOL0     C76869   3.643   5.181   6.147 -0.9194  0.2889  0.6866
  583MOL0     C76870   3.546   5.191   6.238 -0.1986 -0.0266  0.4376
  583MOL0     O76871   3.326   5.531   6.391 -0.0290  0.3712  0.1084
  583MOL0     C76872   3.130   5.243   6.499 -0.6993  0.5456 -0.6754
  583MOL0     C76873   3.023   5.203   6.589 -0.7107  0.5001  0.0010
  583MOL0     N76874   2.252   5.157   6.793 -0.6484  0.6765 -0.0885
  583MOL0     N76875   2.160   5.175   6.701 -0.1412 -0.1590  0.5021
  583MOL0     C76876   1.203   4.732   6.368  0.2549 -0.1112 -0.0218
  583MOL0     C76877   1.077   4.736   6.300 -0.8082 -0.8175 -0.3123
  583MOL0     C76878   0.651   4.636   6.246  0.2691  0.3765 -0.9857
  583MOL0     C76879   0.550   4.648   6.340  0.5093  0.9804  0.4442
  583MOL0     C76880   0.407   4.644   6.304  0.0334  0.7575 -0.3025
  583MOL0     C76881   0.374   4.647   6.164 -0.2973  1.0587  0.4780
  583MOL0     O76882   0.244   4.636   6.109 -0.4146 -0.0798 -0.2710
  583MOL0     C76883   0.131   4.599   6.198  0.0437  0.2674  0.6561
  583MOL0     C76884   0.034   4.503   6.122  0.4301 -0.9027 -0.5878
  583MOL0     C76885  -0.092   4.477   6.209 -0.5376 -0.0502  0.9511
  583MOL0     C76886  -0.163   4.355   6.152 -0.0925  0.1417  0.1890
  583MOL0     C76887  -0.249   4.385   6.039  0.5616  0.9924 -0.1129
  583MOL0     C76888  -0.312   4.431   5.952  0.2910 -0.2630 -0.1148
  583MOL0     C76889   0.476   4.636   6.078 -0.1829  0.5120 -0.0164
  583MOL0     C76890   0.614   4.626   6.111 -0.3749  0.6407 -0.0248
  583MOL0     H76891   1.042   4.409   6.200  1.7553  0.4340 -1.9832
  583MOL0     H76892   1.266   4.401   6.327 -2.0468 -1.2492 -0.6758
  583MOL0     H76893   1.476   4.714   6.255  3.3961  0.4729 -0.6083
  583MOL0     H76894   1.544   4.560   6.277 -3.6225 -0.8094 -2.9367
  583MOL0     H76895   1.652   4.630   6.500  0.3435  2.3696  1.8046
  583MOL0     H76896   1.573   4.789   6.470  1.6605 -0.4503  0.8473
  583MOL0     H76897   1.735   4.815   6.272  4.0431 -1.1195 -1.4389
  583MOL0     H76898   1.790   4.653   6.306  2.4195  0.7861  0.7833
  583MOL0     H76899   1.801   4.882   6.499  0.3486 -0.8757  0.4874
  583MOL0     H76900   1.856   4.726   6.539 -2.6544  1.6640  1.6677
  583MOL0     H76901   1.935   4.873   6.277 -2.3810 -1.4480 -0.3281
  583MOL0     H76902   2.037   4.753   6.367 -1.3297 -1.5823  1.8533
  583MOL0     H76903   2.067   4.921   6.553  0.0760 -1.0632 -0.5476
  583MOL0     H76904   1.954   5.023   6.472 -1.0298  0.4220 -1.2881
  583MOL0     H76905   2.232   4.972   6.405  0.0652  2.6435  4.5566
  583MOL0     H76906   2.125   5.040   6.275 -6.0154 -1.1287 -0.4885
  583MOL0     H76907   2.057   5.212   6.459 -0.6032  0.2295  0.9212
  583MOL0     H76908   2.214   5.230   6.384  0.2598  0.5704 -1.0410
  583MOL0     H76909   2.440   5.183   6.516 -0.6156 -1.0786 -0.8119
  583MOL0     H76910   2.559   5.043   6.778 -0.8849 -0.5745  1.4479
  583MOL0     H76911   2.483   5.125   6.909  1.1156 -3.9542  0.2973
  583MOL0     H76912   2.510   5.352   6.780  3.3781  2.1312 -3.9312
  583MOL0     H76913   2.621   5.271   6.681  1.6722  1.2744  0.4598
  583MOL0     H76914   2.637   5.338   6.977  1.2052  0.9733 -0.3683
  583MOL0     H76915   2.691   5.173   6.931 -2.6143 -0.3999  0.7568
  583MOL0     H76916   2.871   5.371   6.938 -0.8871  1.4241  0.3056
  583MOL0     H76917   2.788   5.431   6.789 -2.4235 -1.6140 -3.9012
  583MOL0     H76918   3.013   5.492   6.769  1.0666 -0.7638  2.1257
  583MOL0     H76919   3.157   5.567   6.599  0.0065 -0.7429  0.7961
  583MOL0     H76920   3.457   5.512   6.208 -0.0092 -1.7401  0.2280
  583MOL0     H76921   3.605   5.501   6.031  0.0956  0.8475  2.2363
  583MOL0     H76922   3.817   5.450   5.886  2.9004 -1.0827 -1.7014
  583MOL0     H76923   3.651   5.398   5.831 -0.5632 -3.0039  2.0220
  583MOL0     H76924   3.739   5.246   5.682 -1.0683 -1.5584  1.3441
  583MOL0     H76925   3.896   5.245   5.748 -1.8111 -1.3972 -0.6562
  583MOL0     H76926   3.928   5.476   5.682 -4.4452  2.7696  3.1748
  583MOL0     H76927   3.761   5.472   5.613 -0.8048  0.0676  1.0603
  583MOL0     H76928   3.989   5.296   5.514 -0.4318  0.2102 -0.7720
  583MOL0     H76929   3.817   5.296   5.463 -1.1501  0.5788  1.0026
  583MOL0     H76930   4.003   5.431   5.321 -1.7181 -3.2534 -0.5040
  583MOL0     H76931   3.982   5.543   5.445  1.6850  1.6924 -4.8275
  583MOL0     H76932   3.767   5.609   5.397  2.0872  0.0077  1.0463
  583MOL0     H76933   3.712   5.456   5.347 -0.3193 -0.3984 -0.2606
  583MOL0     H76934   3.853   5.645   5.169 -1.4210 -0.7006 -2.3154
  583MOL0     H76935   3.852   5.485   5.118 -0.3479  1.1038 -1.4542
  583MOL0     H76936   3.584   5.616   5.206  1.0845 -1.5281  1.1706
  583MOL0     H76937   3.607   5.478   5.089 -3.5474  0.2635 -0.1234
  583MOL0     H76938   3.705   5.092   6.140 -0.1292  0.5615  3.2760
  583MOL0     H76939   3.519   5.100   6.291  2.3840 -1.0987  0.0761
  583MOL0     H76940   3.180   5.170   6.436 -0.6505 -0.5183  0.5730
  583MOL0     H76941   2.986   5.101   6.589 -0.5199  0.4082 -1.3268
  583MOL0     H76942   1.253   4.821   6.404 -0.0506 -0.3418  0.9919
  583MOL0     H76943   1.019   4.827   6.311 -0.2435 -0.3824 -0.8792
  583MOL0     H76944   0.563   4.661   6.447 -0.1335 -1.1761  0.8306
  583MOL0     H76945   0.347   4.656   6.394  1.0531  0.1157  0.4979
  583MOL0     H76946   0.082   4.686   6.244 -0.7336 -1.0305  2.3871
  583MOL0     H76947   0.163   4.538   6.282 -3.4881 -0.4874  1.6162
  583MOL0     H76948   0.004   4.556   6.032  2.7006  0.7155 -0.4827
  583MOL0     H76949   0.088   4.409   6.107  1.8121 -0.0372 -1.2225
  583MOL0     H76950  -0.162   4.558   6.230 -0.6144 -0.2466  1.4839
  583MOL0     H76951  -0.049   4.466   6.310  1.0313 -1.9739  0.1401
  583MOL0     H76952  -0.098   4.276   6.113  0.2158  1.4673 -2.1184
  583MOL0     H76953  -0.233   4.312   6.225 -1.2048  0.8141 -0.4471
  583MOL0     H76954  -0.370   4.478   5.874  0.0067 -0.7133 -0.1812
  583MOL0     H76955   0.459   4.635   5.971  0.0632  1.1037 -0.0603
  583MOL0     H76956   0.688   4.641   6.033  0.5359 -3.2009 -0.0842
  584MOL0     O76957  10.173   2.845   8.879 -0.1576  0.4832  0.8083
  584MOL0     C76958  10.105   2.894   8.793  0.1362  0.3664 -0.0172
  584MOL0     O76959  10.073   3.026   8.785 -0.0027 -0.1814 -0.1876
  584MOL0     C76960  10.130   3.127   8.849  0.5961  0.1965 -0.0850
  584MOL0     C76961  10.096   3.142   8.986  0.4436 -0.5273 -0.8751
  584MOL0     C76962  10.163   3.232   9.067 -0.0535  0.5357  0.1981
  584MOL0     C76963  10.264   3.317   9.017  0.4097 -0.1684  0.4130
  584MOL0     O76964  10.335   3.396   9.108  0.2688 -0.2282  0.1589
  584MOL0     C76965  10.349   3.533   9.082 -0.5670  0.5660  0.7854
  584MOL0     C76966  10.313   3.593   9.219 -1.3729 -0.4188  0.3201
  584MOL0     C76967  10.387   3.732   9.232  0.0889  0.1144 -0.4208
  584MOL0     C76968  10.363   3.805   9.362 -0.5871 -0.6075 -0.6121
  584MOL0     C76969  10.419   3.950   9.367  0.5494  0.0647 -0.8073
  584MOL0     C76970  10.478   3.990   9.501 -0.3648  0.0617 -0.2958
  584MOL0     C76971  10.471   4.141   9.524  0.0774 -0.6547  0.0343
  584MOL0     C76972  10.562   4.182   9.639 -0.1043 -1.2312 -0.1028
  584MOL0     N76973  10.586   4.331   9.631  0.0010  0.3584 -0.7918
  584MOL0     C76974  10.489   4.421   9.594  0.6201 -0.7420  0.0718
  584MOL0     C76975  10.559   4.534   9.585 -0.0487 -0.2054  0.9466
  584MOL0     C76976  10.492   4.668   9.548  0.7781  0.2276 -0.1915
  584MOL0     C76977  10.491   4.703   9.392 -0.5140  0.2955 -0.6221
  584MOL0     C76978  10.461   4.850   9.373 -0.0408 -0.0344 -0.8353
  584MOL0     C76979  10.463   4.888   9.223 -1.3808  0.6345 -0.7488
  584MOL0     O76980  10.345   4.833   9.162  0.4499 -0.3653  0.0832
  584MOL0     C76981  10.220   4.878   9.188  0.7621  0.4058 -0.3303
  584MOL0     C76982  10.185   4.989   9.258 -1.3542 -0.3319 -0.1883
  584MOL0     C76983  10.054   5.036   9.263  0.4656  0.4881 -0.2976
  584MOL0     C76984   9.947   4.963   9.206  0.6333 -0.4996 -0.4944
  584MOL0     C76985   9.804   5.003   9.221  0.2663 -0.6899 -0.2975
  584MOL0     O76986   9.710   4.911   9.199 -0.7220 -0.4563 -0.4208
  584MOL0     C76987   9.580   4.952   9.205 -0.8204  0.2347  0.2625
  584MOL0     C76988   9.521   5.005   9.316 -0.0904 -0.0137 -0.0194
  584MOL0     C76989   9.388   5.039   9.306  0.9836 -0.1082 -0.4262
  584MOL0     C76990   9.309   5.005   9.195 -0.1777 -0.2151  0.9058
  584MOL0     O76991   9.174   5.028   9.187  0.4454  0.5420 -0.1255
  584MOL0     C76992   9.132   5.147   9.110  0.1436  0.2799  0.0959
  584MOL0     C76993   8.997   5.195   9.158 -0.2102  1.0519 -0.8366
  584MOL0     C76994   8.888   5.110   9.081 -0.2632 -0.5555  0.3778
  584MOL0     C76995   8.748   5.184   9.071 -0.3927  0.7367  0.2791
  584MOL0     C76996   8.655   5.121   8.957 -0.6114 -0.5449 -0.0121
  584MOL0     C76997   8.518   5.188   8.963  0.3377 -0.9645 -0.3269
  584MOL0     C76998   8.414   5.144   8.855  1.0540  0.4814  0.3989
  584MOL0     C76999   8.412   4.990   8.836 -0.0665  0.0978  0.2973
  584MOL0    Cl77000   8.275   4.940   8.713  0.6647 -0.0675  0.4884
  584MOL0     C77001   9.370   4.940   9.090  0.0112  0.4821 -0.0945
  584MOL0     C77002   9.504   4.922   9.095  0.3509  0.2661 -0.0293
  584MOL0     O77003   9.781   5.122   9.248  0.1787  0.1937 -1.2589
  584MOL0     C77004   9.977   4.844   9.146 -0.5863  0.0116  0.0317
  584MOL0     C77005  10.111   4.805   9.142 -0.0702 -0.6952  0.9776
  584MOL0     N77006  10.693   4.517   9.613  0.5239 -0.9630 -0.5679
  584MOL0     N77007  10.705   4.394   9.655  0.1404  0.1370  0.2522
  584MOL0     C77008  10.296   3.305   8.882  0.8601 -0.7747  0.1891
  584MOL0     C77009  10.233   3.213   8.796  0.3581 -0.4897 -0.2350
  584MOL0     C77010  10.016   2.808   8.708  0.1826 -0.0554 -0.7582
  584MOL0     C77011   9.970   2.847   8.581  1.2375  0.1376 -0.1598
  584MOL0     C77012   9.889   2.768   8.511 -0.1987  1.0385  0.2926
  584MOL0     C77013   9.856   2.635   8.552  0.3659 -0.5483  0.3822
  584MOL0     O77014   9.797   2.544   8.456 -0.1197 -0.7581 -0.3442
  584MOL0     C77015   9.789   2.410   8.490  0.6574 -0.2254  0.1678
  584MOL0     C77016   9.730   2.337   8.365 -0.2749 -0.0509 -0.5252
  584MOL0     C77017   9.842   2.317   8.257  1.0127 -0.2681 -0.9839
  584MOL0     C77018   9.796   2.299   8.109 -0.0268  0.1792 -0.3750
  584MOL0     C77019   9.721   2.415   8.053 -0.1445  0.5413  0.7145
  584MOL0     C77020   9.671   2.504   8.002 -0.8161  0.1267 -0.2077
  584MOL0     C77021   9.906   2.597   8.677 -0.1780  0.1677  0.7287
  584MOL0     C77022   9.986   2.683   8.751 -0.0420 -0.5312  0.1928
  584MOL0     H77023  10.016   3.078   9.022  0.6365  0.0610  0.6716
  584MOL0     H77024  10.133   3.235   9.171  0.3013 -0.1859  0.3310
  584MOL0     H77025  10.283   3.561   8.999 -0.1581 -0.0208  0.2505
  584MOL0     H77026  10.456   3.541   9.061 -0.6151 -0.4044  0.0934
  584MOL0     H77027  10.343   3.519   9.294 -3.4959 -0.3084  1.3709
  584MOL0     H77028  10.204   3.604   9.223 -1.4768  2.5524 -4.0244
  584MOL0     H77029  10.344   3.788   9.149  0.5125 -1.1511 -1.5348
  584MOL0     H77030  10.494   3.717   9.215 -0.1477 -1.1002 -0.8925
  584MOL0     H77031  10.254   3.799   9.377 -0.4034  0.3713  1.4629
  584MOL0     H77032  10.395   3.745   9.446  2.8885 -2.6450 -3.1485
  584MOL0     H77033  10.334   4.018   9.355  0.2971  0.4164  2.1886
  584MOL0     H77034  10.491   3.962   9.284  2.0833 -2.5444  0.0379
  584MOL0     H77035  10.582   3.955   9.506 -0.6816 -0.9316 -0.3227
  584MOL0     H77036  10.419   3.950   9.585  3.4980 -1.2788  2.0688
  584MOL0     H77037  10.493   4.190   9.429  0.0255 -2.6830 -1.0732
  584MOL0     H77038  10.368   4.174   9.542  0.2929 -1.3902  3.2186
  584MOL0     H77039  10.658   4.129   9.637  0.9017  0.5322 -1.6882
  584MOL0     H77040  10.505   4.148   9.726 -2.4813  0.2608 -0.9716
  584MOL0     H77041  10.384   4.394   9.580  0.3290 -0.5475  1.6556
  584MOL0     H77042  10.546   4.753   9.590 -0.2682 -0.8826  3.8726
  584MOL0     H77043  10.387   4.665   9.580  0.5439  1.9186 -0.6789
  584MOL0     H77044  10.425   4.637   9.336 -2.3223  0.6048  1.0262
  584MOL0     H77045  10.596   4.693   9.363  0.3397  3.6448  0.8209
  584MOL0     H77046  10.364   4.878   9.414 -0.3542 -3.4655  1.2126
  584MOL0     H77047  10.542   4.912   9.412 -0.0999 -1.6012  2.0319
  584MOL0     H77048  10.554   4.845   9.181  0.2151  0.5799  2.4477
  584MOL0     H77049  10.467   4.996   9.210 -1.9409  0.8446  0.6268
  584MOL0     H77050  10.267   5.041   9.307 -0.7216  0.5237 -2.0670
  584MOL0     H77051  10.029   5.125   9.320  2.8391  1.7094 -1.0347
  584MOL0     H77052   9.572   5.024   9.409 -0.2809  0.8785 -0.0790
  584MOL0     H77053   9.329   5.069   9.393  0.3415 -0.3977 -0.7527
  584MOL0     H77054   9.147   5.139   9.002  2.4215  2.0695  0.2107
  584MOL0     H77055   9.208   5.223   9.133  0.5107 -0.8605  3.1547
  584MOL0     H77056   8.990   5.304   9.152  0.9907  1.1203 -1.1929
  584MOL0     H77057   8.986   5.170   9.264 -2.5709  0.7741 -1.0813
  584MOL0     H77058   8.889   5.008   9.121  2.6392 -0.9323 -0.3838
  584MOL0     H77059   8.921   5.119   8.977 -0.0385  1.2705  0.5705
  584MOL0     H77060   8.694   5.175   9.166 -3.2997 -1.6116 -1.4109
  584MOL0     H77061   8.764   5.286   9.037  2.0336 -0.1822 -1.6300
  584MOL0     H77062   8.642   5.015   8.978  0.2114 -0.2761  2.1150
  584MOL0     H77063   8.699   5.150   8.861 -2.7541 -2.7479 -1.7941
  584MOL0     H77064   8.535   5.296   8.960  1.3553 -1.1078 -0.1072
  584MOL0     H77065   8.471   5.165   9.060 -1.3887 -2.3021 -1.4205
  584MOL0     H77066   8.327   5.204   8.881  1.3421  0.6387  1.0310
  584MOL0     H77067   8.455   5.188   8.764  0.8604  0.7930  0.4619
  584MOL0     H77068   8.396   4.952   8.938  1.0905  0.2324  0.5375
  584MOL0     H77069   8.509   4.963   8.794  0.1721  0.9663  0.2759
  584MOL0     H77070   9.329   4.910   8.994  2.1773  1.1460 -1.2773
  584MOL0     H77071   9.564   4.873   9.019  0.4108 -0.3845  0.4248
  584MOL0     H77072   9.902   4.790   9.089 -3.3448  2.3945  1.1489
  584MOL0     H77073  10.126   4.716   9.082 -1.1409  0.6640 -1.4798
  584MOL0     H77074  10.388   3.352   8.847  1.2574 -1.2648  0.5598
  584MOL0     H77075  10.271   3.191   8.697  1.7829 -3.5820  0.8405
  584MOL0     H77076  10.008   2.939   8.538  0.0167  0.0365 -1.5202
  584MOL0     H77077   9.838   2.812   8.425 -3.6259 -1.3724  0.9053
  584MOL0     H77078   9.717   2.400   8.572 -1.2280  2.2201 -1.0757
  584MOL0     H77079   9.886   2.370   8.521  1.6097  1.8554  0.0355
  584MOL0     H77080   9.698   2.241   8.406 -2.1922  0.3850 -0.9215
  584MOL0     H77081   9.636   2.379   8.329 -3.1514 -0.9667  4.9208
  584MOL0     H77082   9.895   2.225   8.286  0.1557 -0.2009  0.9729
  584MOL0     H77083   9.915   2.397   8.272 -1.1919  1.5301  0.9865
  584MOL0     H77084   9.880   2.278   8.042 -1.5937 -3.0700 -1.5021
  584MOL0     H77085   9.726   2.215   8.108  0.8405 -0.6465  1.8378
  584MOL0     H77086   9.613   2.582   7.958 -0.6813  1.3270  1.6141
  584MOL0     H77087   9.894   2.500   8.724 -0.3134 -0.7730 -1.1429
  584MOL0     H77088  10.031   2.653   8.845  0.6663  0.5983  0.2449
  585MOL0     O77089   6.413   6.809   3.582 -0.7509  0.5067 -0.0365
  585MOL0     C77090   6.456   6.881   3.678  0.1665  0.1715  0.6105
  585MOL0     O77091   6.378   6.951   3.765 -0.3809 -0.4669 -0.0908
  585MOL0     C77092   6.261   7.013   3.734 -0.0200 -0.7331  0.3397
  585MOL0     C77093   6.202   7.028   3.604 -0.8644 -0.1536 -0.5372
  585MOL0     C77094   6.078   7.086   3.591 -0.1734 -0.2052  0.4009
  585MOL0     C77095   6.010   7.148   3.693 -0.9929 -0.2743  1.3083
  585MOL0     O77096   5.899   7.226   3.675 -0.0306  0.2164 -0.4612
  585MOL0     C77097   5.774   7.171   3.730  0.3951  0.9498  0.3588
  585MOL0     C77098   5.656   7.270   3.703 -0.0148 -0.5829  0.0524
  585MOL0     C77099   5.669   7.397   3.762  0.3009 -0.5538 -0.0255
  585MOL0     C77100   5.543   7.491   3.725  0.3377  0.3389  0.7096
  585MOL0     C77101   5.493   7.579   3.844 -0.3933  0.7485 -0.5351
  585MOL0     C77102   5.437   7.716   3.796 -0.2852 -0.2502 -0.0101
  585MOL0     C77103   5.378   7.781   3.928  0.5594  0.4439 -0.4574
  585MOL0     C77104   5.328   7.928   3.911  0.0462  0.1974  0.7113
  585MOL0     N77105   5.263   7.988   4.027 -0.6273 -0.1713  0.0029
  585MOL0     C77106   5.326   8.070   4.118 -0.1572  0.0179 -0.6107
  585MOL0     C77107   5.226   8.123   4.193 -0.3815 -0.0492  0.4934
  585MOL0     C77108   5.237   8.207   4.323 -0.7457  0.6782 -0.1118
  585MOL0     C77109   5.178   8.144   4.442 -0.0535  0.2892 -0.0214
  585MOL0     C77110   5.218   8.210   4.565  0.9633  0.2927  0.0041
  585MOL0     C77111   5.109   8.185   4.678  0.4162 -1.3194 -0.2334
  585MOL0     O77112   5.065   8.051   4.686  0.0056 -0.1053 -0.7199
  585MOL0     C77113   4.997   8.030   4.803 -0.1830  0.0245 -0.6110
  585MOL0     C77114   5.036   7.929   4.891 -0.6042 -0.4946 -0.5024
  585MOL0     C77115   4.964   7.898   5.014  0.2512 -1.1273  0.5338
  585MOL0     C77116   4.846   7.978   5.043 -0.3766  0.3744 -0.5104
  585MOL0     C77117   4.762   7.939   5.164 -0.4607  0.6556  0.5179
  585MOL0     O77118   4.798   7.821   5.221 -0.0905  0.6672 -0.1102
  585MOL0     C77119   4.698   7.770   5.306  0.0182 -0.8472  0.5021
  585MOL0     C77120   4.588   7.706   5.247 -1.3994  0.1169 -0.4611
  585MOL0     C77121   4.488   7.655   5.321 -0.2272  0.2412 -0.7202
  585MOL0     C77122   4.490   7.671   5.458  0.3521 -0.3218  0.9712
  585MOL0     O77123   4.384   7.608   5.521  0.3898 -0.4022 -0.5396
  585MOL0     C77124   4.333   7.670   5.629 -0.2723  0.6164  0.8205
  585MOL0     C77125   4.196   7.611   5.663 -0.2271 -0.8971 -0.3146
  585MOL0     C77126   4.101   7.595   5.549  0.2408 -0.5413 -0.9430
  585MOL0     C77127   3.967   7.538   5.594 -0.1745  0.0487 -0.2359
  585MOL0     C77128   3.892   7.451   5.493 -0.1691 -0.2271  0.2353
  585MOL0     C77129   3.795   7.352   5.565 -0.9303 -0.1429  0.5637
  585MOL0     C77130   3.714   7.400   5.684  0.8495 -0.1624 -0.2794
  585MOL0     C77131   3.581   7.329   5.704  0.5577 -0.2484  0.6373
  585MOL0    Cl77132   3.597   7.149   5.705  0.2169  0.1818  0.3366
  585MOL0     C77133   4.596   7.738   5.522 -1.1136  0.0099  0.7294
  585MOL0     C77134   4.710   7.784   5.442  0.5283 -0.1037 -0.8394
  585MOL0     O77135   4.662   8.007   5.190  0.0500  0.7540  0.0465
  585MOL0     C77136   4.811   8.079   4.955 -0.2706  0.7953  1.1379
  585MOL0     C77137   4.885   8.107   4.835 -0.7119 -0.0585  0.1824
  585MOL0     N77138   5.109   8.069   4.140  0.0261  0.3153 -0.2136
  585MOL0     N77139   5.129   7.995   4.040 -0.3345  0.0676 -0.1272
  585MOL0     C77140   6.079   7.151   3.821  0.9479  0.6190  0.0838
  585MOL0     C77141   6.201   7.077   3.838  0.1206 -0.3037 -0.4668
  585MOL0     C77142   6.595   6.886   3.704 -0.4950 -0.3454  0.2883
  585MOL0     C77143   6.683   6.818   3.609 -0.2548 -0.1887 -0.6337
  585MOL0     C77144   6.821   6.805   3.636 -0.0592 -0.5687 -0.3928
  585MOL0     C77145   6.878   6.863   3.754 -0.0442 -0.0529 -0.2556
  585MOL0     O77146   7.004   6.826   3.787 -0.3200 -0.1304  0.3073
  585MOL0     C77147   7.039   6.799   3.921  0.3036  0.2986  0.0349
  585MOL0     C77148   7.200   6.824   3.929  0.7409 -0.4013  0.7898
  585MOL0     C77149   7.246   6.751   4.063  0.2167 -0.1687 -0.6979
  585MOL0     C77150   7.398   6.737   4.076 -0.7702  0.7579  0.1159
  585MOL0     C77151   7.460   6.871   4.055 -1.2875  0.9563  0.5119
  585MOL0     C77152   7.521   6.976   4.062  0.0288  0.0482  1.0077
  585MOL0     C77153   6.789   6.929   3.842 -1.6021  0.1661  0.6868
  585MOL0     C77154   6.656   6.940   3.817  0.0036 -0.3881 -1.0165
  585MOL0     H77155   6.256   6.993   3.517 -1.3476 -0.4170 -0.7352
  585MOL0     H77156   6.036   7.087   3.491  2.1577  2.7158 -0.6939
  585MOL0     H77157   5.786   7.146   3.836 -2.0173 -2.9730 -0.0971
  585MOL0     H77158   5.743   7.076   3.685  3.9638 -0.4626  0.5122
  585MOL0     H77159   5.570   7.225   3.753 -1.2176  2.7740  1.2651
  585MOL0     H77160   5.634   7.280   3.596 -0.3051  3.8354  0.3247
  585MOL0     H77161   5.754   7.454   3.724 -1.4145  2.5012  0.3923
  585MOL0     H77162   5.678   7.392   3.871 -1.0662  2.5977  0.3360
  585MOL0     H77163   5.569   7.556   3.641  1.3557  0.4293  1.0782
  585MOL0     H77164   5.461   7.424   3.698 -1.3401  1.6314  2.3656
  585MOL0     H77165   5.575   7.601   3.913 -1.3357  0.0303  0.8764
  585MOL0     H77166   5.418   7.525   3.902 -4.0187  4.2995 -1.4522
  585MOL0     H77167   5.362   7.701   3.718 -0.0560 -3.0471  0.2084
  585MOL0     H77168   5.524   7.773   3.760  1.8089 -3.2080  0.0312
  585MOL0     H77169   5.295   7.730   3.978  1.0693  1.5649  1.6421
  585MOL0     H77170   5.454   7.788   4.006  0.6299 -0.9439 -0.3855
  585MOL0     H77171   5.264   7.924   3.822  1.5192  0.7725 -0.4315
  585MOL0     H77172   5.411   7.994   3.885 -1.2169  2.4661  2.1452
  585MOL0     H77173   5.428   8.106   4.134 -0.0428 -0.3218 -0.5614
  585MOL0     H77174   5.206   8.309   4.300 -0.8101  0.6883  0.0107
  585MOL0     H77175   5.345   8.208   4.340 -0.3375 -5.0351 -0.4054
  585MOL0     H77176   5.203   8.038   4.437 -1.3987 -0.1795  1.9877
  585MOL0     H77177   5.069   8.133   4.436 -0.0540  0.5534 -0.5169
  585MOL0     H77178   5.315   8.180   4.606  1.1308 -2.6702 -2.1872
  585MOL0     H77179   5.229   8.317   4.546 -1.5475  0.3796 -1.4383
  585MOL0     H77180   5.019   8.243   4.657  0.2907  0.2525  3.7301
  585MOL0     H77181   5.148   8.223   4.772  1.0263  0.1815 -1.0691
  585MOL0     H77182   5.114   7.856   4.875 -1.7671 -1.4296 -2.1041
  585MOL0     H77183   5.008   7.816   5.069  0.0895  0.0135  2.4606
  585MOL0     H77184   4.578   7.697   5.139  0.0819 -0.1984 -0.5906
  585MOL0     H77185   4.401   7.610   5.273 -0.7903  1.7960 -1.2101
  585MOL0     H77186   4.337   7.779   5.617 -0.0241  0.3704 -2.0968
  585MOL0     H77187   4.400   7.650   5.713  1.1988 -0.6247 -0.6031
  585MOL0     H77188   4.138   7.676   5.730 -0.6288 -0.1181 -1.4000
  585MOL0     H77189   4.219   7.519   5.718  0.2424 -0.3747  0.3914
  585MOL0     H77190   4.145   7.528   5.475 -1.8829 -1.5210 -1.4025
  585MOL0     H77191   4.091   7.691   5.498  0.4569  0.7991  1.3801
  585MOL0     H77192   3.999   7.474   5.677  1.2433  0.0682 -0.7373
  585MOL0     H77193   3.897   7.603   5.647 -0.3697 -0.9647  0.7957
  585MOL0     H77194   3.969   7.402   5.433  0.3125 -0.0121  0.6720
  585MOL0     H77195   3.831   7.510   5.424 -1.9136  0.4347  2.2408
  585MOL0     H77196   3.855   7.268   5.601 -1.4968 -0.1619  1.4848
  585MOL0     H77197   3.736   7.307   5.484 -0.9504  0.1305  0.4272
  585MOL0     H77198   3.768   7.386   5.777  1.1756 -2.5325 -0.7730
  585MOL0     H77199   3.695   7.508   5.681  0.3108 -0.0517  3.4231
  585MOL0     H77200   3.497   7.363   5.642  0.3119 -0.8199  0.6465
  585MOL0     H77201   3.550   7.357   5.805  0.8996 -0.1752  0.7207
  585MOL0     H77202   4.600   7.740   5.630 -1.1526  2.6764  0.7640
  585MOL0     H77203   4.798   7.833   5.483  0.1932  2.0361 -2.5090
  585MOL0     H77204   4.716   8.128   4.970 -0.8846 -0.3034  0.9284
  585MOL0     H77205   4.839   8.167   4.756  1.5815 -1.1372 -2.1252
  585MOL0     H77206   6.031   7.199   3.906  0.0309 -0.7018  0.3385
  585MOL0     H77207   6.255   7.060   3.930  0.5191 -1.7236 -0.9298
  585MOL0     H77208   6.654   6.783   3.510  1.3266  3.4826 -2.6121
  585MOL0     H77209   6.888   6.750   3.570 -0.2702 -1.9234  0.4956
  585MOL0     H77210   7.010   6.702   3.963  0.7570  0.0141 -0.2989
  585MOL0     H77211   6.985   6.870   3.983 -1.1544  1.6945 -2.6751
  585MOL0     H77212   7.235   6.760   3.848  1.4629 -1.8339  2.1806
  585MOL0     H77213   7.231   6.929   3.928  0.7519 -0.1933  4.7887
  585MOL0     H77214   7.203   6.653   4.082  0.4742 -0.4412 -1.4850
  585MOL0     H77215   7.221   6.817   4.147  3.9001 -0.1239  0.5392
  585MOL0     H77216   7.427   6.691   4.170  1.1359  0.1221 -0.7227
  585MOL0     H77217   7.449   6.669   4.007  3.4139  1.3492  2.3117
  585MOL0     H77218   7.563   7.074   4.051 -0.3008 -0.0755 -2.1517
  585MOL0     H77219   6.814   6.970   3.939  0.4379 -0.6914  0.5761
  585MOL0     H77220   6.594   6.992   3.890 -2.6110 -2.0347 -1.9194
  586MOL0     O77221   0.392   2.895   6.267 -0.8877 -1.0779  0.8174
  586MOL0     C77222   0.479   2.814   6.302  1.0378 -0.0826 -0.5489
  586MOL0     O77223   0.518   2.714   6.230 -0.0894  0.6927 -0.1499
  586MOL0     C77224   0.477   2.704   6.092 -0.4987  0.0772 -0.3908
  586MOL0     C77225   0.415   2.590   6.053  0.6566  0.5968  0.0294
  586MOL0     C77226   0.367   2.553   5.919 -0.7801 -0.0016 -0.7193
  586MOL0     C77227   0.395   2.651   5.823  0.2144 -0.1814 -0.2912
  586MOL0     O77228   0.362   2.632   5.694 -0.4251  0.4354 -0.3013
  586MOL0     C77229   0.250   2.547   5.653 -0.3695  0.0975  0.3744
  586MOL0     C77230   0.117   2.602   5.680  0.8266  0.4491 -0.2822
  586MOL0     C77231   0.056   2.548   5.815  0.0682  0.1158  0.3078
  586MOL0     C77232  -0.090   2.592   5.833  1.3278  0.1054  0.3988
  586MOL0     C77233  -0.194   2.539   5.730  0.2662 -0.9852 -0.4527
  586MOL0     C77234  -0.332   2.532   5.802  0.3143  0.0037  0.0981
  586MOL0     C77235  -0.353   2.406   5.885  0.6578 -0.0545  0.6692
  586MOL0     C77236  -0.482   2.424   5.970  0.1153 -0.2588 -0.2738
  586MOL0     N77237  -0.604   2.425   5.890  0.4018  0.5876 -0.0061
  586MOL0     C77238  -0.656   2.532   5.814  0.2389 -0.8010  0.2155
  586MOL0     C77239  -0.743   2.472   5.725  0.1985 -0.1765 -0.9420
  586MOL0     C77240  -0.834   2.524   5.612  0.2056  0.0853  0.6326
  586MOL0     C77241  -0.928   2.426   5.554 -0.5739 -0.3280 -0.4980
  586MOL0     C77242  -1.068   2.415   5.629 -0.7470 -0.7164  1.1091
  586MOL0     C77243  -1.156   2.316   5.552 -0.2965 -0.1612 -0.4842
  586MOL0     O77244  -1.221   2.385   5.444  0.2399  0.1326  0.1183
  586MOL0     C77245  -1.317   2.313   5.373 -0.5961  0.2914 -0.0435
  586MOL0     C77246  -1.314   2.174   5.376  0.0072  0.8789  0.3246
  586MOL0     C77247  -1.401   2.100   5.293 -0.4086 -0.0065 -0.5949
  586MOL0     C77248  -1.502   2.169   5.229  0.4049  0.4807 -0.1103
  586MOL0     C77249  -1.610   2.097   5.155  0.3318 -0.5338 -0.6286
  586MOL0     O77250  -1.691   2.171   5.082  0.0278 -0.5473  0.1243
  586MOL0     C77251  -1.798   2.107   5.020  0.3327 -0.2719 -0.9998
  586MOL0     C77252  -1.899   2.060   5.102  1.2627 -1.1140  0.0639
  586MOL0     C77253  -2.007   1.985   5.048 -0.9760 -0.1349 -0.8725
  586MOL0     C77254  -2.014   1.956   4.916 -0.9778 -0.0974 -0.7131
  586MOL0     O77255  -2.119   1.906   4.857 -0.0204 -0.1933  0.0967
  586MOL0     C77256  -2.105   1.759   4.845  0.1828 -1.3132 -0.1205
  586MOL0     C77257  -2.163   1.682   4.956  0.5222 -0.0046 -0.3479
  586MOL0     C77258  -2.311   1.655   4.923  0.3489  1.2084 -1.2617
  586MOL0     C77259  -2.376   1.559   5.025  0.3406  0.3045 -0.1638
  586MOL0     C77260  -2.391   1.631   5.166 -0.0921  0.0169 -0.4051
  586MOL0     C77261  -2.490   1.759   5.171  0.8869 -0.1278  0.2226
  586MOL0     C77262  -2.629   1.709   5.113 -0.6015  1.0111 -1.4611
  586MOL0     C77263  -2.742   1.782   5.175  0.3996  0.6426 -0.3903
  586MOL0    Cl77264  -2.886   1.739   5.079  0.5798  0.6880 -0.2416
  586MOL0     C77265  -1.908   2.005   4.832 -1.0060 -0.0257 -0.9043
  586MOL0     C77266  -1.807   2.080   4.886  0.0411  0.1777  0.2211
  586MOL0     O77267  -1.623   1.974   5.180  0.1614  0.2064 -0.0297
  586MOL0     C77268  -1.512   2.308   5.247 -0.2717 -0.3057  0.8383
  586MOL0     C77269  -1.416   2.380   5.314  0.5489  0.6938 -0.2811
  586MOL0     N77270  -0.731   2.329   5.752 -0.1864  0.1621  0.5549
  586MOL0     N77271  -0.646   2.299   5.843 -0.9899 -0.2285 -0.6977
  586MOL0     C77272   0.458   2.767   5.855 -0.8460  0.3170 -0.2080
  586MOL0     C77273   0.502   2.793   5.988  0.3091 -0.3112 -0.5966
  586MOL0     C77274   0.515   2.831   6.446  0.9864  0.1446  0.3430
  586MOL0     C77275   0.445   2.913   6.537  0.4359  0.8032  0.3372
  586MOL0     C77276   0.460   2.914   6.666 -0.5826 -0.4107 -0.6038
  586MOL0     C77277   0.563   2.837   6.721  0.3529  1.0195  0.1342
  586MOL0     O77278   0.561   2.832   6.860 -0.7274 -0.2710 -0.0963
  586MOL0     C77279   0.674   2.769   6.935  0.2749  0.4901  0.6176
  586MOL0     C77280   0.661   2.611   6.952 -0.5137  0.4202 -0.2732
  586MOL0     C77281   0.517   2.581   7.001 -0.2734  0.6722 -0.4626
  586MOL0     C77282   0.500   2.435   7.029  0.0436 -0.4034  0.8536
  586MOL0     C77283   0.358   2.404   7.048  0.1530  0.1622  0.4667
  586MOL0     C77284   0.238   2.395   7.067 -0.6584  0.2261 -0.5216
  586MOL0     C77285   0.648   2.766   6.634 -0.2152 -0.0769  0.8171
  586MOL0     C77286   0.629   2.760   6.496  1.2925 -0.1676  0.1440
  586MOL0     H77287   0.387   2.525   6.136  2.7175 -1.8381 -1.0552
  586MOL0     H77288   0.319   2.457   5.906  0.4228 -0.4134 -2.2902
  586MOL0     H77289   0.255   2.444   5.691 -0.5776 -0.4773 -1.0968
  586MOL0     H77290   0.255   2.535   5.544 -1.2047  1.5177  0.1562
  586MOL0     H77291   0.040   2.570   5.610 -1.1144  1.4857  1.2786
  586MOL0     H77292   0.118   2.711   5.672  1.0962  0.5255  0.6662
  586MOL0     H77293   0.112   2.588   5.900 -2.6658  2.6412  1.1141
  586MOL0     H77294   0.059   2.439   5.821 -3.2015 -0.0562  0.8406
  586MOL0     H77295  -0.127   2.580   5.935 -0.6585  1.7255 -0.0756
  586MOL0     H77296  -0.092   2.702   5.829  2.1114  0.1696  1.2211
  586MOL0     H77297  -0.159   2.440   5.699 -1.2447 -1.7985  0.3274
  586MOL0     H77298  -0.194   2.601   5.641  0.3614 -2.9803 -1.9234
  586MOL0     H77299  -0.412   2.534   5.727 -0.3577 -0.6733  0.7825
  586MOL0     H77300  -0.338   2.623   5.861  3.1217  0.0780  0.3909
  586MOL0     H77301  -0.360   2.323   5.814  0.8999 -0.8692  1.5689
  586MOL0     H77302  -0.265   2.389   5.947  0.2028  1.4097  1.7864
  586MOL0     H77303  -0.479   2.519   6.024 -0.3208 -0.6148  0.4017
  586MOL0     H77304  -0.487   2.343   6.044 -0.3688 -1.0291 -1.1299
  586MOL0     H77305  -0.633   2.638   5.809  1.4809 -1.1148 -1.8744
  586MOL0     H77306  -0.767   2.556   5.531 -2.1413 -0.2973 -1.5688
  586MOL0     H77307  -0.887   2.610   5.654 -2.2111 -1.8918  1.9403
  586MOL0     H77308  -0.869   2.334   5.545  1.4903  0.8118  0.5909
  586MOL0     H77309  -0.945   2.469   5.455  2.3651 -0.1065 -1.0111
  586MOL0     H77310  -1.043   2.375   5.728  2.6113  1.7723  1.4319
  586MOL0     H77311  -1.110   2.515   5.644  2.6145  0.9963  0.0812
  586MOL0     H77312  -1.239   2.278   5.612 -1.2338  1.1297 -0.9088
  586MOL0     H77313  -1.094   2.229   5.527  1.0841  0.6609 -0.0448
  586MOL0     H77314  -1.236   2.119   5.427 -0.9102 -0.2606  0.5166
  586MOL0     H77315  -1.414   1.994   5.315 -3.4645  0.5399  0.7476
  586MOL0     H77316  -1.901   2.085   5.207 -0.4707  3.6695 -0.8735
  586MOL0     H77317  -2.089   1.969   5.117  0.9055  0.3188  1.6020
  586MOL0     H77318  -1.999   1.736   4.849 -0.0440 -2.7700 -1.3775
  586MOL0     H77319  -2.141   1.740   4.744  0.8048 -1.8089 -0.2573
  586MOL0     H77320  -2.146   1.738   5.048  1.0968  0.9270 -1.0045
  586MOL0     H77321  -2.111   1.587   4.969 -0.5062 -0.3654  1.3935
  586MOL0     H77322  -2.305   1.595   4.832  0.6490  0.1569 -0.5601
  586MOL0     H77323  -2.378   1.740   4.906  0.3321  0.7453 -3.9354
  586MOL0     H77324  -2.475   1.536   4.984  0.5557 -0.2627 -0.3664
  586MOL0     H77325  -2.323   1.465   5.039 -3.3001 -1.4598  4.9920
  586MOL0     H77326  -2.307   1.688   5.208 -2.4668  0.9772  3.5492
  586MOL0     H77327  -2.416   1.559   5.244  1.1101 -0.3961 -0.3776
  586MOL0     H77328  -2.457   1.841   5.107  2.2794 -1.4680 -0.8358
  586MOL0     H77329  -2.495   1.806   5.270 -1.5725 -0.4173  0.3171
  586MOL0     H77330  -2.627   1.713   5.004  0.2554 -1.1553 -1.5729
  586MOL0     H77331  -2.644   1.603   5.135  1.0048  0.7375 -1.5368
  586MOL0     H77332  -2.711   1.886   5.184 -1.2874  1.0609  0.8903
  586MOL0     H77333  -2.766   1.752   5.277  1.9147  1.0649  0.1225
  586MOL0     H77334  -1.924   1.997   4.725  0.3368 -1.3941 -1.0352
  586MOL0     H77335  -1.732   2.116   4.817  0.1480 -3.8769 -2.0934
  586MOL0     H77336  -1.597   2.361   5.205  0.5510 -0.5954 -1.3156
  586MOL0     H77337  -1.420   2.488   5.320  0.5525  0.7021 -0.4250
  586MOL0     H77338   0.467   2.844   5.779  1.5766 -0.9569 -1.3209
  586MOL0     H77339   0.549   2.888   6.009 -3.9484  1.8899  0.1268
  586MOL0     H77340   0.358   2.967   6.500 -1.5714 -3.2917 -1.5132
  586MOL0     H77341   0.406   2.976   6.737  0.3156 -0.5629  0.2488
  586MOL0     H77342   0.679   2.807   7.037  0.1419  1.6586  0.2093
  586MOL0     H77343   0.769   2.790   6.885 -1.1665  2.5141 -1.4929
  586MOL0     H77344   0.681   2.563   6.856 -2.7851  0.0680 -0.6058
  586MOL0     H77345   0.737   2.581   7.026  1.1414  1.6803 -1.3774
  586MOL0     H77346   0.447   2.600   6.920  0.9199 -0.5768 -1.8365
  586MOL0     H77347   0.487   2.641   7.088 -1.5263 -4.0616  2.7862
  586MOL0     H77348   0.552   2.376   6.952  0.0693  1.7628 -0.8617
  586MOL0     H77349   0.564   2.401   7.111  4.0630 -1.8931 -2.5189
  586MOL0     H77350   0.133   2.394   7.089 -1.0580 -0.6493 -2.3180
  586MOL0     H77351   0.732   2.704   6.663 -0.5886 -1.1064 -0.2300
  586MOL0     H77352   0.699   2.706   6.432 -0.0176 -0.3612 -1.1839
  587MOL0     O77353   9.332   4.516  10.109  0.2689  0.5560  0.9929
  587MOL0     C77354   9.269   4.446  10.027  0.9677 -0.3827 -0.0749
  587MOL0     O77355   9.147   4.393  10.046 -0.3545  0.3698  0.5330
  587MOL0     C77356   9.074   4.447  10.157  0.4908 -0.2171  0.4707
  587MOL0     C77357   8.977   4.549  10.138  0.0272 -1.1098  0.2626
  587MOL0     C77358   8.913   4.604  10.251 -0.5002  0.5091  0.7233
  587MOL0     C77359   8.935   4.550  10.378 -0.3045 -0.9013 -0.6836
  587MOL0     O77360   8.857   4.600  10.484 -0.5381  0.2062  0.0596
  587MOL0     C77361   8.868   4.541  10.614  0.1481 -0.1843 -0.7213
  587MOL0     C77362   8.733   4.557  10.692  0.4759 -0.0511  0.5323
  587MOL0     C77363   8.712   4.695  10.744  0.2241 -0.3243  0.1957
  587MOL0     C77364   8.585   4.702  10.839 -0.0530 -0.0618  0.3972
  587MOL0     C77365   8.540   4.829  10.910 -0.4565 -0.4758 -0.1907
  587MOL0     C77366   8.407   4.815  10.979 -1.3359 -0.8944  0.1837
  587MOL0     C77367   8.416   4.730  11.107 -1.1446 -0.9149 -0.7432
  587MOL0     C77368   8.283   4.736  11.191 -0.8675 -0.2100  0.2300
  587MOL0     N77369   8.184   4.638  11.141  0.5786 -1.0201 -0.4026
  587MOL0     C77370   8.116   4.676  11.030 -0.5680 -0.2971  0.7221
  587MOL0     C77371   8.052   4.564  10.986  0.3598 -0.0933 -0.0653
  587MOL0     C77372   7.962   4.559  10.858 -0.6870  0.5804  0.8166
  587MOL0     C77373   7.818   4.534  10.899 -0.4145 -0.3212 -0.0440
  587MOL0     C77374   7.754   4.663  10.951 -0.6635 -0.1523 -0.5016
  587MOL0     C77375   7.591   4.649  10.970  0.3711 -0.4739 -0.3899
  587MOL0     O77376   7.524   4.765  11.025  0.2773  0.6783 -0.1193
  587MOL0     C77377   7.405   4.765  11.097  0.2356  0.2441  0.9530
  587MOL0     C77378   7.342   4.649  11.127 -0.2213  0.7860 -0.0691
  587MOL0     C77379   7.218   4.643  11.193  0.3374 -0.0501  0.0840
  587MOL0     C77380   7.167   4.763  11.245  0.2761  0.3826 -0.1756
  587MOL0     C77381   7.039   4.761  11.318  0.3299 -0.1260  0.4670
  587MOL0     O77382   7.009   4.872  11.391  0.9155  0.2426 -0.2814
  587MOL0     C77383   6.874   4.896  11.431  0.0204 -0.0786  0.9295
  587MOL0     C77384   6.817   5.019  11.408 -0.5917 -0.6492 -0.2132
  587MOL0     C77385   6.689   5.048  11.460 -0.1443  0.2940  0.0883
  587MOL0     C77386   6.636   4.961  11.557  0.0892 -0.4247  0.3553
  587MOL0     O77387   6.517   4.979  11.623  0.6074  0.9155 -0.1523
  587MOL0     C77388   6.438   5.092  11.595 -0.1514  0.8847  0.5020
  587MOL0     C77389   6.303   5.070  11.657 -0.5708  0.6886  1.4374
  587MOL0     C77390   6.218   4.958  11.580 -0.1502  0.0033  0.1298
  587MOL0     C77391   6.120   4.878  11.665 -0.2342  0.3218  0.3857
  587MOL0     C77392   6.021   4.955  11.748  1.4959 -0.9165  0.3714
  587MOL0     C77393   5.934   5.047  11.667  0.8083 -0.2340  0.4256
  587MOL0     C77394   5.857   5.157  11.752  0.2248 -0.0856 -0.9031
  587MOL0     C77395   5.761   5.241  11.662  0.4415 -0.1909  0.1922
  587MOL0    Cl77396   5.702   5.388  11.748 -0.2407 -0.1128  0.2070
  587MOL0     C77397   6.694   4.846  11.574 -0.4312 -0.6227  0.4599
  587MOL0     C77398   6.803   4.801  11.505  0.3424 -0.2891  0.2158
  587MOL0     O77399   6.969   4.663  11.303  0.0384 -0.8939  0.6345
  587MOL0     C77400   7.231   4.889  11.224  0.6300 -0.2633  0.0692
  587MOL0     C77401   7.355   4.885  11.157  0.4506  0.1160  0.6437
  587MOL0     N77402   8.092   4.462  11.062  0.3413 -0.3195 -0.0158
  587MOL0     N77403   8.173   4.504  11.155 -0.3774  0.7510 -0.4939
  587MOL0     C77404   9.027   4.440  10.393  0.0281 -0.4074 -0.3986
  587MOL0     C77405   9.097   4.385  10.287 -0.0818 -0.5457 -0.3339
  587MOL0     C77406   9.347   4.403   9.905 -0.4202  0.5637 -0.5124
  587MOL0     C77407   9.277   4.338   9.793  0.0930 -0.6755  0.3222
  587MOL0     C77408   9.348   4.292   9.679  0.1391  0.2454  0.2350
  587MOL0     C77409   9.489   4.299   9.673  0.9049  0.4864  0.2541
  587MOL0     O77410   9.565   4.245   9.573 -0.4731  0.7522 -0.2863
  587MOL0     C77411   9.507   4.175   9.459  0.6819  1.0859  0.2744
  587MOL0     C77412   9.471   4.032   9.477  0.0420 -1.1540 -0.1064
  587MOL0     C77413   9.571   3.942   9.558  0.7086 -1.3647  0.2751
  587MOL0     C77414   9.537   3.949   9.713  0.2821 -0.0397 -0.1625
  587MOL0     C77415   9.649   4.009   9.795 -0.7322 -0.0252  0.3610
  587MOL0     C77416   9.735   4.069   9.845  0.1087  0.6374 -0.2846
  587MOL0     C77417   9.556   4.370   9.779 -0.2942  0.3991  0.5356
  587MOL0     C77418   9.489   4.417   9.894  0.3831  0.5895 -0.8236
  587MOL0     H77419   8.969   4.585  10.037 -2.4239  2.1090  1.4488
  587MOL0     H77420   8.854   4.694  10.244 -0.7467  0.5542  2.7836
  587MOL0     H77421   8.956   4.586  10.660  0.7100 -3.3711  1.6968
  587MOL0     H77422   8.881   4.433  10.601  1.0347  0.0107 -1.4758
  587MOL0     H77423   8.739   4.509  10.790 -0.0798  3.6562  2.5600
  587MOL0     H77424   8.653   4.526  10.624 -0.6421  0.9353  1.3630
  587MOL0     H77425   8.693   4.770  10.666  0.7849  1.4967  1.7249
  587MOL0     H77426   8.800   4.737  10.792  1.2929  1.8029 -3.2415
  587MOL0     H77427   8.498   4.671  10.781 -0.2822  1.4687 -0.1237
  587MOL0     H77428   8.597   4.631  10.921 -0.8691  0.7930  1.2833
  587MOL0     H77429   8.523   4.898  10.827 -1.6082 -1.8467 -1.1505
  587MOL0     H77430   8.620   4.857  10.979 -0.8902 -3.0265  1.4767
  587MOL0     H77431   8.331   4.770  10.915 -1.0479 -2.6859  1.0218
  587MOL0     H77432   8.386   4.920  11.002  1.9103 -0.2548  0.6806
  587MOL0     H77433   8.422   4.627  11.070  2.6318 -0.5979 -1.3796
  587MOL0     H77434   8.502   4.758  11.168 -1.4080  0.0237 -0.7909
  587MOL0     H77435   8.248   4.839  11.180 -0.4067  0.0834  1.4137
  587MOL0     H77436   8.310   4.716  11.295 -0.9339 -0.4178  0.2072
  587MOL0     H77437   8.109   4.770  10.976 -2.6527 -0.4474  0.6271
  587MOL0     H77438   7.993   4.473  10.799 -0.1556  0.0628  1.8206
  587MOL0     H77439   7.958   4.650  10.797  0.4984 -1.0667 -1.8724
  587MOL0     H77440   7.822   4.460  10.979  0.8859 -0.3168 -0.0779
  587MOL0     H77441   7.773   4.493  10.809  2.8232  2.2966 -3.1717
  587MOL0     H77442   7.797   4.702  11.044  0.0858 -1.6709 -0.1935
  587MOL0     H77443   7.763   4.741  10.875 -1.3981  0.3219 -0.1117
  587MOL0     H77444   7.579   4.566  11.040 -0.2811  0.3088  0.4467
  587MOL0     H77445   7.545   4.615  10.877 -0.6366  0.7943 -0.3829
  587MOL0     H77446   7.372   4.548  11.100 -0.5336  0.9326 -1.0053
  587MOL0     H77447   7.175   4.543  11.199  0.4927 -0.1085  0.2474
  587MOL0     H77448   6.871   5.093  11.350  1.4531 -2.5462 -0.8189
  587MOL0     H77449   6.648   5.147  11.441  0.7443  0.3631 -1.6713
  587MOL0     H77450   6.421   5.107  11.488 -1.8839  2.0378  0.9017
  587MOL0     H77451   6.481   5.186  11.629 -1.9458  1.5661  0.9719
  587MOL0     H77452   6.241   5.160  11.661 -0.0909  1.0586  0.7296
  587MOL0     H77453   6.325   5.031  11.757  1.8421 -1.5297  0.1505
  587MOL0     H77454   6.291   4.890  11.536 -1.2869 -0.7756 -0.6072
  587MOL0     H77455   6.170   5.012  11.498 -0.8413  0.1781  0.6352
  587MOL0     H77456   6.069   4.813  11.592  0.0106 -0.1734  0.6528
  587MOL0     H77457   6.184   4.817  11.729  0.1012 -1.6546 -1.6819
  587MOL0     H77458   6.074   5.019  11.819  2.3723 -3.9247  2.6146
  587MOL0     H77459   5.960   4.888  11.809  0.4408 -0.5482 -0.2418
  587MOL0     H77460   5.857   4.978  11.631 -2.7461  2.1232  2.8924
  587MOL0     H77461   5.974   5.090  11.575 -0.0996 -2.5773 -1.1685
  587MOL0     H77462   5.793   5.129  11.836 -1.4405  0.5374 -1.9102
  587MOL0     H77463   5.935   5.224  11.791 -0.6077 -0.3521  1.4095
  587MOL0     H77464   5.685   5.168  11.635  0.0510  0.6467 -1.0811
  587MOL0     H77465   5.805   5.272  11.567  1.5043  1.1194  1.0753
  587MOL0     H77466   6.651   4.790  11.656 -2.7440  0.8645  0.3733
  587MOL0     H77467   6.838   4.699  11.517  0.0914 -0.4034  0.0081
  587MOL0     H77468   7.189   4.986  11.247 -2.5444 -1.4696 -0.0632
  587MOL0     H77469   7.418   4.973  11.160 -0.4922  1.2659 -4.1627
  587MOL0     H77470   9.046   4.403  10.493 -2.5669  1.3992  0.8912
  587MOL0     H77471   9.164   4.300  10.291  2.1981  1.1888 -0.0213
  587MOL0     H77472   9.170   4.321   9.802  0.2153 -1.1991  0.8707
  587MOL0     H77473   9.282   4.257   9.600 -1.1977 -0.9905  1.8235
  587MOL0     H77474   9.578   4.177   9.376 -1.9775 -3.3993 -2.4983
  587MOL0     H77475   9.412   4.219   9.429  1.3949  3.5557  1.4068
  587MOL0     H77476   9.367   4.021   9.508 -0.5625  0.0228 -1.6067
  587MOL0     H77477   9.478   3.999   9.373  1.1227 -2.1493  0.2518
  587MOL0     H77478   9.670   3.975   9.527  1.0376 -1.4096  1.2669
  587MOL0     H77479   9.556   3.839   9.523 -1.6304 -1.0321  0.0895
  587MOL0     H77480   9.442   4.001   9.730 -0.2077 -0.7930 -0.5088
  587MOL0     H77481   9.536   3.850   9.758 -1.4056  1.1495  2.6338
  587MOL0     H77482   9.813   4.136   9.875 -0.2707  0.2381  1.7694
  587MOL0     H77483   9.664   4.379   9.770 -0.3621 -0.4699 -2.0131
  587MOL0     H77484   9.537   4.475   9.972 -0.7254 -1.2557  1.3262
  588MOL0     O77485   6.649   6.292   6.538  0.4918  0.7325  1.0207
  588MOL0     C77486   6.553   6.217   6.507 -0.3104 -0.0357 -0.8714
  588MOL0     O77487   6.569   6.091   6.462 -0.4184 -0.4926 -0.2128
  588MOL0     C77488   6.689   6.035   6.429 -0.1383 -0.7585 -0.4461
  588MOL0     C77489   6.698   5.900   6.453 -0.4601  0.8233 -0.2291
  588MOL0     C77490   6.801   5.819   6.402  0.9315  1.0928 -0.4827
  588MOL0     C77491   6.900   5.874   6.326  0.4104 -0.5537  0.3103
  588MOL0     O77492   7.007   5.802   6.269  0.4926  0.7848  0.3579
  588MOL0     C77493   6.992   5.656   6.268 -0.0329 -0.2640 -0.3060
  588MOL0     C77494   7.081   5.611   6.152 -0.7150  0.3499 -0.4890
  588MOL0     C77495   7.234   5.659   6.158  0.2103 -0.2983 -0.9762
  588MOL0     C77496   7.336   5.578   6.073  0.7074 -0.2302  0.8288
  588MOL0     C77497   7.470   5.637   6.076 -0.0013  0.3150 -0.6024
  588MOL0     C77498   7.560   5.556   5.977  0.0774 -0.7139  0.3274
  588MOL0     C77499   7.699   5.624   5.969  0.8155  0.3857 -0.5186
  588MOL0     C77500   7.786   5.519   5.911 -0.1281 -0.2437  1.2466
  588MOL0     N77501   7.932   5.542   5.924  0.5136 -0.0171 -0.4817
  588MOL0     C77502   8.016   5.468   5.852 -1.5034  0.6470 -0.4137
  588MOL0     C77503   8.134   5.505   5.907 -0.2053 -0.5659  0.0130
  588MOL0     C77504   8.268   5.486   5.849  0.2272  0.7251 -0.8390
  588MOL0     C77505   8.382   5.456   5.941  0.1711 -0.6630  0.0193
  588MOL0     C77506   8.448   5.586   5.998  0.5559 -0.0521  0.3655
  588MOL0     C77507   8.534   5.654   5.886  0.0340 -0.9640 -1.2075
  588MOL0     O77508   8.640   5.576   5.831 -0.3855  0.2619  0.1049
  588MOL0     C77509   8.754   5.650   5.790 -0.1616 -0.1202 -0.0868
  588MOL0     C77510   8.752   5.780   5.734  0.1936  0.2617 -0.0615
  588MOL0     C77511   8.865   5.845   5.684 -1.2152 -0.2493 -0.3316
  588MOL0     C77512   8.990   5.782   5.675  0.7353 -0.5068  0.2227
  588MOL0     C77513   9.101   5.842   5.602 -0.0375 -0.3005  1.5042
  588MOL0     O77514   9.204   5.750   5.582 -0.2668  0.3329  0.2255
  588MOL0     C77515   9.315   5.787   5.509  0.1262 -0.0868  0.0159
  588MOL0     C77516   9.320   5.880   5.396  0.2933 -0.1963 -0.3837
  588MOL0     C77517   9.438   5.930   5.342 -0.4579  0.6338  0.2187
  588MOL0     C77518   9.561   5.879   5.391 -0.8962  0.3217 -0.5525
  588MOL0     O77519   9.685   5.923   5.344 -0.0157  0.1268 -0.2653
  588MOL0     C77520   9.693   6.030   5.248  0.2522 -0.5769  0.2133
  588MOL0     C77521   9.836   6.073   5.232  0.0633 -0.0225  0.0680
  588MOL0     C77522   9.918   5.980   5.149  0.4933 -1.0015  0.1390
  588MOL0     C77523  10.062   6.012   5.198  0.2613  0.1914 -0.0701
  588MOL0     C77524  10.164   5.959   5.109  0.8055 -0.9575 -0.3174
  588MOL0     C77525  10.306   5.996   5.162  0.8763 -0.1916  0.3254
  588MOL0     C77526  10.415   5.975   5.057 -0.9331 -0.4177 -0.0452
  588MOL0     C77527  10.543   6.008   5.134 -0.4844  0.4497 -0.6678
  588MOL0    Cl77528  10.684   6.052   5.013 -0.1145  0.1516 -0.2275
  588MOL0     C77529   9.556   5.781   5.496 -0.0038 -0.5303 -0.3189
  588MOL0     C77530   9.439   5.741   5.558  0.1677  0.1022 -0.3520
  588MOL0     O77531   9.104   5.961   5.566 -0.4156 -0.2059 -0.2998
  588MOL0     C77532   8.998   5.660   5.748 -0.0997  0.3255  0.6774
  588MOL0     C77533   8.883   5.595   5.794  0.8562  0.1479 -0.3298
  588MOL0     N77534   8.119   5.601   6.004 -0.0748  0.4464  0.7923
  588MOL0     N77535   7.994   5.625   6.005 -0.3196  1.0205  0.0489
  588MOL0     C77536   6.891   6.010   6.294  0.1193 -0.4837  0.7659
  588MOL0     C77537   6.786   6.087   6.340 -0.2764  0.2761  0.1650
  588MOL0     C77538   6.418   6.269   6.528 -0.3282  0.7846 -0.5578
  588MOL0     C77539   6.397   6.360   6.636  0.9044 -0.9624 -0.9589
  588MOL0     C77540   6.268   6.395   6.670 -0.1729  1.4149 -0.2658
  588MOL0     C77541   6.155   6.347   6.605 -0.1602  0.0334 -0.3654
  588MOL0     O77542   6.025   6.384   6.641 -0.4713  0.4040  0.1019
  588MOL0     C77543   5.993   6.516   6.596  0.3685  0.4630  0.5573
  588MOL0     C77544   6.031   6.524   6.444  0.2205  0.6488  0.6826
  588MOL0     C77545   5.974   6.665   6.397 -0.2003  0.4964  0.1266
  588MOL0     C77546   6.008   6.685   6.240 -0.3527 -0.0463  0.2324
  588MOL0     C77547   5.959   6.573   6.154  0.2160 -0.0204  0.9327
  588MOL0     C77548   5.929   6.467   6.102 -0.6043 -1.3671 -0.3594
  588MOL0     C77549   6.169   6.257   6.491  0.5205  0.9980 -1.1754
  588MOL0     C77550   6.300   6.221   6.460  1.4674 -0.5249  0.1492
  588MOL0     H77551   6.622   5.846   6.509 -0.0698  0.1269 -0.3485
  588MOL0     H77552   6.794   5.712   6.415 -1.3550  0.9708 -2.1034
  588MOL0     H77553   6.891   5.618   6.250  0.0291 -0.9417  0.6756
  588MOL0     H77554   7.047   5.611   6.352  0.6006  1.4785  0.2555
  588MOL0     H77555   7.040   5.646   6.057  1.3079 -2.8544 -2.7707
  588MOL0     H77556   7.083   5.501   6.150  2.1672  0.3120 -0.1765
  588MOL0     H77557   7.268   5.639   6.260 -0.4109 -4.1183 -1.3661
  588MOL0     H77558   7.237   5.765   6.135  1.0458 -0.4745 -1.7310
  588MOL0     H77559   7.336   5.469   6.084 -0.4967 -0.0710  3.3283
  588MOL0     H77560   7.295   5.593   5.973  1.5031  0.9889  0.6643
  588MOL0     H77561   7.504   5.622   6.178  1.2792 -3.0366 -1.4021
  588MOL0     H77562   7.463   5.741   6.042 -0.0051  0.3894 -0.3765
  588MOL0     H77563   7.519   5.564   5.876 -2.3882 -0.0500  1.3126
  588MOL0     H77564   7.557   5.450   6.004  1.0024 -1.2878 -1.5941
  588MOL0     H77565   7.706   5.715   5.910  0.7125  1.2229  0.7229
  588MOL0     H77566   7.736   5.652   6.068  3.8827  0.4522 -1.5839
  588MOL0     H77567   7.768   5.523   5.803  0.3977 -0.2298  1.1539
  588MOL0     H77568   7.765   5.417   5.946 -0.4603 -0.0098  1.7390
  588MOL0     H77569   7.993   5.404   5.768 -0.8590 -0.5144  0.2684
  588MOL0     H77570   8.278   5.568   5.778 -2.0505  1.0002 -0.9170
  588MOL0     H77571   8.254   5.398   5.785  0.0018 -0.8035  1.1998
  588MOL0     H77572   8.453   5.398   5.882  1.4297 -2.4050  3.0266
  588MOL0     H77573   8.350   5.383   6.015 -0.0767  0.0617  0.6423
  588MOL0     H77574   8.379   5.662   6.037  2.1749  2.5031 -1.4537
  588MOL0     H77575   8.515   5.545   6.074  0.7892  0.3123  0.3577
  588MOL0     H77576   8.576   5.746   5.928 -1.1584 -1.2299  0.7141
  588MOL0     H77577   8.468   5.691   5.807  1.9790  3.7441 -0.9704
  588MOL0     H77578   8.655   5.826   5.720  0.6079  0.8097 -1.2326
  588MOL0     H77579   8.862   5.953   5.668 -0.8067 -0.3588 -1.1582
  588MOL0     H77580   9.225   5.919   5.362  0.9381  1.9279  0.1058
  588MOL0     H77581   9.440   6.010   5.269 -0.9138  0.8764  0.4729
  588MOL0     H77582   9.624   6.112   5.270 -0.1781 -0.9493  0.2792
  588MOL0     H77583   9.663   5.991   5.150 -1.3410  1.8969 -0.3798
  588MOL0     H77584   9.879   6.070   5.333 -1.7353 -1.1679  0.8814
  588MOL0     H77585   9.844   6.176   5.199 -1.3218  0.1012  0.0362
  588MOL0     H77586   9.887   6.009   5.048 -3.2612 -0.2625  1.3241
  588MOL0     H77587   9.900   5.873   5.164 -0.5328 -0.8767 -0.1296
  588MOL0     H77588  10.073   6.121   5.189  2.2104  0.0018 -0.3741
  588MOL0     H77589  10.085   5.979   5.300  1.3183 -0.0217 -0.3567
  588MOL0     H77590  10.145   6.000   5.009 -1.0246  1.5120  0.9418
  588MOL0     H77591  10.149   5.851   5.096  1.1544 -1.0008 -0.3668
  588MOL0     H77592  10.327   5.933   5.249  3.6481 -1.5357 -1.1918
  588MOL0     H77593  10.308   6.102   5.189  1.4703  0.3953 -1.8515
  588MOL0     H77594  10.407   5.883   4.999  0.0322 -1.4328  1.3670
  588MOL0     H77595  10.408   6.055   4.983  1.1239 -2.0433 -2.1749
  588MOL0     H77596  10.568   5.919   5.192  2.0765  2.0578  0.9078
  588MOL0     H77597  10.523   6.073   5.220  0.0710 -2.3524  1.7478
  588MOL0     H77598   9.648   5.736   5.534 -0.3328 -1.7342 -0.8946
  588MOL0     H77599   9.445   5.686   5.651  1.8894  4.1304  2.1537
  588MOL0     H77600   9.091   5.609   5.770 -0.6834  0.0613  2.7455
  588MOL0     H77601   8.899   5.498   5.839  0.3398 -0.1709 -0.8222
  588MOL0     H77602   6.976   6.050   6.239 -2.1563  1.2194 -1.7901
  588MOL0     H77603   6.766   6.192   6.318  1.3468  0.2783 -1.6283
  588MOL0     H77604   6.479   6.393   6.699 -0.0564 -1.9963  0.9175
  588MOL0     H77605   6.244   6.453   6.759 -2.2622 -0.7043  0.6624
  588MOL0     H77606   6.054   6.589   6.651 -1.1045  1.8397  0.4518
  588MOL0     H77607   5.888   6.545   6.611  0.6514  1.7769  0.1792
  588MOL0     H77608   6.139   6.528   6.428 -0.1864  2.6688 -2.7970
  588MOL0     H77609   5.982   6.441   6.392 -0.6872  0.4471  1.8199
  588MOL0     H77610   6.029   6.742   6.452  0.1311  1.2637 -1.2162
  588MOL0     H77611   5.868   6.681   6.419 -0.1950 -0.4788  0.8726
  588MOL0     H77612   5.959   6.776   6.204  0.2568  0.6672  1.1367
  588MOL0     H77613   6.116   6.688   6.221 -0.7516  0.2326 -2.2350
  588MOL0     H77614   5.894   6.374   6.064 -0.3222 -2.1105  1.1290
  588MOL0     H77615   6.087   6.230   6.425  0.3170 -1.6071 -0.0120
  588MOL0     H77616   6.300   6.150   6.378  2.6762  0.1064 -0.4175
  589MOL0     O77617   9.181   6.228   1.692  0.2431 -0.0755 -0.2594
  589MOL0     C77618   9.224   6.139   1.620 -0.3497 -0.3024  0.3070
  589MOL0     O77619   9.162   6.027   1.591  0.2775  0.6611  0.2153
  589MOL0     C77620   9.039   6.008   1.648  0.8942 -0.1532  1.1562
  589MOL0     C77621   9.020   5.957   1.775 -0.0969 -0.1167 -0.8871
  589MOL0     C77622   8.894   5.952   1.836 -0.6368 -0.1907  0.1496
  589MOL0     C77623   8.785   5.983   1.761  0.4735  0.1432 -0.4392
  589MOL0     O77624   8.671   5.940   1.818  0.4002  1.0081 -0.1104
  589MOL0     C77625   8.607   6.034   1.899 -0.0052  0.0106  0.2211
  589MOL0     C77626   8.497   5.954   1.976  0.6567  0.5978  0.0032
  589MOL0     C77627   8.357   5.952   1.928  0.1753  1.0825  0.3321
  589MOL0     C77628   8.255   5.869   2.017 -0.3358 -0.6687  0.3786
  589MOL0     C77629   8.298   5.726   2.025 -0.5388  0.9637  0.4605
  589MOL0     C77630   8.183   5.634   2.084 -0.5938  0.6182  0.8666
  589MOL0     C77631   8.072   5.625   1.983 -0.2449  0.1565  0.0446
  589MOL0     C77632   7.964   5.520   2.006  0.6159  0.7041 -0.7124
  589MOL0     N77633   8.003   5.391   1.941  0.7140  0.2733 -1.0941
  589MOL0     C77634   7.983   5.379   1.806 -0.0059  0.9341  0.3622
  589MOL0     C77635   7.964   5.247   1.779 -0.0724  0.2512 -0.3060
  589MOL0     C77636   7.930   5.185   1.646 -1.0909 -0.8912 -0.3416
  589MOL0     C77637   7.779   5.197   1.630  0.5385 -0.6552  0.1604
  589MOL0     C77638   7.729   5.085   1.527 -0.8684 -0.2671 -0.6784
  589MOL0     C77639   7.736   4.933   1.567  0.1841  0.0153  0.1822
  589MOL0     O77640   7.744   4.865   1.447  0.4246  0.2009  0.3969
  589MOL0     C77641   7.621   4.841   1.386 -1.2167  0.6016  0.0088
  589MOL0     C77642   7.591   4.889   1.259 -0.3556  0.9914 -0.2261
  589MOL0     C77643   7.480   4.848   1.195 -0.1633 -0.8066  0.9039
  589MOL0     C77644   7.390   4.764   1.254  0.9458  0.8791  0.0681
  589MOL0     C77645   7.271   4.712   1.190  0.0558  0.1260 -0.2303
  589MOL0     O77646   7.251   4.752   1.064 -0.4897 -0.0357 -0.5914
  589MOL0     C77647   7.121   4.741   1.021  0.0842 -0.2253  1.1589
  589MOL0     C77648   7.024   4.835   1.056  1.2041  1.1657  0.5941
  589MOL0     C77649   6.893   4.832   1.007 -0.1735  0.5834  0.9827
  589MOL0     C77650   6.859   4.744   0.909 -0.7701 -0.4960  0.6778
  589MOL0     O77651   6.724   4.749   0.868  0.6056 -0.2447  0.8743
  589MOL0     C77652   6.671   4.648   0.782 -0.4510  0.1243  0.5263
  589MOL0     C77653   6.532   4.709   0.755 -0.0458  0.0132  0.1240
  589MOL0     C77654   6.421   4.594   0.716 -0.2860 -1.3154 -0.6830
  589MOL0     C77655   6.440   4.560   0.561 -0.1204 -0.3505 -0.2680
  589MOL0     C77656   6.333   4.460   0.525 -0.4449  0.3172 -0.1293
  589MOL0     C77657   6.306   4.478   0.370 -0.9687  0.6901  0.0832
  589MOL0     C77658   6.186   4.389   0.322  0.3854  0.0426 -0.7451
  589MOL0     C77659   6.161   4.393   0.167 -0.3696  0.3285  0.2835
  589MOL0    Cl77660   6.125   4.569   0.119  0.4121  0.5826  0.3227
  589MOL0     C77661   6.950   4.656   0.855 -0.1235 -0.0230 -0.9029
  589MOL0     C77662   7.080   4.650   0.925  0.3253  0.1818  0.5144
  589MOL0     O77663   7.202   4.635   1.259 -0.2913 -0.0948  0.7811
  589MOL0     C77664   7.423   4.714   1.378  0.2162  0.0860  0.1832
  589MOL0     C77665   7.538   4.749   1.447 -0.5209 -0.3382 -0.5772
  589MOL0     N77666   7.984   5.177   1.896 -0.3917 -0.3583  0.0168
  589MOL0     N77667   8.016   5.263   1.991  0.0782 -1.0398 -0.2631
  589MOL0     C77668   8.798   6.031   1.632 -0.0351 -0.2321 -0.1377
  589MOL0     C77669   8.922   6.047   1.576 -0.2419 -0.4293  0.3781
  589MOL0     C77670   9.339   6.174   1.530  0.0986  0.9375  0.6988
  589MOL0     C77671   9.389   6.303   1.519 -0.0556  0.6171 -0.1057
  589MOL0     C77672   9.512   6.327   1.456  0.0958 -0.0302  0.2348
  589MOL0     C77673   9.585   6.222   1.393 -0.8044 -0.2171 -0.5096
  589MOL0     O77674   9.706   6.238   1.330  0.6328 -0.2065 -0.1224
  589MOL0     C77675   9.789   6.116   1.305  0.8270 -0.0377 -0.1984
  589MOL0     C77676   9.925   6.150   1.244  0.8246 -0.4124 -0.3381
  589MOL0     C77677  10.017   6.028   1.247  0.0763 -0.9788  0.1218
  589MOL0     C77678  10.004   5.953   1.117 -0.3554 -0.6190  0.1215
  589MOL0     C77679  10.033   5.809   1.134  0.0752 -0.5747 -0.4469
  589MOL0     C77680  10.060   5.697   1.164 -0.2814  0.0297  0.2789
  589MOL0     C77681   9.525   6.099   1.386 -0.0809  1.6446  0.2671
  589MOL0     C77682   9.412   6.075   1.458 -0.0521  0.2266  1.2570
  589MOL0     H77683   9.110   5.935   1.832  0.5627  1.1367 -1.4079
  589MOL0     H77684   8.887   5.926   1.941 -0.6076 -1.3102 -0.1181
  589MOL0     H77685   8.561   6.121   1.849 -0.4465  1.5409  3.0898
  589MOL0     H77686   8.676   6.079   1.970  0.3523 -0.7883  0.3891
  589MOL0     H77687   8.486   5.996   2.076  2.0217 -1.7948  1.2473
  589MOL0     H77688   8.529   5.854   2.007 -0.8789  0.4281  1.1522
  589MOL0     H77689   8.346   5.904   1.830 -3.7763 -3.9410  2.7260
  589MOL0     H77690   8.317   6.054   1.922 -0.6582  0.6770 -2.0259
  589MOL0     H77691   8.268   5.915   2.115  0.1817  3.3521 -1.3700
  589MOL0     H77692   8.158   5.885   1.969  0.1061  1.0730 -0.0153
  589MOL0     H77693   8.389   5.709   2.083 -0.0537  1.9401 -0.0007
  589MOL0     H77694   8.315   5.705   1.919 -2.2395  1.2744  0.0973
  589MOL0     H77695   8.155   5.673   2.182  2.5657 -1.4825  2.7971
  589MOL0     H77696   8.211   5.533   2.113 -4.2879  0.3219  4.2012
  589MOL0     H77697   8.028   5.725   1.989  1.7543  1.2008 -1.6208
  589MOL0     H77698   8.118   5.612   1.885  2.0556 -1.1168  1.2064
  589MOL0     H77699   7.867   5.556   1.970 -1.0976 -0.2244  2.5333
  589MOL0     H77700   7.948   5.505   2.114 -4.1017 -2.3923 -1.5511
  589MOL0     H77701   7.994   5.456   1.730  0.0554 -0.3826 -1.0047
  589MOL0     H77702   7.965   5.082   1.648 -1.5759 -1.1080 -1.7601
  589MOL0     H77703   7.993   5.224   1.565  0.3158 -2.3194  0.0216
  589MOL0     H77704   7.755   5.293   1.583 -1.8882 -2.0634 -1.7903
  589MOL0     H77705   7.719   5.199   1.721 -2.9373 -0.3073 -1.9315
  589MOL0     H77706   7.626   5.118   1.512 -1.4971 -0.3355  2.7701
  589MOL0     H77707   7.778   5.104   1.431  2.2068  2.5839  1.2396
  589MOL0     H77708   7.647   4.912   1.627 -0.1775  1.3744  0.1577
  589MOL0     H77709   7.820   4.921   1.636  0.9249 -0.1058 -0.7196
  589MOL0     H77710   7.663   4.959   1.217 -0.1449  1.1042  0.3131
  589MOL0     H77711   7.460   4.891   1.097 -1.6803 -0.7573  1.2096
  589MOL0     H77712   7.049   4.909   1.132 -0.3567 -0.4490  2.8274
  589MOL0     H77713   6.826   4.909   1.044 -0.4590  0.3721  0.9044
  589MOL0     H77714   6.671   4.554   0.838  0.6995  0.7799  1.6949
  589MOL0     H77715   6.731   4.650   0.691 -1.4924 -1.7165 -0.2581
  589MOL0     H77716   6.540   4.781   0.673 -0.4744 -2.5278 -2.2767
  589MOL0     H77717   6.504   4.754   0.851 -2.1812  0.7925 -0.7932
  589MOL0     H77718   6.322   4.637   0.733 -0.4203 -2.4460  1.8451
  589MOL0     H77719   6.424   4.500   0.773  0.1262 -1.5647 -1.1082
  589MOL0     H77720   6.427   4.658   0.514 -0.6760 -0.5821 -0.6058
  589MOL0     H77721   6.542   4.533   0.533  0.8909  2.5845  0.1613
  589MOL0     H77722   6.240   4.481   0.578  1.4864 -0.6100  4.0089
  589MOL0     H77723   6.360   4.355   0.541  1.8105  0.7390 -0.8485
  589MOL0     H77724   6.401   4.445   0.326  0.5713  3.4829  1.0771
  589MOL0     H77725   6.287   4.581   0.339  2.6960  1.3135 -0.5432
  589MOL0     H77726   6.195   4.284   0.350  0.5666 -0.0894 -1.2799
  589MOL0     H77727   6.096   4.428   0.372  2.6768  1.6605  2.4507
  589MOL0     H77728   6.074   4.333   0.140 -0.9726  0.4363  1.8897
  589MOL0     H77729   6.241   4.351   0.106 -0.8010 -3.3752  1.9708
  589MOL0     H77730   6.928   4.590   0.772  0.1102 -3.0145  1.2674
  589MOL0     H77731   7.154   4.585   0.880 -2.7960 -2.0336 -1.8370
  589MOL0     H77732   7.368   4.631   1.423  0.2062 -0.1158 -0.1950
  589MOL0     H77733   7.555   4.699   1.541  0.6762  2.6608  0.9331
  589MOL0     H77734   8.714   6.064   1.571 -0.1068  0.3342  0.2569
  589MOL0     H77735   8.934   6.099   1.482 -2.1296 -2.3129 -0.9697
  589MOL0     H77736   9.331   6.385   1.561 -0.0326  0.0312  1.1217
  589MOL0     H77737   9.541   6.431   1.458 -2.4226  0.7534 -0.3024
  589MOL0     H77738   9.747   6.048   1.230  2.6693  1.9673 -3.2420
  589MOL0     H77739   9.797   6.065   1.401  1.4440  0.7672  0.1923
  589MOL0     H77740   9.914   6.179   1.139  3.1681 -2.3919 -1.2029
  589MOL0     H77741   9.971   6.236   1.295 -0.0139 -0.8906  1.3005
  589MOL0     H77742   9.990   5.949   1.318 -0.9785 -0.4966  0.2856
  589MOL0     H77743  10.117   6.066   1.269 -0.3737 -1.0590  2.6669
  589MOL0     H77744   9.902   5.957   1.078  0.7548 -0.8507 -3.1561
  589MOL0     H77745  10.070   6.004   1.046 -1.2099  0.8447  0.3414
  589MOL0     H77746  10.086   5.599   1.199 -1.4529  0.3943  2.3488
  589MOL0     H77747   9.562   6.012   1.332 -1.8703 -0.6843  2.5570
  589MOL0     H77748   9.387   5.969   1.456  2.2781 -0.4701 -3.3077
  590MOL0     O77749   4.000   3.342   7.841 -0.0040  0.2097 -0.3970
  590MOL0     C77750   3.963   3.443   7.904 -0.7970 -0.1962  0.1017
  590MOL0     O77751   4.046   3.557   7.936  0.1341  0.5591 -0.2166
  590MOL0     C77752   4.176   3.556   7.930  1.1762 -0.7109  0.0073
  590MOL0     C77753   4.243   3.664   7.986 -0.5776  0.7224  0.3595
  590MOL0     C77754   4.378   3.678   7.971  0.5922 -0.3945 -0.1668
  590MOL0     C77755   4.456   3.590   7.901 -0.0353 -0.5258  1.2616
  590MOL0     O77756   4.595   3.606   7.899  0.1753 -0.1390  0.2074
  590MOL0     C77757   4.691   3.519   7.822  0.2161  0.1539  0.1526
  590MOL0     C77758   4.819   3.592   7.826 -0.9381  0.6773  0.0499
  590MOL0     C77759   4.830   3.714   7.732 -0.0820 -0.9778  0.2724
  590MOL0     C77760   4.839   3.676   7.587  0.8314 -0.2154  0.7604
  590MOL0     C77761   4.825   3.800   7.490  0.1997  0.4522  0.2355
  590MOL0     C77762   4.877   3.762   7.353 -0.9157  0.3727  0.2691
  590MOL0     C77763   4.826   3.874   7.252  0.4763  0.7518  0.4474
  590MOL0     C77764   4.854   3.836   7.109  0.1458  0.2660  0.0722
  590MOL0     N77765   4.997   3.856   7.089  0.2494 -0.0751  0.0795
  590MOL0     C77766   5.043   3.980   7.063 -1.3536 -0.0637 -0.3412
  590MOL0     C77767   5.184   3.959   7.066  0.2984  0.0746  1.0165
  590MOL0     C77768   5.272   4.072   7.024  0.2402  1.1197  0.1323
  590MOL0     C77769   5.308   4.084   6.872 -0.3853  0.5103  0.0879
  590MOL0     C77770   5.352   4.225   6.829 -0.1296  0.2922 -0.9239
  590MOL0     C77771   5.460   4.298   6.907  0.5471 -0.7105 -0.3176
  590MOL0     O77772   5.405   4.327   7.034  0.2322 -0.2209  0.4281
  590MOL0     C77773   5.417   4.452   7.098  0.0137 -0.9038 -0.0722
  590MOL0     C77774   5.511   4.549   7.048 -0.6240 -0.5978 -0.2681
  590MOL0     C77775   5.517   4.671   7.112 -0.2884 -0.3950 -0.1008
  590MOL0     C77776   5.454   4.704   7.240  0.4833  0.2643  0.6974
  590MOL0     C77777   5.480   4.833   7.313 -0.5421 -0.2568 -0.8035
  590MOL0     O77778   5.600   4.895   7.310 -0.6400 -0.2865  0.4725
  590MOL0     C77779   5.716   4.817   7.308 -0.1863 -0.6088  0.4273
  590MOL0     C77780   5.729   4.686   7.352 -0.2282 -0.1894  0.4411
  590MOL0     C77781   5.854   4.619   7.351 -1.0051 -0.3779  0.4392
  590MOL0     C77782   5.963   4.680   7.304 -0.8599 -0.1293 -0.1738
  590MOL0     O77783   6.084   4.613   7.282 -0.2299 -1.2801 -0.1008
  590MOL0     C77784   6.103   4.480   7.331 -0.8366  0.0852 -1.2617
  590MOL0     C77785   6.232   4.411   7.295 -0.0729  0.2479 -0.3563
  590MOL0     C77786   6.243   4.399   7.133  0.0880  0.2939 -0.4006
  590MOL0     C77787   6.329   4.285   7.074  0.1901 -0.4131 -0.5877
  590MOL0     C77788   6.328   4.283   6.918 -0.3332  0.5914 -1.0440
  590MOL0     C77789   6.193   4.249   6.860  0.2387  0.1876 -0.6812
  590MOL0     C77790   6.195   4.176   6.725  0.5618 -0.3203 -0.0246
  590MOL0     C77791   6.296   4.066   6.698 -0.7345  1.0504 -0.2155
  590MOL0    Cl77792   6.466   4.114   6.643  0.3643 -0.1273 -0.0757
  590MOL0     C77793   5.950   4.812   7.260  0.0568  0.6309 -0.0571
  590MOL0     C77794   5.830   4.879   7.267 -0.6373  0.3710  1.0599
  590MOL0     O77795   5.381   4.885   7.354  1.0323  0.4254  0.3851
  590MOL0     C77796   5.360   4.606   7.288  0.2147 -0.1213  0.3924
  590MOL0     C77797   5.350   4.486   7.221 -0.4493 -1.1638  0.6899
  590MOL0     N77798   5.218   3.827   7.087 -0.6330 -0.6496  0.2483
  590MOL0     N77799   5.105   3.767   7.106 -0.5439  0.9769  0.0507
  590MOL0     C77800   4.396   3.472   7.857  0.7073 -0.9703  0.5392
  590MOL0     C77801   4.259   3.453   7.878 -0.6604 -0.1622 -0.6866
  590MOL0     C77802   3.825   3.474   7.932  0.7013 -0.4855  0.0095
  590MOL0     C77803   3.731   3.374   7.935 -0.4081 -0.1105 -0.3959
  590MOL0     C77804   3.595   3.399   7.955  0.0205 -0.1175 -0.2324
  590MOL0     C77805   3.548   3.527   7.975  0.8399 -0.0843 -0.1189
  590MOL0     O77806   3.421   3.577   7.985  0.8686 -0.5267 -0.2284
  590MOL0     C77807   3.314   3.479   7.970  0.1880 -0.0174  0.4710
  590MOL0     C77808   3.184   3.558   7.973  0.0306  0.0490  0.1365
  590MOL0     C77809   3.167   3.604   8.117 -0.1798 -0.0881 -0.1915
  590MOL0     C77810   3.022   3.664   8.111 -0.0277  0.2290 -0.5536
  590MOL0     C77811   2.982   3.735   8.235 -0.1152  0.5732  0.4979
  590MOL0     C77812   2.967   3.787   8.341 -0.3887 -0.8080  1.5379
  590MOL0     C77813   3.645   3.629   7.985 -0.0323  0.3356  0.2852
  590MOL0     C77814   3.780   3.605   7.972 -0.5443  0.1648  0.6936
  590MOL0     H77815   4.196   3.752   8.028  1.3665  2.1712 -0.2998
  590MOL0     H77816   4.423   3.766   8.015  0.1061 -1.4722  2.6884
  590MOL0     H77817   4.665   3.489   7.720  1.1420 -2.0951  0.5104
  590MOL0     H77818   4.709   3.430   7.883  5.1812  2.1083  2.0148
  590MOL0     H77819   4.896   3.520   7.795  0.1464  1.2707  1.2641
  590MOL0     H77820   4.844   3.623   7.928  0.7448 -2.6279  0.7940
  590MOL0     H77821   4.917   3.778   7.750 -1.4814  1.3547 -0.8112
  590MOL0     H77822   4.741   3.775   7.752 -0.6504 -0.4947 -3.1229
  590MOL0     H77823   4.940   3.640   7.567  0.5503 -0.5020 -0.1825
  590MOL0     H77824   4.765   3.598   7.564  1.2571 -0.4554  0.1917
  590MOL0     H77825   4.874   3.892   7.524  1.6556 -0.5133  0.8451
  590MOL0     H77826   4.718   3.819   7.482  0.3544  1.4805  0.4569
  590MOL0     H77827   4.839   3.663   7.326  0.1401  0.1734 -0.5601
  590MOL0     H77828   4.985   3.747   7.355 -1.1184 -1.3718 -0.4237
  590MOL0     H77829   4.719   3.895   7.258  0.1052 -0.0868 -2.2309
  590MOL0     H77830   4.879   3.966   7.277  1.9651  0.3332 -1.0130
  590MOL0     H77831   4.799   3.894   7.034 -3.9539 -1.9355  1.0750
  590MOL0     H77832   4.811   3.737   7.093 -0.1069  0.6156 -1.6026
  590MOL0     H77833   4.985   4.064   7.028 -1.1513  0.3000  0.1951
  590MOL0     H77834   5.369   4.066   7.075  0.6635  0.4706 -0.7201
  590MOL0     H77835   5.226   4.165   7.058 -1.0043  0.7096 -0.3919
  590MOL0     H77836   5.221   4.048   6.817 -0.0067  0.7694 -0.6923
  590MOL0     H77837   5.395   4.023   6.849  0.4378  1.5429  0.3599
  590MOL0     H77838   5.389   4.218   6.726  0.3292 -5.1346 -0.6488
  590MOL0     H77839   5.260   4.285   6.819 -1.7923 -2.3248 -2.5568
  590MOL0     H77840   5.489   4.388   6.852  0.4246 -0.0543  0.6600
  590MOL0     H77841   5.550   4.235   6.910  1.7046  0.8045 -1.5172
  590MOL0     H77842   5.576   4.536   6.962  0.1944  3.8853 -0.6156
  590MOL0     H77843   5.583   4.745   7.068 -1.7822 -0.3294 -2.4184
  590MOL0     H77844   5.646   4.633   7.397  1.4684 -1.1169  2.6107
  590MOL0     H77845   5.860   4.523   7.401 -2.5836  0.0807  1.5865
  590MOL0     H77846   6.035   4.406   7.288 -1.1560 -0.1911 -0.3134
  590MOL0     H77847   6.085   4.472   7.439  1.1980 -3.7940 -1.0258
  590MOL0     H77848   6.220   4.310   7.334  1.5361  0.3071  0.3748
  590MOL0     H77849   6.322   4.451   7.342  1.4677 -0.8407 -2.2184
  590MOL0     H77850   6.289   4.490   7.094 -2.2433  1.8034  0.2007
  590MOL0     H77851   6.141   4.393   7.094 -0.4420 -1.0152  1.0563
  590MOL0     H77852   6.434   4.310   7.096 -0.3639 -0.5699  2.6560
  590MOL0     H77853   6.299   4.188   7.115 -1.8849  0.6572  0.5353
  590MOL0     H77854   6.396   4.202   6.888 -0.2617  0.3805 -0.3242
  590MOL0     H77855   6.377   4.372   6.878  2.2474  0.3203  1.1868
  590MOL0     H77856   6.145   4.347   6.861  0.0028  0.1478 -2.7852
  590MOL0     H77857   6.142   4.187   6.934  1.3391  2.0569  1.7896
  590MOL0     H77858   6.098   4.125   6.717  1.1932 -1.4375 -0.8159
  590MOL0     H77859   6.186   4.241   6.637 -0.7381 -0.5920 -0.1107
  590MOL0     H77860   6.259   4.010   6.612 -1.3441  0.1960  0.5819
  590MOL0     H77861   6.299   3.995   6.781 -2.0131  3.3457  1.9452
  590MOL0     H77862   6.039   4.855   7.215 -0.7231  1.5288 -0.7585
  590MOL0     H77863   5.824   4.981   7.231  1.6062 -0.1672 -1.1411
  590MOL0     H77864   5.303   4.615   7.379  0.5805 -0.8936  0.7043
  590MOL0     H77865   5.280   4.414   7.261 -0.5410 -2.9981 -2.3714
  590MOL0     H77866   4.441   3.382   7.816  0.3183 -0.6990 -0.5110
  590MOL0     H77867   4.231   3.351   7.853  0.7755 -0.5733 -0.7092
  590MOL0     H77868   3.756   3.270   7.917  0.0073 -0.2485  0.8812
  590MOL0     H77869   3.524   3.317   7.950  1.4719 -1.6928  2.5766
  590MOL0     H77870   3.325   3.400   8.045 -0.1917 -3.8888 -3.1549
  590MOL0     H77871   3.320   3.423   7.876 -1.2405  2.8058 -1.4646
  590MOL0     H77872   3.186   3.640   7.900 -1.2059 -0.0087  0.0041
  590MOL0     H77873   3.095   3.496   7.958 -0.2336  0.2231  0.9501
  590MOL0     H77874   3.237   3.686   8.138  0.8562 -1.5091  2.3999
  590MOL0     H77875   3.181   3.527   8.192 -2.0451  2.7690  3.4231
  590MOL0     H77876   3.019   3.726   8.021  1.4108  0.4599 -0.4606
  590MOL0     H77877   2.947   3.584   8.108 -0.9572  1.0725 -0.2373
  590MOL0     H77878   2.959   3.845   8.431  0.5175  1.3165  0.3093
  590MOL0     H77879   3.611   3.729   8.013  1.4056  1.3027 -1.2312
  590MOL0     H77880   3.854   3.681   7.991  0.1431 -0.7492  1.8118
  591MOL0     O77881   3.289  11.002   4.019 -0.7764 -0.2211 -0.1004
  591MOL0     C77882   3.323  10.885   4.010 -0.3415 -0.4758 -0.6034
  591MOL0     O77883   3.246  10.771   3.986  0.5443 -0.2167  0.3902
  591MOL0     C77884   3.103  10.772   3.989 -0.3933 -0.2893 -0.6823
  591MOL0     C77885   3.013  10.878   3.960  0.6068 -0.9506  0.4474
  591MOL0     C77886   2.882  10.873   3.996 -0.4430 -0.7749  0.5064
  591MOL0     C77887   2.833  10.779   4.086 -0.6067 -0.3419 -0.0819
  591MOL0     O77888   2.700  10.788   4.110 -0.6860  0.9613  0.7750
  591MOL0     C77889   2.634  10.682   4.180  1.6269  0.3420  0.0108
  591MOL0     C77890   2.484  10.718   4.178  1.0917  0.6722  0.1931
  591MOL0     C77891   2.427  10.727   4.036  0.0326  0.1269  0.4785
  591MOL0     C77892   2.278  10.719   4.021  0.2128 -0.0032 -0.3697
  591MOL0     C77893   2.227  10.738   3.884 -0.2783 -0.5623  1.1106
  591MOL0     C77894   2.271  10.619   3.794 -0.7389  0.1162  0.4352
  591MOL0     C77895   2.211  10.644   3.647  0.2881  0.6272 -1.1905
  591MOL0     C77896   2.290  10.568   3.543 -0.5514 -0.4566  0.4350
  591MOL0     N77897   2.426  10.632   3.528 -0.7479  0.4739 -0.8012
  591MOL0     C77898   2.543  10.582   3.594 -0.2558  0.2871 -0.4492
  591MOL0     C77899   2.643  10.657   3.542  0.2361  0.4917 -0.3870
  591MOL0     C77900   2.790  10.649   3.595  0.3361 -0.0712  0.2535
  591MOL0     C77901   2.824  10.503   3.595 -0.1965  0.6813  0.8902
  591MOL0     C77902   2.983  10.465   3.608 -0.6644 -0.5113  0.3257
  591MOL0     C77903   3.012  10.323   3.550 -0.2060  0.7832 -0.8161
  591MOL0     O77904   3.153  10.281   3.595  1.5883  0.0560  0.1830
  591MOL0     C77905   3.243  10.303   3.502  0.7533 -1.5622 -0.2209
  591MOL0     C77906   3.269  10.207   3.408  0.4710 -1.0540 -0.2198
  591MOL0     C77907   3.338  10.246   3.288  0.1615 -0.1079  1.1361
  591MOL0     C77908   3.412  10.366   3.291 -0.5131 -0.0001 -0.4981
  591MOL0     C77909   3.496  10.409   3.174  0.0020 -0.0055  0.1580
  591MOL0     O77910   3.470  10.336   3.058 -1.1611 -0.1432 -0.0077
  591MOL0     C77911   3.501  10.392   2.934  1.2914  0.0397 -0.0742
  591MOL0     C77912   3.520  10.535   2.905 -0.7659  1.5184  0.6391
  591MOL0     C77913   3.544  10.573   2.773 -0.0639  0.7730  0.5651
  591MOL0     C77914   3.543  10.482   2.668  1.9419  0.1193 -0.3763
  591MOL0     O77915   3.536  10.512   2.534 -0.1190  0.6000 -0.0799
  591MOL0     C77916   3.492  10.639   2.493 -0.0975 -0.1287  0.3383
  591MOL0     C77917   3.495  10.658   2.339  0.7496 -0.0366  0.0464
  591MOL0     C77918   3.452  10.806   2.310 -0.2785 -0.1509 -0.2463
  591MOL0     C77919   3.301  10.823   2.320 -0.3355  0.2403  0.3563
  591MOL0     C77920   3.262  10.972   2.312  0.6355  0.2179 -0.9909
  591MOL0     C77921   3.117  10.999   2.266 -0.1513  0.3609  0.9037
  591MOL0     C77922   3.072  11.135   2.209  0.0527  0.6967  0.0042
  591MOL0     C77923   2.933  11.112   2.140 -1.0902 -0.0377  0.2093
  591MOL0    Cl77924   2.874  11.266   2.072 -0.2431  0.0963 -0.0017
  591MOL0     C77925   3.506  10.347   2.697  0.4991 -0.1221 -0.0312
  591MOL0     C77926   3.482  10.308   2.826 -0.8540 -0.0537  0.0691
  591MOL0     O77927   3.584  10.497   3.194  0.0924  0.1633 -0.6276
  591MOL0     C77928   3.404  10.449   3.407  0.3683 -0.4460  0.5483
  591MOL0     C77929   3.300  10.430   3.500 -0.0359 -0.4599 -0.2398
  591MOL0     N77930   2.589  10.743   3.453 -0.1001  0.2474  0.4118
  591MOL0     N77931   2.468  10.718   3.433  0.6165 -0.3774  0.4731
  591MOL0     C77932   2.923  10.685   4.132  0.2676  0.1341 -0.2770
  591MOL0     C77933   3.052  10.673   4.078 -0.0016  0.2111  0.5759
  591MOL0     C77934   3.460  10.864   4.054 -0.7780  0.3960  0.3697
  591MOL0     C77935   3.543  10.759   4.011 -0.5071 -0.2670 -0.6322
  591MOL0     C77936   3.664  10.739   4.062 -0.5769  0.3554  0.1988
  591MOL0     C77937   3.729  10.825   4.152 -0.2933 -0.3346  0.6140
  591MOL0     O77938   3.849  10.785   4.204 -0.4696  0.2249  0.2245
  591MOL0     C77939   3.921  10.878   4.284 -0.6757  0.3569  0.8346
  591MOL0     C77940   4.051  10.810   4.338 -1.1729 -0.0650  0.9273
  591MOL0     C77941   4.134  10.903   4.417  0.2919 -0.9168 -1.1292
  591MOL0     C77942   4.271  10.846   4.421  0.1055 -0.3347  0.2089
  591MOL0     C77943   4.343  10.855   4.299 -0.0124 -0.2347  1.1134
  591MOL0     C77944   4.405  10.854   4.198 -0.6291 -0.1244  0.6615
  591MOL0     C77945   3.659  10.940   4.189 -0.3987 -0.6228  0.3126
  591MOL0     C77946   3.521  10.953   4.149  0.1184 -0.1385 -0.8875
  591MOL0     H77947   3.044  10.967   3.907  4.0910 -3.1945 -1.7108
  591MOL0     H77948   2.806  10.949   3.980 -0.8022 -0.9707  1.2559
  591MOL0     H77949   2.664  10.687   4.285  1.8994 -3.5444  0.2636
  591MOL0     H77950   2.659  10.584   4.139  1.7942 -0.0032  0.9107
  591MOL0     H77951   2.466  10.816   4.225 -0.8964  0.0085  0.9092
  591MOL0     H77952   2.431  10.645   4.240  4.9097 -0.0512  3.0103
  591MOL0     H77953   2.469  10.645   3.977 -1.3415 -0.1220 -0.2138
  591MOL0     H77954   2.470  10.814   3.986 -1.2884 -0.2494 -1.4560
  591MOL0     H77955   2.249  10.617   4.050  1.6149  0.5735  3.6996
  591MOL0     H77956   2.238  10.787   4.097  2.4722  1.9128 -0.7916
  591MOL0     H77957   2.264  10.836   3.851 -1.3773 -0.0242  1.4132
  591MOL0     H77958   2.117  10.737   3.881 -0.3216 -0.7265 -2.5655
  591MOL0     H77959   2.232  10.521   3.822  0.2922 -0.4463 -0.0229
  591MOL0     H77960   2.380  10.610   3.795 -0.6861  0.0859 -1.4250
  591MOL0     H77961   2.104  10.624   3.637  0.4383 -1.3125  0.4724
  591MOL0     H77962   2.226  10.752   3.633 -2.8361  1.5580  1.6075
  591MOL0     H77963   2.243  10.587   3.445 -0.1448  1.0537  0.5129
  591MOL0     H77964   2.294  10.462   3.568 -2.4080 -0.4209  1.0062
  591MOL0     H77965   2.550  10.508   3.672  0.0636  1.2948  0.5029
  591MOL0     H77966   2.812  10.693   3.693  2.7882 -1.0919  0.2230
  591MOL0     H77967   2.858  10.699   3.527 -0.0976 -0.8148 -0.7449
  591MOL0     H77968   2.776  10.451   3.511 -0.1807  1.0206  0.6701
  591MOL0     H77969   2.777  10.465   3.686 -1.2725  2.0135  0.9230
  591MOL0     H77970   3.038  10.540   3.550 -1.5463  0.3407  0.5698
  591MOL0     H77971   3.013  10.467   3.713 -3.0276 -0.6807  1.0700
  591MOL0     H77972   2.995  10.308   3.443  0.5395 -2.8415 -0.5591
  591MOL0     H77973   2.941  10.254   3.597  0.3823 -1.4923 -3.0057
  591MOL0     H77974   3.224  10.108   3.404 -2.5866  0.2420 -1.0856
  591MOL0     H77975   3.345  10.174   3.207 -1.9598  1.6950 -0.7786
  591MOL0     H77976   3.504  10.614   2.978 -2.0994  1.0276  0.8960
  591MOL0     H77977   3.545  10.679   2.751  0.4824  0.6711  0.0579
  591MOL0     H77978   3.563  10.709   2.539 -0.3615  0.2079  0.2353
  591MOL0     H77979   3.396  10.657   2.543  0.6038 -0.7181  1.9795
  591MOL0     H77980   3.425  10.590   2.289  0.2138  1.0429 -0.7327
  591MOL0     H77981   3.594  10.627   2.305  0.7394 -0.1866  0.1556
  591MOL0     H77982   3.489  10.829   2.209 -3.5004 -1.2714 -1.8150
  591MOL0     H77983   3.505  10.875   2.377 -1.4497  1.3015 -0.7666
  591MOL0     H77984   3.272  10.768   2.230  5.6423 -2.2542 -0.5244
  591MOL0     H77985   3.261  10.779   2.412 -1.6322  2.1438  0.7385
  591MOL0     H77986   3.330  11.021   2.242 -1.0180  0.0731 -2.8169
  591MOL0     H77987   3.278  11.018   2.410  2.8004 -3.6400  0.6981
  591MOL0     H77988   3.054  10.972   2.351 -0.1394 -3.2719 -0.0996
  591MOL0     H77989   3.103  10.919   2.193 -0.3967  0.8427  0.4135
  591MOL0     H77990   3.049  11.196   2.297 -3.6114  0.9971 -1.0234
  591MOL0     H77991   3.136  11.168   2.126 -1.6887 -0.2470 -1.7964
  591MOL0     H77992   2.867  11.065   2.212 -0.4956 -1.1121  0.0703
  591MOL0     H77993   2.955  11.041   2.060  0.5323  0.4654  0.1663
  591MOL0     H77994   3.490  10.272   2.620 -1.6498  1.0929 -0.8387
  591MOL0     H77995   3.456  10.203   2.824 -0.1813 -0.2212 -0.3230
  591MOL0     H77996   3.456  10.544   3.414  0.9178 -0.4608 -2.2219
  591MOL0     H77997   3.287  10.500   3.582  0.7745 -0.5964  0.0170
  591MOL0     H77998   2.885  10.608   4.198  0.0211  0.7940  0.3617
  591MOL0     H77999   3.117  10.592   4.110  0.6201  0.7638  0.7193
  591MOL0     H78000   3.519  10.686   3.934 -1.4598 -0.7863  0.1335
  591MOL0     H78001   3.728  10.656   4.033  0.3806  0.9152  0.6546
  591MOL0     H78002   3.863  10.900   4.374 -0.7229 -0.0981  0.9165
  591MOL0     H78003   3.946  10.962   4.218 -1.4719  0.0382  0.1132
  591MOL0     H78004   4.031  10.722   4.400 -0.2547 -0.6986  0.3659
  591MOL0     H78005   4.104  10.771   4.250 -1.4623  0.8983  0.3174
  591MOL0     H78006   4.088  10.901   4.517  2.8416  0.8175  0.1766
  591MOL0     H78007   4.128  11.005   4.378 -0.6856 -0.4058  0.2776
  591MOL0     H78008   4.329  10.893   4.502 -0.5886 -0.1374  0.6090
  591MOL0     H78009   4.276  10.745   4.462  2.1224  0.7534  3.0333
  591MOL0     H78010   4.456  10.872   4.106 -2.2608 -3.2645 -1.0330
  591MOL0     H78011   3.696  11.024   4.246 -3.5696  0.2615  1.2706
  591MOL0     H78012   3.469  11.042   4.184  0.4359 -0.1348 -0.4034
  592MOL0     O78013   4.596   3.634   5.851 -0.2940 -0.8066  0.4084
  592MOL0     C78014   4.634   3.567   5.755  0.3610 -0.0677  0.5872
  592MOL0     O78015   4.548   3.496   5.666 -0.2265  0.5868 -0.1872
  592MOL0     C78016   4.415   3.519   5.693 -1.7335 -1.1275  0.5168
  592MOL0     C78017   4.371   3.480   5.820 -0.0970  0.0642  0.4512
  592MOL0     C78018   4.239   3.513   5.850  0.2187 -0.0635  0.0776
  592MOL0     C78019   4.156   3.573   5.769  0.3543 -0.0155 -1.0227
  592MOL0     O78020   4.024   3.594   5.795 -1.1523  0.1754 -0.0995
  592MOL0     C78021   4.000   3.689   5.899 -0.3356  0.1327  0.6616
  592MOL0     C78022   3.851   3.732   5.878  0.8062  0.2795  0.0269
  592MOL0     C78023   3.800   3.814   5.987  0.1514 -0.3074  0.0240
  592MOL0     C78024   3.678   3.902   5.951  0.8893 -0.3704 -0.6733
  592MOL0     C78025   3.648   4.010   6.065  0.0707 -0.2869 -0.7795
  592MOL0     C78026   3.644   3.937   6.208  0.9719 -0.3405  0.5210
  592MOL0     C78027   3.617   4.048   6.311 -0.4037  0.1469  0.8952
  592MOL0     C78028   3.619   3.977   6.445 -0.1860  1.1830  0.2713
  592MOL0     N78029   3.764   3.944   6.472 -0.4123 -0.0437 -0.2859
  592MOL0     C78030   3.858   4.023   6.529  0.8384 -0.0237  1.0414
  592MOL0     C78031   3.951   3.935   6.578 -0.8140 -1.0391 -1.2219
  592MOL0     C78032   4.080   3.983   6.656  0.2707 -0.4940 -0.2281
  592MOL0     C78033   4.050   3.971   6.806  0.4712  0.3374  0.3784
  592MOL0     C78034   4.058   3.824   6.845  0.9491 -0.1404  1.2010
  592MOL0     C78035   4.037   3.808   6.999  0.0475  0.0486  0.2972
  592MOL0     O78036   4.047   3.667   7.034 -0.1521  0.3946  0.2287
  592MOL0     C78037   3.929   3.595   7.034  0.4487  0.5041 -0.8101
  592MOL0     C78038   3.820   3.636   6.959  0.3496 -0.7632  0.2799
  592MOL0     C78039   3.700   3.556   6.964 -0.3644 -0.2650  1.0265
  592MOL0     C78040   3.694   3.442   7.047  0.5474  0.6811  0.0597
  592MOL0     C78041   3.566   3.370   7.064 -0.3326 -0.3150  0.9798
  592MOL0     O78042   3.450   3.427   7.003 -0.5532  0.4778 -0.5461
  592MOL0     C78043   3.324   3.383   7.007  0.2823 -0.1603  0.2683
  592MOL0     C78044   3.274   3.274   7.078 -0.9010 -0.0192 -0.9600
  592MOL0     C78045   3.141   3.234   7.074  0.3793 -0.5274 -0.1537
  592MOL0     C78046   3.056   3.291   6.976  0.8010 -0.3506  0.8110
  592MOL0     O78047   2.930   3.236   6.932 -0.1751 -0.2768  0.6013
  592MOL0     C78048   2.862   3.156   7.033  0.5587  0.5270  0.1002
  592MOL0     C78049   2.725   3.136   6.977 -0.5538 -0.1288 -0.0170
  592MOL0     C78050   2.663   3.276   6.968  0.4033 -0.1220  0.8761
  592MOL0     C78051   2.511   3.252   6.942  0.3982  0.8029 -0.2658
  592MOL0     C78052   2.425   3.376   6.946 -0.5331  0.5075  0.5666
  592MOL0     C78053   2.299   3.368   6.859  0.3237 -0.0265 -0.4588
  592MOL0     C78054   2.224   3.257   6.915  0.4076  0.0697 -0.7471
  592MOL0     C78055   2.088   3.243   6.851 -0.3572 -0.3392 -0.7300
  592MOL0    Cl78056   2.011   3.104   6.936 -0.5315 -0.4355  0.6568
  592MOL0     C78057   3.104   3.400   6.903  0.1598  0.2142  0.0125
  592MOL0     C78058   3.235   3.446   6.919 -0.6221  0.2092 -0.1582
  592MOL0     O78059   3.566   3.258   7.113 -0.6838 -0.0089 -0.2412
  592MOL0     C78060   3.806   3.402   7.113 -0.8058 -0.5284 -0.4837
  592MOL0     C78061   3.928   3.474   7.102 -0.1880  0.9809 -0.5885
  592MOL0     N78062   3.924   3.808   6.533  0.5034  0.4136 -0.4830
  592MOL0     N78063   3.803   3.810   6.482 -0.2547 -0.0874 -0.0895
  592MOL0     C78064   4.199   3.619   5.646  0.3636  0.7386 -0.4131
  592MOL0     C78065   4.334   3.594   5.609 -0.6203 -0.5535 -0.0619
  592MOL0     C78066   4.783   3.542   5.745  0.4493 -0.9022 -0.1826
  592MOL0     C78067   4.832   3.444   5.664  0.3264 -0.0177 -0.3669
  592MOL0     C78068   4.975   3.410   5.670  0.0124  1.5251  0.8098
  592MOL0     C78069   5.061   3.462   5.762 -0.2373  0.4428  0.6706
  592MOL0     O78070   5.191   3.415   5.764 -0.1481 -0.0010  0.8044
  592MOL0     C78071   5.280   3.476   5.858  0.2378  0.2786  0.1656
  592MOL0     C78072   5.407   3.409   5.854 -0.0161  0.3051 -0.5012
  592MOL0     C78073   5.405   3.265   5.902  0.3070  0.7733 -0.7157
  592MOL0     C78074   5.539   3.187   5.901 -0.3410  0.1179  0.2788
  592MOL0     C78075   5.586   3.177   5.758  0.3225  0.5169 -0.1232
  592MOL0     C78076   5.613   3.150   5.643 -1.4235  0.0436  0.7289
  592MOL0     C78077   5.014   3.558   5.846 -0.3688  0.2927 -0.6877
  592MOL0     C78078   4.879   3.594   5.843  0.0419 -0.4189 -0.1632
  592MOL0     H78079   4.434   3.430   5.894  2.0874  3.2703  0.9768
  592MOL0     H78080   4.208   3.466   5.942  0.3608 -0.0362  0.1397
  592MOL0     H78081   4.067   3.775   5.892 -0.6945  0.2800 -1.3675
  592MOL0     H78082   4.022   3.643   5.996  1.4548  0.1331  0.2851
  592MOL0     H78083   3.781   3.651   5.859  1.7137 -0.6822  0.6693
  592MOL0     H78084   3.838   3.789   5.786  0.7266  1.1303  0.5463
  592MOL0     H78085   3.886   3.877   6.013 -1.4160  2.0783 -0.2897
  592MOL0     H78086   3.775   3.746   6.069  2.0034 -0.7654  0.2589
  592MOL0     H78087   3.691   3.954   5.856 -2.2904 -1.6611 -1.9250
  592MOL0     H78088   3.601   3.825   5.947  0.4062  0.0615  0.2029
  592MOL0     H78089   3.556   4.067   6.049  0.3879  0.1047 -1.2465
  592MOL0     H78090   3.730   4.082   6.070  1.7541 -2.0425 -1.9969
  592MOL0     H78091   3.736   3.883   6.228  0.0229 -2.3430 -0.2574
  592MOL0     H78092   3.560   3.866   6.213  0.1294  0.7023  2.5005
  592MOL0     H78093   3.706   4.113   6.304  1.2062 -1.9029  1.3132
  592MOL0     H78094   3.520   4.096   6.300 -1.4433 -1.2811  3.2507
  592MOL0     H78095   3.554   3.891   6.462  2.4385 -0.7751  1.0510
  592MOL0     H78096   3.581   4.050   6.517 -1.9066  1.7103 -1.1115
  592MOL0     H78097   3.864   4.131   6.540 -0.9974  0.3198 -0.7148
  592MOL0     H78098   4.104   4.088   6.640 -1.0236  0.3036  2.4919
  592MOL0     H78099   4.158   3.911   6.631  1.8004  0.5828  1.2465
  592MOL0     H78100   3.958   4.017   6.841  0.1279 -0.6421  0.8059
  592MOL0     H78101   4.136   4.016   6.856  1.4847 -1.6612  0.5732
  592MOL0     H78102   3.986   3.759   6.795  0.2753 -0.6617  2.7773
  592MOL0     H78103   4.154   3.786   6.809 -0.6260 -0.2562 -3.5554
  592MOL0     H78104   3.942   3.853   7.031  0.5857 -0.3880  2.6974
  592MOL0     H78105   4.118   3.847   7.062  1.2806 -2.2830  0.2653
  592MOL0     H78106   3.830   3.731   6.907 -0.7549  0.3945  2.0682
  592MOL0     H78107   3.616   3.583   6.901 -0.4388 -0.4433  1.0489
  592MOL0     H78108   3.333   3.217   7.150 -0.7246  2.9290  1.3991
  592MOL0     H78109   3.116   3.162   7.151 -0.3529  0.0970  0.2140
  592MOL0     H78110   2.849   3.217   7.123 -4.4251  1.9570 -1.2544
  592MOL0     H78111   2.910   3.061   7.059 -1.7715 -0.5797  0.6221
  592MOL0     H78112   2.684   3.061   7.047  0.7030 -3.7646 -2.8423
  592MOL0     H78113   2.735   3.096   6.876 -1.9960  3.1105 -1.5643
  592MOL0     H78114   2.699   3.330   6.881 -0.8861  2.1233  1.6501
  592MOL0     H78115   2.684   3.334   7.059  1.9739 -1.6673  1.5534
  592MOL0     H78116   2.504   3.206   6.843 -1.5586  1.2982 -0.4035
  592MOL0     H78117   2.469   3.185   7.018  0.1220  0.3390 -0.8130
  592MOL0     H78118   2.484   3.460   6.908 -0.7179  1.8184  3.0046
  592MOL0     H78119   2.400   3.401   7.050 -1.8114 -0.3917  0.4984
  592MOL0     H78120   2.331   3.335   6.760  2.3272 -0.3043  0.2287
  592MOL0     H78121   2.250   3.465   6.860  0.6169  0.1796 -2.4872
  592MOL0     H78122   2.281   3.164   6.905  1.6683  0.7540 -0.1485
  592MOL0     H78123   2.218   3.279   7.022 -1.6802  0.5622 -0.9179
  592MOL0     H78124   2.092   3.226   6.743 -0.3935 -0.9212 -0.6440
  592MOL0     H78125   2.025   3.331   6.867  1.4648  1.3385 -2.2664
  592MOL0     H78126   3.058   3.436   6.811  1.3540  1.3414 -0.1702
  592MOL0     H78127   3.268   3.533   6.863  0.9894  0.4194  1.0481
  592MOL0     H78128   3.801   3.321   7.185 -0.8208 -1.2173 -1.2477
  592MOL0     H78129   4.021   3.459   7.158 -0.7123  0.8778  0.2779
  592MOL0     H78130   4.140   3.684   5.582  1.2594  3.3120  1.2154
  592MOL0     H78131   4.356   3.631   5.509  1.8213  1.6548  1.1692
  592MOL0     H78132   4.767   3.393   5.594 -1.3928  1.9407 -0.2898
  592MOL0     H78133   5.019   3.338   5.602  3.2108  4.5109 -0.5624
  592MOL0     H78134   5.239   3.467   5.958  1.1897  0.7574  0.6154
  592MOL0     H78135   5.294   3.582   5.835 -0.7740 -0.3023 -3.8435
  592MOL0     H78136   5.443   3.414   5.751  0.2051  2.2788 -0.3778
  592MOL0     H78137   5.481   3.463   5.914  0.2415 -1.5628  0.9616
  592MOL0     H78138   5.327   3.210   5.849  2.7986 -3.1111 -0.7640
  592MOL0     H78139   5.377   3.272   6.007  3.3505 -0.6026  0.2993
  592MOL0     H78140   5.617   3.238   5.958 -0.3498 -0.6039  0.9506
  592MOL0     H78141   5.527   3.084   5.934  0.8574 -0.0832  0.1444
  592MOL0     H78142   5.642   3.127   5.542  2.5227 -4.1165  2.4820
  592MOL0     H78143   5.075   3.612   5.918 -0.4951 -0.6116  0.1148
  592MOL0     H78144   4.842   3.660   5.922  2.2410  0.4672  0.1978
  593MOL0     O78145   5.369  11.296   7.410  0.0147 -0.2650  0.5305
  593MOL0     C78146   5.458  11.331   7.482 -0.6753  0.6669  0.4525
  593MOL0     O78147   5.452  11.448   7.550 -0.2983 -0.1373  0.2903
  593MOL0     C78148   5.347  11.525   7.586 -0.1139  0.0881  0.3117
  593MOL0     C78149   5.369  11.652   7.647  0.7616 -0.5372  0.5100
  593MOL0     C78150   5.259  11.716   7.719 -0.5602 -1.4515  0.1974
  593MOL0     C78151   5.142  11.657   7.736  0.1473  0.8612 -0.6407
  593MOL0     O78152   5.051  11.731   7.807  0.6408 -0.2798 -0.3496
  593MOL0     C78153   4.917  11.691   7.822  0.4515 -0.6135  0.3558
  593MOL0     C78154   4.825  11.803   7.877  0.7962  0.2555 -0.3551
  593MOL0     C78155   4.810  11.916   7.775 -0.1517  0.0992  0.0400
  593MOL0     C78156   4.725  12.030   7.811 -0.1379 -0.4086  0.4763
  593MOL0     C78157   4.606  12.001   7.900 -0.1617  0.3067 -0.3002
  593MOL0     C78158   4.510  12.123   7.918  0.0298 -0.2534 -0.5013
  593MOL0     C78159   4.419  12.100   8.030  0.9156  0.5367 -0.1469
  593MOL0     C78160   4.484  12.099   8.169 -1.4145 -0.2079 -0.2656
  593MOL0     N78161   4.437  12.197   8.270 -0.6342 -0.6060  0.1113
  593MOL0     C78162   4.304  12.224   8.297 -0.1307 -0.6341 -0.7072
  593MOL0     C78163   4.311  12.338   8.382 -0.0144 -0.5284  0.4072
  593MOL0     C78164   4.190  12.407   8.443  0.6531  0.3161 -0.5879
  593MOL0     C78165   4.068  12.438   8.340 -0.8607  0.5107  0.2029
  593MOL0     C78166   3.963  12.526   8.408 -0.1951  0.9009 -0.0386
  593MOL0     C78167   3.880  12.445   8.511  0.2028 -0.8455  0.2882
  593MOL0     O78168   3.936  12.464   8.643  0.6967 -0.5102 -0.4353
  593MOL0     C78169   3.961  12.355   8.723 -0.4432 -0.2773 -0.9598
  593MOL0     C78170   3.869  12.251   8.728 -0.5494  0.7912  0.3006
  593MOL0     C78171   3.895  12.142   8.817 -0.9471  0.1904  0.1526
  593MOL0     C78172   4.011  12.137   8.894  0.7130  0.6894 -0.1506
  593MOL0     C78173   4.025  12.021   8.986  0.3370  0.6056  0.0552
  593MOL0     O78174   4.122  12.016   9.075 -0.0614 -0.9804  0.3945
  593MOL0     C78175   4.171  11.915   9.145  0.6045  0.6893  0.1622
  593MOL0     C78176   4.121  11.782   9.145 -1.3247  0.5963  0.1734
  593MOL0     C78177   4.158  11.696   9.249  0.4378 -0.2456 -0.2322
  593MOL0     C78178   4.261  11.724   9.343  0.1281  0.6027  0.3039
  593MOL0     O78179   4.307  11.624   9.429  0.1858  0.6931  0.1388
  593MOL0     C78180   4.434  11.616   9.498  0.3949 -0.2617  0.7112
  593MOL0     C78181   4.443  11.497   9.575  0.9779 -0.7027 -0.2340
  593MOL0     C78182   4.321  11.479   9.672 -1.0514  0.7570  0.7739
  593MOL0     C78183   4.301  11.604   9.765  0.0551  0.9670 -0.1723
  593MOL0     C78184   4.258  11.562   9.906 -0.9874  0.9982  0.4058
  593MOL0     C78185   4.233  11.681   9.997  0.2133  0.2779 -1.4572
  593MOL0     C78186   4.116  11.756   9.960  0.5933  0.2315 -1.1287
  593MOL0     C78187   4.086  11.862  10.062 -0.2799  0.2064  0.2385
  593MOL0    Cl78188   4.221  11.974  10.095 -0.2222  0.1917  0.0765
  593MOL0     C78189   4.325  11.851   9.322  0.2232 -0.8341 -0.9060
  593MOL0     C78190   4.264  11.950   9.233 -1.0321 -0.4134 -0.9172
  593MOL0     O78191   3.940  11.934   8.981 -0.7578  0.6092  0.2964
  593MOL0     C78192   4.096  12.241   8.885 -0.1103 -0.3868 -0.5994
  593MOL0     C78193   4.079  12.355   8.802 -0.5110  0.2230  0.8399
  593MOL0     N78194   4.444  12.375   8.397 -0.1690 -0.0563 -0.3713
  593MOL0     N78195   4.517  12.281   8.339  0.4592 -0.7645  1.0376
  593MOL0     C78196   5.109  11.537   7.667  0.1207  0.2841 -0.4530
  593MOL0     C78197   5.214  11.477   7.594 -0.0030  1.2810 -0.8755
  593MOL0     C78198   5.569  11.239   7.493  0.3845  0.1128  0.5350
  593MOL0     C78199   5.593  11.140   7.398  0.6248 -0.4158  0.3139
  593MOL0     C78200   5.693  11.049   7.416  0.0818  0.6721  0.2114
  593MOL0     C78201   5.770  11.059   7.535 -0.6682 -0.1567  0.1115
  593MOL0     O78202   5.871  10.961   7.546  0.1225  0.4142  0.1564
  593MOL0     C78203   5.941  10.965   7.671 -0.4511 -0.1329  0.1757
  593MOL0     C78204   6.004  10.831   7.665 -0.6328  0.3020  0.0675
  593MOL0     C78205   6.136  10.833   7.572  0.4782  1.5728 -0.5713
  593MOL0     C78206   6.223  10.696   7.575 -0.8570 -0.0454  0.3179
  593MOL0     C78207   6.290  10.694   7.711  0.7475  0.1298 -0.5127
  593MOL0     C78208   6.346  10.696   7.819  0.3785  0.1264  0.6757
  593MOL0     C78209   5.739  11.156   7.626  0.4029 -0.3577  0.4931
  593MOL0     C78210   5.639  11.244   7.617  0.1171  0.2497  0.1468
  593MOL0     H78211   5.467  11.698   7.644  0.7362 -0.5204 -0.1839
  593MOL0     H78212   5.267  11.818   7.755  0.6129 -1.6663  0.5840
  593MOL0     H78213   4.914  11.597   7.878  1.0549 -3.2182 -3.5674
  593MOL0     H78214   4.874  11.668   7.724  0.4107  1.0085 -0.0309
  593MOL0     H78215   4.858  11.832   7.977 -1.4757 -2.6654  1.4231
  593MOL0     H78216   4.726  11.761   7.900  1.6707 -0.5151  2.2818
  593MOL0     H78217   4.768  11.884   7.679 -1.1049  0.9715  0.1482
  593MOL0     H78218   4.911  11.957   7.770 -0.0962 -0.1439 -2.8735
  593MOL0     H78219   4.798  12.095   7.861  0.6517 -0.2623 -0.8147
  593MOL0     H78220   4.705  12.073   7.713  1.3498  0.9004  0.7058
  593MOL0     H78221   4.635  11.950   7.993 -3.5696 -1.4217 -0.0123
  593MOL0     H78222   4.550  11.927   7.843  0.8605  1.3473 -2.7965
  593MOL0     H78223   4.452  12.135   7.826 -0.5190  2.7217  0.1407
  593MOL0     H78224   4.568  12.214   7.932 -1.0258  0.1651  1.5309
  593MOL0     H78225   4.335  12.170   8.029  1.1589  0.8324  0.1698
  593MOL0     H78226   4.384  11.998   8.011  0.8470 -0.2400  3.5140
  593MOL0     H78227   4.591  12.120   8.165 -1.1509 -0.1768  3.3081
  593MOL0     H78228   4.476  12.004   8.223 -1.6481 -0.3254 -0.5057
  593MOL0     H78229   4.212  12.189   8.251 -0.4024 -0.7605 -0.0793
  593MOL0     H78230   4.218  12.506   8.481 -1.5169  1.0015 -0.6525
  593MOL0     H78231   4.146  12.353   8.527  0.4594  0.6942 -0.4430
  593MOL0     H78232   4.016  12.347   8.307 -1.5038  0.4549  1.3371
  593MOL0     H78233   4.117  12.482   8.252  0.3945  1.3780  1.2985
  593MOL0     H78234   3.996  12.620   8.455 -2.3452  2.0325 -0.6599
  593MOL0     H78235   3.894  12.549   8.327 -1.6009 -1.2658  0.4702
  593MOL0     H78236   3.865  12.344   8.472  1.8608 -0.5401 -1.2987
  593MOL0     H78237   3.779  12.487   8.511  0.2384 -0.7587  0.1600
  593MOL0     H78238   3.787  12.251   8.657  0.6843  3.1444 -1.2383
  593MOL0     H78239   3.818  12.065   8.816 -0.6201 -0.1816 -1.8519
  593MOL0     H78240   4.049  11.743   9.074  0.7021  1.2789 -2.4242
  593MOL0     H78241   4.094  11.609   9.251  1.2635 -1.0594 -3.4006
  593MOL0     H78242   4.437  11.713   9.549  0.6252  1.0658 -1.6926
  593MOL0     H78243   4.523  11.621   9.434  0.9208 -1.9331  1.2502
  593MOL0     H78244   4.537  11.478   9.627  2.5637 -1.9185 -3.2867
  593MOL0     H78245   4.436  11.415   9.503  2.2247 -2.6363  1.7523
  593MOL0     H78246   4.336  11.387   9.729 -0.8084  0.7450  0.6912
  593MOL0     H78247   4.231  11.459   9.613  0.7720 -2.1454 -1.3027
  593MOL0     H78248   4.393  11.662   9.776 -0.8599  1.9854  3.3739
  593MOL0     H78249   4.220  11.664   9.722  0.4108  0.1904 -2.0453
  593MOL0     H78250   4.335  11.494   9.943  1.3860  1.3954 -3.2435
  593MOL0     H78251   4.162  11.509   9.905 -0.6254  0.3171  1.3194
  593MOL0     H78252   4.316  11.752   9.997 -0.3129  0.9124 -0.2186
  593MOL0     H78253   4.226  11.644  10.099  2.1315  3.8288  0.1226
  593MOL0     H78254   4.136  11.815   9.870  0.9745  2.4596  0.3329
  593MOL0     H78255   4.036  11.683   9.953  1.2167 -1.1393  3.0445
  593MOL0     H78256   4.034  11.818  10.148  1.3401  0.4191  1.3625
  593MOL0     H78257   4.009  11.924  10.015  0.2610  2.8544  2.5767
  593MOL0     H78258   4.404  11.882   9.390 -0.6155  1.4873 -0.9065
  593MOL0     H78259   4.300  12.052   9.228 -2.1163  0.0123 -0.2479
  593MOL0     H78260   4.190  12.251   8.938 -0.5936  0.7103  0.0881
  593MOL0     H78261   4.166  12.420   8.800  0.1558 -0.6064  1.9985
  593MOL0     H78262   5.016  11.480   7.668  0.8734 -1.1017 -2.5228
  593MOL0     H78263   5.204  11.378   7.551  0.7772  0.8378 -0.0507
  593MOL0     H78264   5.531  11.137   7.309 -3.2747 -0.8489  2.8316
  593MOL0     H78265   5.715  10.974   7.341  1.2236  0.8020  0.4036
  593MOL0     H78266   5.873  10.965   7.758  2.9433 -1.0053  3.0861
  593MOL0     H78267   6.019  11.040   7.681 -0.5697  0.4820 -2.7610
  593MOL0     H78268   6.031  10.794   7.765 -2.1181  3.4743  1.7874
  593MOL0     H78269   5.930  10.759   7.628  0.1994  0.4866 -2.0794
  593MOL0     H78270   6.209  10.911   7.598  0.9476  2.9843 -5.1717
  593MOL0     H78271   6.107  10.850   7.468  1.2083  0.0520 -1.0557
  593MOL0     H78272   6.168  10.605   7.548  2.0062 -1.5242 -1.0987
  593MOL0     H78273   6.302  10.692   7.499 -0.8247  2.4997  0.1450
  593MOL0     H78274   6.389  10.705   7.917  2.1183 -1.6847  0.1398
  593MOL0     H78275   5.806  11.164   7.711  0.5785  0.1488  0.3157
  593MOL0     H78276   5.627  11.321   7.692 -0.4000 -0.3316  0.6745
  594MOL0     O78277   8.301   7.252   9.576 -0.4003 -0.2197  0.7003
  594MOL0     C78278   8.380   7.191   9.512 -0.1133  0.0074 -0.1989
  594MOL0     O78279   8.353   7.097   9.412 -0.2761 -0.1265  0.2410
  594MOL0     C78280   8.221   7.083   9.383  0.1985  0.3630 -0.5379
  594MOL0     C78281   8.146   6.997   9.466 -0.1214  0.1756  0.4801
  594MOL0     C78282   8.007   6.979   9.459 -0.2250 -0.3869  1.0740
  594MOL0     C78283   7.942   7.063   9.368 -0.2534  0.8063  0.2362
  594MOL0     O78284   7.802   7.041   9.365 -0.4903  0.3880  0.1334
  594MOL0     C78285   7.723   7.083   9.249 -0.1669 -0.2465 -0.2788
  594MOL0     C78286   7.579   7.081   9.266  0.2862  0.8236  0.5016
  594MOL0     C78287   7.487   7.087   9.142  0.2297  0.3077 -0.6215
  594MOL0     C78288   7.341   7.085   9.190  0.0921  0.6863 -0.0023
  594MOL0     C78289   7.250   7.104   9.075  0.1797 -0.1204  0.4609
  594MOL0     C78290   7.105   7.118   9.110  0.5452 -0.0505  0.8141
  594MOL0     C78291   7.063   7.246   9.178 -0.0691  0.1771  0.1475
  594MOL0     C78292   7.087   7.380   9.096  0.0935  0.0361  0.0680
  594MOL0     N78293   6.965   7.443   9.045 -0.3245  0.3844  0.0089
  594MOL0     C78294   6.863   7.502   9.118  0.2552 -0.4115  0.5419
  594MOL0     C78295   6.785   7.569   9.029 -0.6781  0.0790  0.7254
  594MOL0     C78296   6.663   7.652   9.058 -0.6191  0.6562 -0.6516
  594MOL0     C78297   6.719   7.791   9.061 -0.4368  0.0306 -0.0069
  594MOL0     C78298   6.796   7.825   9.196  0.0455  0.2159  0.7865
  594MOL0     C78299   6.799   7.973   9.219 -0.2032  0.0423  0.1237
  594MOL0     O78300   6.670   8.034   9.212  0.0127 -0.3417 -0.4366
  594MOL0     C78301   6.587   8.049   9.319  0.2691  0.1474 -0.7256
  594MOL0     C78302   6.462   8.104   9.289  0.3047 -0.4606 -0.1692
  594MOL0     C78303   6.372   8.116   9.393 -0.3907 -0.1345  0.6946
  594MOL0     C78304   6.403   8.073   9.523  1.3854 -0.3951  0.8050
  594MOL0     C78305   6.302   8.090   9.637 -0.1005 -0.4279 -0.9139
  594MOL0     O78306   6.180   8.159   9.602 -0.2261  0.1611  0.6304
  594MOL0     C78307   6.116   8.227   9.695 -0.3683 -0.4174  0.5367
  594MOL0     C78308   6.179   8.324   9.781  0.1389  0.2216 -0.5656
  594MOL0     C78309   6.102   8.407   9.859 -0.4491 -0.0655 -0.0336
  594MOL0     C78310   5.962   8.378   9.869  0.5030 -0.7732 -0.4217
  594MOL0     O78311   5.882   8.462   9.948  0.4677 -0.1180  0.1635
  594MOL0     C78312   5.799   8.544   9.866 -0.3641  0.4074 -0.0618
  594MOL0     C78313   5.693   8.626   9.931 -0.3847 -0.1130 -0.3343
  594MOL0     C78314   5.571   8.641   9.833 -0.0775  0.1751  0.7150
  594MOL0     C78315   5.454   8.713   9.919  0.0894  0.5547  0.4805
  594MOL0     C78316   5.304   8.683   9.866  0.7078  0.4159 -1.3926
  594MOL0     C78317   5.253   8.737   9.730 -0.8742  0.3776  0.9119
  594MOL0     C78318   5.278   8.886   9.708 -0.4889  0.2767 -0.4473
  594MOL0     C78319   5.206   8.947   9.585  0.0579  0.5363 -0.1544
  594MOL0    Cl78320   5.248   9.119   9.575 -0.4460 -0.1895 -0.5212
  594MOL0     C78321   5.901   8.278   9.794  0.3878 -0.2378 -0.5055
  594MOL0     C78322   5.972   8.211   9.697 -0.0214 -0.2523  0.9704
  594MOL0     O78323   6.345   8.070   9.753  0.8446 -0.2682 -0.1327
  594MOL0     C78324   6.524   8.020   9.546 -0.5290  0.7296 -0.0589
  594MOL0     C78325   6.616   7.999   9.444 -0.5358  0.5588  0.2653
  594MOL0     N78326   6.848   7.554   8.903 -0.0861 -0.2962 -0.2541
  594MOL0     N78327   6.949   7.474   8.912 -0.0727 -0.3877  0.3333
  594MOL0     C78328   8.011   7.148   9.286 -0.3190 -0.2452  0.5392
  594MOL0     C78329   8.152   7.163   9.298  0.5172  0.8198  0.2459
  594MOL0     C78330   8.521   7.220   9.541 -0.3259 -0.1219  0.2368
  594MOL0     C78331   8.626   7.187   9.458 -0.2938 -0.9091  0.7836
  594MOL0     C78332   8.755   7.207   9.490  0.4107  0.0376 -0.2717
  594MOL0     C78333   8.785   7.252   9.614 -0.3064 -0.5682  0.5015
  594MOL0     O78334   8.914   7.280   9.636  0.1092 -0.7091 -0.7689
  594MOL0     C78335   8.979   7.149   9.671  0.1226 -0.0072 -0.3163
  594MOL0     C78336   9.129   7.181   9.679  0.3182  0.2239  0.6922
  594MOL0     C78337   9.151   7.243   9.825  0.1501 -0.0393  0.0108
  594MOL0     C78338   9.295   7.233   9.867 -1.0199  0.6854  0.0923
  594MOL0     C78339   9.334   7.089   9.904  0.8411  0.1904  0.0617
  594MOL0     C78340   9.368   6.973   9.925 -0.2518 -0.2348 -0.2906
  594MOL0     C78341   8.688   7.299   9.705 -0.2163  0.5868  0.3098
  594MOL0     C78342   8.556   7.274   9.670 -0.5127  0.4777 -0.6780
  594MOL0     H78343   8.200   6.947   9.547 -0.9592 -0.8441  0.4305
  594MOL0     H78344   7.952   6.915   9.527 -0.9919 -0.9476 -0.0348
  594MOL0     H78345   7.742   7.010   9.170  2.9390 -0.7982  0.8354
  594MOL0     H78346   7.749   7.184   9.215 -3.8455  1.0939  0.3689
  594MOL0     H78347   7.544   7.149   9.345 -3.3317  0.8354 -0.9216
  594MOL0     H78348   7.568   6.981   9.309 -0.0991  1.3105  1.5803
  594MOL0     H78349   7.508   6.999   9.082  3.2984  2.8873 -3.7519
  594MOL0     H78350   7.498   7.181   9.088  1.7556  1.3750  1.3999
  594MOL0     H78351   7.318   6.986   9.231 -0.1916  0.4683 -0.6615
  594MOL0     H78352   7.325   7.163   9.264  1.8727  0.7966  0.3234
  594MOL0     H78353   7.250   7.021   9.004  0.6555 -1.3352  1.8256
  594MOL0     H78354   7.283   7.194   9.022 -0.2176  0.7658  1.6578
  594MOL0     H78355   7.083   7.033   9.176 -0.6519  0.0645  0.5860
  594MOL0     H78356   7.039   7.114   9.023 -0.1780  1.8891  1.2083
  594MOL0     H78357   6.958   7.236   9.208  0.9202 -0.4510  3.8499
  594MOL0     H78358   7.110   7.251   9.277 -0.0181 -2.3514  0.3241
  594MOL0     H78359   7.158   7.374   9.012 -0.5671  3.8935 -0.9544
  594MOL0     H78360   7.125   7.459   9.161 -0.2757  2.8451 -2.8844
  594MOL0     H78361   6.860   7.512   9.226 -0.5472  0.4134  0.4577
  594MOL0     H78362   6.615   7.630   9.154 -2.7576 -0.9644 -2.0213
  594MOL0     H78363   6.585   7.653   8.981 -1.7771  1.5698  0.4812
  594MOL0     H78364   6.640   7.865   9.044 -0.3691  0.3038  0.8138
  594MOL0     H78365   6.783   7.815   8.976 -2.1388  1.8257 -0.8594
  594MOL0     H78366   6.751   7.780   9.285  0.5285  1.2599  1.5938
  594MOL0     H78367   6.902   7.799   9.184  0.8089  3.8960 -3.2229
  594MOL0     H78368   6.863   8.013   9.140  1.0481 -2.8201 -0.4601
  594MOL0     H78369   6.855   7.990   9.311 -0.8768  1.5617  0.2831
  594MOL0     H78370   6.437   8.142   9.190 -1.0647  1.3768  0.8289
  594MOL0     H78371   6.276   8.159   9.369  1.8899  4.3951 -1.5358
  594MOL0     H78372   6.287   8.331   9.771  0.2197 -1.3703 -0.9445
  594MOL0     H78373   6.163   8.471   9.922  0.1966 -0.6264 -0.0757
  594MOL0     H78374   5.750   8.480   9.793  0.4929 -1.9100  1.2824
  594MOL0     H78375   5.860   8.615   9.810 -1.2052  0.1446 -1.3331
  594MOL0     H78376   5.739   8.721   9.958  1.3101 -1.2651  1.1350
  594MOL0     H78377   5.669   8.583  10.028  2.6012  0.3301  0.7071
  594MOL0     H78378   5.544   8.543   9.792  0.9780  0.6896 -1.3645
  594MOL0     H78379   5.593   8.709   9.750 -0.9249 -1.2428 -0.7353
  594MOL0     H78380   5.461   8.685  10.024  2.3999  3.6445  1.2953
  594MOL0     H78381   5.464   8.822   9.910 -3.7393  0.9715 -0.7907
  594MOL0     H78382   5.229   8.699   9.944  2.0461  0.3179 -0.0256
  594MOL0     H78383   5.301   8.576   9.846  1.5903  0.1709 -0.3299
  594MOL0     H78384   5.146   8.715   9.724 -1.3958  3.0258 -1.6389
  594MOL0     H78385   5.308   8.688   9.649 -1.4864  0.1877  0.5991
  594MOL0     H78386   5.247   8.935   9.801  0.7272 -0.1469  0.1966
  594MOL0     H78387   5.383   8.914   9.702 -1.4528  5.0235  1.0597
  594MOL0     H78388   5.097   8.943   9.589  0.0816  0.1354  0.1795
  594MOL0     H78389   5.251   8.884   9.507 -1.2764  0.2720 -0.7435
  594MOL0     H78390   5.795   8.267   9.812  0.5149 -0.8700 -0.0725
  594MOL0     H78391   5.923   8.144   9.627  0.7557 -0.6702  0.8158
  594MOL0     H78392   6.552   7.985   9.644 -1.8856 -0.5771 -0.1020
  594MOL0     H78393   6.710   7.949   9.464 -0.2851  0.1176 -1.7832
  594MOL0     H78394   7.953   7.205   9.214 -0.9546 -1.5893 -0.0492
  594MOL0     H78395   8.205   7.235   9.236  1.1572 -0.6327 -0.9657
  594MOL0     H78396   8.597   7.148   9.361  0.8911 -1.3547  0.5952
  594MOL0     H78397   8.839   7.189   9.424  0.1544 -0.3712 -0.4874
  594MOL0     H78398   8.955   7.073   9.595 -0.2235 -1.3519  1.0862
  594MOL0     H78399   8.944   7.105   9.765 -2.1770  0.9960 -0.6438
  594MOL0     H78400   9.191   7.091   9.676 -0.9973 -0.7340  1.1757
  594MOL0     H78401   9.149   7.246   9.594 -0.2966 -0.2344  0.1901
  594MOL0     H78402   9.085   7.196   9.898 -2.4707 -2.2868 -3.4597
  594MOL0     H78403   9.131   7.351   9.827 -0.6390 -0.1934  1.0329
  594MOL0     H78404   9.368   7.255   9.789 -1.5667 -1.7919 -1.1955
  594MOL0     H78405   9.314   7.295   9.956  1.2473  2.8239 -1.7313
  594MOL0     H78406   9.396   6.876   9.962  1.8515  0.7391  0.9120
  594MOL0     H78407   8.706   7.357   9.795  1.3709  1.9961 -0.8467
  594MOL0     H78408   8.474   7.293   9.740 -0.4522  0.8513 -0.7064
  595MOL0     O78409   5.484   7.121   1.452  0.0352 -0.2837  0.0718
  595MOL0     C78410   5.392   7.110   1.375  0.2192 -0.0544 -0.2826
  595MOL0     O78411   5.378   7.022   1.268  0.2839  0.0682  0.4448
  595MOL0     C78412   5.465   6.929   1.229 -0.6866 -0.4063 -0.8853
  595MOL0     C78413   5.604   6.941   1.233  0.5550 -0.0538  0.0753
  595MOL0     C78414   5.692   6.845   1.175 -0.1790 -0.0125  0.8506
  595MOL0     C78415   5.643   6.726   1.118  0.6488  0.5069 -0.0703
  595MOL0     O78416   5.723   6.622   1.070  0.3420 -0.3955  0.4853
  595MOL0     C78417   5.845   6.659   1.014  0.1714  2.1876  0.2682
  595MOL0     C78418   5.899   6.540   0.939  0.9734 -0.0028 -0.2615
  595MOL0     C78419   5.982   6.579   0.829 -0.9139 -0.2247 -0.0821
  595MOL0     C78420   6.128   6.636   0.850  0.3912 -0.7951 -0.2489
  595MOL0     C78421   6.221   6.533   0.901  0.1704  1.3085  0.1464
  595MOL0     C78422   6.274   6.428   0.799  0.7965 -0.4489  0.2983
  595MOL0     C78423   6.377   6.339   0.864 -0.6549  0.5524 -0.2346
  595MOL0     C78424   6.430   6.237   0.765  0.6240  0.9076  0.4542
  595MOL0     N78425   6.325   6.165   0.694  0.5159 -1.6331 -0.6617
  595MOL0     C78426   6.221   6.101   0.756 -0.4101 -0.1446  0.1491
  595MOL0     C78427   6.157   6.035   0.655 -1.0020  0.3404  0.7502
  595MOL0     C78428   6.029   5.948   0.671  0.1336  0.4083  0.3140
  595MOL0     C78429   5.895   6.021   0.678 -0.6066  0.3803 -0.7533
  595MOL0     C78430   5.899   6.120   0.796  0.4844 -0.0619  0.8435
  595MOL0     C78431   5.775   6.187   0.848 -0.5356 -0.2361  0.3337
  595MOL0     O78432   5.741   6.285   0.743  0.2708 -0.6128  0.0613
  595MOL0     C78433   5.619   6.353   0.753  0.3386 -0.3187 -0.0473
  595MOL0     C78434   5.523   6.342   0.849  0.6844 -0.5870  0.1798
  595MOL0     C78435   5.400   6.414   0.845 -0.3525  1.2284 -0.0750
  595MOL0     C78436   5.372   6.506   0.739 -0.7303 -0.2104 -0.2589
  595MOL0     C78437   5.242   6.569   0.722  0.2686  0.5911 -0.4359
  595MOL0     O78438   5.188   6.616   0.835 -0.1776  0.5602 -0.5548
  595MOL0     C78439   5.053   6.607   0.840 -0.3073  0.1471 -0.1225
  595MOL0     C78440   4.983   6.725   0.848 -0.5082 -0.7981 -0.4054
  595MOL0     C78441   4.844   6.727   0.848  0.3110  0.1502 -0.8266
  595MOL0     C78442   4.773   6.605   0.827 -0.6712  0.7222  0.3920
  595MOL0     O78443   4.634   6.608   0.833  0.4461 -0.9061  0.6945
  595MOL0     C78444   4.558   6.497   0.811  0.8381  0.3711 -0.5181
  595MOL0     C78445   4.407   6.529   0.801  0.4653 -0.5978  1.3351
  595MOL0     C78446   4.369   6.641   0.895 -0.1223 -0.0355 -0.4027
  595MOL0     C78447   4.217   6.650   0.908  0.1407  0.5232 -0.0457
  595MOL0     C78448   4.174   6.749   1.011  0.2933  0.1476 -0.8558
  595MOL0     C78449   4.021   6.777   0.996 -0.4102  0.3673  0.2909
  595MOL0     C78450   3.928   6.664   1.019 -1.1381  0.1943 -0.3178
  595MOL0     C78451   3.789   6.691   0.961 -1.0582 -0.1629 -0.1875
  595MOL0    Cl78452   3.728   6.858   0.964  0.3824  0.1072  0.5398
  595MOL0     C78453   4.850   6.483   0.823  0.1593 -1.1057  0.0845
  595MOL0     C78454   4.989   6.486   0.822  0.5165 -0.1698  0.1958
  595MOL0     O78455   5.191   6.581   0.614  0.8859 -0.5511  0.1963
  595MOL0     C78456   5.470   6.506   0.635 -0.3779  0.5985 -0.1698
  595MOL0     C78457   5.585   6.437   0.647  0.4545  0.3113 -0.2355
  595MOL0     N78458   6.206   6.091   0.543 -0.1682 -0.0127 -0.4627
  595MOL0     N78459   6.307   6.169   0.564  0.1216 -1.2131  0.0842
  595MOL0     C78460   5.498   6.715   1.109 -0.0629 -0.1957 -0.7191
  595MOL0     C78461   5.416   6.815   1.176 -0.4407  0.8288  0.4714
  595MOL0     C78462   5.267   7.175   1.426  0.1465  1.0149 -0.5442
  595MOL0     C78463   5.145   7.104   1.445  0.1674 -1.1269  0.2737
  595MOL0     C78464   5.030   7.172   1.471  0.1442 -0.8776 -0.2689
  595MOL0     C78465   5.031   7.315   1.486  1.0423  1.0662 -1.0350
  595MOL0     O78466   4.901   7.371   1.511 -0.3099 -0.4320  0.0168
  595MOL0     C78467   4.887   7.514   1.504 -0.0727  0.2173  0.1760
  595MOL0     C78468   4.747   7.524   1.443  1.2878 -0.1129 -0.5413
  595MOL0     C78469   4.666   7.651   1.467 -0.3720  0.3264 -0.0240
  595MOL0     C78470   4.623   7.685   1.618  0.2315  0.4925 -0.5227
  595MOL0     C78471   4.567   7.820   1.617  0.3402  0.7338  1.1140
  595MOL0     C78472   4.508   7.924   1.603  0.8026  0.3071  0.6685
  595MOL0     C78473   5.157   7.381   1.488  0.7766  0.1221  0.4458
  595MOL0     C78474   5.276   7.311   1.452 -0.1336 -0.6601  0.0169
  595MOL0     H78475   5.638   7.036   1.275 -1.1221 -0.5316  2.7534
  595MOL0     H78476   5.796   6.875   1.167 -0.8167  1.9796 -0.5172
  595MOL0     H78477   5.913   6.693   1.093  0.8345  3.5350 -0.8429
  595MOL0     H78478   5.837   6.742   0.944  0.0238 -0.4985 -3.1810
  595MOL0     H78479   5.821   6.475   0.898  2.8850 -2.1073 -0.7434
  595MOL0     H78480   5.963   6.481   1.006 -0.3134  0.9294  1.9105
  595MOL0     H78481   5.927   6.645   0.761  2.4554 -0.4530 -3.4140
  595MOL0     H78482   5.996   6.499   0.756 -0.7407  0.3671 -0.7127
  595MOL0     H78483   6.172   6.670   0.756 -1.1314 -0.5466 -0.8957
  595MOL0     H78484   6.126   6.714   0.927 -0.7965 -1.8536  0.8411
  595MOL0     H78485   6.180   6.480   0.988  0.6368  2.5418  1.1541
  595MOL0     H78486   6.306   6.595   0.932  3.8066 -3.1650  0.1863
  595MOL0     H78487   6.314   6.474   0.709 -3.9983  0.0659 -1.8804
  595MOL0     H78488   6.181   6.383   0.763 -0.6034  1.5010  1.3059
  595MOL0     H78489   6.463   6.392   0.906  0.5891 -1.4078 -0.1599
  595MOL0     H78490   6.328   6.291   0.950 -3.0462 -1.2238 -2.4357
  595MOL0     H78491   6.493   6.167   0.820  0.5243  0.8104  0.4461
  595MOL0     H78492   6.492   6.298   0.698 -3.6919  1.8294 -3.2291
  595MOL0     H78493   6.211   6.097   0.864  0.0589 -2.8921  0.1482
  595MOL0     H78494   6.036   5.879   0.755 -0.3378  0.2075  0.1918
  595MOL0     H78495   6.022   5.882   0.584  2.5030  0.4442  0.0140
  595MOL0     H78496   5.812   5.955   0.705  0.9864 -0.8377  1.5727
  595MOL0     H78497   5.866   6.066   0.583 -2.9442  1.8986  0.5933
  595MOL0     H78498   5.938   6.064   0.881  2.8169  1.5748  0.9317
  595MOL0     H78499   5.961   6.209   0.785 -0.0818  0.2084 -0.2679
  595MOL0     H78500   5.788   6.229   0.948  2.2513 -4.7653  2.1593
  595MOL0     H78501   5.699   6.110   0.861  2.5025 -3.6996 -0.7531
  595MOL0     H78502   5.542   6.295   0.945 -0.9135  0.2383  0.9406
  595MOL0     H78503   5.329   6.401   0.926  0.8058  0.3876  0.8325
  595MOL0     H78504   5.031   6.821   0.867 -0.0164 -0.4180 -3.0886
  595MOL0     H78505   4.794   6.820   0.873  0.6778 -0.5991  3.6704
  595MOL0     H78506   4.581   6.438   0.899 -1.9322  0.2448  0.2207
  595MOL0     H78507   4.575   6.440   0.718  0.8718 -2.1270  0.9239
  595MOL0     H78508   4.353   6.438   0.832  1.8426 -0.4695  4.4098
  595MOL0     H78509   4.374   6.545   0.698  0.2362 -1.4455  1.2654
  595MOL0     H78510   4.410   6.735   0.858 -0.6461  0.1751 -0.4634
  595MOL0     H78511   4.406   6.628   0.997 -3.4926  2.5527  1.3489
  595MOL0     H78512   4.168   6.669   0.812 -0.7715  3.2200  0.8718
  595MOL0     H78513   4.187   6.550   0.942 -0.0565  0.4459 -0.4441
  595MOL0     H78514   4.224   6.846   1.003  1.2649 -0.3149 -0.5974
  595MOL0     H78515   4.193   6.707   1.111 -1.1692 -0.8382 -0.9659
  595MOL0     H78516   3.997   6.798   0.892 -1.2513 -0.2612  0.3488
  595MOL0     H78517   4.008   6.853   1.074  0.1471 -1.5662  2.3865
  595MOL0     H78518   3.966   6.569   0.979 -2.7313  0.8568 -3.8309
  595MOL0     H78519   3.911   6.661   1.127  0.8926 -0.1355  0.0254
  595MOL0     H78520   3.718   6.621   1.006 -0.5964 -1.2361 -1.0623
  595MOL0     H78521   3.794   6.666   0.854 -0.4734  1.8515 -0.6781
  595MOL0     H78522   4.795   6.390   0.838 -1.6472  0.1540  1.8637
  595MOL0     H78523   5.042   6.391   0.826 -3.5969 -2.8202 -1.2257
  595MOL0     H78524   5.448   6.564   0.546 -3.0513 -1.4629 -1.0118
  595MOL0     H78525   5.655   6.458   0.567  0.8557 -1.1646 -0.2941
  595MOL0     H78526   5.451   6.624   1.077 -3.2537  0.4243  1.7113
  595MOL0     H78527   5.308   6.802   1.175 -0.1745 -2.2992 -1.1654
  595MOL0     H78528   5.135   6.996   1.446  0.3572 -1.1599 -0.8577
  595MOL0     H78529   4.930   7.130   1.471 -0.1647 -0.2127  1.3186
  595MOL0     H78530   4.964   7.564   1.444  1.4944 -1.6036  0.5730
  595MOL0     H78531   4.899   7.565   1.601  1.4649  1.1292 -0.4491
  595MOL0     H78532   4.758   7.503   1.336 -1.5292  0.5480 -1.0318
  595MOL0     H78533   4.686   7.448   1.492  0.0455  2.5084  2.3233
  595MOL0     H78534   4.577   7.644   1.404 -3.2437  3.3461  3.2224
  595MOL0     H78535   4.734   7.730   1.433  3.1802 -2.3518  0.3085
  595MOL0     H78536   4.549   7.617   1.660 -1.4677  3.0734  0.9869
  595MOL0     H78537   4.714   7.676   1.677 -2.4884 -0.3356  3.9924
  595MOL0     H78538   4.442   8.006   1.583  0.0403 -1.0892 -3.4264
  595MOL0     H78539   5.164   7.488   1.501  0.0269  0.7289 -3.1233
  595MOL0     H78540   5.362   7.375   1.438 -0.9924  0.6621  0.5530
  596MOL0     O78541   7.408  10.344   7.665 -0.4725 -0.5760 -0.2680
  596MOL0     C78542   7.497  10.256   7.691 -0.3989 -0.1542  0.1627
  596MOL0     O78543   7.478  10.148   7.762  0.1027  0.6953  0.6771
  596MOL0     C78544   7.349  10.119   7.803  0.2278 -0.2400  0.8457
  596MOL0     C78545   7.234  10.114   7.723 -0.2109 -0.7078 -0.1503
  596MOL0     C78546   7.111  10.072   7.778  0.0598  0.2214  0.6198
  596MOL0     C78547   7.108  10.006   7.906  0.3546 -0.2137 -0.2113
  596MOL0     O78548   6.990   9.951   7.954 -0.0051 -0.3175  0.2262
  596MOL0     C78549   6.873   9.979   7.886 -0.2010 -0.1347 -0.1748
  596MOL0     C78550   6.755   9.953   7.982  0.5521 -0.0185 -0.8164
  596MOL0     C78551   6.621   9.977   7.915  0.7203  0.4645  0.3212
  596MOL0     C78552   6.489   9.922   7.981  0.0542  0.2646  0.5606
  596MOL0     C78553   6.370   9.941   7.882  0.2511 -0.5207 -0.0547
  596MOL0     C78554   6.247   9.916   7.962  0.4712 -0.6191  0.6084
  596MOL0     C78555   6.138   9.946   7.856 -0.1702  0.4893  0.4610
  596MOL0     C78556   6.001   9.898   7.908 -0.4201  0.2845 -0.7893
  596MOL0     N78557   5.897   9.948   7.829 -0.0917 -0.0332  0.5098
  596MOL0     C78558   5.832  10.066   7.848  0.6107 -0.1728 -0.6294
  596MOL0     C78559   5.753  10.073   7.735  0.2519 -0.1906  0.1460
  596MOL0     C78560   5.658  10.183   7.710 -0.1026 -0.5709  0.2199
  596MOL0     C78561   5.520  10.126   7.724  0.0324  0.9320  0.0807
  596MOL0     C78562   5.480  10.071   7.864 -0.5268 -0.0780 -1.1482
  596MOL0     C78563   5.335  10.022   7.854 -0.5380 -0.2116  0.4319
  596MOL0     O78564   5.273   9.961   7.969  0.2934 -0.2104  0.2931
  596MOL0     C78565   5.196  10.035   8.061 -0.1852  0.2748  0.1582
  596MOL0     C78566   5.123   9.963   8.157  0.6228  0.2705  0.1235
  596MOL0     C78567   5.021  10.029   8.228  1.2007  0.5920  0.2257
  596MOL0     C78568   4.999  10.165   8.229  0.5008 -0.6290  0.9483
  596MOL0     C78569   4.896  10.225   8.316  0.1808  1.2810  0.3139
  596MOL0     O78570   4.906  10.359   8.343 -0.0445 -0.1383  0.8082
  596MOL0     C78571   4.791  10.405   8.396 -0.5175 -0.1096  0.1901
  596MOL0     C78572   4.790  10.442   8.536 -0.4994  0.0218  0.9424
  596MOL0     C78573   4.675  10.474   8.600  0.3906  1.2171 -0.1821
  596MOL0     C78574   4.547  10.471   8.531 -0.0905  0.1403  0.4288
  596MOL0     O78575   4.427  10.502   8.584  0.0817 -1.0755  0.2785
  596MOL0     C78576   4.407  10.549   8.722 -0.8358 -0.4182  0.8313
  596MOL0     C78577   4.276  10.618   8.754  0.5487  0.2143  0.9409
  596MOL0     C78578   4.280  10.688   8.886  0.2432  0.0516 -1.0012
  596MOL0     C78579   4.158  10.776   8.906 -0.7545  0.6624  0.4059
  596MOL0     C78580   4.140  10.827   9.041 -0.1689  0.9295 -0.4758
  596MOL0     C78581   4.059  10.731   9.130  0.0246  0.0398  0.1702
  596MOL0     C78582   4.005  10.801   9.258  0.4730 -0.4856  0.2266
  596MOL0     C78583   4.112  10.842   9.356  0.5668  0.2999 -0.3486
  596MOL0    Cl78584   4.227  10.715   9.411  0.3798  0.1811 -0.0383
  596MOL0     C78585   4.556  10.451   8.394  0.1461 -0.3334 -0.8524
  596MOL0     C78586   4.674  10.421   8.325  0.8633 -1.5792 -0.4104
  596MOL0     O78587   4.818  10.149   8.374 -1.0920  0.3852  0.7912
  596MOL0     C78588   5.071  10.238   8.134 -0.1015  0.5229  1.0066
  596MOL0     C78589   5.170  10.175   8.053 -0.5673  0.8358 -0.6765
  596MOL0     N78590   5.774   9.957   7.654 -0.6330 -0.2004  0.9219
  596MOL0     N78591   5.864   9.879   7.716  0.1331  0.2912  0.6191
  596MOL0     C78592   7.226   9.988   7.976  0.3410 -1.0506  0.0343
  596MOL0     C78593   7.344  10.054   7.928  0.2154 -0.2252 -0.1198
  596MOL0     C78594   7.637  10.285   7.651 -0.2052 -0.0206 -0.6614
  596MOL0     C78595   7.742  10.199   7.697 -0.7849  0.7122  0.0483
  596MOL0     C78596   7.873  10.238   7.664 -0.5486  0.3578 -0.8179
  596MOL0     C78597   7.902  10.347   7.583 -0.2496 -0.8276 -1.2804
  596MOL0     O78598   8.032  10.377   7.566  0.4395  0.0307  0.3945
  596MOL0     C78599   8.071  10.402   7.432 -0.9010 -0.1752  0.6240
  596MOL0     C78600   8.222  10.419   7.416  0.0541  0.2627 -0.1037
  596MOL0     C78601   8.292  10.500   7.529  0.4439  1.2110 -0.0149
  596MOL0     C78602   8.295  10.658   7.503 -0.6125 -0.0057 -0.6363
  596MOL0     C78603   8.430  10.679   7.443 -0.1368  0.1843  0.4168
  596MOL0     C78604   8.530  10.697   7.377  0.3203  0.6751  0.4104
  596MOL0     C78605   7.803  10.425   7.529 -0.1201 -0.4415 -1.2032
  596MOL0     C78606   7.668  10.396   7.569  0.0611 -0.1756  0.3703
  596MOL0     H78607   7.234  10.160   7.625 -2.6710 -1.8399 -0.7648
  596MOL0     H78608   7.029  10.069   7.707  0.1274 -0.2951  0.5577
  596MOL0     H78609   6.866   9.903   7.807 -0.3488 -0.4202  0.1135
  596MOL0     H78610   6.881  10.081   7.846 -0.6824 -0.1176 -0.2357
  596MOL0     H78611   6.761  10.025   8.063  1.6759 -3.0856  2.0302
  596MOL0     H78612   6.756   9.849   8.017  0.3587 -0.1249 -1.1160
  596MOL0     H78613   6.629   9.928   7.818  1.2324  0.0670  0.5590
  596MOL0     H78614   6.617  10.085   7.901  4.1481  0.8351  1.1312
  596MOL0     H78615   6.494   9.815   8.004  0.1257 -0.2159 -1.4923
  596MOL0     H78616   6.470   9.969   8.078 -0.3411 -2.9655  2.1664
  596MOL0     H78617   6.391   9.858   7.814  0.4839  1.0837 -2.0520
  596MOL0     H78618   6.371  10.034   7.824 -1.4023 -1.0836 -1.0506
  596MOL0     H78619   6.236   9.982   8.049  0.4415 -1.6071  1.3592
  596MOL0     H78620   6.243   9.811   7.991 -3.0631 -0.6648  0.3897
  596MOL0     H78621   6.147  10.050   7.823  3.7445  0.7083  1.6877
  596MOL0     H78622   6.158   9.898   7.759 -0.4611  0.4350  0.4252
  596MOL0     H78623   5.978   9.942   8.006 -1.0791 -1.4967 -0.1065
  596MOL0     H78624   6.005   9.789   7.916  1.3890  0.3551 -0.4009
  596MOL0     H78625   5.833  10.131   7.936 -2.0259 -2.6432  1.4336
  596MOL0     H78626   5.681  10.220   7.610 -1.3980  2.9026  1.0435
  596MOL0     H78627   5.667  10.271   7.776  0.3506 -3.0880  3.8234
  596MOL0     H78628   5.505  10.041   7.657  0.1823  0.4413  0.6648
  596MOL0     H78629   5.452  10.207   7.697 -1.4745 -0.4502 -0.4526
  596MOL0     H78630   5.550   9.988   7.882  2.1163  1.6116 -2.9655
  596MOL0     H78631   5.492  10.139   7.949  0.2396 -1.6947  0.1034
  596MOL0     H78632   5.340   9.946   7.776  0.5407 -0.0898  0.3691
  596MOL0     H78633   5.272  10.099   7.809 -3.3906 -3.3150 -1.4238
  596MOL0     H78634   5.141   9.856   8.157  0.0182  0.1673 -0.1861
  596MOL0     H78635   4.965   9.965   8.296  1.4453  0.3017  0.1578
  596MOL0     H78636   4.882  10.443   8.593 -1.2754  0.3785  2.2449
  596MOL0     H78637   4.671  10.495   8.707 -1.3330  0.3231 -0.0409
  596MOL0     H78638   4.480  10.627   8.742 -1.9978  0.0976  3.4740
  596MOL0     H78639   4.424  10.458   8.779  1.2151 -1.5353 -1.3726
  596MOL0     H78640   4.201  10.538   8.751  2.5673 -1.8351  1.8382
  596MOL0     H78641   4.272  10.693   8.675 -3.8830  0.1611  0.8468
  596MOL0     H78642   4.364  10.758   8.892 -0.8864  1.5193 -1.8234
  596MOL0     H78643   4.277  10.614   8.966  0.3739  0.7451 -0.3410
  596MOL0     H78644   4.157  10.858   8.833 -2.1133  0.5193  0.2354
  596MOL0     H78645   4.071  10.719   8.872  0.7771 -0.7897 -1.2923
  596MOL0     H78646   4.083  10.919   9.024 -1.6572  0.1089 -0.0975
  596MOL0     H78647   4.235  10.849   9.091  0.1441  0.2466 -0.7607
  596MOL0     H78648   4.127  10.646   9.136 -0.1226 -0.3035 -2.2133
  596MOL0     H78649   3.967  10.695   9.083 -1.6731  0.7146  2.7539
  596MOL0     H78650   3.950  10.893   9.235 -1.4294 -1.4840  0.5969
  596MOL0     H78651   3.924  10.741   9.302  1.4654 -0.6413  1.8967
  596MOL0     H78652   4.064  10.873   9.449 -0.5348 -0.9245 -0.4576
  596MOL0     H78653   4.172  10.919   9.309  1.6332  0.6410  1.4890
  596MOL0     H78654   4.468  10.468   8.333 -0.5847  1.2412  0.5657
  596MOL0     H78655   4.678  10.402   8.218  1.7785  0.4329 -0.7829
  596MOL0     H78656   5.074  10.347   8.125 -0.5254  0.4789  0.2738
  596MOL0     H78657   5.230  10.228   7.979  0.8340 -0.2011 -0.3260
  596MOL0     H78658   7.228   9.930   8.068 -1.3887  0.8146  1.3210
  596MOL0     H78659   7.427  10.058   7.998  0.7387 -1.0925 -0.6775
  596MOL0     H78660   7.729  10.105   7.750  1.0726 -0.1764 -0.9664
  596MOL0     H78661   7.961  10.186   7.698  1.1828  3.1274 -0.7497
  596MOL0     H78662   8.021  10.487   7.386 -0.7929 -0.8124 -0.7139
  596MOL0     H78663   8.044  10.314   7.373  2.4043 -0.1354 -1.1742
  596MOL0     H78664   8.269  10.320   7.420  0.7153  0.6186  1.3061
  596MOL0     H78665   8.247  10.461   7.318  1.2331  2.1554  0.9616
  596MOL0     H78666   8.397  10.471   7.532  0.5575  0.9632 -2.9041
  596MOL0     H78667   8.235  10.473   7.618  0.3466 -5.5750 -1.5887
  596MOL0     H78668   8.210  10.696   7.447  0.0688 -1.0943 -2.4930
  596MOL0     H78669   8.297  10.721   7.593 -1.8644 -0.6313 -0.1503
  596MOL0     H78670   8.627  10.704   7.331 -0.6140 -2.3935 -2.3868
  596MOL0     H78671   7.855  10.515   7.496  3.5184 -1.3493  1.3390
  596MOL0     H78672   7.602  10.471   7.527  1.0653 -0.6276 -2.2396
  597MOL0     O78673   7.950   5.725   1.725  0.3413 -0.2114 -0.4652
  597MOL0     C78674   7.886   5.826   1.725  0.3611 -0.7796 -0.2519
  597MOL0     O78675   7.762   5.841   1.777 -0.3530 -0.7551 -0.2023
  597MOL0     C78676   7.706   5.732   1.830 -0.2722  0.0178 -0.0280
  597MOL0     C78677   7.680   5.615   1.757  0.2474  0.5960 -0.1257
  597MOL0     C78678   7.619   5.505   1.809  0.0780 -0.0637  0.6844
  597MOL0     C78679   7.596   5.502   1.949  0.5769  0.4871  0.7194
  597MOL0     O78680   7.531   5.391   1.998 -0.4892 -0.7094  0.4990
  597MOL0     C78681   7.622   5.278   2.026 -0.2952  0.3712 -0.3735
  597MOL0     C78682   7.534   5.166   2.078 -0.5478 -0.3080  0.3200
  597MOL0     C78683   7.451   5.106   1.967  1.4195  0.8404  0.3222
  597MOL0     C78684   7.342   5.000   2.024  0.2841 -0.9494 -0.1525
  597MOL0     C78685   7.232   4.951   1.927 -0.1494 -0.4065 -0.0634
  597MOL0     C78686   7.282   4.857   1.817 -0.0445 -1.0355  0.4936
  597MOL0     C78687   7.331   4.719   1.860  0.2325  0.4206 -0.6414
  597MOL0     C78688   7.325   4.614   1.754 -0.3018  0.6767 -0.4362
  597MOL0     N78689   7.195   4.555   1.719 -0.6877 -0.1808 -0.2065
  597MOL0     C78690   7.132   4.575   1.600 -0.1887  0.5732  0.0249
  597MOL0     C78691   7.012   4.504   1.612 -0.0987 -0.1548  0.2014
  597MOL0     C78692   6.902   4.501   1.506  0.1439  0.4422 -0.2619
  597MOL0     C78693   6.809   4.614   1.536 -0.4554 -0.2996 -0.3169
  597MOL0     C78694   6.708   4.640   1.417 -0.5128 -0.0382 -0.3488
  597MOL0     C78695   6.772   4.712   1.294  0.2067 -0.0414 -0.8513
  597MOL0     O78696   6.782   4.856   1.313 -0.6632 -0.3843  0.2255
  597MOL0     C78697   6.894   4.915   1.364 -0.5135 -0.6678  1.0886
  597MOL0     C78698   6.881   5.054   1.379 -0.1827 -0.6944  0.5258
  597MOL0     C78699   6.980   5.141   1.432 -0.6786 -0.2352  0.0378
  597MOL0     C78700   7.110   5.088   1.466  0.1805  0.2537 -0.3878
  597MOL0     C78701   7.216   5.179   1.522 -0.9177  0.7059  0.8970
  597MOL0     O78702   7.192   5.314   1.509 -0.4010  0.7051 -0.6078
  597MOL0     C78703   7.312   5.383   1.475  0.2359 -0.0310  0.7689
  597MOL0     C78704   7.398   5.351   1.368  0.4410 -1.1154 -0.0130
  597MOL0     C78705   7.502   5.436   1.326 -0.0036 -0.1777 -0.0479
  597MOL0     C78706   7.525   5.552   1.408 -0.2902 -0.1523 -0.3068
  597MOL0     O78707   7.612   5.650   1.379  0.2292  0.0839  0.2031
  597MOL0     C78708   7.681   5.625   1.259 -0.4882 -0.0267  0.2873
  597MOL0     C78709   7.771   5.748   1.212  0.0910  0.3072  0.3083
  597MOL0     C78710   7.679   5.860   1.153 -0.2753  0.5439  0.4483
  597MOL0     C78711   7.750   5.951   1.059 -0.5475  0.5220 -0.3433
  597MOL0     C78712   7.871   6.013   1.133 -1.2519  0.1981  0.6728
  597MOL0     C78713   7.952   6.089   1.034  0.4575  0.0965  0.2044
  597MOL0     C78714   8.062   6.181   1.096 -0.2442  0.1140  0.7735
  597MOL0     C78715   8.187   6.102   1.144  0.3173  0.2443  0.4596
  597MOL0    Cl78716   8.306   6.048   1.033  0.2203  0.0483 -0.0214
  597MOL0     C78717   7.448   5.572   1.532 -0.4171  0.8472  0.4107
  597MOL0     C78718   7.339   5.492   1.555  0.0526  0.2039  0.4418
  597MOL0     O78719   7.312   5.121   1.576  0.1000  0.9094  0.0356
  597MOL0     C78720   7.121   4.944   1.456 -0.1425 -0.7431  0.3915
  597MOL0     C78721   7.014   4.858   1.401  0.3414 -0.2258  0.4230
  597MOL0     N78722   7.010   4.441   1.735  0.4101 -0.3964 -0.2693
  597MOL0     N78723   7.117   4.478   1.804  0.0118 -0.9428 -0.0117
  597MOL0     C78724   7.621   5.610   2.016  0.3986  0.0616  0.3717
  597MOL0     C78725   7.679   5.728   1.968 -0.1616  0.1695  0.4664
  597MOL0     C78726   7.965   5.949   1.678  0.4369  1.2848  0.3190
  597MOL0     C78727   8.064   5.935   1.577  0.4074 -0.4406 -0.0110
  597MOL0     C78728   8.125   6.050   1.518  0.3078  0.2189  0.1657
  597MOL0     C78729   8.092   6.175   1.569 -0.6216 -0.2238  0.6347
  597MOL0     O78730   8.184   6.273   1.538 -0.3406 -0.0740 -0.1272
  597MOL0     C78731   8.137   6.405   1.515 -0.8445  0.5330  0.1860
  597MOL0     C78732   8.225   6.454   1.400  0.7792  0.7359  0.7305
  597MOL0     C78733   8.241   6.608   1.373 -0.9495 -1.2875  1.1782
  597MOL0     C78734   8.362   6.635   1.275  0.4113  0.3305 -0.8821
  597MOL0     C78735   8.330   6.584   1.141 -0.3160 -0.2006 -1.1622
  597MOL0     C78736   8.295   6.538   1.035  0.4652  0.2692 -0.6946
  597MOL0     C78737   7.983   6.186   1.663 -0.0905 -0.6000 -0.1167
  597MOL0     C78738   7.929   6.079   1.718  1.5066  0.2103 -1.0484
  597MOL0     H78739   7.696   5.617   1.649 -1.1150  0.3632 -0.3481
  597MOL0     H78740   7.586   5.422   1.748 -2.2194  1.7864 -0.7338
  597MOL0     H78741   7.703   5.305   2.095 -0.4693 -0.1942  0.0534
  597MOL0     H78742   7.672   5.251   1.932  1.2474  3.3467 -0.5381
  597MOL0     H78743   7.470   5.206   2.157  0.7970 -0.6948  1.6646
  597MOL0     H78744   7.598   5.087   2.119 -0.8750 -1.7074 -1.7398
  597MOL0     H78745   7.509   5.064   1.884 -1.4144 -1.9225 -0.4753
  597MOL0     H78746   7.393   5.184   1.915  1.1033 -0.9389 -2.1790
  597MOL0     H78747   7.401   4.918   2.064  0.0225 -0.7134  0.7325
  597MOL0     H78748   7.289   5.054   2.103  0.0271  0.6701 -1.3728
  597MOL0     H78749   7.199   5.047   1.886  2.2374  1.3424  1.7752
  597MOL0     H78750   7.143   4.915   1.980 -2.9619 -2.2091 -5.3176
  597MOL0     H78751   7.358   4.909   1.757  0.4702 -0.3042  1.7277
  597MOL0     H78752   7.192   4.851   1.755  1.2976  2.4216 -2.1304
  597MOL0     H78753   7.437   4.728   1.883  0.4121 -0.5695 -1.0440
  597MOL0     H78754   7.279   4.683   1.949  0.7332 -0.5311 -0.7284
  597MOL0     H78755   7.392   4.534   1.785  2.3618  2.1036 -2.1901
  597MOL0     H78756   7.372   4.647   1.661  0.2797  0.4498 -0.2298
  597MOL0     H78757   7.158   4.628   1.510  1.4429 -2.9822 -1.8084
  597MOL0     H78758   6.851   4.407   1.530  1.5982 -0.2035  0.4783
  597MOL0     H78759   6.936   4.503   1.402  1.0292 -0.6347 -0.0143
  597MOL0     H78760   6.859   4.708   1.564 -0.7619  0.2034 -1.3845
  597MOL0     H78761   6.750   4.580   1.622  0.5719 -2.8192 -0.5199
  597MOL0     H78762   6.666   4.544   1.386 -0.8027 -0.6497  1.7530
  597MOL0     H78763   6.625   4.699   1.459 -0.1654 -0.0481  0.3734
  597MOL0     H78764   6.709   4.695   1.206 -0.6134 -2.4139  0.0908
  597MOL0     H78765   6.867   4.665   1.268  1.8601  1.2178  2.3548
  597MOL0     H78766   6.782   5.087   1.349 -1.6769 -5.7429 -1.1463
  597MOL0     H78767   6.967   5.249   1.435  0.5146 -0.1055  2.1722
  597MOL0     H78768   7.385   5.271   1.296 -2.2049 -0.5925 -0.2259
  597MOL0     H78769   7.540   5.423   1.226 -3.9122  2.1798 -2.0876
  597MOL0     H78770   7.616   5.600   1.175 -0.2815 -3.0988  0.9320
  597MOL0     H78771   7.759   5.551   1.279 -0.6209 -0.1306  0.4203
  597MOL0     H78772   7.837   5.710   1.134  2.3621  3.1641  0.6654
  597MOL0     H78773   7.833   5.772   1.298  3.5366 -3.1759 -0.8754
  597MOL0     H78774   7.642   5.922   1.235 -0.0712  2.1143 -0.5918
  597MOL0     H78775   7.603   5.817   1.087  4.4782 -2.4079 -3.9263
  597MOL0     H78776   7.778   5.900   0.966 -0.2513  2.3005 -1.2814
  597MOL0     H78777   7.678   6.027   1.030  0.2607  0.6991 -1.9983
  597MOL0     H78778   7.943   5.944   1.178 -1.4895  1.4540  3.1864
  597MOL0     H78779   7.842   6.077   1.217 -1.3468  0.0160  0.7796
  597MOL0     H78780   7.898   6.158   0.969  3.2375  1.0164 -1.3089
  597MOL0     H78781   8.005   6.025   0.963 -0.9940 -0.6399 -0.2387
  597MOL0     H78782   8.088   6.258   1.023  4.5604 -0.8445  1.1077
  597MOL0     H78783   8.025   6.232   1.185  1.0740  0.1050  1.3453
  597MOL0     H78784   8.154   6.018   1.206  0.5177  0.6369  1.1186
  597MOL0     H78785   8.236   6.160   1.224  0.8285 -0.4965  0.6947
  597MOL0     H78786   7.471   5.667   1.580 -0.5316  0.2177  1.7474
  597MOL0     H78787   7.266   5.505   1.634  1.8250  0.4349  2.1247
  597MOL0     H78788   7.216   4.907   1.493 -0.4678  1.3666  3.8511
  597MOL0     H78789   7.029   4.751   1.391 -0.8428 -0.2748 -1.3041
  597MOL0     H78790   7.629   5.606   2.125 -0.7067  0.6084  0.4916
  597MOL0     H78791   7.710   5.813   2.027 -0.9424  1.3543 -0.7635
  597MOL0     H78792   8.072   5.838   1.528 -2.8565 -0.7162 -0.2584
  597MOL0     H78793   8.185   6.054   1.427  2.8710  3.4487  1.7651
  597MOL0     H78794   8.147   6.453   1.612  1.9828 -2.0318  1.3070
  597MOL0     H78795   8.030   6.407   1.489 -0.7426 -0.8004 -0.4414
  597MOL0     H78796   8.322   6.405   1.409 -0.2521 -1.5796 -0.0269
  597MOL0     H78797   8.186   6.413   1.306  0.2276  1.7308  0.5064
  597MOL0     H78798   8.262   6.660   1.467 -0.4295  0.4773  0.1356
  597MOL0     H78799   8.157   6.665   1.330  2.4389  1.2237 -2.9747
  597MOL0     H78800   8.362   6.743   1.264  0.2187  0.0694 -4.7969
  597MOL0     H78801   8.459   6.595   1.308  0.0291  0.7805  0.9265
  597MOL0     H78802   8.270   6.494   0.940  2.3857 -1.0683 -0.6395
  597MOL0     H78803   7.956   6.287   1.689  0.5225 -0.2425 -0.8338
  597MOL0     H78804   7.845   6.091   1.787  0.9796 -5.5598 -0.1435
  598MOL0     O78805   8.768   6.795   8.360  0.0980  0.6697 -0.6078
  598MOL0     C78806   8.703   6.761   8.454 -0.0202  0.0021 -0.5833
  598MOL0     O78807   8.741   6.669   8.554  0.0463 -0.3232  0.5736
  598MOL0     C78808   8.866   6.625   8.548 -0.3803 -0.1186  0.2368
  598MOL0     C78809   8.928   6.570   8.440 -0.0399 -0.0867  0.7871
  598MOL0     C78810   9.057   6.513   8.448 -0.0806  0.3293 -0.7045
  598MOL0     C78811   9.125   6.531   8.565 -0.2633  0.6550  0.3673
  598MOL0     O78812   9.259   6.520   8.578 -0.2777 -0.0331  0.4080
  598MOL0     C78813   9.316   6.402   8.528  0.8705  0.1161 -0.4347
  598MOL0     C78814   9.475   6.413   8.520 -0.3099  0.4755  0.2289
  598MOL0     C78815   9.516   6.478   8.384  0.2323  0.3773 -0.1514
  598MOL0     C78816   9.666   6.469   8.372  0.1879 -0.1892  0.3720
  598MOL0     C78817   9.728   6.527   8.242  0.2103 -0.6832  0.1176
  598MOL0     C78818   9.682   6.665   8.212 -0.1103  0.5581  0.3415
  598MOL0     C78819   9.747   6.736   8.089  0.2147  0.4416 -0.0645
  598MOL0     C78820   9.676   6.861   8.059  0.1531  0.0210 -0.0187
  598MOL0     N78821   9.686   6.966   8.164  0.0361  0.8903 -0.5598
  598MOL0     C78822   9.815   7.018   8.197  0.4804  0.2485  0.1483
  598MOL0     C78823   9.793   7.086   8.307  0.0692  0.3435  0.1520
  598MOL0     C78824   9.901   7.164   8.373 -0.6423 -0.4202  0.1984
  598MOL0     C78825   9.938   7.299   8.310  0.6652  0.4656  0.4052
  598MOL0     C78826   9.997   7.387   8.418  0.1455 -0.7556 -0.3670
  598MOL0     C78827  10.122   7.347   8.496  1.2383  0.5859  0.3983
  598MOL0     O78828  10.221   7.344   8.388  0.0303  0.2960 -0.0579
  598MOL0     C78829  10.354   7.332   8.432 -0.3823  0.2174  0.5592
  598MOL0     C78830  10.400   7.345   8.566 -0.1936 -0.4119  0.1415
  598MOL0     C78831  10.532   7.324   8.584 -0.7869  0.3441  0.3992
  598MOL0     C78832  10.631   7.285   8.480  0.8781  1.4399  0.2604
  598MOL0     C78833  10.753   7.227   8.517  0.7998 -0.6156  0.1140
  598MOL0     O78834  10.828   7.157   8.423 -0.5470 -1.2349 -0.2916
  598MOL0     C78835  10.959   7.117   8.459  0.1893 -0.8612  0.7068
  598MOL0     C78836  10.974   6.975   8.465  0.1259  0.2147 -0.0005
  598MOL0     C78837  11.108   6.934   8.480  0.0090 -0.2678  0.5128
  598MOL0     C78838  11.215   7.032   8.507 -0.8388  1.7214 -0.3796
  598MOL0     O78839  11.355   7.006   8.530 -0.3413 -0.2868 -0.2655
  598MOL0     C78840  11.413   6.897   8.448 -0.7772  0.6902  0.5723
  598MOL0     C78841  11.562   6.935   8.465 -0.9205 -0.2669 -0.2800
  598MOL0     C78842  11.630   6.908   8.597 -0.0612 -0.1910 -0.7535
  598MOL0     C78843  11.779   6.944   8.594 -0.0975 -0.2568  0.3532
  598MOL0     C78844  11.854   6.921   8.725 -0.8692 -1.2461  0.7307
  598MOL0     C78845  11.999   6.875   8.701  0.2811 -0.1099  0.3977
  598MOL0     C78846  12.074   6.859   8.839  0.8677 -0.2061  0.0543
  598MOL0     C78847  12.209   6.804   8.818  0.5295 -0.2380 -0.7203
  598MOL0    Cl78848  12.311   6.810   8.959  0.1702 -0.3995 -0.1589
  598MOL0     C78849  11.187   7.167   8.512  0.0078  0.6075 -0.5679
  598MOL0     C78850  11.056   7.213   8.485 -0.3158 -0.2048 -0.8713
  598MOL0     O78851  10.775   7.229   8.637  0.5423  1.1785  0.1949
  598MOL0     C78852  10.587   7.285   8.346  1.3805 -0.3563 -0.1043
  598MOL0     C78853  10.445   7.302   8.330 -0.0229  0.0428 -0.1924
  598MOL0     N78854   9.658   7.044   8.355 -0.3744 -0.9411 -0.1738
  598MOL0     N78855   9.596   6.995   8.258  0.5814  0.1415 -0.8192
  598MOL0     C78856   9.056   6.579   8.677  0.5013  0.0069 -0.8049
  598MOL0     C78857   8.927   6.624   8.676 -0.4095  0.0819  0.8426
  598MOL0     C78858   8.559   6.785   8.438 -0.3727 -0.3848  0.7144
  598MOL0     C78859   8.506   6.838   8.317 -0.1946 -0.3482 -0.1975
  598MOL0     C78860   8.368   6.870   8.312  0.5740  1.1160 -0.9710
  598MOL0     C78861   8.280   6.866   8.420  0.2119 -1.0688  0.5055
  598MOL0     O78862   8.147   6.903   8.411 -0.4406 -0.2891  0.0850
  598MOL0     C78863   8.058   6.787   8.424 -0.0843 -0.6242 -1.0208
  598MOL0     C78864   7.935   6.785   8.336  0.2322  0.1300  0.1593
  598MOL0     C78865   7.843   6.912   8.346 -0.6828 -0.7778 -1.1830
  598MOL0     C78866   7.727   6.914   8.251 -0.6339 -0.5826  0.2308
  598MOL0     C78867   7.626   6.806   8.278  0.4387 -0.6028  0.2688
  598MOL0     C78868   7.539   6.721   8.302 -0.3679 -0.4929 -0.5581
  598MOL0     C78869   8.333   6.818   8.535 -0.4275  0.8111 -0.5716
  598MOL0     C78870   8.474   6.793   8.551 -0.3946  0.5158  0.8285
  598MOL0     H78871   8.872   6.570   8.347  1.1161  1.2177  0.0616
  598MOL0     H78872   9.108   6.463   8.367  2.3432  0.5902  0.5663
  598MOL0     H78873   9.277   6.368   8.431 -0.8210 -0.0317  0.2549
  598MOL0     H78874   9.273   6.334   8.602 -0.6924 -0.0799 -1.4725
  598MOL0     H78875   9.506   6.308   8.521 -4.2132 -0.8226  0.1915
  598MOL0     H78876   9.520   6.461   8.608 -0.0264 -3.9958  2.8463
  598MOL0     H78877   9.472   6.578   8.390 -0.1067  0.4287 -2.4840
  598MOL0     H78878   9.474   6.419   8.302 -0.6087 -2.7429  2.3337
  598MOL0     H78879   9.711   6.519   8.459 -0.5315  0.6197  0.2863
  598MOL0     H78880   9.700   6.365   8.377  0.4934 -0.2250 -1.6632
  598MOL0     H78881   9.702   6.461   8.158 -1.0519 -2.6995  1.9855
  598MOL0     H78882   9.837   6.533   8.251  0.1617  2.6376 -0.3137
  598MOL0     H78883   9.709   6.733   8.293  3.8391  2.0162 -1.9010
  598MOL0     H78884   9.573   6.661   8.206 -0.0012 -1.6083 -0.9912
  598MOL0     H78885   9.852   6.763   8.106  1.0347 -1.1060 -2.2468
  598MOL0     H78886   9.752   6.665   8.006  2.1131 -0.3440  0.6637
  598MOL0     H78887   9.568   6.847   8.046  0.4317  0.3548 -3.6552
  598MOL0     H78888   9.700   6.910   7.964 -5.3342  2.1868 -0.6591
  598MOL0     H78889   9.906   6.995   8.142  0.7986 -3.7755  2.0218
  598MOL0     H78890   9.991   7.103   8.362  1.8143  2.6656  1.5457
  598MOL0     H78891   9.862   7.169   8.476 -0.1047 -1.6818  0.4882
  598MOL0     H78892   9.850   7.351   8.272  1.5587  0.4125 -1.9161
  598MOL0     H78893  10.004   7.289   8.223  0.1317 -0.9145  0.1318
  598MOL0     H78894  10.006   7.490   8.382 -5.1565  0.5793  1.2520
  598MOL0     H78895   9.918   7.402   8.492  0.2273  0.4367 -0.5102
  598MOL0     H78896  10.098   7.258   8.554  2.2383  1.6395  2.5531
  598MOL0     H78897  10.139   7.434   8.561  2.1125  3.4634 -3.3195
  598MOL0     H78898  10.332   7.378   8.645 -0.6370  0.3589 -0.5318
  598MOL0     H78899  10.572   7.329   8.685 -0.8546 -1.4630  0.5563
  598MOL0     H78900  10.889   6.911   8.442 -0.9005  0.9620  1.4748
  598MOL0     H78901  11.135   6.829   8.470  1.4708  0.3439 -3.0880
  598MOL0     H78902  11.381   6.909   8.344 -2.5808 -0.9979  0.8812
  598MOL0     H78903  11.373   6.797   8.466 -2.3360  1.8540  4.6184
  598MOL0     H78904  11.585   7.037   8.431  0.6805 -0.6291 -0.3875
  598MOL0     H78905  11.617   6.865   8.402  2.3110  1.5859  0.2470
  598MOL0     H78906  11.608   6.806   8.630 -1.5302  0.5749  0.8177
  598MOL0     H78907  11.591   6.966   8.681 -2.6575 -1.5252 -0.9439
  598MOL0     H78908  11.834   6.888   8.517 -1.4531  0.4491 -1.1988
  598MOL0     H78909  11.800   7.047   8.562  5.1057 -1.0541  0.2379
  598MOL0     H78910  11.794   6.846   8.776 -0.9911 -0.1963  2.2006
  598MOL0     H78911  11.865   7.016   8.778 -1.2842 -0.2342 -0.9138
  598MOL0     H78912  12.058   6.944   8.641  1.6690 -1.8411 -0.3369
  598MOL0     H78913  12.000   6.786   8.636 -3.3728  1.3937 -2.0327
  598MOL0     H78914  12.084   6.946   8.903 -0.1179 -0.4594  0.5741
  598MOL0     H78915  12.021   6.781   8.895 -2.8141  1.4282 -0.8104
  598MOL0     H78916  12.253   6.852   8.731 -2.0783  1.0561 -1.4202
  598MOL0     H78917  12.196   6.702   8.780  0.9837  0.7010 -3.6223
  598MOL0     H78918  11.269   7.238   8.512 -0.1833  0.8402  0.2029
  598MOL0     H78919  11.037   7.319   8.482 -1.6741 -0.2508  2.0285
  598MOL0     H78920  10.652   7.268   8.260  2.2828  1.0793  0.2576
  598MOL0     H78921  10.399   7.305   8.231  0.0210  0.5106 -0.1988
  598MOL0     H78922   9.106   6.597   8.771 -2.1300  1.0549  0.4962
  598MOL0     H78923   8.895   6.679   8.764  1.8099  0.7339  1.2951
  598MOL0     H78924   8.564   6.831   8.225 -2.2885  0.6193 -1.6758
  598MOL0     H78925   8.309   6.895   8.225 -2.2939 -0.2649  0.4490
  598MOL0     H78926   8.009   6.775   8.521 -3.5280 -1.6742 -2.7511
  598MOL0     H78927   8.116   6.696   8.403 -2.9917 -3.2114  1.2921
  598MOL0     H78928   7.959   6.780   8.230  2.7736  2.0649  0.5619
  598MOL0     H78929   7.879   6.692   8.349  1.0584 -0.5764 -1.1530
  598MOL0     H78930   7.902   7.002   8.322  0.7810 -0.9892  1.3200
  598MOL0     H78931   7.800   6.923   8.446 -0.5149  1.1124 -1.2798
  598MOL0     H78932   7.673   7.009   8.256 -0.2055 -0.2155 -1.4980
  598MOL0     H78933   7.765   6.903   8.149  0.6934  2.1595  0.3486
  598MOL0     H78934   7.466   6.644   8.316  0.5014 -1.3184 -0.4685
  598MOL0     H78935   8.268   6.812   8.621  3.0123  2.1473  2.3865
  598MOL0     H78936   8.523   6.763   8.643  0.0025 -0.1889  0.3957
  599MOL0     O78937   7.286  10.830   4.454  0.9066 -0.0045 -0.3357
  599MOL0     C78938   7.346  10.938   4.470  0.4450  0.0549  0.3831
  599MOL0     O78939   7.323  11.051   4.404 -0.4026 -0.1424  0.0893
  599MOL0     C78940   7.195  11.099   4.376  0.4079  0.9589 -0.5051
  599MOL0     C78941   7.189  11.222   4.313 -0.4935 -0.0626 -0.1376
  599MOL0     C78942   7.066  11.286   4.296  0.0858 -0.7565  0.5441
  599MOL0     C78943   6.943  11.218   4.307 -0.0537  0.2264 -1.3606
  599MOL0     O78944   6.818  11.267   4.270  0.3891 -0.7036 -0.2146
  599MOL0     C78945   6.746  11.180   4.188 -0.1756  0.1789  0.4503
  599MOL0     C78946   6.651  11.248   4.092  1.1150 -0.7984 -0.1513
  599MOL0     C78947   6.707  11.343   3.992  0.1645 -0.4141 -0.3361
  599MOL0     C78948   6.845  11.309   3.933  0.6261  0.0684  0.8776
  599MOL0     C78949   6.908  11.422   3.855  1.4646 -1.2945  0.6675
  599MOL0     C78950   6.828  11.482   3.739 -0.5591 -0.2841  0.6815
  599MOL0     C78951   6.910  11.573   3.653 -1.1664  0.0416 -0.0927
  599MOL0     C78952   6.844  11.618   3.524  1.0392 -0.4786 -0.0088
  599MOL0     N78953   6.712  11.675   3.557 -0.8942  0.4403  0.0275
  599MOL0     C78954   6.598  11.608   3.536  0.5045  0.4314  0.9098
  599MOL0     C78955   6.503  11.704   3.548 -0.0260 -0.5723 -0.1290
  599MOL0     C78956   6.353  11.685   3.533  0.5467  0.3346 -0.5277
  599MOL0     C78957   6.279  11.647   3.664 -0.4175 -0.4367  0.8352
  599MOL0     C78958   6.156  11.564   3.625 -0.0105 -0.5701  0.0206
  599MOL0     C78959   6.036  11.646   3.566 -0.7124  0.8984 -0.6346
  599MOL0     O78960   5.915  11.581   3.616  0.5676  0.3395 -1.1886
  599MOL0     C78961   5.793  11.646   3.617  0.2364  0.2741  1.1029
  599MOL0     C78962   5.678  11.599   3.681 -1.2049  0.9271 -0.6779
  599MOL0     C78963   5.561  11.682   3.689 -0.2811 -0.0020 -0.2826
  599MOL0     C78964   5.560  11.808   3.631  0.0063 -0.7702  0.3825
  599MOL0     C78965   5.448  11.900   3.652  0.3463 -0.2772 -0.4630
  599MOL0     O78966   5.352  11.858   3.738  0.5598 -0.0715 -0.3855
  599MOL0     C78967   5.238  11.927   3.777  0.8088  0.2564  0.8374
  599MOL0     C78968   5.220  12.067   3.780  0.7556  0.0977 -0.2730
  599MOL0     C78969   5.095  12.122   3.809 -0.1012  0.2765 -0.0963
  599MOL0     C78970   4.999  12.039   3.879 -0.4943  0.3171 -0.0673
  599MOL0     O78971   4.887  12.077   3.949  0.1184  0.3492 -0.1558
  599MOL0     C78972   4.776  12.093   3.868  0.4099 -0.1784 -0.7703
  599MOL0     C78973   4.655  12.118   3.958  0.0834  0.7765 -0.2998
  599MOL0     C78974   4.524  12.164   3.889 -0.2815 -0.3276 -0.3146
  599MOL0     C78975   4.412  12.180   3.991  0.1200 -0.4319 -0.2001
  599MOL0     C78976   4.284  12.162   3.919  0.1522  0.8859 -0.3301
  599MOL0     C78977   4.159  12.186   4.006 -0.0623 -0.9586  0.1524
  599MOL0     C78978   4.025  12.163   3.937  1.3153 -0.4708  0.8116
  599MOL0     C78979   3.909  12.210   4.025 -0.8490 -0.3325 -0.2752
  599MOL0    Cl78980   3.751  12.167   3.944  0.0445  0.4943 -0.3817
  599MOL0     C78981   5.025  11.903   3.885  0.1795  0.7275 -0.1557
  599MOL0     C78982   5.137  11.849   3.829  0.0331  0.6224 -0.1648
  599MOL0     O78983   5.447  12.004   3.590 -0.6670 -0.1975 -0.3108
  599MOL0     C78984   5.675  11.851   3.566  0.1527 -1.1219 -0.2274
  599MOL0     C78985   5.782  11.772   3.557 -0.1465 -0.1211  0.0377
  599MOL0     N78986   6.560  11.817   3.590  0.7133 -0.3993  0.0576
  599MOL0     N78987   6.686  11.807   3.581 -1.2762 -0.8039  0.3154
  599MOL0     C78988   6.954  11.086   4.366  0.9863 -0.9105  0.1710
  599MOL0     C78989   7.075  11.034   4.406 -0.1877 -0.5802 -0.0021
  599MOL0     C78990   7.465  10.947   4.554  0.0653  0.4919 -0.3483
  599MOL0     C78991   7.522  10.834   4.618 -0.5985  0.1945 -0.1956
  599MOL0     C78992   7.638  10.853   4.697  0.1385 -0.0594  0.2315
  599MOL0     C78993   7.689  10.978   4.723 -0.3670 -0.0512 -0.7057
  599MOL0     O78994   7.807  10.986   4.796 -0.7986 -0.4139  0.3900
  599MOL0     C78995   7.866  11.111   4.825 -0.4057 -0.0228 -0.1911
  599MOL0     C78996   8.004  11.087   4.884 -0.4965 -0.2188 -0.1724
  599MOL0     C78997   8.084  11.217   4.899  0.6456  0.9247 -0.1481
  599MOL0     C78998   8.225  11.182   4.945  0.0282 -0.5702  1.0782
  599MOL0     C78999   8.316  11.303   4.947  0.5111  0.3250  0.9682
  599MOL0     C79000   8.394  11.399   4.975  0.9958 -0.7428 -0.1936
  599MOL0     C79001   7.620  11.084   4.679 -0.3518  0.0416 -0.2563
  599MOL0     C79002   7.509  11.073   4.593 -0.3651 -0.1758 -0.4890
  599MOL0     H79003   7.283  11.271   4.291  0.3489 -2.1462 -1.4939
  599MOL0     H79004   7.059  11.386   4.255 -0.2339 -0.2073  1.8730
  599MOL0     H79005   6.683  11.109   4.242 -1.7185  0.7228 -0.5668
  599MOL0     H79006   6.817  11.122   4.129 -1.9069 -1.1427 -0.4282
  599MOL0     H79007   6.572  11.298   4.150 -1.4943 -2.4785 -2.0071
  599MOL0     H79008   6.601  11.178   4.025  1.1501  0.5783 -1.6940
  599MOL0     H79009   6.736  11.428   4.054 -1.4949 -0.7713  1.0297
  599MOL0     H79010   6.637  11.363   3.911 -0.5152  2.5159  0.8380
  599MOL0     H79011   6.911  11.272   4.013 -0.1032 -1.9641  0.5957
  599MOL0     H79012   6.826  11.230   3.861  1.9800  1.6211 -1.2943
  599MOL0     H79013   7.001  11.388   3.810  3.0291  1.8054  1.2919
  599MOL0     H79014   6.933  11.514   3.909  1.9846 -0.0807 -1.5201
  599MOL0     H79015   6.745  11.537   3.785  0.7776  2.5411 -0.0350
  599MOL0     H79016   6.788  11.396   3.684 -1.0640  0.0519  0.5186
  599MOL0     H79017   6.932  11.657   3.719 -2.4903 -0.6027  1.2267
  599MOL0     H79018   7.006  11.523   3.638 -1.0092 -0.5010  2.2778
  599MOL0     H79019   6.861  11.536   3.453  1.5665 -0.0808 -0.3548
  599MOL0     H79020   6.904  11.700   3.483 -1.6282  0.9001 -1.4150
  599MOL0     H79021   6.588  11.500   3.527  0.0106 -0.1248  5.6367
  599MOL0     H79022   6.330  11.613   3.455  1.3030 -0.7614  0.2316
  599MOL0     H79023   6.320  11.782   3.494  2.9795  1.4916  0.0368
  599MOL0     H79024   6.254  11.740   3.715 -0.6372  2.0960 -3.4489
  599MOL0     H79025   6.341  11.577   3.721 -0.5347 -0.2006  1.2546
  599MOL0     H79026   6.174  11.476   3.562 -0.3058 -0.8969  0.3813
  599MOL0     H79027   6.122  11.526   3.722 -1.6736  1.4017  0.2814
  599MOL0     H79028   6.040  11.634   3.457  2.6115  2.3265 -0.7939
  599MOL0     H79029   6.038  11.752   3.594 -0.2611  0.0711  2.8342
  599MOL0     H79030   5.684  11.494   3.708 -0.8604  0.6741 -1.6594
  599MOL0     H79031   5.465  11.648   3.727 -1.0475 -2.4579 -3.8449
  599MOL0     H79032   5.300  12.136   3.756 -1.5840  3.2139  0.1681
  599MOL0     H79033   5.081  12.229   3.791 -1.3471  0.7559  3.0655
  599MOL0     H79034   4.759  12.001   3.811  1.0940 -0.0830 -1.1380
  599MOL0     H79035   4.800  12.182   3.810  1.8420 -0.2755 -0.3704
  599MOL0     H79036   4.680  12.198   4.028  0.9886  2.6354 -2.5856
  599MOL0     H79037   4.626  12.028   4.013 -1.6848  0.9103 -0.9312
  599MOL0     H79038   4.491  12.105   3.803 -1.0694  0.0941 -0.3079
  599MOL0     H79039   4.550  12.266   3.857  3.2546 -0.5106  1.4589
  599MOL0     H79040   4.417  12.105   4.070  1.6493 -1.7248 -1.4471
  599MOL0     H79041   4.403  12.284   4.023 -0.4632  0.0109 -1.6875
  599MOL0     H79042   4.268  12.057   3.893  1.2929 -0.2843  3.1923
  599MOL0     H79043   4.286  12.231   3.834 -3.0083  4.4212  2.1155
  599MOL0     H79044   4.168  12.285   4.053  2.9493 -1.3745  0.6430
  599MOL0     H79045   4.170  12.113   4.087 -0.9043 -2.5379 -1.1140
  599MOL0     H79046   4.033  12.233   3.853  3.8215  1.0898  2.2241
  599MOL0     H79047   4.002  12.059   3.910 -1.0975 -0.5531  2.8269
  599MOL0     H79048   3.908  12.319   4.040  1.3944  0.2056 -3.1129
  599MOL0     H79049   3.926  12.162   4.122  0.0014 -0.3735 -0.4383
  599MOL0     H79050   4.946  11.844   3.928 -1.5981  2.9451 -0.1749
  599MOL0     H79051   5.152  11.742   3.829 -0.5647  0.5299 -0.7084
  599MOL0     H79052   5.688  11.949   3.521  0.1503 -2.1779 -2.7532
  599MOL0     H79053   5.863  11.817   3.500  0.1069 -0.0722  0.4350
  599MOL0     H79054   6.869  11.026   4.398 -0.5078  1.7754  1.6047
  599MOL0     H79055   7.072  10.929   4.434 -1.1891 -1.2017 -2.1628
  599MOL0     H79056   7.483  10.737   4.588 -5.7700  2.3144 -1.3176
  599MOL0     H79057   7.694  10.764   4.725  1.5481  1.3667  2.2207
  599MOL0     H79058   7.809  11.168   4.898  2.7844  0.6506  1.9469
  599MOL0     H79059   7.871  11.176   4.737  0.2356 -0.2610 -0.3391
  599MOL0     H79060   7.986  11.039   4.981 -2.1193 -0.5066 -0.5920
  599MOL0     H79061   8.044  11.004   4.824 -3.1823 -0.7920 -1.3259
  599MOL0     H79062   8.032  11.287   4.965  1.3436  1.0623  0.2658
  599MOL0     H79063   8.096  11.276   4.807 -0.4187  5.3939  2.2727
  599MOL0     H79064   8.230  11.142   5.047  1.8363 -1.4870  0.6782
  599MOL0     H79065   8.270  11.098   4.891 -0.7254 -2.6417  3.4537
  599MOL0     H79066   8.463  11.478   4.999  2.1162 -2.0715  1.1788
  599MOL0     H79067   7.632  11.187   4.711 -1.4121 -0.4704  1.9877
  599MOL0     H79068   7.462  11.167   4.566 -2.0279 -0.4259  1.3084
  600MOL0     O79069   6.701  10.861   9.201 -0.1331 -0.4028  0.4262
  600MOL0     C79070   6.606  10.831   9.139 -0.6746  0.5265 -0.3806
  600MOL0     O79071   6.474  10.846   9.185 -0.6133 -0.5988 -0.8713
  600MOL0     C79072   6.440  10.934   9.292  0.8742 -0.0281  0.1105
  600MOL0     C79073   6.477  10.921   9.427  0.7619 -0.4588 -0.3329
  600MOL0     C79074   6.451  11.019   9.520  0.7135  0.1352 -0.1151
  600MOL0     C79075   6.366  11.119   9.479  0.9281 -0.8003  0.0662
  600MOL0     O79076   6.338  11.218   9.568  0.2256  0.2102  0.8258
  600MOL0     C79077   6.416  11.341   9.551 -0.5121  0.0201  0.6532
  600MOL0     C79078   6.380  11.453   9.651 -0.6417 -0.4598  0.2119
  600MOL0     C79079   6.455  11.434   9.785  0.5940  0.4710 -0.2280
  600MOL0     C79080   6.421  11.559   9.880 -1.0322  0.0534  0.0752
  600MOL0     C79081   6.511  11.547  10.003 -0.0782 -0.4770 -0.4805
  600MOL0     C79082   6.650  11.606   9.974  0.7171 -0.8791  0.0532
  600MOL0     C79083   6.732  11.580  10.096  0.6038 -0.5261  0.6142
  600MOL0     C79084   6.876  11.581  10.071 -0.0008 -0.6724  0.8660
  600MOL0     N79085   6.921  11.722  10.058  0.2296 -0.6359 -0.0217
  600MOL0     C79086   6.845  11.831  10.089 -0.4388  0.0228 -1.2160
  600MOL0     C79087   6.879  11.931  10.002  0.1082  0.2004 -0.1967
  600MOL0     C79088   6.791  12.053   9.994 -0.0712  0.3580 -0.1383
  600MOL0     C79089   6.665  12.025   9.912 -0.1915 -0.9637  0.6614
  600MOL0     C79090   6.552  11.985  10.013  0.0637 -0.2233  0.5932
  600MOL0     C79091   6.431  11.925   9.939 -0.0835  0.7319  0.1850
  600MOL0     O79092   6.368  12.035   9.860  0.5823  0.2900 -0.8229
  600MOL0     C79093   6.238  12.063   9.897 -0.5287  0.3415 -0.5323
  600MOL0     C79094   6.136  11.971   9.931 -0.7520 -0.0458  0.2670
  600MOL0     C79095   6.000  12.009   9.974  0.5899  0.3446 -0.3307
  600MOL0     C79096   5.972  12.146   9.972  0.6395  0.8320 -0.3415
  600MOL0     C79097   5.836  12.191   9.994 -0.0187 -0.3681  0.8568
  600MOL0     O79098   5.809  12.329   9.980 -0.4414 -0.1621 -1.6034
  600MOL0     C79099   5.693  12.384  10.028 -0.2983  0.9478  0.0271
  600MOL0     C79100   5.686  12.519  10.061 -0.0952  1.0909 -0.1139
  600MOL0     C79101   5.569  12.575  10.117 -0.4963  1.0689  1.2299
  600MOL0     C79102   5.452  12.494  10.115 -0.3820  0.8069  0.4034
  600MOL0     O79103   5.331  12.553  10.151 -0.0348  0.5322  0.1618
  600MOL0     C79104   5.287  12.663  10.071  0.3136 -0.8744  0.2052
  600MOL0     C79105   5.158  12.614  10.009 -0.2551 -0.0434  0.3430
  600MOL0     C79106   5.052  12.603  10.121  0.6910  0.0207 -0.4208
  600MOL0     C79107   4.910  12.609  10.058  0.1080 -0.0176 -0.0633
  600MOL0     C79108   4.805  12.559  10.159  0.1869 -0.0793  0.4433
  600MOL0     C79109   4.740  12.664  10.257 -0.5152 -0.5387 -0.8240
  600MOL0     C79110   4.642  12.765  10.202  0.3925 -0.2955 -0.3221
  600MOL0     C79111   4.501  12.713  10.184  0.5275  0.3444  0.8180
  600MOL0    Cl79112   4.407  12.661  10.332 -0.2384 -0.2917  0.5528
  600MOL0     C79113   5.456  12.367  10.065 -0.2756  0.2835  0.3904
  600MOL0     C79114   5.570  12.313  10.006 -0.0467  1.4483 -1.3680
  600MOL0     O79115   5.760  12.102  10.038 -0.0308  0.3481  0.0470
  600MOL0     C79116   6.066  12.237   9.936 -0.3208 -0.3366  0.1571
  600MOL0     C79117   6.199  12.195   9.902 -0.7040 -0.0772  0.1135
  600MOL0     N79118   6.975  11.878   9.920  0.6138 -0.1040 -0.2517
  600MOL0     N79119   6.998  11.756   9.952 -0.4765  0.9799  0.8417
  600MOL0     C79120   6.302  11.126   9.355 -0.0416  0.1064  0.1474
  600MOL0     C79121   6.344  11.028   9.262  0.1563  0.5500  0.3670
  600MOL0     C79122   6.629  10.754   9.016  0.4155 -0.8347 -0.1602
  600MOL0     C79123   6.524  10.742   8.925  0.8648 -0.7433 -0.1119
  600MOL0     C79124   6.535  10.697   8.794 -0.2976 -0.3199 -0.0903
  600MOL0     C79125   6.670  10.666   8.754 -0.6373  1.4612  0.1916
  600MOL0     O79126   6.697  10.610   8.633  1.1295  0.5754 -0.2394
  600MOL0     C79127   6.587  10.607   8.545  0.1873  0.4632 -0.3253
  600MOL0     C79128   6.637  10.550   8.414  0.6572  0.6577  0.7144
  600MOL0     C79129   6.519  10.466   8.356  0.4788 -0.6976 -0.3798
  600MOL0     C79130   6.551  10.409   8.213 -0.4092  0.2163  0.3665
  600MOL0     C79131   6.438  10.317   8.185 -0.5987 -0.4084 -0.3441
  600MOL0     C79132   6.348  10.238   8.173  0.1270 -0.4260  0.2743
  600MOL0     C79133   6.773  10.683   8.846 -0.7496  0.4752  0.0347
  600MOL0     C79134   6.755  10.721   8.975 -0.7191 -1.2700 -0.5889
  600MOL0     H79135   6.542  10.835   9.445  1.4750 -0.2351 -1.7260
  600MOL0     H79136   6.510  11.018   9.610  1.0720 -4.3028 -0.1942
  600MOL0     H79137   6.401  11.388   9.454  0.0239 -0.3129  0.4089
  600MOL0     H79138   6.522  11.325   9.572  0.0003  2.1350 -0.0820
  600MOL0     H79139   6.274  11.470   9.675 -0.7232  1.7713 -1.4516
  600MOL0     H79140   6.418  11.547   9.610  0.8197  0.5519  3.5076
  600MOL0     H79141   6.563  11.435   9.771  0.5961 -0.7023 -0.3763
  600MOL0     H79142   6.432  11.337   9.830 -0.6197  1.2796  1.0005
  600MOL0     H79143   6.423  11.647   9.815  0.0067  0.1954  0.2887
  600MOL0     H79144   6.315  11.549   9.904 -0.7500 -0.2527  1.2484
  600MOL0     H79145   6.516  11.442  10.035 -1.0229 -0.8991 -1.6314
  600MOL0     H79146   6.471  11.606  10.085  0.2754 -0.0872 -0.5812
  600MOL0     H79147   6.639  11.715   9.970 -1.9724 -1.0715  0.3548
  600MOL0     H79148   6.700  11.582   9.880  1.8375  1.0521  0.1112
  600MOL0     H79149   6.708  11.646  10.179 -0.6047 -0.1129 -0.0383
  600MOL0     H79150   6.711  11.480  10.135  1.3211 -0.9618 -0.0753
  600MOL0     H79151   6.893  11.518   9.984  1.6120  2.1249 -1.0240
  600MOL0     H79152   6.944  11.537  10.144  1.0205 -0.6778 -0.0712
  600MOL0     H79153   6.769  11.828  10.167 -0.7639  2.4272 -1.3592
  600MOL0     H79154   6.843  12.130   9.937  0.6891 -2.5061 -3.7281
  600MOL0     H79155   6.765  12.084  10.096  0.4719  0.4884 -0.0328
  600MOL0     H79156   6.685  11.941   9.845 -1.8869 -1.5925  0.8828
  600MOL0     H79157   6.638  12.113   9.854 -1.2326 -1.0777  0.9502
  600MOL0     H79158   6.592  11.905  10.076  1.1636  0.6128  0.9919
  600MOL0     H79159   6.516  12.070  10.071 -2.0431 -1.9240  1.9588
  600MOL0     H79160   6.356  11.896  10.013 -1.1435  0.7205 -0.8737
  600MOL0     H79161   6.459  11.839   9.877 -0.9491  0.6107 -0.0417
  600MOL0     H79162   6.161  11.865   9.929  1.5300  0.4492 -0.6454
  600MOL0     H79163   5.919  11.940   9.993  0.6610  0.5054  0.5790
  600MOL0     H79164   5.778  12.575  10.042  1.2979 -0.6438  1.1650
  600MOL0     H79165   5.568  12.679  10.148  0.3577  1.2470  0.7023
  600MOL0     H79166   5.361  12.695   9.998 -0.1087  0.6157  0.3874
  600MOL0     H79167   5.268  12.754  10.129 -2.0795 -0.3847 -1.2108
  600MOL0     H79168   5.189  12.520   9.963 -2.1722 -0.8047  0.5345
  600MOL0     H79169   5.125  12.689   9.937 -2.3001  0.1533  1.4167
  600MOL0     H79170   5.063  12.672  10.205  1.8911  1.0004 -1.3440
  600MOL0     H79171   5.068  12.504  10.165  1.0744 -1.9125 -4.3989
  600MOL0     H79172   4.897  12.716  10.040 -0.2514  0.5083  2.8038
  600MOL0     H79173   4.901  12.548   9.968 -0.7626 -0.2478  0.1648
  600MOL0     H79174   4.856  12.487  10.224 -0.2510 -0.3064  0.5373
  600MOL0     H79175   4.725  12.511  10.103  0.6398 -2.9120  2.0104
  600MOL0     H79176   4.827  12.723  10.288 -2.5750  1.7859  0.9522
  600MOL0     H79177   4.687  12.614  10.338 -2.1232  1.6185 -0.4481
  600MOL0     H79178   4.633  12.854  10.266 -0.2029  2.7523 -4.2407
  600MOL0     H79179   4.694  12.804  10.114  2.4939 -0.0399  0.9631
  600MOL0     H79180   4.508  12.626  10.118 -2.3652 -1.1454  2.2841
  600MOL0     H79181   4.438  12.784  10.130 -0.6579 -1.5163 -0.3699
  600MOL0     H79182   5.370  12.302  10.059  0.3758 -0.4183 -2.5681
  600MOL0     H79183   5.566  12.213   9.964  1.0992  1.0781 -0.6433
  600MOL0     H79184   6.050  12.344   9.929  0.6200 -0.1601  0.5511
  600MOL0     H79185   6.275  12.267   9.873  0.3913 -0.7115  1.3280
  600MOL0     H79186   6.227  11.202   9.336  1.7709  1.9033 -0.1573
  600MOL0     H79187   6.319  11.036   9.157  2.4413  0.3759 -0.2296
  600MOL0     H79188   6.421  10.772   8.946  0.7652  0.2147 -1.8243
  600MOL0     H79189   6.452  10.701   8.724 -1.2444  2.7668  1.0315
  600MOL0     H79190   6.546  10.708   8.540 -2.7241 -0.6429 -1.0752
  600MOL0     H79191   6.497  10.558   8.584 -2.6890  4.2191 -1.6842
  600MOL0     H79192   6.657  10.636   8.350  0.3465  0.4139  0.2792
  600MOL0     H79193   6.720  10.480   8.425 -0.8784 -1.2367  0.9724
  600MOL0     H79194   6.430  10.529   8.357 -0.6298 -2.1525  2.5928
  600MOL0     H79195   6.506  10.385   8.428  1.9541 -0.4406  0.2210
  600MOL0     H79196   6.542  10.478   8.129 -3.5813 -1.2724 -0.6879
  600MOL0     H79197   6.646  10.357   8.222 -0.6488 -0.2270  0.3663
  600MOL0     H79198   6.269  10.166   8.166 -0.1383 -0.2743  1.5629
  600MOL0     H79199   6.874  10.652   8.820 -0.4583 -1.0072  2.5871
  600MOL0     H79200   6.844  10.726   9.037  0.3217 -0.5457 -2.0671
  601MOL0     O79201   6.302  10.900  10.454  0.1918  0.4352 -0.3197
  601MOL0     C79202   6.420  10.922  10.463  0.3088  0.0945  0.5671
  601MOL0     O79203   6.470  11.019  10.545 -0.5228 -0.3726 -0.2953
  601MOL0     C79204   6.386  11.106  10.618  0.1446  0.5495  0.7418
  601MOL0     C79205   6.272  11.065  10.674 -0.6661 -0.4639 -0.3808
  601MOL0     C79206   6.185  11.153  10.743 -0.9125  0.6279  0.6573
  601MOL0     C79207   6.210  11.285  10.755  0.2566 -0.1823 -0.7874
  601MOL0     O79208   6.121  11.361  10.825  0.4472  0.3390  0.2048
  601MOL0     C79209   6.162  11.484  10.881  0.6425  0.3352 -0.2537
  601MOL0     C79210   6.126  11.590  10.774 -0.9017 -0.7164  0.1203
  601MOL0     C79211   6.135  11.735  10.834 -0.1238 -0.1098 -1.1671
  601MOL0     C79212   6.133  11.846  10.724 -0.3522  0.2421 -0.1395
  601MOL0     C79213   6.173  11.975  10.785  0.3473  0.0000  0.4220
  601MOL0     C79214   6.223  12.057  10.659  0.0584  0.2960  0.1305
  601MOL0     C79215   6.284  12.193  10.696  0.1280  1.0213 -0.6026
  601MOL0     C79216   6.365  12.249  10.574 -0.6590  0.2976 -1.1183
  601MOL0     N79217   6.289  12.332  10.481 -0.1091  0.1687  0.2220
  601MOL0     C79218   6.215  12.442  10.506 -0.0043  0.2672 -0.2353
  601MOL0     C79219   6.159  12.475  10.388  1.2140 -0.1783 -0.2622
  601MOL0     C79220   6.061  12.589  10.371 -0.4368 -0.3713  0.4822
  601MOL0     C79221   6.135  12.720  10.421 -0.6699 -0.3215 -0.9144
  601MOL0     C79222   6.269  12.751  10.344  0.2129  0.9475  0.5520
  601MOL0     C79223   6.339  12.877  10.378  1.0687 -0.2758 -0.2323
  601MOL0     O79224   6.445  12.909  10.286  0.3250  0.3295 -0.4364
  601MOL0     C79225   6.570  12.849  10.307  0.0566  0.1412 -0.2227
  601MOL0     C79226   6.674  12.914  10.248  0.2866 -0.1329  0.9636
  601MOL0     C79227   6.805  12.866  10.250 -0.0843 -0.0708  0.5007
  601MOL0     C79228   6.830  12.756  10.340  0.3421 -0.0500 -0.4117
  601MOL0     C79229   6.971  12.720  10.380  0.5073 -0.2250  0.0306
  601MOL0     O79230   7.079  12.805  10.352 -0.4930  0.1202  0.0405
  601MOL0     C79231   7.211  12.794  10.397 -0.3544 -0.4668  0.8099
  601MOL0     C79232   7.287  12.913  10.381  0.3298  1.2103 -0.5500
  601MOL0     C79233   7.426  12.908  10.413  0.7679  0.0375 -0.1757
  601MOL0     C79234   7.489  12.798  10.462  0.7857  0.1895  0.5709
  601MOL0     O79235   7.617  12.823  10.508  0.1017 -0.0939 -0.3849
  601MOL0     C79236   7.665  12.731  10.606 -0.8367 -0.0640 -0.7332
  601MOL0     C79237   7.784  12.788  10.678 -0.1714  0.5076 -0.3231
  601MOL0     C79238   7.910  12.690  10.683  0.8004  0.1393 -0.9633
  601MOL0     C79239   8.018  12.745  10.757 -0.5234 -0.9304 -0.0241
  601MOL0     C79240   8.142  12.656  10.752 -0.8282  1.0005  0.4584
  601MOL0     C79241   8.262  12.740  10.786  0.6852  0.8386  0.4269
  601MOL0     C79242   8.390  12.659  10.791 -0.0976  0.6146  0.0928
  601MOL0     C79243   8.429  12.608  10.654 -0.5683 -0.6774  0.0436
  601MOL0    Cl79244   8.460  12.759  10.555 -0.2730  0.0417 -0.5322
  601MOL0     C79245   7.409  12.679  10.474  0.4244 -1.1918 -0.1158
  601MOL0     C79246   7.275  12.677  10.447  0.5292  0.5641  1.1155
  601MOL0     O79247   6.989  12.614  10.448  0.6579 -0.4612 -0.5826
  601MOL0     C79248   6.722  12.693  10.409  0.5001  0.0280  1.1365
  601MOL0     C79249   6.593  12.742  10.384 -1.0742  1.4325 -1.4664
  601MOL0     N79250   6.202  12.383  10.295 -0.1165 -0.4306 -0.6422
  601MOL0     N79251   6.276  12.296  10.349 -0.2479  0.2864 -0.1010
  601MOL0     C79252   6.327  11.334  10.688 -0.1458 -0.5825 -0.3938
  601MOL0     C79253   6.420  11.246  10.624 -0.9628  0.2500 -0.4706
  601MOL0     C79254   6.509  10.859  10.358  0.2869 -0.1716 -0.5015
  601MOL0     C79255   6.642  10.874  10.365  0.1660  0.6111 -0.1753
  601MOL0     C79256   6.721  10.789  10.280 -0.3675 -0.6039  0.7562
  601MOL0     C79257   6.668  10.716  10.174 -0.0487  0.7338  0.6595
  601MOL0     O79258   6.734  10.653  10.076 -0.4718 -0.0573 -0.1731
  601MOL0     C79259   6.865  10.626  10.105 -1.1653 -1.8245  1.2421
  601MOL0     C79260   6.925  10.560   9.976  0.1874  0.0281  0.2681
  601MOL0     C79261   6.905  10.652   9.855  0.2423  0.9736  0.1438
  601MOL0     C79262   6.981  10.619   9.730 -0.1580 -0.4592  0.9699
  601MOL0     C79263   7.008  10.742   9.650 -0.4994 -0.3671  0.6310
  601MOL0     C79264   7.026  10.830   9.571  0.0392 -0.3909  0.3241
  601MOL0     C79265   6.528  10.719  10.160  0.5032  0.1606 -0.7179
  601MOL0     C79266   6.450  10.772  10.267  0.3027  0.3742  0.0335
  601MOL0     H79267   6.236  10.963  10.661 -0.0486 -0.7360 -0.0013
  601MOL0     H79268   6.087  11.113  10.766 -0.8870 -1.2608 -2.0009
  601MOL0     H79269   6.265  11.483  10.918  0.0451 -1.7751  1.5927
  601MOL0     H79270   6.097  11.511  10.965  0.6223  0.4389 -0.3030
  601MOL0     H79271   6.021  11.570  10.751 -1.6095  1.7451  0.9079
  601MOL0     H79272   6.178  11.576  10.679 -3.6522 -0.2509 -1.5705
  601MOL0     H79273   6.239  11.741  10.868  0.0767 -1.6346 -1.4141
  601MOL0     H79274   6.058  11.742  10.911  1.9419  1.6020  0.8730
  601MOL0     H79275   6.201  11.826  10.641 -0.6552  2.4573 -0.9853
  601MOL0     H79276   6.034  11.859  10.679 -0.7566  1.4165  1.0235
  601MOL0     H79277   6.256  11.961  10.855  0.0767  1.1467  1.0074
  601MOL0     H79278   6.087  12.023  10.833 -0.9209  0.8160 -2.4474
  601MOL0     H79279   6.143  12.075  10.587 -0.2466 -0.3677  0.2986
  601MOL0     H79280   6.301  12.003  10.605  0.5824  0.5701  0.6053
  601MOL0     H79281   6.204  12.261  10.724 -2.8025 -0.8197 -3.6968
  601MOL0     H79282   6.350  12.173  10.781 -0.9935 -1.0065 -0.1434
  601MOL0     H79283   6.407  12.165  10.518 -0.1330 -0.4820  0.3997
  601MOL0     H79284   6.444  12.314  10.611  1.1282 -1.5650 -1.5187
  601MOL0     H79285   6.198  12.491  10.601 -1.2181  0.7695 -0.6979
  601MOL0     H79286   5.975  12.565  10.433 -0.3863  1.8879  1.5226
  601MOL0     H79287   6.022  12.607  10.270 -2.8442 -2.1512  1.0248
  601MOL0     H79288   6.151  12.715  10.529  1.1271  1.4685 -1.0480
  601MOL0     H79289   6.063  12.800  10.403 -0.7205  0.1576  1.2384
  601MOL0     H79290   6.334  12.664  10.327 -2.8930 -0.9848 -2.9211
  601MOL0     H79291   6.243  12.769  10.239 -0.6828  1.6496  0.8822
  601MOL0     H79292   6.384  12.866  10.477  0.3004 -2.2431 -0.0755
  601MOL0     H79293   6.268  12.959  10.389  2.3060  0.4349  4.2424
  601MOL0     H79294   6.656  13.004  10.191 -3.8191 -1.4161 -0.1434
  601MOL0     H79295   6.877  12.927  10.195  0.1372  0.0633  0.9367
  601MOL0     H79296   7.241  12.993  10.324  0.5517  2.6358  1.1755
  601MOL0     H79297   7.478  12.998  10.384  2.9961 -1.5136 -1.3209
  601MOL0     H79298   7.695  12.640  10.553  0.3618 -0.0987 -0.0370
  601MOL0     H79299   7.593  12.709  10.685  3.1608 -3.3215  2.4339
  601MOL0     H79300   7.750  12.810  10.780  0.8427  2.3890 -0.3463
  601MOL0     H79301   7.807  12.884  10.631  0.2850  0.9765  0.8143
  601MOL0     H79302   7.939  12.674  10.578 -2.4115 -1.4874 -1.7103
  601MOL0     H79303   7.890  12.586  10.709  3.2547 -1.5202 -4.7530
  601MOL0     H79304   8.060  12.828  10.700 -0.2148  0.6423  2.3805
  601MOL0     H79305   8.007  12.780  10.860  0.6424 -2.4231  0.6451
  601MOL0     H79306   8.164  12.613  10.654  0.0120  1.4567  0.4400
  601MOL0     H79307   8.123  12.577  10.826 -3.1617 -0.3969 -1.4670
  601MOL0     H79308   8.249  12.789  10.883  0.6933  1.1561  0.2674
  601MOL0     H79309   8.263  12.814  10.706 -0.7293 -2.4202 -2.8969
  601MOL0     H79310   8.468  12.729  10.824  0.5630  0.3913 -0.9436
  601MOL0     H79311   8.383  12.581  10.867 -1.4316  1.8334  1.2961
  601MOL0     H79312   8.343  12.564  10.605 -0.5565 -1.1160  0.4096
  601MOL0     H79313   8.514  12.540  10.642 -0.6233 -1.3299  2.6691
  601MOL0     H79314   7.460  12.590  10.508 -0.0691 -0.7712  1.8479
  601MOL0     H79315   7.213  12.587  10.445  0.7127  0.3888 -2.2197
  601MOL0     H79316   6.735  12.601  10.466 -0.5999 -0.0635  1.2485
  601MOL0     H79317   6.513  12.694  10.440 -0.6156  1.3669 -0.8508
  601MOL0     H79318   6.358  11.437  10.687  1.1037 -0.8964  1.6782
  601MOL0     H79319   6.515  11.281  10.586 -0.7769  2.1870  1.5957
  601MOL0     H79320   6.688  10.938  10.440  1.1174 -1.8973  1.5043
  601MOL0     H79321   6.828  10.786  10.294  0.0829 -1.3252 -2.2002
  601MOL0     H79322   6.879  10.557  10.190 -0.8856 -3.1082  0.1943
  601MOL0     H79323   6.924  10.716  10.125 -1.2518 -1.3375 -0.5556
  601MOL0     H79324   7.032  10.548   9.995 -0.0996 -1.3416  1.2347
  601MOL0     H79325   6.873  10.464   9.970 -0.6623  0.5808 -2.9567
  601MOL0     H79326   6.934  10.752   9.888 -1.7263  1.2516  1.1595
  601MOL0     H79327   6.799  10.652   9.829  0.2684 -1.7993 -0.2346
  601MOL0     H79328   7.079  10.576   9.754  0.6104 -0.2605 -1.5625
  601MOL0     H79329   6.929  10.552   9.661 -1.5363  2.1236 -0.6746
  601MOL0     H79330   7.041  10.899   9.490 -1.3498  0.0060  0.3711
  601MOL0     H79331   6.480  10.673  10.075 -0.6088  3.3436 -1.9674
  601MOL0     H79332   6.342  10.760  10.266  0.1377  1.2458  2.2044
  602MOL0     O79333   3.401   2.470  11.087  0.5209 -0.4660  0.2192
  602MOL0     C79334   3.485   2.552  11.052  0.4142  0.2619 -0.4082
  602MOL0     O79335   3.449   2.675  11.017 -0.5583 -0.0586  0.8158
  602MOL0     C79336   3.310   2.706  11.027  0.3825 -0.1416  0.7061
  602MOL0     C79337   3.234   2.740  11.143 -0.8448  0.2567 -0.1980
  602MOL0     C79338   3.102   2.781  11.129 -0.4359 -0.7021  0.1150
  602MOL0     C79339   3.040   2.785  11.002  0.3488 -0.1854 -0.9634
  602MOL0     O79340   2.919   2.845  10.987  0.1990  0.2239 -0.4578
  602MOL0     C79341   2.907   2.980  11.035  0.2431 -0.0979  0.8903
  602MOL0     C79342   2.836   3.082  10.949 -0.0056  0.1107  0.2881
  602MOL0     C79343   2.685   3.042  10.911  0.2377 -0.1330 -0.5953
  602MOL0     C79344   2.574   3.042  11.024  0.2638  0.7352 -0.6005
  602MOL0     C79345   2.441   2.972  10.991 -0.3986  0.5521  0.0442
  602MOL0     C79346   2.389   3.007  10.843 -0.9069  0.1685 -0.0604
  602MOL0     C79347   2.255   2.950  10.802  0.0608  0.5092  1.0223
  602MOL0     C79348   2.140   3.014  10.871 -0.3497  0.2225  0.6467
  602MOL0     N79349   2.012   2.970  10.817  0.4036  0.0281 -0.2734
  602MOL0     C79350   1.967   2.989  10.687  0.8371  0.0201  0.4396
  602MOL0     C79351   1.838   2.933  10.681 -0.4711 -0.9969  1.7645
  602MOL0     C79352   1.750   2.928  10.551  0.4025 -0.5354 -0.6004
  602MOL0     C79353   1.773   2.812  10.460 -0.2400  0.1261 -0.8577
  602MOL0     C79354   1.710   2.848  10.328 -0.3262  0.0587  0.0909
  602MOL0     C79355   1.559   2.901  10.325 -0.5860 -0.0803 -0.4404
  602MOL0     O79356   1.455   2.803  10.348  0.0328  0.2507  0.4447
  602MOL0     C79357   1.326   2.843  10.350 -0.0142 -0.5463 -0.5169
  602MOL0     C79358   1.281   2.957  10.411 -0.3245  0.2685 -0.3023
  602MOL0     C79359   1.141   2.990  10.422 -0.5089  0.0077  0.0236
  602MOL0     C79360   1.050   2.897  10.371  0.1638  0.8917  1.6812
  602MOL0     C79361   0.902   2.919  10.388  0.1123 -0.1087 -0.0796
  602MOL0     O79362   0.825   2.801  10.379 -0.1513 -0.4237  0.3055
  602MOL0     C79363   0.692   2.799  10.408 -0.5126 -0.8591 -0.4318
  602MOL0     C79364   0.636   2.875  10.514  0.1592 -0.2132 -0.5480
  602MOL0     C79365   0.493   2.862  10.534 -1.3976  0.2054 -0.3410
  602MOL0     C79366   0.411   2.779  10.448 -1.3938 -0.8565  0.4851
  602MOL0     O79367   0.279   2.767  10.461 -0.0113  0.0693  0.4584
  602MOL0     C79368   0.213   2.751  10.336 -0.1670  0.2480  0.2867
  602MOL0     C79369   0.063   2.785  10.358  0.3364 -0.3997  0.8545
  602MOL0     C79370   0.027   2.711  10.486 -0.7007 -0.2496  0.1878
  602MOL0     C79371  -0.118   2.671  10.501 -0.4083  0.7261 -0.5001
  602MOL0     C79372  -0.211   2.796  10.501 -0.0968  1.1061 -0.2788
  602MOL0     C79373  -0.354   2.758  10.534  0.4803 -0.0358  0.3582
  602MOL0     C79374  -0.449   2.877  10.512  0.6462 -1.2370 -0.3236
  602MOL0     C79375  -0.595   2.844  10.553 -1.0099 -0.7724  0.4836
  602MOL0    Cl79376  -0.701   2.966  10.488  0.0820 -0.0936 -0.1611
  602MOL0     C79377   0.473   2.702  10.346  0.1638  0.4407  0.0736
  602MOL0     C79378   0.621   2.705  10.340 -0.5014  0.0401  0.1328
  602MOL0     O79379   0.863   3.028  10.433  0.7865  0.1095 -0.0515
  602MOL0     C79380   1.103   2.783  10.305  0.3470 -0.0870  0.1876
  602MOL0     C79381   1.238   2.751  10.297  0.2228 -0.4118  0.5085
  602MOL0     N79382   1.816   2.879  10.803 -0.5402  0.6761  0.0401
  602MOL0     N79383   1.915   2.902  10.885  0.1279  0.2736  0.7117
  602MOL0     C79384   3.105   2.724  10.891  0.4612 -0.6049  0.4757
  602MOL0     C79385   3.239   2.699  10.901 -0.3017 -0.4232  0.5586
  602MOL0     C79386   3.636   2.521  11.078 -0.5624  0.1128  1.2831
  602MOL0     C79387   3.729   2.627  11.076  0.0233  0.0571  0.3130
  602MOL0     C79388   3.864   2.601  11.107  0.0172  0.4462 -0.7013
  602MOL0     C79389   3.903   2.473  11.126  0.0715 -0.0061 -0.7022
  602MOL0     O79390   4.038   2.458  11.137 -0.0357  0.3917  0.8087
  602MOL0     C79391   4.107   2.330  11.120  0.5553 -0.5953  0.9576
  602MOL0     C79392   4.247   2.349  11.178 -0.0559  0.2378 -0.9026
  602MOL0     C79393   4.319   2.221  11.200 -0.4926 -0.4927  0.1201
  602MOL0     C79394   4.444   2.210  11.100 -0.3967  0.4253 -0.4155
  602MOL0     C79395   4.531   2.113  11.167  0.2545 -0.4594 -0.1236
  602MOL0     C79396   4.611   2.033  11.208  0.1514 -0.5243 -0.1476
  602MOL0     C79397   3.813   2.363  11.116  0.0512 -0.0624  0.2169
  602MOL0     C79398   3.676   2.396  11.107  0.8384 -0.1058  0.3118
  602MOL0     H79399   3.286   2.736  11.238  0.8448 -2.0134 -1.1196
  602MOL0     H79400   3.049   2.832  11.209  0.5184 -0.4667  0.6045
  602MOL0     H79401   3.006   3.017  11.063 -0.6577  2.9420  0.3950
  602MOL0     H79402   2.851   2.976  11.129  0.3096  0.5493  0.9640
  602MOL0     H79403   2.895   3.100  10.859  1.0453 -1.9932  0.5002
  602MOL0     H79404   2.833   3.179  11.000  1.6244  0.2012  0.2540
  602MOL0     H79405   2.683   2.941  10.869 -0.1909 -0.7902  0.9487
  602MOL0     H79406   2.650   3.107  10.830 -1.7000  0.7171  0.8488
  602MOL0     H79407   2.603   2.991  11.116  3.3829 -0.6036 -2.1557
  602MOL0     H79408   2.556   3.147  11.048 -3.2123  0.0103  0.4280
  602MOL0     H79409   2.361   3.001  11.060  0.0783 -1.8186  1.7258
  602MOL0     H79410   2.449   2.863  10.997 -0.1055  0.5967  0.5544
  602MOL0     H79411   2.457   2.964  10.769  1.7116 -0.7466  2.6186
  602MOL0     H79412   2.392   3.116  10.839  0.3542  0.1195 -1.8575
  602MOL0     H79413   2.239   2.966  10.695  1.3960  0.9414  0.8712
  602MOL0     H79414   2.248   2.844  10.828  0.2149  0.8062  2.3532
  602MOL0     H79415   2.145   3.122  10.855 -1.4732  0.3914  1.3672
  602MOL0     H79416   2.148   2.985  10.976 -1.7374  1.8713  1.2590
  602MOL0     H79417   2.024   3.028  10.604 -0.2029 -3.0264 -1.8965
  602MOL0     H79418   1.766   3.024  10.503 -2.0556 -0.9082 -2.3578
  602MOL0     H79419   1.645   2.917  10.583  0.8679 -3.9216  0.1766
  602MOL0     H79420   1.721   2.724  10.499  0.1824 -1.4480 -3.6176
  602MOL0     H79421   1.878   2.787  10.446 -0.4192 -1.7889  0.7286
  602MOL0     H79422   1.769   2.934  10.293 -0.1360  0.4371  1.2954
  602MOL0     H79423   1.720   2.758  10.266 -3.1334 -2.1466  2.5323
  602MOL0     H79424   1.544   2.944  10.225 -0.7377  0.8087 -0.0466
  602MOL0     H79425   1.552   2.978  10.402  5.7782  1.2197 -0.6180
  602MOL0     H79426   1.355   3.030  10.442  0.9072  0.4159 -3.1988
  602MOL0     H79427   1.120   3.085  10.470  0.9521 -0.0203  0.7459
  602MOL0     H79428   0.691   2.941  10.580  0.8043  0.1380 -1.4145
  602MOL0     H79429   0.433   2.913  10.608  0.0380  0.7320  0.4793
  602MOL0     H79430   0.215   2.644  10.313 -0.1926 -0.1834  2.1463
  602MOL0     H79431   0.243   2.810  10.249 -1.1632 -1.4315 -1.2799
  602MOL0     H79432  -0.002   2.749  10.278  0.6184  3.0454 -1.1453
  602MOL0     H79433   0.028   2.885  10.387 -0.2932 -1.1371  2.7651
  602MOL0     H79434   0.063   2.774  10.568  2.1807 -4.1515  2.2647
  602MOL0     H79435   0.084   2.618  10.495  2.4207  0.9517 -3.8719
  602MOL0     H79436  -0.137   2.590  10.431  5.9943 -0.5231 -1.4719
  602MOL0     H79437  -0.148   2.632  10.598 -4.3294  0.0349 -1.8135
  602MOL0     H79438  -0.195   2.832  10.399  1.8554  0.3783 -0.2767
  602MOL0     H79439  -0.165   2.868  10.569  1.4093 -2.1667  2.4574
  602MOL0     H79440  -0.361   2.723  10.638 -0.5474  1.4628  0.8195
  602MOL0     H79441  -0.378   2.680  10.461  2.2436 -1.0827  0.8334
  602MOL0     H79442  -0.421   2.963  10.572  1.2128 -1.9902  0.5147
  602MOL0     H79443  -0.436   2.905  10.407 -0.0463 -0.1245 -0.1318
  602MOL0     H79444  -0.599   2.843  10.663  1.3459  1.7119  0.6887
  602MOL0     H79445  -0.629   2.743  10.527 -1.0862 -0.6113 -0.0542
  602MOL0     H79446   0.421   2.640  10.274  1.3293 -0.4204 -0.0680
  602MOL0     H79447   0.660   2.629  10.273 -2.8868 -1.5127  0.3647
  602MOL0     H79448   1.034   2.710  10.265  0.6393  1.2992 -3.1373
  602MOL0     H79449   1.289   2.662  10.260 -1.4930 -1.2324  0.0340
  602MOL0     H79450   3.051   2.710  10.798  1.0790  0.1217 -0.0097
  602MOL0     H79451   3.295   2.659  10.817  3.0313  1.0586  1.9002
  602MOL0     H79452   3.688   2.726  11.063 -1.8703 -0.5692  1.1200
  602MOL0     H79453   3.939   2.679  11.109 -0.1227  0.5600  0.5766
  602MOL0     H79454   4.121   2.298  11.017 -1.2005  2.4143 -0.3415
  602MOL0     H79455   4.054   2.254  11.179  1.0666  0.9528  3.5992
  602MOL0     H79456   4.305   2.414  11.111 -0.3509  0.3909 -1.0137
  602MOL0     H79457   4.227   2.396  11.274  2.9120  0.3166 -0.2303
  602MOL0     H79458   4.253   2.137  11.176 -0.2777 -0.7622  0.4575
  602MOL0     H79459   4.342   2.224  11.307 -0.9429 -3.6682  0.4131
  602MOL0     H79460   4.412   2.169  11.004  0.2592  1.2859 -1.0241
  602MOL0     H79461   4.502   2.298  11.070 -1.0861 -0.1812 -4.0505
  602MOL0     H79462   4.684   1.968  11.250  0.8427  0.2398 -0.1390
  602MOL0     H79463   3.842   2.263  11.144 -0.4683 -1.0802 -2.5204
  602MOL0     H79464   3.609   2.320  11.146 -2.0531  1.7747 -0.6537
  603MOL0     O79465  10.930   5.834   2.744 -0.3375 -0.0311  0.5359
  603MOL0     C79466  10.902   5.925   2.823  0.0283  0.0393  0.1094
  603MOL0     O79467  10.991   5.984   2.907  0.0237  0.3771 -0.2259
  603MOL0     C79468  11.104   5.931   2.943  0.1211  1.4543 -0.2607
  603MOL0     C79469  11.148   5.795   2.933 -0.4669 -0.2247 -1.1540
  603MOL0     C79470  11.278   5.761   2.962  0.2807  0.3453 -0.5087
  603MOL0     C79471  11.370   5.857   3.011  0.7308 -0.5841  0.0474
  603MOL0     O79472  11.487   5.808   3.053 -0.0968  0.3992 -0.1580
  603MOL0     C79473  11.569   5.880   3.146  0.0610  0.3875  0.4425
  603MOL0     C79474  11.514   5.888   3.281 -0.0702  0.5559 -0.6132
  603MOL0     C79475  11.626   5.936   3.378  0.4770 -0.3868  0.1363
  603MOL0     C79476  11.561   6.016   3.497 -1.1009  1.5741  0.4646
  603MOL0     C79477  11.648   6.138   3.529 -0.2799  0.2915 -0.5162
  603MOL0     C79478  11.772   6.127   3.616 -0.6159  0.9096  0.6090
  603MOL0     C79479  11.864   6.251   3.641 -0.3216 -0.8003 -0.9375
  603MOL0     C79480  12.007   6.237   3.649 -0.0067 -0.2321  0.8905
  603MOL0     N79481  12.065   6.218   3.513  1.1813  0.6615 -0.5077
  603MOL0     C79482  12.087   6.320   3.427  0.6220  0.5450  0.5729
  603MOL0     C79483  12.110   6.260   3.305 -0.4599  0.2508  0.6058
  603MOL0     C79484  12.118   6.335   3.177 -0.3776  0.3473 -0.7240
  603MOL0     C79485  11.961   6.356   3.139 -0.6988  0.1280 -0.3518
  603MOL0     C79486  11.880   6.234   3.106 -0.0482  0.6962 -0.2905
  603MOL0     C79487  11.744   6.266   3.058 -0.3642 -0.8715 -0.1074
  603MOL0     O79488  11.642   6.278   3.163 -0.4222  0.1293  0.2905
  603MOL0     C79489  11.523   6.337   3.131  0.0033  0.1520  0.3805
  603MOL0     C79490  11.444   6.376   3.252  0.0761  0.3231  0.4650
  603MOL0     C79491  11.314   6.419   3.232  0.2921 -0.6074  0.3248
  603MOL0     C79492  11.255   6.431   3.103  0.0291 -0.2737  0.2256
  603MOL0     C79493  11.111   6.464   3.093 -0.5596 -0.0081  0.0385
  603MOL0     O79494  11.050   6.416   2.987 -0.2192  0.4113 -0.1849
  603MOL0     C79495  10.924   6.455   2.957 -0.0173 -0.0848 -0.3495
  603MOL0     C79496  10.804   6.395   2.997  0.3065  0.5083 -0.5455
  603MOL0     C79497  10.681   6.460   2.990 -0.0730 -1.1529 -0.2718
  603MOL0     C79498  10.674   6.570   2.908 -0.1124 -0.2852  0.1675
  603MOL0     O79499  10.553   6.635   2.891  0.1881  0.2999 -0.4228
  603MOL0     C79500  10.482   6.603   2.768  0.1973 -0.0164 -0.0666
  603MOL0     C79501  10.398   6.474   2.781  0.4133 -0.1788 -0.0250
  603MOL0     C79502  10.289   6.455   2.670 -0.7436  0.4516  0.6515
  603MOL0     C79503  10.367   6.460   2.536  0.0421 -0.6598  0.5117
  603MOL0     C79504  10.281   6.422   2.409  0.3557  0.2480  0.0608
  603MOL0     C79505  10.195   6.294   2.419 -1.5492  0.0609  0.5612
  603MOL0     C79506  10.284   6.158   2.429  0.3488 -0.0253  0.4515
  603MOL0     C79507  10.195   6.041   2.384  1.0642  0.0610  0.9780
  603MOL0    Cl79508  10.037   6.042   2.460 -0.5100 -0.4949  0.0634
  603MOL0     C79509  10.787   6.635   2.864 -0.5342  1.0786 -0.5600
  603MOL0     C79510  10.915   6.582   2.893 -0.4477 -0.1082 -0.7081
  603MOL0     O79511  11.067   6.537   3.182  0.1733  0.6826  0.5988
  603MOL0     C79512  11.338   6.410   2.990 -0.0119 -0.1018  0.3499
  603MOL0     C79513  11.467   6.362   3.005 -0.5390 -0.5247 -0.1423
  603MOL0     N79514  12.103   6.122   3.321 -0.4673 -0.1717 -0.9121
  603MOL0     N79515  12.080   6.100   3.449  0.5661 -0.1285  0.3337
  603MOL0     C79516  11.323   5.990   3.028  0.9389  1.2301  0.0129
  603MOL0     C79517  11.191   6.019   3.002  0.8101 -0.4547  0.1500
  603MOL0     C79518  10.754   5.969   2.819 -0.3970  0.0785  0.1425
  603MOL0     C79519  10.710   6.066   2.909  0.0117  0.6274 -0.2712
  603MOL0     C79520  10.569   6.097   2.900  0.1641 -0.2182 -0.3060
  603MOL0     C79521  10.477   6.043   2.816  0.1013  0.1784 -0.0512
  603MOL0     O79522  10.349   6.077   2.816 -0.3637 -0.0718 -1.1038
  603MOL0     C79523  10.249   5.970   2.809  0.0253 -0.5552  0.1434
  603MOL0     C79524  10.108   6.032   2.800 -0.3803  0.1700  0.0581
  603MOL0     C79525  10.077   6.119   2.921 -0.5451  0.5136 -0.2171
  603MOL0     C79526   9.959   6.207   2.908  0.5977  0.8270  0.0299
  603MOL0     C79527   9.840   6.125   2.871  0.2361 -0.5304  0.7336
  603MOL0     C79528   9.746   6.063   2.832  0.0930  0.2558  0.6396
  603MOL0     C79529  10.522   5.950   2.725 -0.2742 -0.2179  0.3066
  603MOL0     C79530  10.658   5.902   2.736  0.0609 -0.3267 -0.9372
  603MOL0     H79531  11.086   5.715   2.892  2.5615 -2.5944 -1.5015
  603MOL0     H79532  11.303   5.656   2.963 -2.8479 -0.5074  0.9226
  603MOL0     H79533  11.605   5.979   3.116  0.1930  0.8408  2.0370
  603MOL0     H79534  11.663   5.825   3.141 -1.3190 -2.0753  0.2508
  603MOL0     H79535  11.475   5.793   3.320 -2.3436  1.3997 -0.6544
  603MOL0     H79536  11.422   5.948   3.285 -1.8095 -1.6837 -3.2641
  603MOL0     H79537  11.694   5.999   3.320  0.3047 -1.4508 -1.2902
  603MOL0     H79538  11.683   5.855   3.423 -1.7131 -1.9941  0.2232
  603MOL0     H79539  11.457   6.045   3.480 -2.1911 -2.1099 -0.0374
  603MOL0     H79540  11.557   5.948   3.582  2.6530  0.6027  0.0171
  603MOL0     H79541  11.589   6.218   3.575  1.3727 -0.2847  2.9289
  603MOL0     H79542  11.683   6.190   3.440 -0.6013  1.2166 -0.1185
  603MOL0     H79543  11.834   6.046   3.579 -1.0369  0.6463  0.4836
  603MOL0     H79544  11.748   6.091   3.717  1.7855 -1.9728  0.2984
  603MOL0     H79545  11.864   6.322   3.557 -0.6841  2.0656  1.3390
  603MOL0     H79546  11.830   6.315   3.723 -0.3603  0.1820 -1.6982
  603MOL0     H79547  12.040   6.152   3.709  0.4048 -2.1897 -1.9216
  603MOL0     H79548  12.047   6.333   3.684 -1.5577  1.3476 -1.3608
  603MOL0     H79549  12.079   6.428   3.434 -2.6189  0.3695  1.1633
  603MOL0     H79550  12.168   6.283   3.094 -1.4380 -2.0304  0.0372
  603MOL0     H79551  12.183   6.423   3.181  0.6829 -0.2765 -2.7605
  603MOL0     H79552  11.977   6.427   3.057  2.6414 -0.2470 -0.1553
  603MOL0     H79553  11.913   6.406   3.223 -2.1610  0.2234 -1.2027
  603MOL0     H79554  11.935   6.168   3.038 -0.2716 -0.1475  0.3275
  603MOL0     H79555  11.862   6.177   3.198  3.8212 -1.0296 -0.3986
  603MOL0     H79556  11.701   6.186   2.997 -0.9831  0.8362 -2.0511
  603MOL0     H79557  11.741   6.352   2.991 -3.7553 -0.7092  0.0988
  603MOL0     H79558  11.472   6.350   3.353 -1.6280  1.2711  1.2370
  603MOL0     H79559  11.259   6.443   3.322  0.1193  0.3663 -0.0287
  603MOL0     H79560  10.811   6.305   3.058 -4.2122 -0.9668 -1.8018
  603MOL0     H79561  10.587   6.435   3.039 -0.2491  0.2302  0.1286
  603MOL0     H79562  10.555   6.584   2.689  0.8174 -3.2782  1.1215
  603MOL0     H79563  10.421   6.690   2.744  0.3457  0.4548  1.1567
  603MOL0     H79564  10.344   6.481   2.876 -1.3227  2.5558 -1.0769
  603MOL0     H79565  10.460   6.384   2.782 -1.0079 -1.1919  0.3507
  603MOL0     H79566  10.207   6.527   2.666 -1.7721 -0.7302 -2.2584
  603MOL0     H79567  10.255   6.351   2.674  0.6367 -0.0886 -0.8572
  603MOL0     H79568  10.409   6.559   2.519  0.2737 -0.8985 -0.3511
  603MOL0     H79569  10.442   6.381   2.542  2.3083  1.4289  1.0875
  603MOL0     H79570  10.350   6.399   2.327 -1.0042 -1.9339 -0.5353
  603MOL0     H79571  10.231   6.517   2.390  2.1255  1.0726 -0.7604
  603MOL0     H79572  10.130   6.303   2.332  0.6484 -0.7292 -1.2827
  603MOL0     H79573  10.137   6.306   2.511 -1.5456  0.6122  0.4959
  603MOL0     H79574  10.380   6.162   2.377  0.3715 -1.4874  0.3538
  603MOL0     H79575  10.303   6.139   2.534 -0.2151 -2.1408  0.2197
  603MOL0     H79576  10.248   5.946   2.401  0.2534 -0.7157 -0.5889
  603MOL0     H79577  10.178   6.036   2.276  2.7604 -2.1699  0.7309
  603MOL0     H79578  10.789   6.734   2.820  1.6143  2.1337  1.6871
  603MOL0     H79579  11.013   6.626   2.876 -0.7608  0.2991 -1.5579
  603MOL0     H79580  11.293   6.427   2.893 -0.3870  0.0902  0.5561
  603MOL0     H79581  11.517   6.349   2.909 -1.9503  0.2775 -1.0371
  603MOL0     H79582  11.391   6.069   3.059  0.3514  1.5823  0.4246
  603MOL0     H79583  11.148   6.118   3.006  3.1270  0.5864  0.7309
  603MOL0     H79584  10.783   6.110   2.975 -0.0431 -2.9744  2.5147
  603MOL0     H79585  10.526   6.166   2.971 -2.7037 -2.7420  0.6619
  603MOL0     H79586  10.261   5.901   2.893  2.3815 -0.1097  0.2429
  603MOL0     H79587  10.263   5.907   2.720 -0.5014 -1.8577  0.9461
  603MOL0     H79588  10.096   6.096   2.711 -5.0298 -0.0818  0.2611
  603MOL0     H79589  10.040   5.948   2.784 -2.2194  1.5943 -0.0135
  603MOL0     H79590  10.163   6.171   2.963 -1.0008  1.6188 -0.6067
  603MOL0     H79591  10.047   6.047   2.998  0.9034 -1.2051 -1.1744
  603MOL0     H79592   9.950   6.271   2.997  0.6672  1.1786 -0.2141
  603MOL0     H79593   9.983   6.279   2.830  1.3415 -0.1453 -0.6678
  603MOL0     H79594   9.649   6.019   2.816 -0.7450  2.5351 -1.1519
  603MOL0     H79595  10.454   5.893   2.662  0.9158 -1.0840 -0.2205
  603MOL0     H79596  10.689   5.812   2.684  1.5724 -1.2741  1.4223
  604MOL0     O79597   6.211   3.668  10.426 -0.2725  0.2855  0.2291
  604MOL0     C79598   6.219   3.717  10.315  0.0552 -0.5333  0.9907
  604MOL0     O79599   6.331   3.728  10.249  0.3544  0.5167  0.5119
  604MOL0     C79600   6.456   3.689  10.294 -0.0545 -1.0123 -0.6907
  604MOL0     C79601   6.482   3.588  10.383 -0.5330  0.0573  0.4489
  604MOL0     C79602   6.612   3.547  10.425 -0.2081  0.0610 -0.9193
  604MOL0     C79603   6.729   3.606  10.367  0.3608 -0.0408 -0.1796
  604MOL0     O79604   6.855   3.593  10.408 -0.6587 -0.0025  0.6723
  604MOL0     C79605   6.880   3.609  10.547 -1.0243 -0.6430  0.0334
  604MOL0     C79606   7.032   3.646  10.558 -0.0920  0.4236  0.3178
  604MOL0     C79607   7.129   3.533  10.566  0.6320  0.7121 -0.3173
  604MOL0     C79608   7.271   3.589  10.566 -0.0105  0.4061  0.0272
  604MOL0     C79609   7.363   3.515  10.657  0.0855 -0.1651 -0.2763
  604MOL0     C79610   7.383   3.372  10.619 -0.9516 -0.0663 -0.0925
  604MOL0     C79611   7.472   3.353  10.492  0.6003  0.6373 -0.9505
  604MOL0     C79612   7.501   3.213  10.443  1.2169  0.0412 -0.4062
  604MOL0     N79613   7.382   3.133  10.409  0.1989  0.6629  0.0584
  604MOL0     C79614   7.369   2.993  10.414 -0.6225 -1.1558  0.3953
  604MOL0     C79615   7.246   2.974  10.365 -0.1146 -0.3509 -0.0279
  604MOL0     C79616   7.185   2.835  10.343 -0.0726 -0.0956  0.0482
  604MOL0     C79617   7.027   2.856  10.326 -0.6550 -0.3075 -0.2118
  604MOL0     C79618   6.941   2.728  10.346  0.2263  1.2355  0.7315
  604MOL0     C79619   6.792   2.759  10.336  0.6688 -0.6330 -1.3640
  604MOL0     O79620   6.711   2.660  10.402 -0.5073  0.5862  0.0721
  604MOL0     C79621   6.578   2.668  10.404  0.6617 -0.5398  0.3374
  604MOL0     C79622   6.509   2.771  10.324  0.3836  0.8677  0.1601
  604MOL0     C79623   6.371   2.757  10.312 -0.0655  0.0813 -0.1595
  604MOL0     C79624   6.293   2.659  10.385 -1.0696  0.3611 -0.7832
  604MOL0     C79625   6.143   2.663  10.377  0.0847 -0.2584 -0.6853
  604MOL0     O79626   6.081   2.578  10.461 -0.2196  0.0020 -0.2570
  604MOL0     C79627   5.961   2.533  10.433 -0.0053  0.0625 -0.5878
  604MOL0     C79628   5.942   2.397  10.393  0.7288 -0.8203 -0.1712
  604MOL0     C79629   5.810   2.360  10.358 -0.3962  0.1218  0.0749
  604MOL0     C79630   5.700   2.451  10.387 -0.5333 -0.2845  0.4143
  604MOL0     O79631   5.574   2.405  10.373 -0.4042  0.2917  0.0363
  604MOL0     C79632   5.529   2.354  10.499  0.3297  0.0191 -0.3206
  604MOL0     C79633   5.382   2.306  10.485 -0.7263  0.0399 -0.4298
  604MOL0     C79634   5.285   2.413  10.460 -0.1549 -1.2248  0.4818
  604MOL0     C79635   5.152   2.356  10.397  0.2145 -0.2960  1.1700
  604MOL0     C79636   5.080   2.459  10.318  0.5101 -0.0249  0.3898
  604MOL0     C79637   4.963   2.391  10.238  0.2468 -0.3757  0.5265
  604MOL0     C79638   4.880   2.496  10.159 -0.3806  1.0618  0.2621
  604MOL0     C79639   4.746   2.434  10.116 -0.8757 -0.1447  0.0253
  604MOL0    Cl79640   4.767   2.278  10.032  0.6098 -0.1717 -0.1736
  604MOL0     C79641   5.724   2.585  10.412  0.0584  0.1904  0.0283
  604MOL0     C79642   5.852   2.627  10.444 -0.0429 -0.0779 -0.6059
  604MOL0     O79643   6.092   2.717  10.282  0.3357 -0.1080  0.2981
  604MOL0     C79644   6.372   2.573  10.472  0.6310 -0.5217 -0.2212
  604MOL0     C79645   6.513   2.575  10.478  0.3320 -0.8296  1.1486
  604MOL0     N79646   7.187   3.093  10.329 -0.7457 -0.0883  0.2177
  604MOL0     N79647   7.269   3.188  10.359  0.6004  0.0256 -1.1076
  604MOL0     C79648   6.702   3.693  10.257 -0.2462 -0.1653  0.8706
  604MOL0     C79649   6.566   3.741  10.229 -0.9003 -0.3050  0.2550
  604MOL0     C79650   6.088   3.746  10.251  0.0305 -0.0935  0.4486
  604MOL0     C79651   5.972   3.744  10.327  0.2861 -0.0723  0.5387
  604MOL0     C79652   5.842   3.759  10.277  0.5562 -0.0152  0.1065
  604MOL0     C79653   5.822   3.779  10.141  0.3452 -0.3078  0.1595
  604MOL0     O79654   5.695   3.790  10.084 -0.0587 -0.6044  0.2789
  604MOL0     C79655   5.578   3.794  10.173  0.8737 -0.4691 -0.1184
  604MOL0     C79656   5.450   3.770  10.092  0.5001 -0.9870  0.3563
  604MOL0     C79657   5.317   3.794  10.163 -0.0696 -0.0381  0.3469
  604MOL0     C79658   5.205   3.802  10.061 -0.2694  1.2112 -0.1379
  604MOL0     C79659   5.085   3.847  10.126  0.1841 -0.5841  0.8778
  604MOL0     C79660   4.972   3.865  10.177 -0.8675  0.3719 -0.8630
  604MOL0     C79661   5.939   3.792  10.059  0.4939 -0.3896 -0.5023
  604MOL0     C79662   6.066   3.774  10.112 -0.4228 -0.6947 -0.2118
  604MOL0     H79663   6.395   3.535  10.421 -1.7254  1.6318 -0.0062
  604MOL0     H79664   6.611   3.474  10.506 -0.7307 -1.1926 -2.0214
  604MOL0     H79665   6.867   3.519  10.607 -0.7938  0.5926  2.0257
  604MOL0     H79666   6.830   3.697  10.589  2.4426  0.3927  2.4534
  604MOL0     H79667   7.051   3.699  10.652  1.1724  1.6042 -0.5722
  604MOL0     H79668   7.054   3.714  10.475 -0.7464  0.4646  0.1746
  604MOL0     H79669   7.114   3.479  10.473  1.0042  0.1033 -0.0306
  604MOL0     H79670   7.100   3.475  10.654 -0.1245  1.2646 -0.1930
  604MOL0     H79671   7.291   3.590  10.458  0.7396 -3.0691  0.0238
  604MOL0     H79672   7.257   3.692  10.601 -1.4742  0.4264 -0.5247
  604MOL0     H79673   7.323   3.521  10.759  0.0418 -0.5001 -0.2709
  604MOL0     H79674   7.450   3.581  10.657 -0.3070  0.4273  1.6855
  604MOL0     H79675   7.290   3.315  10.614  1.0566 -3.7278  1.0400
  604MOL0     H79676   7.435   3.326  10.703  0.5537  0.0261 -0.9391
  604MOL0     H79677   7.424   3.396  10.403 -0.3706 -0.2274 -0.8594
  604MOL0     H79678   7.565   3.409  10.503  1.9501 -1.5332 -0.9122
  604MOL0     H79679   7.557   3.168  10.524  1.1414  3.1457  1.5378
  604MOL0     H79680   7.560   3.228  10.352 -1.2000  4.0263 -1.6044
  604MOL0     H79681   7.445   2.921  10.442  1.3184  1.2359  1.6187
  604MOL0     H79682   7.198   2.771  10.431 -3.7065 -0.4709  0.4805
  604MOL0     H79683   7.226   2.784  10.256  0.3857  0.3718 -0.0116
  604MOL0     H79684   7.004   2.911  10.235  2.9019  4.2615  1.2515
  604MOL0     H79685   6.994   2.920  10.408 -0.0106 -1.7045  1.1976
  604MOL0     H79686   6.951   2.657  10.264  2.4401 -0.5616  2.4331
  604MOL0     H79687   6.968   2.672  10.436 -1.6179  1.4058  1.4290
  604MOL0     H79688   6.764   2.766  10.230 -0.8365 -0.9756 -1.0240
  604MOL0     H79689   6.785   2.858  10.383  2.7134 -1.1486  0.1633
  604MOL0     H79690   6.556   2.850  10.267 -0.9587  0.0481 -2.2221
  604MOL0     H79691   6.326   2.831  10.247 -1.5085 -2.2336 -1.9683
  604MOL0     H79692   6.027   2.330  10.399  0.9082 -0.5101  0.9544
  604MOL0     H79693   5.786   2.257  10.334 -3.9966  0.8785 -0.0567
  604MOL0     H79694   5.541   2.440  10.565  0.9773  1.6404 -2.4363
  604MOL0     H79695   5.607   2.284  10.531  3.6639  2.6385 -2.0338
  604MOL0     H79696   5.355   2.256  10.579  1.5149  0.5118  0.5244
  604MOL0     H79697   5.385   2.229  10.407  2.8406 -0.3930 -0.0322
  604MOL0     H79698   5.329   2.483  10.388 -1.3822  0.7580  1.5600
  604MOL0     H79699   5.252   2.461  10.553 -1.7587 -0.4608 -0.4399
  604MOL0     H79700   5.174   2.268  10.335 -1.7183 -0.1636  0.1940
  604MOL0     H79701   5.093   2.319  10.481 -1.3881  0.7184  0.5489
  604MOL0     H79702   5.151   2.503  10.247 -1.2892  0.2559 -1.3255
  604MOL0     H79703   5.041   2.541  10.379 -0.8573 -0.8406  0.6494
  604MOL0     H79704   4.903   2.345  10.316 -0.5159 -1.2171 -0.5291
  604MOL0     H79705   5.003   2.313  10.173  3.3168  1.9849 -0.6623
  604MOL0     H79706   4.855   2.586  10.216 -3.2804  1.2494 -1.1362
  604MOL0     H79707   4.944   2.520  10.074  1.0762  1.0690  1.3167
  604MOL0     H79708   4.695   2.506  10.052 -2.1949  0.1814  1.3848
  604MOL0     H79709   4.691   2.418  10.209 -0.6547 -2.7677 -0.2180
  604MOL0     H79710   5.641   2.655  10.409 -1.6479 -1.7239  0.4799
  604MOL0     H79711   5.867   2.731  10.470 -2.1673 -0.7501  4.2958
  604MOL0     H79712   6.318   2.497  10.528  0.5025 -0.2993 -0.0448
  604MOL0     H79713   6.575   2.506  10.535 -0.2155 -1.6795  0.7298
  604MOL0     H79714   6.786   3.728  10.198 -1.1920 -0.8990 -1.0037
  604MOL0     H79715   6.561   3.823  10.158  2.5091  1.5048  1.9110
  604MOL0     H79716   5.983   3.723  10.433  0.6451 -1.5677  0.2376
  604MOL0     H79717   5.766   3.761  10.355 -0.2938  0.6313 -0.7066
  604MOL0     H79718   5.564   3.897  10.208 -2.0692 -0.1884 -1.7850
  604MOL0     H79719   5.581   3.727  10.260 -5.2541 -3.1012 -1.3606
  604MOL0     H79720   5.452   3.834  10.003  2.1391 -1.3635  0.0942
  604MOL0     H79721   5.462   3.666  10.060 -2.5036 -0.5953 -2.6787
  604MOL0     H79722   5.319   3.890  10.214  1.1601 -0.9144  2.0890
  604MOL0     H79723   5.308   3.712  10.235 -1.6698 -0.8701 -0.7450
  604MOL0     H79724   5.224   3.878   9.984 -1.9472  1.1391 -0.6570
  604MOL0     H79725   5.202   3.713   9.998 -1.5319  1.9392 -1.1617
  604MOL0     H79726   4.874   3.873  10.220 -0.3239 -2.3143  1.1157
  604MOL0     H79727   5.928   3.818   9.954 -2.6043  1.4034  0.1329
  604MOL0     H79728   6.146   3.794  10.041 -1.5182  0.7078 -1.1087
  605MOL0     O79729   3.150   4.785   4.807 -0.2433 -0.1892  0.7774
  605MOL0     C79730   3.210   4.856   4.887 -0.1903  0.8108 -0.4980
  605MOL0     O79731   3.165   4.972   4.943  0.1545  0.2809  0.3615
  605MOL0     C79732   3.033   4.982   4.969  0.2836 -0.0268 -0.3914
  605MOL0     C79733   2.997   5.087   5.055 -0.0528  0.2698 -0.1870
  605MOL0     C79734   2.863   5.110   5.096 -0.9780 -0.5760 -0.5273
  605MOL0     C79735   2.763   5.025   5.050  1.1576  0.9198 -1.0953
  605MOL0     O79736   2.638   5.055   5.091 -0.0373  0.9363 -0.1106
  605MOL0     C79737   2.525   4.979   5.062 -0.3555  0.5146 -0.3335
  605MOL0     C79738   2.458   5.049   4.944 -0.5526 -0.0532  0.0477
  605MOL0     C79739   2.315   5.012   4.933  0.6657 -0.5338  0.3704
  605MOL0     C79740   2.274   5.047   4.787 -0.3406  0.3780  0.3467
  605MOL0     C79741   2.124   5.041   4.764 -0.6480 -0.6378  0.7156
  605MOL0     C79742   2.064   4.906   4.736  0.1436  0.1645 -0.1258
  605MOL0     C79743   1.941   4.886   4.832 -0.0880 -0.9532 -0.2481
  605MOL0     C79744   1.836   4.997   4.804  0.4419  0.4442 -0.6496
  605MOL0     N79745   1.731   4.969   4.900 -0.4363 -0.3851 -0.2117
  605MOL0     C79746   1.635   4.871   4.904  0.2786 -0.1349  0.1696
  605MOL0     C79747   1.560   4.894   5.015  0.0933 -0.3445 -0.1201
  605MOL0     C79748   1.446   4.817   5.069  0.3929 -0.1377 -0.2023
  605MOL0     C79749   1.325   4.809   4.978 -1.1937  0.4541 -0.8157
  605MOL0     C79750   1.187   4.869   5.036  0.0197  0.5822 -0.1850
  605MOL0     C79751   1.072   4.838   4.941 -0.8026  0.6672 -0.1135
  605MOL0     O79752   0.960   4.855   5.029 -0.2720  0.5189 -0.4108
  605MOL0     C79753   0.838   4.813   4.984 -0.1800 -0.3619  0.3333
  605MOL0     C79754   0.727   4.819   5.077 -0.2949  0.4081 -0.3851
  605MOL0     C79755   0.600   4.781   5.041  0.5417  0.0813  0.8922
  605MOL0     C79756   0.574   4.754   4.900 -0.0097  0.4352  0.2472
  605MOL0     C79757   0.442   4.719   4.854 -0.5593 -1.1757  0.2028
  605MOL0     O79758   0.343   4.791   4.904  0.1732  0.1753  0.6609
  605MOL0     C79759   0.220   4.781   4.864  1.3527  0.4209  0.7163
  605MOL0     C79760   0.161   4.797   4.735 -0.6728 -0.7658 -0.5953
  605MOL0     C79761   0.022   4.795   4.713  0.3674  0.7826 -0.3036
  605MOL0     C79762  -0.063   4.756   4.822 -0.0382 -0.3621  0.5029
  605MOL0     O79763  -0.201   4.763   4.797  0.0668 -0.5342  0.0166
  605MOL0     C79764  -0.292   4.734   4.908 -0.1261 -0.1039 -0.1439
  605MOL0     C79765  -0.431   4.690   4.861  0.4378 -0.1108 -0.0109
  605MOL0     C79766  -0.533   4.805   4.854  0.6107 -0.2847  0.3387
  605MOL0     C79767  -0.568   4.848   5.003  0.5024  0.1373  0.3494
  605MOL0     C79768  -0.648   4.738   5.079  1.1256 -0.1360 -0.7566
  605MOL0     C79769  -0.696   4.800   5.211 -0.0189  0.1128 -0.7332
  605MOL0     C79770  -0.806   4.715   5.278 -0.8440 -0.9901 -0.7313
  605MOL0     C79771  -0.818   4.730   5.427  0.3870 -0.3187 -0.1781
  605MOL0    Cl79772  -0.886   4.897   5.462 -0.3549 -0.3754 -0.0358
  605MOL0     C79773  -0.011   4.755   4.957  0.7597  0.5209  0.1115
  605MOL0     C79774   0.129   4.760   4.969  0.2312 -1.1913 -0.0497
  605MOL0     O79775   0.421   4.637   4.765 -0.1215 -0.4534  0.2228
  605MOL0     C79776   0.687   4.764   4.809  0.4617 -0.4477 -0.4277
  605MOL0     C79777   0.810   4.786   4.849 -0.9322  0.6151 -0.5874
  605MOL0     N79778   1.618   5.010   5.078  0.0197  0.0214  0.7167
  605MOL0     N79779   1.720   5.048   5.011  0.3429  0.3229 -0.2544
  605MOL0     C79780   2.788   4.924   4.955 -0.2493 -0.9001  0.2448
  605MOL0     C79781   2.921   4.899   4.931  0.0147 -0.3623 -0.2528
  605MOL0     C79782   3.348   4.828   4.908 -1.1650  0.1980 -0.3936
  605MOL0     C79783   3.432   4.934   4.957 -0.5994  0.6756  0.3015
  605MOL0     C79784   3.571   4.925   4.954  0.8436 -0.2441  0.2904
  605MOL0     C79785   3.630   4.802   4.907 -0.0642 -1.8150 -1.0757
  605MOL0     O79786   3.773   4.804   4.895 -0.2923  0.5332 -0.2600
  605MOL0     C79787   3.833   4.791   4.765  0.6427  0.1231  1.0231
  605MOL0     C79788   3.871   4.638   4.748  0.7899  0.3077 -0.2294
  605MOL0     C79789   3.978   4.587   4.838 -0.3292 -0.4878 -0.5571
  605MOL0     C79790   3.986   4.432   4.837  0.2040 -0.2474 -0.9115
  605MOL0     C79791   4.067   4.373   4.728 -0.1845 -0.1635  0.3939
  605MOL0     C79792   4.130   4.342   4.629  0.6282  0.1006 -0.6979
  605MOL0     C79793   3.548   4.694   4.865 -0.1071 -0.8845  0.1960
  605MOL0     C79794   3.410   4.708   4.858  0.6430 -0.6867  0.9769
  605MOL0     H79795   3.075   5.152   5.093 -1.5803  1.7359  0.5939
  605MOL0     H79796   2.823   5.169   5.178 -0.0475 -0.9592  0.2112
  605MOL0     H79797   2.459   4.971   5.149 -2.7240 -1.1816 -2.1610
  605MOL0     H79798   2.559   4.879   5.037 -2.9462 -1.2743  2.5145
  605MOL0     H79799   2.511   5.032   4.850  0.7677  3.4293  0.0298
  605MOL0     H79800   2.461   5.154   4.976 -1.9702 -1.3021  5.2591
  605MOL0     H79801   2.256   5.068   5.006  0.9632  1.2823 -0.7128
  605MOL0     H79802   2.305   4.904   4.944  0.3420 -0.3302  2.3245
  605MOL0     H79803   2.311   5.147   4.763  0.4926 -0.4176 -2.0763
  605MOL0     H79804   2.314   4.975   4.716  0.0803 -0.3886  1.3426
  605MOL0     H79805   2.111   5.099   4.672 -1.6111 -1.6315  0.2056
  605MOL0     H79806   2.076   5.093   4.847 -0.5023 -2.5400  2.0482
  605MOL0     H79807   2.127   4.819   4.756 -1.3489 -0.7565  0.7998
  605MOL0     H79808   2.030   4.901   4.632 -2.0675  2.9828  0.3439
  605MOL0     H79809   1.903   4.785   4.816 -2.8943  0.0109 -0.2087
  605MOL0     H79810   1.963   4.884   4.939 -1.6326 -2.4998  0.0738
  605MOL0     H79811   1.810   4.983   4.698 -2.4092 -1.5062  0.2033
  605MOL0     H79812   1.869   5.101   4.811  0.0516  0.5180  0.2053
  605MOL0     H79813   1.602   4.791   4.839 -2.1303  0.3009  0.7570
  605MOL0     H79814   1.413   4.877   5.154  0.1540  2.2621 -1.9010
  605MOL0     H79815   1.479   4.722   5.112  1.3036  0.3058  0.1271
  605MOL0     H79816   1.309   4.704   4.951  0.3311  0.3410 -1.3683
  605MOL0     H79817   1.343   4.855   4.880  2.0663  0.6919 -0.2017
  605MOL0     H79818   1.162   4.826   5.133 -3.8229 -1.9579 -2.0527
  605MOL0     H79819   1.200   4.977   5.048 -0.9902  0.5802  1.1459
  605MOL0     H79820   1.082   4.731   4.919  3.0872  0.2624  2.4143
  605MOL0     H79821   1.055   4.901   4.854  0.0915  1.5539  0.3272
  605MOL0     H79822   0.733   4.864   5.175 -0.5707 -2.5188  1.0818
  605MOL0     H79823   0.506   4.792   5.096  0.2598 -1.1197  0.6854
  605MOL0     H79824   0.233   4.815   4.656  0.1204 -3.3308 -0.5521
  605MOL0     H79825  -0.017   4.799   4.612 -1.1878  2.1831  0.3139
  605MOL0     H79826  -0.300   4.824   4.970  3.7158 -1.5490  2.8560
  605MOL0     H79827  -0.246   4.653   4.964  0.7430  1.7474  1.9612
  605MOL0     H79828  -0.475   4.613   4.926 -2.1834  0.8762 -0.4886
  605MOL0     H79829  -0.425   4.639   4.765 -1.7481 -1.5937  0.5621
  605MOL0     H79830  -0.622   4.779   4.796  0.7744  2.1832 -1.1642
  605MOL0     H79831  -0.486   4.891   4.804 -1.6234  1.1282  0.5258
  605MOL0     H79832  -0.482   4.880   5.060  0.2987 -1.5034  1.6666
  605MOL0     H79833  -0.631   4.937   4.994  0.1241 -0.2869 -2.2540
  605MOL0     H79834  -0.589   4.651   5.111 -0.0091 -0.4047  0.7263
  605MOL0     H79835  -0.736   4.709   5.020  1.2563  1.7685 -1.9651
  605MOL0     H79836  -0.735   4.900   5.192  1.2724  1.5316  3.0081
  605MOL0     H79837  -0.608   4.812   5.276 -0.6588 -0.4217  0.2595
  605MOL0     H79838  -0.899   4.752   5.233  0.7512  1.9834 -1.9204
  605MOL0     H79839  -0.798   4.610   5.249  0.2784 -1.6983  1.8378
  605MOL0     H79840  -0.720   4.707   5.471 -0.3175 -0.1824  1.5284
  605MOL0     H79841  -0.895   4.658   5.456 -1.2233  0.7295 -1.6319
  605MOL0     H79842  -0.071   4.738   5.046 -0.0034 -1.5495 -0.7332
  605MOL0     H79843   0.172   4.769   5.069 -2.2953  1.1467  0.9412
  605MOL0     H79844   0.658   4.742   4.707 -1.0883  3.2423 -0.9496
  605MOL0     H79845   0.891   4.778   4.777  0.4800  1.5905  0.8166
  605MOL0     H79846   2.713   4.858   4.911 -0.0160 -0.4070 -0.9340
  605MOL0     H79847   2.935   4.807   4.875  1.6261 -0.8695  0.9028
  605MOL0     H79848   3.389   5.026   4.994  0.5054  0.1682  3.0479
  605MOL0     H79849   3.629   5.012   4.983  0.3087 -0.2591  1.4614
  605MOL0     H79850   3.921   4.855   4.762  1.6044 -1.1695  1.1470
  605MOL0     H79851   3.758   4.824   4.692  1.4732 -3.3216 -1.6697
  605MOL0     H79852   3.783   4.573   4.754  3.0386 -3.0871 -1.3261
  605MOL0     H79853   3.905   4.622   4.645 -0.4581 -0.3107 -0.5647
  605MOL0     H79854   3.961   4.611   4.944  2.3134  0.4756 -0.2832
  605MOL0     H79855   4.076   4.629   4.814 -0.1020  0.4767  1.7861
  605MOL0     H79856   4.037   4.398   4.927 -3.1816  2.0115  2.1434
  605MOL0     H79857   3.882   4.398   4.840 -0.0034  0.4281  1.7756
  605MOL0     H79858   4.198   4.316   4.550  1.0504  1.4250 -0.8074
  605MOL0     H79859   3.600   4.604   4.835  1.6286  0.1056  0.0847
  605MOL0     H79860   3.354   4.621   4.828 -0.8932  0.6740 -0.3349
  606MOL0     O79861   3.942  11.074  11.198 -0.1413 -0.1034  0.7370
  606MOL0     C79862   3.915  11.181  11.243 -0.1491 -0.1204  0.0105
  606MOL0     O79863   4.002  11.269  11.311 -0.4580  0.6052 -0.3371
  606MOL0     C79864   4.128  11.209  11.325  0.1931  0.7830 -0.6033
  606MOL0     C79865   4.169  11.174  11.459  1.0705 -0.2928  0.7502
  606MOL0     C79866   4.294  11.104  11.457 -0.4487  0.3631  0.6477
  606MOL0     C79867   4.375  11.080  11.346  0.0053  0.2086  0.9769
  606MOL0     O79868   4.498  11.020  11.379  0.4366 -0.1435  0.3841
  606MOL0     C79869   4.600  11.034  11.270 -0.4586 -0.8567  0.4404
  606MOL0     C79870   4.741  11.040  11.328 -0.2495  0.0057 -0.7064
  606MOL0     C79871   4.850  11.068  11.225  0.6052 -0.0136 -0.5366
  606MOL0     C79872   4.986  11.088  11.299 -0.5455 -0.2300  0.1434
  606MOL0     C79873   5.101  11.044  11.208  0.1466 -0.2501  0.3618
  606MOL0     C79874   5.232  11.117  11.234  0.2385  0.2536 -0.5799
  606MOL0     C79875   5.349  11.026  11.199  0.7179  1.2967  0.5549
  606MOL0     C79876   5.484  11.096  11.194 -1.5163 -0.5460 -0.5220
  606MOL0     N79877   5.576  10.996  11.143 -0.1353 -0.0655 -0.7521
  606MOL0     C79878   5.589  10.964  11.006 -0.8977 -0.1115  0.6444
  606MOL0     C79879   5.705  10.898  10.993 -0.9996  0.1862  0.6865
  606MOL0     C79880   5.761  10.860  10.858 -0.0451  0.2724  0.2140
  606MOL0     C79881   5.812  10.988  10.788 -0.8783  1.4138 -0.5903
  606MOL0     C79882   5.723  11.046  10.680  0.3431  0.6324  1.2036
  606MOL0     C79883   5.730  10.946  10.559  0.3734 -0.4173  0.3354
  606MOL0     O79884   5.640  10.984  10.456  0.1199  0.3845 -0.3780
  606MOL0     C79885   5.627  10.890  10.357 -0.8450 -0.4430 -0.2670
  606MOL0     C79886   5.501  10.856  10.295  0.9935  0.6354  0.3948
  606MOL0     C79887   5.501  10.771  10.180 -0.4833 -0.3155  0.5872
  606MOL0     C79888   5.628  10.709  10.135  0.9386  0.2891 -1.1123
  606MOL0     C79889   5.628  10.614  10.024 -0.0603  0.1746 -0.5951
  606MOL0     O79890   5.747  10.611   9.955  1.2368  0.1679 -0.3260
  606MOL0     C79891   5.739  10.535   9.845  0.2713 -0.2522  0.6615
  606MOL0     C79892   5.644  10.552   9.741 -0.1644  0.2540 -0.0167
  606MOL0     C79893   5.639  10.451   9.641 -0.4017 -0.6674 -0.5347
  606MOL0     C79894   5.727  10.346   9.640 -0.2946 -0.1643 -0.4507
  606MOL0     O79895   5.729  10.245   9.552 -0.6703  0.6790  0.0579
  606MOL0     C79896   5.613  10.226   9.474 -0.0030 -0.0497  1.4986
  606MOL0     C79897   5.634  10.127   9.359  1.2262 -0.2036 -0.5149
  606MOL0     C79898   5.507  10.128   9.265  0.1781  0.6079 -0.2739
  606MOL0     C79899   5.547  10.028   9.149  0.4648  0.6424  0.2006
  606MOL0     C79900   5.421  10.005   9.067  0.3092 -0.1490  1.0727
  606MOL0     C79901   5.420   9.863   9.008 -1.1649 -0.1719 -0.4440
  606MOL0     C79902   5.297   9.835   8.940 -0.2710 -0.4123  0.5002
  606MOL0     C79903   5.301   9.701   8.857 -0.1394  0.1231  0.1651
  606MOL0    Cl79904   5.152   9.661   8.782  0.2452  0.2100 -0.1816
  606MOL0     C79905   5.824  10.342   9.739  0.1684  0.1063 -0.0385
  606MOL0     C79906   5.828  10.439   9.838  0.1812  0.7434  1.0733
  606MOL0     O79907   5.529  10.547  10.007  1.0190  0.1984  0.6183
  606MOL0     C79908   5.745  10.737  10.212 -0.4187  1.2414  0.5586
  606MOL0     C79909   5.741  10.831  10.310  0.2680  0.1126  1.4128
  606MOL0     N79910   5.758  10.877  11.122  0.0073  0.0253  0.1738
  606MOL0     N79911   5.684  10.945  11.207  0.0097 -0.4462  0.4174
  606MOL0     C79912   4.328  11.122  11.224 -0.2341 -0.6950  0.6180
  606MOL0     C79913   4.205  11.177  11.208  0.1207 -0.6262 -1.5322
  606MOL0     C79914   3.771  11.211  11.241 -0.7549 -0.2266  0.1377
  606MOL0     C79915   3.741  11.349  11.255 -0.6343  0.1751 -0.3153
  606MOL0     C79916   3.601  11.387  11.241  0.2404 -0.1505 -0.4437
  606MOL0     C79917   3.504  11.299  11.202 -0.9832  1.3261 -0.3471
  606MOL0     O79918   3.379  11.339  11.182 -0.1270 -0.1811  0.7554
  606MOL0     C79919   3.273  11.250  11.135  0.7908  1.1638  0.3554
  606MOL0     C79920   3.144  11.330  11.123  0.2968 -1.0152 -0.3171
  606MOL0     C79921   3.037  11.257  11.069  0.3628 -0.4646  0.1418
  606MOL0     C79922   2.914  11.346  11.060 -0.5385 -0.0290  0.3732
  606MOL0     C79923   2.824  11.286  10.966 -0.3255  0.4296 -0.8969
  606MOL0     C79924   2.744  11.226  10.886 -0.3752  1.0258  0.2016
  606MOL0     C79925   3.539  11.164  11.188 -0.0453 -0.1696  0.1406
  606MOL0     C79926   3.669  11.122  11.199  1.0214 -0.4107  0.1915
  606MOL0     H79927   4.103  11.192  11.543  0.6814 -0.4256  0.4798
  606MOL0     H79928   4.324  11.079  11.558 -2.1552  2.5934  1.8105
  606MOL0     H79929   4.591  11.123  11.207 -0.9023 -0.9120  0.4243
  606MOL0     H79930   4.586  10.944  11.209 -1.1755 -0.7985  0.5074
  606MOL0     H79931   4.768  10.949  11.382 -0.1718  1.6011  2.1486
  606MOL0     H79932   4.747  11.109  11.413  1.0529 -1.0299  0.0856
  606MOL0     H79933   4.825  11.160  11.171  1.2708  1.7281  1.9741
  606MOL0     H79934   4.850  10.987  11.151  1.0981 -0.8081  0.3156
  606MOL0     H79935   4.999  11.189  11.339  0.8020  0.5100 -1.9898
  606MOL0     H79936   4.990  11.023  11.387 -1.3252 -0.4314  0.0429
  606MOL0     H79937   5.079  11.082  11.108 -0.7649  2.6573  1.5311
  606MOL0     H79938   5.119  10.937  11.201  2.4865  0.1743 -1.0344
  606MOL0     H79939   5.242  11.157  11.335 -1.9450 -0.1329 -0.1569
  606MOL0     H79940   5.237  11.201  11.164  0.8560 -1.3878 -2.6122
  606MOL0     H79941   5.351  10.942  11.269 -3.9977 -0.2460 -0.7572
  606MOL0     H79942   5.335  10.978  11.102  2.0653 -1.8549  1.7856
  606MOL0     H79943   5.526  11.143  11.283  0.8281 -1.3179 -1.1374
  606MOL0     H79944   5.482  11.189  11.137  2.0366  2.2467  3.3393
  606MOL0     H79945   5.529  11.007  10.926 -0.3814 -1.4913 -0.5395
  606MOL0     H79946   5.688  10.801  10.802 -1.7882  2.4682  0.0458
  606MOL0     H79947   5.841  10.792  10.890  1.2702  2.2321  1.3204
  606MOL0     H79948   5.911  10.962  10.750 -0.6534  0.0202  0.8286
  606MOL0     H79949   5.830  11.060  10.869  2.5942  1.8421 -1.5691
  606MOL0     H79950   5.616  11.041  10.703  0.1220 -2.1063 -0.0418
  606MOL0     H79951   5.767  11.142  10.651  1.5670 -0.7283 -1.9811
  606MOL0     H79952   5.717  10.843  10.592  1.5524 -0.7380 -0.1239
  606MOL0     H79953   5.834  10.962  10.528  0.6695 -2.0039  0.4476
  606MOL0     H79954   5.404  10.894  10.327  0.7881  1.1769 -0.8251
  606MOL0     H79955   5.406  10.741  10.136 -1.7380  1.8275  1.6642
  606MOL0     H79956   5.572  10.632   9.750  0.3833  0.8606 -0.8369
  606MOL0     H79957   5.566  10.467   9.562  0.8583 -1.4548 -1.9157
  606MOL0     H79958   5.587  10.318   9.421  1.9920  0.4316  1.2718
  606MOL0     H79959   5.529  10.187   9.531 -0.4875 -3.9243 -1.4178
  606MOL0     H79960   5.658  10.032   9.406  3.0448 -1.6204 -3.8985
  606MOL0     H79961   5.722  10.154   9.298  1.2924  0.8105  0.0064
  606MOL0     H79962   5.502  10.226   9.217  1.4896  1.5094  1.3078
  606MOL0     H79963   5.409  10.105   9.307 -0.7592 -1.1023 -3.1008
  606MOL0     H79964   5.626  10.066   9.084  0.6526  0.9243  0.5912
  606MOL0     H79965   5.567   9.925   9.177 -3.4989 -1.5123 -3.5394
  606MOL0     H79966   5.419  10.074   8.982  4.5185 -0.5793  0.4262
  606MOL0     H79967   5.328  10.022   9.122 -0.4585  2.4790 -0.8146
  606MOL0     H79968   5.418   9.784   9.084 -1.6746 -2.5728 -2.8002
  606MOL0     H79969   5.505   9.846   8.942 -0.5339  2.1196 -0.3136
  606MOL0     H79970   5.226   9.818   9.022 -2.6988 -3.3245 -1.9363
  606MOL0     H79971   5.257   9.920   8.884 -3.5553 -3.1494 -1.7872
  606MOL0     H79972   5.327   9.625   8.931  0.4261  1.2452  1.1520
  606MOL0     H79973   5.375   9.709   8.777 -0.7518 -1.5796 -0.6165
  606MOL0     H79974   5.902  10.266   9.741  0.6646  0.5562  2.7573
  606MOL0     H79975   5.904  10.435   9.916  0.7732  3.2596  0.7381
  606MOL0     H79976   5.837  10.684  10.187 -2.2481 -1.0238 -1.8524
  606MOL0     H79977   5.839  10.858  10.349  0.5491 -0.6560  1.2458
  606MOL0     H79978   4.385  11.102  11.134  0.3876 -2.5724  1.3934
  606MOL0     H79979   4.168  11.209  11.112 -2.2558  0.2925 -0.3919
  606MOL0     H79980   3.822  11.420  11.263  1.5370 -2.1338 -0.7107
  606MOL0     H79981   3.569  11.490  11.257 -2.1853 -0.5812 -2.0818
  606MOL0     H79982   3.258  11.166  11.202  0.4024 -0.2616 -1.4427
  606MOL0     H79983   3.300  11.202  11.041 -0.0204  1.3481  0.0135
  606MOL0     H79984   3.111  11.361  11.222  1.7039 -0.4152 -0.0163
  606MOL0     H79985   3.172  11.424  11.076  0.6527 -0.1966  1.4709
  606MOL0     H79986   3.009  11.169  11.128 -2.0958  0.9755  1.2659
  606MOL0     H79987   3.079  11.227  10.972  0.4484  1.0814 -0.3256
  606MOL0     H79988   2.863  11.353  11.157 -0.6114 -0.5167  0.3704
  606MOL0     H79989   2.927  11.446  11.018  1.6403  0.6613  2.4730
  606MOL0     H79990   2.664  11.186  10.827  0.1689 -1.8466  1.2724
  606MOL0     H79991   3.465  11.095  11.149  0.5591 -0.3888 -0.6473
  606MOL0     H79992   3.681  11.016  11.182 -0.4780 -1.1215  3.0289
  607MOL0     O79993   9.723   9.477   1.994  0.1575  0.0929  0.5159
  607MOL0     C79994   9.723   9.366   1.940 -0.4306  0.6281 -0.3722
  607MOL0     O79995   9.831   9.283   1.939 -0.4507  0.2792  0.7244
  607MOL0     C79996   9.966   9.318   1.961 -0.2724 -1.0153  0.6307
  607MOL0     C79997  10.066   9.213   1.945  0.3778 -0.5225 -0.2438
  607MOL0     C79998  10.193   9.232   1.977 -0.2940 -0.1560 -0.0554
  607MOL0     C79999  10.248   9.360   1.990 -0.1987 -0.4864  0.1738
  607MOL0     O80000  10.378   9.369   2.018  0.3416  0.0373 -0.2786
  607MOL0     C80001  10.443   9.498   2.043  1.2099 -0.2481 -0.1951
  607MOL0     C80002  10.591   9.486   2.076  0.3794  0.4083 -0.0328
  607MOL0     C80003  10.651   9.628   2.101 -0.2342  0.1153 -1.1585
  607MOL0     C80004  10.797   9.618   2.100 -0.0591  0.2307 -0.0498
  607MOL0     C80005  10.883   9.751   2.105  0.5321 -0.2486  0.4457
  607MOL0     C80006  11.025   9.728   2.145  0.2374  0.1909 -0.0425
  607MOL0     C80007  11.111   9.677   2.040 -0.6455  0.2991  0.0016
  607MOL0     C80008  11.254   9.694   2.086 -0.4725 -0.9858  0.3375
  607MOL0     N80009  11.307   9.832   2.084  0.7263 -0.6438 -0.5668
  607MOL0     C80010  11.391   9.883   2.185  0.2266 -1.0197 -0.5716
  607MOL0     C80011  11.389  10.018   2.170  0.9613  0.9896  0.0542
  607MOL0     C80012  11.455  10.103   2.282  0.4942 -0.6715  0.0010
  607MOL0     C80013  11.469  10.245   2.227  0.2362  0.3356 -0.9948
  607MOL0     C80014  11.564  10.321   2.321 -0.4005  0.7218  0.0189
  607MOL0     C80015  11.592  10.467   2.273  0.2082  0.4850  0.7264
  607MOL0     O80016  11.482  10.543   2.304 -0.0892  0.1909 -0.8115
  607MOL0     C80017  11.477  10.678   2.283 -0.4335 -0.2573  0.0635
  607MOL0     C80018  11.583  10.743   2.216  0.5139 -1.2159  0.7117
  607MOL0     C80019  11.576  10.882   2.190 -0.4051 -0.2837  0.1300
  607MOL0     C80020  11.461  10.959   2.230  0.5984  0.0818  0.0540
  607MOL0     C80021  11.454  11.117   2.222 -0.4761 -0.3627  0.5561
  607MOL0     O80022  11.367  11.183   2.302 -0.2982  0.6212  0.5806
  607MOL0     C80023  11.380  11.317   2.336 -0.4739 -0.7348  0.5003
  607MOL0     C80024  11.462  11.349   2.440 -0.6381 -0.0732  1.2506
  607MOL0     C80025  11.472  11.486   2.474 -1.3446 -0.2054 -0.1575
  607MOL0     C80026  11.400  11.589   2.419  0.9066  0.3542  0.3935
  607MOL0     O80027  11.386  11.713   2.473 -0.5714 -0.7226 -0.2340
  607MOL0     C80028  11.429  11.733   2.610  0.1580 -0.8578  0.5775
  607MOL0     C80029  11.387  11.873   2.658 -0.1451 -0.2149 -0.0068
  607MOL0     C80030  11.460  11.978   2.576 -1.2948 -0.0957  0.1876
  607MOL0     C80031  11.404  12.115   2.608  0.6310  0.7370  0.1242
  607MOL0     C80032  11.417  12.217   2.498 -0.3970  0.6857  0.0837
  607MOL0     C80033  11.284  12.214   2.406 -1.3022  0.2573  0.0131
  607MOL0     C80034  11.309  12.277   2.267 -0.4589 -0.1816 -0.0518
  607MOL0     C80035  11.205  12.219   2.165 -0.4360  0.5314 -1.1439
  607MOL0    Cl80036  11.040  12.268   2.196 -0.0152  0.4020 -0.4186
  607MOL0     C80037  11.309  11.544   2.315  0.3265  0.3349 -0.1713
  607MOL0     C80038  11.307  11.410   2.275  0.7185 -0.8038 -0.1501
  607MOL0     O80039  11.537  11.170   2.138  0.0477  0.2733 -0.0518
  607MOL0     C80040  11.363  10.890   2.299 -0.3441  0.3006  0.7410
  607MOL0     C80041  11.371  10.751   2.323 -0.0494  1.2784  0.4035
  607MOL0     N80042  11.303  10.048   2.067  1.1029  0.8898 -0.1093
  607MOL0     N80043  11.248   9.941   2.012  0.3356  0.9547 -0.6084
  607MOL0     C80044  10.155   9.468   1.987  1.4851 -0.7179  1.1237
  607MOL0     C80045  10.021   9.450   1.975 -0.4312  0.5042 -0.1281
  607MOL0     C80046   9.608   9.323   1.852 -0.2389 -0.3765 -0.1288
  607MOL0     C80047   9.627   9.238   1.743 -0.2768 -0.6704 -0.5855
  607MOL0     C80048   9.511   9.217   1.659 -0.7475  0.2952  1.1802
  607MOL0     C80049   9.382   9.259   1.693  0.0592 -0.1529 -0.2068
  607MOL0     O80050   9.270   9.222   1.622 -0.4975  0.4441  0.0605
  607MOL0     C80051   9.135   9.254   1.657  0.0819  0.3720  0.7640
  607MOL0     C80052   9.041   9.205   1.541  1.0170  1.0855  1.1627
  607MOL0     C80053   9.094   9.270   1.405 -0.2846 -0.1936 -0.3234
  607MOL0     C80054   9.032   9.210   1.289  0.1841  0.6419  0.2035
  607MOL0     C80055   9.087   9.082   1.266  0.3812  0.9096 -1.1572
  607MOL0     C80056   9.130   8.975   1.243 -0.3612  0.3605 -0.5623
  607MOL0     C80057   9.367   9.337   1.816 -0.0394 -0.2095  0.0327
  607MOL0     C80058   9.479   9.364   1.894 -0.6556 -0.4813  0.1390
  607MOL0     H80059  10.034   9.115   1.914 -0.7590  0.6469 -3.1251
  607MOL0     H80060  10.263   9.149   1.982  0.1391  0.2136  0.0358
  607MOL0     H80061  10.404   9.540   2.136  0.4202 -2.6714  0.6375
  607MOL0     H80062  10.435   9.548   1.945 -0.9685 -2.5678 -1.3065
  607MOL0     H80063  10.639   9.441   1.989  0.9660  2.3831 -0.7928
  607MOL0     H80064  10.605   9.419   2.161  0.5374 -0.0480 -0.4090
  607MOL0     H80065  10.599   9.677   2.184 -2.4309 -2.9337 -0.5869
  607MOL0     H80066  10.625   9.690   2.014  0.2155  0.8089 -0.8049
  607MOL0     H80067  10.833   9.555   2.182 -1.1377 -1.9937 -1.1859
  607MOL0     H80068  10.830   9.571   2.007 -0.2175  0.7482 -0.3735
  607MOL0     H80069  10.839   9.819   2.179  6.3802  4.3482  0.4803
  607MOL0     H80070  10.880   9.807   2.011  2.0519  1.8808  1.5651
  607MOL0     H80071  11.023   9.671   2.238 -2.9443  0.8794  0.4474
  607MOL0     H80072  11.068   9.826   2.168  3.9546 -1.2692 -0.0972
  607MOL0     H80073  11.086   9.570   2.035  0.4788 -0.4848  5.1482
  607MOL0     H80074  11.098   9.715   1.939 -0.5871 -0.6171 -0.3672
  607MOL0     H80075  11.299   9.638   2.004 -1.5630  0.3397 -1.2325
  607MOL0     H80076  11.275   9.645   2.182  0.6997  2.2622  1.8940
  607MOL0     H80077  11.442   9.826   2.262  0.4246  2.0814  1.7958
  607MOL0     H80078  11.548  10.049   2.304  0.5376 -1.5929 -2.1428
  607MOL0     H80079  11.390  10.099   2.369  1.0093 -2.8825  0.3386
  607MOL0     H80080  11.369  10.287   2.246 -0.4624 -1.8795  0.5770
  607MOL0     H80081  11.500  10.236   2.122  0.5641  2.2116 -1.1049
  607MOL0     H80082  11.530  10.320   2.425 -0.0627 -1.6220  0.1628
  607MOL0     H80083  11.664  10.276   2.317  0.1665  2.0127 -0.8253
  607MOL0     H80084  11.628  10.481   2.171  2.2840  0.8436  1.4677
  607MOL0     H80085  11.678  10.492   2.336 -0.0268 -0.7620  1.5817
  607MOL0     H80086  11.665  10.685   2.174 -0.0412 -1.4619 -0.0659
  607MOL0     H80087  11.657  10.938   2.145 -0.7858 -1.1304 -1.7276
  607MOL0     H80088  11.513  11.277   2.502  2.4658  1.3187  0.5136
  607MOL0     H80089  11.545  11.495   2.554  0.9549 -3.1708 -1.7106
  607MOL0     H80090  11.536  11.713   2.612  0.7978  1.8005 -1.3545
  607MOL0     H80091  11.371  11.655   2.661 -0.9327 -0.4116  0.0679
  607MOL0     H80092  11.413  11.884   2.763 -0.1711 -2.4615  0.2965
  607MOL0     H80093  11.280  11.884   2.637 -0.4471 -1.5974  0.7014
  607MOL0     H80094  11.441  11.972   2.468 -1.5619  2.3157  0.0264
  607MOL0     H80095  11.568  11.967   2.588 -1.0942 -0.2706 -1.4939
  607MOL0     H80096  11.296  12.108   2.625  0.4293  2.5142 -0.1352
  607MOL0     H80097  11.452  12.152   2.699 -1.7243  0.7848  1.4276
  607MOL0     H80098  11.502  12.208   2.430 -1.9628 -2.7315 -1.6600
  607MOL0     H80099  11.432  12.313   2.549  1.1000 -0.2024  1.4136
  607MOL0     H80100  11.212  12.275   2.461 -0.5161  0.9122  0.3523
  607MOL0     H80101  11.254  12.110   2.394 -0.0740 -0.0365 -0.7134
  607MOL0     H80102  11.296  12.385   2.277  3.9494  0.4264  1.0115
  607MOL0     H80103  11.414  12.258   2.243  0.0589 -0.8701  2.4642
  607MOL0     H80104  11.229  12.113   2.157 -0.6803  0.5088 -1.5769
  607MOL0     H80105  11.222  12.263   2.066  0.7520 -0.1611 -1.2679
  607MOL0     H80106  11.240  11.613   2.269 -1.6821 -0.9387  0.7626
  607MOL0     H80107  11.234  11.387   2.198 -1.3759  0.2701  1.4210
  607MOL0     H80108  11.277  10.947   2.331 -2.1521 -2.5507  1.2971
  607MOL0     H80109  11.287  10.732   2.389  1.3404  1.8029  2.4228
  607MOL0     H80110  10.199   9.566   2.006  0.8930 -0.4570  1.1920
  607MOL0     H80111   9.959   9.539   1.977 -2.0141 -0.5766  0.4234
  607MOL0     H80112   9.728   9.208   1.719  2.1752  2.2232  4.5487
  607MOL0     H80113   9.520   9.161   1.566 -0.7679  0.3265  1.1597
  607MOL0     H80114   9.120   9.360   1.680  2.1306  0.6086  1.2345
  607MOL0     H80115   9.110   9.185   1.738 -3.8203 -0.2460 -0.7787
  607MOL0     H80116   9.036   9.096   1.532  2.4165  1.1425 -1.2763
  607MOL0     H80117   8.948   9.253   1.573  0.6185  1.1227  0.0149
  607MOL0     H80118   9.202   9.264   1.389 -0.0529 -1.8975  1.5843
  607MOL0     H80119   9.065   9.376   1.396 -0.5590 -0.3213 -1.0135
  607MOL0     H80120   8.925   9.201   1.308  0.1104 -1.4061 -0.9052
  607MOL0     H80121   9.038   9.276   1.201  1.2878  2.8315  1.8203
  607MOL0     H80122   9.163   8.875   1.224  3.3165  1.2169  0.4428
  607MOL0     H80123   9.275   9.382   1.851  0.4108 -1.1784  2.6535
  607MOL0     H80124   9.472   9.428   1.981  2.5485  0.4247 -0.1537
  608MOL0     O80125   4.974   2.615   6.566  0.4594 -0.0785 -0.3273
  608MOL0     C80126   4.951   2.510   6.612 -1.0590  0.0771  0.7142
  608MOL0     O80127   4.833   2.447   6.607 -0.1824  0.0330 -0.1897
  608MOL0     C80128   4.724   2.506   6.544 -0.3749  0.0511 -1.0100
  608MOL0     C80129   4.667   2.612   6.615 -1.0294 -0.0860 -0.7510
  608MOL0     C80130   4.566   2.688   6.551 -0.4642 -0.3236 -0.5218
  608MOL0     C80131   4.501   2.636   6.437 -0.5295 -1.3726 -0.3519
  608MOL0     O80132   4.402   2.703   6.367 -0.1373  0.5186  0.5625
  608MOL0     C80133   4.307   2.777   6.441 -0.6896 -0.0694 -0.2128
  608MOL0     C80134   4.234   2.688   6.543  0.0152 -0.0568  0.3421
  608MOL0     C80135   4.138   2.765   6.638  0.4092  0.3269 -0.3465
  608MOL0     C80136   4.072   2.895   6.569 -0.0518 -0.8431 -0.7789
  608MOL0     C80137   3.962   2.977   6.648 -0.7002  0.6304  0.2814
  608MOL0     C80138   4.029   3.056   6.750  0.5465  0.4401 -1.1064
  608MOL0     C80139   3.925   3.157   6.809  0.0341 -0.0121  1.1269
  608MOL0     C80140   3.811   3.092   6.887 -0.5102  0.3830  0.3331
  608MOL0     N80141   3.687   3.084   6.811  0.0781 -0.8155  0.0239
  608MOL0     C80142   3.603   3.186   6.785  0.4132 -0.0029 -0.6881
  608MOL0     C80143   3.518   3.142   6.696  0.3597  0.5422  1.2605
  608MOL0     C80144   3.423   3.227   6.623 -0.3934  0.4470  0.3511
  608MOL0     C80145   3.425   3.212   6.471 -0.3303  0.1702 -0.3712
  608MOL0     C80146   3.296   3.281   6.406 -0.1415 -0.1344 -1.2162
  608MOL0     C80147   3.305   3.266   6.262  0.3569 -0.5247 -0.4869
  608MOL0     O80148   3.239   3.361   6.184  0.0243  0.3909  0.1550
  608MOL0     C80149   3.099   3.380   6.189  0.0904  1.2380 -0.1700
  608MOL0     C80150   3.063   3.506   6.143  0.7203  0.3525  1.0514
  608MOL0     C80151   2.924   3.537   6.128 -0.4716 -0.4520  0.2573
  608MOL0     C80152   2.822   3.449   6.179  0.2479  0.2901  0.2302
  608MOL0     C80153   2.685   3.502   6.190  0.9951 -0.3677 -0.3208
  608MOL0     O80154   2.598   3.405   6.220 -1.1934 -0.2076 -0.0004
  608MOL0     C80155   2.461   3.408   6.205 -0.1415  0.0204 -0.0355
  608MOL0     C80156   2.412   3.281   6.203  0.7959  0.7163 -0.2006
  608MOL0     C80157   2.279   3.261   6.182  0.3721  0.9074  0.4810
  608MOL0     C80158   2.184   3.358   6.144 -0.8480  0.3575  0.1159
  608MOL0     O80159   2.063   3.315   6.100 -0.1207 -0.5226 -0.5827
  608MOL0     C80160   1.954   3.407   6.125 -0.6706  0.6607 -0.6111
  608MOL0     C80161   1.812   3.343   6.112  0.3221 -0.4774  0.1889
  608MOL0     C80162   1.763   3.347   5.964 -0.7962  0.1306  0.7924
  608MOL0     C80163   1.622   3.293   5.938 -0.1105  0.0126 -0.6672
  608MOL0     C80164   1.501   3.345   6.021  0.1146  0.6466 -0.7922
  608MOL0     C80165   1.476   3.254   6.140 -0.4956 -0.1272  0.3494
  608MOL0     C80166   1.359   3.312   6.224  0.5844  1.4671 -0.3396
  608MOL0     C80167   1.314   3.214   6.345 -0.2233  0.3092  0.2553
  608MOL0    Cl80168   1.171   3.284   6.420 -0.4140  0.0330  0.1348
  608MOL0     C80169   2.236   3.490   6.141 -0.6671  0.2513  0.1978
  608MOL0     C80170   2.374   3.511   6.164  0.3144 -0.1532  0.1895
  608MOL0     O80171   2.650   3.612   6.153 -0.5683 -0.1871 -1.2006
  608MOL0     C80172   2.860   3.326   6.231 -0.2597  0.3006 -0.0336
  608MOL0     C80173   2.999   3.281   6.227  0.2554  0.0396 -0.1043
  608MOL0     N80174   3.538   3.002   6.673 -0.4828 -0.6710 -0.1176
  608MOL0     N80175   3.642   2.974   6.744  0.0181 -0.5288 -0.4019
  608MOL0     C80176   4.538   2.507   6.394 -1.0491  0.5845  0.2536
  608MOL0     C80177   4.654   2.447   6.446 -0.2048 -0.0679  0.6219
  608MOL0     C80178   5.067   2.452   6.675  0.9659 -0.2324 -0.0139
  608MOL0     C80179   5.182   2.529   6.700 -0.7867 -0.3273 -0.1272
  608MOL0     C80180   5.290   2.469   6.768 -0.1014  0.4544 -0.5929
  608MOL0     C80181   5.302   2.331   6.803 -0.2367  0.8293  0.2490
  608MOL0     O80182   5.422   2.291   6.852  0.0057 -0.1614  0.3266
  608MOL0     C80183   5.430   2.200   6.970  0.1282  0.2048  0.3653
  608MOL0     C80184   5.469   2.271   7.100  0.9642  0.1671 -1.1802
  608MOL0     C80185   5.348   2.361   7.148  0.0091  0.1796 -0.2996
  608MOL0     C80186   5.388   2.478   7.233  0.5688 -0.8186  0.4563
  608MOL0     C80187   5.461   2.581   7.157  0.7474  0.0402 -0.5501
  608MOL0     C80188   5.521   2.668   7.097 -0.3341 -0.4416  0.1866
  608MOL0     C80189   5.192   2.253   6.761  0.1525 -0.9145 -0.2977
  608MOL0     C80190   5.070   2.314   6.714 -0.6814  0.9746  0.6483
  608MOL0     H80191   4.709   2.647   6.709  0.4643 -3.4827 -0.0060
  608MOL0     H80192   4.549   2.792   6.577  1.2921 -0.2558  0.4808
  608MOL0     H80193   4.238   2.812   6.364  1.5107 -1.4857 -3.0394
  608MOL0     H80194   4.352   2.868   6.481 -0.6278  0.5265 -1.5722
  608MOL0     H80195   4.310   2.633   6.598 -0.0057 -0.4765 -0.0485
  608MOL0     H80196   4.175   2.625   6.475 -0.6157  0.4288  0.4249
  608MOL0     H80197   4.187   2.809   6.725 -1.1218 -0.9415  1.2451
  608MOL0     H80198   4.064   2.695   6.677  1.0591 -1.4169 -2.0848
  608MOL0     H80199   4.150   2.966   6.542 -0.6263  0.1728  0.1898
  608MOL0     H80200   4.025   2.863   6.475 -0.0106  0.1246 -1.1359
  608MOL0     H80201   3.890   2.905   6.688 -0.7485  0.2170 -0.5246
  608MOL0     H80202   3.900   3.028   6.573 -2.0575 -2.3712 -0.7830
  608MOL0     H80203   4.125   3.100   6.723  0.6050  0.1721 -1.3288
  608MOL0     H80204   4.049   2.991   6.835 -0.1236  2.7209  0.9080
  608MOL0     H80205   3.986   3.221   6.874  2.1288 -1.3414  0.5442
  608MOL0     H80206   3.867   3.213   6.735 -2.7520 -1.6973  1.8544
  608MOL0     H80207   3.776   3.166   6.959 -0.8042  1.2124 -0.6465
  608MOL0     H80208   3.833   2.991   6.922 -0.3926  0.0968 -0.5488
  608MOL0     H80209   3.615   3.289   6.816 -3.2452  0.2253  0.5258
  608MOL0     H80210   3.423   3.329   6.663 -4.2233  0.6733  0.1135
  608MOL0     H80211   3.328   3.186   6.656 -0.1441  0.4664  1.1113
  608MOL0     H80212   3.425   3.110   6.430 -2.6005  0.6040 -1.6596
  608MOL0     H80213   3.516   3.265   6.444 -0.3810 -0.4920 -1.9337
  608MOL0     H80214   3.206   3.237   6.449 -0.8816  2.1196 -0.3053
  608MOL0     H80215   3.296   3.390   6.422  1.6012 -0.0169 -1.8056
  608MOL0     H80216   3.262   3.168   6.241 -2.7865  0.7654 -0.6294
  608MOL0     H80217   3.406   3.266   6.219 -0.8592  0.0865 -3.7004
  608MOL0     H80218   3.142   3.573   6.112  0.0054  0.2994 -1.0700
  608MOL0     H80219   2.903   3.637   6.092  0.7659 -0.8183 -1.6844
  608MOL0     H80220   2.469   3.190   6.216 -0.3298  0.1687  1.1090
  608MOL0     H80221   2.247   3.158   6.189 -2.1454  1.6964  1.7557
  608MOL0     H80222   1.961   3.488   6.051 -2.1585 -1.0475 -2.7522
  608MOL0     H80223   1.954   3.450   6.225 -2.4222  2.8289 -1.4676
  608MOL0     H80224   1.744   3.405   6.171 -0.8630 -0.8827 -0.7250
  608MOL0     H80225   1.806   3.240   6.148 -0.5836 -0.4920  0.0060
  608MOL0     H80226   1.840   3.288   5.913 -1.2446 -0.0361  0.2954
  608MOL0     H80227   1.777   3.452   5.935  0.8090 -0.3707 -0.3768
  608MOL0     H80228   1.607   3.313   5.831 -1.8586  0.5000 -0.3500
  608MOL0     H80229   1.625   3.185   5.956 -1.8022  0.3664  2.2522
  608MOL0     H80230   1.414   3.347   5.955 -0.5575  0.3523  0.0769
  608MOL0     H80231   1.525   3.449   6.045 -1.8288  0.7927  0.7575
  608MOL0     H80232   1.571   3.265   6.193 -1.9474 -0.7026  3.2866
  608MOL0     H80233   1.487   3.147   6.118  3.4153 -0.1568  1.7063
  608MOL0     H80234   1.388   3.408   6.268  2.3353  1.0422 -0.4895
  608MOL0     H80235   1.280   3.336   6.154  0.2662  0.4582 -0.3492
  608MOL0     H80236   1.395   3.207   6.418  0.2185 -0.0111 -0.2574
  608MOL0     H80237   1.296   3.113   6.308  1.3692  0.0169  0.2056
  608MOL0     H80238   2.187   3.582   6.110  2.3372  2.1875  0.7488
  608MOL0     H80239   2.409   3.614   6.161 -0.7711  0.2634  1.1582
  608MOL0     H80240   2.782   3.259   6.262 -1.4478  0.6473 -2.0720
  608MOL0     H80241   3.025   3.179   6.255 -1.1126 -0.0555  0.9383
  608MOL0     H80242   4.493   2.462   6.306  1.6108  0.9169 -1.4094
  608MOL0     H80243   4.689   2.355   6.401 -2.8953 -0.6800 -0.4115
  608MOL0     H80244   5.187   2.636   6.683 -0.9350 -0.0067  1.6760
  608MOL0     H80245   5.371   2.538   6.788 -2.1575  3.1866 -1.1461
  608MOL0     H80246   5.511   2.136   6.933 -0.2077 -0.2849  0.4629
  608MOL0     H80247   5.343   2.138   6.995 -0.6059  0.0188 -2.2964
  608MOL0     H80248   5.491   2.193   7.173 -1.2388  0.7977  0.2614
  608MOL0     H80249   5.561   2.329   7.084  0.4654  1.0658 -0.8393
  608MOL0     H80250   5.290   2.293   7.211 -3.0296  1.4917 -1.4939
  608MOL0     H80251   5.283   2.392   7.066  2.9496  2.0715 -2.1193
  608MOL0     H80252   5.304   2.535   7.275  0.6117  0.9041 -1.6102
  608MOL0     H80253   5.452   2.440   7.314 -0.4499 -0.6195  1.3828
  608MOL0     H80254   5.577   2.748   7.055  0.4992 -1.1708 -0.1294
  608MOL0     H80255   5.205   2.145   6.763  0.1460 -0.9705 -1.8505
  608MOL0     H80256   4.981   2.253   6.699 -0.4817  0.5659  1.0937
  609MOL0     O80257   1.892   7.841   9.966 -0.3513  0.1867 -0.4752
  609MOL0     C80258   1.778   7.892   9.971  0.5885 -0.3248  0.6598
  609MOL0     O80259   1.687   7.891  10.077 -0.1076  0.2490 -0.4880
  609MOL0     C80260   1.724   7.819  10.185  0.8817 -0.7826 -0.7735
  609MOL0     C80261   1.658   7.700  10.217  1.2161  1.2856 -0.3904
  609MOL0     C80262   1.702   7.640  10.335  0.0183  0.7586 -0.4031
  609MOL0     C80263   1.793   7.691  10.430  0.5383 -0.0100  0.1278
  609MOL0     O80264   1.830   7.628  10.547 -0.2976  0.5807  0.1823
  609MOL0     C80265   1.754   7.512  10.590 -0.2904 -1.2466 -0.0987
  609MOL0     C80266   1.616   7.556  10.655 -0.0881  0.0727 -0.2193
  609MOL0     C80267   1.524   7.438  10.681 -0.5108 -1.3675  0.8425
  609MOL0     C80268   1.457   7.384  10.554  0.3817  0.5699  0.2825
  609MOL0     C80269   1.370   7.256  10.572 -0.0895  0.1528  0.0885
  609MOL0     C80270   1.237   7.283  10.642 -0.1633  0.4886  0.4323
  609MOL0     C80271   1.127   7.356  10.560  0.6542 -0.2305 -0.3808
  609MOL0     C80272   1.039   7.453  10.648  0.0300 -1.0138 -0.1242
  609MOL0     N80273   0.939   7.518  10.559 -0.2092  0.2893  0.2391
  609MOL0     C80274   0.864   7.465  10.447 -0.0498 -0.0128 -0.2705
  609MOL0     C80275   0.787   7.571  10.408  1.5233  0.0393  0.1324
  609MOL0     C80276   0.699   7.568  10.287 -0.2349 -0.4965  0.0275
  609MOL0     C80277   0.555   7.536  10.312 -0.4979  1.1291 -0.4459
  609MOL0     C80278   0.464   7.603  10.218  0.2993  0.0009  0.8204
  609MOL0     C80279   0.314   7.578  10.262  0.1268 -0.2553  0.5728
  609MOL0     O80280   0.231   7.634  10.158  0.8670  0.5501  0.6927
  609MOL0     C80281   0.098   7.646  10.178 -0.3484 -0.4040  1.0011
  609MOL0     C80282   0.039   7.747  10.097  0.6155 -0.0844 -0.8792
  609MOL0     C80283  -0.099   7.761  10.097  0.1391  0.6982  0.1796
  609MOL0     C80284  -0.177   7.686  10.189 -0.2214 -0.4308  0.6284
  609MOL0     C80285  -0.330   7.714  10.194 -0.3342  0.7059 -0.1461
  609MOL0     O80286  -0.399   7.663  10.295 -0.1495  0.5156  0.1551
  609MOL0     C80287  -0.528   7.635  10.268  0.0878  0.0878  0.1037
  609MOL0     C80288  -0.620   7.735  10.294  0.6941  0.1093  0.2988
  609MOL0     C80289  -0.755   7.708  10.279  0.2662  0.1458 -0.5721
  609MOL0     C80290  -0.801   7.580  10.232  0.9358  0.1543  0.5836
  609MOL0     O80291  -0.932   7.547  10.207 -0.0481  0.2700 -0.0469
  609MOL0     C80292  -1.034   7.646  10.242  0.9454 -0.1213  1.0017
  609MOL0     C80293  -1.170   7.587  10.205  0.0841  0.4445 -0.9331
  609MOL0     C80294  -1.213   7.477  10.305 -0.3829 -0.0412  0.3234
  609MOL0     C80295  -1.314   7.390  10.241 -0.1960 -0.0006  0.8919
  609MOL0     C80296  -1.443   7.455  10.188  0.5832 -0.3609  0.5842
  609MOL0     C80297  -1.564   7.372  10.237 -0.2356 -0.1247  0.6926
  609MOL0     C80298  -1.564   7.221  10.189 -0.3943 -0.4664 -0.1103
  609MOL0     C80299  -1.555   7.195  10.042 -0.2907 -0.2933 -0.7533
  609MOL0    Cl80300  -1.565   7.017  10.003 -0.1502  0.1318 -0.0622
  609MOL0     C80301  -0.698   7.478  10.218 -0.7273 -0.6991 -0.3663
  609MOL0     C80302  -0.565   7.508  10.228  0.7882  0.2040  0.1927
  609MOL0     O80303  -0.373   7.799  10.116  0.7463  0.0362 -0.0675
  609MOL0     C80304  -0.116   7.594  10.270 -1.0682 -0.3363 -1.1909
  609MOL0     C80305   0.024   7.577  10.270 -0.1635 -0.7941  0.6317
  609MOL0     N80306   0.786   7.671  10.509 -0.2224 -0.0300 -0.5790
  609MOL0     N80307   0.876   7.632  10.593 -0.1573  0.4908  0.2665
  609MOL0     C80308   1.869   7.801  10.394  0.6160  0.2093  0.7674
  609MOL0     C80309   1.825   7.867  10.275  2.1518 -0.4066  0.5256
  609MOL0     C80310   1.737   7.959   9.843  0.2235  0.2720  0.2625
  609MOL0     C80311   1.807   7.934   9.717  0.2121  0.3696  0.1936
  609MOL0     C80312   1.759   7.986   9.593  0.6570 -0.1177 -0.6188
  609MOL0     C80313   1.643   8.064   9.587 -0.6571  0.0603  0.3836
  609MOL0     O80314   1.588   8.096   9.467  0.1874  0.5648 -0.2356
  609MOL0     C80315   1.663   8.183   9.382 -0.1218 -0.3827 -0.1837
  609MOL0     C80316   1.710   8.306   9.463  0.2935 -0.2032  0.2723
  609MOL0     C80317   1.592   8.388   9.531 -0.3686  0.1747 -0.2935
  609MOL0     C80318   1.632   8.506   9.627 -0.5305  1.0275 -0.8357
  609MOL0     C80319   1.519   8.594   9.651  0.0872  0.1843 -0.1682
  609MOL0     C80320   1.409   8.645   9.646  0.1006 -0.7097  1.4508
  609MOL0     C80321   1.571   8.090   9.706 -0.3637  0.4911 -0.1772
  609MOL0     C80322   1.620   8.040   9.830  0.0737 -0.2150  0.7121
  609MOL0     H80323   1.577   7.658  10.158  1.6705 -0.6046  0.2340
  609MOL0     H80324   1.644   7.549  10.349  0.5329  0.6799  1.5516
  609MOL0     H80325   1.807   7.458  10.668  1.8269 -0.3150 -0.8359
  609MOL0     H80326   1.752   7.447  10.502  1.7535 -1.9647  0.3323
  609MOL0     H80327   1.564   7.640  10.608 -2.4974 -1.7632 -1.0430
  609MOL0     H80328   1.636   7.592  10.756 -0.4130 -0.4085  0.0201
  609MOL0     H80329   1.436   7.467  10.738 -0.3349  0.0241  0.4454
  609MOL0     H80330   1.584   7.355  10.720  2.3312 -2.2242 -4.4158
  609MOL0     H80331   1.401   7.461  10.500 -0.6368 -1.9052 -2.4225
  609MOL0     H80332   1.539   7.356  10.487 -0.0856  0.7741 -0.3861
  609MOL0     H80333   1.429   7.188  10.634 -0.2527  0.8874  1.0657
  609MOL0     H80334   1.348   7.218  10.471  1.7794 -0.0162 -0.2911
  609MOL0     H80335   1.251   7.329  10.740 -1.1972  2.3767 -0.2481
  609MOL0     H80336   1.194   7.189  10.679  0.1355  0.1435 -0.0877
  609MOL0     H80337   1.166   7.410  10.474 -1.1811  1.0732 -0.4621
  609MOL0     H80338   1.061   7.275  10.526  2.7220 -2.6094  0.9196
  609MOL0     H80339   1.099   7.535  10.690 -0.5442  1.0751 -3.0591
  609MOL0     H80340   0.986   7.396  10.725 -1.8411  1.5557  0.6622
  609MOL0     H80341   0.895   7.367  10.411  3.4057  0.8555  0.0352
  609MOL0     H80342   0.737   7.509  10.204 -0.4981 -2.2626  1.1107
  609MOL0     H80343   0.703   7.667  10.240  2.5872 -0.8338 -0.6639
  609MOL0     H80344   0.522   7.562  10.413 -0.4546 -0.9868  0.1423
  609MOL0     H80345   0.556   7.428  10.296 -1.1391  1.4508 -3.1864
  609MOL0     H80346   0.483   7.710  10.211 -0.2430  0.0104 -3.0585
  609MOL0     H80347   0.480   7.568  10.115  0.8710  1.0698  0.5325
  609MOL0     H80348   0.312   7.644  10.350  1.3596  1.4440 -0.6028
  609MOL0     H80349   0.306   7.475  10.297 -0.2855  0.8754  4.2760
  609MOL0     H80350   0.098   7.813  10.034 -1.9639  0.9745 -2.3169
  609MOL0     H80351  -0.154   7.831  10.036 -1.0844 -2.1860 -2.2675
  609MOL0     H80352  -0.593   7.839  10.308 -1.2610  0.9162 -1.5183
  609MOL0     H80353  -0.831   7.784  10.299  1.9871  1.2284  2.6375
  609MOL0     H80354  -1.023   7.741  10.188 -0.3200  0.1403  1.1699
  609MOL0     H80355  -1.039   7.677  10.346  0.1535  1.5135  0.5034
  609MOL0     H80356  -1.167   7.528  10.113 -1.3820 -2.3749  0.6965
  609MOL0     H80357  -1.243   7.668  10.198  0.5066  1.0069  0.6529
  609MOL0     H80358  -1.254   7.522  10.396  0.7709 -1.1964  1.4492
  609MOL0     H80359  -1.144   7.395  10.328 -4.1664 -5.5517 -4.6918
  609MOL0     H80360  -1.270   7.323  10.166  0.4824  1.7340 -0.3045
  609MOL0     H80361  -1.349   7.324  10.322 -1.7136 -2.0934 -1.3249
  609MOL0     H80362  -1.441   7.469  10.079  1.5490 -0.6563  0.5618
  609MOL0     H80363  -1.462   7.554  10.232  1.0635 -0.1005  0.2108
  609MOL0     H80364  -1.652   7.424  10.200 -0.2379  0.9435  2.1536
  609MOL0     H80365  -1.577   7.388  10.344 -1.1621  4.1624  0.0924
  609MOL0     H80366  -1.485   7.166  10.241 -0.7136 -1.6683 -0.8754
  609MOL0     H80367  -1.656   7.178  10.229  1.4969 -2.7308  2.0967
  609MOL0     H80368  -1.456   7.225  10.008  0.5366 -2.9041 -0.8853
  609MOL0     H80369  -1.632   7.241   9.981  1.9302  1.6948 -2.2207
  609MOL0     H80370  -0.730   7.375  10.206 -3.4705 -0.0867  1.0002
  609MOL0     H80371  -0.496   7.424  10.216 -0.5209 -1.0182  0.9708
  609MOL0     H80372  -0.161   7.513  10.327  2.2051 -3.6064 -2.8247
  609MOL0     H80373   0.071   7.496  10.326 -1.5099 -2.5190 -0.5994
  609MOL0     H80374   1.945   7.835  10.464  2.5274 -2.8253  0.3772
  609MOL0     H80375   1.875   7.963  10.260  1.5416 -0.0848  0.5178
  609MOL0     H80376   1.899   7.878   9.713 -0.7956 -1.3939  0.7474
  609MOL0     H80377   1.811   7.958   9.502  2.7812  0.7066  0.2754
  609MOL0     H80378   1.594   8.212   9.302  0.4783  1.7578 -0.0054
  609MOL0     H80379   1.745   8.122   9.344  0.3317 -0.9216  1.5642
  609MOL0     H80380   1.788   8.281   9.535 -0.4023  2.0812  1.9135
  609MOL0     H80381   1.758   8.373   9.391  2.5365  1.7571  3.3598
  609MOL0     H80382   1.525   8.319   9.583 -0.8734 -0.6889 -2.0369
  609MOL0     H80383   1.537   8.427   9.445 -2.0986 -2.2297 -0.3905
  609MOL0     H80384   1.666   8.474   9.726  0.4442  2.1072 -0.8115
  609MOL0     H80385   1.719   8.553   9.581  0.4439  2.0449  1.8449
  609MOL0     H80386   1.313   8.691   9.660 -0.1476  0.5038 -2.7867
  609MOL0     H80387   1.477   8.145   9.703 -1.0145 -0.6314 -1.1164
  609MOL0     H80388   1.561   8.055   9.919  0.1329 -0.7773  0.8522
  610MOL0     O80389   5.850   9.264   5.958 -0.1795  0.2681 -0.2288
  610MOL0     C80390   5.919   9.198   6.040 -0.8491 -0.4523  0.0209
  610MOL0     O80391   5.881   9.148   6.162  0.9112 -0.4120 -0.3914
  610MOL0     C80392   5.742   9.143   6.193 -0.3570  0.5431  0.7410
  610MOL0     C80393   5.630   9.107   6.111  0.4796  0.0750  0.2042
  610MOL0     C80394   5.500   9.099   6.167  0.7393 -0.2426  0.2822
  610MOL0     C80395   5.484   9.114   6.306 -0.3687 -0.4945  0.1564
  610MOL0     O80396   5.371   9.078   6.356  0.3044  0.0666  1.5532
  610MOL0     C80397   5.316   9.152   6.459  0.9462 -0.7518 -0.6579
  610MOL0     C80398   5.296   9.302   6.438 -1.1500 -0.1701  0.2277
  610MOL0     C80399   5.223   9.380   6.552 -0.0338 -0.7655 -0.3113
  610MOL0     C80400   5.083   9.353   6.577  0.3252 -0.3785 -0.5371
  610MOL0     C80401   5.024   9.412   6.702 -0.5420  0.8353 -0.2072
  610MOL0     C80402   4.892   9.340   6.714 -0.0918  0.4136 -0.5249
  610MOL0     C80403   4.799   9.418   6.808 -0.2100  0.6030 -0.6929
  610MOL0     C80404   4.821   9.390   6.957 -0.0815 -0.0359  0.0023
  610MOL0     N80405   4.703   9.412   7.036 -0.7206  0.0903  0.1472
  610MOL0     C80406   4.638   9.532   7.058 -0.3836  0.6419  0.1894
  610MOL0     C80407   4.530   9.494   7.134  0.2728  0.2462  0.1044
  610MOL0     C80408   4.434   9.589   7.197  0.6161 -0.5254  0.1846
  610MOL0     C80409   4.452   9.593   7.347 -0.6229 -1.0666  0.2439
  610MOL0     C80410   4.333   9.654   7.425 -0.3535  0.2085 -0.2769
  610MOL0     C80411   4.385   9.693   7.565  1.2281  0.8901 -0.2815
  610MOL0     O80412   4.283   9.735   7.651 -0.6146 -0.6009  0.0839
  610MOL0     C80413   4.316   9.722   7.782  0.0858  1.0684 -0.1923
  610MOL0     C80414   4.358   9.826   7.864  0.0064 -0.1599  0.4690
  610MOL0     C80415   4.396   9.814   7.997 -0.0562  0.0868  0.5580
  610MOL0     C80416   4.394   9.687   8.053  0.6809  0.0126 -0.0663
  610MOL0     C80417   4.419   9.650   8.202  0.0468  0.8412  0.2147
  610MOL0     O80418   4.444   9.749   8.283  0.8748 -0.6281 -0.1196
  610MOL0     C80419   4.468   9.750   8.417 -0.1711 -1.4855 -0.1129
  610MOL0     C80420   4.542   9.851   8.474 -0.3581 -0.9134 -0.0891
  610MOL0     C80421   4.572   9.854   8.611  0.0279 -0.8159 -0.0231
  610MOL0     C80422   4.523   9.761   8.702  0.8103  0.3607  0.2455
  610MOL0     O80423   4.554   9.747   8.841  0.0772  0.0169 -1.0762
  610MOL0     C80424   4.636   9.845   8.900 -0.3052 -0.5589  0.6333
  610MOL0     C80425   4.782   9.789   8.897  0.4811  0.2602 -0.5011
  610MOL0     C80426   4.814   9.658   8.973  0.4821 -0.7121  0.2360
  610MOL0     C80427   4.839   9.677   9.124 -0.5410 -0.0753  0.2426
  610MOL0     C80428   4.823   9.548   9.201  0.0654  0.1018  0.8206
  610MOL0     C80429   4.829   9.584   9.350  1.2915 -0.8738 -0.1127
  610MOL0     C80430   4.806   9.470   9.451 -0.0295 -0.0154  0.9108
  610MOL0     C80431   4.753   9.525   9.583  0.0105 -0.3172 -0.1246
  610MOL0    Cl80432   4.866   9.640   9.651 -0.5422 -0.2415 -0.1780
  610MOL0     C80433   4.434   9.669   8.643 -1.0845  0.6970  0.4617
  610MOL0     C80434   4.407   9.663   8.504  0.2581 -0.2743  0.2473
  610MOL0     O80435   4.442   9.536   8.229  0.2632 -0.1734  1.0012
  610MOL0     C80436   4.355   9.578   7.968  0.7003  0.2552  0.4786
  610MOL0     C80437   4.316   9.597   7.835 -0.2672 -0.6233 -0.2737
  610MOL0     N80438   4.528   9.353   7.148  0.0786 -0.1277  0.2915
  610MOL0     N80439   4.630   9.317   7.093 -0.8705  0.3764  0.3071
  610MOL0     C80440   5.591   9.139   6.388  0.1711  0.6734  0.5381
  610MOL0     C80441   5.709   9.157   6.326 -0.6315  0.1107  0.4068
  610MOL0     C80442   6.065   9.187   6.007  0.2114 -0.4127  0.4659
  610MOL0     C80443   6.101   9.184   5.871 -0.5483 -0.2531  0.1139
  610MOL0     C80444   6.231   9.189   5.833  0.0850  0.5664 -0.0177
  610MOL0     C80445   6.337   9.199   5.921 -0.0254  0.1025  0.7324
  610MOL0     O80446   6.472   9.191   5.886 -0.2057  0.5038 -0.0744
  610MOL0     C80447   6.512   9.125   5.756  0.0658  0.4550  0.1419
  610MOL0     C80448   6.562   9.215   5.650  0.7531 -0.5247  0.0086
  610MOL0     C80449   6.610   9.140   5.531  0.6102  0.3935  0.4774
  610MOL0     C80450   6.761   9.159   5.489  0.8395 -0.1083 -0.8179
  610MOL0     C80451   6.787   9.086   5.366 -1.2696  0.4926 -0.3474
  610MOL0     C80452   6.834   9.031   5.268 -0.4418  0.6997  0.4489
  610MOL0     C80453   6.297   9.201   6.053  0.0063 -0.5644  1.7391
  610MOL0     C80454   6.169   9.193   6.096 -0.4617 -0.1852 -0.2755
  610MOL0     H80455   5.637   9.083   6.005 -1.4707  2.4679 -0.5669
  610MOL0     H80456   5.411   9.065   6.115  0.7558 -0.2811  0.2781
  610MOL0     H80457   5.378   9.138   6.548 -0.9525  1.2944  1.1293
  610MOL0     H80458   5.217   9.115   6.490 -0.0628  1.5822 -0.8770
  610MOL0     H80459   5.235   9.320   6.349 -0.2222 -0.6663 -0.5221
  610MOL0     H80460   5.389   9.352   6.410 -1.2890 -0.9506 -1.7973
  610MOL0     H80461   5.221   9.489   6.539  0.3401 -0.7281 -0.0585
  610MOL0     H80462   5.282   9.355   6.640  1.4390  2.3801 -0.2363
  610MOL0     H80463   5.030   9.382   6.486  1.0843  0.6326 -0.6794
  610MOL0     H80464   5.067   9.245   6.587 -2.1878  0.1185  2.9688
  610MOL0     H80465   5.017   9.521   6.692  2.2135  1.2894  1.7049
  610MOL0     H80466   5.086   9.399   6.791 -2.5316 -2.3349  0.9045
  610MOL0     H80467   4.907   9.237   6.748  0.0415  1.6473  3.7116
  610MOL0     H80468   4.842   9.334   6.617 -2.6776 -1.1335  0.7985
  610MOL0     H80469   4.797   9.525   6.787 -0.7469  0.0907 -3.6286
  610MOL0     H80470   4.698   9.382   6.786 -0.8255  1.4493  0.6029
  610MOL0     H80471   4.902   9.450   6.999  1.3273 -1.5901 -0.3956
  610MOL0     H80472   4.855   9.286   6.970 -4.2500 -1.5273  0.4314
  610MOL0     H80473   4.670   9.630   7.024 -1.9131  0.8078 -0.8491
  610MOL0     H80474   4.330   9.559   7.179 -0.7468  2.8510  1.5044
  610MOL0     H80475   4.432   9.688   7.151 -2.6746 -0.6755 -0.2240
  610MOL0     H80476   4.532   9.666   7.363  0.2799 -2.5740  3.3700
  610MOL0     H80477   4.478   9.496   7.390  0.6400 -1.8280 -2.0314
  610MOL0     H80478   4.309   9.747   7.374 -1.2510  2.0746  3.2698
  610MOL0     H80479   4.253   9.579   7.430  1.1439 -1.4337  0.5414
  610MOL0     H80480   4.469   9.763   7.560  1.6562  0.3373 -0.9602
  610MOL0     H80481   4.432   9.604   7.607  1.9690  1.2747 -0.2940
  610MOL0     H80482   4.340   9.927   7.827 -1.3732 -0.0894  1.3127
  610MOL0     H80483   4.426   9.904   8.050 -1.4432  2.2611 -2.0550
  610MOL0     H80484   4.586   9.917   8.400 -1.7223 -0.5425 -0.5783
  610MOL0     H80485   4.621   9.942   8.651 -0.0599  0.5089 -2.6172
  610MOL0     H80486   4.606   9.860   9.004  0.8767  0.2004  0.8753
  610MOL0     H80487   4.620   9.941   8.851  0.0414  1.0307  3.4621
  610MOL0     H80488   4.833   9.873   8.944  1.4566 -1.7230  2.2534
  610MOL0     H80489   4.820   9.779   8.795 -0.2190  1.7824 -0.9333
  610MOL0     H80490   4.912   9.620   8.941 -1.3877 -4.0767 -2.1120
  610MOL0     H80491   4.743   9.577   8.956  0.3920 -1.6316  4.1699
  610MOL0     H80492   4.937   9.714   9.153 -0.0886  0.9318 -2.3095
  610MOL0     H80493   4.775   9.763   9.149 -0.0729  0.3992 -0.1715
  610MOL0     H80494   4.903   9.480   9.171  1.1067  1.2323  0.9540
  610MOL0     H80495   4.725   9.504   9.179  0.0585  0.3180  0.3914
  610MOL0     H80496   4.747   9.655   9.359  1.4543 -0.4343 -1.8273
  610MOL0     H80497   4.917   9.643   9.377 -0.8999  1.7776  1.8009
  610MOL0     H80498   4.744   9.386   9.419  0.0660  0.5032 -0.7292
  610MOL0     H80499   4.904   9.422   9.459  2.0626  3.4408 -1.3590
  610MOL0     H80500   4.740   9.443   9.654 -0.8207 -0.1620 -0.0889
  610MOL0     H80501   4.659   9.581   9.583 -0.7002 -1.2062  3.7697
  610MOL0     H80502   4.386   9.587   8.696 -2.2411  0.8246 -0.3397
  610MOL0     H80503   4.349   9.579   8.469 -1.9346  1.1871  0.1840
  610MOL0     H80504   4.351   9.483   8.021  0.6599  0.0062  0.0326
  610MOL0     H80505   4.287   9.505   7.785 -1.1586 -0.9174  0.7293
  610MOL0     H80506   5.566   9.151   6.493 -1.5270  3.4346 -0.0638
  610MOL0     H80507   5.793   9.182   6.390 -0.4958 -0.2368  0.3664
  610MOL0     H80508   6.024   9.168   5.796  0.1253  1.0246 -0.8808
  610MOL0     H80509   6.268   9.190   5.731 -0.1936 -0.2531 -0.1361
  610MOL0     H80510   6.439   9.057   5.710  0.9234 -1.5591  1.6328
  610MOL0     H80511   6.589   9.053   5.785  0.9152  2.0511  2.0971
  610MOL0     H80512   6.481   9.284   5.621 -0.4620 -1.4681  1.0511
  610MOL0     H80513   6.640   9.278   5.694  0.4113 -1.8657  2.7664
  610MOL0     H80514   6.549   9.183   5.451  1.3227  4.1876  1.7625
  610MOL0     H80515   6.589   9.033   5.536  0.3418  0.4110 -0.1766
  610MOL0     H80516   6.784   9.264   5.465 -1.4560  0.8060  0.5912
  610MOL0     H80517   6.824   9.128   5.572 -0.2783  2.3287  1.0681
  610MOL0     H80518   6.869   8.985   5.178  0.2634  2.9610 -0.5215
  610MOL0     H80519   6.377   9.215   6.125  2.0013  1.6746 -0.7133
  610MOL0     H80520   6.144   9.191   6.201 -1.9677 -1.8490 -0.5988
  611MOL0     O80521   3.114   0.268   7.364 -0.1177 -0.2252 -0.5410
  611MOL0     C80522   3.195   0.183   7.406  0.9516 -1.0713  1.0779
  611MOL0     O80523   3.172   0.078   7.494  0.1925 -0.0938  0.7049
  611MOL0     C80524   3.044   0.068   7.548  0.4875  0.7646  1.0583
  611MOL0     C80525   2.945   0.013   7.466 -0.4194 -0.4313  0.2272
  611MOL0     C80526   2.814   0.011   7.508  0.6486 -0.7983  0.5875
  611MOL0     C80527   2.777   0.051   7.638 -0.8356  0.2375 -0.4652
  611MOL0     O80528   2.650   0.055   7.695  0.0969 -0.5667 -0.0091
  611MOL0     C80529   2.540  -0.021   7.639 -0.5217 -0.4693 -0.0606
  611MOL0     C80530   2.415   0.035   7.702  0.1100 -0.4957 -0.5791
  611MOL0     C80531   2.290  -0.038   7.642 -0.5597  0.7278  0.4230
  611MOL0     C80532   2.170   0.010   7.714 -0.2836 -1.0147 -0.8690
  611MOL0     C80533   2.041  -0.022   7.638 -0.5717 -0.8973 -0.1002
  611MOL0     C80534   1.981  -0.162   7.637  0.2577  0.5723 -0.3987
  611MOL0     C80535   2.063  -0.271   7.571 -0.5034 -0.1824  0.2454
  611MOL0     C80536   1.964  -0.393   7.541 -0.5542  0.0987  0.9189
  611MOL0     N80537   2.029  -0.518   7.494  0.4370  0.1683  0.2812
  611MOL0     C80538   2.053  -0.554   7.362  0.7004  0.1528 -0.7153
  611MOL0     C80539   2.079  -0.691   7.370  0.4082 -1.0267  1.3801
  611MOL0     C80540   2.107  -0.765   7.239 -0.3184  0.9602  0.3624
  611MOL0     C80541   2.258  -0.771   7.222 -0.2274 -1.3753  0.4076
  611MOL0     C80542   2.307  -0.866   7.116  0.7286  0.0027  0.6505
  611MOL0     C80543   2.466  -0.862   7.103  0.5624  0.2452 -1.3487
  611MOL0     O80544   2.489  -0.738   7.056 -0.5909 -0.2497 -0.2515
  611MOL0     C80545   2.618  -0.706   7.015 -0.6733 -0.0279 -0.3739
  611MOL0     C80546   2.639  -0.597   6.937 -0.9425 -0.7840 -0.0328
  611MOL0     C80547   2.755  -0.573   6.870  0.0278  0.4729 -0.4330
  611MOL0     C80548   2.869  -0.652   6.898  0.3918 -0.1788  0.1078
  611MOL0     C80549   3.000  -0.610   6.846  0.3172 -0.4508 -0.2501
  611MOL0     O80550   3.004  -0.494   6.770  0.1060 -0.3859  0.3971
  611MOL0     C80551   3.118  -0.464   6.703  0.1403 -0.4110 -0.0673
  611MOL0     C80552   3.184  -0.561   6.630  0.8990  0.0543 -0.0821
  611MOL0     C80553   3.291  -0.537   6.554  0.4044  0.4638 -0.9165
  611MOL0     C80554   3.350  -0.410   6.555  0.2413  0.7883 -0.1211
  611MOL0     O80555   3.464  -0.395   6.479  0.9514 -0.2446 -0.0884
  611MOL0     C80556   3.442  -0.315   6.361 -0.1804  0.2669 -0.4346
  611MOL0     C80557   3.568  -0.301   6.279 -0.3317  0.5849 -0.2426
  611MOL0     C80558   3.540  -0.188   6.191 -0.0603 -0.6269  1.1474
  611MOL0     C80559   3.666  -0.145   6.114 -0.1629  0.6338 -0.3087
  611MOL0     C80560   3.641  -0.028   6.014 -0.1780  0.1629 -0.4677
  611MOL0     C80561   3.741  -0.006   5.900  0.6818 -0.0522 -0.2172
  611MOL0     C80562   3.862   0.078   5.940 -0.5972  0.6561  0.0914
  611MOL0     C80563   3.973   0.103   5.827 -0.5107 -0.5317 -0.1782
  611MOL0    Cl80564   3.882   0.172   5.678  0.2112 -0.1387 -0.0627
  611MOL0     C80565   3.301  -0.319   6.644 -0.3939 -0.5636  0.3450
  611MOL0     C80566   3.186  -0.344   6.724  0.0240  0.5669 -0.1069
  611MOL0     O80567   3.097  -0.678   6.886  0.6507 -0.1642 -0.0950
  611MOL0     C80568   2.851  -0.768   6.986 -0.2078 -0.2834  0.4286
  611MOL0     C80569   2.728  -0.789   7.042 -0.0260 -0.3558  0.3226
  611MOL0     N80570   2.080  -0.734   7.497  0.1161 -0.1307 -0.2743
  611MOL0     N80571   2.031  -0.636   7.568 -0.2982  0.7913  0.4997
  611MOL0     C80572   2.889   0.090   7.724  0.9646  0.9505  0.0698
  611MOL0     C80573   3.027   0.096   7.681 -0.3362  0.2434 -0.7087
  611MOL0     C80574   3.331   0.190   7.342 -0.1348  0.1608 -0.0647
  611MOL0     C80575   3.365   0.293   7.247  0.8292  0.0450  1.0919
  611MOL0     C80576   3.499   0.294   7.193  0.5384 -0.5555  0.9985
  611MOL0     C80577   3.592   0.214   7.252  1.5353  0.2527 -0.5035
  611MOL0     O80578   3.721   0.238   7.207  0.1039 -0.2266  0.5807
  611MOL0     C80579   3.824   0.243   7.300 -1.0923  0.3784  0.5167
  611MOL0     C80580   3.946   0.323   7.259 -0.3371  0.2347 -0.4745
  611MOL0     C80581   4.054   0.328   7.370 -0.8463  0.8740 -0.7573
  611MOL0     C80582   4.009   0.367   7.512  0.4932 -1.1622 -0.0433
  611MOL0     C80583   4.123   0.413   7.593 -0.3474 -0.1893  0.4087
  611MOL0     C80584   4.208   0.447   7.671  0.5616  0.7307 -0.0088
  611MOL0     C80585   3.559   0.128   7.352 -0.4680  0.3618  0.5644
  611MOL0     C80586   3.431   0.110   7.392 -0.0304 -0.0327  0.2144
  611MOL0     H80587   2.949  -0.026   7.365  0.2687  1.1258 -0.3745
  611MOL0     H80588   2.739  -0.016   7.434  0.7410 -0.3004  0.3107
  611MOL0     H80589   2.554  -0.127   7.665 -1.4106  0.2083  3.7509
  611MOL0     H80590   2.525  -0.010   7.531 -3.4353  2.1654  0.4940
  611MOL0     H80591   2.411   0.143   7.686  0.0500 -0.4456 -0.2124
  611MOL0     H80592   2.427   0.027   7.810  0.5131 -2.6687 -0.7351
  611MOL0     H80593   2.307  -0.146   7.651  1.0475  0.8470 -0.5876
  611MOL0     H80594   2.291  -0.024   7.533  0.7165  0.8460  0.4370
  611MOL0     H80595   2.160  -0.032   7.814 -0.7484 -1.8225 -1.2461
  611MOL0     H80596   2.185   0.118   7.730  2.2442 -1.4940  0.4766
  611MOL0     H80597   2.045   0.013   7.535 -2.8002  1.9574  0.6210
  611MOL0     H80598   1.963   0.042   7.682 -0.3394 -0.0182 -0.9465
  611MOL0     H80599   1.882  -0.143   7.594 -0.0141  1.1719  0.4618
  611MOL0     H80600   1.955  -0.195   7.738  1.6980 -0.1039 -0.2330
  611MOL0     H80601   2.098  -0.230   7.476 -0.7130 -0.4503  0.0548
  611MOL0     H80602   2.140  -0.308   7.640  2.7170 -1.4432 -3.6748
  611MOL0     H80603   1.901  -0.347   7.465 -0.0311 -2.2531 -1.0948
  611MOL0     H80604   1.899  -0.418   7.625 -2.0621  1.5456  0.2290
  611MOL0     H80605   2.056  -0.497   7.270  0.1188 -2.4041 -2.4394
  611MOL0     H80606   2.061  -0.720   7.151 -0.1412  2.4050  0.9802
  611MOL0     H80607   2.073  -0.867   7.256 -0.1629  0.3271 -2.5494
  611MOL0     H80608   2.310  -0.806   7.312  0.7593 -4.8239 -1.3263
  611MOL0     H80609   2.279  -0.666   7.199 -1.4554 -1.5017 -1.4955
  611MOL0     H80610   2.274  -0.966   7.145  2.4987 -0.0450  2.8349
  611MOL0     H80611   2.257  -0.835   7.024 -1.1007 -1.1282  1.2053
  611MOL0     H80612   2.507  -0.948   7.049  2.9352  1.6081 -1.8714
  611MOL0     H80613   2.511  -0.864   7.203  3.4551 -1.4306 -2.5587
  611MOL0     H80614   2.562  -0.521   6.919 -2.9753 -2.4504  1.1832
  611MOL0     H80615   2.770  -0.483   6.811  1.5316 -1.0112 -2.4917
  611MOL0     H80616   3.152  -0.664   6.641  1.8978 -0.2120  0.4133
  611MOL0     H80617   3.311  -0.611   6.477 -2.7554 -0.5614 -0.8931
  611MOL0     H80618   3.407  -0.214   6.385  2.2300  1.1759 -0.4877
  611MOL0     H80619   3.362  -0.371   6.312 -2.0346  2.5017 -0.1463
  611MOL0     H80620   3.583  -0.386   6.212 -3.5666  0.7471 -1.3548
  611MOL0     H80621   3.656  -0.278   6.341 -0.2700 -0.4478  0.0621
  611MOL0     H80622   3.498  -0.105   6.250  0.1526  1.0260 -0.9119
  611MOL0     H80623   3.458  -0.210   6.123  1.7200 -1.7070 -0.7370
  611MOL0     H80624   3.742  -0.114   6.188  1.6052 -0.4020 -1.6311
  611MOL0     H80625   3.701  -0.232   6.060  0.2046 -1.1233  2.5397
  611MOL0     H80626   3.638   0.068   6.067  0.0563  1.6118 -2.9409
  611MOL0     H80627   3.544  -0.036   5.964 -0.7668  0.4234  0.5788
  611MOL0     H80628   3.696   0.062   5.826  0.4420 -0.8103 -0.7859
  611MOL0     H80629   3.778  -0.100   5.858  0.1886  0.2714 -1.4428
  611MOL0     H80630   3.824   0.172   5.982  0.5618  1.3824 -0.4532
  611MOL0     H80631   3.914   0.032   6.025  1.8556  2.6623 -0.2178
  611MOL0     H80632   4.039   0.016   5.815  1.9048  1.1205  0.2752
  611MOL0     H80633   4.037   0.184   5.862  0.4101 -0.7099 -1.4015
  611MOL0     H80634   3.338  -0.218   6.656 -1.9304  0.0736  0.0817
  611MOL0     H80635   3.142  -0.266   6.785 -1.9350 -0.9234  0.4876
  611MOL0     H80636   2.933  -0.837   7.002 -0.3079 -0.1376  1.6857
  611MOL0     H80637   2.730  -0.876   7.107  1.7026 -1.5819 -1.2369
  611MOL0     H80638   2.866   0.125   7.824 -0.5422 -0.6581  0.3363
  611MOL0     H80639   3.113   0.137   7.733 -1.0434  4.1957 -2.2501
  611MOL0     H80640   3.301   0.372   7.212  1.7424 -0.7431 -2.9175
  611MOL0     H80641   3.534   0.361   7.115 -1.3161  1.1581  1.5612
  611MOL0     H80642   3.849   0.139   7.325  0.2266  0.9878  1.8354
  611MOL0     H80643   3.787   0.290   7.392  2.0525  0.2346  1.9843
  611MOL0     H80644   3.978   0.273   7.167  0.7314  1.4903 -0.8148
  611MOL0     H80645   3.924   0.427   7.231  1.7895  1.0825  0.7835
  611MOL0     H80646   4.144   0.384   7.342 -0.2197  0.5045  0.4622
  611MOL0     H80647   4.086   0.223   7.373 -0.8387  0.8114 -2.1310
  611MOL0     H80648   3.935   0.447   7.514 -1.8976 -3.2678  1.2587
  611MOL0     H80649   3.962   0.281   7.561 -2.2016 -1.4883 -2.8835
  611MOL0     H80650   4.295   0.486   7.721  0.8312 -2.1046  2.0121
  611MOL0     H80651   3.641   0.074   7.398 -0.0017  2.0423  1.7928
  611MOL0     H80652   3.419   0.044   7.477  2.4571 -0.6252  0.2018
  612MOL0     O80653   4.522   4.654   5.962 -0.4274 -0.6579  0.0131
  612MOL0     C80654   4.596   4.652   6.058  0.2268 -0.0682 -0.2379
  612MOL0     O80655   4.716   4.604   6.071 -0.2468  0.4187  0.3075
  612MOL0     C80656   4.788   4.550   5.963  1.4633 -0.8432 -0.0457
  612MOL0     C80657   4.795   4.627   5.841 -0.5696 -0.8592 -0.1523
  612MOL0     C80658   4.895   4.596   5.748  0.0480  0.0581  0.0810
  612MOL0     C80659   4.971   4.483   5.767 -0.4190  0.7046 -0.1694
  612MOL0     O80660   5.058   4.441   5.668 -0.1622 -0.7037 -0.6011
  612MOL0     C80661   5.157   4.540   5.644  0.8814 -0.0200  0.9449
  612MOL0     C80662   5.271   4.531   5.755  0.0411  0.2878  0.3669
  612MOL0     C80663   5.346   4.396   5.743 -1.0673  0.7623  0.7012
  612MOL0     C80664   5.472   4.383   5.833 -0.4427 -0.2051 -0.7285
  612MOL0     C80665   5.545   4.249   5.798 -0.1827 -0.2418 -0.5057
  612MOL0     C80666   5.648   4.213   5.912 -0.2754 -0.2576  0.9266
  612MOL0     C80667   5.718   4.081   5.891 -0.2122  1.0684 -0.6691
  612MOL0     C80668   5.774   4.021   6.027  0.2368  0.0010  0.0662
  612MOL0     N80669   5.819   3.880   6.002  0.1503 -0.3704  1.6530
  612MOL0     C80670   5.762   3.789   5.920  0.7190 -0.0273  0.0434
  612MOL0     C80671   5.856   3.687   5.907 -0.3880 -0.0417 -0.5110
  612MOL0     C80672   5.817   3.562   5.833  0.3118  1.2463 -0.6305
  612MOL0     C80673   5.939   3.512   5.754  0.4997 -0.0610 -0.8059
  612MOL0     C80674   5.894   3.412   5.634  1.0448  0.2851  0.1733
  612MOL0     C80675   6.000   3.358   5.548 -0.2505 -0.6337 -0.0761
  612MOL0     O80676   5.952   3.243   5.472 -0.4477  0.0850 -0.8356
  612MOL0     C80677   5.873   3.270   5.365 -0.3435  0.9399 -1.3586
  612MOL0     C80678   5.848   3.392   5.309  0.1956 -0.2583  0.2133
  612MOL0     C80679   5.768   3.395   5.189  1.5530 -0.7752 -0.4113
  612MOL0     C80680   5.717   3.275   5.132 -0.0367 -0.7468 -0.4547
  612MOL0     C80681   5.618   3.268   5.021 -0.1932  0.2791  0.3034
  612MOL0     O80682   5.567   3.144   4.992 -0.2232  0.0713  0.5301
  612MOL0     C80683   5.440   3.129   4.939  0.8824 -0.0360 -0.0433
  612MOL0     C80684   5.417   3.204   4.820 -0.6015  0.4803 -0.3604
  612MOL0     C80685   5.296   3.187   4.748  0.6998  0.0690 -0.7005
  612MOL0     C80686   5.195   3.090   4.791  0.4829 -0.0534  0.4502
  612MOL0     O80687   5.070   3.066   4.734 -0.5918 -0.4053 -0.5750
  612MOL0     C80688   5.040   3.149   4.620 -0.0696 -0.0667 -0.2147
  612MOL0     C80689   4.905   3.110   4.572 -0.6607 -1.0812  0.6542
  612MOL0     C80690   4.805   3.171   4.676  0.0450  0.3794  0.9783
  612MOL0     C80691   4.670   3.094   4.663 -0.7564 -0.8954 -0.3343
  612MOL0     C80692   4.571   3.156   4.758  0.6126 -0.0366 -0.3162
  612MOL0     C80693   4.449   3.068   4.775 -0.4354  0.0934 -0.2433
  612MOL0     C80694   4.448   2.982   4.909  1.0223 -0.2016 -0.6979
  612MOL0     C80695   4.331   2.894   4.929 -0.6619 -0.5331 -0.5322
  612MOL0    Cl80696   4.176   2.985   4.893  0.1679  0.1993  0.0265
  612MOL0     C80697   5.229   3.018   4.907  0.5805  0.5202 -0.1396
  612MOL0     C80698   5.348   3.031   4.975  0.8352  0.3402 -0.1262
  612MOL0     O80699   5.574   3.371   4.984 -0.2313 -0.1349  0.0952
  612MOL0     C80700   5.749   3.155   5.199 -0.2798  0.4572  0.5708
  612MOL0     C80701   5.822   3.151   5.309 -0.6986  0.6936 -1.4152
  612MOL0     N80702   5.965   3.707   5.995 -1.0434 -0.3478 -0.6283
  612MOL0     N80703   5.937   3.822   6.047 -0.0631 -0.2297 -0.5362
  612MOL0     C80704   4.941   4.392   5.872 -0.5529  0.6434  0.5107
  612MOL0     C80705   4.847   4.420   5.974  0.0080 -1.1757  1.0667
  612MOL0     C80706   4.545   4.728   6.181  0.3159 -0.2290  0.2259
  612MOL0     C80707   4.624   4.749   6.299  0.3505 -0.2752  0.4531
  612MOL0     C80708   4.575   4.817   6.407  0.9151 -0.0823  0.0678
  612MOL0     C80709   4.449   4.878   6.406 -0.6486  0.2102 -0.0453
  612MOL0     O80710   4.387   4.952   6.512 -0.2058 -0.4831  0.1442
  612MOL0     C80711   4.421   4.910   6.648  1.2426  0.8724 -0.6206
  612MOL0     C80712   4.452   5.032   6.731  0.4258 -0.3475 -0.2450
  612MOL0     C80713   4.469   4.993   6.880 -0.1851 -0.0280 -0.9911
  612MOL0     C80714   4.500   5.105   6.979  0.4780 -0.3333  1.1115
  612MOL0     C80715   4.473   5.062   7.110  0.0645  0.2720  0.6337
  612MOL0     C80716   4.461   5.051   7.229  1.0879  0.4036  0.6969
  612MOL0     C80717   4.369   4.860   6.295  0.2068 -0.2049  0.3010
  612MOL0     C80718   4.418   4.788   6.184  0.6401 -0.1466  0.4513
  612MOL0     H80719   4.746   4.723   5.829  1.2512  0.0615 -0.6481
  612MOL0     H80720   4.885   4.640   5.649  0.3106 -3.0955 -1.4836
  612MOL0     H80721   5.110   4.638   5.633  0.7681 -0.0861  0.8405
  612MOL0     H80722   5.195   4.518   5.544 -1.1365  0.6571 -0.0244
  612MOL0     H80723   5.229   4.536   5.856  1.0204 -1.0583  0.8678
  612MOL0     H80724   5.348   4.607   5.740  0.4845 -0.6846 -3.2368
  612MOL0     H80725   5.374   4.368   5.641 -2.6458  2.4292 -0.2449
  612MOL0     H80726   5.279   4.315   5.775  0.2470  0.0717  1.8244
  612MOL0     H80727   5.525   4.472   5.800 -3.1003  1.5196 -0.6162
  612MOL0     H80728   5.454   4.395   5.940  0.0253  2.8577 -0.9021
  612MOL0     H80729   5.605   4.251   5.706  0.8400  0.5681  0.1546
  612MOL0     H80730   5.475   4.166   5.785  0.6453 -1.1851  0.7974
  612MOL0     H80731   5.602   4.208   6.011  0.7352  0.2082  1.4387
  612MOL0     H80732   5.727   4.288   5.900 -0.7579  0.3163  1.3325
  612MOL0     H80733   5.639   4.022   5.845 -1.4318  3.1366 -1.3365
  612MOL0     H80734   5.802   4.088   5.821  2.6194 -1.7260  2.1006
  612MOL0     H80735   5.696   4.025   6.103  0.6428  1.9000  0.4197
  612MOL0     H80736   5.862   4.073   6.066 -1.8939  2.1068  2.4001
  612MOL0     H80737   5.674   3.786   5.856  0.7576 -3.3374 -0.0263
  612MOL0     H80738   5.738   3.574   5.759 -1.6618 -0.1339  1.1315
  612MOL0     H80739   5.786   3.493   5.913 -0.1982  0.5242 -1.4328
  612MOL0     H80740   6.017   3.468   5.817  0.9575  0.9401 -0.6531
  612MOL0     H80741   5.974   3.597   5.695 -1.7094  0.0962 -2.0040
  612MOL0     H80742   5.849   3.324   5.681  0.3956 -0.3648 -1.5675
  612MOL0     H80743   5.819   3.462   5.572  2.0231  1.0191 -0.4533
  612MOL0     H80744   6.084   3.332   5.614 -0.8936  0.2733  1.1314
  612MOL0     H80745   6.042   3.434   5.481  2.6972 -2.3422 -0.3513
  612MOL0     H80746   5.890   3.485   5.346  4.0670 -0.7527 -2.3813
  612MOL0     H80747   5.741   3.490   5.145 -1.4285 -0.1330  2.3997
  612MOL0     H80748   5.492   3.270   4.778  0.0811 -0.5228 -0.7467
  612MOL0     H80749   5.283   3.241   4.655  0.3754 -0.9441 -1.2582
  612MOL0     H80750   5.109   3.146   4.536 -2.0935 -3.9139 -1.9917
  612MOL0     H80751   5.047   3.254   4.651  1.6100 -0.7043  1.8118
  612MOL0     H80752   4.907   3.001   4.579  0.7465 -1.0382  1.3834
  612MOL0     H80753   4.881   3.160   4.478 -2.8236 -2.1918  0.5625
  612MOL0     H80754   4.797   3.278   4.654  0.5069  0.9675  3.3545
  612MOL0     H80755   4.847   3.166   4.777 -3.1458  0.7096  2.4333
  612MOL0     H80756   4.631   3.113   4.563 -0.2450 -3.0301 -0.9803
  612MOL0     H80757   4.685   2.987   4.679 -3.0614 -1.0679  1.3116
  612MOL0     H80758   4.544   3.246   4.702 -1.1834 -1.1574 -1.3402
  612MOL0     H80759   4.613   3.195   4.852 -1.5905 -0.1918  0.8042
  612MOL0     H80760   4.445   2.997   4.691 -1.0355 -0.4760  0.2554
  612MOL0     H80761   4.364   3.137   4.775 -0.0651  0.5891  1.1602
  612MOL0     H80762   4.530   2.910   4.916  0.7308 -0.5711 -1.0873
  612MOL0     H80763   4.476   3.048   4.992 -0.4761  3.0741 -2.5831
  612MOL0     H80764   4.326   2.833   5.020 -3.5617 -3.3575 -2.4051
  612MOL0     H80765   4.341   2.822   4.848 -1.1646 -0.5635 -0.5676
  612MOL0     H80766   5.163   2.946   4.956  1.6776  0.8316  1.8928
  612MOL0     H80767   5.377   2.970   5.060 -1.8356  1.1528  1.4915
  612MOL0     H80768   5.703   3.062   5.169 -0.2904  0.6348  0.0339
  612MOL0     H80769   5.843   3.058   5.359  0.4282  0.5421 -2.1380
  612MOL0     H80770   5.010   4.309   5.880 -0.4349  0.8725  1.9651
  612MOL0     H80771   4.826   4.359   6.061 -0.9777 -0.8368  1.0737
  612MOL0     H80772   4.723   4.704   6.295  0.7778  0.7544 -1.4464
  612MOL0     H80773   4.642   4.831   6.491 -1.4477  0.4853  1.9700
  612MOL0     H80774   4.491   4.826   6.660 -1.0301 -1.1879 -0.8243
  612MOL0     H80775   4.334   4.883   6.708  0.5516 -0.6000 -2.1936
  612MOL0     H80776   4.543   5.068   6.683  0.8700 -1.2097 -0.0677
  612MOL0     H80777   4.372   5.105   6.718 -0.1891 -0.6043  1.7286
  612MOL0     H80778   4.532   4.905   6.889  1.5558  1.3001  0.6508
  612MOL0     H80779   4.379   4.948   6.923  0.1035 -0.6831 -1.0686
  612MOL0     H80780   4.603   5.137   6.963  1.0146 -3.1698 -2.3836
  612MOL0     H80781   4.436   5.192   6.961 -0.0218 -0.9287 -0.1203
  612MOL0     H80782   4.453   5.049   7.336  0.1702  2.3332  0.6984
  612MOL0     H80783   4.274   4.907   6.273 -0.5380 -1.7880  0.0438
  612MOL0     H80784   4.341   4.775   6.109 -0.3687 -1.9323  1.7061
  613MOL0     O80785   2.815   3.420   7.932  0.8609 -0.1618 -0.7386
  613MOL0     C80786   2.783   3.313   7.982 -0.6655 -0.2397  0.1405
  613MOL0     O80787   2.661   3.284   8.037 -0.2300 -0.2850  0.3309
  613MOL0     C80788   2.560   3.383   8.027 -1.0886  0.1236  0.6308
  613MOL0     C80789   2.452   3.354   7.945  0.1707  0.2566  1.1174
  613MOL0     C80790   2.352   3.449   7.918 -0.1156  0.6720 -1.6457
  613MOL0     C80791   2.353   3.575   7.980 -0.4242  0.5230  0.2364
  613MOL0     O80792   2.257   3.670   7.962 -0.7359 -0.4115 -0.5584
  613MOL0     C80793   2.116   3.620   7.960 -0.9392 -0.3869  0.5333
  613MOL0     C80794   2.043   3.700   8.068  0.6166 -0.7874 -0.8826
  613MOL0     C80795   2.045   3.847   8.016 -0.0734 -0.5236  0.4702
  613MOL0     C80796   2.002   3.951   8.116 -0.8862 -0.2315  0.0405
  613MOL0     C80797   1.850   3.955   8.127 -0.3605 -1.0712  0.8317
  613MOL0     C80798   1.813   4.096   8.175 -0.0626  0.1180  0.6920
  613MOL0     C80799   1.662   4.106   8.210 -0.3201  0.4321 -0.3552
  613MOL0     C80800   1.608   4.238   8.275  0.3106  0.5857 -0.6772
  613MOL0     N80801   1.499   4.217   8.373  0.2906 -0.4281  1.2696
  613MOL0     C80802   1.506   4.182   8.507 -0.2155  0.7543  1.1755
  613MOL0     C80803   1.389   4.206   8.557  0.3620 -0.4987  0.6021
  613MOL0     C80804   1.343   4.136   8.684  0.0828  0.2133 -0.2962
  613MOL0     C80805   1.194   4.155   8.705 -0.2085  0.3154 -0.9146
  613MOL0     C80806   1.107   4.054   8.629  0.7093 -0.3781 -0.0430
  613MOL0     C80807   0.958   4.086   8.642 -0.0728  0.0838  0.0679
  613MOL0     O80808   0.931   4.223   8.600 -0.0763  0.4303  0.3643
  613MOL0     C80809   0.800   4.267   8.586  0.3354  0.5576 -0.0260
  613MOL0     C80810   0.694   4.178   8.620  0.4223  0.9040 -0.0758
  613MOL0     C80811   0.566   4.232   8.606 -0.8927  1.2841 -0.4582
  613MOL0     C80812   0.538   4.367   8.575  0.1010 -0.2500 -1.2025
  613MOL0     C80813   0.397   4.404   8.563  0.0248  0.7130 -0.8101
  613MOL0     O80814   0.306   4.307   8.603 -1.4949 -0.3323 -0.3435
  613MOL0     C80815   0.176   4.332   8.599  0.6801 -0.0941  0.4535
  613MOL0     C80816   0.096   4.322   8.706  0.2998 -0.3305 -0.4280
  613MOL0     C80817  -0.051   4.327   8.692 -0.6683 -0.6537  0.3454
  613MOL0     C80818  -0.102   4.331   8.560 -0.6749  0.0804  0.1976
  613MOL0     O80819  -0.235   4.335   8.561  0.9204  0.6798  0.5324
  613MOL0     C80820  -0.296   4.422   8.458  0.1930  0.1019 -0.0348
  613MOL0     C80821  -0.433   4.477   8.497 -0.0808  0.1699 -0.8851
  613MOL0     C80822  -0.533   4.353   8.504  0.4195  0.7817  0.1996
  613MOL0     C80823  -0.667   4.414   8.562  0.2494 -0.7748  0.0624
  613MOL0     C80824  -0.769   4.295   8.577  0.8868 -0.1857 -0.5904
  613MOL0     C80825  -0.855   4.279   8.454  0.2104 -0.4512  1.1865
  613MOL0     C80826  -0.934   4.158   8.466  0.2418  0.4610 -0.1896
  613MOL0     C80827  -1.030   4.141   8.350 -0.7438  0.9751  0.0517
  613MOL0    Cl80828  -1.144   4.276   8.342  0.3027  0.0763  0.6232
  613MOL0     C80829  -0.016   4.335   8.451  0.5037 -0.4266  0.8718
  613MOL0     C80830   0.122   4.331   8.468 -0.4140 -0.1582  0.2426
  613MOL0     O80831   0.367   4.515   8.528 -0.7377 -0.5093 -0.0228
  613MOL0     C80832   0.647   4.453   8.540 -0.4555  0.7918 -0.6312
  613MOL0     C80833   0.775   4.403   8.552 -0.0810 -0.3575 -0.0352
  613MOL0     N80834   1.317   4.278   8.457 -0.7691  0.2546  0.0124
  613MOL0     N80835   1.380   4.278   8.348 -0.2633 -0.1343  0.3261
  613MOL0     C80836   2.455   3.598   8.072  0.8225  0.4242 -0.1962
  613MOL0     C80837   2.559   3.505   8.093 -0.4063 -0.1676 -0.6652
  613MOL0     C80838   2.875   3.203   7.957  0.8073  0.1048  0.0255
  613MOL0     C80839   2.980   3.212   7.864  0.1477  0.3612  0.0088
  613MOL0     C80840   3.064   3.103   7.836  0.1261 -0.0502  0.7099
  613MOL0     C80841   3.047   2.983   7.908  0.5161  0.0277  0.2675
  613MOL0     O80842   3.141   2.885   7.910  0.3580  0.2431 -0.0090
  613MOL0     C80843   3.270   2.935   7.886  0.6518 -0.5421  1.3200
  613MOL0     C80844   3.378   2.830   7.937 -0.0189  0.1675 -0.7025
  613MOL0     C80845   3.512   2.875   7.891  0.7024 -0.1328 -0.7299
  613MOL0     C80846   3.571   2.984   7.982  0.6545 -1.4138 -0.1377
  613MOL0     C80847   3.716   3.002   7.965 -0.0290  0.1371  0.3925
  613MOL0     C80848   3.840   3.007   7.944  0.2853  0.5583  0.5799
  613MOL0     C80849   2.942   2.970   8.000  0.2789 -0.2575 -0.4615
  613MOL0     C80850   2.854   3.083   8.025 -0.5588  0.4164  0.6780
  613MOL0     H80851   2.444   3.264   7.886  0.1361  1.9173 -1.6150
  613MOL0     H80852   2.278   3.429   7.841  0.3756 -2.2761 -1.4680
  613MOL0     H80853   2.108   3.514   7.983 -2.8754 -0.3124  0.3423
  613MOL0     H80854   2.063   3.635   7.865  0.6019 -2.5330 -0.7530
  613MOL0     H80855   2.102   3.705   8.160 -0.7199  1.0142 -0.0552
  613MOL0     H80856   1.941   3.670   8.093 -0.1491  3.0743  1.4516
  613MOL0     H80857   1.972   3.847   7.934  2.3802  0.7332 -1.8500
  613MOL0     H80858   2.142   3.886   7.984 -0.4446  1.5538  1.7003
  613MOL0     H80859   2.044   3.931   8.216  0.5559 -0.4259 -0.5692
  613MOL0     H80860   2.044   4.047   8.082 -0.9988  0.3976  1.5722
  613MOL0     H80861   1.811   3.880   8.197 -1.5346 -2.1694 -0.8979
  613MOL0     H80862   1.792   3.936   8.036 -0.9311 -0.2594  1.0102
  613MOL0     H80863   1.842   4.170   8.100  0.0446 -2.1316 -1.6361
  613MOL0     H80864   1.871   4.110   8.267 -0.9265 -1.7151  1.5668
  613MOL0     H80865   1.604   4.098   8.117 -0.0579  1.2079 -0.5993
  613MOL0     H80866   1.639   4.023   8.277  3.7532 -0.4402  0.2554
  613MOL0     H80867   1.568   4.299   8.194 -0.5940  0.1748 -0.5489
  613MOL0     H80868   1.688   4.291   8.328  1.2041  1.2477 -2.5921
  613MOL0     H80869   1.579   4.112   8.546 -0.4810  0.3227  0.9088
  613MOL0     H80870   1.386   4.177   8.776  0.4370 -0.2866 -0.2374
  613MOL0     H80871   1.365   4.029   8.691  2.3643  0.5228 -2.0478
  613MOL0     H80872   1.188   4.261   8.677  1.2202  0.9680  1.0607
  613MOL0     H80873   1.165   4.144   8.810  1.6904  1.0570 -0.2705
  613MOL0     H80874   1.139   4.061   8.525 -0.8915 -1.1091 -0.6063
  613MOL0     H80875   1.135   3.952   8.656 -1.5333 -1.7853 -2.5896
  613MOL0     H80876   0.927   4.072   8.746  1.7621  1.6904  0.9041
  613MOL0     H80877   0.911   4.017   8.571 -0.0601 -0.8148  0.9033
  613MOL0     H80878   0.711   4.074   8.647 -0.3385  1.1158  1.2665
  613MOL0     H80879   0.492   4.159   8.638 -1.2588  2.1441  0.7544
  613MOL0     H80880   0.130   4.313   8.808  0.2633 -1.3748 -0.4994
  613MOL0     H80881  -0.123   4.334   8.773 -1.1079 -1.8565  0.0767
  613MOL0     H80882  -0.298   4.385   8.355  0.4307  0.7238 -0.2670
  613MOL0     H80883  -0.231   4.510   8.450 -0.0967  0.4531  1.2923
  613MOL0     H80884  -0.457   4.551   8.420 -0.3590  2.1285  1.0266
  613MOL0     H80885  -0.412   4.520   8.595  0.0346 -0.8707 -0.4382
  613MOL0     H80886  -0.480   4.280   8.565  1.3354  2.2883  1.2722
  613MOL0     H80887  -0.560   4.310   8.407  1.6367 -1.8666  0.9749
  613MOL0     H80888  -0.639   4.469   8.652  2.2782  2.6385 -2.3951
  613MOL0     H80889  -0.716   4.490   8.501 -0.2416  1.0207  2.5428
  613MOL0     H80890  -0.842   4.328   8.652  1.3604  1.7109 -0.9048
  613MOL0     H80891  -0.711   4.210   8.614 -2.3476 -2.6617 -0.7620
  613MOL0     H80892  -0.788   4.275   8.368 -0.2881  3.8490  0.3945
  613MOL0     H80893  -0.910   4.372   8.440 -0.3616 -0.8490  0.7436
  613MOL0     H80894  -0.862   4.076   8.470  0.7653  0.7857 -1.9800
  613MOL0     H80895  -1.009   4.159   8.546  1.6313 -2.3778  1.2831
  613MOL0     H80896  -1.075   4.041   8.349  0.9003  0.1957 -1.8621
  613MOL0     H80897  -0.984   4.138   8.251 -0.0355 -1.1323  0.3933
  613MOL0     H80898  -0.051   4.332   8.348  1.0254  0.6856  0.6422
  613MOL0     H80899   0.189   4.342   8.383  0.1359  0.2231  0.7193
  613MOL0     H80900   0.626   4.556   8.512  1.0649  1.7334  1.4188
  613MOL0     H80901   0.852   4.473   8.521 -0.9015  0.4484 -0.2983
  613MOL0     H80902   2.456   3.699   8.111 -2.9556  1.2428 -1.8110
  613MOL0     H80903   2.648   3.527   8.151  0.9575 -2.2450 -1.8591
  613MOL0     H80904   3.006   3.302   7.810  0.5604  1.1149  1.4154
  613MOL0     H80905   3.139   3.128   7.762  0.1274  0.1393  0.7744
  613MOL0     H80906   3.278   3.027   7.943 -2.3211 -0.1257  1.2470
  613MOL0     H80907   3.279   2.956   7.779  1.8573 -0.2120  1.4802
  613MOL0     H80908   3.378   2.809   8.044  3.8218 -4.1791 -1.2362
  613MOL0     H80909   3.361   2.732   7.890  2.3709 -0.3329 -0.6373
  613MOL0     H80910   3.504   2.913   7.788 -0.3577 -1.1168 -1.0280
  613MOL0     H80911   3.575   2.786   7.889  0.4723 -0.2868 -2.2984
  613MOL0     H80912   3.518   3.078   7.968 -3.5441 -3.0569  2.7135
  613MOL0     H80913   3.550   2.955   8.085  1.3187  0.7070  0.6362
  613MOL0     H80914   3.944   3.011   7.919  0.5717 -1.3710  1.3215
  613MOL0     H80915   2.913   2.875   8.043 -0.1172 -0.6162 -1.4783
  613MOL0     H80916   2.785   3.061   8.106  1.9509 -1.8802  2.3656
  614MOL0     O80917   5.690   6.901   5.063 -1.3201 -0.7288  0.2622
  614MOL0     C80918   5.754   6.868   4.966 -0.6050  0.1312 -0.4224
  614MOL0     O80919   5.741   6.918   4.838 -0.2422 -0.1337  0.0652
  614MOL0     C80920   5.649   7.021   4.818 -0.0770  0.0509  0.2883
  614MOL0     C80921   5.696   7.144   4.789  0.1343 -0.6133  0.0620
  614MOL0     C80922   5.605   7.248   4.752  0.1765 -0.0662  0.3190
  614MOL0     C80923   5.472   7.238   4.765  0.7594  0.7571 -0.2958
  614MOL0     O80924   5.399   7.351   4.741  0.1507  0.8339  0.0555
  614MOL0     C80925   5.257   7.346   4.760  0.3405 -0.0589  0.4582
  614MOL0     C80926   5.193   7.460   4.685  0.4673  0.2735  0.1597
  614MOL0     C80927   5.046   7.480   4.746  0.1646 -0.3994 -0.1648
  614MOL0     C80928   4.959   7.558   4.636 -0.0743  0.3405  0.3597
  614MOL0     C80929   4.805   7.573   4.676 -0.3819  0.1431  0.3222
  614MOL0     C80930   4.800   7.654   4.796 -0.0360 -1.0112 -0.5138
  614MOL0     C80931   4.647   7.678   4.824 -0.7137 -0.6975 -0.6664
  614MOL0     C80932   4.564   7.550   4.846  0.4340  0.1527 -0.2741
  614MOL0     N80933   4.421   7.581   4.874  0.7932  0.7716  0.2247
  614MOL0     C80934   4.324   7.490   4.925 -0.2598 -0.2236  1.2039
  614MOL0     C80935   4.205   7.552   4.911  0.1855 -0.9982  0.0973
  614MOL0     C80936   4.069   7.479   4.910 -0.2542 -0.1462 -1.4649
  614MOL0     C80937   3.984   7.474   4.788  0.0686 -0.9133  0.0448
  614MOL0     C80938   4.062   7.453   4.660  0.1753  0.8445  0.2503
  614MOL0     C80939   4.070   7.307   4.622 -0.4308  0.3104 -0.0265
  614MOL0     O80940   4.155   7.219   4.704  0.1959 -0.4739  0.2813
  614MOL0     C80941   4.293   7.214   4.693 -0.2679  0.2100  1.2644
  614MOL0     C80942   4.355   7.133   4.788  0.1960 -0.6815  0.2635
  614MOL0     C80943   4.496   7.120   4.785  0.2485 -0.3453  0.1377
  614MOL0     C80944   4.576   7.182   4.685  0.2244  0.4732  1.0310
  614MOL0     C80945   4.723   7.149   4.690 -0.0853 -0.1086 -0.0496
  614MOL0     O80946   4.810   7.203   4.598  0.4938 -0.0317  0.7372
  614MOL0     C80947   4.934   7.152   4.579 -0.2116  0.0388 -0.6320
  614MOL0     C80948   4.986   7.025   4.609  0.3768  0.6991  0.1325
  614MOL0     C80949   5.112   6.983   4.575 -0.7381 -0.9861 -0.1780
  614MOL0     C80950   5.200   7.056   4.498  0.2512 -0.0819  0.0212
  614MOL0     O80951   5.314   6.990   4.458  0.8289  0.4281  0.0924
  614MOL0     C80952   5.423   7.059   4.393  0.5590 -0.4337  0.2966
  614MOL0     C80953   5.538   6.957   4.398 -0.2537  0.0991  0.5920
  614MOL0     C80954   5.672   7.016   4.323 -0.2964  0.8689  0.2748
  614MOL0     C80955   5.781   6.906   4.282  1.3315 -0.7237 -0.2747
  614MOL0     C80956   5.875   6.933   4.161  0.4949  0.2951 -0.0661
  614MOL0     C80957   5.975   6.817   4.139 -0.6759 -0.1283 -0.3851
  614MOL0     C80958   6.012   6.811   3.996  0.0144 -1.0685  0.8449
  614MOL0     C80959   6.150   6.728   3.982  0.4484  0.0442 -0.2834
  614MOL0    Cl80960   6.281   6.797   4.081 -0.5339 -0.0155 -0.1155
  614MOL0     C80961   5.148   7.179   4.456 -0.0697 -0.7439 -0.1289
  614MOL0     C80962   5.026   7.230   4.500  0.3723  0.0755 -0.3486
  614MOL0     O80963   4.755   7.085   4.791 -0.7729 -0.1182 -0.4293
  614MOL0     C80964   4.513   7.257   4.584 -1.3432 -0.5788 -0.3923
  614MOL0     C80965   4.374   7.277   4.593  0.1863 -0.7620  0.1816
  614MOL0     N80966   4.227   7.682   4.860  0.0258 -0.8877  0.0399
  614MOL0     N80967   4.350   7.689   4.823 -0.7072 -0.0091  0.2741
  614MOL0     C80968   5.419   7.112   4.814  0.5855 -0.3452  0.0966
  614MOL0     C80969   5.510   7.010   4.838  0.8830 -0.2561  0.5221
  614MOL0     C80970   5.866   6.768   4.986  0.9257 -0.0894 -0.6589
  614MOL0     C80971   5.960   6.748   4.881 -0.0810 -0.1085 -0.4208
  614MOL0     C80972   6.065   6.656   4.899  0.8538  0.8011 -0.6226
  614MOL0     C80973   6.073   6.585   5.014 -0.0509 -0.5898 -0.9652
  614MOL0     O80974   6.182   6.497   5.019  0.8628 -0.0181 -0.6927
  614MOL0     C80975   6.203   6.394   5.114 -1.0230  0.5940 -1.2354
  614MOL0     C80976   6.098   6.272   5.126  0.5608 -0.0466  0.0527
  614MOL0     C80977   6.166   6.148   5.182 -0.4790  0.4179  0.0810
  614MOL0     C80978   6.095   6.015   5.209  0.0285 -0.2621  0.6396
  614MOL0     C80979   5.972   6.026   5.288 -0.6873 -0.0409 -0.5289
  614MOL0     C80980   5.861   6.028   5.342 -0.4904 -0.4559  1.0392
  614MOL0     C80981   5.989   6.614   5.122  0.3511  0.3669  0.2954
  614MOL0     C80982   5.885   6.705   5.117 -0.3102  0.2771  0.6459
  614MOL0     H80983   5.802   7.162   4.797  0.5319 -3.3026  2.4274
  614MOL0     H80984   5.650   7.344   4.731  0.8170 -0.4180  0.0404
  614MOL0     H80985   5.228   7.362   4.864  0.4297  2.3515  0.1731
  614MOL0     H80986   5.223   7.251   4.719  2.7897  0.3972 -3.1528
  614MOL0     H80987   5.182   7.431   4.580 -0.5413  1.7956 -0.1874
  614MOL0     H80988   5.264   7.543   4.676  1.6929 -0.6591  0.9418
  614MOL0     H80989   5.066   7.552   4.826  2.9079 -0.3965 -0.7561
  614MOL0     H80990   5.008   7.384   4.783 -0.5531 -0.3791 -0.8310
  614MOL0     H80991   5.004   7.657   4.620  3.0380 -1.2791 -2.0408
  614MOL0     H80992   4.962   7.510   4.538 -1.5757 -0.5525  0.7288
  614MOL0     H80993   4.784   7.469   4.699  0.1359  0.0289  0.2915
  614MOL0     H80994   4.750   7.606   4.588 -0.8788 -0.1328  0.5254
  614MOL0     H80995   4.841   7.755   4.785  1.3683 -1.1760  2.3207
  614MOL0     H80996   4.843   7.614   4.888  1.2461 -0.2827 -0.7770
  614MOL0     H80997   4.642   7.733   4.919 -1.1554 -1.1087 -0.4542
  614MOL0     H80998   4.607   7.738   4.741 -1.3758  0.1480  0.2436
  614MOL0     H80999   4.607   7.499   4.932  0.0974  3.5910  2.1682
  614MOL0     H81000   4.564   7.486   4.757 -4.3977  0.8591 -1.0660
  614MOL0     H81001   4.345   7.384   4.938  1.0849 -0.5455 -2.3392
  614MOL0     H81002   4.012   7.521   4.993 -4.7154 -1.2325 -3.6579
  614MOL0     H81003   4.086   7.375   4.941  3.6614  1.2706  2.0494
  614MOL0     H81004   3.956   7.580   4.782  0.1328 -0.8573  0.7204
  614MOL0     H81005   3.891   7.419   4.799  1.8757 -3.9392  1.5616
  614MOL0     H81006   4.017   7.506   4.575  2.0423  0.9973 -0.6973
  614MOL0     H81007   4.162   7.496   4.661  0.1143  1.1414 -1.9388
  614MOL0     H81008   4.089   7.311   4.514 -0.0432 -3.0346 -0.1766
  614MOL0     H81009   3.968   7.268   4.626  0.1165 -1.0684  2.0594
  614MOL0     H81010   4.296   7.073   4.857 -0.9233 -0.7210 -0.6791
  614MOL0     H81011   4.535   7.066   4.871 -0.8739 -0.0306  0.8671
  614MOL0     H81012   4.929   6.951   4.665  1.8767  0.8616  1.9748
  614MOL0     H81013   5.142   6.883   4.606  0.8811 -0.3666  0.3418
  614MOL0     H81014   5.450   7.143   4.458  1.6894 -1.0821  0.7013
  614MOL0     H81015   5.400   7.081   4.288 -1.6858  1.6194  1.1271
  614MOL0     H81016   5.518   6.866   4.341  0.8407  0.7817 -0.9526
  614MOL0     H81017   5.550   6.922   4.500  0.3291 -2.0716 -0.1686
  614MOL0     H81018   5.721   7.084   4.393  0.8875 -0.0411  0.3689
  614MOL0     H81019   5.644   7.072   4.233  1.5179  0.9693 -0.2638
  614MOL0     H81020   5.838   6.885   4.373 -1.1471 -3.0430  0.9146
  614MOL0     H81021   5.724   6.815   4.259  1.3620 -0.9391  0.4713
  614MOL0     H81022   5.937   7.017   4.195  2.8895 -1.3123 -0.1782
  614MOL0     H81023   5.817   6.963   4.073 -0.6955 -0.7197  0.3481
  614MOL0     H81024   5.933   6.720   4.166 -2.7624  0.4046 -1.5269
  614MOL0     H81025   6.057   6.835   4.209 -0.4702  1.4226 -0.9783
  614MOL0     H81026   5.932   6.771   3.933  0.6762 -1.9279  0.5287
  614MOL0     H81027   6.025   6.915   3.965 -1.1028 -0.7673  1.3618
  614MOL0     H81028   6.181   6.739   3.877 -0.3201  0.1908 -0.4994
  614MOL0     H81029   6.142   6.620   3.999  1.1420  0.1002  0.4578
  614MOL0     H81030   5.211   7.242   4.394  0.8176 -1.4889 -0.0110
  614MOL0     H81031   4.999   7.328   4.462  1.3682 -0.1562 -1.7022
  614MOL0     H81032   4.568   7.295   4.499 -0.5947  1.9719  1.1298
  614MOL0     H81033   4.325   7.339   4.518  1.6370  0.0953 -0.0956
  614MOL0     H81034   5.311   7.101   4.822  0.6545 -0.6836  0.5862
  614MOL0     H81035   5.456   6.928   4.885 -1.2843  0.8235  0.0037
  614MOL0     H81036   5.958   6.796   4.784 -0.8034 -1.2124 -0.9758
  614MOL0     H81037   6.142   6.639   4.824  1.7924 -1.0220  0.6537
  614MOL0     H81038   6.222   6.434   5.214  2.7147  1.0638 -2.0005
  614MOL0     H81039   6.303   6.359   5.088  0.6500  3.4891  0.6792
  614MOL0     H81040   6.021   6.297   5.201 -0.9084 -1.2609 -0.9911
  614MOL0     H81041   6.057   6.234   5.032  0.9534 -2.5381  0.8171
  614MOL0     H81042   6.207   6.182   5.278  3.4853  1.7034 -1.8495
  614MOL0     H81043   6.251   6.122   5.117  1.2985 -3.2504  3.4363
  614MOL0     H81044   6.069   5.960   5.118  1.4425 -0.5690  0.4020
  614MOL0     H81045   6.168   5.959   5.268  0.8190  1.5850  1.5120
  614MOL0     H81046   5.769   6.024   5.396 -0.4779  1.2279  1.2185
  614MOL0     H81047   6.019   6.564   5.213  1.8864 -0.2471 -0.5003
  614MOL0     H81048   5.820   6.724   5.202 -3.1179  0.6608 -1.4294
  615MOL0     O81049   2.898   7.793  10.538 -0.0028  0.0247 -0.0872
  615MOL0     C81050   2.973   7.876  10.575 -0.1620 -0.2150  0.7655
  615MOL0     O81051   3.077   7.851  10.666  0.3689 -1.2262 -0.1211
  615MOL0     C81052   3.111   7.719  10.691  0.1177 -0.1889 -0.6251
  615MOL0     C81053   3.056   7.649  10.798  0.2031 -0.2477  0.2476
  615MOL0     C81054   3.089   7.510  10.822  0.4035  0.5923 -1.2272
  615MOL0     C81055   3.165   7.437  10.730  0.5792 -0.3043 -1.1041
  615MOL0     O81056   3.203   7.304  10.750 -0.1711 -0.5645 -0.5649
  615MOL0     C81057   3.094   7.215  10.724  1.1618  0.1310 -0.2707
  615MOL0     C81058   3.027   7.225  10.593 -0.5877 -0.4959 -0.2417
  615MOL0     C81059   3.129   7.182  10.490 -0.1364 -0.1165  0.4716
  615MOL0     C81060   3.103   7.030  10.454 -0.1270  0.5001 -0.0946
  615MOL0     C81061   3.219   6.986  10.359  0.5273  0.0442  0.0778
  615MOL0     C81062   3.177   6.858  10.279 -0.1008 -0.4401  0.1124
  615MOL0     C81063   3.171   6.729  10.365  0.3097  0.4891 -0.7010
  615MOL0     C81064   3.321   6.696  10.404 -0.4460  0.3908  0.3989
  615MOL0     N81065   3.319   6.572  10.486  0.2927 -0.6730 -0.8910
  615MOL0     C81066   3.352   6.453  10.435  0.1905  0.3881  0.2376
  615MOL0     C81067   3.368   6.369  10.540  0.1187 -0.1490 -0.3013
  615MOL0     C81068   3.421   6.223  10.546  0.9072  1.0565 -0.1405
  615MOL0     C81069   3.329   6.125  10.630 -0.3764 -0.7083 -1.1912
  615MOL0     C81070   3.183   6.118  10.595 -0.2530  0.1529 -0.1385
  615MOL0     C81071   3.111   6.004  10.665  0.8473 -1.3869 -0.3358
  615MOL0     O81072   2.985   5.989  10.598 -0.1165  0.4033 -0.2759
  615MOL0     C81073   2.896   5.896  10.646 -0.0150 -0.0754 -0.7849
  615MOL0     C81074   2.899   5.833  10.779  0.7974 -0.5888  0.1935
  615MOL0     C81075   2.796   5.739  10.813  0.0686 -0.1483  0.5108
  615MOL0     C81076   2.699   5.701  10.719  0.1758  0.5108  0.2827
  615MOL0     C81077   2.604   5.600  10.758 -0.1025  1.0925  0.6406
  615MOL0     O81078   2.606   5.540  10.885  0.6102  0.2668  0.6971
  615MOL0     C81079   2.510   5.446  10.917  1.1681 -0.0508  0.7260
  615MOL0     C81080   2.423   5.470  11.022  0.3499  0.2166  0.2247
  615MOL0     C81081   2.322   5.384  11.052  0.9825 -0.1768 -0.1454
  615MOL0     C81082   2.305   5.257  10.988  0.2982  0.1257  0.5977
  615MOL0     O81083   2.209   5.166  11.024  0.3211 -0.9107 -0.4966
  615MOL0     C81084   2.093   5.219  11.078 -0.4058  0.7394  0.1672
  615MOL0     C81085   1.985   5.118  11.045  0.5027  0.0283 -0.1016
  615MOL0     C81086   1.979   5.009  11.159 -0.4779 -0.0368 -0.7170
  615MOL0     C81087   1.892   4.886  11.112  0.3843 -0.3916 -0.1403
  615MOL0     C81088   1.874   4.771  11.216  0.5689 -0.5572  0.2965
  615MOL0     C81089   1.745   4.792  11.301 -0.1604  0.0233  0.5933
  615MOL0     C81090   1.634   4.703  11.249  0.7665 -1.6757  0.3308
  615MOL0     C81091   1.522   4.703  11.354  0.4527 -0.1800 -0.9309
  615MOL0    Cl81092   1.571   4.676  11.522  0.4187  0.2515 -0.1912
  615MOL0     C81093   2.397   5.232  10.884  0.0410  0.4498 -0.2797
  615MOL0     C81094   2.497   5.324  10.849 -1.0108 -0.5400 -0.5608
  615MOL0     O81095   2.511   5.596  10.678  0.0991 -0.0979 -0.3639
  615MOL0     C81096   2.697   5.763  10.594  0.8060 -1.0120 -0.0685
  615MOL0     C81097   2.797   5.863  10.557  1.1084  1.1243  0.0930
  615MOL0     N81098   3.336   6.448  10.652  0.1778 -0.8615 -1.0734
  615MOL0     N81099   3.316   6.570  10.624 -0.2498  0.1300 -0.4043
  615MOL0     C81100   3.214   7.510  10.617  0.0414 -0.3143 -0.0723
  615MOL0     C81101   3.176   7.646  10.599  0.4777 -0.1515  0.2303
  615MOL0     C81102   2.964   8.016  10.530  0.5952 -0.5550  0.9762
  615MOL0     C81103   2.875   8.048  10.423 -0.3201 -0.0495 -0.0722
  615MOL0     C81104   2.859   8.175  10.374 -0.0182 -0.7737 -1.1082
  615MOL0     C81105   2.935   8.282  10.420 -0.7413  0.4304 -0.4329
  615MOL0     O81106   2.904   8.409  10.386 -0.8744  0.6415 -0.3874
  615MOL0     C81107   2.883   8.503  10.493  0.4556  0.5095 -0.0692
  615MOL0     C81108   2.780   8.446  10.600  0.5586  0.4521 -0.5753
  615MOL0     C81109   2.637   8.437  10.550  0.5034 -0.0151 -0.4821
  615MOL0     C81110   2.542   8.427  10.670  0.2229  1.0658 -0.0001
  615MOL0     C81111   2.409   8.461  10.619 -0.4090 -0.3077  0.3108
  615MOL0     C81112   2.307   8.495  10.570 -0.2119 -0.4650  0.6112
  615MOL0     C81113   3.042   8.252  10.514  0.9603  0.1373 -1.1094
  615MOL0     C81114   3.054   8.129  10.569  0.8253  0.4495  0.2796
  615MOL0     H81115   2.994   7.709  10.864  0.7918 -0.3108  0.8620
  615MOL0     H81116   3.068   7.459  10.915  0.4801 -1.2568 -2.1895
  615MOL0     H81117   3.024   7.230  10.808  1.6010 -0.3819  0.1934
  615MOL0     H81118   3.120   7.110  10.737 -2.3061 -1.0268 -1.6184
  615MOL0     H81119   2.993   7.327  10.577 -0.3437 -0.0911  1.6071
  615MOL0     H81120   2.931   7.172  10.592 -1.9195  1.8087  0.1703
  615MOL0     H81121   3.237   7.193  10.498 -0.1175  0.3080 -0.2430
  615MOL0     H81122   3.095   7.243  10.405  0.0377  0.8276  1.0676
  615MOL0     H81123   3.111   6.974  10.548  1.5165  3.3139  1.5805
  615MOL0     H81124   3.009   7.010  10.402 -0.0325 -3.6345  0.9990
  615MOL0     H81125   3.308   6.974  10.421  2.3887 -1.4023 -2.6737
  615MOL0     H81126   3.236   7.072  10.293 -0.3236 -0.7148 -1.1914
  615MOL0     H81127   3.249   6.857  10.196  0.4259 -1.7244  0.5703
  615MOL0     H81128   3.079   6.875  10.233 -0.4191 -4.3028 -0.9530
  615MOL0     H81129   3.119   6.743  10.460 -3.3256 -0.9462 -2.2989
  615MOL0     H81130   3.141   6.644  10.304  3.1426  0.0055 -1.5551
  615MOL0     H81131   3.385   6.776  10.441  2.9295 -1.9225  0.0618
  615MOL0     H81132   3.366   6.658  10.311  0.7321  1.1842  0.6287
  615MOL0     H81133   3.366   6.424  10.332 -1.8945 -1.2820  0.3605
  615MOL0     H81134   3.525   6.231  10.577  0.9496  4.0073 -0.8020
  615MOL0     H81135   3.421   6.181  10.445 -0.1372  0.3087  0.1405
  615MOL0     H81136   3.340   6.158  10.733 -5.1383 -1.0015 -0.3662
  615MOL0     H81137   3.372   6.024  10.624  0.1560 -0.4778 -1.3006
  615MOL0     H81138   3.140   6.213  10.628  1.5896  1.0686 -0.2653
  615MOL0     H81139   3.174   6.098  10.488 -0.0644  1.8991 -0.5166
  615MOL0     H81140   3.093   6.045  10.764  2.3554 -4.5857  1.4251
  615MOL0     H81141   3.178   5.918  10.666  3.0467  0.1838  2.9674
  615MOL0     H81142   2.970   5.849  10.860  0.9708 -2.7473  0.5359
  615MOL0     H81143   2.783   5.711  10.917  0.7566  0.3014  0.7258
  615MOL0     H81144   2.431   5.571  11.061  0.8746  1.1990 -2.1813
  615MOL0     H81145   2.253   5.418  11.130  1.7252  0.8716  0.0861
  615MOL0     H81146   2.069   5.317  11.036 -0.4174  1.8586  2.5947
  615MOL0     H81147   2.109   5.228  11.186 -2.2743  0.0726  0.5472
  615MOL0     H81148   2.000   5.074  10.946 -1.3670 -0.8436 -0.0452
  615MOL0     H81149   1.887   5.166  11.034 -0.1737 -1.1748  0.3993
  615MOL0     H81150   1.946   5.053  11.253  2.7779  2.3249 -0.4937
  615MOL0     H81151   2.079   4.967  11.176 -1.5788 -2.8015 -0.6392
  615MOL0     H81152   1.787   4.912  11.097 -0.2966 -2.4715  0.7994
  615MOL0     H81153   1.940   4.837  11.027  1.6883 -2.0983  1.5034
  615MOL0     H81154   1.960   4.758  11.283  0.1252 -2.4080  0.5668
  615MOL0     H81155   1.868   4.675  11.164  0.1041 -1.4445  1.8988
  615MOL0     H81156   1.712   4.895  11.314 -1.3845 -0.2141 -0.3792
  615MOL0     H81157   1.785   4.770  11.400 -1.1479 -0.6686  0.8477
  615MOL0     H81158   1.593   4.747  11.158 -0.2700  0.7801  1.9022
  615MOL0     H81159   1.666   4.599  11.238 -0.5121 -2.2163  1.4120
  615MOL0     H81160   1.449   4.622  11.341  1.6251 -1.5257  0.5209
  615MOL0     H81161   1.468   4.797  11.343  2.1023  0.7584 -1.4170
  615MOL0     H81162   2.381   5.147  10.818 -1.4418  1.6322 -1.5121
  615MOL0     H81163   2.564   5.309  10.765 -2.5719 -0.3090 -1.8731
  615MOL0     H81164   2.629   5.751  10.510  2.6936 -0.1174 -1.7920
  615MOL0     H81165   2.797   5.898  10.454 -1.7607 -1.5488 -0.9641
  615MOL0     H81166   3.283   7.452  10.557  0.8088  0.1914  0.3143
  615MOL0     H81167   3.197   7.702  10.508  3.0474  1.4045  1.6361
  615MOL0     H81168   2.819   7.967  10.378  0.1333  0.5258 -1.7499
  615MOL0     H81169   2.782   8.199  10.302 -3.2126 -2.5463  1.4352
  615MOL0     H81170   2.834   8.585  10.441  0.6155 -0.3785 -1.7150
  615MOL0     H81171   2.979   8.534  10.535 -0.7773  2.5433  1.4051
  615MOL0     H81172   2.808   8.345  10.630 -0.1138 -0.3970 -2.6257
  615MOL0     H81173   2.789   8.511  10.688 -2.3203 -2.5292  2.1931
  615MOL0     H81174   2.635   8.353  10.480  1.9737 -1.6222  1.2848
  615MOL0     H81175   2.604   8.519  10.487 -1.3917 -3.0483 -3.8347
  615MOL0     H81176   2.541   8.328  10.717 -2.1631  0.4967 -1.0905
  615MOL0     H81177   2.577   8.497  10.747  1.2287  0.1274  0.4118
  615MOL0     H81178   2.211   8.526  10.534 -1.3178 -1.1386  2.7341
  615MOL0     H81179   3.106   8.332  10.551 -0.1495  0.6763 -0.2953
  615MOL0     H81180   3.140   8.106  10.631 -0.5197 -2.5296  1.2175
  616MOL0     O81181   1.631   9.231   0.278 -0.4659  0.0059  0.1275
  616MOL0     C81182   1.743   9.221   0.234  0.7017 -0.3028  0.1027
  616MOL0     O81183   1.791   9.139   0.134  0.4052 -0.6460 -0.3129
  616MOL0     C81184   1.698   9.072   0.063  0.0040 -0.3678 -0.5450
  616MOL0     C81185   1.689   8.938   0.070 -0.5858 -0.4088  0.0526
  616MOL0     C81186   1.593   8.871  -0.002  0.3439 -0.2046 -0.3509
  616MOL0     C81187   1.497   8.946  -0.084 -0.5683 -0.2032 -0.2218
  616MOL0     O81188   1.406   8.893  -0.166  0.2118  0.1057 -0.5318
  616MOL0     C81189   1.394   8.745  -0.169  0.5501  0.5199 -1.0943
  616MOL0     C81190   1.265   8.703  -0.251  1.0612 -0.4845  0.5990
  616MOL0     C81191   1.141   8.686  -0.157  0.5368 -0.4904 -0.3617
  616MOL0     C81192   1.022   8.624  -0.223 -0.0372  0.8502  0.2643
  616MOL0     C81193   0.971   8.712  -0.336 -0.6944 -0.3099  0.1142
  616MOL0     C81194   0.925   8.843  -0.287  0.4717 -0.6788 -0.3105
  616MOL0     C81195   0.830   8.915  -0.394 -0.8484  0.6729 -0.4601
  616MOL0     C81196   0.781   9.046  -0.329 -0.2715 -0.8111  0.1937
  616MOL0     N81197   0.681   9.037  -0.226 -0.2089  0.1227 -1.0689
  616MOL0     C81198   0.544   9.024  -0.252  0.4089  0.0880  0.1950
  616MOL0     C81199   0.486   9.085  -0.141  0.7209 -0.4551  0.8544
  616MOL0     C81200   0.342   9.120  -0.121 -0.2797 -0.4732  0.3631
  616MOL0     C81201   0.318   9.105   0.036  0.0380  0.5728  0.2349
  616MOL0     C81202   0.169   9.072   0.073  1.1682  0.3888  0.3975
  616MOL0     C81203   0.076   9.175   0.005 -0.1684 -0.6302 -0.1920
  616MOL0     O81204  -0.039   9.211   0.080 -0.0483 -0.1557  0.3710
  616MOL0     C81205  -0.147   9.126   0.083  0.6298 -0.2356  0.6669
  616MOL0     C81206  -0.243   9.164   0.174 -0.2815  1.0580  0.1723
  616MOL0     C81207  -0.352   9.078   0.194  0.4371  0.2340  0.1639
  616MOL0     C81208  -0.377   8.959   0.114  0.9562 -0.3396  0.5903
  616MOL0     C81209  -0.497   8.864   0.143 -0.7124  0.4315  1.0121
  616MOL0     O81210  -0.589   8.914   0.227  0.5938 -0.5096 -0.3863
  616MOL0     C81211  -0.686   8.824   0.269  0.1687  0.6800 -0.5989
  616MOL0     C81212  -0.809   8.838   0.222  0.3807 -0.6905  0.2330
  616MOL0     C81213  -0.913   8.744   0.261 -0.1808 -0.0040 -0.2444
  616MOL0     C81214  -0.889   8.636   0.351 -0.8568 -0.2255  0.0777
  616MOL0     O81215  -0.984   8.548   0.383 -0.1029 -0.2469  0.1816
  616MOL0     C81216  -1.113   8.554   0.320 -0.1469  0.8350 -0.9322
  616MOL0     C81217  -1.211   8.460   0.396 -0.2223 -0.1245  0.0631
  616MOL0     C81218  -1.350   8.492   0.340  1.2707  0.1489 -0.3577
  616MOL0     C81219  -1.449   8.410   0.416 -0.0312  0.3213  0.3005
  616MOL0     C81220  -1.598   8.433   0.368 -0.5741 -0.2132  0.4905
  616MOL0     C81221  -1.616   8.390   0.219  0.4887 -0.0834 -0.3092
  616MOL0     C81222  -1.767   8.406   0.187 -1.3550 -0.0547 -0.3566
  616MOL0     C81223  -1.792   8.376   0.044 -0.0034 -0.0251  0.6841
  616MOL0    Cl81224  -1.967   8.330   0.014 -0.6938  0.0755 -0.0758
  616MOL0     C81225  -0.754   8.621   0.395  1.0410 -0.2747 -0.3152
  616MOL0     C81226  -0.662   8.711   0.350  0.6923 -0.4208 -0.7355
  616MOL0     O81227  -0.485   8.748   0.095  0.1828 -1.0848  0.4604
  616MOL0     C81228  -0.281   8.934   0.017 -0.2940  0.4172  0.2204
  616MOL0     C81229  -0.164   9.008   0.005  0.7848  0.7108  0.1562
  616MOL0     N81230   0.588   9.105  -0.043 -0.6943 -0.0373  0.4520
  616MOL0     N81231   0.706   9.084  -0.095 -0.0318  0.0214 -0.0115
  616MOL0     C81232   1.511   9.083  -0.087 -0.4323 -0.6601 -0.1927
  616MOL0     C81233   1.599   9.150  -0.005  0.4813  0.4162 -0.0920
  616MOL0     C81234   1.841   9.313   0.290 -0.0656 -0.3954 -0.3332
  616MOL0     C81235   1.803   9.414   0.370 -0.0543 -0.0205 -1.0457
  616MOL0     C81236   1.899   9.510   0.421 -1.2428  0.0107  0.7274
  616MOL0     C81237   2.022   9.522   0.365 -0.5065 -0.6938 -0.7363
  616MOL0     O81238   2.117   9.610   0.411 -0.0478 -0.3498  0.5478
  616MOL0     C81239   2.084   9.721   0.489  0.8760  0.2388 -0.0118
  616MOL0     C81240   2.190   9.816   0.461 -0.0027 -1.2653  0.3355
  616MOL0     C81241   2.325   9.775   0.518 -0.2326  1.2054  0.2102
  616MOL0     C81242   2.421   9.889   0.510  0.6359  0.6153 -0.0927
  616MOL0     C81243   2.425   9.970   0.633 -0.2924  0.6303 -0.4226
  616MOL0     C81244   2.424  10.023   0.745 -0.2557 -0.8692  0.1599
  616MOL0     C81245   2.060   9.419   0.279 -0.3927  0.4748  0.2634
  616MOL0     C81246   1.977   9.312   0.240 -0.6942  0.4962 -0.4881
  616MOL0     H81247   1.761   8.888   0.134 -0.8595  1.8522  2.2995
  616MOL0     H81248   1.580   8.763  -0.008  0.2959 -0.1070 -3.7764
  616MOL0     H81249   1.390   8.704  -0.068 -0.5680 -0.8691 -1.6550
  616MOL0     H81250   1.474   8.690  -0.221 -0.1624 -1.2654 -0.3992
  616MOL0     H81251   1.289   8.606  -0.296  1.5599 -0.0647 -0.0508
  616MOL0     H81252   1.245   8.782  -0.324  1.1162 -0.0786  1.0221
  616MOL0     H81253   1.118   8.786  -0.121  0.1121 -1.0304  0.9310
  616MOL0     H81254   1.169   8.620  -0.074 -0.1348  0.4816  0.6560
  616MOL0     H81255   1.050   8.526  -0.262 -1.5409 -0.1624  1.5647
  616MOL0     H81256   0.943   8.593  -0.153  0.6068 -1.1787  0.1500
  616MOL0     H81257   0.892   8.656  -0.386 -0.0824 -1.5183  0.4642
  616MOL0     H81258   1.045   8.726  -0.415  1.2705  0.1345  1.9356
  616MOL0     H81259   1.007   8.911  -0.261 -2.2555  3.6903 -2.0373
  616MOL0     H81260   0.873   8.825  -0.192 -0.2730  0.3387 -0.5022
  616MOL0     H81261   0.891   8.936  -0.482 -0.3244 -2.3699 -0.9125
  616MOL0     H81262   0.747   8.850  -0.424  0.3774 -0.7327 -0.9245
  616MOL0     H81263   0.717   9.102  -0.397 -2.1037  1.5740  3.5426
  616MOL0     H81264   0.868   9.107  -0.300 -1.2853  0.1406  1.3586
  616MOL0     H81265   0.490   9.007  -0.345  0.1805 -3.8565  0.8783
  616MOL0     H81266   0.281   9.063  -0.192  1.0950  0.8690 -2.0426
  616MOL0     H81267   0.328   9.227  -0.137  0.6157 -0.3348  0.4708
  616MOL0     H81268   0.354   9.187   0.098 -2.9625  1.5978  0.7869
  616MOL0     H81269   0.357   9.012   0.078 -0.0411  0.4183 -0.0285
  616MOL0     H81270   0.130   8.978   0.032 -1.5968  1.5970  0.0227
  616MOL0     H81271   0.162   9.072   0.182 -2.9394 -1.5647  0.3246
  616MOL0     H81272   0.043   9.140  -0.093 -0.6617 -0.8638  0.0525
  616MOL0     H81273   0.139   9.264  -0.004  0.5634 -1.0493  0.5954
  616MOL0     H81274  -0.229   9.250   0.238  0.5344 -0.6148  2.4096
  616MOL0     H81275  -0.418   9.106   0.275 -1.7022 -0.6278 -1.1953
  616MOL0     H81276  -0.832   8.929   0.168  0.5373  0.9848  2.7800
  616MOL0     H81277  -1.011   8.765   0.218 -0.4240  0.1586  0.3738
  616MOL0     H81278  -1.088   8.524   0.218 -1.0783 -1.6319 -0.5106
  616MOL0     H81279  -1.147   8.658   0.321 -0.5218  0.7146 -0.3127
  616MOL0     H81280  -1.211   8.477   0.504 -2.4246 -1.2557  0.3009
  616MOL0     H81281  -1.193   8.354   0.376 -2.4780 -0.4300 -0.5565
  616MOL0     H81282  -1.361   8.471   0.233  1.0419  2.4529 -0.8401
  616MOL0     H81283  -1.361   8.600   0.349  1.8317  0.4124 -2.3772
  616MOL0     H81284  -1.424   8.305   0.397 -2.8076 -0.0618 -1.7739
  616MOL0     H81285  -1.449   8.435   0.523  2.3732 -1.2089  0.7560
  616MOL0     H81286  -1.626   8.539   0.375 -2.4353 -0.6879  0.5269
  616MOL0     H81287  -1.656   8.369   0.434  2.0159 -3.5871 -0.1885
  616MOL0     H81288  -1.581   8.287   0.209  0.4062 -0.2223  0.7734
  616MOL0     H81289  -1.549   8.454   0.160  0.8899 -1.5703 -1.5277
  616MOL0     H81290  -1.829   8.333   0.239 -3.4611 -0.9286 -3.7980
  616MOL0     H81291  -1.792   8.510   0.212  2.1471  0.6323  0.9781
  616MOL0     H81292  -1.729   8.295   0.007 -1.7922 -0.1769 -2.3499
  616MOL0     H81293  -1.777   8.463  -0.020  0.1815  2.3000  3.6758
  616MOL0     H81294  -0.721   8.533   0.450  2.0447 -0.7543 -1.6232
  616MOL0     H81295  -0.558   8.690   0.374 -0.2578 -1.0995  3.6056
  616MOL0     H81296  -0.304   8.839  -0.031  1.2685  0.6768 -1.1454
  616MOL0     H81297  -0.094   8.980  -0.072  0.1242 -3.0180  0.6917
  616MOL0     H81298   1.459   9.146  -0.159  2.6705  2.0593 -0.3275
  616MOL0     H81299   1.610   9.257  -0.014  1.4470  0.2436 -1.0624
  616MOL0     H81300   1.701   9.410   0.406  1.4463 -0.6787  3.8348
  616MOL0     H81301   1.871   9.572   0.506  2.4515  2.1751  0.5698
  616MOL0     H81302   2.084   9.695   0.595  1.4238 -1.1892 -0.3339
  616MOL0     H81303   1.986   9.760   0.459 -0.8292 -2.1398  2.0823
  616MOL0     H81304   2.199   9.827   0.352 -1.5054  4.8002  0.4694
  616MOL0     H81305   2.153   9.909   0.504 -2.6247 -2.2597  0.4504
  616MOL0     H81306   2.365   9.689   0.465  0.7934  1.1605  1.0262
  616MOL0     H81307   2.300   9.750   0.622 -1.1190  1.1200 -0.0113
  616MOL0     H81308   2.524   9.856   0.497  1.1388  0.7323  2.9084
  616MOL0     H81309   2.395   9.949   0.422 -1.6768 -0.3487 -0.1457
  616MOL0     H81310   2.433  10.069   0.841  4.3434 -0.7813 -0.0968
  616MOL0     H81311   2.161   9.408   0.240  0.0667  0.2346  1.4466
  616MOL0     H81312   2.019   9.240   0.171  1.1227  1.3475 -0.3345
  617MOL0     O81313   6.640   0.555   0.543 -0.3499  0.4317  0.2112
  617MOL0     C81314   6.667   0.680   0.545 -0.4533 -0.1852 -0.4341
  617MOL0     O81315   6.632   0.750   0.649 -0.2024  0.2156  0.7221
  617MOL0     C81316   6.531   0.712   0.727 -0.7790  0.4065 -0.5004
  617MOL0     C81317   6.400   0.756   0.703  1.1666  0.5384  0.8039
  617MOL0     C81318   6.300   0.700   0.779  0.2430 -0.4420  0.2802
  617MOL0     C81319   6.322   0.619   0.892  0.4555  0.1938  0.5513
  617MOL0     O81320   6.219   0.571   0.968  0.1367 -0.0188  0.5748
  617MOL0     C81321   6.173   0.659   1.066 -0.4118  0.7518  0.0808
  617MOL0     C81322   6.031   0.636   1.110  0.9581 -0.0473 -0.9684
  617MOL0     C81323   6.016   0.501   1.192 -1.1862  0.4179 -0.5052
  617MOL0     C81324   5.880   0.495   1.265  0.5730 -0.3851 -0.2442
  617MOL0     C81325   5.891   0.365   1.352  0.1321 -0.4388 -0.2410
  617MOL0     C81326   5.800   0.378   1.472  0.5838  0.2603 -0.9588
  617MOL0     C81327   5.803   0.256   1.566 -0.6287 -0.3849  0.3770
  617MOL0     C81328   5.668   0.223   1.620  0.7948 -0.7479  0.6195
  617MOL0     N81329   5.614   0.343   1.692  0.4240  1.1568  0.3311
  617MOL0     C81330   5.508   0.418   1.667  1.2220  0.7286 -0.6351
  617MOL0     C81331   5.486   0.483   1.782 -0.2168  0.2677  0.0764
  617MOL0     C81332   5.374   0.588   1.812  0.2044 -0.1778 -0.3479
  617MOL0     C81333   5.235   0.537   1.778 -0.8129  0.0414  0.2715
  617MOL0     C81334   5.147   0.557   1.896 -0.0640 -0.1773 -0.5245
  617MOL0     C81335   5.000   0.534   1.857 -1.2664  0.0027 -0.1359
  617MOL0     O81336   4.914   0.583   1.958  0.2345 -0.3153 -0.4570
  617MOL0     C81337   4.780   0.571   1.943 -0.1362 -1.1622 -0.9426
  617MOL0     C81338   4.702   0.666   2.004  0.8243  0.8199 -0.4588
  617MOL0     C81339   4.570   0.680   1.981  0.3747  0.3065  0.6359
  617MOL0     C81340   4.513   0.602   1.870  0.0937  0.1439 -0.6708
  617MOL0     C81341   4.375   0.600   1.834 -0.1186 -0.7705  0.2200
  617MOL0     O81342   4.288   0.665   1.925 -0.4833  0.8152 -0.0933
  617MOL0     C81343   4.161   0.710   1.904 -0.7598 -0.9887 -0.7548
  617MOL0     C81344   4.113   0.730   1.768 -0.6336  1.6712 -0.2384
  617MOL0     C81345   3.994   0.790   1.731 -0.1892 -0.8205  0.5839
  617MOL0     C81346   3.914   0.832   1.829 -0.6256  0.3200 -0.1361
  617MOL0     O81347   3.784   0.880   1.810  0.0804 -0.2540  0.5367
  617MOL0     C81348   3.718   0.839   1.690  1.3481 -0.4515 -0.8201
  617MOL0     C81349   3.730   0.954   1.591 -0.2304  0.1509  0.0523
  617MOL0     C81350   3.648   1.067   1.621  0.5154 -0.5278 -0.8483
  617MOL0     C81351   3.637   1.170   1.511  0.6966 -0.4181 -0.2952
  617MOL0     C81352   3.522   1.266   1.536 -0.3855 -0.5286  0.2293
  617MOL0     C81353   3.519   1.389   1.437  0.3241  0.0593  0.3255
  617MOL0     C81354   3.609   1.498   1.481  0.1172 -0.2272  1.1684
  617MOL0     C81355   3.628   1.613   1.371  0.2252 -0.2624  0.6896
  617MOL0    Cl81356   3.732   1.560   1.221 -0.4466  0.2171 -0.3851
  617MOL0     C81357   3.960   0.820   1.966  0.0300 -0.1650  0.5775
  617MOL0     C81358   4.080   0.765   2.003  0.7204  0.3387 -0.4090
  617MOL0     O81359   4.348   0.551   1.722  0.5055  0.0685 -0.6169
  617MOL0     C81360   4.596   0.502   1.808 -0.2142  0.5347 -0.3238
  617MOL0     C81361   4.724   0.487   1.850  0.4755  0.0415  0.5856
  617MOL0     N81362   5.601   0.475   1.859  0.6321  0.2034 -0.1805
  617MOL0     N81363   5.669   0.389   1.804  0.4573  0.7904 -0.8108
  617MOL0     C81364   6.449   0.588   0.920 -0.3066 -0.2450 -0.4680
  617MOL0     C81365   6.555   0.621   0.829  0.2850  0.1785 -0.6552
  617MOL0     C81366   6.773   0.751   0.455  0.1774  0.3168  0.5368
  617MOL0     C81367   6.844   0.672   0.362  0.1215 -0.7504  0.7040
  617MOL0     C81368   6.956   0.732   0.307  0.7569 -0.1260  0.6006
  617MOL0     C81369   6.989   0.870   0.326 -0.3780  0.4505  0.6584
  617MOL0     O81370   7.098   0.918   0.253  0.0556  0.6408  0.6753
  617MOL0     C81371   7.152   1.041   0.295 -0.4723  0.2839 -0.1466
  617MOL0     C81372   7.246   1.111   0.195 -0.8532  0.6265 -0.3933
  617MOL0     C81373   7.373   1.023   0.159  0.7318  0.1882 -0.6657
  617MOL0     C81374   7.423   1.058   0.021 -1.2773  0.7720 -0.5169
  617MOL0     C81375   7.488   0.933  -0.035 -0.5020  0.1832 -0.1112
  617MOL0     C81376   7.533   0.826  -0.060 -0.0018  0.3636  0.9712
  617MOL0     C81377   6.920   0.930   0.421 -0.5387 -0.6096 -0.6152
  617MOL0     C81378   6.817   0.881   0.489 -0.2431 -0.4143  0.3314
  617MOL0     H81379   6.371   0.834   0.633 -3.1284  1.0858  2.8758
  617MOL0     H81380   6.199   0.737   0.763  0.1770 -0.2774  1.0350
  617MOL0     H81381   6.169   0.759   1.021 -0.9268  1.1027  0.8934
  617MOL0     H81382   6.244   0.664   1.149 -0.0338 -1.3907 -0.0561
  617MOL0     H81383   5.950   0.654   1.039 -2.2500  1.3643  2.6970
  617MOL0     H81384   6.014   0.719   1.180  3.7895  1.0871 -1.4812
  617MOL0     H81385   6.097   0.489   1.265 -2.6681 -1.7971  0.8989
  617MOL0     H81386   6.025   0.423   1.116  0.8250  2.0694 -2.0836
  617MOL0     H81387   5.873   0.581   1.331  3.4896 -1.5328  1.7745
  617MOL0     H81388   5.787   0.485   1.208  0.2551 -1.6933  0.4559
  617MOL0     H81389   5.985   0.345   1.404 -1.0634 -1.1308  1.7725
  617MOL0     H81390   5.857   0.276   1.299 -0.0387 -3.4934  4.3960
  617MOL0     H81391   5.697   0.401   1.444  0.9076  0.4438 -2.0500
  617MOL0     H81392   5.841   0.460   1.531  0.4689 -2.0218  2.6032
  617MOL0     H81393   5.841   0.168   1.513  0.9032  0.7211 -0.4663
  617MOL0     H81394   5.884   0.267   1.639  1.2914  1.5460 -1.8621
  617MOL0     H81395   5.675   0.141   1.691 -0.5884  0.8493  2.6998
  617MOL0     H81396   5.591   0.197   1.546  0.7044  2.0733 -0.4171
  617MOL0     H81397   5.456   0.417   1.572 -0.7887  1.4398  0.3876
  617MOL0     H81398   5.382   0.674   1.745 -0.3505  0.0288 -0.1572
  617MOL0     H81399   5.393   0.619   1.914  2.4892  1.3992 -1.1835
  617MOL0     H81400   5.228   0.430   1.757 -0.4625  0.0022  0.3373
  617MOL0     H81401   5.200   0.587   1.687  0.1810  0.5379  0.1430
  617MOL0     H81402   5.166   0.495   1.985 -0.5354  0.1871 -0.1650
  617MOL0     H81403   5.150   0.662   1.927 -1.0967 -1.0033  2.8424
  617MOL0     H81404   4.997   0.425   1.847  2.0688 -0.6457  3.4899
  617MOL0     H81405   4.987   0.583   1.761 -1.0020  2.4976  1.0289
  617MOL0     H81406   4.754   0.744   2.059  2.1060 -0.2999 -0.0339
  617MOL0     H81407   4.520   0.759   2.036  0.3840  0.6150  0.2061
  617MOL0     H81408   4.182   0.717   1.684  0.2530  1.4882  0.5045
  617MOL0     H81409   3.974   0.789   1.624  1.9776 -0.2827  0.1199
  617MOL0     H81410   3.612   0.834   1.719  1.5404  2.4485  0.6716
  617MOL0     H81411   3.754   0.741   1.658  2.9628 -0.0851 -0.1959
  617MOL0     H81412   3.694   0.913   1.496  3.3385 -0.9929 -0.9785
  617MOL0     H81413   3.834   0.974   1.565 -0.6509 -0.2763 -2.1587
  617MOL0     H81414   3.687   1.118   1.710 -1.2236 -0.2365 -0.2017
  617MOL0     H81415   3.546   1.035   1.647  0.7765  0.6746  2.0426
  617MOL0     H81416   3.730   1.225   1.495 -0.2602  1.5152  0.4791
  617MOL0     H81417   3.620   1.118   1.416  2.5537  1.5971 -1.8311
  617MOL0     H81418   3.520   1.311   1.636 -2.9342  2.9682 -1.1811
  617MOL0     H81419   3.428   1.211   1.524 -1.3891  1.4898 -1.8694
  617MOL0     H81420   3.412   1.413   1.439  0.0815 -1.0042  2.3442
  617MOL0     H81421   3.536   1.345   1.339  1.4192  1.3369 -0.0885
  617MOL0     H81422   3.569   1.538   1.575 -1.3484  0.8955  0.1095
  617MOL0     H81423   3.710   1.468   1.510 -0.2102 -0.4532  2.0947
  617MOL0     H81424   3.678   1.701   1.413  2.0765 -2.1817  2.7851
  617MOL0     H81425   3.529   1.641   1.332  0.6626 -3.0047 -2.9060
  617MOL0     H81426   3.898   0.854   2.048 -0.8729 -4.9610  2.2409
  617MOL0     H81427   4.117   0.757   2.104  2.2824 -0.6598 -1.0319
  617MOL0     H81428   4.558   0.451   1.720 -0.7729  1.6394 -0.7473
  617MOL0     H81429   4.786   0.413   1.800 -0.0501  1.1785 -1.8614
  617MOL0     H81430   6.464   0.525   1.007  0.4936 -0.2755 -0.6169
  617MOL0     H81431   6.650   0.574   0.851 -1.6406 -3.7103  0.2790
  617MOL0     H81432   6.825   0.566   0.348  0.1699 -0.7364  0.5314
  617MOL0     H81433   6.998   0.676   0.224 -2.4901  1.2376 -2.1730
  617MOL0     H81434   7.201   1.016   0.390  1.4083 -1.6856 -1.5327
  617MOL0     H81435   7.073   1.114   0.316 -1.0659  0.3066 -2.2867
  617MOL0     H81436   7.187   1.142   0.108  0.5211  3.4962 -0.3999
  617MOL0     H81437   7.273   1.208   0.238 -1.2400  0.8655 -0.6817
  617MOL0     H81438   7.339   0.919   0.155  4.0550 -1.0116 -0.7833
  617MOL0     H81439   7.446   1.033   0.240  1.0790  0.8307 -1.0496
  617MOL0     H81440   7.339   1.090  -0.040 -1.1559 -0.8179 -1.5888
  617MOL0     H81441   7.496   1.138   0.039  3.5980 -3.0018 -1.0985
  617MOL0     H81442   7.572   0.728  -0.080 -1.3793 -0.0463  0.2229
  617MOL0     H81443   6.968   1.019   0.461  0.5360 -0.6317 -1.7954
  617MOL0     H81444   6.755   0.929   0.563  2.0644 -0.1581  2.2401
  618MOL0     O81445   0.687   0.140   8.614  0.5670  0.2974 -0.3420
  618MOL0     C81446   0.577   0.166   8.567  0.3298 -0.2000  0.4932
  618MOL0     O81447   0.548   0.253   8.461  0.4985 -0.0473 -0.1378
  618MOL0     C81448   0.652   0.315   8.399  0.5442  0.1622 -0.4589
  618MOL0     C81449   0.632   0.448   8.354 -0.3059  0.0546 -0.3230
  618MOL0     C81450   0.729   0.514   8.278  0.3739 -1.5694  0.3141
  618MOL0     C81451   0.841   0.448   8.240  1.1101 -0.2792 -0.4781
  618MOL0     O81452   0.940   0.520   8.177  0.5837  0.0018  0.5340
  618MOL0     C81453   1.053   0.449   8.125  0.1326  0.3870  0.1704
  618MOL0     C81454   1.139   0.556   8.049  0.4352  0.0185  0.0491
  618MOL0     C81455   1.232   0.476   7.956 -0.1537  0.3424  0.4429
  618MOL0     C81456   1.344   0.573   7.919 -0.5899  0.0845 -1.0379
  618MOL0     C81457   1.294   0.678   7.823  0.4827  0.9073 -0.5569
  618MOL0     C81458   1.292   0.637   7.672 -0.9356  0.4254 -1.1764
  618MOL0     C81459   1.221   0.725   7.568 -0.2394 -0.4348  0.1773
  618MOL0     C81460   1.070   0.749   7.594  0.0093  1.1536 -0.3317
  618MOL0     N81461   0.993   0.634   7.639  0.0772  0.3030 -0.1606
  618MOL0     C81462   0.900   0.561   7.563  0.0902  0.0888 -0.3394
  618MOL0     C81463   0.821   0.514   7.658 -0.1041  0.8479  0.7886
  618MOL0     C81464   0.710   0.415   7.623 -0.6782  0.1195 -0.7539
  618MOL0     C81465   0.585   0.414   7.720 -0.8021 -0.7021  0.7551
  618MOL0     C81466   0.456   0.418   7.629 -0.0062  0.1955 -0.0131
  618MOL0     C81467   0.325   0.389   7.710 -0.4728  0.9738  0.2605
  618MOL0     O81468   0.208   0.408   7.629  0.8722 -0.1829 -0.0029
  618MOL0     C81469   0.093   0.344   7.662  0.0119 -0.0469 -0.3682
  618MOL0     C81470   0.052   0.295   7.794 -0.3078 -0.1507  0.5321
  618MOL0     C81471  -0.075   0.231   7.820  0.0968  0.2070 -0.4707
  618MOL0     C81472  -0.174   0.235   7.720 -0.2183  0.3694 -0.0228
  618MOL0     C81473  -0.311   0.181   7.741 -0.3751 -1.7062 -0.1658
  618MOL0     O81474  -0.326   0.108   7.855  0.8619 -0.0247 -0.2261
  618MOL0     C81475  -0.444   0.049   7.887  0.5103  0.0753  0.3574
  618MOL0     C81476  -0.422  -0.085   7.907 -0.4210  1.3952  0.0886
  618MOL0     C81477  -0.533  -0.171   7.938 -0.0571 -0.4133 -0.3747
  618MOL0     C81478  -0.662  -0.118   7.945  0.8236  0.0724 -0.3287
  618MOL0     O81479  -0.773  -0.201   7.957 -0.3684 -0.3482 -0.0705
  618MOL0     C81480  -0.787  -0.274   7.836 -0.7892 -0.1707 -0.0494
  618MOL0     C81481  -0.912  -0.352   7.839 -0.6010  0.5725  0.7793
  618MOL0     C81482  -1.037  -0.266   7.828 -0.1224 -1.1498  0.1751
  618MOL0     C81483  -1.166  -0.339   7.775 -0.5867 -0.5875 -0.0955
  618MOL0     C81484  -1.292  -0.252   7.803  0.2086 -0.2615  0.3952
  618MOL0     C81485  -1.400  -0.283   7.694  0.4201 -0.1062 -0.0282
  618MOL0     C81486  -1.542  -0.211   7.725 -0.0550  0.3590 -1.1638
  618MOL0     C81487  -1.621  -0.185   7.598  0.4876 -0.3990  0.7910
  618MOL0    Cl81488  -1.729  -0.331   7.574  0.4187  0.3220 -0.0162
  618MOL0     C81489  -0.683   0.020   7.918 -0.1987  0.4766  0.1786
  618MOL0     C81490  -0.574   0.101   7.903 -0.9193  0.1631 -0.2860
  618MOL0     O81491  -0.394   0.190   7.648 -0.1426  0.0143 -1.1009
  618MOL0     C81492  -0.126   0.280   7.595  0.2388  0.1328 -0.5434
  618MOL0     C81493  -0.006   0.342   7.574  0.8133 -0.3007  0.4106
  618MOL0     N81494   0.862   0.540   7.788 -0.3612 -0.7770  0.6316
  618MOL0     N81495   0.964   0.617   7.771  0.5673 -0.1824 -0.7085
  618MOL0     C81496   0.863   0.312   8.281  0.3154 -0.2017 -0.2774
  618MOL0     C81497   0.760   0.245   8.348 -0.1744  0.2217 -0.7066
  618MOL0     C81498   0.459   0.097   8.625 -0.4353 -0.6105 -0.1296
  618MOL0     C81499   0.336   0.131   8.570 -0.3648  0.3214 -0.6478
  618MOL0     C81500   0.219   0.084   8.626  0.1533  0.7226  0.5066
  618MOL0     C81501   0.212   0.014   8.740  0.6258  0.2706 -0.4275
  618MOL0     O81502   0.081  -0.008   8.793 -0.3786 -0.0071 -0.5527
  618MOL0     C81503   0.075  -0.088   8.912 -0.2953  0.3087 -0.4439
  618MOL0     C81504   0.089  -0.229   8.863  1.5948  0.6410  0.1519
  618MOL0     C81505  -0.031  -0.280   8.780  0.1150  0.1065 -0.1382
  618MOL0     C81506  -0.025  -0.424   8.726  0.4460 -0.2056 -0.8722
  618MOL0     C81507   0.053  -0.424   8.603 -0.6755  0.1032  0.2814
  618MOL0     C81508   0.112  -0.419   8.499 -0.3982 -0.7029 -0.7791
  618MOL0     C81509   0.337  -0.024   8.787 -0.5430 -0.2737 -0.2637
  618MOL0     C81510   0.468   0.011   8.736  1.2239 -0.3577 -0.0329
  618MOL0     H81511   0.541   0.498   8.384  2.0895  2.3155  4.3212
  618MOL0     H81512   0.713   0.613   8.237  1.8910 -1.4858 -0.1464
  618MOL0     H81513   1.007   0.391   8.045 -0.5603  0.6732  0.3573
  618MOL0     H81514   1.108   0.392   8.200  0.9594 -0.6937 -1.2155
  618MOL0     H81515   1.196   0.609   8.125  0.6379 -0.8219  0.4984
  618MOL0     H81516   1.068   0.626   8.004 -1.1442 -0.2956  1.9131
  618MOL0     H81517   1.169   0.435   7.877  0.3722 -1.2997  0.8313
  618MOL0     H81518   1.269   0.391   8.014  1.9561  0.2732 -0.8754
  618MOL0     H81519   1.377   0.631   8.005  0.9145 -1.9173 -0.1831
  618MOL0     H81520   1.433   0.523   7.880  2.0968 -1.2391  5.4952
  618MOL0     H81521   1.366   0.760   7.833  2.7263 -0.9182 -0.9619
  618MOL0     H81522   1.194   0.712   7.853  0.4894  0.5746 -0.1418
  618MOL0     H81523   1.242   0.540   7.670 -1.9905  0.7752  2.0069
  618MOL0     H81524   1.391   0.608   7.636 -0.0377  1.4224  0.4024
  618MOL0     H81525   1.278   0.818   7.568  0.3959 -0.8039  1.4044
  618MOL0     H81526   1.225   0.676   7.470  2.5180  2.0111 -1.0797
  618MOL0     H81527   1.032   0.801   7.506  3.5334  2.6187 -1.1717
  618MOL0     H81528   1.063   0.826   7.673 -0.7536  0.8238 -0.0741
  618MOL0     H81529   0.886   0.540   7.458  2.8858  1.3498 -1.0556
  618MOL0     H81530   0.746   0.312   7.617  0.1047  0.3586 -0.2914
  618MOL0     H81531   0.682   0.441   7.521 -1.5283  1.3668 -0.2356
  618MOL0     H81532   0.596   0.505   7.780  1.3057  0.9577 -1.8962
  618MOL0     H81533   0.581   0.324   7.782 -0.9116 -0.1490  1.5728
  618MOL0     H81534   0.447   0.510   7.570  0.8501 -0.5684 -1.3868
  618MOL0     H81535   0.448   0.331   7.562 -1.0254 -1.4978  2.1838
  618MOL0     H81536   0.320   0.453   7.799 -1.1916  2.5367 -0.8569
  618MOL0     H81537   0.327   0.284   7.740 -0.4007  0.5977 -1.0191
  618MOL0     H81538   0.119   0.306   7.879 -1.7074 -0.9889  1.7995
  618MOL0     H81539  -0.082   0.183   7.917  0.0077  0.4872 -0.3369
  618MOL0     H81540  -0.323  -0.128   7.900  0.4570  3.5506 -2.0884
  618MOL0     H81541  -0.511  -0.275   7.956  4.2665  0.2708 -0.6159
  618MOL0     H81542  -0.703  -0.340   7.815 -1.8546 -1.6955  0.3492
  618MOL0     H81543  -0.793  -0.197   7.757  0.8197 -0.0302 -0.0578
  618MOL0     H81544  -0.915  -0.405   7.935 -1.3084  1.7279  1.4220
  618MOL0     H81545  -0.920  -0.426   7.759 -2.9697  1.8866 -0.3104
  618MOL0     H81546  -1.017  -0.182   7.761 -2.5876  1.6127  2.6253
  618MOL0     H81547  -1.068  -0.221   7.923 -0.3952  1.8681 -1.2331
  618MOL0     H81548  -1.155  -0.354   7.667 -0.2606 -2.7412  0.2007
  618MOL0     H81549  -1.195  -0.441   7.802 -2.2287 -0.6484 -1.8648
  618MOL0     H81550  -1.254  -0.151   7.783  0.3574 -0.7123 -1.7249
  618MOL0     H81551  -1.332  -0.254   7.905  0.6976 -0.8461  0.5810
  618MOL0     H81552  -1.405  -0.388   7.665  1.1121  0.6094 -3.0641
  618MOL0     H81553  -1.352  -0.244   7.604  1.5231 -1.9846 -0.3105
  618MOL0     H81554  -1.601  -0.266   7.798  0.7670 -1.0589 -1.5241
  618MOL0     H81555  -1.531  -0.111   7.770 -2.5205  1.7483 -3.3713
  618MOL0     H81556  -1.563  -0.178   7.506  0.1424 -1.2464  0.5028
  618MOL0     H81557  -1.671  -0.088   7.609  1.4543 -0.0582  2.5592
  618MOL0     H81558  -0.781   0.065   7.922  0.1723  1.2864  0.4086
  618MOL0     H81559  -0.578   0.207   7.882  4.0065  0.8044  0.7793
  618MOL0     H81560  -0.194   0.273   7.510 -2.7008 -1.3494  1.7279
  618MOL0     H81561   0.014   0.391   7.479 -0.4294  1.0693  0.8093
  618MOL0     H81562   0.953   0.259   8.252  1.6958  1.4950  0.6804
  618MOL0     H81563   0.770   0.137   8.349 -0.3864  0.1962 -1.2652
  618MOL0     H81564   0.311   0.182   8.478 -2.0408 -0.7533 -0.8324
  618MOL0     H81565   0.123   0.114   8.586 -0.4223  3.3829  3.4424
  618MOL0     H81566  -0.018  -0.083   8.970  0.4063 -2.0410  1.0121
  618MOL0     H81567   0.155  -0.071   8.985 -1.8111  1.1455  1.1179
  618MOL0     H81568   0.174  -0.250   8.797 -0.8460  0.3216 -3.1593
  618MOL0     H81569   0.097  -0.298   8.948 -2.4332  0.6316  0.6819
  618MOL0     H81570  -0.049  -0.210   8.697  1.3210  0.0975 -0.4330
  618MOL0     H81571  -0.127  -0.265   8.831  0.6829 -1.2606  1.3893
  618MOL0     H81572   0.009  -0.504   8.794 -1.6157 -2.9518 -2.8391
  618MOL0     H81573  -0.127  -0.457   8.705 -0.2527 -1.2121  3.2141
  618MOL0     H81574   0.165  -0.411   8.407  1.6065  3.1807  0.4815
  618MOL0     H81575   0.351  -0.076   8.881  0.5885  2.7327  1.3445
  618MOL0     H81576   0.554   0.001   8.802 -0.1946  0.4443  2.0396
  619MOL0     O81577   0.146   5.524   0.132 -0.7208  0.0751 -0.3243
  619MOL0     C81578   0.113   5.584   0.237 -0.5527  0.5067 -0.1909
  619MOL0     O81579   0.189   5.633   0.337 -0.0867 -0.2794  0.5627
  619MOL0     C81580   0.321   5.598   0.355 -0.0201 -0.1785  0.3800
  619MOL0     C81581   0.377   5.473   0.314 -0.6667 -0.4456  1.2068
  619MOL0     C81582   0.509   5.437   0.327  0.3038  0.5317 -0.4613
  619MOL0     C81583   0.597   5.521   0.394  0.2633 -0.3637  0.4763
  619MOL0     O81584   0.720   5.486   0.425  0.2681 -0.2851 -0.2948
  619MOL0     C81585   0.796   5.404   0.329 -1.5159  0.7789  1.4159
  619MOL0     C81586   0.947   5.423   0.345 -0.6298 -0.5140 -0.3764
  619MOL0     C81587   0.998   5.376   0.211  0.6992  0.3659  0.6376
  619MOL0     C81588   1.149   5.398   0.199  0.2104  0.4598  0.3445
  619MOL0     C81589   1.225   5.293   0.274 -0.8753 -0.1481 -0.6678
  619MOL0     C81590   1.369   5.285   0.222  0.3767  0.3526  0.8019
  619MOL0     C81591   1.458   5.187   0.302 -0.1389 -0.0029  1.0657
  619MOL0     C81592   1.435   5.035   0.275 -0.7270  0.2616 -0.0388
  619MOL0     N81593   1.301   4.991   0.315 -0.1256  0.6258 -0.0979
  619MOL0     C81594   1.235   5.038   0.423 -0.5092 -0.3068 -0.0523
  619MOL0     C81595   1.122   4.977   0.433 -0.8458  0.0305  0.1730
  619MOL0     C81596   1.044   4.986   0.557 -0.4217  0.2422 -0.6668
  619MOL0     C81597   0.918   5.057   0.547  0.2186  0.2141 -0.0997
  619MOL0     C81598   0.842   5.080   0.675 -0.1535  0.6330  0.0358
  619MOL0     C81599   0.716   5.168   0.665  0.1219 -0.4156  0.2577
  619MOL0     O81600   0.619   5.116   0.576 -0.3365  0.2500  0.0918
  619MOL0     C81601   0.493   5.160   0.587  0.1507  0.3008  0.0097
  619MOL0     C81602   0.397   5.079   0.525 -0.5474  0.0107 -0.1288
  619MOL0     C81603   0.269   5.119   0.504 -0.9081  0.2208  0.1760
  619MOL0     C81604   0.229   5.242   0.547 -0.5750  0.3598  0.1086
  619MOL0     C81605   0.091   5.285   0.520 -0.2755 -0.4370 -0.4001
  619MOL0     O81606   0.013   5.186   0.448 -0.4972  0.0484  0.4935
  619MOL0     C81607  -0.116   5.199   0.416  0.6437 -0.3710 -0.0677
  619MOL0     C81608  -0.170   5.122   0.309 -0.4552  0.4963 -0.4510
  619MOL0     C81609  -0.306   5.130   0.285 -0.5198 -0.1504  0.4736
  619MOL0     C81610  -0.388   5.225   0.353 -0.5024 -0.4649  0.1225
  619MOL0     O81611  -0.520   5.246   0.318  0.1932  0.5935  0.1683
  619MOL0     C81612  -0.580   5.185   0.196  0.3144  0.0121 -0.8748
  619MOL0     C81613  -0.689   5.279   0.141 -0.9572  0.2055 -0.6174
  619MOL0     C81614  -0.799   5.317   0.232  0.4150 -0.4049  1.0621
  619MOL0     C81615  -0.898   5.410   0.156  0.3568  0.2169 -0.1377
  619MOL0     C81616  -1.023   5.455   0.234  1.0284 -0.3929 -0.6168
  619MOL0     C81617  -1.108   5.340   0.297 -0.1744 -0.2686  1.5890
  619MOL0     C81618  -1.237   5.381   0.373  0.1396 -0.0521 -0.5173
  619MOL0     C81619  -1.358   5.411   0.286  0.1437  0.2329 -0.2473
  619MOL0    Cl81620  -1.377   5.596   0.275  0.0461 -0.1344 -0.0928
  619MOL0     C81621  -0.331   5.290   0.466 -0.1251  0.6990  0.4753
  619MOL0     C81622  -0.199   5.276   0.494  0.7156 -0.5576 -0.2592
  619MOL0     O81623   0.046   5.397   0.546  0.1087 -0.4356  0.0370
  619MOL0     C81624   0.323   5.328   0.613 -0.4771  0.1910  0.2011
  619MOL0     C81625   0.455   5.290   0.635 -0.3823 -0.0233  0.5117
  619MOL0     N81626   1.117   4.886   0.332  0.3336  0.6357 -0.4251
  619MOL0     N81627   1.222   4.889   0.258  0.0267 -0.5684 -0.0073
  619MOL0     C81628   0.544   5.646   0.442  0.7469  0.2667  0.7666
  619MOL0     C81629   0.403   5.680   0.431 -0.1601  0.7201 -0.1129
  619MOL0     C81630  -0.033   5.594   0.266 -0.0961  0.0558  0.0561
  619MOL0     C81631  -0.086   5.660   0.381 -0.0630  0.7413 -0.2405
  619MOL0     C81632  -0.224   5.667   0.398  0.5943  0.3786  0.1799
  619MOL0     C81633  -0.315   5.617   0.305 -0.4591  0.5269 -0.5226
  619MOL0     O81634  -0.456   5.619   0.317  0.2425 -0.4924  0.2815
  619MOL0     C81635  -0.524   5.592   0.438 -0.1444  1.0625  0.8781
  619MOL0     C81636  -0.584   5.723   0.493  0.7403 -0.7751  0.0233
  619MOL0     C81637  -0.719   5.742   0.408  0.1932  0.1371 -0.5243
  619MOL0     C81638  -0.761   5.884   0.393 -0.9515 -0.7424 -0.3931
  619MOL0     C81639  -0.875   5.904   0.303  0.0170 -0.4552 -0.2571
  619MOL0     C81640  -0.977   5.904   0.235 -0.3255  0.6006 -0.1837
  619MOL0     C81641  -0.261   5.541   0.203 -0.5104  0.5956 -0.0418
  619MOL0     C81642  -0.125   5.521   0.181  0.3632  0.4412 -0.6407
  619MOL0     H81643   0.310   5.406   0.261 -0.9602  1.6219 -1.2180
  619MOL0     H81644   0.528   5.334   0.298 -3.8644 -0.0534 -1.8231
  619MOL0     H81645   0.769   5.422   0.225  1.5041 -1.1460  0.1586
  619MOL0     H81646   0.787   5.298   0.352 -0.6649 -0.0415 -1.6392
  619MOL0     H81647   0.995   5.361   0.422  2.3999 -0.7885 -2.2948
  619MOL0     H81648   0.965   5.529   0.367 -0.5056 -0.0760 -2.4303
  619MOL0     H81649   0.956   5.444   0.137 -0.5683 -0.6454  0.3893
  619MOL0     H81650   0.982   5.269   0.194  1.2297  0.0432  1.9995
  619MOL0     H81651   1.171   5.370   0.095 -1.5257 -2.7149  0.6954
  619MOL0     H81652   1.179   5.492   0.245  2.0572  0.7107 -1.2748
  619MOL0     H81653   1.175   5.202   0.240 -2.1676  0.3396 -0.1153
  619MOL0     H81654   1.207   5.300   0.381 -0.6464  2.3736 -0.7211
  619MOL0     H81655   1.413   5.384   0.238  0.4342  0.4950 -0.1923
  619MOL0     H81656   1.377   5.266   0.115 -0.7322 -1.1356  0.9501
  619MOL0     H81657   1.561   5.214   0.282  0.1962 -1.1813  1.1326
  619MOL0     H81658   1.442   5.204   0.409  1.3825  2.0881  1.0210
  619MOL0     H81659   1.507   4.990   0.343  1.8906  1.7004 -1.7196
  619MOL0     H81660   1.461   5.010   0.172 -0.2830  2.2769 -0.4586
  619MOL0     H81661   1.284   5.085   0.508 -0.3515  1.1962 -0.9322
  619MOL0     H81662   1.103   5.046   0.627  2.4877 -2.1476 -0.8471
  619MOL0     H81663   1.032   4.886   0.600  1.1081 -0.9179 -2.7642
  619MOL0     H81664   0.851   4.995   0.487 -1.4537  1.6104  0.2735
  619MOL0     H81665   0.933   5.156   0.505  2.7227  0.1763  0.5349
  619MOL0     H81666   0.811   4.984   0.718  0.0168  1.1590  1.3702
  619MOL0     H81667   0.905   5.125   0.752 -1.2541  0.6478  0.9510
  619MOL0     H81668   0.734   5.269   0.626  1.1926 -1.2563 -1.5294
  619MOL0     H81669   0.680   5.173   0.768  1.3691  0.7717  0.6577
  619MOL0     H81670   0.431   4.980   0.499  3.6168  1.0567  0.5795
  619MOL0     H81671   0.203   5.040   0.469 -1.0737  0.5391 -0.2430
  619MOL0     H81672  -0.097   5.075   0.244  3.2275  3.0972  1.3782
  619MOL0     H81673  -0.350   5.057   0.217  1.1931  0.1355 -1.0157
  619MOL0     H81674  -0.625   5.088   0.215 -2.6127  1.0194 -1.9601
  619MOL0     H81675  -0.511   5.172   0.112 -0.3392  1.4179 -1.6799
  619MOL0     H81676  -0.726   5.237   0.046  1.0085 -2.0468 -0.4826
  619MOL0     H81677  -0.637   5.372   0.114  1.6327 -1.2003 -0.8380
  619MOL0     H81678  -0.764   5.366   0.323  0.1661  1.8906 -0.0006
  619MOL0     H81679  -0.861   5.231   0.258 -1.5342 -0.1859 -2.2104
  619MOL0     H81680  -0.860   5.501   0.110 -0.6310  1.0235  0.5856
  619MOL0     H81681  -0.947   5.360   0.072  0.0966  1.2780 -0.6306
  619MOL0     H81682  -1.080   5.522   0.169 -0.4613  1.3348  2.2266
  619MOL0     H81683  -1.004   5.530   0.312 -1.1743  2.4273 -2.5685
  619MOL0     H81684  -1.047   5.283   0.368  3.8632 -0.5610 -1.7116
  619MOL0     H81685  -1.135   5.271   0.216  1.8691  1.8604 -1.0758
  619MOL0     H81686  -1.268   5.302   0.442 -0.0887  0.4164 -0.0718
  619MOL0     H81687  -1.217   5.468   0.437  2.0292 -1.8327  1.4750
  619MOL0     H81688  -1.448   5.360   0.320 -1.7859  2.3943 -1.7835
  619MOL0     H81689  -1.334   5.374   0.187  0.1347  1.6426 -0.8038
  619MOL0     H81690  -0.394   5.355   0.526 -0.1405  3.3456 -2.1844
  619MOL0     H81691  -0.172   5.326   0.587 -4.4985  1.5765  0.4126
  619MOL0     H81692   0.286   5.425   0.645 -3.4973 -1.2294  1.3415
  619MOL0     H81693   0.522   5.363   0.680 -1.2000  0.5246  0.8631
  619MOL0     H81694   0.606   5.709   0.505  0.8506  0.4801  0.4485
  619MOL0     H81695   0.360   5.765   0.484 -0.9442 -0.5588  1.3999
  619MOL0     H81696  -0.022   5.695   0.461  1.0109  2.8434 -1.9184
  619MOL0     H81697  -0.260   5.716   0.487 -0.6332  0.5887 -0.4058
  619MOL0     H81698  -0.442   5.553   0.499  1.4489  0.8206 -1.3142
  619MOL0     H81699  -0.588   5.508   0.411  1.8314 -0.3192  0.2813
  619MOL0     H81700  -0.598   5.717   0.601 -0.5622  2.4640  0.1379
  619MOL0     H81701  -0.521   5.810   0.474 -1.6620  1.0206 -0.1146
  619MOL0     H81702  -0.810   5.688   0.437 -0.6465  1.3100 -0.8864
  619MOL0     H81703  -0.698   5.703   0.308  1.0411 -0.3052 -0.1884
  619MOL0     H81704  -0.784   5.929   0.490  1.4609 -0.6664  0.2241
  619MOL0     H81705  -0.675   5.939   0.353 -2.1536  3.0244  1.7873
  619MOL0     H81706  -1.063   5.891   0.174 -1.5504  1.0988  1.3739
  619MOL0     H81707  -0.333   5.478   0.151 -3.8547 -1.0323  5.7351
  619MOL0     H81708  -0.092   5.466   0.093  0.7623 -2.2220  1.0921
  620MOL0     O81709   0.693   5.157   8.764  0.6227 -0.3214 -1.1393
  620MOL0     C81710   0.726   5.105   8.655  0.0354 -0.4891 -0.1288
  620MOL0     O81711   0.633   5.041   8.571  0.0059  0.2883 -0.1310
  620MOL0     C81712   0.508   5.038   8.618 -0.1034  0.1318 -0.6755
  620MOL0     C81713   0.445   5.163   8.639  0.4814 -0.2673  0.2203
  620MOL0     C81714   0.310   5.167   8.679  0.1759  1.0537  0.1156
  620MOL0     C81715   0.238   5.048   8.691 -0.1394 -0.7961  0.0382
  620MOL0     O81716   0.109   5.062   8.727  0.3054 -0.1560 -0.6655
  620MOL0     C81717   0.074   4.983   8.840  0.1267 -0.4037 -0.1185
  620MOL0     C81718  -0.055   5.039   8.921 -0.6596  0.6901 -0.9021
  620MOL0     C81719  -0.045   5.173   8.991 -0.0493 -0.1215  0.7669
  620MOL0     C81720  -0.155   5.211   9.084  0.0080 -0.0213  0.0742
  620MOL0     C81721  -0.295   5.197   9.020 -0.2624  0.6427 -0.8244
  620MOL0     C81722  -0.405   5.266   9.117 -0.0481 -0.8313 -0.0496
  620MOL0     C81723  -0.546   5.211   9.086  0.1725  0.3915  0.3331
  620MOL0     C81724  -0.596   5.269   8.952 -0.9954  0.0199 -1.1794
  620MOL0     N81725  -0.733   5.212   8.911 -0.3880  0.1928 -0.2756
  620MOL0     C81726  -0.849   5.280   8.926  0.1226  0.3685  0.5287
  620MOL0     C81727  -0.944   5.186   8.922  0.2073 -0.3161 -0.6199
  620MOL0     C81728  -1.092   5.204   8.948  0.4353 -0.1385  0.1411
  620MOL0     C81729  -1.165   5.116   8.864  0.3373  0.2864  0.2258
  620MOL0     C81730  -1.319   5.130   8.878  0.3317  0.5399 -0.7360
  620MOL0     C81731  -1.403   5.040   8.782 -0.4435  0.2282 -0.5456
  620MOL0     O81732  -1.538   5.027   8.832 -0.0809 -0.2678  0.0584
  620MOL0     C81733  -1.640   5.016   8.744 -0.0830  0.3202  0.2729
  620MOL0     C81734  -1.771   5.048   8.786 -0.5657 -0.5961 -0.9491
  620MOL0     C81735  -1.881   5.037   8.701 -0.6854  0.5554  0.1263
  620MOL0     C81736  -1.864   4.968   8.578 -0.2287  1.2675  0.3692
  620MOL0     C81737  -1.983   4.958   8.495  0.1930 -0.3384 -0.9431
  620MOL0     O81738  -2.092   5.026   8.553  0.0519  0.3676  0.3841
  620MOL0     C81739  -2.226   5.011   8.522  0.2680  0.4139  0.2929
  620MOL0     C81740  -2.282   4.950   8.410 -0.4740 -0.0928 -0.5356
  620MOL0     C81741  -2.419   4.950   8.377  0.3333 -0.5058 -0.0085
  620MOL0     C81742  -2.510   5.034   8.441 -0.3300  0.1893 -0.6214
  620MOL0     O81743  -2.640   5.075   8.404  0.0992  0.3221  0.4874
  620MOL0     C81744  -2.735   4.973   8.365 -0.6112  0.5541 -0.1190
  620MOL0     C81745  -2.884   5.013   8.339 -0.0358 -0.3516 -0.0367
  620MOL0     C81746  -2.959   4.902   8.261  0.3540  0.4845 -0.9729
  620MOL0     C81747  -3.102   4.945   8.232  0.0491  0.0087 -0.0354
  620MOL0     C81748  -3.178   4.848   8.137 -0.4139 -0.5936 -0.4478
  620MOL0     C81749  -3.318   4.924   8.124 -0.8075  0.5829  0.2566
  620MOL0     C81750  -3.394   4.947   8.252 -1.2115  0.1797 -0.4844
  620MOL0     C81751  -3.543   4.970   8.234 -0.1838  0.1960  0.7825
  620MOL0    Cl81752  -3.561   5.097   8.112  0.3814  0.0620  0.0474
  620MOL0     C81753  -2.454   5.098   8.562  0.6402  0.5562  1.3471
  620MOL0     C81754  -2.323   5.078   8.606  0.0555  0.8163  1.3100
  620MOL0     O81755  -1.984   4.882   8.398 -0.3778  0.7733 -0.5987
  620MOL0     C81756  -1.734   4.933   8.532  0.3639 -0.0410 -0.0049
  620MOL0     C81757  -1.627   4.957   8.618  0.0744  0.1009 -0.2518
  620MOL0     N81758  -0.881   5.072   8.873  0.1604 -0.5543 -0.2445
  620MOL0     N81759  -0.750   5.086   8.871 -0.7447 -0.2434  0.1351
  620MOL0     C81760   0.297   4.925   8.656  1.6603 -0.2656 -0.3945
  620MOL0     C81761   0.440   4.915   8.622 -0.3619  0.0791 -0.6454
  620MOL0     C81762   0.864   5.103   8.611 -0.9228  0.1590 -0.9486
  620MOL0     C81763   0.913   5.067   8.478 -0.6341 -0.4762 -0.4885
  620MOL0     C81764   1.049   5.072   8.444  0.4197 -0.4447  0.3348
  620MOL0     C81765   1.146   5.121   8.530 -0.1590 -0.3355  0.7701
  620MOL0     O81766   1.267   5.159   8.476 -0.5364  0.4701 -0.0652
  620MOL0     C81767   1.391   5.126   8.538  0.5198 -0.7038 -0.3864
  620MOL0     C81768   1.420   4.982   8.503  0.1347  0.4740  0.2397
  620MOL0     C81769   1.477   4.982   8.347 -0.1852  1.3084 -0.8870
  620MOL0     C81770   1.611   5.045   8.341  0.3649 -0.3058 -0.2153
  620MOL0     C81771   1.710   4.965   8.420 -0.2631 -0.2103  0.7251
  620MOL0     C81772   1.787   4.905   8.490  1.0890  0.7020  0.2153
  620MOL0     C81773   1.096   5.150   8.656  0.3619  0.0730 -0.2330
  620MOL0     C81774   0.964   5.133   8.702  0.1576  0.0582 -0.2548
  620MOL0     H81775   0.499   5.257   8.634 -0.6374  0.3590 -0.9624
  620MOL0     H81776   0.269   5.267   8.680 -1.5994  0.3605 -0.1858
  620MOL0     H81777   0.154   4.980   8.915  1.0940 -2.2063 -1.1581
  620MOL0     H81778   0.042   4.884   8.809 -0.3536  0.2584 -1.8489
  620MOL0     H81779  -0.071   4.974   9.008  2.3548  2.2051  0.9331
  620MOL0     H81780  -0.132   5.047   8.843  1.6096  1.1265 -3.2537
  620MOL0     H81781  -0.033   5.244   8.909  2.4235 -0.4213  0.8101
  620MOL0     H81782   0.049   5.171   9.047  0.8267  1.4075 -0.5688
  620MOL0     H81783  -0.158   5.147   9.173  0.8300 -0.4206 -0.1806
  620MOL0     H81784  -0.136   5.313   9.118 -0.6166  0.0902  0.1107
  620MOL0     H81785  -0.312   5.092   8.994  0.8433  0.2235  0.0843
  620MOL0     H81786  -0.290   5.246   8.922  2.0212 -1.2431 -1.7407
  620MOL0     H81787  -0.407   5.375   9.112  0.2616 -0.8810 -2.0259
  620MOL0     H81788  -0.382   5.248   9.222 -0.2496 -1.1609 -0.0618
  620MOL0     H81789  -0.538   5.103   9.068 -0.2867  0.6349 -1.4747
  620MOL0     H81790  -0.611   5.224   9.174  1.1818 -1.4801  1.4209
  620MOL0     H81791  -0.532   5.252   8.865 -0.8848  0.7013 -1.2359
  620MOL0     H81792  -0.595   5.378   8.956  2.4885  0.0748  0.6828
  620MOL0     H81793  -0.859   5.383   8.959  3.3682  1.1875 -0.6921
  620MOL0     H81794  -1.133   5.305   8.944 -0.7489 -0.6411 -2.1567
  620MOL0     H81795  -1.103   5.185   9.055 -1.3993  1.1325  0.2092
  620MOL0     H81796  -1.140   5.012   8.889 -1.1267 -0.5685 -1.6596
  620MOL0     H81797  -1.143   5.136   8.759 -1.0347 -0.4833 -0.2257
  620MOL0     H81798  -1.331   5.114   8.986 -0.6188  2.6582 -0.4760
  620MOL0     H81799  -1.338   5.236   8.855 -0.5368  0.5688  0.0552
  620MOL0     H81800  -1.350   4.944   8.785  0.1469  0.4239 -2.7612
  620MOL0     H81801  -1.406   5.087   8.683  1.2787 -0.7597 -1.1226
  620MOL0     H81802  -1.771   5.085   8.888  0.0823 -0.2598 -1.0634
  620MOL0     H81803  -1.976   5.070   8.740 -2.2654 -1.6107 -1.6537
  620MOL0     H81804  -2.222   4.897   8.337  1.9329 -0.3197  1.4921
  620MOL0     H81805  -2.451   4.896   8.288 -1.6992  2.3415 -1.1375
  620MOL0     H81806  -2.745   4.899   8.446 -2.4323  1.4951  0.5788
  620MOL0     H81807  -2.675   4.931   8.284  0.1831  0.5917  0.4448
  620MOL0     H81808  -2.879   5.098   8.271  1.3081 -0.9128 -0.6760
  620MOL0     H81809  -2.947   5.041   8.424 -2.7663 -1.2759 -1.6481
  620MOL0     H81810  -2.964   4.813   8.324  0.7776 -0.3041 -2.0206
  620MOL0     H81811  -2.908   4.869   8.170 -0.5071  1.0995 -1.7012
  620MOL0     H81812  -3.154   4.971   8.325 -2.3528  0.7348 -1.4802
  620MOL0     H81813  -3.096   5.047   8.192 -0.3009 -0.0111 -0.1446
  620MOL0     H81814  -3.169   4.744   8.172 -0.0476  0.2359  2.1388
  620MOL0     H81815  -3.126   4.838   8.041  0.7908  0.9391  0.0026
  620MOL0     H81816  -3.387   4.860   8.069 -0.5746  1.7227 -1.4620
  620MOL0     H81817  -3.313   5.015   8.063  1.3847  0.0267 -0.5097
  620MOL0     H81818  -3.380   4.864   8.322  3.0355  1.2105  0.1671
  620MOL0     H81819  -3.347   5.036   8.296  1.5803 -0.5778 -1.6739
  620MOL0     H81820  -3.582   5.005   8.331  0.2894 -2.5229  2.0464
  620MOL0     H81821  -3.595   4.878   8.205  1.0447 -0.5384  0.8377
  620MOL0     H81822  -2.530   5.145   8.624 -1.8367  0.6040 -1.4547
  620MOL0     H81823  -2.298   5.110   8.707  1.2890  1.3743  0.8425
  620MOL0     H81824  -1.720   4.868   8.447 -1.1897 -0.8333  0.3127
  620MOL0     H81825  -1.533   4.917   8.581 -0.7256 -3.9296  1.5348
  620MOL0     H81826   0.246   4.830   8.645  0.3283  0.5525 -1.6963
  620MOL0     H81827   0.486   4.817   8.609 -0.0397  0.2321 -0.6685
  620MOL0     H81828   0.836   5.033   8.409 -0.5487 -1.6987 -0.0153
  620MOL0     H81829   1.091   5.050   8.347  0.5997 -0.7505  0.4804
  620MOL0     H81830   1.390   5.127   8.648 -0.8808 -0.8224 -0.3835
  620MOL0     H81831   1.462   5.204   8.510 -1.5010  1.5881  0.4862
  620MOL0     H81832   1.489   4.939   8.576 -1.6929  0.2887  1.9355
  620MOL0     H81833   1.333   4.916   8.515  1.2705 -0.8782  1.3936
  620MOL0     H81834   1.399   5.031   8.288 -0.8418  1.9579  0.4646
  620MOL0     H81835   1.480   4.877   8.316 -2.7019 -1.0213  5.1933
  620MOL0     H81836   1.628   5.054   8.233 -3.6332  0.5172 -0.9540
  620MOL0     H81837   1.616   5.145   8.386 -2.8636 -0.0310 -0.2276
  620MOL0     H81838   1.851   4.846   8.553  1.7060  2.3525  1.2272
  620MOL0     H81839   1.162   5.180   8.737  1.2880 -1.0420 -0.5496
  620MOL0     H81840   0.933   5.151   8.805 -0.3121  1.3767 -0.5973
  621MOL0     O81841  10.475   8.658   9.611 -0.0192  0.1311  0.1191
  621MOL0     C81842  10.399   8.632   9.513  0.0119 -0.6256 -0.4879
  621MOL0     O81843  10.421   8.537   9.424  0.3371 -0.3087 -0.2359
  621MOL0     C81844  10.548   8.490   9.430 -0.8871  0.6008  0.2665
  621MOL0     C81845  10.602   8.392   9.514  0.7581 -0.1359  0.4439
  621MOL0     C81846  10.737   8.353   9.509  0.5502  0.0633  0.3898
  621MOL0     C81847  10.820   8.395   9.400 -0.1311  0.1915  0.2450
  621MOL0     O81848  10.953   8.351   9.390 -0.4358 -0.2951 -0.2960
  621MOL0     C81849  11.020   8.347   9.259  0.0229 -0.7939 -0.2587
  621MOL0     C81850  11.131   8.246   9.262  0.5686  0.2860  0.6507
  621MOL0     C81851  11.249   8.283   9.347  0.5127  0.5540 -0.3992
  621MOL0     C81852  11.349   8.168   9.355 -0.2374  0.4738  0.2522
  621MOL0     C81853  11.470   8.228   9.437  0.8074  0.3821 -1.6371
  621MOL0     C81854  11.573   8.120   9.473  0.0513  0.0336 -0.2516
  621MOL0     C81855  11.657   8.173   9.591 -0.0018 -1.0952 -0.3599
  621MOL0     C81856  11.791   8.101   9.595  0.3917  0.3300  0.2710
  621MOL0     N81857  11.868   8.129   9.715  1.1798 -0.3890 -0.7203
  621MOL0     C81858  11.964   8.232   9.735  0.3093  0.7030 -0.0775
  621MOL0     C81859  12.010   8.210   9.857  0.3929 -0.1243  0.0216
  621MOL0     C81860  12.111   8.296   9.929  0.1927  0.1052 -0.6332
  621MOL0     C81861  12.075   8.324  10.081  0.2878 -0.6738  0.2838
  621MOL0     C81862  12.098   8.211  10.186  0.4185 -0.3716 -0.2377
  621MOL0     C81863  12.239   8.153  10.183 -0.3300  0.6811 -0.0686
  621MOL0     O81864  12.338   8.258  10.186 -0.3664 -0.0532 -0.1972
  621MOL0     C81865  12.451   8.244  10.270 -0.1964 -0.1043  0.0743
  621MOL0     C81866  12.448   8.309  10.398  0.6870 -0.9641  0.5070
  621MOL0     C81867  12.561   8.310  10.482 -0.2339  0.4748 -0.4947
  621MOL0     C81868  12.686   8.265  10.436  0.0943  0.4624 -0.0391
  621MOL0     C81869  12.809   8.275  10.516 -0.9376 -0.9022  0.4684
  621MOL0     O81870  12.927   8.223  10.470 -0.2159  0.0891 -0.5805
  621MOL0     C81871  13.040   8.249  10.543 -0.7272 -0.6062  0.3609
  621MOL0     C81872  13.160   8.281  10.471  0.6797 -0.0150  0.0179
  621MOL0     C81873  13.275   8.309  10.533 -0.8462  0.5074  0.2154
  621MOL0     C81874  13.289   8.284  10.677 -0.4327 -0.3062  0.1922
  621MOL0     O81875  13.412   8.296  10.740  0.0674 -0.0251  0.6060
  621MOL0     C81876  13.426   8.244  10.877  0.0514  0.1118 -0.6282
  621MOL0     C81877  13.574   8.262  10.921 -0.4156  0.1149  0.2850
  621MOL0     C81878  13.579   8.232  11.067  1.0742  0.0066  0.1345
  621MOL0     C81879  13.703   8.257  11.150 -0.3891 -0.0908 -0.3949
  621MOL0     C81880  13.772   8.401  11.132 -0.6166 -0.0636  0.0234
  621MOL0     C81881  13.885   8.427  11.238  1.1431  0.0549 -0.1775
  621MOL0     C81882  13.844   8.500  11.367  1.2649 -0.3217  0.7648
  621MOL0     C81883  13.706   8.449  11.422  0.3215  0.2897 -0.0497
  621MOL0    Cl81884  13.689   8.551  11.579  0.0630  0.3998  0.1178
  621MOL0     C81885  13.166   8.257  10.748 -0.4902 -0.2276 -0.2430
  621MOL0     C81886  13.050   8.249  10.681  0.4755  0.1550  0.0212
  621MOL0     O81887  12.795   8.352  10.607 -0.0443  0.0523 -0.1105
  621MOL0     C81888  12.692   8.204  10.307  0.4820 -0.4027  0.0275
  621MOL0     C81889  12.576   8.194  10.228  0.4986  1.1833 -1.1567
  621MOL0     N81890  11.928   8.116   9.912 -0.9613 -0.6837 -0.4056
  621MOL0     N81891  11.848   8.065   9.833 -0.1289 -0.9305  0.6110
  621MOL0     C81892  10.764   8.487   9.314 -0.0496  0.3189 -0.0755
  621MOL0     C81893  10.630   8.530   9.326 -0.8293 -0.5096 -0.0285
  621MOL0     C81894  10.264   8.692   9.519  0.5936  1.0446 -0.6837
  621MOL0     C81895  10.200   8.722   9.395 -0.4390  0.3040 -0.0874
  621MOL0     C81896  10.071   8.764   9.399 -0.4067 -1.0377 -0.4710
  621MOL0     C81897  10.002   8.793   9.516  0.0522 -0.8109 -1.0839
  621MOL0     O81898   9.874   8.849   9.527  0.8993  0.1183 -0.0031
  621MOL0     C81899   9.773   8.754   9.567 -0.4864 -0.3564 -0.0600
  621MOL0     C81900   9.692   8.718   9.444  0.8346 -1.2592  0.0698
  621MOL0     C81901   9.606   8.852   9.410  0.3109  0.0953  0.8563
  621MOL0     C81902   9.508   8.826   9.302 -0.8385 -0.4162  0.2802
  621MOL0     C81903   9.382   8.788   9.362 -0.2847  0.1063 -0.9513
  621MOL0     C81904   9.283   8.764   9.419 -0.3983  0.6874  0.7826
  621MOL0     C81905  10.077   8.785   9.635  0.7191 -0.0348 -0.4340
  621MOL0     C81906  10.206   8.732   9.637  0.0823  0.3363 -0.5647
  621MOL0     H81907  10.544   8.346   9.593  0.6889  0.4150  0.7233
  621MOL0     H81908  10.772   8.275   9.576 -1.3972 -1.9488 -0.8034
  621MOL0     H81909  11.060   8.447   9.240 -0.3671 -0.4375  0.7222
  621MOL0     H81910  10.957   8.319   9.174 -3.2266  1.1676  1.2596
  621MOL0     H81911  11.167   8.233   9.159  3.8070 -2.8979  1.9618
  621MOL0     H81912  11.094   8.146   9.286  2.6082 -0.7204 -0.1244
  621MOL0     H81913  11.208   8.314   9.444 -3.2740  0.1479 -1.7133
  621MOL0     H81914  11.301   8.361   9.291 -0.5462  0.9505 -0.8496
  621MOL0     H81915  11.318   8.079   9.409 -0.1447  0.4287  0.2327
  621MOL0     H81916  11.387   8.140   9.256 -3.3473 -2.8846 -0.1838
  621MOL0     H81917  11.431   8.279   9.525  0.7759  1.4135 -2.2278
  621MOL0     H81918  11.520   8.306   9.379  0.8230  2.6232  1.1709
  621MOL0     H81919  11.632   8.107   9.382  2.1900  1.9536  0.7690
  621MOL0     H81920  11.531   8.021   9.494  1.2649 -0.5942 -0.6538
  621MOL0     H81921  11.678   8.280   9.579  0.0248 -0.9551  0.8089
  621MOL0     H81922  11.598   8.168   9.683 -1.6701  0.5894 -1.2845
  621MOL0     H81923  11.847   8.124   9.505 -0.5128 -0.9437 -0.6644
  621MOL0     H81924  11.769   7.994   9.606  3.6275 -0.4598 -0.0857
  621MOL0     H81925  12.011   8.309   9.674  2.3179  2.5356  3.4388
  621MOL0     H81926  12.110   8.386   9.867  0.7680 -0.6361 -1.7495
  621MOL0     H81927  12.212   8.255   9.923  0.1050 -0.0136 -1.4345
  621MOL0     H81928  11.974   8.366  10.082  0.7524  0.7403 -2.3826
  621MOL0     H81929  12.151   8.396  10.113  1.8380 -1.6150 -1.1262
  621MOL0     H81930  12.080   8.254  10.285 -1.2931  0.3170 -0.8047
  621MOL0     H81931  12.027   8.128  10.180  0.1892 -0.4803  2.7928
  621MOL0     H81932  12.252   8.105  10.085  1.8500 -1.8454  1.3397
  621MOL0     H81933  12.260   8.080  10.261 -0.8153  0.3904 -0.2060
  621MOL0     H81934  12.368   8.373  10.434 -0.1982 -1.1579 -1.0602
  621MOL0     H81935  12.546   8.352  10.581 -6.5203  2.7460 -1.9647
  621MOL0     H81936  13.144   8.278  10.363 -2.6072 -0.2888  0.4112
  621MOL0     H81937  13.371   8.337  10.492 -0.0078 -1.3772  0.8031
  621MOL0     H81938  13.399   8.139  10.882  1.4013 -0.3158 -1.7597
  621MOL0     H81939  13.357   8.294  10.945  0.1017  1.8326 -1.7675
  621MOL0     H81940  13.609   8.366  10.914 -2.5817  0.8782  0.1336
  621MOL0     H81941  13.639   8.190  10.870 -2.8463 -0.7585 -1.7677
  621MOL0     H81942  13.550   8.128  11.084 -1.7765  0.6523 -0.3706
  621MOL0     H81943  13.499   8.285  11.118  1.0893 -2.8048  3.4857
  621MOL0     H81944  13.680   8.239  11.255  2.0811 -2.7315 -0.1688
  621MOL0     H81945  13.776   8.177  11.131 -0.0916  0.1423 -0.2549
  621MOL0     H81946  13.690   8.473  11.145 -1.0972 -0.6067  0.0242
  621MOL0     H81947  13.809   8.414  11.029 -1.1098  0.7096 -0.0672
  621MOL0     H81948  13.963   8.484  11.186  0.8274 -0.4953 -1.3070
  621MOL0     H81949  13.940   8.343  11.280 -1.1522 -0.9413  0.9931
  621MOL0     H81950  13.920   8.504  11.446  1.0094  0.4058  0.9823
  621MOL0     H81951  13.833   8.605  11.337 -0.0367  0.0768  2.5138
  621MOL0     H81952  13.710   8.343  11.448  4.0669  0.5694  1.1521
  621MOL0     H81953  13.622   8.457  11.353  0.4755 -0.0802 -0.2816
  621MOL0     H81954  13.159   8.277  10.855 -0.8450  0.4923 -0.3916
  621MOL0     H81955  12.963   8.233  10.742  0.4775 -1.5763 -0.3751
  621MOL0     H81956  12.786   8.168  10.266  0.8391  0.6665 -0.1115
  621MOL0     H81957  12.574   8.163  10.124 -4.4620 -2.2607 -0.3587
  621MOL0     H81958  10.816   8.525   9.227  0.9623  3.5508  1.7795
  621MOL0     H81959  10.586   8.600   9.256  0.3653  0.2513 -0.0467
  621MOL0     H81960  10.240   8.687   9.300  1.1440  2.1773 -0.1702
  621MOL0     H81961  10.021   8.776   9.304 -1.5815  1.5182  0.3677
  621MOL0     H81962   9.710   8.810   9.636 -0.9157  2.1659 -2.3253
  621MOL0     H81963   9.811   8.661   9.610  0.9681 -0.7171 -1.9658
  621MOL0     H81964   9.750   8.707   9.352 -3.0226 -0.8187 -2.6734
  621MOL0     H81965   9.634   8.625   9.447  2.5810 -2.5089 -1.8997
  621MOL0     H81966   9.684   8.921   9.376  0.0384  1.4315  2.8114
  621MOL0     H81967   9.556   8.883   9.502  2.8182 -0.6095  2.5666
  621MOL0     H81968   9.500   8.919   9.246  1.2275 -1.1151 -1.2929
  621MOL0     H81969   9.547   8.742   9.244  0.7560  0.6115 -0.2077
  621MOL0     H81970   9.198   8.724   9.470  0.0909 -0.2372  0.8902
  621MOL0     H81971  10.037   8.815   9.730 -0.6968 -1.6181 -0.4846
  621MOL0     H81972  10.248   8.700   9.732 -1.0457 -3.7035 -1.2550
  622MOL0     O81973   4.755   0.656   5.668  0.4843  0.3818 -0.2378
  622MOL0     C81974   4.817   0.757   5.657 -0.4226 -0.3220 -0.5843
  622MOL0     O81975   4.778   0.881   5.685  0.2891  0.5230 -0.0303
  622MOL0     C81976   4.652   0.900   5.753 -0.4799  0.5932 -0.2291
  622MOL0     C81977   4.576   1.017   5.728 -0.3314  1.4168  0.9184
  622MOL0     C81978   4.471   1.046   5.819 -0.1255 -0.5214  0.2074
  622MOL0     C81979   4.434   0.968   5.927 -0.0459  0.3718  0.0605
  622MOL0     O81980   4.322   0.993   5.996 -0.2495 -0.0475  0.2130
  622MOL0     C81981   4.214   1.060   5.924  0.0994 -0.5185 -0.2052
  622MOL0     C81982   4.078   1.026   5.992 -0.0278  0.9079 -0.1695
  622MOL0     C81983   3.970   1.120   5.926  1.0983  0.3832  0.5782
  622MOL0     C81984   3.958   1.112   5.767 -1.4991 -0.2806 -0.8309
  622MOL0     C81985   3.847   1.189   5.695 -0.0576 -0.0485  0.2031
  622MOL0     C81986   3.719   1.118   5.698  0.5453  0.5437 -0.5214
  622MOL0     C81987   3.599   1.183   5.631 -1.3794 -0.6594  0.4740
  622MOL0     C81988   3.549   1.302   5.707 -0.0695 -0.2401  0.2583
  622MOL0     N81989   3.471   1.378   5.609  0.2226 -0.0117 -0.3110
  622MOL0     C81990   3.425   1.509   5.631 -0.0553 -1.0672 -0.1637
  622MOL0     C81991   3.336   1.523   5.528 -1.1583 -0.7438 -0.9375
  622MOL0     C81992   3.260   1.647   5.494 -1.2408  0.0699 -0.4515
  622MOL0     C81993   3.120   1.618   5.432  0.0429 -0.2519 -0.6457
  622MOL0     C81994   3.050   1.744   5.391  0.0455 -0.5846 -0.1052
  622MOL0     C81995   2.905   1.735   5.361 -0.3567 -0.3853 -0.1409
  622MOL0     O81996   2.846   1.772   5.487 -0.2170  0.4465  0.3517
  622MOL0     C81997   2.708   1.791   5.487 -1.0822  0.5773 -0.1514
  622MOL0     C81998   2.630   1.819   5.376 -0.3699 -0.0614 -0.8648
  622MOL0     C81999   2.495   1.853   5.399  0.6152  0.1304 -1.1248
  622MOL0     C82000   2.437   1.863   5.521 -0.7597  0.6939 -0.3045
  622MOL0     C82001   2.299   1.904   5.531  0.1603  0.5738  0.5588
  622MOL0     O82002   2.251   1.939   5.660  0.4232  0.2021  0.7212
  622MOL0     C82003   2.116   1.952   5.683  0.0275 -0.1944  0.0952
  622MOL0     C82004   2.033   2.047   5.622  0.2334  0.3721 -0.0985
  622MOL0     C82005   1.900   2.053   5.674  0.7093  0.1808 -0.3350
  622MOL0     C82006   1.855   1.965   5.769  0.3582 -0.4192 -0.1038
  622MOL0     O82007   1.722   1.973   5.801  0.1278 -0.6553 -0.0592
  622MOL0     C82008   1.674   1.866   5.897  0.1895 -0.0539 -0.0518
  622MOL0     C82009   1.521   1.859   5.893 -0.9685  0.1919  1.1414
  622MOL0     C82010   1.462   1.986   5.954 -0.6536 -0.1834 -0.5972
  622MOL0     C82011   1.318   1.977   5.937  0.7493  0.7400  0.4818
  622MOL0     C82012   1.240   2.065   6.037 -0.0639  0.2666  0.5947
  622MOL0     C82013   1.274   2.212   6.038 -0.4905  0.1610 -0.1249
  622MOL0     C82014   1.162   2.284   6.122  0.4344  0.1099 -1.2333
  622MOL0     C82015   1.185   2.286   6.270  0.1110  0.2341  0.1556
  622MOL0    Cl82016   1.113   2.149   6.353  0.0791  0.1967  0.0547
  622MOL0     C82017   1.951   1.876   5.827  0.3152  0.4191 -0.5201
  622MOL0     C82018   2.080   1.873   5.794  0.0679 -1.0155 -0.3125
  622MOL0     O82019   2.233   1.921   5.425 -0.1717 -0.2087 -0.2283
  622MOL0     C82020   2.524   1.836   5.628 -0.0765  0.4037  0.1944
  622MOL0     C82021   2.658   1.801   5.609  0.7523 -0.0346  0.6368
  622MOL0     N82022   3.307   1.403   5.466  1.0026 -0.6958 -0.5136
  622MOL0     N82023   3.396   1.322   5.511  0.5579 -1.5703  0.0628
  622MOL0     C82024   4.509   0.855   5.956 -0.2059 -0.4057 -0.4141
  622MOL0     C82025   4.617   0.822   5.874  0.4986  1.0191 -0.4207
  622MOL0     C82026   4.949   0.744   5.604  0.1560  0.1755  0.7069
  622MOL0     C82027   5.057   0.813   5.659 -0.1510  0.5017  0.4073
  622MOL0     C82028   5.184   0.782   5.614 -0.4776 -0.1769  0.2863
  622MOL0     C82029   5.204   0.704   5.499 -0.3907 -0.2251  0.1787
  622MOL0     O82030   5.336   0.667   5.462  0.0882 -0.3270 -0.5535
  622MOL0     C82031   5.450   0.729   5.535  1.1251  0.1651 -0.2909
  622MOL0     C82032   5.584   0.718   5.464  0.1237 -0.5318  0.0190
  622MOL0     C82033   5.637   0.573   5.456 -0.6915  1.1359 -0.1119
  622MOL0     C82034   5.764   0.546   5.375 -0.3847 -0.2068  0.5261
  622MOL0     C82035   5.793   0.408   5.363 -0.2527  0.4009 -0.5307
  622MOL0     C82036   5.820   0.290   5.342  0.2379  0.3251 -0.8309
  622MOL0     C82037   5.096   0.643   5.441 -0.5447 -0.5542 -0.5090
  622MOL0     C82038   4.967   0.663   5.493  0.0959  0.0944  0.1641
  622MOL0     H82039   4.613   1.079   5.647  1.0592 -1.0531 -0.4419
  622MOL0     H82040   4.413   1.133   5.789  1.7019 -0.1955 -2.7848
  622MOL0     H82041   4.214   1.035   5.817  2.8033 -0.0075 -0.3719
  622MOL0     H82042   4.222   1.168   5.932 -1.6536 -0.5040  2.5083
  622MOL0     H82043   4.077   1.064   6.095 -1.6391  0.4921 -0.0130
  622MOL0     H82044   4.051   0.920   5.997  0.1350  0.8360 -0.7894
  622MOL0     H82045   3.986   1.225   5.952  0.7577  0.6321 -0.1978
  622MOL0     H82046   3.875   1.081   5.962  2.8429 -3.9022  1.2403
  622MOL0     H82047   4.045   1.158   5.718  0.3569 -4.7807 -2.3294
  622MOL0     H82048   3.961   1.010   5.727  0.4483 -1.1444  1.2778
  622MOL0     H82049   3.867   1.203   5.589 -0.6093  1.1586  0.2456
  622MOL0     H82050   3.832   1.284   5.747 -2.8750 -1.1414  1.6077
  622MOL0     H82051   3.693   1.093   5.801 -0.4997  1.5240 -0.5279
  622MOL0     H82052   3.743   1.027   5.642  1.9736  0.6226 -0.0776
  622MOL0     H82053   3.637   1.219   5.536  0.3076 -0.5891  1.1443
  622MOL0     H82054   3.521   1.106   5.620 -0.5212 -1.2331 -2.3607
  622MOL0     H82055   3.635   1.358   5.745 -1.7737  1.2714  2.1861
  622MOL0     H82056   3.500   1.284   5.803  0.5665 -2.0504  0.2693
  622MOL0     H82057   3.444   1.589   5.702 -3.7604 -0.2077  0.0915
  622MOL0     H82058   3.313   1.706   5.418 -1.4481  0.5071 -0.2637
  622MOL0     H82059   3.257   1.713   5.581  1.3539  3.7471 -2.8566
  622MOL0     H82060   3.065   1.561   5.507 -1.0276 -0.2878 -1.4380
  622MOL0     H82061   3.128   1.558   5.340 -1.6201 -2.0727  0.3278
  622MOL0     H82062   3.062   1.814   5.474 -3.3549 -0.3567  0.3176
  622MOL0     H82063   3.103   1.785   5.305  1.0910 -2.4760 -0.4246
  622MOL0     H82064   2.864   1.640   5.328  2.1656 -1.2146 -1.1965
  622MOL0     H82065   2.889   1.808   5.281 -1.2232 -1.3235 -0.8413
  622MOL0     H82066   2.673   1.813   5.277  1.1880  2.4440 -0.4351
  622MOL0     H82067   2.446   1.867   5.304  0.0395  0.8024 -0.7410
  622MOL0     H82068   2.070   2.107   5.540  0.7379 -0.9141 -0.8397
  622MOL0     H82069   1.825   2.126   5.646 -0.6789 -0.1986  2.0973
  622MOL0     H82070   1.705   1.884   6.000  1.2172  0.9601 -0.5043
  622MOL0     H82071   1.704   1.766   5.865 -1.0956 -0.0331 -1.4642
  622MOL0     H82072   1.495   1.772   5.953 -1.0119 -1.3537 -1.0332
  622MOL0     H82073   1.487   1.839   5.791 -0.0817  1.8502  0.4775
  622MOL0     H82074   1.509   2.077   5.917  1.7248 -0.7231  0.8790
  622MOL0     H82075   1.482   1.974   6.061  1.1139 -4.3280 -1.2060
  622MOL0     H82076   1.300   2.022   5.838 -0.7132  0.2814  0.5195
  622MOL0     H82077   1.289   1.873   5.955  3.3889  0.1385  1.7920
  622MOL0     H82078   1.260   2.035   6.140 -0.4381 -0.2821  0.5097
  622MOL0     H82079   1.135   2.039   6.024 -0.1149  1.2041 -1.2394
  622MOL0     H82080   1.279   2.253   5.937  0.1007  0.3328 -0.0305
  622MOL0     H82081   1.366   2.238   6.092 -2.4983  1.1769  3.0751
  622MOL0     H82082   1.171   2.387   6.085 -1.8249  1.4547  1.5017
  622MOL0     H82083   1.061   2.257   6.090  0.4103 -0.8864 -0.3528
  622MOL0     H82084   1.132   2.369   6.318  3.1808  2.5044 -0.1461
  622MOL0     H82085   1.291   2.302   6.292  1.2909 -3.6457 -1.7631
  622MOL0     H82086   1.925   1.820   5.916 -1.5780  1.0994 -0.5984
  622MOL0     H82087   2.160   1.809   5.828 -1.1062 -0.3507  4.4132
  622MOL0     H82088   2.490   1.826   5.730 -0.0032  2.6054  0.4695
  622MOL0     H82089   2.726   1.792   5.694  1.1499  2.7914  0.7321
  622MOL0     H82090   4.486   0.793   6.042 -0.4171 -0.5930 -0.6019
  622MOL0     H82091   4.689   0.744   5.895 -1.0729  0.2449  2.5450
  622MOL0     H82092   5.029   0.885   5.735 -2.3767  2.5575 -2.1839
  622MOL0     H82093   5.268   0.829   5.664 -0.0268  1.0985 -1.5591
  622MOL0     H82094   5.461   0.688   5.635  0.9027 -1.0508 -0.7478
  622MOL0     H82095   5.430   0.836   5.549  1.1042  0.1492 -0.2006
  622MOL0     H82096   5.570   0.761   5.365  4.4757  1.5476  0.0609
  622MOL0     H82097   5.656   0.779   5.520 -0.1343 -1.1109  1.0100
  622MOL0     H82098   5.558   0.528   5.395 -2.3540  1.0337  1.9532
  622MOL0     H82099   5.634   0.518   5.551  1.0322 -1.1851 -1.3273
  622MOL0     H82100   5.744   0.587   5.275 -2.4669 -1.4304  0.3833
  622MOL0     H82101   5.854   0.597   5.408  0.9634  0.3523 -3.4992
  622MOL0     H82102   5.846   0.187   5.324 -1.0490  0.4444 -3.9408
  622MOL0     H82103   5.128   0.575   5.363  1.6845 -2.8818  2.2081
  622MOL0     H82104   4.887   0.607   5.444  1.3160 -3.3120  1.8308
  623MOL0     O82105   7.459   1.113  10.723 -0.0670  0.3212 -0.3497
  623MOL0     C82106   7.492   1.021  10.797 -0.2279 -0.1004 -0.7131
  623MOL0     O82107   7.423   0.971  10.898 -0.8751 -0.2669 -0.3709
  623MOL0     C82108   7.281   0.991  10.907  0.3101  0.6599  0.4592
  623MOL0     C82109   7.195   1.043  10.815  0.1440 -0.7953 -0.7111
  623MOL0     C82110   7.059   1.047  10.842 -0.7137 -0.9515 -0.0916
  623MOL0     C82111   6.997   0.989  10.951 -0.5163 -0.2025 -0.6638
  623MOL0     O82112   6.860   1.004  10.976  0.3949  0.2430 -0.7787
  623MOL0     C82113   6.773   0.971  10.868 -0.1653 -0.3933 -0.2615
  623MOL0     C82114   6.714   1.075  10.785 -0.3162 -0.4763  0.4919
  623MOL0     C82115   6.579   1.128  10.845  0.1579 -0.1315 -0.5180
  623MOL0     C82116   6.511   1.252  10.770  0.4507 -0.1586 -0.0683
  623MOL0     C82117   6.392   1.319  10.846 -0.0484  0.4711 -0.4273
  623MOL0     C82118   6.275   1.227  10.880  0.7750  0.1603 -0.1761
  623MOL0     C82119   6.184   1.294  10.994  0.3731  0.0742 -0.2373
  623MOL0     C82120   6.068   1.382  10.942 -0.1413 -0.1404 -0.5322
  623MOL0     N82121   5.964   1.292  10.899  0.5471  0.4944 -0.6431
  623MOL0     C82122   5.883   1.208  10.972 -0.4366  0.0330 -0.2766
  623MOL0     C82123   5.821   1.126  10.891  0.3442 -0.2615 -0.4091
  623MOL0     C82124   5.727   1.016  10.945  0.8752 -0.5845  0.2864
  623MOL0     C82125   5.806   0.898  11.000 -0.3560 -0.0497 -0.4242
  623MOL0     C82126   5.842   0.907  11.152  0.3418 -1.3683  0.1392
  623MOL0     C82127   5.925   0.787  11.186  0.3609  0.6266  0.0188
  623MOL0     O82128   6.051   0.829  11.235  0.0717  0.4944  0.5109
  623MOL0     C82129   6.161   0.758  11.197  0.5659 -0.9581  0.6013
  623MOL0     C82130   6.160   0.620  11.161 -0.1326 -0.1709 -0.5720
  623MOL0     C82131   6.287   0.561  11.131 -0.3998 -0.4455 -0.7949
  623MOL0     C82132   6.399   0.651  11.104  0.0836  0.2212  0.8765
  623MOL0     C82133   6.519   0.600  11.031  0.5283 -0.2336 -0.5796
  623MOL0     O82134   6.503   0.476  10.963 -0.0196  0.2179  0.5456
  623MOL0     C82135   6.615   0.433  10.888  0.5493  0.2301  0.2516
  623MOL0     C82136   6.723   0.355  10.932  0.3538 -0.0171 -0.7399
  623MOL0     C82137   6.834   0.321  10.854  0.4263  0.2307  0.3033
  623MOL0     C82138   6.819   0.352  10.715  0.2218 -0.3734 -0.1547
  623MOL0     O82139   6.908   0.311  10.623 -0.1760 -0.1025 -0.4460
  623MOL0     C82140   7.040   0.283  10.664  0.1301 -0.1326  0.1424
  623MOL0     C82141   7.128   0.299  10.552 -0.0938  0.3320  0.2368
  623MOL0     C82142   7.097   0.216  10.425  0.5453  0.1915 -0.1976
  623MOL0     C82143   7.222   0.190  10.344 -0.8285 -0.5407  0.8431
  623MOL0     C82144   7.263   0.305  10.249 -0.3252  0.3050  0.3268
  623MOL0     C82145   7.380   0.278  10.154 -0.7234  0.6476 -0.0969
  623MOL0     C82146   7.367   0.149  10.063  0.3679 -1.0262  0.0427
  623MOL0     C82147   7.503   0.107  10.001  0.2453 -0.1380 -0.0202
  623MOL0    Cl82148   7.616   0.047  10.130  0.0385 -0.3613 -0.0591
  623MOL0     C82149   6.706   0.425  10.678 -0.0839 -1.4916  0.1620
  623MOL0     C82150   6.607   0.473  10.757 -1.1825  0.1685  0.0569
  623MOL0     O82151   6.610   0.685  11.014 -0.8308  0.7065  0.6753
  623MOL0     C82152   6.392   0.786  11.134 -1.3740 -0.7882  0.9407
  623MOL0     C82153   6.275   0.837  11.181 -1.2512 -0.2396  0.2870
  623MOL0     N82154   5.876   1.150  10.769  0.5732  1.0382  0.5817
  623MOL0     N82155   5.960   1.239  10.777 -0.6713  0.2171  0.4539
  623MOL0     C82156   7.081   0.951  11.053  0.0340  0.1896  0.0816
  623MOL0     C82157   7.220   0.944  11.028  0.1786  0.8252  0.1361
  623MOL0     C82158   7.648   0.977  10.809  0.0875 -0.0856  0.0510
  623MOL0     C82159   7.751   1.003  10.716 -0.6856  0.1599  0.3597
  623MOL0     C82160   7.877   0.953  10.732  0.1442 -0.5616 -1.0765
  623MOL0     C82161   7.912   0.871  10.838  1.2664  0.2568  0.8813
  623MOL0     O82162   8.038   0.827  10.854  0.6397  0.0853 -0.1150
  623MOL0     C82163   8.110   0.912  10.950  0.0930  0.7586 -0.6613
  623MOL0     C82164   8.258   0.931  10.913  0.2485 -1.0130  0.0789
  623MOL0     C82165   8.334   0.799  10.895  0.4894 -0.7561  0.8256
  623MOL0     C82166   8.474   0.819  10.847 -0.0192  0.6622 -0.5436
  623MOL0     C82167   8.485   0.878  10.711  0.4656 -1.0225 -0.3882
  623MOL0     C82168   8.477   0.918  10.595  0.2806  0.5682 -0.2213
  623MOL0     C82169   7.817   0.841  10.937  0.7373  0.1722  0.1140
  623MOL0     C82170   7.684   0.893  10.923  0.8515 -0.2658 -0.3632
  623MOL0     H82171   7.223   1.061  10.712  1.5287 -2.1829 -0.6110
  623MOL0     H82172   6.999   1.088  10.762 -1.2507 -0.9641  0.3024
  623MOL0     H82173   6.696   0.919  10.926  2.0116  0.0054  3.2589
  623MOL0     H82174   6.818   0.896  10.802 -2.6900 -1.5389 -0.8035
  623MOL0     H82175   6.694   1.042  10.683 -0.7612 -0.3290  0.5299
  623MOL0     H82176   6.794   1.150  10.776 -0.6746  0.2576  2.6755
  623MOL0     H82177   6.605   1.150  10.949 -0.8633  0.8705 -0.4556
  623MOL0     H82178   6.496   1.056  10.850  0.4665 -0.4535  0.1047
  623MOL0     H82179   6.592   1.325  10.758  0.3742 -0.4366 -3.3243
  623MOL0     H82180   6.467   1.219  10.675  1.1888  1.0381 -0.8551
  623MOL0     H82181   6.347   1.400  10.788  1.0168  1.8552  0.6221
  623MOL0     H82182   6.429   1.366  10.937 -2.1553  1.5766 -0.0861
  623MOL0     H82183   6.307   1.130  10.918 -0.8389  0.3450  1.7891
  623MOL0     H82184   6.224   1.195  10.789  0.7096 -0.0152 -0.0774
  623MOL0     H82185   6.139   1.211  11.050  2.5510 -1.0559 -0.0585
  623MOL0     H82186   6.238   1.356  11.065 -1.8350  2.2448 -0.3108
  623MOL0     H82187   6.090   1.458  10.866 -3.0143  1.4033  0.0308
  623MOL0     H82188   6.023   1.439  11.023 -0.0969 -1.5819  0.5443
  623MOL0     H82189   5.868   1.212  11.079 -0.0382 -4.4768  0.1229
  623MOL0     H82190   5.663   0.973  10.868 -0.4895  0.2541  0.9119
  623MOL0     H82191   5.646   1.051  11.010 -2.5895 -0.2415 -3.8048
  623MOL0     H82192   5.896   0.887  10.938  0.2048  1.1920  0.1435
  623MOL0     H82193   5.736   0.814  10.994 -1.2495  0.6228  0.2756
  623MOL0     H82194   5.886   1.001  11.188 -1.9303 -0.3461  0.4199
  623MOL0     H82195   5.746   0.897  11.202 -0.2162 -0.2832 -0.6776
  623MOL0     H82196   5.925   0.718  11.102  3.5281  3.9104 -3.0188
  623MOL0     H82197   5.884   0.737  11.275 -1.7699 -1.3363 -1.9204
  623MOL0     H82198   6.086   0.543  11.179  0.6842 -0.7571  0.4239
  623MOL0     H82199   6.282   0.453  11.120 -0.4016 -0.7846  1.9928
  623MOL0     H82200   6.702   0.322  11.034 -1.8243  1.7560 -0.5370
  623MOL0     H82201   6.917   0.272  10.904 -2.0833 -2.1569  2.4271
  623MOL0     H82202   7.050   0.178  10.695 -1.4622  0.5195  3.3426
  623MOL0     H82203   7.074   0.357  10.736 -0.5160  1.3269 -0.9979
  623MOL0     H82204   7.225   0.293  10.602  0.2661 -0.8552 -0.5487
  623MOL0     H82205   7.112   0.401  10.518  0.2997  0.7882  1.3625
  623MOL0     H82206   7.018   0.258  10.362  2.1263  0.9308 -1.7536
  623MOL0     H82207   7.063   0.119  10.463 -0.7343  2.2494  4.6993
  623MOL0     H82208   7.308   0.185  10.411  0.7543  1.0083 -0.9297
  623MOL0     H82209   7.212   0.103  10.279  3.0641  2.0497 -3.9330
  623MOL0     H82210   7.285   0.396  10.307  0.2256 -0.2554  1.0143
  623MOL0     H82211   7.176   0.318  10.184  0.9295  2.0612 -1.1221
  623MOL0     H82212   7.464   0.258  10.221 -2.7373 -2.7735  1.7259
  623MOL0     H82213   7.389   0.367  10.091 -0.4214  1.7682  1.4629
  623MOL0     H82214   7.311   0.064  10.104 -3.2675  0.2135 -1.9124
  623MOL0     H82215   7.292   0.184   9.991  0.4666  0.4189  0.6169
  623MOL0     H82216   7.539   0.198   9.951  0.2113 -1.9157 -3.6530
  623MOL0     H82217   7.492   0.029   9.925 -1.6903 -1.4018  1.4727
  623MOL0     H82218   6.696   0.451  10.573  0.6173 -1.7370  0.0297
  623MOL0     H82219   6.526   0.540  10.728 -1.6546  0.0717  1.1122
  623MOL0     H82220   6.470   0.854  11.102 -0.3020 -1.2630  2.4467
  623MOL0     H82221   6.266   0.943  11.201  0.2876  0.1122 -0.6787
  623MOL0     H82222   7.047   0.937  11.155 -1.6096  1.3044 -0.2712
  623MOL0     H82223   7.277   0.902  11.110 -5.6235 -1.4668  3.6432
  623MOL0     H82224   7.719   1.071  10.638 -0.6014  2.4790  2.2386
  623MOL0     H82225   7.963   0.992  10.679 -1.3777  0.1757 -3.0828
  623MOL0     H82226   8.116   0.861  11.046  1.7795  0.7721 -0.7258
  623MOL0     H82227   8.058   1.006  10.968 -1.5580  0.0687 -1.6357
  623MOL0     H82228   8.262   0.983  10.817 -1.2258  0.2293  0.6490
  623MOL0     H82229   8.302   0.993  10.992 -0.2702 -0.2403 -0.2298
  623MOL0     H82230   8.267   0.752  10.823 -1.6620  3.1577 -0.0276
  623MOL0     H82231   8.324   0.761  10.997  0.3692  0.4331  1.2648
  623MOL0     H82232   8.541   0.874  10.914  1.9480 -1.0198 -1.0232
  623MOL0     H82233   8.516   0.718  10.848  3.9328  2.1122  0.6574
  623MOL0     H82234   8.480   0.936  10.489  2.8903 -1.9129 -0.6979
  623MOL0     H82235   7.834   0.777  11.022 -0.7583  0.4295  0.6472
  623MOL0     H82236   7.609   0.867  10.997 -0.2488  0.9142 -1.0174
  624MOL0     O82237   1.082   0.368   9.659 -0.0550  0.4558  0.4035
  624MOL0     C82238   1.139   0.359   9.769 -0.2865 -0.2810 -0.6030
  624MOL0     O82239   1.104   0.432   9.877  0.0166  1.1913  0.2047
  624MOL0     C82240   0.980   0.492   9.878 -0.5130 -0.2527 -0.0513
  624MOL0     C82241   0.860   0.476   9.806 -0.0858  0.4128 -0.9540
  624MOL0     C82242   0.748   0.559   9.843  0.0466  0.1688  0.3892
  624MOL0     C82243   0.766   0.660   9.944 -0.4332 -0.3002 -0.0731
  624MOL0     O82244   0.658   0.742   9.983  0.0129 -0.2273 -0.8753
  624MOL0     C82245   0.543   0.764   9.895  0.0764 -0.3418 -0.3675
  624MOL0     C82246   0.417   0.833   9.963 -0.2875 -0.1285 -0.9139
  624MOL0     C82247   0.453   0.951  10.063 -0.3062 -0.1637 -0.9054
  624MOL0     C82248   0.328   1.027  10.112 -0.4706  0.5987  0.4175
  624MOL0     C82249   0.360   1.141  10.207 -0.0890 -0.9963  0.6312
  624MOL0     C82250   0.226   1.188  10.254  0.4076  1.2334 -0.7885
  624MOL0     C82251   0.233   1.306  10.344 -0.7509 -0.1619  0.9626
  624MOL0     C82252   0.277   1.441  10.280 -1.3680 -0.1504 -0.4867
  624MOL0     N82253   0.184   1.485  10.174  0.1402 -0.8045 -0.3044
  624MOL0     C82254   0.058   1.530  10.208 -0.4867 -0.1898  0.2220
  624MOL0     C82255   0.010   1.567  10.090 -0.0012 -0.0906  0.5483
  624MOL0     C82256  -0.127   1.610  10.061 -0.5906  0.8361  0.4546
  624MOL0     C82257  -0.143   1.749  10.117  0.9010  0.2221 -0.5045
  624MOL0     C82258  -0.296   1.766  10.133  0.2484  0.7846 -0.0502
  624MOL0     C82259  -0.322   1.892  10.208  0.0715 -0.5359 -0.6666
  624MOL0     O82260  -0.289   1.877  10.343  0.1816 -0.5758  0.7515
  624MOL0     C82261  -0.387   1.869  10.435  0.2817 -0.1029  0.9278
  624MOL0     C82262  -0.521   1.817  10.415  0.6611  0.2600 -1.2091
  624MOL0     C82263  -0.619   1.817  10.512  0.8236 -0.5945 -0.6649
  624MOL0     C82264  -0.583   1.868  10.641 -0.5884 -0.0177  1.2321
  624MOL0     C82265  -0.691   1.866  10.757  0.6011  0.2051 -0.3464
  624MOL0     O82266  -0.650   1.874  10.886  0.0574  0.2418 -0.0521
  624MOL0     C82267  -0.729   1.891  10.997 -0.2615 -1.4716 -0.2239
  624MOL0     C82268  -0.866   1.891  10.999  0.0037  0.3253 -0.2512
  624MOL0     C82269  -0.937   1.916  11.118 -0.5179 -0.6038  0.0392
  624MOL0     C82270  -0.867   1.964  11.233 -0.4358  0.2676  0.4201
  624MOL0     O82271  -0.949   1.991  11.348 -0.2409  0.1632  0.6195
  624MOL0     C82272  -0.908   1.941  11.479 -1.3267  0.0598  0.7096
  624MOL0     C82273  -1.017   1.840  11.521  1.0698 -0.5113  0.7113
  624MOL0     C82274  -1.156   1.898  11.536  0.1863  0.0226  1.0278
  624MOL0     C82275  -1.246   1.800  11.614  0.2891  0.2534 -0.2938
  624MOL0     C82276  -1.396   1.848  11.610 -0.5119 -0.4949 -0.4024
  624MOL0     C82277  -1.484   1.823  11.735 -1.2624  1.0878  0.8857
  624MOL0     C82278  -1.426   1.858  11.874  0.2262 -0.1753 -0.2714
  624MOL0     C82279  -1.375   1.997  11.874  0.6409 -1.5522  0.2167
  624MOL0    Cl82280  -1.341   2.039  12.048 -0.6655 -0.2668  0.3809
  624MOL0     C82281  -0.729   1.970  11.230  0.5119  0.5341 -0.4933
  624MOL0     C82282  -0.662   1.930  11.111 -0.2041 -0.0728 -0.1785
  624MOL0     O82283  -0.808   1.866  10.715 -0.3072  0.5399 -0.7317
  624MOL0     C82284  -0.458   1.923  10.661  0.1851 -0.5275  0.2956
  624MOL0     C82285  -0.358   1.918  10.566  0.0215  0.4599  0.8224
  624MOL0     N82286   0.101   1.535   9.987 -0.3384 -0.4092  0.1590
  624MOL0     N82287   0.203   1.476  10.042 -0.5478 -0.0810  0.1913
  624MOL0     C82288   0.882   0.663  10.016  0.8009 -0.5490 -1.1023
  624MOL0     C82289   0.980   0.578   9.991 -0.5332 -0.3344  0.2587
  624MOL0     C82290   1.261   0.274   9.787  0.3265  0.6050 -0.4747
  624MOL0     C82291   1.296   0.184   9.686  0.2735  0.0777  0.2408
  624MOL0     C82292   1.412   0.110   9.683 -0.3363 -0.0661 -1.2015
  624MOL0     C82293   1.500   0.128   9.794 -0.2388  1.0623 -0.0401
  624MOL0     O82294   1.625   0.058   9.783  1.0925  0.4051  0.6248
  624MOL0     C82295   1.714   0.055   9.894  0.4034 -0.0851 -0.0385
  624MOL0     C82296   1.843   0.005   9.848 -0.5096 -0.8928  0.8104
  624MOL0     C82297   1.928   0.126   9.772 -1.2691  0.7620  0.0183
  624MOL0     C82298   2.025   0.204   9.866  0.3395 -0.3398 -1.3308
  624MOL0     C82299   2.137   0.124   9.922  0.5651 -1.1859 -0.0393
  624MOL0     C82300   2.228   0.050   9.953  0.3588 -0.9547  0.2572
  624MOL0     C82301   1.466   0.203   9.907  0.2739  0.6661  0.2285
  624MOL0     C82302   1.343   0.275   9.896 -0.3334  0.3568 -0.2513
  624MOL0     H82303   0.856   0.392   9.737  0.5145 -1.3968  1.1102
  624MOL0     H82304   0.654   0.542   9.791  0.4511 -3.2284  0.5567
  624MOL0     H82305   0.503   0.672   9.852 -0.3106 -0.6124  0.5300
  624MOL0     H82306   0.573   0.840   9.823  0.3188  0.5394  0.6302
  624MOL0     H82307   0.370   0.767  10.037 -0.4331  1.1675  0.1919
  624MOL0     H82308   0.344   0.864   9.888  0.8890  0.2908 -1.9046
  624MOL0     H82309   0.507   1.029  10.008  1.4017  0.5673  1.6353
  624MOL0     H82310   0.518   0.920  10.145 -0.8706 -0.2363 -0.4839
  624MOL0     H82311   0.278   1.058  10.020 -0.6871 -1.7229 -0.3003
  624MOL0     H82312   0.266   0.948  10.155  0.2762  0.3204  1.0125
  624MOL0     H82313   0.421   1.216  10.156 -0.9611 -2.1086 -2.2238
  624MOL0     H82314   0.426   1.114  10.290  2.5404  2.7608  0.0337
  624MOL0     H82315   0.189   1.099  10.306  1.2134  1.6237  0.4942
  624MOL0     H82316   0.167   1.216  10.166  1.6082  3.5785 -0.9306
  624MOL0     H82317   0.139   1.330  10.395 -2.2036  0.2644 -1.7006
  624MOL0     H82318   0.313   1.286  10.415  1.1014  1.0682 -0.6908
  624MOL0     H82319   0.372   1.436  10.225 -1.2115  1.8958 -0.4795
  624MOL0     H82320   0.286   1.520  10.354 -0.0604  0.3859 -1.1771
  624MOL0     H82321   0.001   1.541  10.300 -0.6076 -3.1487  0.6098
  624MOL0     H82322  -0.197   1.536  10.102 -0.4923  0.3887 -0.1630
  624MOL0     H82323  -0.136   1.610   9.952  1.7981  2.6241  0.1773
  624MOL0     H82324  -0.101   1.823  10.049  1.4607  1.1969  0.8594
  624MOL0     H82325  -0.094   1.762  10.214 -0.2937  0.7991  0.0354
  624MOL0     H82326  -0.347   1.761  10.036  0.6041 -0.3475 -0.1910
  624MOL0     H82327  -0.338   1.681  10.187  1.1687 -0.7090 -1.5931
  624MOL0     H82328  -0.425   1.927  10.194  0.3297  2.1014  2.8330
  624MOL0     H82329  -0.259   1.968  10.162  0.9711 -2.5848 -3.0427
  624MOL0     H82330  -0.543   1.772  10.319  2.7720  1.6776 -2.4396
  624MOL0     H82331  -0.720   1.789  10.484  1.1710 -0.4168 -2.1538
  624MOL0     H82332  -0.921   1.831  10.927 -1.3528  0.3107  0.7482
  624MOL0     H82333  -1.039   1.882  11.130 -1.3519  1.4933 -0.8256
  624MOL0     H82334  -0.897   2.026  11.547  0.5853  2.4166 -2.2750
  624MOL0     H82335  -0.811   1.891  11.485 -0.0667  1.7697 -2.5893
  624MOL0     H82336  -0.978   1.799  11.615 -0.0139 -0.3951  1.2295
  624MOL0     H82337  -1.016   1.753  11.455  0.9114  0.6014 -0.8199
  624MOL0     H82338  -1.195   1.915  11.435 -1.8753  1.8597  2.0367
  624MOL0     H82339  -1.156   1.999  11.578  4.9907  1.6035 -1.9572
  624MOL0     H82340  -1.239   1.708  11.557  2.2105  2.4866 -4.0301
  624MOL0     H82341  -1.206   1.786  11.715 -0.8540  0.0845  0.1499
  624MOL0     H82342  -1.440   1.802  11.521  0.4996 -0.7723 -0.7593
  624MOL0     H82343  -1.387   1.955  11.586 -0.6901 -0.1371  1.0312
  624MOL0     H82344  -1.499   1.715  11.731 -1.9685  1.1467  1.5865
  624MOL0     H82345  -1.577   1.876  11.709 -1.3329  0.4779 -0.1397
  624MOL0     H82346  -1.496   1.852  11.957 -0.6338 -2.1201 -1.0672
  624MOL0     H82347  -1.352   1.788  11.915 -3.2292 -3.2270  1.2648
  624MOL0     H82348  -1.446   2.067  11.830 -0.1595 -0.8612  2.4536
  624MOL0     H82349  -1.285   2.004  11.812  0.4481 -0.1100  0.0763
  624MOL0     H82350  -0.683   2.008  11.321 -1.9935  1.0474  0.6454
  624MOL0     H82351  -0.554   1.934  11.121 -0.2581  1.0366  0.0840
  624MOL0     H82352  -0.442   1.979  10.752 -2.9524  1.6749 -0.3401
  624MOL0     H82353  -0.261   1.957  10.595 -0.7622  1.3548  2.4204
  624MOL0     H82354   0.892   0.738  10.094 -4.2010 -1.1479  0.4183
  624MOL0     H82355   1.072   0.579  10.050  1.4001 -1.2318 -2.5308
  624MOL0     H82356   1.222   0.186   9.606  0.0345 -2.4705  0.3106
  624MOL0     H82357   1.432   0.043   9.600 -0.2846  1.2826 -2.3021
  624MOL0     H82358   1.665  -0.001   9.975 -0.3874 -0.0781 -0.5090
  624MOL0     H82359   1.725   0.160   9.922  1.8725  0.0084 -0.8845
  624MOL0     H82360   1.906  -0.029   9.931  2.5656  0.2959 -0.8712
  624MOL0     H82361   1.821  -0.072   9.772 -1.8834 -0.1131  0.3776
  624MOL0     H82362   1.857   0.203   9.740 -0.1763  2.0166  0.5234
  624MOL0     H82363   1.982   0.091   9.683 -0.9595 -1.1325  0.9055
  624MOL0     H82364   2.071   0.295   9.827  0.6714 -0.5808 -1.5137
  624MOL0     H82365   1.968   0.253   9.945  2.8915 -3.1730  2.6963
  624MOL0     H82366   2.305  -0.012   9.994  1.0570 -0.1641  0.1728
  624MOL0     H82367   1.527   0.194   9.997  1.3608 -1.1457 -0.6242
  624MOL0     H82368   1.327   0.342   9.981  0.5084  1.2581 -0.7746
  625MOL0     O82369   6.429   6.128   6.891 -0.6645  0.2381  0.5388
  625MOL0     C82370   6.413   6.009   6.852  0.4262  0.2867  0.3082
  625MOL0     O82371   6.506   5.910   6.841  0.1595 -0.3653  0.5023
  625MOL0     C82372   6.633   5.932   6.876 -0.8622 -0.6690 -0.3674
  625MOL0     C82373   6.703   6.047   6.839  0.2932  0.3942  0.4849
  625MOL0     C82374   6.833   6.061   6.890  0.4706  0.4969 -0.5712
  625MOL0     C82375   6.890   5.975   6.986  1.2637 -0.0471 -0.3029
  625MOL0     O82376   7.005   5.987   7.058 -0.1233 -0.5984 -0.3259
  625MOL0     C82377   7.079   6.115   7.046 -0.7369  0.0721 -0.7984
  625MOL0     C82378   7.220   6.104   7.117  0.5992 -0.4865 -0.4745
  625MOL0     C82379   7.335   6.034   7.038  0.2927  0.0898  0.4144
  625MOL0     C82380   7.458   6.016   7.127 -0.1172 -0.5152 -0.9181
  625MOL0     C82381   7.581   6.001   7.033 -0.2576 -0.9087  0.6042
  625MOL0     C82382   7.698   5.957   7.125  0.0888  0.5211 -0.2583
  625MOL0     C82383   7.838   5.941   7.055  0.3376  0.3309  0.2415
  625MOL0     C82384   7.943   5.903   7.160 -0.3945  0.3438  0.5495
  625MOL0     N82385   8.064   5.848   7.097  0.1960  0.6125 -0.8190
  625MOL0     C82386   8.186   5.912   7.099 -0.2626  0.7335  1.1617
  625MOL0     C82387   8.269   5.808   7.064  0.0637 -0.3856  0.3859
  625MOL0     C82388   8.420   5.817   7.055  0.4031  0.2054 -0.3561
  625MOL0     C82389   8.475   5.885   7.177 -0.3435 -0.6204  0.6735
  625MOL0     C82390   8.469   5.789   7.295  0.1302 -0.7740  0.0008
  625MOL0     C82391   8.465   5.874   7.431 -0.7978 -0.3704 -0.2891
  625MOL0     O82392   8.362   5.973   7.434  0.4891  0.6632 -0.5886
  625MOL0     C82393   8.239   5.917   7.464 -0.0175 -0.1336 -0.2116
  625MOL0     C82394   8.221   5.779   7.507  0.6010 -0.4038  0.4966
  625MOL0     C82395   8.092   5.736   7.541  0.3433 -0.6850 -0.1673
  625MOL0     C82396   7.977   5.810   7.522  0.2038  0.5408  0.0360
  625MOL0     C82397   7.846   5.742   7.552  0.6670  0.7847  1.3669
  625MOL0     O82398   7.739   5.816   7.533  0.4798  0.8015  0.1201
  625MOL0     C82399   7.615   5.787   7.572  1.2112 -0.4179  0.9347
  625MOL0     C82400   7.516   5.830   7.486 -0.6296  0.5604  0.9176
  625MOL0     C82401   7.381   5.814   7.529 -0.3982 -0.4757  0.9919
  625MOL0     C82402   7.338   5.757   7.644 -0.3299  0.5721 -0.2892
  625MOL0     O82403   7.199   5.751   7.664 -0.4485 -0.0990 -0.4444
  625MOL0     C82404   7.147   5.662   7.763 -0.5503 -0.2681  0.5550
  625MOL0     C82405   6.999   5.662   7.747 -0.0805 -0.4491  0.1270
  625MOL0     C82406   6.941   5.810   7.778  0.8809  0.7727  0.6639
  625MOL0     C82407   6.801   5.825   7.796 -0.5836 -0.8141 -0.8939
  625MOL0     C82408   6.744   5.727   7.893 -0.5336  0.1417  0.1911
  625MOL0     C82409   6.603   5.764   7.936 -0.4316 -0.0843 -0.1112
  625MOL0     C82410   6.561   5.693   8.056 -0.2466 -0.6527 -0.5954
  625MOL0     C82411   6.413   5.670   8.055  0.1187 -0.0319  0.1723
  625MOL0    Cl82412   6.330   5.829   8.027  0.3683  0.0600 -0.3723
  625MOL0     C82413   7.443   5.704   7.727 -0.5717 -0.3164 -0.5533
  625MOL0     C82414   7.581   5.717   7.689 -0.1202 -0.1573 -0.9045
  625MOL0     O82415   7.842   5.628   7.586 -0.0116  0.8791  0.1177
  625MOL0     C82416   7.989   5.945   7.469  0.4313  0.6629 -0.0873
  625MOL0     C82417   8.114   5.994   7.443 -1.0872 -0.2268 -0.0896
  625MOL0     N82418   8.188   5.696   7.049  0.1625  0.2416 -0.0812
  625MOL0     N82419   8.065   5.715   7.088  0.1180 -0.2515  0.1385
  625MOL0     C82420   6.816   5.869   7.017  1.1722  1.0606 -1.3049
  625MOL0     C82421   6.689   5.839   6.967  0.0671  0.8854  0.1078
  625MOL0     C82422   6.272   5.984   6.823 -0.2241  0.8546  0.3433
  625MOL0     C82423   6.162   6.050   6.872  0.0115  0.3142 -0.0196
  625MOL0     C82424   6.028   6.019   6.837  0.8408  0.2749  0.3638
  625MOL0     C82425   5.998   5.915   6.746  0.5515 -0.7490 -0.8805
  625MOL0     O82426   5.871   5.877   6.733  0.4214  0.7337 -0.2337
  625MOL0     C82427   5.814   5.829   6.606  0.9136 -0.9375  0.1167
  625MOL0     C82428   5.851   5.912   6.481  0.5126 -0.0464 -0.1614
  625MOL0     C82429   5.799   6.052   6.493 -0.6767  0.4584  0.1609
  625MOL0     C82430   5.774   6.118   6.361 -0.4263  0.3783 -0.0919
  625MOL0     C82431   5.719   6.247   6.390 -0.0092  0.0923  0.7962
  625MOL0     C82432   5.676   6.362   6.397 -0.7235  0.5417 -0.0450
  625MOL0     C82433   6.105   5.842   6.689  0.3492  0.4262 -0.5693
  625MOL0     C82434   6.236   5.874   6.730 -0.7994  0.4698 -0.6081
  625MOL0     H82435   6.651   6.124   6.784 -4.7592 -2.8618  0.0131
  625MOL0     H82436   6.878   6.158   6.875  0.2593  0.3485 -2.3028
  625MOL0     H82437   7.018   6.196   7.089 -1.1731  0.0210 -1.3057
  625MOL0     H82438   7.102   6.144   6.943 -1.7005  2.3764 -0.4293
  625MOL0     H82439   7.193   6.049   7.207  0.2938  0.6550  0.1537
  625MOL0     H82440   7.256   6.205   7.140  0.8454 -0.9195  1.1004
  625MOL0     H82441   7.361   6.102   6.956 -0.2192  1.7048  1.5431
  625MOL0     H82442   7.281   5.949   6.996 -2.9592  3.1620 -2.2125
  625MOL0     H82443   7.469   6.104   7.190 -3.1798 -0.9683  0.4354
  625MOL0     H82444   7.439   5.933   7.195  1.5250 -0.4550 -0.3478
  625MOL0     H82445   7.603   6.093   6.978 -1.2581 -1.0818 -0.1247
  625MOL0     H82446   7.559   5.924   6.958  0.0792 -0.8504  0.4460
  625MOL0     H82447   7.662   5.860   7.161 -4.5483 -0.1702 -5.3623
  625MOL0     H82448   7.715   6.018   7.214  0.6961  2.0614 -1.3892
  625MOL0     H82449   7.824   5.860   6.983  2.4663 -1.3428  1.5796
  625MOL0     H82450   7.860   6.036   7.006 -0.9610  1.2283  1.3508
  625MOL0     H82451   7.897   5.829   7.227  1.1436  0.4781  1.8079
  625MOL0     H82452   7.972   5.993   7.215 -0.7906  0.2118  0.9834
  625MOL0     H82453   8.224   6.013   7.113  0.0105  0.4721  2.3782
  625MOL0     H82454   8.450   5.867   6.962  0.6859 -2.2509 -1.6548
  625MOL0     H82455   8.455   5.715   7.043 -1.9341 -0.5283 -1.6404
  625MOL0     H82456   8.419   5.978   7.188 -1.4422 -1.1855 -0.0835
  625MOL0     H82457   8.580   5.911   7.160 -0.9056  0.2330 -1.8641
  625MOL0     H82458   8.378   5.728   7.290  0.1107 -0.6720 -2.4313
  625MOL0     H82459   8.557   5.724   7.301  0.9165  0.3299  0.7092
  625MOL0     H82460   8.556   5.935   7.431 -1.5011  0.8646 -3.2209
  625MOL0     H82461   8.477   5.797   7.508  2.7715 -2.0473 -2.2975
  625MOL0     H82462   8.297   5.704   7.525  1.4433 -0.0172 -1.2681
  625MOL0     H82463   8.094   5.633   7.573 -1.3588 -1.2702 -1.7488
  625MOL0     H82464   7.541   5.863   7.386 -1.7872 -2.1165 -0.3372
  625MOL0     H82465   7.311   5.859   7.459  1.6585  0.4226 -0.5970
  625MOL0     H82466   7.183   5.687   7.864  0.2705  1.0643 -0.0380
  625MOL0     H82467   7.187   5.565   7.732  0.4172  0.9594 -2.2980
  625MOL0     H82468   6.964   5.579   7.809  1.5503 -0.9161  0.4536
  625MOL0     H82469   6.981   5.623   7.646  1.4322  1.0866 -0.7737
  625MOL0     H82470   6.977   5.878   7.700 -0.6814 -0.9708 -1.7048
  625MOL0     H82471   6.979   5.846   7.874 -0.2711  1.2409  0.9635
  625MOL0     H82472   6.778   5.928   7.826  0.1514 -0.8452 -0.1868
  625MOL0     H82473   6.750   5.813   7.700 -0.4869 -0.5252 -0.9840
  625MOL0     H82474   6.809   5.713   7.979 -0.3037  1.5281  0.2512
  625MOL0     H82475   6.734   5.627   7.849  0.8291 -1.0443  2.4367
  625MOL0     H82476   6.533   5.740   7.855  0.4160  0.6877 -1.0888
  625MOL0     H82477   6.600   5.872   7.954 -2.6953 -0.7463  5.6164
  625MOL0     H82478   6.614   5.598   8.064 -1.5882 -1.6102 -2.3972
  625MOL0     H82479   6.595   5.755   8.139 -0.8235 -1.7639  0.5120
  625MOL0     H82480   6.380   5.624   8.149 -4.0101  1.9061 -0.1087
  625MOL0     H82481   6.384   5.598   7.977 -2.6312 -1.2919  2.1997
  625MOL0     H82482   7.420   5.657   7.823 -0.8332  0.1690 -0.3753
  625MOL0     H82483   7.660   5.680   7.752 -0.9139 -3.0939 -1.4955
  625MOL0     H82484   7.904   6.010   7.451 -1.0100 -0.7930  1.2363
  625MOL0     H82485   8.113   6.092   7.396  1.4741 -0.0608  0.0446
  625MOL0     H82486   6.855   5.789   7.079  0.6528 -0.4908 -2.9018
  625MOL0     H82487   6.624   5.754   6.990  0.9114 -0.1212 -1.0840
  625MOL0     H82488   6.192   6.136   6.931 -1.2790  2.1115 -1.8716
  625MOL0     H82489   5.951   6.064   6.900  0.5097 -2.2939  1.9494
  625MOL0     H82490   5.706   5.814   6.608  0.8911 -1.2737 -1.5146
  625MOL0     H82491   5.840   5.725   6.586  1.7044 -0.8830  0.7997
  625MOL0     H82492   5.960   5.901   6.479  0.6608  1.3537 -0.2517
  625MOL0     H82493   5.812   5.865   6.390  2.7845  1.8355 -2.2419
  625MOL0     H82494   5.875   6.114   6.542 -0.3107  0.8293 -0.8423
  625MOL0     H82495   5.702   6.043   6.543  0.1522 -3.4872  1.3741
  625MOL0     H82496   5.863   6.118   6.297  2.1731  2.5604  3.1688
  625MOL0     H82497   5.707   6.050   6.308 -2.6341 -0.1833  3.1106
  625MOL0     H82498   5.647   6.461   6.426  0.1438 -0.2135  3.9500
  625MOL0     H82499   6.089   5.769   6.611 -4.0825 -0.5236  0.9574
  625MOL0     H82500   6.318   5.814   6.690 -0.1536 -0.4249  1.8369
  626MOL0     O82501   4.008   6.352   1.127 -0.1434  0.3852 -0.9398
  626MOL0     C82502   4.036   6.232   1.115 -0.6847 -0.3519 -1.0398
  626MOL0     O82503   3.953   6.130   1.104  0.6460  0.0922 -0.3234
  626MOL0     C82504   3.827   6.168   1.083 -0.2805 -0.5365  0.4155
  626MOL0     C82505   3.736   6.182   1.190 -0.6392  0.7032  0.8252
  626MOL0     C82506   3.608   6.237   1.161 -0.4737  0.3014  1.1378
  626MOL0     C82507   3.565   6.250   1.025  0.2201  0.0653 -0.4037
  626MOL0     O82508   3.447   6.318   0.991 -0.4824  0.3888  0.0931
  626MOL0     C82509   3.408   6.420   1.084  0.9102  0.4619  0.1620
  626MOL0     C82510   3.317   6.522   1.021  0.2117  1.0283 -0.7693
  626MOL0     C82511   3.164   6.488   1.021  0.6424  1.0619 -0.3691
  626MOL0     C82512   3.095   6.499   1.158 -0.9788  0.3439  0.1966
  626MOL0     C82513   2.958   6.438   1.167 -0.1296  0.2226  0.3785
  626MOL0     C82514   2.917   6.394   1.308  0.1319 -0.1525 -0.3131
  626MOL0     C82515   2.812   6.281   1.323 -1.0720 -0.2314  0.2634
  626MOL0     C82516   2.673   6.342   1.309 -0.3808 -0.5242  0.1740
  626MOL0     N82517   2.578   6.235   1.340  0.6559 -0.2244  0.0823
  626MOL0     C82518   2.521   6.157   1.245 -0.1560  0.3530  0.1181
  626MOL0     C82519   2.439   6.065   1.305 -1.0274  0.5363  0.1326
  626MOL0     C82520   2.371   5.956   1.234 -0.0074 -0.7235  0.4839
  626MOL0     C82521   2.244   5.997   1.165 -0.1977 -0.1167  0.0212
  626MOL0     C82522   2.175   5.892   1.085  0.0760  0.1555 -0.1486
  626MOL0     C82523   2.048   5.958   1.019 -0.0179  0.3782  0.5791
  626MOL0     O82524   1.986   5.856   0.946  0.3921  0.2634  0.3656
  626MOL0     C82525   1.864   5.881   0.888  0.4976 -0.4798 -0.5031
  626MOL0     C82526   1.760   5.791   0.885  0.2016  0.8133 -0.4739
  626MOL0     C82527   1.642   5.803   0.823 -0.4007  0.1351  0.1964
  626MOL0     C82528   1.635   5.918   0.734 -1.0481  0.5965 -0.8001
  626MOL0     C82529   1.517   5.936   0.648  0.8403  0.3351 -0.7785
  626MOL0     O82530   1.405   5.872   0.700 -0.3869 -0.6194  0.7648
  626MOL0     C82531   1.294   5.871   0.620  0.5706  0.0804  0.0115
  626MOL0     C82532   1.224   5.749   0.611  0.1670  0.4740  0.1093
  626MOL0     C82533   1.110   5.739   0.534  0.2892  0.8102 -0.3532
  626MOL0     C82534   1.044   5.858   0.480 -0.1755  0.0385 -0.7545
  626MOL0     O82535   0.931   5.834   0.412  0.1728  0.7769 -0.1540
  626MOL0     C82536   0.912   5.936   0.307 -0.0273  0.6652 -0.0849
  626MOL0     C82537   0.823   5.878   0.198  0.8437  0.1734  0.9601
  626MOL0     C82538   0.725   5.981   0.138  1.1885  0.9031  0.3466
  626MOL0     C82539   0.627   5.907   0.042  0.2275 -0.3918 -0.7897
  626MOL0     C82540   0.546   5.999  -0.048  0.6260  0.6198  1.3534
  626MOL0     C82541   0.493   6.116   0.037  0.1197 -0.4990 -0.1732
  626MOL0     C82542   0.431   6.230  -0.042 -0.3983  0.5338 -0.2582
  626MOL0     C82543   0.374   6.336   0.052 -0.0476  0.0530 -0.3259
  626MOL0    Cl82544   0.308   6.471  -0.041 -0.0820  0.1647 -0.3327
  626MOL0     C82545   1.105   5.985   0.510  0.6975 -0.8444 -0.3562
  626MOL0     C82546   1.232   5.989   0.570  0.3256 -0.1764  0.3403
  626MOL0     O82547   1.523   6.002   0.548  0.0566 -0.4811  0.4012
  626MOL0     C82548   1.745   6.007   0.725 -0.5153 -0.1262  0.7477
  626MOL0     C82549   1.851   5.995   0.815 -0.2135  0.1071  0.6917
  626MOL0     N82550   2.449   6.080   1.444 -0.5129 -0.2693  0.5022
  626MOL0     N82551   2.528   6.183   1.458 -1.1471 -0.6337 -0.4753
  626MOL0     C82552   3.654   6.220   0.922  0.0050 -0.0685  0.0744
  626MOL0     C82553   3.787   6.180   0.951 -0.2027 -0.4481 -0.0813
  626MOL0     C82554   4.184   6.208   1.110 -0.1286 -0.3200 -0.3338
  626MOL0     C82555   4.237   6.083   1.071  0.3161  0.5270 -0.0114
  626MOL0     C82556   4.370   6.069   1.037 -0.2609  0.5498 -0.5381
  626MOL0     C82557   4.467   6.169   1.042 -0.2008  0.1241  0.3848
  626MOL0     O82558   4.604   6.156   1.044 -0.0398 -0.2879 -0.5601
  626MOL0     C82559   4.653   6.033   1.017 -0.9762 -0.1117  0.0549
  626MOL0     C82560   4.804   6.008   1.065  0.6076  0.2194  0.7035
  626MOL0     C82561   4.878   6.122   1.007 -0.4481  0.6855 -0.2956
  626MOL0     C82562   5.027   6.098   1.013  0.6331  0.7935 -0.1211
  626MOL0     C82563   5.056   6.102   1.154  0.1191 -0.8889 -0.0024
  626MOL0     C82564   5.093   6.106   1.263  0.3420  0.0816  0.3015
  626MOL0     C82565   4.412   6.288   1.091 -0.5507 -0.2719  0.5547
  626MOL0     C82566   4.273   6.314   1.132 -0.8815  1.1447  0.5060
  626MOL0     H82567   3.772   6.161   1.290  1.4043  0.5310  0.0992
  626MOL0     H82568   3.529   6.259   1.232 -2.1501 -2.2623  0.2033
  626MOL0     H82569   3.499   6.473   1.114  1.0276 -0.7434  2.0861
  626MOL0     H82570   3.361   6.375   1.171 -1.9971  0.5625 -1.2387
  626MOL0     H82571   3.354   6.546   0.921  1.6090 -2.0779 -1.1046
  626MOL0     H82572   3.324   6.620   1.069  1.5620  0.4571  0.2636
  626MOL0     H82573   3.152   6.382   1.000 -0.8436  1.0280  0.4987
  626MOL0     H82574   3.106   6.539   0.944 -0.1119  1.1604  0.2445
  626MOL0     H82575   3.154   6.437   1.226 -3.9258 -1.5215  1.2984
  626MOL0     H82576   3.100   6.603   1.191  2.0076  1.1479 -2.3581
  626MOL0     H82577   2.958   6.345   1.110 -2.6448  0.5307 -0.2756
  626MOL0     H82578   2.880   6.506   1.130  0.0842 -1.6543 -4.1078
  626MOL0     H82579   2.896   6.482   1.369 -0.3241 -0.0680 -0.5835
  626MOL0     H82580   3.005   6.348   1.352  0.4802  0.8321  0.0334
  626MOL0     H82581   2.836   6.204   1.249 -2.0247 -1.0758  0.8254
  626MOL0     H82582   2.814   6.240   1.424  1.1389  4.8807  2.6912
  626MOL0     H82583   2.650   6.385   1.211  0.6543 -0.6391 -0.1322
  626MOL0     H82584   2.660   6.426   1.378  1.7935 -1.5106  1.9056
  626MOL0     H82585   2.532   6.169   1.138 -3.7141  1.7371 -0.2295
  626MOL0     H82586   2.332   5.897   1.317  0.5654 -1.0271  0.5369
  626MOL0     H82587   2.427   5.898   1.160 -1.1860 -4.9245  2.6189
  626MOL0     H82588   2.273   6.071   1.089 -1.9226  2.0313  1.3244
  626MOL0     H82589   2.176   6.039   1.240 -0.8846 -2.1595  0.6147
  626MOL0     H82590   2.246   5.833   1.026  0.6983 -2.7374  3.1020
  626MOL0     H82591   2.125   5.834   1.164 -1.4058  3.7501  1.7824
  626MOL0     H82592   2.082   6.045   0.962  0.0879  0.8442  1.3328
  626MOL0     H82593   1.973   5.981   1.095 -0.0870 -1.6514  1.1911
  626MOL0     H82594   1.773   5.710   0.956  1.0388 -0.5367 -2.0904
  626MOL0     H82595   1.569   5.723   0.822  0.7353 -1.1139 -3.6178
  626MOL0     H82596   1.264   5.659   0.657 -1.7439 -1.0718 -1.1066
  626MOL0     H82597   1.064   5.642   0.522  0.0685  1.1674 -3.4323
  626MOL0     H82598   1.008   5.964   0.263  1.2219  0.0359  2.1017
  626MOL0     H82599   0.872   6.023   0.359  0.2458  0.1128  1.0731
  626MOL0     H82600   0.764   5.804   0.254  0.5085 -0.2987  0.0014
  626MOL0     H82601   0.875   5.822   0.120 -1.0667 -0.7013  0.2537
  626MOL0     H82602   0.770   6.069   0.091 -1.4798  1.4584 -1.3396
  626MOL0     H82603   0.664   6.025   0.218  0.6577  1.7843 -0.5271
  626MOL0     H82604   0.685   5.833  -0.013  1.7204 -1.0687  1.5307
  626MOL0     H82605   0.570   5.841   0.108  0.0136  0.6804  0.1400
  626MOL0     H82606   0.476   5.938  -0.104  0.2296  0.7474  1.7019
  626MOL0     H82607   0.616   6.035  -0.124  1.8427  2.5307  3.2324
  626MOL0     H82608   0.578   6.164   0.088  0.9896 -1.3190 -0.8209
  626MOL0     H82609   0.418   6.086   0.111 -1.7128 -0.6994 -2.0199
  626MOL0     H82610   0.504   6.275  -0.111 -0.2466 -1.1267 -1.2358
  626MOL0     H82611   0.344   6.198  -0.099 -1.4696  3.2284 -0.2834
  626MOL0     H82612   0.444   6.364   0.131 -1.6532 -0.2421  1.2740
  626MOL0     H82613   0.286   6.293   0.100 -1.3665  3.0960  0.2350
  626MOL0     H82614   1.056   6.072   0.469  2.1715 -1.3003 -3.2758
  626MOL0     H82615   1.290   6.079   0.582  1.9393 -1.1186 -0.1476
  626MOL0     H82616   1.736   6.084   0.649  2.5990 -0.9779 -0.6680
  626MOL0     H82617   1.929   6.071   0.825  1.6949 -1.4262 -1.4677
  626MOL0     H82618   3.634   6.241   0.817  1.9705  0.1317 -0.3112
  626MOL0     H82619   3.855   6.157   0.870 -1.2481 -2.0681 -0.5550
  626MOL0     H82620   4.184   5.988   1.071 -0.8497  1.1486 -0.9829
  626MOL0     H82621   4.394   5.968   1.008  0.0256 -0.1007  1.7879
  626MOL0     H82622   4.649   6.009   0.910  0.4861  0.8830 -0.2481
  626MOL0     H82623   4.598   5.953   1.068  1.0511 -2.1350 -0.7569
  626MOL0     H82624   4.819   6.030   1.172  1.0536  2.5479  0.2184
  626MOL0     H82625   4.837   5.911   1.029 -1.0895  0.3745 -1.4460
  626MOL0     H82626   4.857   6.218   1.054  3.4424  1.9599 -0.8149
  626MOL0     H82627   4.857   6.121   0.900 -3.0840 -1.4249  0.1479
  626MOL0     H82628   5.049   6.006   0.958  2.6126  2.3423 -2.1171
  626MOL0     H82629   5.079   6.177   0.959 -1.6462  3.5343  1.4042
  626MOL0     H82630   5.139   6.107   1.361  2.7935  0.1377 -0.7683
  626MOL0     H82631   4.476   6.370   1.120 -0.0207  0.9666 -3.5248
  626MOL0     H82632   4.245   6.416   1.155 -1.4028  0.9039  0.9562
  627MOL0     O82633   0.395   6.387   4.825 -0.1572 -0.2825 -0.3008
  627MOL0     C82634   0.496   6.372   4.891  0.5039  0.0737  0.0175
  627MOL0     O82635   0.562   6.467   4.952  0.3140 -1.5359 -0.5350
  627MOL0     C82636   0.499   6.595   4.957  0.4081  1.0670 -0.6337
  627MOL0     C82637   0.449   6.666   4.847  0.2479 -0.0795  0.9310
  627MOL0     C82638   0.388   6.792   4.856 -0.2306 -0.2813  0.4689
  627MOL0     C82639   0.368   6.849   4.982 -0.6884 -0.9565 -0.3081
  627MOL0     O82640   0.299   6.965   5.014  0.2552 -0.1680 -0.1173
  627MOL0     C82641   0.234   7.033   4.899  0.1749  0.4886 -0.0977
  627MOL0     C82642   0.327   7.114   4.810 -0.2673 -1.2013  0.2676
  627MOL0     C82643   0.409   7.228   4.873 -0.6292 -0.1163  0.1527
  627MOL0     C82644   0.497   7.309   4.780  0.6602  0.8470  0.0257
  627MOL0     C82645   0.609   7.383   4.861  0.4596 -0.5287 -0.7037
  627MOL0     C82646   0.678   7.489   4.774  0.3875 -0.0111 -0.1155
  627MOL0     C82647   0.802   7.536   4.842 -0.0254 -0.1684 -0.4752
  627MOL0     C82648   0.877   7.644   4.750 -0.2177 -0.1764  0.0554
  627MOL0     N82649   0.881   7.624   4.602 -0.3907 -0.8139 -0.3556
  627MOL0     C82650   0.798   7.685   4.511  0.3813  0.1107  0.2539
  627MOL0     C82651   0.807   7.607   4.406 -0.2934 -0.0562  0.2234
  627MOL0     C82652   0.733   7.648   4.286 -0.4343 -0.0850  0.6664
  627MOL0     C82653   0.609   7.555   4.263  0.3210 -0.1046  0.0292
  627MOL0     C82654   0.513   7.556   4.380  0.0901  0.0347  0.5839
  627MOL0     C82655   0.368   7.503   4.352  0.1213 -0.0079 -1.5830
  627MOL0     O82656   0.291   7.487   4.486 -1.0529  0.4225  0.6950
  627MOL0     C82657   0.236   7.600   4.542 -0.7794  0.7885 -0.5124
  627MOL0     C82658   0.256   7.733   4.506  0.7264 -0.5319  0.4981
  627MOL0     C82659   0.209   7.840   4.579 -0.4701 -0.7596 -0.5794
  627MOL0     C82660   0.113   7.820   4.684 -0.0703  0.5068  0.6266
  627MOL0     C82661   0.033   7.921   4.753 -0.2699  0.4091  0.5452
  627MOL0     O82662  -0.004   7.894   4.880  1.1519 -0.3320 -0.4760
  627MOL0     C82663  -0.052   7.994   4.962 -0.1442  0.2597 -0.3135
  627MOL0     C82664   0.006   7.998   5.093  0.4495 -0.1561  0.0211
  627MOL0     C82665  -0.031   8.092   5.183  0.4228  0.1659  0.2344
  627MOL0     C82666  -0.138   8.191   5.156 -0.1063  0.7483  0.1827
  627MOL0     O82667  -0.185   8.297   5.233  0.3829  0.1531 -0.2976
  627MOL0     C82668  -0.110   8.317   5.357 -0.3024  0.3280 -0.2381
  627MOL0     C82669  -0.142   8.454   5.421  0.0919 -0.3226 -0.6053
  627MOL0     C82670  -0.044   8.480   5.522  0.4299 -0.2009 -0.8809
  627MOL0     C82671  -0.072   8.615   5.587  0.3374  0.9474  0.8177
  627MOL0     C82672  -0.052   8.610   5.736  0.3308 -0.1593 -0.6507
  627MOL0     C82673  -0.143   8.713   5.802 -0.1731 -1.1300 -0.5284
  627MOL0     C82674  -0.128   8.735   5.951 -0.7937  0.3440 -0.6559
  627MOL0     C82675  -0.255   8.757   6.013  0.9566  0.0503  0.1981
  627MOL0    Cl82676  -0.236   8.821   6.179  0.0690  0.0003 -0.3096
  627MOL0     C82677  -0.204   8.181   5.029  0.0461  0.4465 -0.5357
  627MOL0     C82678  -0.159   8.086   4.935 -0.8416  0.4185  0.0147
  627MOL0     O82679   0.008   8.030   4.697 -0.0847 -0.4824 -0.0933
  627MOL0     C82680   0.109   7.684   4.732 -1.0786  0.9889  0.1668
  627MOL0     C82681   0.163   7.568   4.659  0.3507 -0.6355  0.0111
  627MOL0     N82682   0.900   7.508   4.429 -0.5357  0.2524 -0.4609
  627MOL0     N82683   0.949   7.524   4.539 -0.4756 -0.6695  0.6887
  627MOL0     C82684   0.432   6.790   5.093  0.2336 -0.0767  0.1882
  627MOL0     C82685   0.491   6.662   5.076  0.1964 -0.3883 -0.2025
  627MOL0     C82686   0.549   6.231   4.908  1.0496  0.6015 -0.3041
  627MOL0     C82687   0.495   6.127   4.832  0.6770  0.1267 -0.4031
  627MOL0     C82688   0.540   5.998   4.843  0.3512  0.2304 -0.5078
  627MOL0     C82689   0.626   5.966   4.948  0.4667  0.7558 -0.3936
  627MOL0     O82690   0.694   5.842   4.956  1.0308 -0.3338 -0.1059
  627MOL0     C82691   0.671   5.734   4.864  0.4649  1.6017  0.0845
  627MOL0     C82692   0.795   5.647   4.870 -0.0741 -0.4138 -0.4860
  627MOL0     C82693   0.807   5.585   5.013 -0.0115  0.3728 -0.2679
  627MOL0     C82694   0.942   5.521   5.035  0.4653  0.6203 -0.4098
  627MOL0     C82695   1.044   5.617   5.058  0.2110  0.4006  0.5964
  627MOL0     C82696   1.127   5.702   5.059 -0.3841  0.3579 -0.6642
  627MOL0     C82697   0.674   6.063   5.030  0.0506 -0.9801  0.2783
  627MOL0     C82698   0.630   6.198   5.016  0.3724 -0.0413  0.9338
  627MOL0     H82699   0.459   6.629   4.745  1.0632  1.0642  0.5787
  627MOL0     H82700   0.369   6.839   4.760  3.4695  0.7001  0.0604
  627MOL0     H82701   0.160   7.104   4.939 -0.1501 -0.1281  0.4078
  627MOL0     H82702   0.184   6.958   4.837 -2.6921 -0.5294  3.1176
  627MOL0     H82703   0.254   7.156   4.740  3.1581  2.8058 -1.2782
  627MOL0     H82704   0.396   7.041   4.767  0.2952 -1.3154  1.3334
  627MOL0     H82705   0.467   7.195   4.960  2.4021  1.5014 -1.0892
  627MOL0     H82706   0.337   7.295   4.922 -1.5076 -1.2907  0.5045
  627MOL0     H82707   0.535   7.238   4.705 -2.7703 -0.8837 -0.2927
  627MOL0     H82708   0.449   7.388   4.720  2.1901  1.1806 -0.8194
  627MOL0     H82709   0.689   7.313   4.889  0.0934 -1.0471 -0.9342
  627MOL0     H82710   0.562   7.439   4.942  0.2064 -0.0873 -1.1475
  627MOL0     H82711   0.603   7.564   4.745  0.0318 -0.5898 -0.7144
  627MOL0     H82712   0.715   7.441   4.683 -0.2025 -0.0717 -0.3287
  627MOL0     H82713   0.801   7.585   4.939  2.8532 -0.2760 -0.2950
  627MOL0     H82714   0.861   7.445   4.851 -1.5069 -1.3478 -2.0481
  627MOL0     H82715   0.982   7.643   4.781 -0.3474 -1.3782  0.4835
  627MOL0     H82716   0.837   7.744   4.772 -3.2687 -1.3939  0.4328
  627MOL0     H82717   0.721   7.762   4.519  0.8729  0.8194 -1.3677
  627MOL0     H82718   0.800   7.645   4.199  0.4654 -0.6281  1.3563
  627MOL0     H82719   0.691   7.748   4.299  0.3869  0.0765  2.4202
  627MOL0     H82720   0.648   7.455   4.242 -0.0796 -0.1316 -0.6123
  627MOL0     H82721   0.552   7.597   4.180 -0.7014 -0.4942  0.5131
  627MOL0     H82722   0.542   7.491   4.463 -1.5796 -1.1154  0.3192
  627MOL0     H82723   0.512   7.658   4.418 -2.1135  1.0604 -1.9663
  627MOL0     H82724   0.378   7.399   4.320 -0.9812 -0.7898  0.4433
  627MOL0     H82725   0.311   7.558   4.276 -5.9232 -2.3272  0.6302
  627MOL0     H82726   0.315   7.765   4.422 -0.0936 -0.5118 -0.0816
  627MOL0     H82727   0.236   7.940   4.547 -0.4891 -0.4537  0.3153
  627MOL0     H82728   0.088   7.930   5.112  0.1181 -0.7919 -0.7297
  627MOL0     H82729   0.018   8.093   5.281  2.3725 -1.2341 -0.6497
  627MOL0     H82730  -0.003   8.322   5.339  0.0233 -2.3926  0.4651
  627MOL0     H82731  -0.131   8.244   5.437 -5.3404  2.2562  0.5890
  627MOL0     H82732  -0.240   8.464   5.469 -0.0186  2.9195 -1.2741
  627MOL0     H82733  -0.146   8.538   5.350 -4.0300  1.3707  1.3099
  627MOL0     H82734   0.057   8.496   5.483  0.9159 -1.4926 -0.2040
  627MOL0     H82735  -0.047   8.385   5.576  1.6923 -0.3863 -1.0951
  627MOL0     H82736   0.002   8.688   5.552 -0.6121  0.5609 -2.3206
  627MOL0     H82737  -0.169   8.647   5.548  0.7633 -1.0934 -2.2606
  627MOL0     H82738   0.053   8.632   5.759  0.5403 -2.4431  0.8706
  627MOL0     H82739  -0.075   8.516   5.787 -0.7243 -0.2245 -1.2116
  627MOL0     H82740  -0.249   8.707   5.774 -0.9025  3.4351  0.5262
  627MOL0     H82741  -0.112   8.810   5.762  1.2647 -0.4685  1.9743
  627MOL0     H82742  -0.089   8.642   5.994  0.8146  1.9603  1.6974
  627MOL0     H82743  -0.063   8.818   5.980 -3.1298  1.7321  0.9595
  627MOL0     H82744  -0.313   8.664   6.009  1.4900 -0.2548 -2.7888
  627MOL0     H82745  -0.322   8.826   5.959  0.0771 -1.0803 -0.1956
  627MOL0     H82746  -0.277   8.255   4.998  1.6338  4.8980  4.7661
  627MOL0     H82747  -0.197   8.064   4.835  0.5170 -0.1518 -0.4064
  627MOL0     H82748   0.051   7.640   4.812  0.9296 -2.6686 -0.1374
  627MOL0     H82749   0.153   7.464   4.691  2.2579 -1.3587 -1.5405
  627MOL0     H82750   0.433   6.831   5.194  0.8719 -2.1680  1.0763
  627MOL0     H82751   0.531   6.619   5.167 -0.0515  1.2076  0.7020
  627MOL0     H82752   0.421   6.160   4.759  3.4981  0.8456 -3.1704
  627MOL0     H82753   0.521   5.922   4.768  0.5783  0.0789 -0.4119
  627MOL0     H82754   0.667   5.776   4.763  0.9063 -2.2713 -1.7180
  627MOL0     H82755   0.578   5.678   4.878  1.4919 -1.3678 -3.4161
  627MOL0     H82756   0.788   5.567   4.795  1.6833 -0.4550 -0.6599
  627MOL0     H82757   0.885   5.700   4.837 -0.0741 -1.0732 -1.5813
  627MOL0     H82758   0.741   5.498   5.012  1.6073 -0.9835 -3.1712
  627MOL0     H82759   0.802   5.666   5.086 -4.1358  1.0831 -1.1222
  627MOL0     H82760   0.931   5.480   5.135  1.8061 -0.8618 -0.8342
  627MOL0     H82761   0.970   5.447   4.960  4.7029  1.8387 -0.2753
  627MOL0     H82762   1.203   5.777   5.070 -0.0762  0.3317 -2.3653
  627MOL0     H82763   0.746   6.047   5.110  2.9423 -0.1710 -1.9593
  627MOL0     H82764   0.654   6.269   5.094  0.7250 -0.9728  1.6878
  628MOL0     O82765   2.699   1.534   5.180  0.3020  0.3115  0.4536
  628MOL0     C82766   2.657   1.467   5.081 -0.7445 -0.6586  0.3810
  628MOL0     O82767   2.725   1.370   5.019 -0.5110  0.7647 -0.3368
  628MOL0     C82768   2.840   1.307   5.065 -0.1857 -0.0873  0.0714
  628MOL0     C82769   2.912   1.332   5.188  0.2412 -1.0077 -1.5259
  628MOL0     C82770   3.038   1.261   5.208 -0.1986 -0.7480 -0.5360
  628MOL0     C82771   3.092   1.184   5.102  0.1990  0.0711  0.3785
  628MOL0     O82772   3.215   1.129   5.099  0.0380 -0.0396  0.6241
  628MOL0     C82773   3.294   1.150   5.215  0.3057 -0.5139  0.1506
  628MOL0     C82774   3.431   1.095   5.200  0.3312  0.7450  1.1791
  628MOL0     C82775   3.417   0.946   5.187 -0.6326 -1.3938  0.1356
  628MOL0     C82776   3.569   0.890   5.151  0.5483 -0.8723 -0.5709
  628MOL0     C82777   3.570   0.736   5.132 -1.3775  0.3713 -0.4263
  628MOL0     C82778   3.559   0.676   5.276  0.7200  1.1588 -0.0161
  628MOL0     C82779   3.699   0.682   5.355 -0.3265 -1.1799 -0.1585
  628MOL0     C82780   3.724   0.784   5.475 -0.0083  0.6093  0.4193
  628MOL0     N82781   3.803   0.707   5.567 -0.9701  0.1829  0.2097
  628MOL0     C82782   3.761   0.630   5.674  1.2839  0.3069  1.0948
  628MOL0     C82783   3.868   0.602   5.748 -0.1298 -0.4738 -0.8507
  628MOL0     C82784   3.872   0.518   5.872 -0.5394 -0.3473  0.4902
  628MOL0     C82785   3.875   0.608   5.993  0.2524  0.1096  0.7707
  628MOL0     C82786   3.740   0.666   6.031 -0.0108  0.3141 -0.4036
  628MOL0     C82787   3.767   0.774   6.126 -0.0840  0.3730 -0.7658
  628MOL0     O82788   3.679   0.887   6.117 -0.7172  0.8858  0.0736
  628MOL0     C82789   3.550   0.873   6.170  0.2344 -0.6609  0.7133
  628MOL0     C82790   3.514   0.786   6.274  0.0103 -0.1532  0.3702
  628MOL0     C82791   3.375   0.768   6.301 -0.6640  0.1808  0.2178
  628MOL0     C82792   3.274   0.845   6.233 -0.1443 -0.2872 -0.9529
  628MOL0     C82793   3.126   0.817   6.247  0.5650  0.3481  0.0068
  628MOL0     O82794   3.078   0.770   6.368 -0.2764 -0.3508 -0.8641
  628MOL0     C82795   2.948   0.778   6.405 -0.1140 -0.2404  0.0916
  628MOL0     C82796   2.862   0.667   6.401  0.3150 -0.3519 -0.3803
  628MOL0     C82797   2.726   0.683   6.441  0.3208 -0.5842  0.6058
  628MOL0     C82798   2.679   0.807   6.489  0.8979 -0.7053 -0.8243
  628MOL0     O82799   2.547   0.832   6.518  0.4514 -0.2287 -0.2730
  628MOL0     C82800   2.453   0.718   6.519  0.0665 -0.2491  0.2908
  628MOL0     C82801   2.332   0.742   6.612  0.2937 -0.5803  0.0872
  628MOL0     C82802   2.202   0.656   6.604 -0.6588 -0.5141  0.1396
  628MOL0     C82803   2.139   0.660   6.472 -0.1069 -0.0381 -0.2089
  628MOL0     C82804   2.015   0.565   6.471 -0.2349 -1.1030 -0.2928
  628MOL0     C82805   1.899   0.611   6.557 -0.6242 -0.1685  0.6060
  628MOL0     C82806   1.784   0.517   6.535 -0.5888 -0.3539  0.3614
  628MOL0     C82807   1.658   0.586   6.582  0.6009 -0.3494 -0.1889
  628MOL0    Cl82808   1.522   0.496   6.567 -0.3526 -0.1748  0.1307
  628MOL0     C82809   2.770   0.915   6.487  0.8722 -0.2534 -0.3752
  628MOL0     C82810   2.899   0.897   6.446 -0.0673 -0.3234 -0.9406
  628MOL0     O82811   3.052   0.853   6.160  0.6829 -0.2617 -0.0840
  628MOL0     C82812   3.316   0.943   6.141  0.2351  0.5091 -0.2970
  628MOL0     C82813   3.450   0.964   6.111  0.9126  0.3560  0.0858
  628MOL0     N82814   3.983   0.659   5.687  0.3639  0.3566 -0.5108
  628MOL0     N82815   3.940   0.725   5.586 -0.0621 -0.4146  0.2701
  628MOL0     C82816   3.010   1.153   4.996  1.0258  0.2601  0.2848
  628MOL0     C82817   2.884   1.210   4.976  0.3136 -0.0665  0.8191
  628MOL0     C82818   2.523   1.496   5.019 -0.0774  0.7724 -0.2310
  628MOL0     C82819   2.436   1.584   5.084 -0.6995  0.4642 -0.6705
  628MOL0     C82820   2.312   1.598   5.020  0.2485 -1.0637  0.2654
  628MOL0     C82821   2.265   1.533   4.907  0.0580 -0.6878  0.0745
  628MOL0     O82822   2.142   1.550   4.857  0.5919 -0.5683  0.3795
  628MOL0     C82823   2.021   1.596   4.920 -0.1392 -0.0929  0.0061
  628MOL0     C82824   1.953   1.697   4.827 -0.2367 -0.3341 -0.9924
  628MOL0     C82825   1.819   1.748   4.881 -0.1779  0.7066 -0.5756
  628MOL0     C82826   1.708   1.646   4.860 -0.4473  0.1829 -0.2256
  628MOL0     C82827   1.615   1.642   4.973  0.8429  0.1955  0.1140
  628MOL0     C82828   1.536   1.642   5.067  0.5289 -0.0119 -0.6954
  628MOL0     C82829   2.351   1.450   4.849 -0.1143 -0.4505  0.2384
  628MOL0     C82830   2.477   1.425   4.895 -0.3044  0.3453 -0.1806
  628MOL0     H82831   2.899   1.399   5.273  1.7322 -1.2710 -1.0529
  628MOL0     H82832   3.088   1.280   5.302  2.7583  0.4233 -2.1915
  628MOL0     H82833   3.247   1.108   5.304 -0.3049 -1.3923 -0.5766
  628MOL0     H82834   3.309   1.259   5.219  1.1458 -0.5122 -1.9022
  628MOL0     H82835   3.492   1.131   5.284 -1.3785  3.1459  1.4987
  628MOL0     H82836   3.475   1.128   5.106  0.9393  4.6934  2.6639
  628MOL0     H82837   3.348   0.925   5.105  0.4274  1.6262 -1.7264
  628MOL0     H82838   3.386   0.909   5.285  1.3626 -0.0002  1.3817
  628MOL0     H82839   3.606   0.926   5.055  0.6415 -2.1771 -1.0491
  628MOL0     H82840   3.626   0.919   5.239 -1.6779 -0.5257  0.8245
  628MOL0     H82841   3.658   0.708   5.072 -0.9325  2.8536 -1.0267
  628MOL0     H82842   3.489   0.708   5.066 -1.0955 -2.3454  0.2483
  628MOL0     H82843   3.537   0.569   5.266  0.9680  0.9055  1.7242
  628MOL0     H82844   3.471   0.703   5.334 -1.2571 -5.4301  0.9043
  628MOL0     H82845   3.704   0.589   5.413  0.7130 -0.4471  0.9868
  628MOL0     H82846   3.784   0.693   5.287 -2.1676  2.5832 -2.1293
  628MOL0     H82847   3.626   0.817   5.512 -1.9846 -2.4532 -1.6654
  628MOL0     H82848   3.788   0.864   5.436  2.1810 -1.9921 -1.7577
  628MOL0     H82849   3.661   0.588   5.684  0.0374  2.7248 -0.0884
  628MOL0     H82850   3.958   0.451   5.872 -1.1709 -1.1765  1.7975
  628MOL0     H82851   3.783   0.456   5.857  0.0356 -0.5555 -3.1762
  628MOL0     H82852   3.947   0.686   5.970  1.4784 -1.2047 -0.0265
  628MOL0     H82853   3.918   0.551   6.076  0.7040 -1.1175 -0.2746
  628MOL0     H82854   3.692   0.702   5.940  1.0009 -1.0082 -1.4988
  628MOL0     H82855   3.675   0.597   6.085 -1.1087  1.5334 -0.1008
  628MOL0     H82856   3.860   0.821   6.092  0.0317  0.6240 -0.1234
  628MOL0     H82857   3.785   0.733   6.226  3.1992  1.4322 -0.8047
  628MOL0     H82858   3.589   0.726   6.324 -0.1729 -0.2783  0.4987
  628MOL0     H82859   3.353   0.684   6.365  3.8376 -1.2641  0.2517
  628MOL0     H82860   2.886   0.563   6.380  0.9252 -1.6363  5.0755
  628MOL0     H82861   2.660   0.600   6.417  0.2004 -0.1276 -0.7180
  628MOL0     H82862   2.507   0.625   6.542  0.3956 -0.6957 -2.0134
  628MOL0     H82863   2.406   0.708   6.421 -1.3375 -2.8925  1.1562
  628MOL0     H82864   2.302   0.847   6.601  2.8926  0.1716 -0.5836
  628MOL0     H82865   2.371   0.729   6.714 -2.4549 -2.8355  0.9696
  628MOL0     H82866   2.128   0.689   6.677 -0.4808  0.8405 -0.2568
  628MOL0     H82867   2.231   0.553   6.627  0.6790 -0.2170 -0.1191
  628MOL0     H82868   2.114   0.765   6.453  3.4749  1.3049  1.4880
  628MOL0     H82869   2.209   0.633   6.392 -3.0739  0.3911 -3.1651
  628MOL0     H82870   2.049   0.472   6.518  3.3066 -1.3802 -3.0306
  628MOL0     H82871   1.994   0.548   6.365 -4.8668  0.2748  0.1574
  628MOL0     H82872   1.869   0.713   6.531  0.8866  0.0559 -0.4317
  628MOL0     H82873   1.931   0.599   6.661  0.4401  1.6822  0.5432
  628MOL0     H82874   1.780   0.491   6.429 -0.2436  1.2806 -0.0939
  628MOL0     H82875   1.802   0.429   6.597 -2.9024  1.3066  3.7253
  628MOL0     H82876   1.640   0.682   6.534 -4.5105  0.8547  3.3730
  628MOL0     H82877   1.655   0.620   6.686 -0.8399 -1.3697  0.1348
  628MOL0     H82878   2.743   1.018   6.510 -2.0061 -0.8492 -0.7610
  628MOL0     H82879   2.961   0.985   6.461 -2.3086  0.8249  3.7811
  628MOL0     H82880   3.247   1.012   6.094  1.8833  2.3576 -0.1271
  628MOL0     H82881   3.473   1.056   6.058  0.7336  0.0529 -0.5154
  628MOL0     H82882   3.040   1.091   4.913 -0.9297  0.1792 -0.4195
  628MOL0     H82883   2.823   1.197   4.887 -0.5411  3.4144  0.7455
  628MOL0     H82884   2.475   1.638   5.169  0.6696  1.4392 -1.8749
  628MOL0     H82885   2.251   1.678   5.061  2.2469  1.3737 -1.2216
  628MOL0     H82886   2.032   1.643   5.019 -1.9591 -2.7429  1.6084
  628MOL0     H82887   1.956   1.514   4.950 -0.7290 -0.6507 -2.5892
  628MOL0     H82888   2.017   1.784   4.811 -1.4742  0.9630  0.7923
  628MOL0     H82889   1.940   1.648   4.730  0.2848  0.1352 -1.3056
  628MOL0     H82890   1.788   1.843   4.837  0.3490  1.5045  0.7010
  628MOL0     H82891   1.829   1.766   4.989  0.0044  0.2121 -0.5062
  628MOL0     H82892   1.657   1.676   4.768 -0.2724  2.3081  0.3221
  628MOL0     H82893   1.759   1.550   4.844  1.7281  1.4495 -1.3600
  628MOL0     H82894   1.467   1.625   5.147  0.3937  0.0323 -0.8018
  628MOL0     H82895   2.316   1.403   4.758  2.4660  1.8484 -2.1246
  628MOL0     H82896   2.540   1.355   4.841 -0.1919  1.1138 -1.0515
  629MOL0     O82897   3.961   0.368   0.153  0.6410 -0.0049  0.1989
  629MOL0     C82898   3.927   0.353   0.035 -0.0986 -0.4295  0.5520
  629MOL0     O82899   3.999   0.295  -0.063 -0.1295 -0.0048  0.2267
  629MOL0     C82900   4.133   0.280  -0.047  0.2836 -0.0901  1.0248
  629MOL0     C82901   4.195   0.177   0.043 -1.0990  0.3561 -0.3147
  629MOL0     C82902   4.326   0.181   0.066 -0.6823  0.2043 -0.5545
  629MOL0     C82903   4.402   0.286   0.019  0.2443 -0.3887  0.3739
  629MOL0     O82904   4.539   0.290   0.030 -0.1045  0.0523  0.7324
  629MOL0     C82905   4.608   0.182   0.097 -0.3881 -0.5106 -0.4683
  629MOL0     C82906   4.758   0.202   0.080  1.2156  0.9228 -0.2377
  629MOL0     C82907   4.802   0.213  -0.061 -0.3641  0.4463 -0.5196
  629MOL0     C82908   4.756   0.101  -0.153 -0.4248  0.8490 -0.0839
  629MOL0     C82909   4.835   0.092  -0.290  0.5481 -0.1627 -0.0372
  629MOL0     C82910   4.985   0.062  -0.264 -0.1674 -0.3294  0.2618
  629MOL0     C82911   5.048   0.022  -0.389 -0.5282  0.0574 -0.2713
  629MOL0     C82912   5.201   0.050  -0.388 -0.2292 -0.6210  0.3216
  629MOL0     N82913   5.255  -0.050  -0.478 -0.1396  0.5151 -0.1022
  629MOL0     C82914   5.225  -0.062  -0.612  1.5736  0.4346 -0.4420
  629MOL0     C82915   5.308  -0.160  -0.664  0.9301  0.4329  0.0745
  629MOL0     C82916   5.317  -0.195  -0.809  0.0012 -0.2170  0.2308
  629MOL0     C82917   5.429  -0.123  -0.888  0.0583 -0.6726 -0.0630
  629MOL0     C82918   5.384   0.002  -0.961 -0.1315  0.0850  0.4778
  629MOL0     C82919   5.498   0.077  -1.031  0.3726  0.4139  0.1116
  629MOL0     O82920   5.592   0.011  -1.122  0.0593 -0.4117 -0.0684
  629MOL0     C82921   5.552  -0.046  -1.241  0.9689 -0.5656 -0.9202
  629MOL0     C82922   5.588  -0.183  -1.261  0.7571 -0.7009  0.9794
  629MOL0     C82923   5.570  -0.237  -1.385 -0.5647 -0.2646 -0.1517
  629MOL0     C82924   5.510  -0.167  -1.496 -0.1949  0.1883 -0.8016
  629MOL0     C82925   5.467  -0.243  -1.616 -0.3772 -0.1257 -0.6066
  629MOL0     O82926   5.486  -0.373  -1.605  0.0006  0.5253 -0.5392
  629MOL0     C82927   5.494  -0.457  -1.713 -0.2173 -0.0544 -0.5394
  629MOL0     C82928   5.601  -0.438  -1.799  0.0653 -0.0973 -0.7462
  629MOL0     C82929   5.607  -0.513  -1.915 -0.0916  0.2042  0.3837
  629MOL0     C82930   5.508  -0.602  -1.943 -0.0126  0.3277 -0.4134
  629MOL0     O82931   5.502  -0.664  -2.064 -0.1030 -0.5017  0.0906
  629MOL0     C82932   5.598  -0.764  -2.087  0.2335 -0.4675 -0.2827
  629MOL0     C82933   5.587  -0.814  -2.230  0.1189  0.2104 -1.1359
  629MOL0     C82934   5.721  -0.858  -2.289  0.9219 -0.3190 -0.2363
  629MOL0     C82935   5.685  -0.939  -2.416 -0.5537 -1.1971  0.7328
  629MOL0     C82936   5.825  -0.969  -2.493  1.3399 -0.6738  0.5681
  629MOL0     C82937   5.800  -1.073  -2.601  0.2117 -0.2433 -0.4236
  629MOL0     C82938   5.730  -1.194  -2.562  0.9518  0.6851  0.4069
  629MOL0     C82939   5.763  -1.309  -2.657 -0.0608 -0.5623  0.6654
  629MOL0    Cl82940   5.694  -1.462  -2.600  0.3057 -0.2614 -0.0127
  629MOL0     C82941   5.397  -0.624  -1.862 -0.1371 -0.3478 -0.6323
  629MOL0     C82942   5.400  -0.551  -1.739  0.0426 -0.8726  0.6419
  629MOL0     O82943   5.410  -0.187  -1.711  0.5071  0.3904 -0.2611
  629MOL0     C82944   5.475  -0.035  -1.471 -0.2070  1.2696  0.3130
  629MOL0     C82945   5.492   0.027  -1.345  0.0203  0.3899 -0.0344
  629MOL0     N82946   5.385  -0.203  -0.554  1.4157  0.1240 -0.2153
  629MOL0     N82947   5.352  -0.143  -0.444 -0.1568  0.0989  1.1531
  629MOL0     C82948   4.349   0.372  -0.070 -0.7607 -1.4778  0.1142
  629MOL0     C82949   4.203   0.382  -0.098 -0.4598 -0.9386  0.2411
  629MOL0     C82950   3.789   0.402   0.001 -0.0707  0.2461 -0.1666
  629MOL0     C82951   3.755   0.418  -0.130 -0.6426 -0.5545 -0.1915
  629MOL0     C82952   3.637   0.474  -0.161  0.3431 -1.0872  0.5967
  629MOL0     C82953   3.547   0.510  -0.068  0.0086  0.1825 -1.2885
  629MOL0     O82954   3.424   0.545  -0.114 -0.0537  0.4199  0.5306
  629MOL0     C82955   3.332   0.604  -0.024  0.3699 -0.6667  0.6434
  629MOL0     C82956   3.250   0.493   0.038  0.2006  0.8531  0.4759
  629MOL0     C82957   3.142   0.444  -0.053 -0.4561  0.0866 -0.7339
  629MOL0     C82958   3.040   0.369   0.024 -0.2351  0.6046  0.3159
  629MOL0     C82959   2.921   0.352  -0.066  0.5565  0.2739  0.6317
  629MOL0     C82960   2.828   0.376  -0.140 -0.0920 -0.2702  0.3956
  629MOL0     C82961   3.578   0.507   0.069  0.6558  0.4080  0.2813
  629MOL0     C82962   3.698   0.445   0.102  0.1504  0.2035  0.9443
  629MOL0     H82963   4.133   0.099   0.088  0.1902 -1.5603 -1.6895
  629MOL0     H82964   4.365   0.104   0.132  0.0529  1.4288  0.4802
  629MOL0     H82965   4.586   0.082   0.060  1.1042 -0.4424 -1.6744
  629MOL0     H82966   4.594   0.185   0.206  0.7006 -1.5513 -0.2828
  629MOL0     H82967   4.797   0.112   0.127 -2.9473 -0.5974  0.7372
  629MOL0     H82968   4.792   0.290   0.136  3.4428 -0.4587  0.7012
  629MOL0     H82969   4.911   0.219  -0.050 -0.4151 -0.6200  0.8405
  629MOL0     H82970   4.766   0.304  -0.110  1.8376  2.0843  0.7075
  629MOL0     H82971   4.772   0.005  -0.103 -2.6058 -0.0262 -0.9394
  629MOL0     H82972   4.649   0.120  -0.171 -0.6820 -0.9547 -0.5877
  629MOL0     H82973   4.821   0.189  -0.338 -1.6830  0.5977  1.9528
  629MOL0     H82974   4.786   0.023  -0.359 -0.4528  0.2836  0.2101
  629MOL0     H82975   4.993  -0.032  -0.208 -0.1065 -1.4920 -1.6053
  629MOL0     H82976   5.040   0.137  -0.207 -2.5009  0.2452  1.8769
  629MOL0     H82977   5.039  -0.086  -0.406  0.1333 -0.3722  1.8066
  629MOL0     H82978   5.003   0.091  -0.461  0.7917  0.7442 -0.4717
  629MOL0     H82979   5.236   0.043  -0.285 -0.8686 -0.9020  0.5226
  629MOL0     H82980   5.228   0.146  -0.434  0.8176 -1.1074 -0.1065
  629MOL0     H82981   5.162   0.000  -0.674  0.2939  0.6571  1.0175
  629MOL0     H82982   5.224  -0.177  -0.863 -0.3741 -2.2891  0.0942
  629MOL0     H82983   5.347  -0.300  -0.813  0.8832 -0.0154  1.2034
  629MOL0     H82984   5.451  -0.199  -0.963 -3.1424  0.5854 -2.5010
  629MOL0     H82985   5.521  -0.110  -0.830 -0.8574  1.4627  1.0344
  629MOL0     H82986   5.309  -0.027  -1.034  2.8932  1.7739 -3.6992
  629MOL0     H82987   5.338   0.072  -0.890 -1.8668 -3.4352  3.1396
  629MOL0     H82988   5.566   0.120  -0.957  3.0660 -2.9826 -0.1057
  629MOL0     H82989   5.454   0.161  -1.086 -1.6190  0.1706  1.2308
  629MOL0     H82990   5.630  -0.235  -1.175 -2.2228 -2.3837  1.5745
  629MOL0     H82991   5.603  -0.340  -1.386 -2.2624 -1.0413  3.8337
  629MOL0     H82992   5.670  -0.357  -1.776 -0.7160  0.0864  1.1495
  629MOL0     H82993   5.687  -0.510  -1.989 -1.2071 -0.2214 -0.8791
  629MOL0     H82994   5.592  -0.843  -2.011  3.4298 -2.8988 -2.2894
  629MOL0     H82995   5.695  -0.718  -2.065  0.2807 -0.8845  0.4052
  629MOL0     H82996   5.543  -0.738  -2.295 -1.0049  1.6095  1.1566
  629MOL0     H82997   5.529  -0.907  -2.230  3.3136 -2.0301  1.8316
  629MOL0     H82998   5.779  -0.918  -2.219 -1.5478 -2.5722  0.0377
  629MOL0     H82999   5.768  -0.763  -2.316 -3.1748  2.2898  0.9088
  629MOL0     H83000   5.637  -1.030  -2.379 -1.7356 -0.4545  1.0803
  629MOL0     H83001   5.613  -0.875  -2.469 -0.1422 -0.0801  1.4714
  629MOL0     H83002   5.903  -1.009  -2.427  3.0802  1.9707  0.2663
  629MOL0     H83003   5.867  -0.884  -2.548 -0.2500  2.7207  4.1519
  629MOL0     H83004   5.899  -1.094  -2.642  1.5718  3.3507  0.6527
  629MOL0     H83005   5.744  -1.032  -2.686  0.1996 -0.4906 -0.5384
  629MOL0     H83006   5.765  -1.227  -2.464  0.8892  1.3035  0.6434
  629MOL0     H83007   5.624  -1.173  -2.544  1.2054  1.8225  0.6590
  629MOL0     H83008   5.872  -1.298  -2.659 -0.3442  4.2715 -1.5132
  629MOL0     H83009   5.734  -1.289  -2.760  3.6675 -2.0835 -0.8775
  629MOL0     H83010   5.305  -0.679  -1.879 -1.1723  1.6074 -1.6586
  629MOL0     H83011   5.308  -0.569  -1.683 -2.1377 -2.7098 -3.1202
  629MOL0     H83012   5.440   0.021  -1.557  2.4183  1.1241 -0.9536
  629MOL0     H83013   5.465   0.131  -1.325  0.6882  0.4382  0.6594
  629MOL0     H83014   4.410   0.441  -0.128  0.5155 -1.1037  1.8414
  629MOL0     H83015   4.161   0.463  -0.157 -1.6971 -1.6073  0.1702
  629MOL0     H83016   3.815   0.384  -0.214  1.7355  1.1585  0.7165
  629MOL0     H83017   3.617   0.486  -0.267  0.2456  0.5228  0.7831
  629MOL0     H83018   3.258   0.654  -0.087 -0.6551 -0.0041  2.3300
  629MOL0     H83019   3.364   0.666   0.060 -0.5340  0.6836  0.0274
  629MOL0     H83020   3.317   0.407   0.051 -0.5709  0.0741 -0.5237
  629MOL0     H83021   3.208   0.530   0.132  3.4898 -0.1425  2.4978
  629MOL0     H83022   3.169   0.371  -0.129 -0.1831  2.6247 -3.2282
  629MOL0     H83023   3.090   0.527  -0.102  0.3825  0.6586 -0.6784
  629MOL0     H83024   3.080   0.271   0.051  1.6826  1.0894 -0.6602
  629MOL0     H83025   3.011   0.427   0.112  0.3263  0.9769  0.2579
  629MOL0     H83026   2.739   0.370  -0.199 -0.8731 -0.7893  1.5956
  629MOL0     H83027   3.508   0.551   0.139  0.4948  2.4717 -1.0775
  629MOL0     H83028   3.733   0.421   0.202  0.7766  0.9636  0.9183
  630MOL0     O83029   6.674   0.347   1.177  0.3023 -0.3263 -0.5428
  630MOL0     C83030   6.693   0.297   1.063  0.0070  0.5799 -0.2286
  630MOL0     O83031   6.615   0.209   1.010 -0.5588  0.3526 -0.4050
  630MOL0     C83032   6.484   0.177   1.055 -1.0530  0.7157 -0.5998
  630MOL0     C83033   6.433   0.066   0.989  0.7324 -0.5905 -0.0422
  630MOL0     C83034   6.300   0.033   1.002  0.0218  0.2854 -0.0112
  630MOL0     C83035   6.207   0.112   1.076 -0.1730  0.3852 -0.0794
  630MOL0     O83036   6.072   0.087   1.095  0.2879  0.3770  0.0131
  630MOL0     C83037   5.989   0.066   0.973 -0.6852 -0.6623 -0.2333
  630MOL0     C83038   5.878   0.158   0.970  0.0879  0.4898 -0.0386
  630MOL0     C83039   5.758   0.091   1.043 -0.9464 -1.2115 -0.0456
  630MOL0     C83040   5.619   0.172   1.035 -0.6443  0.0830  0.0677
  630MOL0     C83041   5.511   0.096   1.112  0.6514 -1.0754  0.6836
  630MOL0     C83042   5.521   0.099   1.261  0.3627 -0.1055  0.8052
  630MOL0     C83043   5.420   0.015   1.331 -0.3958  1.0058 -0.3032
  630MOL0     C83044   5.433  -0.128   1.328  0.2312  0.0649 -0.1467
  630MOL0     N83045   5.554  -0.164   1.405 -0.6323  0.1757  0.1931
  630MOL0     C83046   5.677  -0.216   1.362 -0.6762  0.0033  0.0051
  630MOL0     C83047   5.772  -0.208   1.458  0.8211  0.2982 -0.8911
  630MOL0     C83048   5.919  -0.244   1.443 -0.1907 -0.7268 -0.0276
  630MOL0     C83049   6.011  -0.125   1.450  0.2224 -0.5851  0.5358
  630MOL0     C83050   6.158  -0.176   1.435  0.2550 -0.1073  0.5100
  630MOL0     C83051   6.253  -0.076   1.493  0.1579  0.6706  0.2520
  630MOL0     O83052   6.377  -0.132   1.542 -0.3798  0.0262  0.5188
  630MOL0     C83053   6.478  -0.127   1.449  0.4563  1.0154  0.7504
  630MOL0     C83054   6.489  -0.202   1.326  0.0912 -0.4774  0.1633
  630MOL0     C83055   6.603  -0.200   1.244 -0.3525 -0.3156 -0.2704
  630MOL0     C83056   6.702  -0.107   1.262  0.3156 -0.4047  0.5728
  630MOL0     C83057   6.812  -0.111   1.167 -0.2974 -0.8483 -0.3923
  630MOL0     O83058   6.920  -0.053   1.213  0.3670  0.2660 -0.0871
  630MOL0     C83059   7.041  -0.081   1.156  0.6380 -0.5102 -0.3141
  630MOL0     C83060   7.137  -0.149   1.235  0.2293  0.2080  0.3600
  630MOL0     C83061   7.272  -0.144   1.193 -0.6192 -0.5106  0.5348
  630MOL0     C83062   7.312  -0.084   1.076 -0.0642  0.3320  0.1045
  630MOL0     O83063   7.445  -0.095   1.051  0.3246 -0.0639 -0.1996
  630MOL0     C83064   7.508   0.010   0.964  0.0579 -0.0814  0.1957
  630MOL0     C83065   7.643   0.031   1.039 -0.0493 -0.5992 -0.5392
  630MOL0     C83066   7.734  -0.092   1.036 -0.2998  0.7698 -0.0795
  630MOL0     C83067   7.861  -0.045   1.117 -0.4351 -0.7719  0.2014
  630MOL0     C83068   7.971  -0.156   1.111  0.1888 -0.1374 -0.6799
  630MOL0     C83069   8.071  -0.127   1.232  0.3260 -0.3858  0.2307
  630MOL0     C83070   8.160  -0.003   1.207  0.0704  0.4303  0.1242
  630MOL0     C83071   8.277   0.019   1.309 -0.3590  0.7330 -1.0347
  630MOL0    Cl83072   8.215   0.094   1.456 -0.0862  0.0881 -0.7049
  630MOL0     C83073   7.215  -0.022   1.000 -0.8081 -0.5612  1.0372
  630MOL0     C83074   7.080  -0.016   1.038  0.1770 -0.2895 -0.5009
  630MOL0     O83075   6.809  -0.173   1.066 -0.8540  0.2503 -0.0054
  630MOL0     C83076   6.697  -0.027   1.372  0.8114 -0.5536 -0.3844
  630MOL0     C83077   6.585  -0.032   1.467  0.0075  0.5847  0.2693
  630MOL0     N83078   5.707  -0.163   1.569 -0.7442 -0.8003  0.1970
  630MOL0     N83079   5.577  -0.139   1.542 -0.5967  0.4091 -0.0782
  630MOL0     C83080   6.273   0.213   1.155 -0.6692 -0.2873  0.2253
  630MOL0     C83081   6.409   0.251   1.148  0.2533  0.6619 -0.4923
  630MOL0     C83082   6.810   0.341   0.989 -0.2407 -0.9757  0.1380
  630MOL0     C83083   6.810   0.318   0.852 -0.8020  0.2322 -0.1123
  630MOL0     C83084   6.911   0.380   0.779 -0.1242 -0.2134  0.2765
  630MOL0     C83085   7.000   0.467   0.833 -0.7746 -0.4441  0.4283
  630MOL0     O83086   7.098   0.509   0.748 -0.4138  0.3124  0.0168
  630MOL0     C83087   7.086   0.645   0.704  0.2487 -0.8502 -0.4366
  630MOL0     C83088   7.165   0.673   0.581 -0.3412 -0.3494  0.0771
  630MOL0     C83089   7.316   0.640   0.585 -0.3110 -0.0724 -0.5540
  630MOL0     C83090   7.403   0.698   0.466 -0.0342  0.0063 -0.8185
  630MOL0     C83091   7.353   0.641   0.342  1.0335  0.2240  0.0240
  630MOL0     C83092   7.305   0.620   0.231  0.1560 -0.7730  0.5059
  630MOL0     C83093   6.998   0.484   0.968 -0.4027 -0.2986  0.3779
  630MOL0     C83094   6.903   0.423   1.046 -0.4992  0.1136 -0.4902
  630MOL0     H83095   6.502   0.013   0.924  0.3956  1.6805 -2.4649
  630MOL0     H83096   6.273  -0.066   0.967  2.0148 -0.7263  1.1260
  630MOL0     H83097   5.960  -0.039   0.965 -0.1970 -0.7356 -1.2178
  630MOL0     H83098   6.047   0.072   0.880  1.7734 -0.0805  1.2384
  630MOL0     H83099   5.852   0.177   0.865 -0.5211 -1.2813 -0.2489
  630MOL0     H83100   5.917   0.247   1.021  0.5254 -0.8048  2.0006
  630MOL0     H83101   5.788   0.078   1.148 -2.8021  0.0819  0.6970
  630MOL0     H83102   5.729  -0.001   0.992 -1.3703 -1.5935  0.8535
  630MOL0     H83103   5.638   0.272   1.076 -1.5966  1.5824 -2.8262
  630MOL0     H83104   5.579   0.183   0.934 -2.0248  0.3786  0.6251
  630MOL0     H83105   5.536  -0.006   1.082 -3.0728 -1.9605  0.0740
  630MOL0     H83106   5.408   0.114   1.080  0.8332 -1.4103 -0.1217
  630MOL0     H83107   5.514   0.202   1.295  0.7585  0.2964 -0.2736
  630MOL0     H83108   5.623   0.073   1.290  0.6290  0.2960  0.2479
  630MOL0     H83109   5.411   0.049   1.435  0.2092 -1.6553  0.6992
  630MOL0     H83110   5.322   0.040   1.290 -1.1663  0.3618  1.0617
  630MOL0     H83111   5.446  -0.155   1.222  3.0150 -1.7247  0.5654
  630MOL0     H83112   5.341  -0.172   1.367 -0.4239  0.0373 -1.6326
  630MOL0     H83113   5.703  -0.252   1.263 -1.6743 -1.8777  0.3820
  630MOL0     H83114   5.932  -0.293   1.346 -2.4187 -1.3643 -0.0601
  630MOL0     H83115   5.945  -0.310   1.527 -1.2552  0.5209  1.3439
  630MOL0     H83116   5.991  -0.058   1.535  0.0169  0.0609 -0.0179
  630MOL0     H83117   5.999  -0.057   1.365  0.8228  0.4928  1.2731
  630MOL0     H83118   6.175  -0.271   1.487  1.8509 -0.8158 -1.1772
  630MOL0     H83119   6.180  -0.173   1.328 -0.7680 -0.2827  0.2818
  630MOL0     H83120   6.197  -0.044   1.581  2.9192  0.6710  2.1213
  630MOL0     H83121   6.268   0.017   1.437 -0.0043 -0.3184 -1.5121
  630MOL0     H83122   6.417  -0.281   1.310  1.3157 -1.4816 -0.5094
  630MOL0     H83123   6.597  -0.269   1.161 -0.7317 -3.3297  2.1044
  630MOL0     H83124   7.108  -0.194   1.329  0.1572  0.1906  0.3297
  630MOL0     H83125   7.348  -0.191   1.254  0.4949 -4.2047 -3.2357
  630MOL0     H83126   7.453   0.103   0.950 -0.0290 -0.3517 -1.4398
  630MOL0     H83127   7.534  -0.032   0.867 -1.0338  1.9171 -1.0209
  630MOL0     H83128   7.635   0.056   1.145  0.6940 -0.5830 -0.4821
  630MOL0     H83129   7.689   0.111   0.980  2.9476 -0.7276  1.3941
  630MOL0     H83130   7.760  -0.141   0.941  3.9822 -3.1013  2.6685
  630MOL0     H83131   7.684  -0.169   1.097 -0.9693  1.4729  0.2777
  630MOL0     H83132   7.896   0.043   1.062 -0.9454 -0.4816  0.3399
  630MOL0     H83133   7.833  -0.038   1.223  1.0338 -2.8928  0.8082
  630MOL0     H83134   8.022  -0.164   1.014 -0.8647  1.7295 -1.4401
  630MOL0     H83135   7.922  -0.252   1.122 -1.3047  0.3353 -2.6745
  630MOL0     H83136   8.118  -0.223   1.251  0.5311 -0.9431 -2.6178
  630MOL0     H83137   8.009  -0.102   1.318  0.9435  0.3409  0.4796
  630MOL0     H83138   8.221  -0.030   1.120  0.7018 -0.1500  0.7332
  630MOL0     H83139   8.100   0.087   1.193  0.3770  0.3121 -2.5399
  630MOL0     H83140   8.354   0.078   1.258  0.2449 -0.0909 -1.1015
  630MOL0     H83141   8.317  -0.078   1.340 -1.9859  1.0541  2.5003
  630MOL0     H83142   7.247   0.039   0.916 -1.0340  1.8958  2.6378
  630MOL0     H83143   7.006   0.039   0.981 -1.2190  0.8827  2.2071
  630MOL0     H83144   6.770   0.052   1.389 -2.3911  2.2750  1.6114
  630MOL0     H83145   6.588   0.017   1.564 -1.4605  2.0757 -0.3751
  630MOL0     H83146   6.210   0.271   1.220  1.3735  3.4825 -0.8631
  630MOL0     H83147   6.440   0.338   1.205  0.9650 -0.2367  0.5220
  630MOL0     H83148   6.731   0.251   0.822 -1.1917  0.7615 -0.2928
  630MOL0     H83149   6.909   0.361   0.672  1.1456  0.9618  0.0190
  630MOL0     H83150   7.125   0.724   0.769 -1.5525 -1.4937  1.5760
  630MOL0     H83151   6.978   0.660   0.690  0.0495 -2.4398 -0.8035
  630MOL0     H83152   7.122   0.611   0.503 -4.1671  0.1589  1.5814
  630MOL0     H83153   7.139   0.775   0.550  0.5168  0.9407  3.2209
  630MOL0     H83154   7.330   0.532   0.598  3.2763  0.4677  1.5257
  630MOL0     H83155   7.361   0.691   0.671 -0.5015  1.7217 -1.4847
  630MOL0     H83156   7.381   0.804   0.453 -2.4565 -0.3228  0.0064
  630MOL0     H83157   7.508   0.675   0.486 -0.8262 -1.9171  1.6874
  630MOL0     H83158   7.269   0.627   0.131 -0.6101 -0.2748  0.8110
  630MOL0     H83159   7.066   0.556   1.013  0.1597 -1.6794  1.8231
  630MOL0     H83160   6.891   0.446   1.151 -2.5227  2.5886 -1.1591
  631MOL0     O83161   9.455  10.129   9.416  0.3102 -0.8236  0.4512
  631MOL0     C83162   9.447  10.056   9.324  0.6535  0.6959  1.1668
  631MOL0     O83163   9.544  10.036   9.229  0.0669 -0.0152  0.2108
  631MOL0     C83164   9.654  10.110   9.251 -0.3035 -0.4614  0.1498
  631MOL0     C83165   9.761  10.075   9.341 -0.1746  0.2251 -0.3361
  631MOL0     C83166   9.856  10.181   9.370  0.2197 -0.5049 -0.7508
  631MOL0     C83167   9.843  10.306   9.315 -0.2233  0.4367 -0.7128
  631MOL0     O83168   9.936  10.397   9.352  0.1012  0.5666 -0.2077
  631MOL0     C83169  10.025  10.428   9.240 -0.6872  0.5352  0.2700
  631MOL0     C83170  10.135  10.525   9.285  0.4583 -0.1755  0.7078
  631MOL0     C83171  10.228  10.558   9.163  0.3631  0.1904 -0.1534
  631MOL0     C83172  10.350  10.629   9.193  0.1757 -0.4230  0.1073
  631MOL0     C83173  10.431  10.684   9.066  0.1873  0.5658 -0.7917
  631MOL0     C83174  10.361  10.784   8.970  0.3083 -0.8219  0.1190
  631MOL0     C83175  10.459  10.819   8.861  0.0468 -0.1973 -0.3515
  631MOL0     C83176  10.389  10.902   8.748 -0.4620  0.0928 -0.1966
  631MOL0     N83177  10.279  10.829   8.674  0.0135  0.3259  0.3304
  631MOL0     C83178  10.138  10.842   8.695 -0.6536  0.1071 -0.5153
  631MOL0     C83179  10.093  10.747   8.614  0.6565 -1.0483 -0.7731
  631MOL0     C83180   9.949  10.722   8.575 -0.2771  0.3937  0.1520
  631MOL0     C83181   9.889  10.603   8.654  0.6998  1.0670 -0.0794
  631MOL0     C83182   9.762  10.544   8.593 -0.0127 -0.5676 -0.7557
  631MOL0     C83183   9.723  10.420   8.675  0.2158  1.0464 -0.7156
  631MOL0     O83184   9.655  10.465   8.795 -0.8174  0.1277  0.3824
  631MOL0     C83185   9.523  10.498   8.786 -1.0992  0.6189  0.2091
  631MOL0     C83186   9.436  10.478   8.672 -0.2538 -0.4893  0.3200
  631MOL0     C83187   9.306  10.530   8.673  0.7799  0.7915 -0.4471
  631MOL0     C83188   9.262  10.593   8.792 -0.0942 -0.0400  0.4917
  631MOL0     C83189   9.117  10.618   8.804 -0.0918 -0.0366 -0.5234
  631MOL0     O83190   9.040  10.579   8.702 -0.0407 -0.9195  0.4415
  631MOL0     C83191   8.901  10.581   8.718 -0.3701 -0.4064  0.5852
  631MOL0     C83192   8.839  10.471   8.784  0.5032 -0.1221  0.8695
  631MOL0     C83193   8.700  10.458   8.797  0.4311 -0.0327  0.3409
  631MOL0     C83194   8.619  10.544   8.718 -0.0777 -0.5041 -0.4898
  631MOL0     O83195   8.481  10.523   8.721 -1.0283 -1.3137 -0.8751
  631MOL0     C83196   8.423  10.408   8.758 -1.2880  0.2301  0.7162
  631MOL0     C83197   8.273  10.413   8.735 -0.1458 -0.0231  0.3540
  631MOL0     C83198   8.248  10.391   8.583  0.2122 -0.2940 -0.4645
  631MOL0     C83199   8.095  10.389   8.559 -0.1695 -0.0048  0.2332
  631MOL0     C83200   8.013  10.262   8.581  0.5919  0.5655 -0.4557
  631MOL0     C83201   7.863  10.275   8.565 -0.6283  0.7847  0.5825
  631MOL0     C83202   7.800  10.355   8.677 -0.3696 -0.2618  0.5802
  631MOL0     C83203   7.650  10.329   8.681  0.6749 -0.5826 -0.0520
  631MOL0    Cl83204   7.570  10.373   8.532 -0.2081 -0.0831  0.1120
  631MOL0     C83205   8.677  10.635   8.627 -0.0531 -0.5139 -0.5000
  631MOL0     C83206   8.816  10.650   8.629  0.3466  1.0221 -0.2286
  631MOL0     O83207   9.070  10.663   8.912 -0.4564  0.2833 -0.0720
  631MOL0     C83208   9.348  10.624   8.898  0.2637  0.2614 -0.5295
  631MOL0     C83209   9.480  10.566   8.897 -0.7885  0.2574  0.0861
  631MOL0     N83210  10.189  10.689   8.545  1.4978  0.3837 -0.4502
  631MOL0     N83211  10.306  10.738   8.582 -0.9439  0.3467 -1.1482
  631MOL0     C83212   9.741  10.340   9.235  0.1932  0.1923  0.7420
  631MOL0     C83213   9.649  10.241   9.194 -0.9421  0.0219  0.4621
  631MOL0     C83214   9.341   9.959   9.311 -1.0330 -0.0108  0.1766
  631MOL0     C83215   9.230   9.976   9.399 -0.6110 -0.3378 -0.3610
  631MOL0     C83216   9.121   9.886   9.394 -0.0557  0.4310 -0.4914
  631MOL0     C83217   9.128   9.769   9.318 -1.0748  0.1559 -0.0676
  631MOL0     O83218   9.011   9.698   9.316  0.1987 -0.5713  0.1934
  631MOL0     C83219   9.026   9.558   9.345  0.4223  0.8387 -0.5099
  631MOL0     C83220   9.116   9.517   9.479 -0.5037  0.4576 -0.1846
  631MOL0     C83221   9.071   9.592   9.601 -0.4452  0.5194 -0.4204
  631MOL0     C83222   9.125   9.521   9.725 -0.6013  0.5223 -0.5126
  631MOL0     C83223   9.270   9.504   9.736  0.1170 -0.1828  0.2209
  631MOL0     C83224   9.392   9.513   9.728 -0.6742  0.1240 -0.5194
  631MOL0     C83225   9.231   9.754   9.226 -0.6839 -0.3741 -0.3283
  631MOL0     C83226   9.334   9.853   9.221 -0.0951  0.4817  0.3942
  631MOL0     H83227   9.750   9.980   9.393 -3.0836  0.7274  0.1316
  631MOL0     H83228   9.941  10.151   9.430 -1.1713  2.2330  2.9683
  631MOL0     H83229   9.977  10.467   9.150 -0.0610 -1.2135 -0.8817
  631MOL0     H83230  10.077  10.337   9.210  2.2087  1.5809  1.7066
  631MOL0     H83231  10.200  10.464   9.349  1.8438  1.9472  1.4191
  631MOL0     H83232  10.097  10.609   9.343  0.7671 -1.3675  2.7631
  631MOL0     H83233  10.172  10.616   9.089 -1.7668 -0.2984  1.0194
  631MOL0     H83234  10.256  10.471   9.102  0.5524  0.9008 -1.1053
  631MOL0     H83235  10.336  10.722   9.248  0.3036  1.1655 -2.3752
  631MOL0     H83236  10.410  10.560   9.254 -1.8679 -1.1796  1.3448
  631MOL0     H83237  10.451  10.603   8.995  1.2645 -0.9619  1.1692
  631MOL0     H83238  10.518  10.732   9.112 -1.4809  2.7030  0.3423
  631MOL0     H83239  10.324  10.872   9.024  3.8148  1.9033 -1.5381
  631MOL0     H83240  10.270  10.738   8.930  1.6918 -2.2278 -1.5661
  631MOL0     H83241  10.539  10.880   8.904  0.7283 -1.6091  0.4691
  631MOL0     H83242  10.501  10.727   8.819 -0.6162 -1.0031  0.6842
  631MOL0     H83243  10.458  10.928   8.667  1.5949 -0.6120  1.2692
  631MOL0     H83244  10.363  10.998   8.794 -0.8318 -0.8529  1.6518
  631MOL0     H83245  10.090  10.914   8.760  1.9086  1.7172 -0.2904
  631MOL0     H83246   9.947  10.703   8.468  1.9754  1.2693 -0.0958
  631MOL0     H83247   9.886  10.811   8.589 -1.8423 -0.8498  1.2925
  631MOL0     H83248   9.870  10.629   8.758 -1.8003  0.9742 -0.4423
  631MOL0     H83249   9.957  10.519   8.639 -0.2380 -0.2698  2.4822
  631MOL0     H83250   9.679  10.613   8.577  2.2278  2.8179  0.9439
  631MOL0     H83251   9.782  10.510   8.491 -0.0996 -2.2424 -0.2415
  631MOL0     H83252   9.809  10.357   8.701  1.0024  1.6498 -1.7638
  631MOL0     H83253   9.662  10.356   8.611 -1.9998 -0.1600  2.3729
  631MOL0     H83254   9.471  10.419   8.588 -2.0796 -1.3878  0.1338
  631MOL0     H83255   9.248  10.500   8.587  1.7104 -1.5073 -0.3486
  631MOL0     H83256   8.899  10.395   8.834  0.8783 -0.0777  0.4924
  631MOL0     H83257   8.665  10.387   8.871  1.0804  0.6322  1.3100
  631MOL0     H83258   8.436  10.389   8.865 -1.1726 -0.9198  0.5071
  631MOL0     H83259   8.454  10.317   8.706 -1.8441  1.5907 -2.2116
  631MOL0     H83260   8.228  10.502   8.779  0.1117 -0.4214  1.4475
  631MOL0     H83261   8.242  10.328   8.797 -1.7696  2.8346  3.7687
  631MOL0     H83262   8.287  10.292   8.554 -0.0838 -0.0189 -1.8682
  631MOL0     H83263   8.299  10.469   8.526  0.1612 -1.1386 -1.7065
  631MOL0     H83264   8.053  10.480   8.601  2.2575  1.4698 -0.3731
  631MOL0     H83265   8.084  10.403   8.451 -0.8728 -0.6741  0.2079
  631MOL0     H83266   8.020  10.219   8.681  2.0744  0.4324 -0.5917
  631MOL0     H83267   8.042  10.177   8.519  1.8396  0.0964  0.7179
  631MOL0     H83268   7.819  10.176   8.558 -0.6642  0.9244 -2.4975
  631MOL0     H83269   7.838  10.320   8.469 -0.9556 -4.0126 -1.8720
  631MOL0     H83270   7.843  10.332   8.775  1.7568  1.5323  0.1602
  631MOL0     H83271   7.825  10.457   8.646 -2.1512 -0.0687 -0.3275
  631MOL0     H83272   7.600  10.376   8.765 -0.8025 -2.6997  0.3251
  631MOL0     H83273   7.635  10.223   8.706 -0.2206 -0.3549  0.3927
  631MOL0     H83274   8.621  10.707   8.568  0.8360  0.6232  0.0218
  631MOL0     H83275   8.866  10.712   8.556 -0.0357 -0.7229 -2.0633
  631MOL0     H83276   9.328  10.682   8.987  1.8919  0.7262 -0.4361
  631MOL0     H83277   9.551  10.585   8.977  0.0265 -3.2519  0.3298
  631MOL0     H83278   9.718  10.444   9.213 -0.9392 -0.2281 -0.1803
  631MOL0     H83279   9.562  10.276   9.140 -0.6557 -2.5578 -1.8195
  631MOL0     H83280   9.225  10.068   9.456  0.7620 -0.8540  0.6897
  631MOL0     H83281   9.037   9.893   9.462 -0.5789 -3.0018 -0.6277
  631MOL0     H83282   9.064   9.503   9.259 -0.0417  1.7284 -1.2968
  631MOL0     H83283   8.921   9.533   9.365  0.8320  0.2228  1.0025
  631MOL0     H83284   9.103   9.411   9.500 -0.9505  0.5485  0.0116
  631MOL0     H83285   9.221   9.538   9.457 -1.3133  4.1272 -1.3089
  631MOL0     H83286   8.963   9.583   9.611 -0.1638 -3.1766  0.8013
  631MOL0     H83287   9.101   9.697   9.604  0.3427  0.3454 -1.4279
  631MOL0     H83288   9.070   9.571   9.806  2.9029  3.6420  0.2140
  631MOL0     H83289   9.092   9.417   9.733 -1.0836  0.7154  0.1674
  631MOL0     H83290   9.496   9.531   9.713 -0.0082 -2.6371  0.2494
  631MOL0     H83291   9.229   9.667   9.160 -1.8512 -0.1130 -0.6526
  631MOL0     H83292   9.413   9.856   9.147  3.3130 -0.0091  3.6929
  632MOL0     O83293   5.290   7.738   1.509  0.6409 -0.1088  0.5446
  632MOL0     C83294   5.363   7.833   1.482  0.0760 -0.1295  0.8999
  632MOL0     O83295   5.321   7.964   1.475  0.4482  0.7738  0.0177
  632MOL0     C83296   5.189   8.000   1.494  0.5668  0.3547 -0.9184
  632MOL0     C83297   5.150   8.115   1.417  1.0775  0.3680  0.8450
  632MOL0     C83298   5.022   8.162   1.417  1.0503  1.6400 -0.1661
  632MOL0     C83299   4.922   8.107   1.499  0.2013  0.4205 -0.6998
  632MOL0     O83300   4.793   8.164   1.514 -0.1227  0.9669  0.5515
  632MOL0     C83301   4.759   8.272   1.422  0.2983  0.1084 -0.0538
  632MOL0     C83302   4.608   8.286   1.439  0.6054  0.6956  0.4412
  632MOL0     C83303   4.553   8.280   1.589 -0.6240 -0.4724 -0.5074
  632MOL0     C83304   4.409   8.318   1.599  1.1312  0.3686 -0.1055
  632MOL0     C83305   4.354   8.283   1.730 -0.4935 -0.0414 -0.0484
  632MOL0     C83306   4.222   8.352   1.744  0.8861 -0.4638 -0.1121
  632MOL0     C83307   4.176   8.344   1.890  0.5659  0.1427  0.4541
  632MOL0     C83308   4.046   8.419   1.909  0.1788 -0.1382 -1.1455
  632MOL0     N83309   3.996   8.392   2.050 -0.2331  0.5467 -0.2791
  632MOL0     C83310   3.867   8.351   2.085 -0.0934 -0.0861 -0.1040
  632MOL0     C83311   3.865   8.344   2.224 -0.3609  0.1338 -0.3101
  632MOL0     C83312   3.762   8.306   2.325 -0.0020  0.2410 -1.4319
  632MOL0     C83313   3.768   8.157   2.356 -0.0760  0.0588 -0.4118
  632MOL0     C83314   3.677   8.113   2.470 -0.4101 -0.2424  0.4513
  632MOL0     C83315   3.533   8.146   2.455  0.0532 -0.4194  0.3158
  632MOL0     O83316   3.486   8.075   2.345  0.7962  0.4991 -0.3654
  632MOL0     C83317   3.355   8.024   2.337 -0.3387 -0.5181 -0.0559
  632MOL0     C83318   3.307   7.990   2.213 -0.4215  0.0298 -0.5810
  632MOL0     C83319   3.183   7.929   2.192 -0.0948  0.2128 -0.4928
  632MOL0     C83320   3.093   7.927   2.302  0.3304 -0.1625 -0.1032
  632MOL0     C83321   2.964   7.854   2.284 -0.1171  0.0687  1.2276
  632MOL0     O83322   2.891   7.838   2.396 -0.0073 -0.3502  0.4510
  632MOL0     C83323   2.766   7.789   2.404 -0.0052  0.6946  0.9074
  632MOL0     C83324   2.730   7.736   2.527  0.1919 -0.2352 -1.3449
  632MOL0     C83325   2.592   7.695   2.542  0.1213 -0.4341 -0.3771
  632MOL0     C83326   2.506   7.698   2.434  0.1893  0.3700 -1.1699
  632MOL0     O83327   2.381   7.642   2.450 -0.7001  0.6971 -0.1542
  632MOL0     C83328   2.265   7.699   2.395 -0.8856  0.1739 -0.3304
  632MOL0     C83329   2.139   7.645   2.460 -0.6266  0.2946  0.5102
  632MOL0     C83330   2.035   7.753   2.478  0.2692 -0.1014  0.3075
  632MOL0     C83331   1.904   7.678   2.514 -0.1003  0.6558 -0.4523
  632MOL0     C83332   1.795   7.781   2.533  0.2109 -0.4990 -0.1879
  632MOL0     C83333   1.668   7.700   2.542  0.2827  0.1486 -0.4404
  632MOL0     C83334   1.547   7.794   2.574  0.6657  0.3376 -0.3677
  632MOL0     C83335   1.407   7.730   2.534 -0.5160 -0.0470 -0.4109
  632MOL0    Cl83336   1.296   7.773   2.672  0.2623 -0.5022  0.2485
  632MOL0     C83337   2.543   7.744   2.310  0.4553  0.0515  0.0410
  632MOL0     C83338   2.673   7.784   2.298  0.1289  0.3644  0.7055
  632MOL0     O83339   2.931   7.825   2.167 -0.0769 -0.3594  0.0625
  632MOL0     C83340   3.139   7.972   2.427 -0.2341 -0.2113 -0.1051
  632MOL0     C83341   3.272   8.016   2.446 -0.0305 -0.1175 -0.3832
  632MOL0     N83342   3.995   8.368   2.268  0.3481 -0.1417  0.0581
  632MOL0     N83343   4.065   8.407   2.167 -0.4179  0.5998  0.3782
  632MOL0     C83344   4.959   7.996   1.579  0.2909 -0.3268  0.6724
  632MOL0     C83345   5.089   7.942   1.571  0.6394 -0.2043  1.2993
  632MOL0     C83346   5.514   7.824   1.464  0.2578  0.5049 -0.1075
  632MOL0     C83347   5.568   7.697   1.462  0.2426 -0.2399  0.0592
  632MOL0     C83348   5.700   7.674   1.438 -0.2075 -0.8596  0.1313
  632MOL0     C83349   5.779   7.789   1.414  0.1799  0.0542  0.4153
  632MOL0     O83350   5.912   7.765   1.403  0.2339  0.0164 -0.1412
  632MOL0     C83351   5.983   7.786   1.277  0.5124  0.5953 -0.1752
  632MOL0     C83352   5.963   7.669   1.186 -0.4049  0.8315 -0.2727
  632MOL0     C83353   6.012   7.534   1.258 -0.9150 -0.0360 -0.8638
  632MOL0     C83354   5.958   7.400   1.200  0.4470  0.5855  0.7958
  632MOL0     C83355   5.818   7.379   1.238  0.3217  0.0664  0.2279
  632MOL0     C83356   5.708   7.366   1.275 -1.1148  0.5037 -0.9579
  632MOL0     C83357   5.729   7.920   1.433 -0.4497  0.0903 -0.0021
  632MOL0     C83358   5.591   7.938   1.453 -0.4760  0.1560  0.6465
  632MOL0     H83359   5.219   8.169   1.353 -1.5969  2.8006 -0.1939
  632MOL0     H83360   5.001   8.249   1.355  2.8118 -0.4035 -3.9864
  632MOL0     H83361   4.786   8.255   1.317 -2.4406  2.5900 -1.2997
  632MOL0     H83362   4.807   8.366   1.454 -0.2280  0.4929 -0.3719
  632MOL0     H83363   4.560   8.206   1.381  0.4061  1.2187 -0.1301
  632MOL0     H83364   4.577   8.380   1.393  1.3513  0.7845  0.1106
  632MOL0     H83365   4.618   8.346   1.647 -1.2713 -0.1799 -0.0934
  632MOL0     H83366   4.567   8.179   1.628 -2.1303 -0.5719 -0.1622
  632MOL0     H83367   4.405   8.423   1.570 -0.9103  0.4124  0.1875
  632MOL0     H83368   4.350   8.271   1.520 -0.7451  0.7119  1.0256
  632MOL0     H83369   4.433   8.308   1.801  1.6851 -0.7536 -2.0959
  632MOL0     H83370   4.334   8.177   1.748  2.4235 -0.9956 -1.8460
  632MOL0     H83371   4.148   8.312   1.674 -0.6763  1.3163  0.4432
  632MOL0     H83372   4.235   8.460   1.731 -4.5064  0.6894  1.3618
  632MOL0     H83373   4.141   8.244   1.916 -4.6171  2.0666  2.2341
  632MOL0     H83374   4.248   8.360   1.971  0.5407  0.5732  0.3963
  632MOL0     H83375   3.966   8.410   1.835 -0.8282  2.0208 -0.3857
  632MOL0     H83376   4.074   8.524   1.915 -0.3764 -0.0486  0.4610
  632MOL0     H83377   3.776   8.338   2.028 -0.5578 -0.1612  0.6316
  632MOL0     H83378   3.665   8.333   2.281  0.0504  2.5249 -0.3088
  632MOL0     H83379   3.774   8.360   2.419 -0.1910  0.1836 -1.3743
  632MOL0     H83380   3.871   8.130   2.378  0.2133  1.9251  0.7597
  632MOL0     H83381   3.748   8.095   2.267 -0.6633 -4.8149  2.7417
  632MOL0     H83382   3.690   8.006   2.489  1.3198 -0.4224 -1.4083
  632MOL0     H83383   3.698   8.171   2.560 -4.0466  0.9660  0.6734
  632MOL0     H83384   3.528   8.253   2.433  0.3498 -0.7429 -1.5254
  632MOL0     H83385   3.486   8.125   2.551  3.5197 -0.3998  2.1749
  632MOL0     H83386   3.381   8.010   2.136 -4.2568  3.9313 -3.7332
  632MOL0     H83387   3.161   7.881   2.097  1.0433 -1.1427 -0.0976
  632MOL0     H83388   2.812   7.737   2.599  1.8674 -2.5139 -3.0705
  632MOL0     H83389   2.562   7.662   2.641 -3.5715  0.9992 -0.8322
  632MOL0     H83390   2.251   7.664   2.292 -4.9612 -1.8986  0.7030
  632MOL0     H83391   2.270   7.808   2.398 -2.2379  0.2665  2.6544
  632MOL0     H83392   2.164   7.611   2.560  1.6392 -0.7889 -0.3601
  632MOL0     H83393   2.103   7.563   2.397  1.8873  0.9607 -2.0051
  632MOL0     H83394   2.011   7.817   2.392  0.1252  1.2165  1.3086
  632MOL0     H83395   2.053   7.829   2.554 -0.3784  0.6702 -0.2819
  632MOL0     H83396   1.869   7.619   2.429 -2.8244  1.6547 -0.1072
  632MOL0     H83397   1.919   7.612   2.600 -2.6567  0.8888  0.2331
  632MOL0     H83398   1.781   7.848   2.447  0.8911  1.5039  1.1998
  632MOL0     H83399   1.803   7.842   2.622  1.0543  0.2246 -0.7430
  632MOL0     H83400   1.681   7.627   2.623 -1.3520  0.0591 -0.2330
  632MOL0     H83401   1.637   7.650   2.449 -2.1326  2.9512 -1.2763
  632MOL0     H83402   1.541   7.811   2.682 -3.2861  0.7079 -0.4779
  632MOL0     H83403   1.556   7.890   2.522 -0.7216  0.4776 -0.3875
  632MOL0     H83404   1.420   7.623   2.516 -0.8724  0.2095 -2.4105
  632MOL0     H83405   1.363   7.769   2.442  1.3984  0.2401 -1.2332
  632MOL0     H83406   2.474   7.728   2.228 -0.4420  1.4343  0.4873
  632MOL0     H83407   2.703   7.814   2.198 -1.8769 -0.5661 -0.2332
  632MOL0     H83408   3.071   7.965   2.512 -2.0947  3.4702 -1.0823
  632MOL0     H83409   3.312   8.028   2.545  0.8191 -4.8507  0.1105
  632MOL0     H83410   4.889   7.949   1.648  0.2528  1.1411  1.6667
  632MOL0     H83411   5.093   7.849   1.626  0.1386 -1.4362 -0.6543
  632MOL0     H83412   5.502   7.619   1.498  0.2359 -0.2039  0.1227
  632MOL0     H83413   5.740   7.573   1.436  2.1139 -0.0834  2.0155
  632MOL0     H83414   6.088   7.788   1.305  0.5376  1.5736 -0.3035
  632MOL0     H83415   5.955   7.879   1.226 -2.5408  0.2435  0.6701
  632MOL0     H83416   5.858   7.644   1.164 -0.4865  1.1841 -0.2868
  632MOL0     H83417   6.010   7.689   1.090 -1.3605  1.2438 -0.6731
  632MOL0     H83418   5.981   7.539   1.363  0.0490 -3.5166 -0.3003
  632MOL0     H83419   6.121   7.545   1.260 -0.9212  0.1669 -1.3974
  632MOL0     H83420   5.965   7.396   1.091 -0.3971 -2.6459  0.7403
  632MOL0     H83421   6.006   7.311   1.242 -2.1026 -2.8847 -2.8193
  632MOL0     H83422   5.610   7.342   1.311 -1.6565  1.5073 -1.7063
  632MOL0     H83423   5.798   8.003   1.422  0.6248 -0.4447  2.0831
  632MOL0     H83424   5.548   8.037   1.453 -2.5396 -0.5410 -3.4163
  633MOL0     O83425   7.388   6.243   8.121 -0.0402 -0.5241  0.3648
  633MOL0     C83426   7.424   6.338   8.051  0.4200  0.1240 -0.1777
  633MOL0     O83427   7.333   6.413   7.976  0.5606 -0.9889  0.2731
  633MOL0     C83428   7.193   6.389   7.967 -0.3188 -0.1575  0.7789
  633MOL0     C83429   7.131   6.260   7.988 -0.7601 -0.1600  0.1469
  633MOL0     C83430   6.998   6.235   7.984  1.0107  0.5737  0.0800
  633MOL0     C83431   6.914   6.336   7.937  0.1172 -0.0197 -0.3129
  633MOL0     O83432   6.776   6.307   7.942 -0.6901 -0.4746 -0.2864
  633MOL0     C83433   6.687   6.385   7.866 -0.4248 -0.6322  0.9101
  633MOL0     C83434   6.550   6.343   7.883 -0.5577  0.8973 -0.2348
  633MOL0     C83435   6.531   6.206   7.823 -0.4797 -0.3489  0.5036
  633MOL0     C83436   6.379   6.179   7.828  1.8566  0.5999 -0.0184
  633MOL0     C83437   6.334   6.035   7.782 -0.3079 -0.8722 -0.1097
  633MOL0     C83438   6.305   6.036   7.629 -0.4552 -1.6220  0.2578
  633MOL0     C83439   6.187   5.948   7.583  0.1777 -0.0909 -0.1613
  633MOL0     C83440   6.044   6.026   7.551  1.2235  0.3027 -0.0536
  633MOL0     N83441   5.933   5.935   7.551 -0.6111  0.3356 -0.4564
  633MOL0     C83442   5.879   5.877   7.656  0.4164  0.0196 -0.1686
  633MOL0     C83443   5.774   5.808   7.600 -0.4043  0.8896  0.1646
  633MOL0     C83444   5.677   5.733   7.684 -1.0477  0.4705  1.0024
  633MOL0     C83445   5.531   5.783   7.689  0.2017 -0.0985  1.1249
  633MOL0     C83446   5.438   5.750   7.575 -0.5739  0.1595  0.9115
  633MOL0     C83447   5.345   5.865   7.552  0.6617 -0.2748  0.5554
  633MOL0     O83448   5.424   5.973   7.491  0.3924  0.9105 -0.0544
  633MOL0     C83449   5.394   6.105   7.493  0.3163 -1.3038 -0.5650
  633MOL0     C83450   5.492   6.206   7.500  0.1581  0.0522  0.7579
  633MOL0     C83451   5.457   6.340   7.505 -0.5887  0.9600  0.4920
  633MOL0     C83452   5.329   6.374   7.513  0.2602 -0.1455 -0.0246
  633MOL0     C83453   5.293   6.516   7.529  0.3959  0.2363 -0.6070
  633MOL0     O83454   5.329   6.579   7.648 -0.6374 -0.1555 -0.1854
  633MOL0     C83455   5.271   6.701   7.672  0.2361 -0.1807  0.8968
  633MOL0     C83456   5.132   6.717   7.707  0.1343 -0.1434  0.3096
  633MOL0     C83457   5.083   6.847   7.734  0.3887 -1.1075  0.5710
  633MOL0     C83458   5.174   6.954   7.733  0.7909 -0.0444 -0.3138
  633MOL0     O83459   5.124   7.078   7.743 -0.8679  0.1477 -0.2614
  633MOL0     C83460   5.062   7.128   7.626 -0.1615 -0.3551  0.8167
  633MOL0     C83461   4.921   7.181   7.673 -0.0987 -0.2513  0.0602
  633MOL0     C83462   4.832   7.231   7.566 -0.6527 -0.3661  0.5803
  633MOL0     C83463   4.687   7.229   7.614  0.4118 -0.8216  0.2653
  633MOL0     C83464   4.586   7.279   7.510  0.3586 -0.0153 -0.0887
  633MOL0     C83465   4.438   7.259   7.544  0.2246  0.2077  0.5889
  633MOL0     C83466   4.383   7.120   7.548 -0.0706  0.6204  0.0240
  633MOL0     C83467   4.235   7.118   7.584 -1.4532  0.4981  0.4223
  633MOL0    Cl83468   4.177   6.958   7.545  0.1187 -0.2799  0.0920
  633MOL0     C83469   5.300   6.939   7.699 -0.9280 -0.0580 -0.1500
  633MOL0     C83470   5.352   6.816   7.664  0.9952  0.2520  0.0652
  633MOL0     O83471   5.216   6.559   7.444  0.1021 -0.4421 -0.3738
  633MOL0     C83472   5.226   6.282   7.501 -0.1228 -0.2617  0.7856
  633MOL0     C83473   5.257   6.145   7.495  0.0498 -0.2912  0.7455
  633MOL0     N83474   5.777   5.835   7.464 -0.5019  0.7289 -0.5510
  633MOL0     N83475   5.878   5.912   7.437  0.5482 -0.0669 -0.0907
  633MOL0     C83476   6.967   6.460   7.904 -0.3145  0.7304  0.3921
  633MOL0     C83477   7.102   6.488   7.926 -0.3310  0.8606 -0.3154
  633MOL0     C83478   7.576   6.366   8.065  0.2787  0.3930  0.3789
  633MOL0     C83479   7.663   6.267   8.111 -0.0718 -0.1061  0.3766
  633MOL0     C83480   7.803   6.288   8.115  0.3732  0.0349 -0.2135
  633MOL0     C83481   7.854   6.412   8.071 -1.0222 -0.1685  0.5374
  633MOL0     O83482   7.983   6.454   8.058 -0.3434  0.2570 -0.2960
  633MOL0     C83483   8.094   6.386   8.122  0.7104  0.1806  0.2281
  633MOL0     C83484   8.218   6.463   8.094  0.9570 -0.2278 -0.2783
  633MOL0     C83485   8.344   6.388   8.155  0.6839  0.5488  1.0661
  633MOL0     C83486   8.464   6.473   8.123  0.0676  0.0952 -0.1148
  633MOL0     C83487   8.591   6.421   8.169 -0.7764  0.0676  0.9273
  633MOL0     C83488   8.699   6.373   8.205 -0.2972 -0.0469  0.0282
  633MOL0     C83489   7.758   6.508   8.021  0.1036  1.9485  0.3083
  633MOL0     C83490   7.621   6.483   8.020  0.0697 -0.4625  0.1025
  633MOL0     H83491   7.191   6.172   8.009  2.5614  1.8877  0.0547
  633MOL0     H83492   6.958   6.139   8.014  0.1686  0.1208 -2.3069
  633MOL0     H83493   6.729   6.381   7.765  1.1007  0.8622  1.4384
  633MOL0     H83494   6.697   6.487   7.904  0.5375 -0.3703  0.0078
  633MOL0     H83495   6.487   6.417   7.833  1.9260  1.6329 -2.4756
  633MOL0     H83496   6.531   6.338   7.990 -0.3063 -0.3351 -0.2348
  633MOL0     H83497   6.590   6.138   7.887  0.0769  0.9718  1.4456
  633MOL0     H83498   6.571   6.204   7.721 -0.1879  2.0522  0.5110
  633MOL0     H83499   6.343   6.176   7.931 -2.4481 -1.4696 -1.3277
  633MOL0     H83500   6.323   6.255   7.772  0.1422  1.1810  2.3216
  633MOL0     H83501   6.242   6.013   7.837  0.8316  0.1509  2.3224
  633MOL0     H83502   6.407   5.969   7.828 -0.3743  0.3401  1.8314
  633MOL0     H83503   6.389   5.985   7.581 -1.6354 -1.9165 -1.5914
  633MOL0     H83504   6.305   6.140   7.595  0.7505 -0.5980  3.0887
  633MOL0     H83505   6.211   5.893   7.491 -2.1331  2.3029 -2.3473
  633MOL0     H83506   6.161   5.876   7.661  1.0715  0.1563  0.3850
  633MOL0     H83507   6.053   6.080   7.457  1.5511  0.5777  0.1304
  633MOL0     H83508   6.037   6.105   7.627  0.9981  1.6915 -1.4834
  633MOL0     H83509   5.894   5.887   7.763  1.8485  2.0460 -0.4881
  633MOL0     H83510   5.713   5.744   7.787  2.7695 -1.0873  0.0042
  633MOL0     H83511   5.682   5.626   7.660  1.2563  1.2880 -2.9348
  633MOL0     H83512   5.533   5.893   7.692 -1.1659  0.4204 -4.6383
  633MOL0     H83513   5.489   5.736   7.778 -0.6924 -0.0231  0.7522
  633MOL0     H83514   5.481   5.731   7.476 -2.0326 -1.3987  0.5167
  633MOL0     H83515   5.389   5.657   7.606  0.3234  0.3142  2.9547
  633MOL0     H83516   5.294   5.888   7.646  3.5839  0.3284  2.1105
  633MOL0     H83517   5.274   5.841   7.472  0.6946  0.8016  0.1802
  633MOL0     H83518   5.596   6.178   7.492 -0.0052 -1.3098  2.7498
  633MOL0     H83519   5.530   6.419   7.516 -0.0164  0.6318 -0.7926
  633MOL0     H83520   5.067   6.631   7.721  0.5352 -0.4278  0.4507
  633MOL0     H83521   4.979   6.865   7.756  0.1362  0.0924 -1.4055
  633MOL0     H83522   5.039   7.067   7.538 -0.6978  0.7259  0.1807
  633MOL0     H83523   5.124   7.210   7.588  0.1468 -1.3316 -0.8915
  633MOL0     H83524   4.943   7.249   7.756  0.0954 -0.9911  0.6230
  633MOL0     H83525   4.869   7.094   7.713 -2.1219 -0.3630 -2.5774
  633MOL0     H83526   4.831   7.181   7.469 -1.0103  1.6010 -0.4859
  633MOL0     H83527   4.843   7.336   7.535 -1.9063 -0.1848  0.6947
  633MOL0     H83528   4.664   7.133   7.662  1.2644 -0.1516  2.1358
  633MOL0     H83529   4.689   7.296   7.701 -2.5010  0.6847 -0.6962
  633MOL0     H83530   4.602   7.209   7.427 -1.8827  2.0141 -2.3823
  633MOL0     H83531   4.601   7.382   7.478 -1.5708  0.2764 -0.1936
  633MOL0     H83532   4.384   7.323   7.474  1.3466  2.1221  1.4233
  633MOL0     H83533   4.422   7.299   7.644 -0.9556 -0.8554  0.8544
  633MOL0     H83534   4.388   7.080   7.447  0.4642  0.2561  0.1899
  633MOL0     H83535   4.445   7.054   7.609  0.4580 -0.4171 -1.5825
  633MOL0     H83536   4.172   7.184   7.523 -0.7628 -0.6401 -1.6368
  633MOL0     H83537   4.225   7.152   7.687  0.1591  2.6188 -0.0538
  633MOL0     H83538   5.373   7.019   7.687 -1.0967 -0.0429 -1.2495
  633MOL0     H83539   5.456   6.803   7.639  0.4598 -2.6676 -1.0616
  633MOL0     H83540   5.122   6.305   7.483 -0.0665 -0.4883  0.1272
  633MOL0     H83541   5.175   6.076   7.477  1.5369 -1.0370 -4.9754
  633MOL0     H83542   6.899   6.540   7.876  0.3054  1.5980  1.3016
  633MOL0     H83543   7.146   6.587   7.917  1.5461  0.1469  0.3354
  633MOL0     H83544   7.626   6.175   8.154 -4.1221  0.7441 -0.8162
  633MOL0     H83545   7.874   6.214   8.152 -1.0052 -1.0292  0.3674
  633MOL0     H83546   8.101   6.285   8.080  0.1029  0.5281 -0.7462
  633MOL0     H83547   8.077   6.382   8.230  0.2165 -1.7078  0.1112
  633MOL0     H83548   8.224   6.471   7.985 -0.6858 -1.6317 -0.5135
  633MOL0     H83549   8.214   6.567   8.127 -1.2899  0.0956 -1.3530
  633MOL0     H83550   8.352   6.299   8.092 -4.9091  1.5372 -1.6128
  633MOL0     H83551   8.331   6.368   8.262 -0.3245  3.3588  1.5557
  633MOL0     H83552   8.475   6.479   8.014  2.2624  1.7866  0.1289
  633MOL0     H83553   8.446   6.576   8.154 -5.0636  0.0756 -2.0463
  633MOL0     H83554   8.792   6.336   8.244  0.5267 -2.1212 -3.4835
  633MOL0     H83555   7.792   6.603   7.980  4.5178 -0.4758 -2.4848
  633MOL0     H83556   7.546   6.558   7.992 -0.1636  0.1443  2.1494
  634MOL0     O83557   2.258  11.074   9.307  1.0287 -0.4057 -0.1881
  634MOL0     C83558   2.337  10.980   9.274 -1.6791  0.4177 -0.2246
  634MOL0     O83559   2.302  10.862   9.215 -0.8923  0.4508 -0.0544
  634MOL0     C83560   2.170  10.827   9.174 -0.9093 -0.4288  0.4110
  634MOL0     C83561   2.054  10.885   9.225  0.3508  0.2062 -0.8576
  634MOL0     C83562   1.922  10.839   9.186  0.6199  0.1873 -0.2298
  634MOL0     C83563   1.914  10.729   9.093 -0.2648  0.3070  1.2069
  634MOL0     O83564   1.784  10.682   9.073 -0.6822 -0.1837  0.1729
  634MOL0     C83565   1.760  10.541   9.084  0.1343 -0.1801  0.5748
  634MOL0     C83566   1.616  10.514   9.044  0.3788  0.2390  0.6217
  634MOL0     C83567   1.586  10.370   9.011 -0.1768 -1.5728 -0.4514
  634MOL0     C83568   1.439  10.337   8.963 -0.5022 -0.8963  0.0320
  634MOL0     C83569   1.325  10.378   9.052 -0.5729 -0.1082 -0.3890
  634MOL0     C83570   1.194  10.326   9.003  0.6255  0.5582  0.4711
  634MOL0     C83571   1.085  10.433   9.031 -0.2720  0.0523  0.1508
  634MOL0     C83572   0.944  10.392   8.999  0.3483  0.1739  0.0452
  634MOL0     N83573   0.936  10.368   8.855  0.3473 -0.6476  0.2591
  634MOL0     C83574   0.911  10.240   8.812  0.4854 -0.2502 -0.0485
  634MOL0     C83575   0.847  10.256   8.696  0.6776  0.6595  0.3176
  634MOL0     C83576   0.805  10.144   8.599 -0.5536 -0.9187 -0.1105
  634MOL0     C83577   0.742  10.029   8.677 -1.2609  0.3694 -1.4644
  634MOL0     C83578   0.670   9.938   8.593  0.2026  0.2765 -0.1507
  634MOL0     C83579   0.632   9.807   8.668 -0.9665  0.0141  0.0877
  634MOL0     O83580   0.552   9.820   8.787  0.1889 -0.1353 -0.2858
  634MOL0     C83581   0.422   9.794   8.758  0.3972  0.1748  0.2742
  634MOL0     C83582   0.347   9.696   8.828  0.3993 -0.4785  0.4150
  634MOL0     C83583   0.228   9.641   8.779  0.1824  0.2942 -0.5730
  634MOL0     C83584   0.169   9.681   8.664  0.2869 -1.0652 -0.9214
  634MOL0     C83585   0.041   9.625   8.618 -0.5593  0.3788  0.8237
  634MOL0     O83586  -0.016   9.691   8.505 -0.4840  0.1391  0.2933
  634MOL0     C83587  -0.140   9.639   8.465 -0.4234  0.4206 -0.0545
  634MOL0     C83588  -0.162   9.579   8.343  0.0512 -0.1781  0.4695
  634MOL0     C83589  -0.292   9.562   8.292  0.1556 -0.4665  0.0312
  634MOL0     C83590  -0.403   9.608   8.364 -0.1515  0.9945 -0.5566
  634MOL0     O83591  -0.532   9.573   8.316 -0.6367 -0.1565  0.7822
  634MOL0     C83592  -0.566   9.637   8.189  0.4379 -0.3820 -0.3147
  634MOL0     C83593  -0.692   9.587   8.117 -1.7500 -0.1687 -0.5894
  634MOL0     C83594  -0.816   9.641   8.199  0.1756  0.2146  0.5237
  634MOL0     C83595  -0.941   9.617   8.114  1.0725 -0.0272  0.0099
  634MOL0     C83596  -1.071   9.659   8.188  0.3060  0.3146  0.7649
  634MOL0     C83597  -1.101   9.803   8.202  0.0325 -0.9720  0.2027
  634MOL0     C83598  -1.175   9.852   8.330 -0.0781  0.1951 -0.3830
  634MOL0     C83599  -1.317   9.809   8.320  0.0294  0.7600  0.6365
  634MOL0    Cl83600  -1.399   9.838   8.480 -0.2395 -0.2598 -0.0770
  634MOL0     C83601  -0.384   9.664   8.487 -0.0723  0.7284 -0.1780
  634MOL0     C83602  -0.253   9.679   8.537 -0.2525  0.6445  0.4445
  634MOL0     O83603  -0.009   9.542   8.693  0.0954  0.6096  0.6047
  634MOL0     C83604   0.232   9.794   8.599  0.0920  0.0436  0.3538
  634MOL0     C83605   0.354   9.837   8.643 -0.6004 -0.0088  0.2024
  634MOL0     N83606   0.841  10.393   8.665  0.3996 -0.3956 -1.0616
  634MOL0     N83607   0.882  10.457   8.766 -0.3461 -0.0884 -0.0714
  634MOL0     C83608   2.035  10.671   9.051  0.1955 -0.2054  0.8451
  634MOL0     C83609   2.164  10.716   9.079 -0.5358  0.5212 -0.8392
  634MOL0     C83610   2.472  10.991   9.321  1.1782 -0.6570 -0.6086
  634MOL0     C83611   2.563  10.881   9.297  0.1550  0.1131 -0.3018
  634MOL0     C83612   2.688  10.886   9.354  0.5459  0.1351  0.1950
  634MOL0     C83613   2.731  10.995   9.426  0.2321  0.8054  0.6828
  634MOL0     O83614   2.860  10.988   9.469 -0.2521 -0.2221  0.2963
  634MOL0     C83615   2.908  11.096   9.558 -0.4434 -0.5696 -0.2576
  634MOL0     C83616   3.073  11.094   9.574  0.0007 -0.4970 -0.4776
  634MOL0     C83617   3.133  11.095   9.436  0.7071 -0.9024  0.2886
  634MOL0     C83618   3.278  11.117   9.435  0.1207  0.5234  0.4610
  634MOL0     C83619   3.335  10.987   9.467 -0.3473 -1.2353  0.0537
  634MOL0     C83620   3.384  10.875   9.493  0.1050 -0.2898  0.1320
  634MOL0     C83621   2.643  11.107   9.443 -0.6451  0.6405  0.6793
  634MOL0     C83622   2.518  11.106   9.385  0.2510  0.8432 -0.2517
  634MOL0     H83623   2.065  10.970   9.291  5.0196 -0.9590  0.2796
  634MOL0     H83624   1.831  10.876   9.233 -0.1345  1.6985 -2.6899
  634MOL0     H83625   1.767  10.527   9.192  2.4402  1.0930  0.6707
  634MOL0     H83626   1.834  10.487   9.023  0.1530  4.6500 -4.5417
  634MOL0     H83627   1.588  10.580   8.962 -1.1727 -0.3651  0.6357
  634MOL0     H83628   1.550  10.539   9.127 -1.2227 -0.9752 -0.2313
  634MOL0     H83629   1.603  10.317   9.105 -1.2132 -1.2886 -0.0921
  634MOL0     H83630   1.658  10.327   8.940  0.6831  3.3129 -2.9651
  634MOL0     H83631   1.416  10.391   8.870  3.8916  0.5790 -0.4406
  634MOL0     H83632   1.440  10.229   8.941  1.2266 -1.3956  2.2463
  634MOL0     H83633   1.325  10.487   9.063  0.1666 -0.1418 -0.0174
  634MOL0     H83634   1.338  10.342   9.155  0.2544  0.6467 -0.2117
  634MOL0     H83635   1.153  10.238   9.052 -0.5589 -1.0193 -3.0071
  634MOL0     H83636   1.201  10.304   8.896  1.7481 -0.7396  0.7894
  634MOL0     H83637   1.086  10.458   9.137  0.5838  0.6772 -0.0047
  634MOL0     H83638   1.106  10.525   8.976 -0.3962 -1.0434 -1.8510
  634MOL0     H83639   0.877  10.470   9.035 -2.4636 -1.3412 -1.6078
  634MOL0     H83640   0.917  10.300   9.052 -0.7417  0.7915  0.5763
  634MOL0     H83641   0.939  10.150   8.866  2.1210  0.5509  0.5315
  634MOL0     H83642   0.892  10.121   8.536  0.9640  2.7607  0.4055
  634MOL0     H83643   0.743  10.198   8.526 -1.0852  0.9697  1.6639
  634MOL0     H83644   0.665  10.062   8.748 -1.9929 -1.2573 -1.4614
  634MOL0     H83645   0.822   9.986   8.737 -3.0997 -1.3257 -0.1151
  634MOL0     H83646   0.580   9.985   8.551 -1.1912 -1.4540  0.7476
  634MOL0     H83647   0.734   9.919   8.507  0.9891 -1.7225  0.8059
  634MOL0     H83648   0.723   9.750   8.687  0.2293  1.1164 -1.9385
  634MOL0     H83649   0.583   9.740   8.597 -0.0817 -2.5299  1.7170
  634MOL0     H83650   0.397   9.656   8.916  2.2610  4.3316  1.8893
  634MOL0     H83651   0.176   9.565   8.837 -0.4295  3.0123  2.8017
  634MOL0     H83652  -0.077   9.547   8.284  0.5539  1.2825  0.3533
  634MOL0     H83653  -0.305   9.504   8.201  1.1418 -1.0362  0.2434
  634MOL0     H83654  -0.483   9.616   8.121  0.5199 -3.5469  0.6332
  634MOL0     H83655  -0.581   9.742   8.217  0.9197  0.1757 -2.0041
  634MOL0     H83656  -0.685   9.478   8.117 -2.5492 -0.2286 -0.1831
  634MOL0     H83657  -0.692   9.637   8.020  0.7446  0.7982 -0.1452
  634MOL0     H83658  -0.800   9.749   8.208 -0.6244  0.3111  0.8696
  634MOL0     H83659  -0.831   9.600   8.300 -2.2367  0.3473  0.2901
  634MOL0     H83660  -0.942   9.662   8.014  0.1828 -2.2277 -1.0292
  634MOL0     H83661  -0.945   9.509   8.099 -0.6515  0.0129 -0.0679
  634MOL0     H83662  -1.064   9.604   8.282 -0.6862 -3.1475 -0.9729
  634MOL0     H83663  -1.153   9.605   8.139  0.5512 -2.0481  2.7364
  634MOL0     H83664  -1.172   9.837   8.126  1.3316  1.3791 -0.0699
  634MOL0     H83665  -1.011   9.865   8.189 -1.2227  1.0540  0.7111
  634MOL0     H83666  -1.134   9.813   8.424  0.2613  3.7825  1.1358
  634MOL0     H83667  -1.171   9.962   8.333  1.1794  0.1509  1.1061
  634MOL0     H83668  -1.324   9.702   8.297 -1.8766  0.9458  0.2014
  634MOL0     H83669  -1.362   9.848   8.229  0.6731 -1.7764 -0.8690
  634MOL0     H83670  -0.461   9.720   8.540  1.6975  5.4004 -1.9975
  634MOL0     H83671  -0.243   9.721   8.637 -0.9506 -0.7481  1.1442
  634MOL0     H83672   0.199   9.837   8.505  1.0485  2.0901  0.8955
  634MOL0     H83673   0.394   9.914   8.578  0.6959  1.9166  3.0403
  634MOL0     H83674   2.034  10.580   8.992  0.4069  0.7217 -0.6483
  634MOL0     H83675   2.250  10.658   9.045  0.6256  1.5629  0.2138
  634MOL0     H83676   2.528  10.791   9.248 -2.1789 -0.1662  1.7331
  634MOL0     H83677   2.768  10.814   9.339 -0.1031 -0.3184 -1.2776
  634MOL0     H83678   2.866  11.112   9.657  1.1804  0.5792  0.2983
  634MOL0     H83679   2.883  11.193   9.513 -1.0205  1.8156  4.5429
  634MOL0     H83680   3.107  11.177   9.637 -3.0886 -1.8713  3.4241
  634MOL0     H83681   3.083  10.997   9.624 -2.7501  0.1796  1.6159
  634MOL0     H83682   3.090  11.172   9.371  2.8724  0.8326  0.7791
  634MOL0     H83683   3.114  10.999   9.388 -0.0839 -1.8593  2.3844
  634MOL0     H83684   3.308  11.139   9.333 -0.2413 -1.0359 -0.0059
  634MOL0     H83685   3.304  11.189   9.514  0.0799  2.0160 -0.8458
  634MOL0     H83686   3.448  10.793   9.518  1.8376  1.7255  2.8551
  634MOL0     H83687   2.686  11.191   9.497  2.0097 -1.8845  2.8357
  634MOL0     H83688   2.456  11.193   9.405 -0.2429  0.5251 -0.3653
  635MOL0     O83689   6.642   5.637   9.654 -0.4343  0.4164  0.3187
  635MOL0     C83690   6.702   5.575   9.743 -1.0818 -0.1060 -0.1518
  635MOL0     O83691   6.650   5.536   9.863 -0.0749 -0.0418 -0.1252
  635MOL0     C83692   6.521   5.520   9.878  0.4217 -0.5119  0.6503
  635MOL0     C83693   6.436   5.472   9.775 -0.1702  0.7694 -0.9364
  635MOL0     C83694   6.299   5.445   9.795 -0.2427 -0.0506 -0.2658
  635MOL0     C83695   6.245   5.460   9.919 -0.6568 -0.1360 -0.9437
  635MOL0     O83696   6.116   5.417   9.926  0.3644  0.2544  0.4735
  635MOL0     C83697   6.018   5.482  10.003 -0.1139  1.0939 -0.5097
  635MOL0     C83698   5.903   5.384  10.046  0.3204  0.2600  0.1312
  635MOL0     C83699   5.783   5.451  10.109  0.3656 -0.1653 -0.2766
  635MOL0     C83700   5.682   5.361  10.173 -0.1481 -0.5603 -0.3080
  635MOL0     C83701   5.543   5.435  10.171 -0.1540 -0.8515 -0.2737
  635MOL0     C83702   5.431   5.338  10.213  0.3444 -0.3648  0.3123
  635MOL0     C83703   5.310   5.416  10.256 -0.7262 -1.3852  0.2030
  635MOL0     C83704   5.204   5.325  10.325  0.3355  0.0052  0.7929
  635MOL0     N83705   5.090   5.413  10.359 -0.0355  0.2041 -0.1376
  635MOL0     C83706   5.086   5.477  10.481  0.1894  0.2488  0.9779
  635MOL0     C83707   4.964   5.542  10.477 -0.0247  0.1651 -0.1367
  635MOL0     C83708   4.915   5.615  10.598  0.8284  0.5397  0.8703
  635MOL0     C83709   4.828   5.732  10.549  0.3826 -0.1007  0.8349
  635MOL0     C83710   4.781   5.831  10.660  0.4427  0.0561 -0.3693
  635MOL0     C83711   4.692   5.759  10.769 -0.2793  0.3278 -0.2831
  635MOL0     O83712   4.772   5.680  10.851  0.4390  1.1427 -0.0288
  635MOL0     C83713   4.705   5.585  10.937  0.1410  0.6951  1.3548
  635MOL0     C83714   4.564   5.583  10.964  0.4881 -0.3819 -0.1671
  635MOL0     C83715   4.513   5.481  11.050 -0.0360  0.0906  0.8354
  635MOL0     C83716   4.586   5.374  11.103  0.3436  0.0206  0.7094
  635MOL0     C83717   4.517   5.265  11.174 -0.1146 -0.1975  0.0856
  635MOL0     O83718   4.380   5.239  11.156 -0.0118  0.3360  0.4479
  635MOL0     C83719   4.318   5.146  11.239 -0.4513 -0.7457 -0.8952
  635MOL0     C83720   4.207   5.190  11.312 -1.3695 -0.2381 -0.2490
  635MOL0     C83721   4.145   5.111  11.414 -0.5050 -0.3999 -0.1415
  635MOL0     C83722   4.199   4.987  11.439 -0.1417 -0.3052 -0.2037
  635MOL0     O83723   4.147   4.910  11.540  0.2866 -0.3761 -0.4149
  635MOL0     C83724   4.174   4.772  11.533  0.0369  0.5337  0.6718
  635MOL0     C83725   4.090   4.678  11.627 -0.2291  0.5373 -0.2433
  635MOL0     C83726   4.117   4.690  11.777 -0.6071  0.0713  0.0743
  635MOL0     C83727   4.025   4.608  11.879  0.2775  0.3725  0.7870
  635MOL0     C83728   4.049   4.650  12.023 -0.7231  0.9198 -0.2795
  635MOL0     C83729   3.960   4.763  12.071 -0.2045 -0.0833  0.3909
  635MOL0     C83730   3.961   4.792  12.221 -0.4563 -1.6596 -0.8387
  635MOL0     C83731   3.874   4.897  12.282  0.4208 -0.1224 -0.5711
  635MOL0    Cl83732   3.708   4.882  12.234  0.2347  0.1985  0.1336
  635MOL0     C83733   4.307   4.941  11.367 -0.5592 -0.5076  0.5730
  635MOL0     C83734   4.369   5.020  11.275  0.0296  0.1822  0.6620
  635MOL0     O83735   4.592   5.207  11.253 -0.2437  0.9037  0.0797
  635MOL0     C83736   4.720   5.374  11.078 -0.4651 -0.3343 -0.4393
  635MOL0     C83737   4.780   5.476  11.000  1.1150 -0.3183  0.3134
  635MOL0     N83738   4.900   5.514  10.357 -1.0429  0.5830  1.8072
  635MOL0     N83739   4.984   5.440  10.289  0.6136 -0.1871  0.2772
  635MOL0     C83740   6.324   5.525  10.020 -0.1154  0.9753  0.4664
  635MOL0     C83741   6.461   5.552  10.003  1.0541  0.5637  0.2933
  635MOL0     C83742   6.847   5.579   9.727 -0.0547  0.5226  0.2637
  635MOL0     C83743   6.905   5.563   9.603  0.1603 -0.2250 -0.2346
  635MOL0     C83744   7.039   5.583   9.590  0.8793  0.0918  0.0517
  635MOL0     C83745   7.118   5.622   9.698  0.0318  0.6234 -0.2000
  635MOL0     O83746   7.250   5.660   9.677 -0.6911  0.5569  0.1019
  635MOL0     C83747   7.327   5.566   9.603  0.7166  0.6020  0.8259
  635MOL0     C83748   7.464   5.566   9.670 -0.1102  0.8460  0.6612
  635MOL0     C83749   7.554   5.678   9.593  0.1978 -0.2104  0.3235
  635MOL0     C83750   7.700   5.647   9.619  0.2663  0.4636 -0.3154
  635MOL0     C83751   7.758   5.550   9.535 -0.8225  1.0157 -0.2940
  635MOL0     C83752   7.815   5.461   9.469 -1.0517 -0.4840 -0.0088
  635MOL0     C83753   7.065   5.631   9.825  0.0187  0.6257  1.0269
  635MOL0     C83754   6.928   5.605   9.840  0.4649  0.7223  0.9740
  635MOL0     H83755   6.473   5.448   9.676 -4.8554 -2.1649 -2.2715
  635MOL0     H83756   6.240   5.395   9.719  1.3306 -0.5051 -1.2452
  635MOL0     H83757   5.979   5.564   9.943  0.7612 -0.1952 -2.9471
  635MOL0     H83758   6.057   5.531  10.093 -2.8494  3.6166 -0.5557
  635MOL0     H83759   5.947   5.311  10.115  0.9828 -1.3539 -1.8635
  635MOL0     H83760   5.870   5.325   9.960  3.1526 -2.2541  0.5840
  635MOL0     H83761   5.736   5.509  10.029  3.7721  1.5776 -1.1681
  635MOL0     H83762   5.816   5.519  10.187  1.1319 -0.1960 -0.5699
  635MOL0     H83763   5.652   5.274  10.112 -1.8273  0.0706 -0.4427
  635MOL0     H83764   5.712   5.331  10.273 -4.3302 -3.2206  0.4335
  635MOL0     H83765   5.524   5.474  10.071 -0.3705  1.8700  0.7397
  635MOL0     H83766   5.543   5.525  10.233 -3.5464  0.0601 -1.4404
  635MOL0     H83767   5.465   5.273  10.294 -1.2446 -0.2402  1.1175
  635MOL0     H83768   5.399   5.280  10.125 -1.9648  0.0512  0.8055
  635MOL0     H83769   5.344   5.495  10.324  1.1885  2.1362 -4.3322
  635MOL0     H83770   5.272   5.476  10.173  2.0259  0.2605  0.0136
  635MOL0     H83771   5.239   5.270  10.412 -1.4450 -0.3421  1.3334
  635MOL0     H83772   5.179   5.262  10.240  3.7521  1.1688 -1.2919
  635MOL0     H83773   5.157   5.468  10.564  2.6307  1.0787 -0.8963
  635MOL0     H83774   4.992   5.658  10.664  1.3105  1.5664 -0.3178
  635MOL0     H83775   4.869   5.541  10.663  0.5698 -1.4794 -1.4663
  635MOL0     H83776   4.751   5.679  10.493  2.2685 -1.0714 -0.9749
  635MOL0     H83777   4.894   5.788  10.483  2.5145 -1.2973  1.8467
  635MOL0     H83778   4.866   5.876  10.711  1.0358 -2.8572  1.4072
  635MOL0     H83779   4.719   5.901  10.602  0.8427  1.2027  0.5432
  635MOL0     H83780   4.621   5.701  10.710  1.0702  0.4365 -2.1229
  635MOL0     H83781   4.632   5.825  10.832  0.4450  0.5009  0.2482
  635MOL0     H83782   4.490   5.650  10.922 -0.8309 -0.5154  1.8143
  635MOL0     H83783   4.406   5.496  11.061 -0.0632 -0.7785  1.8912
  635MOL0     H83784   4.162   5.288  11.306 -0.3920  0.3020  0.8433
  635MOL0     H83785   4.067   5.154  11.477  1.2746 -0.0770  1.9600
  635MOL0     H83786   4.278   4.747  11.555 -0.9755 -2.8977  2.2797
  635MOL0     H83787   4.151   4.737  11.432  0.7285  2.9382 -0.4054
  635MOL0     H83788   4.103   4.573  11.603 -1.5464 -0.4556  2.8148
  635MOL0     H83789   3.983   4.693  11.610 -0.9113 -3.0585  0.2303
  635MOL0     H83790   4.104   4.797  11.798  0.2186  0.1262  0.3167
  635MOL0     H83791   4.220   4.665  11.804 -0.3572 -0.4428 -1.2937
  635MOL0     H83792   3.921   4.636  11.862 -0.4822 -0.1333  4.0013
  635MOL0     H83793   4.037   4.500  11.868 -2.4802 -0.0058  0.8837
  635MOL0     H83794   4.156   4.664  12.039 -0.6024  0.1180 -0.3188
  635MOL0     H83795   4.015   4.566  12.085 -2.6198  1.8049 -0.0326
  635MOL0     H83796   3.859   4.726  12.048  0.3362 -2.5775  1.6525
  635MOL0     H83797   3.989   4.851  12.013  2.3000 -0.1946  1.3720
  635MOL0     H83798   3.955   4.693  12.268  0.3696 -2.8327 -3.0857
  635MOL0     H83799   4.062   4.823  12.250 -0.1114 -2.1267 -1.5340
  635MOL0     H83800   3.917   4.994  12.256  0.4029 -0.5293 -2.2225
  635MOL0     H83801   3.877   4.890  12.391  1.9706 -2.1083 -0.6910
  635MOL0     H83802   4.368   4.854  11.389 -0.5697 -0.4683  0.7588
  635MOL0     H83803   4.461   4.988  11.226 -2.4081 -3.0985 -2.3113
  635MOL0     H83804   4.779   5.307  11.139 -1.7499  0.3440  1.6536
  635MOL0     H83805   4.889   5.467  10.999  1.1534 -0.2709  1.9098
  635MOL0     H83806   6.290   5.541  10.122 -0.7275 -0.8939  0.5995
  635MOL0     H83807   6.509   5.602  10.087  1.8583  0.1027  0.1180
  635MOL0     H83808   6.840   5.541   9.519  1.9764 -0.5539 -1.6145
  635MOL0     H83809   7.075   5.572   9.488 -1.0849  0.1122 -0.6828
  635MOL0     H83810   7.321   5.587   9.496  0.7074 -0.9337  0.5022
  635MOL0     H83811   7.279   5.467   9.604 -0.1054  0.9417 -0.7511
  635MOL0     H83812   7.461   5.592   9.776  4.9092 -0.4273  1.4010
  635MOL0     H83813   7.507   5.466   9.658  1.1110  1.6115 -2.0839
  635MOL0     H83814   7.532   5.778   9.632  0.2858  0.1754 -0.5959
  635MOL0     H83815   7.535   5.690   9.486  2.9304 -0.5246 -0.2653
  635MOL0     H83816   7.755   5.739   9.597 -1.4965  1.3410 -1.2137
  635MOL0     H83817   7.704   5.625   9.726  0.6553  0.6691 -0.2854
  635MOL0     H83818   7.885   5.396   9.421  0.2763  0.9140 -0.0753
  635MOL0     H83819   7.133   5.654   9.907  1.1301  0.2402  0.2511
  635MOL0     H83820   6.887   5.618   9.940  1.4875  1.6966  1.2908
  636MOL0     O83821   3.893   9.119   3.893  0.7802 -0.2380  0.5031
  636MOL0     C83822   3.981   9.166   3.967  0.2567  0.2064 -0.0857
  636MOL0     O83823   4.107   9.124   3.960 -0.9716 -0.5906 -0.0456
  636MOL0     C83824   4.161   9.076   3.845 -0.3720 -0.5288 -0.0756
  636MOL0     C83825   4.200   9.168   3.755  0.9047 -0.3934  0.2731
  636MOL0     C83826   4.247   9.128   3.621  0.0979 -0.7662  0.7698
  636MOL0     C83827   4.259   8.990   3.587  0.1599 -0.1700 -0.0926
  636MOL0     O83828   4.320   8.942   3.477 -0.2540 -0.0647 -0.2713
  636MOL0     C83829   4.414   9.026   3.402  1.5743 -0.9999  0.3572
  636MOL0     C83830   4.533   9.048   3.489 -0.0691 -0.3333  0.2139
  636MOL0     C83831   4.615   8.917   3.502 -0.4203  0.0012 -0.6360
  636MOL0     C83832   4.752   8.956   3.574 -0.6040  0.7553 -0.1731
  636MOL0     C83833   4.829   8.827   3.605 -0.3156 -0.0569 -0.1018
  636MOL0     C83834   4.882   8.758   3.482 -0.3418  0.6803  0.2469
  636MOL0     C83835   5.029   8.696   3.493  0.0055  0.0931 -0.2272
  636MOL0     C83836   5.116   8.733   3.372  0.5686 -0.5858  0.4514
  636MOL0     N83837   5.214   8.626   3.335  0.6661  0.1680  0.3139
  636MOL0     C83838   5.336   8.606   3.391 -0.2291  0.3236 -0.4914
  636MOL0     C83839   5.366   8.477   3.356 -0.4906  0.1299 -0.5531
  636MOL0     C83840   5.492   8.400   3.397  0.5767 -0.5875 -0.9845
  636MOL0     C83841   5.493   8.376   3.550 -0.6962 -0.0286  0.7431
  636MOL0     C83842   5.361   8.306   3.605  0.3852  0.6629 -0.7992
  636MOL0     C83843   5.351   8.164   3.556  0.3548  0.0148 -0.1247
  636MOL0     O83844   5.235   8.097   3.611  1.1121  0.3086  0.0902
  636MOL0     C83845   5.106   8.152   3.598 -0.6225 -0.6184  0.0641
  636MOL0     C83846   5.074   8.224   3.482  0.7865 -1.2371  0.0719
  636MOL0     C83847   4.948   8.287   3.470  1.1161 -0.2163 -0.1808
  636MOL0     C83848   4.844   8.254   3.560 -0.0003 -0.3796  0.5526
  636MOL0     C83849   4.703   8.307   3.557  0.9880 -0.3555 -0.3551
  636MOL0     O83850   4.648   8.330   3.434 -0.3686 -0.6187  0.2963
  636MOL0     C83851   4.534   8.399   3.418  0.3833  0.2540 -0.0846
  636MOL0     C83852   4.417   8.326   3.428 -0.1127  0.4672 -0.0026
  636MOL0     C83853   4.283   8.378   3.425  0.4994  0.2923 -0.5931
  636MOL0     C83854   4.285   8.519   3.420  0.5778  0.0358 -0.2149
  636MOL0     O83855   4.172   8.602   3.440  0.7115  0.3647  0.0379
  636MOL0     C83856   4.053   8.555   3.380  0.2563 -0.9821 -0.2726
  636MOL0     C83857   3.930   8.631   3.422 -0.2645 -0.1536  0.4869
  636MOL0     C83858   3.803   8.625   3.342  0.2590 -0.0232  0.4682
  636MOL0     C83859   3.711   8.735   3.395  0.1777 -0.0823  0.3643
  636MOL0     C83860   3.636   8.688   3.526 -0.1337  0.5850  0.2134
  636MOL0     C83861   3.677   8.772   3.644 -0.0272  0.1363  0.2488
  636MOL0     C83862   3.598   8.897   3.626  0.1857  0.0642 -0.2821
  636MOL0     C83863   3.605   8.968   3.765 -0.3527  0.3892 -0.0481
  636MOL0    Cl83864   3.490   8.905   3.882  0.2854 -0.3692  0.1372
  636MOL0     C83865   4.399   8.597   3.415 -0.7048 -1.1373  0.3463
  636MOL0     C83866   4.532   8.537   3.411  0.7231  0.0182  0.5609
  636MOL0     O83867   4.645   8.328   3.659 -0.2332 -0.4745 -0.1816
  636MOL0     C83868   4.885   8.181   3.668  0.4109 -0.4791  0.3193
  636MOL0     C83869   5.008   8.130   3.697 -0.2634  0.1527  0.6520
  636MOL0     N83870   5.276   8.429   3.274  0.3337 -0.4907 -0.0777
  636MOL0     N83871   5.176   8.514   3.271  0.1895  0.0494 -0.1745
  636MOL0     C83872   4.218   8.898   3.683  0.0663  0.1526 -0.9781
  636MOL0     C83873   4.168   8.936   3.810 -1.0426 -0.3052  0.7454
  636MOL0     C83874   3.924   9.244   4.073 -1.0136 -0.3225  0.4788
  636MOL0     C83875   3.968   9.214   4.202 -1.1604 -0.1744 -0.3490
  636MOL0     C83876   3.913   9.282   4.319 -0.0211  1.1726  0.1555
  636MOL0     C83877   3.813   9.375   4.301  0.1521 -0.6076 -0.0855
  636MOL0     O83878   3.743   9.430   4.410  0.2531  0.4825  0.2717
  636MOL0     C83879   3.666   9.328   4.485  0.4291  0.5891 -0.6995
  636MOL0     C83880   3.679   9.331   4.640 -0.0421 -0.1404 -0.1413
  636MOL0     C83881   3.833   9.332   4.680  0.0356 -0.0716 -0.2375
  636MOL0     C83882   3.831   9.317   4.833 -0.0870  0.1241  0.7448
  636MOL0     C83883   3.962   9.342   4.882 -1.1157 -0.6812  0.2822
  636MOL0     C83884   4.072   9.366   4.922  0.0754  0.2088 -0.4496
  636MOL0     C83885   3.780   9.405   4.169  0.4552  1.0889  0.5369
  636MOL0     C83886   3.817   9.332   4.055  0.8750 -1.3907 -0.8931
  636MOL0     H83887   4.199   9.275   3.771 -1.0708 -0.7934  3.8980
  636MOL0     H83888   4.280   9.194   3.541 -3.3088 -1.5455 -1.4882
  636MOL0     H83889   4.364   9.116   3.366  3.3568 -0.2378 -0.3290
  636MOL0     H83890   4.441   8.973   3.310  1.5498 -2.8474  1.3638
  636MOL0     H83891   4.515   9.085   3.590 -2.5807  2.2112 -1.0118
  636MOL0     H83892   4.588   9.119   3.427  2.7214 -1.2083  1.5314
  636MOL0     H83893   4.637   8.875   3.404  1.0962 -0.6784 -0.0294
  636MOL0     H83894   4.564   8.840   3.561 -1.5383  1.1027 -0.1105
  636MOL0     H83895   4.807   9.013   3.499 -0.3789 -1.6990 -2.0311
  636MOL0     H83896   4.744   9.022   3.661  1.6362 -1.2032  1.6763
  636MOL0     H83897   4.777   8.760   3.674 -1.3237 -0.3609 -1.1423
  636MOL0     H83898   4.921   8.861   3.654  0.3491 -0.7486 -0.8384
  636MOL0     H83899   4.895   8.825   3.398 -1.4249 -0.2709 -0.7142
  636MOL0     H83900   4.821   8.680   3.436  2.7374 -1.0859 -1.1998
  636MOL0     H83901   5.085   8.732   3.579  0.3197  0.2228 -0.4847
  636MOL0     H83902   5.013   8.588   3.497  0.2174  0.0109 -1.3348
  636MOL0     H83903   5.170   8.825   3.396  0.9113  0.4909 -3.6679
  636MOL0     H83904   5.051   8.744   3.284  2.0449 -0.9458 -0.7307
  636MOL0     H83905   5.385   8.680   3.453 -2.4928  1.8930 -0.4693
  636MOL0     H83906   5.580   8.454   3.361  0.7490  1.2953  1.8962
  636MOL0     H83907   5.487   8.306   3.343  0.3162 -0.6717 -0.8153
  636MOL0     H83908   5.521   8.466   3.607  1.6413 -0.9747  1.2170
  636MOL0     H83909   5.585   8.319   3.567  1.8243  3.1189 -1.1222
  636MOL0     H83910   5.364   8.297   3.714  0.4863  0.9438 -0.7778
  636MOL0     H83911   5.273   8.365   3.575 -0.4271  1.2258  2.2730
  636MOL0     H83912   5.440   8.108   3.584 -0.6903 -0.9740  1.3952
  636MOL0     H83913   5.346   8.167   3.447  0.1073  0.7197 -0.0997
  636MOL0     H83914   5.147   8.250   3.406 -0.8506  3.6479 -0.2153
  636MOL0     H83915   4.923   8.349   3.384 -0.9637  1.8688  1.7989
  636MOL0     H83916   4.420   8.218   3.434  1.6002  0.4021 -1.2659
  636MOL0     H83917   4.200   8.321   3.464 -2.1858  3.6523 -0.8505
  636MOL0     H83918   4.032   8.450   3.402 -1.6394 -0.2800  1.6233
  636MOL0     H83919   4.052   8.557   3.270 -3.0799  1.2505 -0.3384
  636MOL0     H83920   3.957   8.737   3.418 -0.8044 -0.0163  0.4619
  636MOL0     H83921   3.915   8.599   3.526 -0.4835 -0.5020  0.3517
  636MOL0     H83922   3.752   8.529   3.346  0.6608 -0.2489  0.2324
  636MOL0     H83923   3.816   8.649   3.236  0.0949  2.4486  0.9339
  636MOL0     H83924   3.778   8.812   3.433  1.5325 -0.8951 -0.2889
  636MOL0     H83925   3.649   8.776   3.315  0.7307 -0.0782 -0.0736
  636MOL0     H83926   3.661   8.585   3.551 -0.7258  0.4508  0.2553
  636MOL0     H83927   3.531   8.692   3.496  0.5959  1.9693 -2.3987
  636MOL0     H83928   3.786   8.784   3.644  0.1578 -0.3522 -3.6034
  636MOL0     H83929   3.649   8.725   3.739 -0.2025  1.2005  0.7330
  636MOL0     H83930   3.653   8.958   3.553  1.4586 -2.5828 -1.6610
  636MOL0     H83931   3.493   8.884   3.599 -0.2654 -0.4874  1.6166
  636MOL0     H83932   3.582   9.074   3.754  1.4230  0.6513 -1.7376
  636MOL0     H83933   3.700   8.955   3.818  0.2819  0.4475 -1.1361
  636MOL0     H83934   4.372   8.702   3.407  0.5329 -0.8223  0.0510
  636MOL0     H83935   4.624   8.595   3.417 -0.0388  1.1143  2.3761
  636MOL0     H83936   4.806   8.153   3.738 -0.4987  0.4192 -0.3145
  636MOL0     H83937   5.028   8.066   3.782  1.0427  0.2786  0.4651
  636MOL0     H83938   4.239   8.793   3.664  3.6114  0.2124  1.5278
  636MOL0     H83939   4.137   8.850   3.869  0.3968 -0.3779  1.4561
  636MOL0     H83940   4.027   9.126   4.226 -1.7627  0.0390  2.0964
  636MOL0     H83941   3.940   9.245   4.418  3.1564  0.0987 -0.9831
  636MOL0     H83942   3.680   9.225   4.449 -1.8477  0.1733 -0.5184
  636MOL0     H83943   3.560   9.342   4.463  0.5918  2.6008 -0.3921
  636MOL0     H83944   3.632   9.423   4.675 -3.2796 -0.4134 -3.1617
  636MOL0     H83945   3.622   9.243   4.670 -1.3397  1.7094  3.2970
  636MOL0     H83946   3.882   9.428   4.660 -3.2416  1.4692 -1.6234
  636MOL0     H83947   3.882   9.255   4.619  1.3840  1.3132 -0.9820
  636MOL0     H83948   3.764   9.386   4.886  1.0147 -0.1764  2.6398
  636MOL0     H83949   3.789   9.219   4.855 -0.4608 -0.2882 -1.5784
  636MOL0     H83950   4.162   9.402   4.967 -1.5241  2.1765  1.4023
  636MOL0     H83951   3.720   9.492   4.144  3.3947  3.9377  2.6011
  636MOL0     H83952   3.774   9.359   3.960 -0.0956  1.3241  0.2158
  637MOL0     O83953   0.117   4.515   2.905  0.3395  0.0520  0.7142
  637MOL0     C83954   0.121   4.393   2.892  0.9047  0.2192  0.5600
  637MOL0     O83955   0.232   4.314   2.888  0.0042  0.2340  0.0732
  637MOL0     C83956   0.355   4.360   2.858  0.3923  0.1769 -0.7366
  637MOL0     C83957   0.464   4.290   2.908 -0.1673  0.1837  0.0436
  637MOL0     C83958   0.596   4.333   2.886  0.1620  0.2110  0.9790
  637MOL0     C83959   0.621   4.443   2.810 -0.6239 -0.6899  0.7119
  637MOL0     O83960   0.756   4.475   2.814  0.4854 -0.4281  0.4865
  637MOL0     C83961   0.791   4.605   2.780 -0.7800 -0.3399 -0.0084
  637MOL0     C83962   0.940   4.622   2.826 -0.2920 -0.7094 -0.0268
  637MOL0     C83963   0.988   4.762   2.860 -0.6301  0.2313  0.9962
  637MOL0     C83964   1.117   4.750   2.936  0.9624 -0.1980 -0.8823
  637MOL0     C83965   1.200   4.871   2.908 -0.0290 -0.2037 -0.0449
  637MOL0     C83966   1.294   4.919   3.014 -0.4724 -1.0181  0.0844
  637MOL0     C83967   1.400   5.007   2.952 -0.3360  0.1324 -0.3826
  637MOL0     C83968   1.354   5.149   2.916 -0.2748 -0.8260  0.9879
  637MOL0     N83969   1.468   5.203   2.840  0.7162  0.1879  0.0264
  637MOL0     C83970   1.593   5.228   2.893  0.8627  0.8154 -0.4635
  637MOL0     C83971   1.680   5.234   2.788  0.1027 -0.4067 -0.3221
  637MOL0     C83972   1.833   5.236   2.793 -0.3122 -0.2502  0.5526
  637MOL0     C83973   1.897   5.258   2.653  0.1125  0.3112 -0.8891
  637MOL0     C83974   2.051   5.248   2.670  0.1025 -0.3650 -0.4277
  637MOL0     C83975   2.101   5.105   2.637 -0.1596 -0.6357 -0.0701
  637MOL0     O83976   2.236   5.096   2.611 -0.7560  0.0839  0.1048
  637MOL0     C83977   2.334   5.040   2.692 -0.6876 -0.1120  0.6335
  637MOL0     C83978   2.458   5.050   2.634 -0.3548 -0.3701  0.5234
  637MOL0     C83979   2.574   5.001   2.707 -0.3758  0.1956 -0.5160
  637MOL0     C83980   2.557   4.940   2.832  0.5457  0.3690 -0.5719
  637MOL0     C83981   2.670   4.886   2.898 -0.4939  0.7872 -0.8705
  637MOL0     O83982   2.792   4.948   2.876  0.1896 -0.5201  0.0267
  637MOL0     C83983   2.904   4.897   2.933  0.4369 -0.6616 -0.6639
  637MOL0     C83984   2.998   4.837   2.851 -0.0194 -0.7514  0.0681
  637MOL0     C83985   3.123   4.801   2.907 -0.3871 -0.8530  0.9819
  637MOL0     C83986   3.146   4.809   3.049  0.6845  1.0886  0.0648
  637MOL0     O83987   3.262   4.774   3.111  0.2483 -0.2404  0.0760
  637MOL0     C83988   3.382   4.749   3.035  0.2789  0.3904  0.8987
  637MOL0     C83989   3.496   4.726   3.131  1.1348 -0.2220 -0.4002
  637MOL0     C83990   3.629   4.779   3.072 -0.4033 -0.1708 -1.5834
  637MOL0     C83991   3.744   4.778   3.178 -0.6799 -0.2007  0.3433
  637MOL0     C83992   3.882   4.782   3.105  0.4312 -0.0793  0.4562
  637MOL0     C83993   3.993   4.739   3.198 -0.0563  0.2709  0.2976
  637MOL0     C83994   4.124   4.725   3.122  0.3218  0.0780 -0.0487
  637MOL0     C83995   4.247   4.730   3.209 -0.2275  0.4073  0.1258
  637MOL0    Cl83996   4.385   4.683   3.110 -0.1419 -0.1534  0.1945
  637MOL0     C83997   3.039   4.863   3.129 -0.9642  0.1401  0.9771
  637MOL0     C83998   2.916   4.908   3.068 -0.5917 -0.6328  0.4437
  637MOL0     O83999   2.655   4.805   2.990  0.9188 -0.0418 -0.0330
  637MOL0     C84000   2.426   4.921   2.884  0.7469  0.6610 -0.2043
  637MOL0     C84001   2.318   4.976   2.811  0.6979  0.4429 -0.8471
  637MOL0     N84002   1.598   5.225   2.671 -0.2366  0.5963  0.6489
  637MOL0     N84003   1.477   5.206   2.707 -0.0891  0.2321  0.0258
  637MOL0     C84004   0.510   4.512   2.753 -0.3814  0.4954  0.4735
  637MOL0     C84005   0.381   4.476   2.773  0.4951  0.7844 -0.1337
  637MOL0     C84006  -0.010   4.318   2.883  0.2455 -0.0220 -0.3256
  637MOL0     C84007  -0.132   4.388   2.868 -0.7192  0.6628  0.5804
  637MOL0     C84008  -0.255   4.325   2.879 -0.5335 -1.5863  0.1668
  637MOL0     C84009  -0.261   4.187   2.892 -0.0191  0.0363 -0.2117
  637MOL0     O84010  -0.376   4.113   2.902 -0.2024  0.4436 -0.4991
  637MOL0     C84011  -0.488   4.175   2.855  0.6879 -0.0711 -0.0058
  637MOL0     C84012  -0.586   4.064   2.825  0.7221 -0.2914  0.5515
  637MOL0     C84013  -0.675   4.010   2.938  0.2863 -0.4122 -0.1763
  637MOL0     C84014  -0.823   4.000   2.896 -0.3826  0.9330  0.0780
  637MOL0     C84015  -0.825   3.889   2.794  0.3775 -0.2663 -0.3677
  637MOL0     C84016  -0.848   3.814   2.698 -0.4371  0.1191 -1.0589
  637MOL0     C84017  -0.140   4.118   2.906 -0.6955  0.1458 -0.2173
  637MOL0     C84018  -0.016   4.186   2.895  0.6642  1.1613  0.4531
  637MOL0     H84019   0.459   4.194   2.957  0.6877  0.4449  0.6693
  637MOL0     H84020   0.675   4.271   2.927 -0.6572 -0.6481  1.2962
  637MOL0     H84021   0.730   4.682   2.829 -0.6433  0.6151 -1.2824
  637MOL0     H84022   0.801   4.622   2.673 -3.7829 -1.2177 -0.5198
  637MOL0     H84023   1.010   4.570   2.761 -0.8872 -1.5026 -0.0475
  637MOL0     H84024   0.945   4.564   2.919  1.4394 -2.8754 -1.3990
  637MOL0     H84025   0.909   4.801   2.925 -0.5227  1.8427  0.2223
  637MOL0     H84026   1.012   4.812   2.765 -1.6487 -1.0918  0.0035
  637MOL0     H84027   1.092   4.736   3.041  1.3210 -2.3612 -1.0340
  637MOL0     H84028   1.172   4.659   2.910 -2.3809 -2.7389  0.2549
  637MOL0     H84029   1.131   4.955   2.899  0.3491  0.2287  0.9008
  637MOL0     H84030   1.250   4.854   2.812  0.0207 -1.1837  0.1460
  637MOL0     H84031   1.339   4.831   3.060 -0.8757 -1.2118  0.1109
  637MOL0     H84032   1.228   4.966   3.087 -1.6862 -2.7766  0.1780
  637MOL0     H84033   1.476   5.022   3.029  2.0935  0.9405 -2.7590
  637MOL0     H84034   1.435   4.954   2.863 -0.0583 -3.3561  1.6021
  637MOL0     H84035   1.344   5.208   3.007  1.7501 -0.0452  0.7522
  637MOL0     H84036   1.272   5.160   2.843  0.9494  0.1594 -0.2848
  637MOL0     H84037   1.616   5.230   2.999 -1.1757  0.3534  0.0239
  637MOL0     H84038   1.858   5.134   2.823  2.4876 -0.1851 -1.1328
  637MOL0     H84039   1.873   5.310   2.864 -1.5026  3.3961 -2.2580
  637MOL0     H84040   1.872   5.360   2.622  4.6456  1.6696 -0.7201
  637MOL0     H84041   1.866   5.186   2.577 -1.6562 -3.3338  2.8632
  637MOL0     H84042   2.101   5.317   2.601  0.5302 -1.7785 -1.5815
  637MOL0     H84043   2.076   5.270   2.774  0.4241 -0.9397 -0.3807
  637MOL0     H84044   2.036   5.067   2.558 -2.2388  1.6623  0.4157
  637MOL0     H84045   2.091   5.054   2.733  0.9863 -0.6363  0.0694
  637MOL0     H84046   2.481   5.093   2.537 -1.5764 -1.1376 -0.1354
  637MOL0     H84047   2.672   5.013   2.663 -1.5058  1.5520 -2.8494
  637MOL0     H84048   2.996   4.823   2.744  1.1130 -0.0484 -0.0584
  637MOL0     H84049   3.209   4.761   2.854 -1.9689 -1.3456 -1.3523
  637MOL0     H84050   3.403   4.835   2.972  1.0509 -0.3249  0.1529
  637MOL0     H84051   3.368   4.664   2.967  2.6728 -0.0327  0.8502
  637MOL0     H84052   3.495   4.619   3.153  0.0139 -0.9768 -3.6640
  637MOL0     H84053   3.482   4.789   3.220  0.8647 -0.0004 -0.5974
  637MOL0     H84054   3.626   4.883   3.037  2.5859 -0.6449 -3.6839
  637MOL0     H84055   3.659   4.724   2.982 -1.7757  0.4265 -2.4327
  637MOL0     H84056   3.741   4.859   3.251 -0.1417 -3.0797  3.8775
  637MOL0     H84057   3.736   4.691   3.244 -0.9967 -0.8676 -0.5475
  637MOL0     H84058   3.896   4.884   3.069 -1.3643  1.3340  3.3719
  637MOL0     H84059   3.864   4.721   3.016 -1.6570  3.8984 -2.1724
  637MOL0     H84060   3.967   4.646   3.250  2.7323 -1.1160 -0.5957
  637MOL0     H84061   3.990   4.825   3.266 -1.7799  1.8586 -1.6723
  637MOL0     H84062   4.137   4.624   3.082  1.0719 -1.3407  3.4143
  637MOL0     H84063   4.122   4.799   3.041 -4.7053  1.3327  0.8844
  637MOL0     H84064   4.241   4.670   3.300  0.0568  2.3797  1.5106
  637MOL0     H84065   4.255   4.832   3.248 -0.2162  0.7134 -0.6566
  637MOL0     H84066   3.042   4.869   3.237  0.1472 -0.7963  1.0233
  637MOL0     H84067   2.838   4.954   3.128  0.6512 -0.1580  1.7639
  637MOL0     H84068   2.412   4.871   2.979 -1.4361  1.0535 -0.2808
  637MOL0     H84069   2.220   4.977   2.857  1.8441  2.4349  1.7813
  637MOL0     H84070   0.520   4.598   2.687  1.6802 -1.4012 -1.8540
  637MOL0     H84071   0.299   4.527   2.724  1.4079  0.1505 -2.4530
  637MOL0     H84072  -0.127   4.489   2.827 -0.0607  0.8675  1.1550
  637MOL0     H84073  -0.344   4.383   2.857  1.2479  1.0061 -0.5719
  637MOL0     H84074  -0.464   4.233   2.766  0.4046  1.3031  0.7941
  637MOL0     H84075  -0.534   4.243   2.927  1.1069  1.0642 -0.7768
  637MOL0     H84076  -0.655   4.101   2.749  0.1069 -3.8891 -0.8861
  637MOL0     H84077  -0.529   3.977   2.790  0.0599 -0.7835  0.6768
  637MOL0     H84078  -0.674   4.092   3.010 -2.5588 -2.0455  1.9138
  637MOL0     H84079  -0.634   3.919   2.982 -1.6231 -0.1706  2.2984
  637MOL0     H84080  -0.886   3.966   2.979 -0.6144 -0.0996 -0.5145
  637MOL0     H84081  -0.851   4.095   2.850 -0.4497  0.2445 -1.3504
  637MOL0     H84082  -0.866   3.755   2.610 -2.4154 -0.5402 -0.2646
  637MOL0     H84083  -0.137   4.013   2.933  1.8460 -0.4741 -2.4697
  637MOL0     H84084   0.072   4.124   2.905  1.1066  1.9489  1.5684
  638MOL0     O84085   3.080   0.545   2.524 -0.9698 -0.3996 -0.0302
  638MOL0     C84086   3.099   0.464   2.611  0.3892  0.9376  0.3253
  638MOL0     O84087   3.004   0.396   2.685 -0.0153 -0.4213  0.3056
  638MOL0     C84088   2.870   0.394   2.640 -0.3105 -0.3538 -1.1816
  638MOL0     C84089   2.770   0.368   2.738  0.1142  0.1710 -1.1209
  638MOL0     C84090   2.634   0.373   2.706  0.7976  0.0584  0.9425
  638MOL0     C84091   2.586   0.387   2.574 -0.4735 -1.1709  0.5812
  638MOL0     O84092   2.459   0.382   2.549 -0.5197  0.4437 -0.5864
  638MOL0     C84093   2.403   0.456   2.442  0.7566 -0.0724  0.2159
  638MOL0     C84094   2.248   0.454   2.450 -0.0406  0.2225 -0.3275
  638MOL0     C84095   2.168   0.531   2.354 -0.8654 -0.1504 -0.3617
  638MOL0     C84096   2.027   0.479   2.327  0.4765 -0.2956 -0.0511
  638MOL0     C84097   1.939   0.576   2.252 -0.4229 -0.0024 -0.2085
  638MOL0     C84098   1.824   0.499   2.188  0.2617 -0.2755  0.5013
  638MOL0     C84099   1.731   0.428   2.289 -1.4183 -0.3655 -0.3771
  638MOL0     C84100   1.628   0.333   2.218 -0.3573 -0.1104  0.8143
  638MOL0     N84101   1.533   0.390   2.123 -0.1460 -0.0561 -0.5647
  638MOL0     C84102   1.479   0.515   2.141  0.1553 -0.4998  0.4189
  638MOL0     C84103   1.385   0.524   2.041  0.0733  0.9009 -0.2385
  638MOL0     C84104   1.296   0.640   2.001 -0.4086 -0.3169 -0.8985
  638MOL0     C84105   1.157   0.603   2.055 -0.5784 -0.7253 -0.5176
  638MOL0     C84106   1.044   0.687   2.008 -0.1235 -0.2432  0.5572
  638MOL0     C84107   1.000   0.646   1.863  0.7260  0.5471 -0.1300
  638MOL0     O84108   0.877   0.702   1.824 -0.7775 -0.9005 -0.2612
  638MOL0     C84109   0.758   0.638   1.859 -0.6371  0.6035  0.4148
  638MOL0     C84110   0.631   0.697   1.835  0.2726  0.7212 -0.4971
  638MOL0     C84111   0.509   0.641   1.858 -0.0302  1.6870 -1.1363
  638MOL0     C84112   0.500   0.531   1.933 -0.1545 -0.1785 -0.3036
  638MOL0     C84113   0.373   0.492   1.994 -0.9649 -0.0150  0.1648
  638MOL0     O84114   0.271   0.531   1.928  0.6570 -0.2651 -0.5314
  638MOL0     C84115   0.141   0.508   1.972 -0.2092  0.0389 -0.3834
  638MOL0     C84116   0.100   0.524   2.104 -0.0706 -0.3605 -0.3407
  638MOL0     C84117  -0.038   0.515   2.134  0.2728 -0.7850  0.0744
  638MOL0     C84118  -0.130   0.471   2.038  0.4201  0.7227 -0.0970
  638MOL0     O84119  -0.252   0.432   2.093  0.3311 -0.1667 -0.0861
  638MOL0     C84120  -0.361   0.500   2.050 -0.3574 -0.4799  0.0894
  638MOL0     C84121  -0.480   0.422   2.089  0.1106  0.2092 -0.2940
  638MOL0     C84122  -0.512   0.303   1.984  0.7939 -0.3844 -0.2151
  638MOL0     C84123  -0.661   0.254   1.997 -0.6474 -0.0159  0.4271
  638MOL0     C84124  -0.723   0.222   1.859  0.0540 -0.2079 -0.2684
  638MOL0     C84125  -0.735   0.353   1.775 -0.4105  0.5054 -0.1163
  638MOL0     C84126  -0.813   0.327   1.644  0.4730  0.7074 -0.1866
  638MOL0     C84127  -0.818   0.454   1.565  0.0047  1.0121 -0.5385
  638MOL0    Cl84128  -0.666   0.489   1.462  0.2721 -0.3376  0.0833
  638MOL0     C84129  -0.091   0.460   1.901 -0.0380 -0.8050 -0.3460
  638MOL0     C84130   0.043   0.480   1.874  0.0046  0.9608  0.3593
  638MOL0     O84131   0.375   0.412   2.087  0.8944  0.4034 -0.0835
  638MOL0     C84132   0.619   0.465   1.961 -0.1339  0.5625  0.7656
  638MOL0     C84133   0.742   0.511   1.917 -0.7215 -0.3851  0.0820
  638MOL0     N84134   1.402   0.407   1.962 -0.9102 -0.2370  0.6616
  638MOL0     N84135   1.493   0.328   2.014  0.0046  0.2055  0.3006
  638MOL0     C84136   2.683   0.393   2.468  0.3990 -0.2070 -0.5677
  638MOL0     C84137   2.824   0.400   2.507  0.5063  0.4361  0.0614
  638MOL0     C84138   3.244   0.420   2.623  0.8656  0.7337  0.1475
  638MOL0     C84139   3.351   0.473   2.553 -0.3960  0.6069  0.9635
  638MOL0     C84140   3.483   0.424   2.574 -0.0171  0.9312  0.4904
  638MOL0     C84141   3.504   0.335   2.678 -1.3609  0.7347 -0.1449
  638MOL0     O84142   3.637   0.288   2.712 -0.0516 -0.1536  0.0851
  638MOL0     C84143   3.753   0.351   2.644  0.4614  0.5176 -0.9378
  638MOL0     C84144   3.883   0.286   2.683 -0.7224  0.2143 -0.3501
  638MOL0     C84145   3.907   0.134   2.627 -0.2964  0.5207 -0.3589
  638MOL0     C84146   3.968   0.133   2.493 -0.0954 -0.4093 -0.6605
  638MOL0     C84147   3.882   0.186   2.385  0.0509 -0.0313 -0.2580
  638MOL0     C84148   3.808   0.206   2.295  0.6831 -0.0190  0.2984
  638MOL0     C84149   3.396   0.271   2.735  0.9787 -0.8028 -0.4053
  638MOL0     C84150   3.266   0.319   2.716 -0.4127  0.6597 -0.3399
  638MOL0     H84151   2.796   0.332   2.837  1.9833 -1.7827 -2.2330
  638MOL0     H84152   2.560   0.352   2.782 -2.4255 -2.7532 -2.5928
  638MOL0     H84153   2.418   0.401   2.349 -0.2938 -0.0489  0.0200
  638MOL0     H84154   2.442   0.558   2.432  2.0031 -0.5236  0.2396
  638MOL0     H84155   2.220   0.503   2.543  3.7787  1.4431  0.3529
  638MOL0     H84156   2.208   0.353   2.462  2.9165 -1.0751 -0.5495
  638MOL0     H84157   2.229   0.543   2.264 -0.2975  1.4857  0.2055
  638MOL0     H84158   2.154   0.634   2.388 -2.4919  0.0990 -1.6613
  638MOL0     H84159   2.036   0.380   2.280  1.9662 -0.9528  1.4689
  638MOL0     H84160   1.991   0.452   2.427  0.6841 -2.0971 -0.4247
  638MOL0     H84161   1.995   0.624   2.172  0.0415 -1.2436 -0.6616
  638MOL0     H84162   1.909   0.645   2.331  2.6337 -1.4793  2.4789
  638MOL0     H84163   1.876   0.430   2.121  4.1881  2.9111 -0.1510
  638MOL0     H84164   1.752   0.561   2.136  0.6742 -0.7800 -0.7015
  638MOL0     H84165   1.784   0.366   2.362 -1.3256 -1.2189 -1.1433
  638MOL0     H84166   1.677   0.501   2.350  0.8340  0.1850  1.0787
  638MOL0     H84167   1.564   0.269   2.281  0.3572 -0.7408  0.9169
  638MOL0     H84168   1.693   0.261   2.167 -0.3551 -0.9206  1.9260
  638MOL0     H84169   1.491   0.580   2.227 -5.8249 -0.3888  1.6166
  638MOL0     H84170   1.290   0.665   1.895 -3.1018 -0.6367 -0.8882
  638MOL0     H84171   1.322   0.732   2.054  0.5889 -0.6952 -0.7161
  638MOL0     H84172   1.168   0.605   2.164  0.1977 -1.4153 -0.5753
  638MOL0     H84173   1.136   0.506   2.011  1.5488  0.5303 -4.8585
  638MOL0     H84174   0.972   0.680   2.090  1.0931 -4.7346  1.5212
  638MOL0     H84175   1.076   0.792   2.003 -0.6019 -0.1309 -1.4300
  638MOL0     H84176   0.992   0.537   1.856  0.3889  0.4176  1.6776
  638MOL0     H84177   1.072   0.670   1.784  0.5713 -0.8607 -0.7257
  638MOL0     H84178   0.641   0.789   1.778 -1.1542  0.4900 -1.1694
  638MOL0     H84179   0.417   0.691   1.832 -2.7684 -2.2054  0.0584
  638MOL0     H84180   0.167   0.557   2.182 -0.9274 -1.9277  1.1206
  638MOL0     H84181  -0.081   0.531   2.233  1.7899 -1.3910  0.8651
  638MOL0     H84182  -0.365   0.526   1.943  1.3497  2.2472  0.5792
  638MOL0     H84183  -0.360   0.596   2.103 -1.8705 -1.5449  2.1960
  638MOL0     H84184  -0.565   0.490   2.102  0.5430  1.1920 -2.2606
  638MOL0     H84185  -0.469   0.378   2.189 -1.4773  0.8343  0.1954
  638MOL0     H84186  -0.449   0.215   2.004 -0.7906 -1.7833 -1.1148
  638MOL0     H84187  -0.486   0.338   1.884  3.0651  0.4762  0.6079
  638MOL0     H84188  -0.668   0.162   2.056 -0.2094 -1.3408 -1.5034
  638MOL0     H84189  -0.723   0.321   2.058 -1.7011 -1.0875  0.5746
  638MOL0     H84190  -0.818   0.167   1.866  1.2307 -2.6611 -2.1598
  638MOL0     H84191  -0.652   0.157   1.807 -0.0790 -0.1758 -0.4910
  638MOL0     H84192  -0.637   0.384   1.739 -0.3868 -1.3875 -1.9033
  638MOL0     H84193  -0.780   0.438   1.827  1.6832  1.8291 -0.3742
  638MOL0     H84194  -0.771   0.242   1.588 -2.8699 -0.5676 -0.9682
  638MOL0     H84195  -0.914   0.296   1.671  1.1592 -0.7519  0.8994
  638MOL0     H84196  -0.836   0.538   1.633 -3.1145  1.1623 -1.3989
  638MOL0     H84197  -0.897   0.457   1.490  2.1606  3.1603 -2.9108
  638MOL0     H84198  -0.157   0.419   1.825 -0.9561  2.8383 -1.6801
  638MOL0     H84199   0.082   0.464   1.775  0.2509  1.4471  0.3755
  638MOL0     H84200   0.620   0.366   2.006  0.5404 -1.2463 -2.8848
  638MOL0     H84201   0.829   0.448   1.935 -1.7198 -1.6402  0.6645
  638MOL0     H84202   2.658   0.413   2.364 -1.8146  0.8463  0.0996
  638MOL0     H84203   2.900   0.417   2.431 -0.0380 -0.4354 -0.6958
  638MOL0     H84204   3.345   0.542   2.470  2.9126  0.8363  0.7897
  638MOL0     H84205   3.558   0.476   2.515  1.1031 -0.7600  0.3476
  638MOL0     H84206   3.774   0.455   2.672  1.8810 -0.7203  3.3662
  638MOL0     H84207   3.729   0.359   2.537  1.0056  0.0405 -1.1068
  638MOL0     H84208   3.974   0.337   2.650  0.7130 -2.8811 -1.5755
  638MOL0     H84209   3.881   0.273   2.792 -1.5018 -1.3260 -0.5282
  638MOL0     H84210   3.821   0.069   2.643  2.1425 -3.0407 -0.6606
  638MOL0     H84211   3.980   0.081   2.690  0.6703  1.0879 -0.9770
  638MOL0     H84212   4.062   0.188   2.497  0.0380 -0.5091 -1.9599
  638MOL0     H84213   3.995   0.031   2.464  1.5470 -0.6683  1.5510
  638MOL0     H84214   3.740   0.242   2.220  1.1108  3.2952  1.3265
  638MOL0     H84215   3.413   0.194   2.810 -2.3989  0.8816  2.3762
  638MOL0     H84216   3.188   0.277   2.778  0.3161  1.6854  1.3138
  639MOL0     O84217   1.857   5.427   0.998 -0.3764 -0.3594 -0.0620
  639MOL0     C84218   1.942   5.344   0.967  0.1522 -0.0067  0.6754
  639MOL0     O84219   1.922   5.206   0.991  0.5005  0.3509 -0.2349
  639MOL0     C84220   1.815   5.160   1.055  0.1276  0.1616  0.4285
  639MOL0     C84221   1.819   5.126   1.192 -0.1131 -0.1132 -0.0797
  639MOL0     C84222   1.704   5.075   1.255 -0.4613  0.2782  0.9232
  639MOL0     C84223   1.588   5.055   1.189 -0.2976 -0.2771 -0.9387
  639MOL0     O84224   1.472   5.006   1.251 -0.0823  0.2142 -0.0177
  639MOL0     C84225   1.472   4.977   1.385 -0.1474 -0.6359 -0.4291
  639MOL0     C84226   1.449   5.108   1.463 -0.4207 -1.1695  0.4242
  639MOL0     C84227   1.352   5.205   1.396  0.0278  0.6153 -0.7255
  639MOL0     C84228   1.216   5.144   1.384  0.6515 -0.6862  0.1022
  639MOL0     C84229   1.099   5.235   1.353 -0.0581 -0.5116 -0.1156
  639MOL0     C84230   1.072   5.324   1.467  0.2699 -0.9824 -0.4374
  639MOL0     C84231   0.965   5.431   1.426 -0.1028  0.0310  0.3182
  639MOL0     C84232   0.867   5.479   1.540  0.8811  0.3383  0.7589
  639MOL0     N84233   0.755   5.398   1.577  0.5213  0.2771  0.1744
  639MOL0     C84234   0.662   5.343   1.484 -0.3125 -1.0240 -0.9389
  639MOL0     C84235   0.583   5.262   1.564  0.5919  0.1224  0.9358
  639MOL0     C84236   0.472   5.161   1.516  0.8360 -0.1618 -0.3285
  639MOL0     C84237   0.331   5.197   1.557 -0.2822 -0.4087 -0.5123
  639MOL0     C84238   0.287   5.343   1.530  0.0336  1.0242 -0.9757
  639MOL0     C84239   0.146   5.378   1.577  0.4983  0.8673  0.2075
  639MOL0     O84240   0.057   5.311   1.482  0.5912 -0.6873 -0.3781
  639MOL0     C84241  -0.078   5.327   1.497 -0.2108 -0.1704  0.1356
  639MOL0     C84242  -0.164   5.300   1.391  0.5826 -0.5492  0.8873
  639MOL0     C84243  -0.301   5.314   1.387  0.1558  0.7161  1.3427
  639MOL0     C84244  -0.365   5.358   1.507 -0.0044 -0.0368 -0.6490
  639MOL0     C84245  -0.512   5.373   1.523  0.7777 -0.2141  0.1347
  639MOL0     O84246  -0.581   5.387   1.395 -0.3997 -0.1916 -0.2559
  639MOL0     C84247  -0.723   5.373   1.381  0.4410  0.3061 -0.3580
  639MOL0     C84248  -0.783   5.419   1.266  0.4818  0.6976  0.9024
  639MOL0     C84249  -0.924   5.399   1.261  1.1089  0.3619  0.4130
  639MOL0     C84250  -1.000   5.332   1.354  0.3624  0.3905 -0.3341
  639MOL0     O84251  -1.134   5.336   1.321 -0.4824  0.7381 -0.1519
  639MOL0     C84252  -1.205   5.213   1.352  0.7940  0.7063 -0.7530
  639MOL0     C84253  -1.355   5.227   1.308  0.0956  0.1055 -1.5772
  639MOL0     C84254  -1.383   5.233   1.148  0.2922  0.4076 -0.8053
  639MOL0     C84255  -1.536   5.226   1.131 -0.3529 -0.5095 -0.2627
  639MOL0     C84256  -1.588   5.243   0.989  1.1293 -0.6876  0.0424
  639MOL0     C84257  -1.560   5.369   0.913 -0.5366  0.4611 -0.6567
  639MOL0     C84258  -1.623   5.370   0.773 -0.6655 -0.4532  0.8315
  639MOL0     C84259  -1.538   5.458   0.679  0.7350 -0.3199  1.0690
  639MOL0    Cl84260  -1.611   5.476   0.515  0.2723 -0.0289 -0.5705
  639MOL0     C84261  -0.937   5.277   1.462  0.2233  0.8677  0.0259
  639MOL0     C84262  -0.796   5.300   1.478  0.4782  0.0660 -0.5191
  639MOL0     O84263  -0.563   5.377   1.629 -0.8923 -0.0981  0.1537
  639MOL0     C84264  -0.273   5.383   1.616 -0.1516  0.2398  0.9325
  639MOL0     C84265  -0.137   5.367   1.614  0.1635 -0.5424  0.4525
  639MOL0     N84266   0.634   5.249   1.691  0.3840 -0.0223  0.9885
  639MOL0     N84267   0.737   5.326   1.699  0.1650  0.2310  0.1630
  639MOL0     C84268   1.579   5.079   1.052 -0.4341  0.7406 -0.0673
  639MOL0     C84269   1.695   5.131   0.985 -0.0045  0.2286 -0.0965
  639MOL0     C84270   2.069   5.398   0.911  0.0916  0.0731  0.2235
  639MOL0     C84271   2.168   5.314   0.858  0.0570 -0.3178  0.3807
  639MOL0     C84272   2.283   5.352   0.804  0.4505 -0.6872  0.0622
  639MOL0     C84273   2.305   5.490   0.785 -0.4453 -0.3501  0.5691
  639MOL0     O84274   2.419   5.540   0.727  0.4267 -0.4064 -0.4009
  639MOL0     C84275   2.531   5.455   0.709 -0.1771  0.4519  0.2304
  639MOL0     C84276   2.665   5.523   0.684 -0.7755  0.0017 -0.8676
  639MOL0     C84277   2.737   5.567   0.815 -0.5964  0.0716 -0.7608
  639MOL0     C84278   2.660   5.670   0.899  0.1132  0.6287  0.4510
  639MOL0     C84279   2.645   5.801   0.825  0.4569  0.3147  0.0902
  639MOL0     C84280   2.618   5.905   0.769 -0.2127  0.5420 -0.5221
  639MOL0     C84281   2.197   5.579   0.816 -0.5769 -1.0721 -0.3391
  639MOL0     C84282   2.082   5.536   0.874 -0.1276  0.9911  1.0170
  639MOL0     H84283   1.917   5.149   1.233 -0.3880  0.0239  0.5194
  639MOL0     H84284   1.706   5.059   1.362 -0.6652  0.7454  0.9995
  639MOL0     H84285   1.564   4.928   1.421 -0.2025  1.4892  3.1219
  639MOL0     H84286   1.378   4.923   1.398 -1.5049  1.9260  1.3516
  639MOL0     H84287   1.543   5.162   1.481 -1.5499 -0.1043  3.8065
  639MOL0     H84288   1.419   5.079   1.564  1.2204  0.2984  1.3957
  639MOL0     H84289   1.390   5.242   1.300  1.0333  2.4029  0.3114
  639MOL0     H84290   1.338   5.295   1.457  0.0534  0.9896 -1.2671
  639MOL0     H84291   1.227   5.082   1.294 -0.8664  0.0583 -0.6364
  639MOL0     H84292   1.196   5.084   1.473  0.4504 -2.7576 -1.2601
  639MOL0     H84293   1.007   5.180   1.334 -0.2075 -0.2502 -0.1543
  639MOL0     H84294   1.130   5.296   1.267 -1.0795 -0.1055 -0.2050
  639MOL0     H84295   1.157   5.376   1.514 -2.3660  2.1732  1.2672
  639MOL0     H84296   1.028   5.266   1.548 -1.9415  3.8678  2.2583
  639MOL0     H84297   1.025   5.517   1.396 -1.9797  1.8268  1.4124
  639MOL0     H84298   0.911   5.397   1.337  1.9123 -1.9488 -0.2384
  639MOL0     H84299   0.817   5.572   1.515 -1.7765 -1.4636 -1.1727
  639MOL0     H84300   0.923   5.490   1.634 -0.2820  0.0600  1.5107
  639MOL0     H84301   0.657   5.361   1.377  1.2772  1.3266 -0.7002
  639MOL0     H84302   0.494   5.058   1.545  0.5342 -0.3012 -0.5986
  639MOL0     H84303   0.475   5.166   1.407  1.9888 -1.0140 -0.3516
  639MOL0     H84304   0.320   5.181   1.665  1.3020  0.3084 -0.2230
  639MOL0     H84305   0.270   5.124   1.503  1.5479 -3.6179  1.3611
  639MOL0     H84306   0.361   5.406   1.580 -0.0632  0.2145  0.2201
  639MOL0     H84307   0.290   5.366   1.423  1.2704  2.3681 -0.6818
  639MOL0     H84308   0.122   5.485   1.574  0.1429  0.7855  0.0512
  639MOL0     H84309   0.143   5.353   1.683  1.3281  1.3871  0.3686
  639MOL0     H84310  -0.110   5.282   1.299  1.1589 -1.5277  1.4025
  639MOL0     H84311  -0.355   5.281   1.300  2.4130 -1.2148  0.5519
  639MOL0     H84312  -0.732   5.465   1.183  1.9140  2.0074  2.4404
  639MOL0     H84313  -0.979   5.433   1.174  1.1147  1.2462  0.7457
  639MOL0     H84314  -1.192   5.183   1.456  1.9038 -0.3993 -1.1820
  639MOL0     H84315  -1.167   5.132   1.289  1.2946  1.3856 -1.3418
  639MOL0     H84316  -1.399   5.317   1.351 -0.4560  0.0394 -1.9884
  639MOL0     H84317  -1.401   5.135   1.346 -0.0287  0.9522  0.4292
  639MOL0     H84318  -1.346   5.136   1.113  0.2802  0.0328  0.1852
  639MOL0     H84319  -1.329   5.316   1.102 -1.8902  2.5008  0.1782
  639MOL0     H84320  -1.571   5.127   1.161 -0.3091 -0.3448  0.3571
  639MOL0     H84321  -1.582   5.297   1.200  2.6714  1.1256  0.2452
  639MOL0     H84322  -1.697   5.226   0.991  1.0976 -0.8073 -1.6273
  639MOL0     H84323  -1.554   5.164   0.922 -0.8320 -0.9069 -0.7752
  639MOL0     H84324  -1.451   5.366   0.908 -0.3510  2.3406  1.0289
  639MOL0     H84325  -1.594   5.463   0.956 -1.3606 -0.5162  0.9029
  639MOL0     H84326  -1.624   5.269   0.731 -1.8519 -0.9535  1.9936
  639MOL0     H84327  -1.727   5.404   0.770 -0.7669 -0.8119  0.2340
  639MOL0     H84328  -1.443   5.406   0.661  0.0095 -1.2606 -0.1209
  639MOL0     H84329  -1.512   5.559   0.712 -2.1785  1.3414 -1.2191
  639MOL0     H84330  -1.001   5.217   1.526  1.0392  2.0296  2.0411
  639MOL0     H84331  -0.755   5.258   1.569 -0.8931  2.3898  1.3071
  639MOL0     H84332  -0.315   5.419   1.709  1.5232  0.3371  1.6913
  639MOL0     H84333  -0.096   5.396   1.710  1.2175 -2.6785  0.7064
  639MOL0     H84334   1.488   5.047   1.002 -0.2781 -0.0192  0.1308
  639MOL0     H84335   1.687   5.152   0.879 -3.1593 -0.6635 -0.1557
  639MOL0     H84336   2.149   5.207   0.862  0.4248 -0.3453  2.7168
  639MOL0     H84337   2.362   5.280   0.780 -1.3614 -1.8311 -3.1933
  639MOL0     H84338   2.515   5.397   0.618  2.1515 -0.0474  0.0900
  639MOL0     H84339   2.547   5.392   0.797  3.3623  0.3122 -0.3784
  639MOL0     H84340   2.739   5.457   0.638  0.7905  2.3117 -1.8440
  639MOL0     H84341   2.658   5.606   0.613  4.4755  3.9722  2.4222
  639MOL0     H84342   2.828   5.620   0.787 -0.8871  2.7033  2.6339
  639MOL0     H84343   2.767   5.487   0.883  1.8896  1.0932 -0.5354
  639MOL0     H84344   2.564   5.628   0.931 -1.0251  2.0947 -0.8207
  639MOL0     H84345   2.724   5.681   0.987  0.0641  0.1383  0.5517
  639MOL0     H84346   2.595   5.988   0.705  2.4749  2.0406  0.2921
  639MOL0     H84347   2.210   5.683   0.788 -1.7180 -0.5654  0.8779
  639MOL0     H84348   2.009   5.612   0.900 -0.2860  1.1388  0.1918
  640MOL0     O84349   0.893   6.362   0.406  0.3779 -0.6108 -0.0027
  640MOL0     C84350   0.827   6.453   0.358 -0.2483 -0.0880  0.2104
  640MOL0     O84351   0.689   6.456   0.339  0.1342 -0.0072 -0.4485
  640MOL0     C84352   0.610   6.360   0.397  0.4663 -0.5126  0.5727
  640MOL0     C84353   0.636   6.219   0.416 -0.1763 -0.7051  0.0465
  640MOL0     C84354   0.534   6.124   0.436 -0.4578 -0.3661 -1.1702
  640MOL0     C84355   0.405   6.169   0.445 -0.4334 -0.1632  0.8503
  640MOL0     O84356   0.315   6.076   0.480  0.4528 -0.3507 -0.2541
  640MOL0     C84357   0.177   6.110   0.465  0.2263 -0.6484 -0.0185
  640MOL0     C84358   0.095   5.997   0.526  1.2529 -1.1381  0.2339
  640MOL0     C84359  -0.057   6.025   0.557 -0.2004  0.6776  0.6151
  640MOL0     C84360  -0.133   6.066   0.432 -0.7665  0.1604 -0.1364
  640MOL0     C84361  -0.288   6.039   0.432  0.3750 -0.5481  0.7104
  640MOL0     C84362  -0.358   6.132   0.532  0.1993 -0.7191 -0.6477
  640MOL0     C84363  -0.462   6.043   0.604  1.2091  0.3653 -0.6113
  640MOL0     C84364  -0.515   6.130   0.727  0.0064  0.5450  0.0982
  640MOL0     N84365  -0.609   6.231   0.669 -0.1654 -0.6971  0.3203
  640MOL0     C84366  -0.742   6.211   0.625 -0.4934 -0.3779 -0.4383
  640MOL0     C84367  -0.798   6.330   0.626  0.6768 -0.2704 -0.6389
  640MOL0     C84368  -0.938   6.353   0.591 -0.2166 -0.6287 -1.2369
  640MOL0     C84369  -0.971   6.346   0.443  0.3602  0.0940  0.6821
  640MOL0     C84370  -1.077   6.438   0.394 -0.8540  0.1149 -0.1014
  640MOL0     C84371  -1.210   6.418   0.476 -0.8236  0.2569 -0.5637
  640MOL0     O84372  -1.300   6.511   0.423 -0.1596  0.7243  0.2659
  640MOL0     C84373  -1.422   6.462   0.427 -0.5657 -0.4685  0.7898
  640MOL0     C84374  -1.484   6.415   0.307 -0.1102 -1.0000  0.5331
  640MOL0     C84375  -1.620   6.390   0.313  1.3051 -0.3979  0.0387
  640MOL0     C84376  -1.689   6.402   0.433 -0.7247  0.6456 -0.9424
  640MOL0     C84377  -1.831   6.354   0.443  0.8160 -0.3779 -0.4813
  640MOL0     O84378  -1.885   6.371   0.559 -0.2044  0.1888  0.2007
  640MOL0     C84379  -2.006   6.303   0.592 -0.2107 -0.0927 -0.0878
  640MOL0     C84380  -2.006   6.212   0.697 -0.4392  0.2280 -0.1583
  640MOL0     C84381  -2.118   6.140   0.739 -0.9180 -0.0230 -0.7082
  640MOL0     C84382  -2.241   6.164   0.680  0.1814 -0.3023  0.5767
  640MOL0     O84383  -2.363   6.108   0.716 -0.1357 -0.1272  0.2089
  640MOL0     C84384  -2.365   6.006   0.815  0.6111  0.1683  0.2793
  640MOL0     C84385  -2.511   5.968   0.851  0.1955 -0.0891 -0.8596
  640MOL0     C84386  -2.516   5.864   0.965 -0.8277 -0.7801 -0.6592
  640MOL0     C84387  -2.663   5.827   0.984 -0.0307 -0.3130 -0.5962
  640MOL0     C84388  -2.690   5.780   1.125 -0.0747 -0.5056  0.2861
  640MOL0     C84389  -2.673   5.899   1.234 -0.6847  0.6760 -0.3914
  640MOL0     C84390  -2.762   6.017   1.211  0.0495  0.6736 -0.3058
  640MOL0     C84391  -2.741   6.138   1.299  0.6269 -0.4031  0.7101
  640MOL0    Cl84392  -2.843   6.260   1.244 -0.5133  0.0730 -0.3329
  640MOL0     C84393  -2.252   6.246   0.572  0.5244  0.6304 -0.9035
  640MOL0     C84394  -2.128   6.306   0.522  0.0835 -0.2943  0.3615
  640MOL0     O84395  -1.884   6.307   0.345  1.5917 -0.1443 -0.7155
  640MOL0     C84396  -1.623   6.458   0.550 -0.2318 -0.1384  0.2242
  640MOL0     C84397  -1.495   6.491   0.541 -0.5454  0.5260  0.1894
  640MOL0     N84398  -0.702   6.427   0.662  0.0407  0.3531  0.3997
  640MOL0     N84399  -0.596   6.356   0.691  0.7683 -0.4151 -0.0073
  640MOL0     C84400   0.377   6.303   0.437 -0.3646 -0.5533  0.2959
  640MOL0     C84401   0.475   6.402   0.419  0.0637  0.6441 -0.3183
  640MOL0     C84402   0.914   6.557   0.291  0.5337 -0.3294  0.0393
  640MOL0     C84403   1.055   6.558   0.293  0.7579  1.6705  0.6010
  640MOL0     C84404   1.133   6.651   0.226  0.9085  0.0455 -0.0611
  640MOL0     C84405   1.065   6.758   0.163  0.2806 -0.4662 -0.2686
  640MOL0     O84406   1.136   6.865   0.111  0.0390 -0.4451 -0.6432
  640MOL0     C84407   1.277   6.848   0.106  0.8918 -0.9270  0.2581
  640MOL0     C84408   1.336   6.987   0.082  0.1830  0.3566  0.8172
  640MOL0     C84409   1.494   6.994   0.086  0.2306  0.3450 -0.0293
  640MOL0     C84410   1.547   7.138   0.080  0.1238 -0.1035  0.9710
  640MOL0     C84411   1.693   7.134   0.121  0.8233  0.0193 -0.5424
  640MOL0     C84412   1.798   7.119   0.181  0.5001 -0.5284 -0.1643
  640MOL0     C84413   0.924   6.769   0.166 -0.3325 -0.0486 -0.2066
  640MOL0     C84414   0.852   6.661   0.222 -0.6463  0.5176 -0.2838
  640MOL0     H84415   0.739   6.189   0.401  0.9467  2.3249  0.9537
  640MOL0     H84416   0.548   6.021   0.464 -0.9906 -0.4474 -1.1829
  640MOL0     H84417   0.148   6.118   0.360 -0.7889 -0.2745  0.2755
  640MOL0     H84418   0.148   6.200   0.520 -2.1081 -0.7603 -0.9531
  640MOL0     H84419   0.148   5.973   0.619 -1.6121  0.9377  2.6210
  640MOL0     H84420   0.096   5.918   0.451 -2.3181 -0.9362 -0.2006
  640MOL0     H84421  -0.072   6.086   0.647  2.1855 -0.6619  2.0357
  640MOL0     H84422  -0.095   5.928   0.592 -2.8720  0.6861 -1.8865
  640MOL0     H84423  -0.132   6.176   0.426  4.3542  0.5269  2.4286
  640MOL0     H84424  -0.084   6.032   0.340 -1.5865  0.7317 -0.8066
  640MOL0     H84425  -0.306   5.934   0.455  3.3922 -1.2337  0.2867
  640MOL0     H84426  -0.329   6.053   0.332  4.3047 -2.5312 -1.3638
  640MOL0     H84427  -0.401   6.211   0.470 -3.1981 -0.3731  1.8818
  640MOL0     H84428  -0.285   6.174   0.602 -0.6671  0.3730 -0.3886
  640MOL0     H84429  -0.548   6.014   0.543 -0.1461 -0.7888  1.6906
  640MOL0     H84430  -0.425   5.949   0.645 -1.2908 -0.7853 -0.8433
  640MOL0     H84431  -0.428   6.171   0.779 -0.3901  1.5511 -0.0231
  640MOL0     H84432  -0.559   6.049   0.787  2.1043 -2.3663 -1.9664
  640MOL0     H84433  -0.796   6.119   0.605 -2.0103 -0.2002  2.3655
  640MOL0     H84434  -0.954   6.451   0.636 -0.8047  0.0749 -2.9109
  640MOL0     H84435  -0.993   6.276   0.646 -0.1097 -0.0668 -0.3216
  640MOL0     H84436  -1.000   6.243   0.421 -2.5567  0.9755 -0.0730
  640MOL0     H84437  -0.882   6.368   0.384  0.9686 -1.2288  1.0859
  640MOL0     H84438  -1.049   6.540   0.422  1.9895 -0.6478  0.1503
  640MOL0     H84439  -1.100   6.444   0.287  0.8472 -0.5776 -0.5469
  640MOL0     H84440  -1.190   6.425   0.584  2.7186 -2.5702 -0.8203
  640MOL0     H84441  -1.234   6.314   0.451  0.6861  0.3417 -2.6701
  640MOL0     H84442  -1.431   6.413   0.212 -0.2338  2.8941  0.2284
  640MOL0     H84443  -1.685   6.362   0.230  1.4709  0.9292 -0.5630
  640MOL0     H84444  -1.907   6.194   0.739 -0.4001 -1.7499 -0.9773
  640MOL0     H84445  -2.099   6.066   0.817  1.9253  0.4835 -0.8095
  640MOL0     H84446  -2.318   6.036   0.909  1.8713 -2.4923  0.5978
  640MOL0     H84447  -2.301   5.924   0.782  2.5527  2.0951 -1.0355
  640MOL0     H84448  -2.558   5.930   0.760  0.8211 -0.6205 -0.9691
  640MOL0     H84449  -2.569   6.055   0.883 -0.3407 -0.3237 -1.1779
  640MOL0     H84450  -2.469   5.920   1.046 -1.4960  1.0580 -1.4820
  640MOL0     H84451  -2.459   5.776   0.935 -0.1703 -0.5425 -0.1355
  640MOL0     H84452  -2.720   5.917   0.961  0.2228 -0.4257 -1.7235
  640MOL0     H84453  -2.695   5.749   0.914  0.2378 -0.2237 -0.8193
  640MOL0     H84454  -2.622   5.697   1.144  1.7096  0.6534 -0.7382
  640MOL0     H84455  -2.795   5.749   1.125 -0.7580  1.5658 -1.1436
  640MOL0     H84456  -2.573   5.943   1.238 -1.4488  2.6549 -1.6421
  640MOL0     H84457  -2.688   5.851   1.331 -0.9017 -0.1092 -0.8102
  640MOL0     H84458  -2.770   6.038   1.104 -1.8408 -1.2174 -0.6118
  640MOL0     H84459  -2.865   5.990   1.236 -0.4574  2.9660  0.3062
  640MOL0     H84460  -2.637   6.170   1.283 -0.0513  2.2532  1.1704
  640MOL0     H84461  -2.764   6.109   1.402  1.0131  2.7719  1.7838
  640MOL0     H84462  -2.349   6.243   0.524  1.0833 -3.5680 -2.1466
  640MOL0     H84463  -2.137   6.368   0.433 -2.6143 -2.4586 -1.0313
  640MOL0     H84464  -1.684   6.475   0.638 -4.1104 -3.3965 -1.4868
  640MOL0     H84465  -1.451   6.538   0.628  1.5328 -1.1771  0.1522
  640MOL0     H84466   0.274   6.334   0.450 -0.4813 -0.5615 -0.5765
  640MOL0     H84467   0.455   6.509   0.410  0.3629  0.6527 -0.9328
  640MOL0     H84468   1.104   6.491   0.363 -1.2869  3.4166  3.9467
  640MOL0     H84469   1.240   6.644   0.245  1.6177 -1.6637 -3.7296
  640MOL0     H84470   1.310   6.789   0.020 -1.2312  1.8567 -2.6921
  640MOL0     H84471   1.316   6.821   0.205  0.6312  0.4337  0.7604
  640MOL0     H84472   1.295   7.022  -0.013  1.6047  0.5875  0.2637
  640MOL0     H84473   1.290   7.047   0.161 -3.9536 -3.4927  1.7345
  640MOL0     H84474   1.532   6.931   0.006  1.1670 -2.8752  2.7048
  640MOL0     H84475   1.537   6.938   0.169  3.9928  2.6032 -0.1999
  640MOL0     H84476   1.537   7.176  -0.022 -3.5648 -1.0678  0.8563
  640MOL0     H84477   1.500   7.207   0.150 -0.9363 -0.1513  0.3214
  640MOL0     H84478   1.900   7.115   0.213  0.1605  1.9342  1.4552
  640MOL0     H84479   0.868   6.849   0.119  2.0971  2.1000  0.3388
  640MOL0     H84480   0.745   6.677   0.236 -0.4439  0.2311  1.9853
  641MOL0     O84481   1.661   0.041   8.786 -0.5140 -0.4754 -0.3149
  641MOL0     C84482   1.695  -0.061   8.844  0.0456 -1.0437 -0.1561
  641MOL0     O84483   1.612  -0.141   8.898 -0.1249  0.2325 -0.2706
  641MOL0     C84484   1.473  -0.118   8.905  0.2446  0.0621 -0.2568
  641MOL0     C84485   1.399  -0.226   8.949  0.0994 -0.4736  0.1975
  641MOL0     C84486   1.267  -0.215   8.996 -0.3267  0.0146  0.1263
  641MOL0     C84487   1.197  -0.100   8.982 -0.2101  0.3902  0.9783
  641MOL0     O84488   1.067  -0.112   9.017  0.2473  0.5192  0.1174
  641MOL0     C84489   0.992   0.003   9.003  0.2734 -1.1395  0.4496
  641MOL0     C84490   0.841  -0.022   9.024 -0.8912 -0.8337  0.5876
  641MOL0     C84491   0.752   0.092   8.977 -1.3037  0.3309 -0.2458
  641MOL0     C84492   0.795   0.217   9.060 -0.0051  0.4055 -0.1000
  641MOL0     C84493   0.681   0.321   9.064  0.2297 -0.5937 -0.4641
  641MOL0     C84494   0.640   0.377   8.917 -0.3904  0.3710 -0.2158
  641MOL0     C84495   0.751   0.456   8.835 -0.5778  0.5324 -0.1257
  641MOL0     C84496   0.698   0.528   8.711 -0.4439 -0.2192  0.0494
  641MOL0     N84497   0.628   0.644   8.755 -0.0490  0.2031 -0.1395
  641MOL0     C84498   0.686   0.769   8.771 -1.0219  0.3542  0.3673
  641MOL0     C84499   0.580   0.847   8.795  0.7902  0.3334 -0.8244
  641MOL0     C84500   0.566   0.996   8.828 -0.6350  0.4871  0.5601
  641MOL0     C84501   0.457   1.024   8.932 -0.6618  0.5867  0.1513
  641MOL0     C84502   0.423   1.178   8.941 -0.0878 -0.1763  0.0150
  641MOL0     C84503   0.545   1.271   8.959 -0.7510  0.0668 -0.8900
  641MOL0     O84504   0.602   1.298   8.831  0.0425 -0.0740  0.4018
  641MOL0     C84505   0.717   1.357   8.811 -0.1974  0.4796 -0.4663
  641MOL0     C84506   0.793   1.430   8.916 -0.1924 -0.1727 -0.4382
  641MOL0     C84507   0.921   1.479   8.891 -0.0027 -0.2282  0.3495
  641MOL0     C84508   0.985   1.452   8.766  0.3092  0.8079  0.5197
  641MOL0     C84509   1.128   1.496   8.739 -0.0415  0.7712  0.0954
  641MOL0     O84510   1.196   1.426   8.644 -0.2066  0.3931  0.6050
  641MOL0     C84511   1.333   1.427   8.636 -0.0225  0.6747  0.6590
  641MOL0     C84512   1.423   1.448   8.741 -0.6974 -0.5072 -0.7857
  641MOL0     C84513   1.560   1.448   8.710 -0.1564  0.7238 -0.3543
  641MOL0     C84514   1.615   1.416   8.584  0.6434  0.4666 -0.3990
  641MOL0     O84515   1.745   1.434   8.563 -0.2152 -0.2778 -0.2134
  641MOL0     C84516   1.794   1.398   8.434 -0.7478 -0.3525  0.4987
  641MOL0     C84517   1.944   1.414   8.451 -0.0829  0.0766 -0.3096
  641MOL0     C84518   2.008   1.307   8.551  0.2855 -0.5526  0.3481
  641MOL0     C84519   2.151   1.282   8.515 -0.2292 -0.6327 -0.8693
  641MOL0     C84520   2.241   1.253   8.641 -0.2868  0.4531 -0.1503
  641MOL0     C84521   2.394   1.289   8.636  0.1191  0.6698 -0.1895
  641MOL0     C84522   2.441   1.255   8.779 -1.0128  0.1205  1.0038
  641MOL0     C84523   2.594   1.288   8.793  0.2564 -0.6493 -0.1559
  641MOL0    Cl84524   2.669   1.160   8.712  0.2453 -0.0432 -0.0675
  641MOL0     C84525   1.521   1.388   8.481  0.3495  0.0949 -0.1728
  641MOL0     C84526   1.383   1.387   8.507 -0.1250  0.5600  0.5546
  641MOL0     O84527   1.159   1.598   8.799 -0.5370  0.6630  0.1635
  641MOL0     C84528   0.919   1.371   8.670 -0.1624  0.2024  0.2287
  641MOL0     C84529   0.779   1.341   8.681 -0.9370  0.2000 -0.4635
  641MOL0     N84530   0.462   0.770   8.779 -0.4536  0.3402  0.0082
  641MOL0     N84531   0.489   0.646   8.758 -0.2938  0.6384 -0.6450
  641MOL0     C84532   1.280   0.019   8.948  0.1880  0.6092 -0.7481
  641MOL0     C84533   1.415   0.009   8.911 -0.2555  0.1472  0.1459
  641MOL0     C84534   1.839  -0.096   8.849 -0.2615  0.4837  0.3641
  641MOL0     C84535   1.933  -0.003   8.813  0.4469 -0.0566 -0.0234
  641MOL0     C84536   2.071  -0.036   8.806  0.0056  0.0448 -0.3266
  641MOL0     C84537   2.116  -0.161   8.841 -0.4979  0.0714 -0.9666
  641MOL0     O84538   2.249  -0.197   8.843  0.9430  1.0636 -0.2981
  641MOL0     C84539   2.352  -0.104   8.793  0.6837  0.2690 -0.9143
  641MOL0     C84540   2.384   0.025   8.876  0.2029  0.9857  0.2245
  641MOL0     C84541   2.406  -0.015   9.020  0.0423 -0.1249 -1.4154
  641MOL0     C84542   2.449   0.114   9.100 -0.3979 -0.7091 -0.6517
  641MOL0     C84543   2.584   0.153   9.081 -0.0041  0.4675  0.1466
  641MOL0     C84544   2.693   0.191   9.048  0.1204 -0.4240  0.6435
  641MOL0     C84545   2.026  -0.255   8.880  0.4497  0.4613 -0.3025
  641MOL0     C84546   1.886  -0.229   8.890 -0.6184 -0.2188  0.6785
  641MOL0     H84547   1.449  -0.320   8.971  0.3124 -0.3969  0.0516
  641MOL0     H84548   1.214  -0.304   9.028 -1.9384  0.7369 -0.4053
  641MOL0     H84549   1.005   0.054   8.907  0.6180  0.7897  1.4677
  641MOL0     H84550   1.022   0.077   9.077 -0.3230 -0.0152 -0.3939
  641MOL0     H84551   0.822  -0.055   9.127 -0.6583 -1.9786  0.2800
  641MOL0     H84552   0.830  -0.105   8.954  4.9872  0.6050 -2.6844
  641MOL0     H84553   0.646   0.068   8.988 -1.6431  0.7565 -2.1594
  641MOL0     H84554   0.773   0.113   8.872 -4.8137  0.2242 -1.0805
  641MOL0     H84555   0.819   0.183   9.161  1.9864  1.9796  0.0424
  641MOL0     H84556   0.881   0.270   9.018  0.1737 -0.6488 -1.1292
  641MOL0     H84557   0.714   0.408   9.121 -1.0070  1.3502 -2.5444
  641MOL0     H84558   0.594   0.279   9.116  0.3030  0.6755  0.7488
  641MOL0     H84559   0.558   0.447   8.933 -0.7361 -0.3310  1.3180
  641MOL0     H84560   0.602   0.290   8.863  3.3860 -0.9102 -1.1423
  641MOL0     H84561   0.786   0.532   8.907  0.6699 -0.9343  0.8795
  641MOL0     H84562   0.830   0.387   8.803 -0.2796  0.4998  0.6591
  641MOL0     H84563   0.644   0.462   8.643  0.5505  1.2818 -2.3328
  641MOL0     H84564   0.784   0.552   8.648 -0.9346 -2.1712 -1.4750
  641MOL0     H84565   0.790   0.801   8.767 -0.2355 -1.8245  1.6680
  641MOL0     H84566   0.544   1.046   8.733 -1.2009 -2.8782 -1.2473
  641MOL0     H84567   0.663   1.032   8.861  1.0098 -0.0758 -3.1103
  641MOL0     H84568   0.486   0.987   9.031  0.3609 -0.9236 -0.6686
  641MOL0     H84569   0.371   0.966   8.899  1.0011 -1.0490 -1.5461
  641MOL0     H84570   0.380   1.207   8.845  0.3728 -0.9004 -0.4162
  641MOL0     H84571   0.347   1.190   9.019 -2.0179 -3.0355 -1.2533
  641MOL0     H84572   0.619   1.220   9.021 -1.2763 -2.1548 -1.9785
  641MOL0     H84573   0.513   1.365   9.005  0.1495 -1.1808  2.5662
  641MOL0     H84574   0.741   1.439   9.010  1.2302 -2.9652  0.7265
  641MOL0     H84575   0.974   1.544   8.960 -2.7013  1.7072  0.7878
  641MOL0     H84576   1.398   1.454   8.846 -0.5439  0.1362 -0.7841
  641MOL0     H84577   1.639   1.482   8.775  0.7370 -0.7003 -0.6503
  641MOL0     H84578   1.757   1.464   8.355  2.5957  1.9596  0.6820
  641MOL0     H84579   1.776   1.294   8.404  3.1444 -1.2262  0.6423
  641MOL0     H84580   1.971   1.514   8.487  1.2765 -0.0377 -0.9382
  641MOL0     H84581   1.988   1.413   8.351  3.9360  1.9052  1.1839
  641MOL0     H84582   1.953   1.213   8.540 -2.6275  1.1977 -1.5679
  641MOL0     H84583   1.989   1.339   8.654 -2.5346 -2.1671  0.4345
  641MOL0     H84584   2.168   1.199   8.446  3.3712 -2.4480  1.8058
  641MOL0     H84585   2.188   1.372   8.466  0.3544 -1.9757 -3.0475
  641MOL0     H84586   2.234   1.149   8.674 -2.6489  0.4534 -0.4594
  641MOL0     H84587   2.193   1.317   8.716 -1.8250 -0.7944 -0.0195
  641MOL0     H84588   2.419   1.392   8.613  0.9557  1.1586  2.5769
  641MOL0     H84589   2.431   1.218   8.561 -2.3407  1.1610 -2.0286
  641MOL0     H84590   2.388   1.319   8.850  0.5559  1.3994  1.0841
  641MOL0     H84591   2.424   1.148   8.795  1.1801 -0.5576 -0.6520
  641MOL0     H84592   2.628   1.288   8.897  0.2796  0.8740 -0.1391
  641MOL0     H84593   2.616   1.391   8.763 -0.6275  0.1651  1.7488
  641MOL0     H84594   1.565   1.389   8.382  3.1058  1.5797  0.9743
  641MOL0     H84595   1.314   1.361   8.428  2.6822 -0.2298 -1.8031
  641MOL0     H84596   0.962   1.337   8.577 -0.7340  1.0508 -0.3620
  641MOL0     H84597   0.721   1.288   8.606  0.7346  0.4327 -1.9708
  641MOL0     H84598   1.234   0.117   8.941 -1.1175  0.0852  0.1310
  641MOL0     H84599   1.452   0.109   8.890 -1.8782  0.8017  0.2895
  641MOL0     H84600   1.901   0.091   8.770 -3.6284 -1.1486  0.1984
  641MOL0     H84601   2.133   0.042   8.763 -1.3439  0.3513 -1.8096
  641MOL0     H84602   2.318  -0.072   8.693 -0.3402  0.5129 -0.5052
  641MOL0     H84603   2.435  -0.172   8.773 -0.9983 -2.2611  0.2403
  641MOL0     H84604   2.469   0.078   8.832  1.6471 -1.3786 -0.0214
  641MOL0     H84605   2.297   0.092   8.879  0.4565  1.2932  2.0195
  641MOL0     H84606   2.480  -0.093   9.040 -0.9453 -0.5903  0.7649
  641MOL0     H84607   2.311  -0.040   9.067 -0.2267  2.8214 -0.1617
  641MOL0     H84608   2.380   0.198   9.086 -0.4362 -0.7534 -0.7257
  641MOL0     H84609   2.442   0.098   9.208  1.4045 -1.4159 -0.6040
  641MOL0     H84610   2.790   0.205   9.005 -0.9903 -0.5025 -2.0851
  641MOL0     H84611   2.058  -0.342   8.937  0.5039  1.4687  1.2761
  641MOL0     H84612   1.813  -0.304   8.915 -1.5578  1.1952  2.4249
  642MOL0     O84613   8.960   3.065   4.193 -0.2941  0.5379  0.3725
  642MOL0     C84614   8.867   3.097   4.111 -0.8815 -1.2507 -0.1815
  642MOL0     O84615   8.853   3.219   4.053 -0.0689 -0.6251  0.2122
  642MOL0     C84616   8.945   3.309   4.103  0.0923  1.2827 -0.6180
  642MOL0     C84617   8.926   3.389   4.215 -0.5771  0.1692 -0.5763
  642MOL0     C84618   9.032   3.471   4.257  0.4865  0.2031 -0.5103
  642MOL0     C84619   9.157   3.469   4.190  1.3285 -0.0966 -0.0530
  642MOL0     O84620   9.250   3.548   4.249  0.9457 -0.5698  0.0082
  642MOL0     C84621   9.378   3.516   4.196 -0.8499 -0.8132 -0.0833
  642MOL0     C84622   9.477   3.585   4.283 -0.5417 -0.6182 -0.0662
  642MOL0     C84623   9.614   3.576   4.229 -0.6641  0.2281  0.5952
  642MOL0     C84624   9.726   3.610   4.325 -0.5613  0.2320  0.0050
  642MOL0     C84625   9.862   3.589   4.261  0.2708  0.4353  0.4406
  642MOL0     C84626   9.892   3.701   4.160  0.8801  0.4791 -0.2482
  642MOL0     C84627  10.011   3.705   4.060  0.4814  0.2173 -0.7601
  642MOL0     C84628  10.144   3.685   4.142  0.1996  0.5225  0.7513
  642MOL0     N84629  10.256   3.728   4.062 -0.8149 -0.1736  0.1938
  642MOL0     C84630  10.349   3.638   4.004 -0.3324  0.1377 -0.4045
  642MOL0     C84631  10.419   3.719   3.927 -0.6247  1.0005 -0.4026
  642MOL0     C84632  10.537   3.672   3.838 -0.6301  0.5273 -0.1434
  642MOL0     C84633  10.657   3.674   3.923 -0.8093  0.5236  0.6128
  642MOL0     C84634  10.782   3.607   3.841  0.6014 -0.4763  0.0162
  642MOL0     C84635  10.913   3.633   3.910  0.2762 -0.2806 -0.7435
  642MOL0     O84636  11.022   3.586   3.836 -0.1581  0.0853  0.0911
  642MOL0     C84637  11.159   3.599   3.877  0.6158 -0.4222 -0.6434
  642MOL0     C84638  11.194   3.670   3.998 -1.0102 -0.5699  0.9685
  642MOL0     C84639  11.332   3.684   4.039  0.7302 -0.2314 -0.5038
  642MOL0     C84640  11.431   3.652   3.940 -0.1840 -0.3109  0.1625
  642MOL0     C84641  11.573   3.668   3.978 -0.3980  1.0862 -0.4507
  642MOL0     O84642  11.666   3.677   3.878  0.2649 -0.2752 -0.3190
  642MOL0     C84643  11.798   3.677   3.926  0.3085  0.1942  0.6154
  642MOL0     C84644  11.865   3.557   3.921  0.5229  0.9513 -1.0802
  642MOL0     C84645  11.992   3.550   3.970 -0.2900  0.8064  0.4901
  642MOL0     C84646  12.055   3.662   4.022 -0.0217 -0.0154  0.5125
  642MOL0     O84647  12.182   3.646   4.079  0.7700 -0.0658 -0.5065
  642MOL0     C84648  12.286   3.708   4.018  0.6582  0.4882 -0.4496
  642MOL0     C84649  12.400   3.635   4.070 -0.5260  0.7547 -1.2288
  642MOL0     C84650  12.534   3.708   4.036  0.2470 -1.2095 -0.0346
  642MOL0     C84651  12.648   3.617   4.070  0.6340 -0.5850  0.0487
  642MOL0     C84652  12.780   3.657   4.003 -0.2380  0.0053 -0.1013
  642MOL0     C84653  12.899   3.604   4.082 -0.1289  0.0674 -0.8048
  642MOL0     C84654  13.027   3.651   4.007 -0.9822  0.6884 -0.5425
  642MOL0     C84655  13.155   3.623   4.090  0.1104  0.2338  0.1279
  642MOL0    Cl84656  13.175   3.454   4.137  0.0285 -0.0467  0.3435
  642MOL0     C84657  11.986   3.790   4.029 -0.0114  0.1561 -0.1830
  642MOL0     C84658  11.862   3.793   3.970 -0.0425 -0.0567  0.0612
  642MOL0     O84659  11.601   3.657   4.098  0.1024  0.3905  0.3220
  642MOL0     C84660  11.394   3.587   3.819 -0.5417 -0.6340 -0.2163
  642MOL0     C84661  11.258   3.564   3.790 -0.4678  0.8498 -0.7473
  642MOL0     N84662  10.382   3.847   3.945  0.1119  0.1577 -1.5775
  642MOL0     N84663  10.281   3.854   4.023  0.0126 -0.3270  0.1202
  642MOL0     C84664   9.164   3.399   4.068 -0.3163  1.1925 -0.1120
  642MOL0     C84665   9.055   3.328   4.026  0.5643  0.6795 -0.0833
  642MOL0     C84666   8.789   2.981   4.070  0.0678 -0.2364  1.0956
  642MOL0     C84667   8.791   2.858   4.139 -1.0103 -0.4193  0.8083
  642MOL0     C84668   8.716   2.750   4.086 -0.7378 -1.0153  0.5953
  642MOL0     C84669   8.648   2.754   3.968  0.2392  0.4250 -0.0169
  642MOL0     O84670   8.595   2.634   3.926  0.4217 -0.3770 -0.5634
  642MOL0     C84671   8.542   2.626   3.796  0.8892  0.0809  0.2399
  642MOL0     C84672   8.385   2.671   3.785  0.2289 -0.2486  0.8397
  642MOL0     C84673   8.337   2.640   3.645  0.5686  0.1738 -0.2460
  642MOL0     C84674   8.314   2.760   3.547  0.5759  0.3099 -1.2896
  642MOL0     C84675   8.441   2.829   3.529  0.4071 -1.3535  0.0771
  642MOL0     C84676   8.542   2.880   3.477 -0.1701 -0.1993 -0.0128
  642MOL0     C84677   8.637   2.879   3.904 -0.8181  0.2321 -0.5599
  642MOL0     C84678   8.710   2.990   3.946 -0.5323  0.2117  0.6243
  642MOL0     H84679   8.826   3.384   4.256  0.2414 -0.3039  1.5196
  642MOL0     H84680   9.036   3.526   4.350  1.1098  0.4650 -0.6866
  642MOL0     H84681   9.403   3.553   4.096 -1.2888 -0.5804 -0.1091
  642MOL0     H84682   9.395   3.408   4.197 -1.2311 -0.8860 -0.8075
  642MOL0     H84683   9.479   3.530   4.378  3.2969 -1.6424 -0.5523
  642MOL0     H84684   9.449   3.687   4.311  1.3083 -0.4833  1.5671
  642MOL0     H84685   9.622   3.619   4.129 -0.5999 -1.5016 -0.1774
  642MOL0     H84686   9.637   3.470   4.212 -3.7346 -0.0730 -2.8823
  642MOL0     H84687   9.718   3.714   4.357 -1.8046  0.5803 -1.3349
  642MOL0     H84688   9.726   3.534   4.404 -0.5618  0.3371  0.1055
  642MOL0     H84689   9.857   3.494   4.207 -2.0950  2.4153 -3.2261
  642MOL0     H84690   9.939   3.583   4.338  0.6314 -2.9689 -0.0365
  642MOL0     H84691   9.916   3.788   4.222 -0.7571  0.4749  0.4300
  642MOL0     H84692   9.802   3.729   4.106  0.0487 -2.0860 -0.3270
  642MOL0     H84693  10.008   3.625   3.985  1.5561 -0.1470 -0.4249
  642MOL0     H84694  10.014   3.804   4.015  1.8417  0.0196 -1.1263
  642MOL0     H84695  10.160   3.584   4.183  0.0857  1.0744  2.2155
  642MOL0     H84696  10.132   3.742   4.235 -2.8512 -2.8192  2.6471
  642MOL0     H84697  10.372   3.533   4.014  1.4028  0.5026 -0.0931
  642MOL0     H84698  10.544   3.731   3.747  0.2374  0.7359  0.0553
  642MOL0     H84699  10.520   3.568   3.809  0.4188  0.7562 -1.6716
  642MOL0     H84700  10.625   3.612   4.007  0.3429  2.8293  2.8972
  642MOL0     H84701  10.694   3.773   3.953  1.3133 -0.2066  0.5665
  642MOL0     H84702  10.766   3.499   3.831  2.2237 -0.7040 -0.4772
  642MOL0     H84703  10.778   3.650   3.741 -3.1389  1.1792  0.7045
  642MOL0     H84704  10.912   3.583   4.007  2.2613 -1.2967 -1.1967
  642MOL0     H84705  10.922   3.742   3.922 -0.6852 -0.0028 -2.1711
  642MOL0     H84706  11.120   3.692   4.074  0.3155 -2.7482  3.0146
  642MOL0     H84707  11.364   3.729   4.133 -0.8501 -0.1306  0.0255
  642MOL0     H84708  11.816   3.465   3.889  0.6109 -0.3980  2.2302
  642MOL0     H84709  12.044   3.456   3.971  0.4841  1.1311 -1.8042
  642MOL0     H84710  12.289   3.813   4.049  0.4976  0.3206  0.1478
  642MOL0     H84711  12.284   3.696   3.910  1.5619 -1.4046 -0.2861
  642MOL0     H84712  12.396   3.541   4.014 -0.9289  1.3020 -2.1389
  642MOL0     H84713  12.410   3.627   4.178  0.8316  0.9803 -1.3144
  642MOL0     H84714  12.545   3.801   4.092 -1.9604 -0.2767 -1.0387
  642MOL0     H84715  12.540   3.740   3.931 -1.5420  1.3805  0.5596
  642MOL0     H84716  12.673   3.604   4.176  1.7363  0.2405 -0.0870
  642MOL0     H84717  12.624   3.521   4.025 -0.1946  0.2693 -1.4031
  642MOL0     H84718  12.795   3.763   3.983 -2.4522 -0.0635 -2.7050
  642MOL0     H84719  12.775   3.606   3.907 -1.0404 -3.8689  1.7842
  642MOL0     H84720  12.908   3.496   4.092 -1.6689  0.0222  0.5712
  642MOL0     H84721  12.891   3.647   4.182  0.7799  0.1837 -0.7745
  642MOL0     H84722  13.023   3.605   3.908 -3.7517 -0.7423  0.1305
  642MOL0     H84723  13.016   3.760   4.010 -2.0163  0.6507  3.3260
  642MOL0     H84724  13.159   3.695   4.173  1.0648  1.6360 -1.0814
  642MOL0     H84725  13.247   3.648   4.037  1.7228  0.8725  2.9991
  642MOL0     H84726  12.023   3.881   4.075  1.3937 -0.8618  0.8147
  642MOL0     H84727  11.810   3.888   3.976 -0.2772 -0.2506  1.3300
  642MOL0     H84728  11.480   3.567   3.756  0.9971  1.1319  1.1744
  642MOL0     H84729  11.229   3.508   3.702  0.0173  0.4694 -0.6737
  642MOL0     H84730   9.258   3.386   4.016 -0.2070  1.0702  0.1212
  642MOL0     H84731   9.049   3.287   3.926  1.1063  3.6989 -1.4492
  642MOL0     H84732   8.847   2.837   4.230 -0.0672 -5.4779 -0.6481
  642MOL0     H84733   8.720   2.650   4.128  2.1394 -2.8106 -3.3325
  642MOL0     H84734   8.541   2.521   3.766  1.4831 -0.3957  1.7850
  642MOL0     H84735   8.594   2.692   3.726  0.2336 -0.1638 -0.4958
  642MOL0     H84736   8.322   2.624   3.862  0.8805 -1.9686  0.3657
  642MOL0     H84737   8.372   2.778   3.804 -1.4611 -0.5939  1.8750
  642MOL0     H84738   8.238   2.595   3.646 -0.4214  2.0499 -2.3027
  642MOL0     H84739   8.393   2.563   3.591 -2.2601 -3.3666  1.4664
  642MOL0     H84740   8.282   2.720   3.450 -2.5030 -0.3810 -0.1085
  642MOL0     H84741   8.244   2.826   3.598  1.6991  0.1888  0.4990
  642MOL0     H84742   8.629   2.916   3.427  0.0383  0.2783  0.6743
  642MOL0     H84743   8.582   2.901   3.813  3.4825  0.5866 -3.3647
  642MOL0     H84744   8.724   3.073   3.877  0.6755 -0.4962 -0.0315
  643MOL0     O84745   6.884   1.781   7.415 -1.0339 -0.9603 -0.3174
  643MOL0     C84746   6.830   1.674   7.418 -0.2382 -0.8047  0.0298
  643MOL0     O84747   6.879   1.561   7.483  0.2154  0.0404  0.4435
  643MOL0     C84748   6.999   1.570   7.542 -0.5610 -0.3714  0.0719
  643MOL0     C84749   7.019   1.602   7.673 -0.1827  0.0326  0.1611
  643MOL0     C84750   7.152   1.601   7.727  0.5909  0.7151 -0.0272
  643MOL0     C84751   7.265   1.589   7.644 -0.3070  0.0863 -0.1653
  643MOL0     O84752   7.387   1.610   7.699  0.4136  0.6201 -0.8040
  643MOL0     C84753   7.503   1.531   7.656 -0.9108 -0.1205  0.4722
  643MOL0     C84754   7.633   1.557   7.728 -2.0247  0.0348 -1.0142
  643MOL0     C84755   7.769   1.511   7.675 -0.0431 -0.3041 -0.3983
  643MOL0     C84756   7.890   1.545   7.756  0.3730  0.3369 -0.7256
  643MOL0     C84757   8.022   1.524   7.677  0.0612 -0.5444  0.0643
  643MOL0     C84758   8.053   1.613   7.558 -0.4422 -0.6272  0.3165
  643MOL0     C84759   8.070   1.764   7.590  0.1596 -0.2772  0.8134
  643MOL0     C84760   8.113   1.845   7.458  1.7074  0.7669  0.5260
  643MOL0     N84761   8.002   1.827   7.362  0.4850 -0.3558  0.5774
  643MOL0     C84762   7.866   1.845   7.382 -0.0975  0.1937  0.3475
  643MOL0     C84763   7.803   1.802   7.265 -0.0160 -0.5237 -0.1631
  643MOL0     C84764   7.657   1.805   7.240 -0.3821  0.0889  0.1560
  643MOL0     C84765   7.596   1.670   7.199 -0.2344 -0.0735  0.4867
  643MOL0     C84766   7.447   1.649   7.186  1.2457  0.2886 -0.1825
  643MOL0     C84767   7.375   1.723   7.073 -0.5760  0.0755 -0.3953
  643MOL0     O84768   7.242   1.693   7.083  1.1497 -0.5477 -0.6623
  643MOL0     C84769   7.144   1.776   7.030 -1.5746 -0.4065 -0.3932
  643MOL0     C84770   7.167   1.875   6.934 -0.0474  0.5449  0.3161
  643MOL0     C84771   7.051   1.939   6.870  0.5395  0.2875  0.4103
  643MOL0     C84772   6.929   1.872   6.902  0.5675  0.5030 -0.1409
  643MOL0     C84773   6.807   1.911   6.834 -0.2278  0.2531  0.2618
  643MOL0     O84774   6.725   1.798   6.809 -0.1502  0.1101  0.1079
  643MOL0     C84775   6.591   1.810   6.774 -0.5150 -0.4239  0.1954
  643MOL0     C84776   6.498   1.715   6.813 -0.5908 -0.3747 -0.2365
  643MOL0     C84777   6.363   1.714   6.779 -0.1235  0.6857  0.6285
  643MOL0     C84778   6.317   1.818   6.691  0.3215 -0.6002 -0.2223
  643MOL0     O84779   6.188   1.819   6.656  0.1172  0.4527  0.0438
  643MOL0     C84780   6.122   1.944   6.626  0.2381  0.3021  1.1313
  643MOL0     C84781   5.975   1.919   6.610 -0.6282  0.5035  0.8506
  643MOL0     C84782   5.906   2.053   6.619  0.0943 -0.7396  0.0494
  643MOL0     C84783   5.758   2.023   6.609 -0.5859 -0.6919 -0.1885
  643MOL0     C84784   5.709   1.974   6.747  0.3562  0.8670  0.3575
  643MOL0     C84785   5.562   1.917   6.731 -1.0080 -0.2697  0.3711
  643MOL0     C84786   5.523   1.814   6.840 -0.6847  0.3166  0.4301
  643MOL0     C84787   5.383   1.762   6.823  0.0067  0.4030  0.1780
  643MOL0    Cl84788   5.290   1.909   6.868  0.0129 -0.1434 -0.0887
  643MOL0     C84789   6.408   1.918   6.656 -0.3330 -0.5786 -0.0420
  643MOL0     C84790   6.541   1.907   6.687 -0.1229 -1.3172 -0.3168
  643MOL0     O84791   6.776   2.030   6.808  0.0934 -0.9358 -0.3385
  643MOL0     C84792   6.912   1.776   7.010 -0.6525  0.3128  0.1988
  643MOL0     C84793   7.022   1.735   7.081 -0.2833 -0.3977  0.8825
  643MOL0     N84794   7.903   1.755   7.177 -0.0039 -0.5867  0.1801
  643MOL0     N84795   8.021   1.772   7.240  0.3215  0.2458  0.2311
  643MOL0     C84796   7.243   1.562   7.507 -0.1919 -0.2058 -0.2944
  643MOL0     C84797   7.119   1.558   7.454  0.5034  0.0463  0.0012
  643MOL0     C84798   6.697   1.663   7.347 -0.2350  0.2093 -0.4469
  643MOL0     C84799   6.664   1.757   7.245  0.8774 -0.2619  0.6192
  643MOL0     C84800   6.533   1.745   7.191 -0.9422  0.8627 -0.3367
  643MOL0     C84801   6.440   1.642   7.222  0.0004 -0.4115 -0.3958
  643MOL0     O84802   6.329   1.645   7.149  1.0657 -0.1965  0.9278
  643MOL0     C84803   6.222   1.555   7.187  0.5776 -0.2040  0.2470
  643MOL0     C84804   6.152   1.606   7.320  0.6938  0.1845 -0.6875
  643MOL0     C84805   6.020   1.525   7.343  0.9879  0.2451 -0.1234
  643MOL0     C84806   5.975   1.544   7.486  0.2605  0.1972  0.9283
  643MOL0     C84807   5.848   1.465   7.511  0.1642 -0.2688  0.0597
  643MOL0     C84808   5.738   1.413   7.533  0.0031  1.4812  0.5715
  643MOL0     C84809   6.478   1.554   7.332 -0.5717 -0.4794 -0.0813
  643MOL0     C84810   6.607   1.564   7.395  0.0946 -0.3923 -0.2842
  643MOL0     H84811   6.931   1.617   7.735 -0.7570 -0.9055 -0.4103
  643MOL0     H84812   7.167   1.615   7.834  0.7893 -2.8702  0.5481
  643MOL0     H84813   7.526   1.558   7.552 -0.6206  2.1595  1.0910
  643MOL0     H84814   7.479   1.424   7.654 -1.9461  0.0224  2.5112
  643MOL0     H84815   7.628   1.518   7.830  0.5070 -2.9929 -1.8913
  643MOL0     H84816   7.649   1.665   7.736 -1.7030 -0.0476 -0.4785
  643MOL0     H84817   7.773   1.566   7.580 -2.8667  1.4890  0.4330
  643MOL0     H84818   7.767   1.402   7.663  1.6882 -0.8753  3.3151
  643MOL0     H84819   7.885   1.647   7.793  1.2123  0.2970 -0.4742
  643MOL0     H84820   7.875   1.481   7.844 -3.7528  0.6516 -0.9928
  643MOL0     H84821   8.009   1.420   7.645 -3.6810 -0.5552  1.0873
  643MOL0     H84822   8.111   1.541   7.738  1.7940  0.8471 -2.6327
  643MOL0     H84823   7.979   1.601   7.479 -1.0847 -0.6041  0.9098
  643MOL0     H84824   8.147   1.582   7.511 -1.0014  1.7275 -2.6794
  643MOL0     H84825   7.988   1.828   7.624 -0.3313 -0.4026 -0.0865
  643MOL0     H84826   8.152   1.773   7.661  3.2941 -1.0066 -2.4080
  643MOL0     H84827   8.205   1.805   7.414 -0.2706 -3.5489 -0.2336
  643MOL0     H84828   8.121   1.953   7.472 -3.8417  1.6697 -0.8300
  643MOL0     H84829   7.826   1.893   7.470  0.2834  1.0237  0.0767
  643MOL0     H84830   7.644   1.875   7.157  0.5579  1.1464  0.8566
  643MOL0     H84831   7.602   1.853   7.321  0.4061 -1.1576  1.4923
  643MOL0     H84832   7.622   1.601   7.279 -1.7651 -1.1277  0.1395
  643MOL0     H84833   7.642   1.646   7.103  0.4313  1.4662  0.3921
  643MOL0     H84834   7.437   1.540   7.187  0.2973  0.3600 -0.5952
  643MOL0     H84835   7.406   1.681   7.283  1.8283  0.0562  0.1459
  643MOL0     H84836   7.400   1.700   6.969 -1.0851  0.6956 -0.6646
  643MOL0     H84837   7.390   1.831   7.084  1.2092 -0.1810 -0.0166
  643MOL0     H84838   7.264   1.915   6.909 -1.5519  3.2568 -1.7654
  643MOL0     H84839   7.049   2.017   6.794 -0.5802  1.2215  1.3579
  643MOL0     H84840   6.523   1.628   6.873 -1.8038 -0.3726  0.2966
  643MOL0     H84841   6.296   1.638   6.816 -0.3174  0.2403 -0.6089
  643MOL0     H84842   6.155   2.002   6.539 -1.0028  1.0261  1.1095
  643MOL0     H84843   6.132   2.008   6.713  0.4151  1.5052  0.2504
  643MOL0     H84844   5.943   1.838   6.677  0.5144 -0.4576  0.2766
  643MOL0     H84845   5.967   1.865   6.516 -1.1109 -0.8002  1.6080
  643MOL0     H84846   5.917   2.115   6.530 -1.3605  0.0333  0.3750
  643MOL0     H84847   5.927   2.111   6.709 -2.5634  2.4584 -1.1805
  643MOL0     H84848   5.698   2.111   6.585  0.7893 -0.2846 -2.4096
  643MOL0     H84849   5.750   1.951   6.527  0.9844 -1.4346  0.2563
  643MOL0     H84850   5.693   2.061   6.811 -2.8076  1.3124 -0.8876
  643MOL0     H84851   5.769   1.894   6.792 -0.4945  1.3214  2.3955
  643MOL0     H84852   5.550   1.875   6.630  0.1496  2.3439 -0.9554
  643MOL0     H84853   5.512   2.013   6.725  3.8662  2.9532  3.6197
  643MOL0     H84854   5.588   1.726   6.842 -0.1580  0.6963  2.2725
  643MOL0     H84855   5.537   1.861   6.938  0.4312  0.3922  0.2514
  643MOL0     H84856   5.363   1.690   6.902 -0.9447  0.3348 -0.1089
  643MOL0     H84857   5.353   1.724   6.724  2.3517 -1.9543  0.2770
  643MOL0     H84858   6.370   2.003   6.599  0.0340 -1.3212 -1.4427
  643MOL0     H84859   6.612   1.980   6.649 -1.7950 -0.1263 -1.2792
  643MOL0     H84860   6.811   1.745   7.036 -0.7998  0.6041 -0.0274
  643MOL0     H84861   7.014   1.661   7.159 -0.2418  0.4474  1.7030
  643MOL0     H84862   7.326   1.540   7.440 -0.8909 -2.8973 -0.4080
  643MOL0     H84863   7.121   1.540   7.347  0.5982 -0.6803  0.1184
  643MOL0     H84864   6.717   1.844   7.207  1.1228 -1.2798 -1.4944
  643MOL0     H84865   6.520   1.811   7.105  0.6511 -0.1597 -1.4074
  643MOL0     H84866   6.256   1.453   7.202  0.9082 -0.4537 -1.8527
  643MOL0     H84867   6.149   1.566   7.105  0.5316  2.1093  0.5146
  643MOL0     H84868   6.224   1.587   7.401 -0.7304 -2.2352  0.1089
  643MOL0     H84869   6.122   1.711   7.314 -2.5973 -0.5560  0.7966
  643MOL0     H84870   6.044   1.425   7.306  0.2583  0.5049 -1.3611
  643MOL0     H84871   5.946   1.579   7.283  1.0043  0.0493 -0.3217
  643MOL0     H84872   6.056   1.515   7.553  1.6555 -5.6617 -2.5866
  643MOL0     H84873   5.945   1.649   7.496 -0.8414  0.2243 -1.7492
  643MOL0     H84874   5.656   1.346   7.546  1.2666  0.2256  2.3915
  643MOL0     H84875   6.409   1.474   7.358  0.0368 -1.4254 -1.2677
  643MOL0     H84876   6.625   1.500   7.481  0.7162  0.4191  0.2132
  644MOL0     O84877   3.509   8.607   6.076  0.2972 -0.0013 -0.4016
  644MOL0     C84878   3.600   8.627   5.990  0.0837 -0.5326 -0.5933
  644MOL0     O84879   3.575   8.624   5.855  0.2736 -1.0614 -0.2209
  644MOL0     C84880   3.448   8.583   5.826  0.0693 -0.5974  0.6480
  644MOL0     C84881   3.434   8.456   5.764  0.4733  0.5962  0.3294
  644MOL0     C84882   3.306   8.422   5.704  0.2462 -0.0638 -0.3540
  644MOL0     C84883   3.200   8.514   5.708 -0.1899 -0.4188  0.9045
  644MOL0     O84884   3.082   8.473   5.642  0.1170  0.0149  0.6259
  644MOL0     C84885   2.967   8.555   5.618 -0.0392 -0.1766 -0.9136
  644MOL0     C84886   2.863   8.504   5.717  0.2529 -0.8951 -0.0742
  644MOL0     C84887   2.730   8.567   5.687 -0.1417 -0.6863  0.4135
  644MOL0     C84888   2.711   8.693   5.766  0.1657  0.0704  0.0380
  644MOL0     C84889   2.654   8.674   5.909  0.0491 -0.2364  0.2902
  644MOL0     C84890   2.669   8.807   5.980 -0.3364  0.9263  0.5728
  644MOL0     C84891   2.644   8.786   6.130 -0.3332  0.1328 -0.1660
  644MOL0     C84892   2.502   8.745   6.168 -0.7064  0.4874  0.4618
  644MOL0     N84893   2.401   8.848   6.139  0.3234  0.9728  0.1023
  644MOL0     C84894   2.316   8.839   6.033 -0.0925 -0.7687 -0.3069
  644MOL0     C84895   2.237   8.946   6.036  0.6711  0.0877  0.4317
  644MOL0     C84896   2.131   8.987   5.936  0.1078 -0.7521 -0.3963
  644MOL0     C84897   1.986   9.000   5.990  0.0710  0.3554  0.5795
  644MOL0     C84898   1.888   8.992   5.872 -0.4435  0.2371  0.0440
  644MOL0     C84899   1.746   9.023   5.916  0.0035  0.4493  0.4392
  644MOL0     O84900   1.701   8.916   6.005  0.8295  0.8154 -0.1194
  644MOL0     C84901   1.591   8.961   6.080  0.2792  0.6868 -0.3503
  644MOL0     C84902   1.460   8.983   6.020  0.1902 -0.4713 -0.0593
  644MOL0     C84903   1.355   9.030   6.095  0.0211 -0.4932  0.3415
  644MOL0     C84904   1.370   9.047   6.237 -0.1587  0.2469 -0.3714
  644MOL0     C84905   1.257   9.119   6.311  0.4859  0.5347 -0.6438
  644MOL0     O84906   1.175   9.206   6.254  0.2954 -0.1416 -0.4943
  644MOL0     C84907   1.071   9.266   6.313  1.3750 -0.6745 -0.5752
  644MOL0     C84908   1.015   9.378   6.252  0.4265 -0.4648 -0.2028
  644MOL0     C84909   0.894   9.435   6.293  0.2545 -0.0979  0.1549
  644MOL0     C84910   0.827   9.390   6.414 -0.2456 -0.1611 -0.1992
  644MOL0     O84911   0.704   9.430   6.453  0.3345  0.2367  0.0348
  644MOL0     C84912   0.708   9.571   6.493 -0.1551 -0.2132 -0.1181
  644MOL0     C84913   0.557   9.617   6.518  0.1777  0.1389  0.7440
  644MOL0     C84914   0.505   9.530   6.628  0.1612  0.4761 -0.0009
  644MOL0     C84915   0.363   9.577   6.676  0.6829  0.0716 -0.3839
  644MOL0     C84916   0.323   9.475   6.793 -0.3149  0.3614  0.5535
  644MOL0     C84917   0.187   9.520   6.850 -0.2195  0.0243  0.8267
  644MOL0     C84918   0.072   9.518   6.740  0.6386  0.3460  0.2002
  644MOL0     C84919  -0.065   9.545   6.812 -0.5541  0.1314 -0.0118
  644MOL0    Cl84920  -0.137   9.409   6.887 -0.4475  0.5923 -0.3798
  644MOL0     C84921   0.884   9.283   6.479  0.1038 -0.2313  0.1066
  644MOL0     C84922   0.994   9.218   6.417 -0.3908 -0.2260 -0.0831
  644MOL0     O84923   1.275   9.107   6.431 -0.5116 -0.2912 -0.0799
  644MOL0     C84924   1.495   9.010   6.299 -0.1908  0.1811 -0.0170
  644MOL0     C84925   1.602   8.958   6.220 -0.1743 -0.0453  0.0256
  644MOL0     N84926   2.272   9.026   6.146 -0.4879  0.7859  0.5580
  644MOL0     N84927   2.375   8.971   6.201 -0.2622 -0.3816 -0.1516
  644MOL0     C84928   3.216   8.635   5.779  0.0550 -0.6971 -0.6043
  644MOL0     C84929   3.337   8.667   5.843  0.1680  0.1939  0.0409
  644MOL0     C84930   3.730   8.665   6.044 -0.4178  0.2279  0.1759
  644MOL0     C84931   3.840   8.684   5.959  0.7493  0.1481 -0.0955
  644MOL0     C84932   3.966   8.718   6.015  0.0780 -0.7479  0.0538
  644MOL0     C84933   3.978   8.737   6.148 -0.5857  0.2706 -0.1182
  644MOL0     O84934   4.101   8.783   6.181  0.3278 -0.0303  0.3521
  644MOL0     C84935   4.156   8.753   6.322  0.3472 -0.8054  0.3769
  644MOL0     C84936   4.255   8.636   6.312  0.3067 -0.6981  0.0046
  644MOL0     C84937   4.394   8.691   6.273 -0.3572  0.7960 -0.2054
  644MOL0     C84938   4.506   8.590   6.292  0.3922  0.0537  0.2128
  644MOL0     C84939   4.609   8.630   6.193 -0.0387 -1.3587 -0.3959
  644MOL0     C84940   4.686   8.693   6.127 -0.9051 -0.5739  0.6366
  644MOL0     C84941   3.870   8.704   6.231 -0.1241  0.7086  1.0687
  644MOL0     C84942   3.753   8.660   6.179 -0.1015  0.3385 -0.2147
  644MOL0     H84943   3.509   8.377   5.756  1.4030  1.4498  0.3810
  644MOL0     H84944   3.299   8.321   5.664  1.4170  1.2160 -4.1880
  644MOL0     H84945   2.938   8.519   5.519  2.8466  1.7781 -2.5898
  644MOL0     H84946   2.991   8.661   5.618  3.5151 -0.8196  0.9130
  644MOL0     H84947   2.884   8.526   5.823 -1.7816  1.0798  0.0032
  644MOL0     H84948   2.853   8.395   5.710 -0.2554 -0.7202 -3.1480
  644MOL0     H84949   2.650   8.499   5.718 -2.0345  0.1257 -2.3773
  644MOL0     H84950   2.718   8.564   5.579  2.4317 -0.9232  0.0579
  644MOL0     H84951   2.802   8.752   5.778  0.0636  0.2962 -0.2744
  644MOL0     H84952   2.649   8.754   5.699 -1.4274 -2.1937 -0.6886
  644MOL0     H84953   2.687   8.588   5.968  0.2599 -2.6899 -3.1463
  644MOL0     H84954   2.545   8.678   5.901 -0.0837  2.6274  1.8778
  644MOL0     H84955   2.600   8.881   5.937  1.5705  0.9922 -2.6241
  644MOL0     H84956   2.771   8.845   5.969  0.0674  0.1979  1.6122
  644MOL0     H84957   2.709   8.711   6.177 -0.7517 -0.8111 -1.0564
  644MOL0     H84958   2.678   8.877   6.181  1.4268 -0.6815  0.2209
  644MOL0     H84959   2.504   8.734   6.277  0.3417 -0.0214  0.4058
  644MOL0     H84960   2.472   8.652   6.120  2.0089 -0.1201 -0.2038
  644MOL0     H84961   2.310   8.765   5.954 -1.4510 -2.9647  1.7301
  644MOL0     H84962   2.124   8.914   5.855 -3.3575 -1.2248  0.1770
  644MOL0     H84963   2.159   9.087   5.901 -0.3640  0.1654  1.6811
  644MOL0     H84964   1.973   9.098   6.035  0.9372  0.9138 -0.3414
  644MOL0     H84965   1.960   8.916   6.055  1.8001 -1.1603 -0.5836
  644MOL0     H84966   1.910   9.062   5.791 -0.7011  0.0415 -0.1984
  644MOL0     H84967   1.902   8.891   5.831 -3.3099 -0.3177  0.2326
  644MOL0     H84968   1.690   9.027   5.822  0.6368 -0.1158  0.0261
  644MOL0     H84969   1.729   9.119   5.965  2.4959  2.3816 -2.2083
  644MOL0     H84970   1.456   8.970   5.912  0.2167  1.0147 -0.2643
  644MOL0     H84971   1.255   9.047   6.058  0.1116 -0.4097  0.1376
  644MOL0     H84972   1.060   9.418   6.162  0.7110 -0.2473  0.0351
  644MOL0     H84973   0.846   9.512   6.233 -0.1586 -0.0161  0.5874
  644MOL0     H84974   0.740   9.637   6.411 -0.2525  0.5015  0.4123
  644MOL0     H84975   0.768   9.584   6.583 -0.7254  0.5695  0.1593
  644MOL0     H84976   0.499   9.585   6.431  3.2265 -2.7666 -0.4584
  644MOL0     H84977   0.543   9.723   6.542 -0.5750 -0.0566  1.1788
  644MOL0     H84978   0.575   9.530   6.711  0.5772 -2.7258 -0.2295
  644MOL0     H84979   0.513   9.424   6.600  2.8897  1.0885 -1.9524
  644MOL0     H84980   0.352   9.677   6.719 -0.9623 -0.7419  1.1890
  644MOL0     H84981   0.298   9.571   6.588 -1.3366 -2.7455  1.1448
  644MOL0     H84982   0.404   9.484   6.866  0.0550 -3.3215  0.7491
  644MOL0     H84983   0.309   9.377   6.747 -0.3580  1.6224 -2.3050
  644MOL0     H84984   0.202   9.622   6.885  1.3360  0.5330 -1.0904
  644MOL0     H84985   0.147   9.449   6.923 -2.3625  1.5043  1.1689
  644MOL0     H84986   0.095   9.594   6.665  1.3796 -0.9117 -0.8862
  644MOL0     H84987   0.060   9.422   6.689 -0.1591 -0.0794  1.1662
  644MOL0     H84988  -0.137   9.581   6.739 -0.8691 -0.4898 -0.0089
  644MOL0     H84989  -0.067   9.629   6.882 -2.3396  2.0138 -2.1649
  644MOL0     H84990   0.823   9.228   6.549  1.7757 -2.3442  0.0030
  644MOL0     H84991   1.022   9.123   6.460 -0.2138  0.2115  0.7888
  644MOL0     H84992   1.499   9.008   6.408  0.0705 -0.0742 -0.0299
  644MOL0     H84993   1.690   8.934   6.279 -1.1481 -0.4629  1.3626
  644MOL0     H84994   3.126   8.696   5.784  0.9709  0.7544 -1.0103
  644MOL0     H84995   3.367   8.755   5.898  2.3338  0.7460 -1.8673
  644MOL0     H84996   3.826   8.658   5.854 -1.1207 -2.0775  0.6119
  644MOL0     H84997   4.053   8.732   5.952  1.8836  2.9669  2.9152
  644MOL0     H84998   4.083   8.726   6.399  1.0436 -0.2698  1.2434
  644MOL0     H84999   4.214   8.841   6.354 -0.5865  0.1038 -0.3826
  644MOL0     H85000   4.261   8.583   6.407  2.3971  1.1946  1.0337
  644MOL0     H85001   4.210   8.555   6.254 -2.0863 -0.3895  1.3045
  644MOL0     H85002   4.419   8.779   6.332  1.4805  0.0207  0.2259
  644MOL0     H85003   4.376   8.734   6.174  2.4995  1.3099 -0.5721
  644MOL0     H85004   4.548   8.585   6.393  0.5192  2.2304  0.3257
  644MOL0     H85005   4.476   8.491   6.259 -2.1507  1.0754 -0.7982
  644MOL0     H85006   4.738   8.748   6.052  1.7825 -1.1173  2.0041
  644MOL0     H85007   3.867   8.712   6.339 -3.7851 -2.2324  1.3786
  644MOL0     H85008   3.682   8.625   6.253 -0.7004  0.5296 -0.6936
  645MOL0     O85009   5.688   3.675   8.952 -0.5389 -0.0693 -0.8556
  645MOL0     C85010   5.693   3.791   8.994  0.4100  0.3768 -0.4416
  645MOL0     O85011   5.587   3.867   9.020 -1.3007 -0.0183  0.7920
  645MOL0     C85012   5.472   3.831   8.960  0.5560  0.6217  0.4788
  645MOL0     C85013   5.443   3.885   8.828 -0.2070  0.1926  0.4795
  645MOL0     C85014   5.317   3.867   8.769 -0.0322  0.5942 -0.5975
  645MOL0     C85015   5.224   3.789   8.835  0.3969 -0.4233  0.6066
  645MOL0     O85016   5.099   3.777   8.771  0.0208 -0.0180 -1.0811
  645MOL0     C85017   5.039   3.650   8.756  0.1860  0.0034 -0.4834
  645MOL0     C85018   4.930   3.612   8.861 -0.6994 -0.9706 -0.2170
  645MOL0     C85019   4.847   3.478   8.845 -0.9308 -0.4398 -0.1826
  645MOL0     C85020   4.948   3.356   8.853  0.3984  0.2342 -1.5785
  645MOL0     C85021   4.884   3.220   8.837 -0.3394 -0.1577 -0.0873
  645MOL0     C85022   4.851   3.194   8.688 -0.0366  0.1585 -0.1357
  645MOL0     C85023   4.808   3.058   8.653 -0.2535  1.5644  0.4575
  645MOL0     C85024   4.704   2.990   8.748  0.7149 -0.2597  0.0195
  645MOL0     N85025   4.638   2.874   8.683  0.6427 -0.1947  0.8552
  645MOL0     C85026   4.546   2.880   8.575  0.0733  0.3797 -0.4703
  645MOL0     C85027   4.503   2.744   8.571 -0.3286 -0.8295 -0.3620
  645MOL0     C85028   4.425   2.700   8.445 -0.2907  1.1266 -1.5744
  645MOL0     C85029   4.404   2.548   8.449 -0.3301 -1.1464 -0.4677
  645MOL0     C85030   4.340   2.496   8.573 -0.0448  0.0800  0.0279
  645MOL0     C85031   4.213   2.420   8.522  0.0514 -0.2864 -0.1595
  645MOL0     O85032   4.250   2.288   8.455  0.3782  0.3933 -0.2622
  645MOL0     C85033   4.134   2.224   8.432  0.1476  1.2336 -0.1062
  645MOL0     C85034   4.031   2.250   8.342 -0.4051  0.4494  1.0085
  645MOL0     C85035   3.920   2.163   8.331 -0.2614  0.3570 -0.4585
  645MOL0     C85036   3.921   2.034   8.393  0.1087  0.2563  0.6641
  645MOL0     C85037   3.811   1.932   8.371 -0.1594  0.2567 -0.2471
  645MOL0     O85038   3.821   1.804   8.413 -0.3497  0.2976 -0.0364
  645MOL0     C85039   3.732   1.715   8.355  0.3252 -1.0950 -1.2079
  645MOL0     C85040   3.600   1.714   8.399  0.1756  1.1671 -0.7172
  645MOL0     C85041   3.521   1.601   8.391 -0.7205  0.4541  0.0301
  645MOL0     C85042   3.577   1.498   8.314  0.1927 -0.0878  0.0549
  645MOL0     O85043   3.520   1.374   8.277  1.1926  0.1693 -0.2074
  645MOL0     C85044   3.375   1.361   8.294  0.1515 -0.6900  0.5127
  645MOL0     C85045   3.329   1.306   8.425  0.1281 -0.9408  0.1001
  645MOL0     C85046   3.171   1.309   8.437  1.7812  0.4083  0.8299
  645MOL0     C85047   3.134   1.230   8.561  0.2940 -0.8226 -0.0684
  645MOL0     C85048   2.993   1.178   8.565 -0.2076 -0.7243 -0.5570
  645MOL0     C85049   2.955   1.076   8.449 -0.3238 -0.3363 -0.1689
  645MOL0     C85050   3.039   0.945   8.450  0.2543  0.2523 -0.1500
  645MOL0     C85051   2.943   0.824   8.414 -1.0442  0.2927  0.5805
  645MOL0    Cl85052   3.040   0.662   8.412 -0.1913  0.4555  0.1453
  645MOL0     C85053   3.706   1.501   8.272  0.7623  0.1719  0.2795
  645MOL0     C85054   3.789   1.610   8.294  0.3831  1.1396 -0.0372
  645MOL0     O85055   3.713   1.975   8.318  0.2611 -1.3040 -0.1902
  645MOL0     C85056   4.033   2.005   8.462  0.5736 -0.2489  0.0486
  645MOL0     C85057   4.133   2.097   8.486 -0.3276 -0.1744  0.4359
  645MOL0     N85058   4.557   2.680   8.675 -0.1878 -0.7415 -0.6609
  645MOL0     N85059   4.650   2.751   8.733  0.4262 -0.0001 -0.4151
  645MOL0     C85060   5.245   3.749   8.966  0.1505 -1.2673  0.1716
  645MOL0     C85061   5.367   3.756   9.022 -0.5603 -0.7449  0.4620
  645MOL0     C85062   5.828   3.853   9.006  0.5352 -0.6302  0.3836
  645MOL0     C85063   5.938   3.772   8.988  0.1934  0.5485  0.0551
  645MOL0     C85064   6.067   3.827   8.989 -0.4017  0.3243  0.3581
  645MOL0     C85065   6.092   3.963   8.991  0.1892  0.6417  0.2364
  645MOL0     O85066   6.224   4.011   8.994  0.3382  0.1443  0.3145
  645MOL0     C85067   6.240   4.145   8.955  0.8183 -0.6959  0.4012
  645MOL0     C85068   6.387   4.172   8.942  0.1016  0.4201 -0.1972
  645MOL0     C85069   6.454   4.076   8.848 -0.5478 -0.0623  0.0082
  645MOL0     C85070   6.597   4.123   8.833  0.1491 -0.0548 -0.1701
  645MOL0     C85071   6.672   4.100   8.958 -0.6278  0.9015 -0.7854
  645MOL0     C85072   6.738   4.092   9.065 -0.0154  0.1130 -0.2700
  645MOL0     C85073   5.976   4.041   8.991  0.1643 -0.5166  0.4080
  645MOL0     C85074   5.846   3.994   8.997  0.1521 -0.3088  0.3143
  645MOL0     H85075   5.523   3.944   8.784 -1.8788  3.0746  1.0648
  645MOL0     H85076   5.290   3.911   8.673  3.9725 -1.5059 -2.9588
  645MOL0     H85077   5.113   3.570   8.755  1.6221  1.2554 -2.1974
  645MOL0     H85078   4.987   3.642   8.660  0.3826 -2.4515 -0.4501
  645MOL0     H85079   4.865   3.698   8.877  0.8371 -0.1582  2.2418
  645MOL0     H85080   4.980   3.599   8.957  2.7800 -1.5621 -1.9421
  645MOL0     H85081   4.794   3.472   8.749 -1.5735 -1.4995  0.2356
  645MOL0     H85082   4.774   3.468   8.925  1.5399 -0.5437  2.2064
  645MOL0     H85083   5.017   3.376   8.770  1.6316 -1.1753 -0.9362
  645MOL0     H85084   4.992   3.352   8.953 -0.1660 -5.7284 -1.1902
  645MOL0     H85085   4.798   3.209   8.904  0.5316  3.2287  1.8217
  645MOL0     H85086   4.970   3.154   8.853  2.1093  1.8388 -3.6507
  645MOL0     H85087   4.937   3.211   8.623  0.9318  1.2502  1.3820
  645MOL0     H85088   4.766   3.260   8.664 -0.9268 -0.8876  0.0615
  645MOL0     H85089   4.776   3.072   8.549  1.6322  0.9180 -0.2562
  645MOL0     H85090   4.889   2.984   8.648 -0.7650  1.0668 -1.9832
  645MOL0     H85091   4.622   3.060   8.768  1.2238  0.5658 -0.7217
  645MOL0     H85092   4.745   2.948   8.840  1.0850  1.5186  0.7222
  645MOL0     H85093   4.529   2.951   8.494 -0.9482  0.3000 -0.3377
  645MOL0     H85094   4.481   2.719   8.353 -1.7445 -1.2855 -3.0598
  645MOL0     H85095   4.327   2.746   8.458 -0.2321  0.6298  1.1637
  645MOL0     H85096   4.497   2.489   8.451 -0.4691 -1.3512  0.7242
  645MOL0     H85097   4.361   2.521   8.352 -3.0795 -2.0425  0.9193
  645MOL0     H85098   4.398   2.418   8.622  0.3710 -0.9415 -2.0071
  645MOL0     H85099   4.297   2.571   8.641  0.8974  1.9328 -1.3500
  645MOL0     H85100   4.169   2.476   8.439  0.8543  1.7276  0.7142
  645MOL0     H85101   4.136   2.406   8.598  0.6042  0.7602  0.6109
  645MOL0     H85102   4.017   2.339   8.281 -2.5657 -3.1595 -4.5136
  645MOL0     H85103   3.828   2.191   8.282 -1.3034 -2.5718 -0.3687
  645MOL0     H85104   3.570   1.795   8.466  1.5689  1.4850 -0.4500
  645MOL0     H85105   3.418   1.589   8.422 -0.6706 -1.9444 -0.4848
  645MOL0     H85106   3.342   1.298   8.211 -0.1375  0.9748 -0.7057
  645MOL0     H85107   3.313   1.450   8.274 -1.2337 -1.8149 -0.3848
  645MOL0     H85108   3.372   1.369   8.503 -2.0065 -0.3579  0.8686
  645MOL0     H85109   3.372   1.206   8.423  3.0747  0.2296 -1.2302
  645MOL0     H85110   3.127   1.257   8.351  0.0131 -0.6315  2.2892
  645MOL0     H85111   3.108   1.397   8.426 -0.2984 -1.1524 -0.5642
  645MOL0     H85112   3.203   1.146   8.568 -0.0710 -1.0907  0.3384
  645MOL0     H85113   3.160   1.297   8.644  1.7257  0.0750 -1.2066
  645MOL0     H85114   2.930   1.268   8.566  2.4454  1.2590  0.5539
  645MOL0     H85115   2.977   1.125   8.659  0.3770  1.6303  0.9634
  645MOL0     H85116   2.945   1.129   8.353  2.7368 -1.7364 -1.4021
  645MOL0     H85117   2.860   1.031   8.481 -0.9473 -0.7475 -2.3935
  645MOL0     H85118   3.121   0.944   8.377  0.0664  0.2492 -0.3640
  645MOL0     H85119   3.070   0.925   8.553 -1.8098 -0.7015  0.3356
  645MOL0     H85120   2.913   0.839   8.309  0.5339 -1.5043 -0.1953
  645MOL0     H85121   2.859   0.820   8.483 -1.4322  0.2409  0.1143
  645MOL0     H85122   3.740   1.438   8.191 -1.1884  1.3435 -1.5410
  645MOL0     H85123   3.895   1.611   8.274  0.3490  2.1670 -0.1893
  645MOL0     H85124   4.039   1.909   8.511  4.0727 -1.9990 -3.2693
  645MOL0     H85125   4.222   2.066   8.540 -0.6293  1.6248  2.0644
  645MOL0     H85126   5.169   3.707   9.032 -1.1775 -0.8882 -1.0887
  645MOL0     H85127   5.400   3.708   9.113  1.1092  1.1318  0.9334
  645MOL0     H85128   5.927   3.667   8.961 -4.3153  1.0759 -0.8204
  645MOL0     H85129   6.159   3.771   8.980 -0.5570 -0.0804  1.2077
  645MOL0     H85130   6.208   4.210   9.036  4.1914 -0.1528  1.4053
  645MOL0     H85131   6.193   4.168   8.859  3.0195  0.4841 -0.4380
  645MOL0     H85132   6.399   4.273   8.902 -0.5263  0.6973  0.2866
  645MOL0     H85133   6.423   4.166   9.046 -1.2892  0.6905  0.3187
  645MOL0     H85134   6.414   4.086   8.746 -1.7087 -4.1518 -0.1318
  645MOL0     H85135   6.460   3.971   8.879 -1.8676  0.3326  1.6877
  645MOL0     H85136   6.644   4.075   8.747 -0.8079 -0.5157 -0.4529
  645MOL0     H85137   6.597   4.231   8.816  2.3456 -0.1756 -1.1558
  645MOL0     H85138   6.790   4.096   9.158 -2.0827 -0.3005  0.9663
  645MOL0     H85139   5.975   4.150   8.994 -2.9109 -0.4541  3.0999
  645MOL0     H85140   5.763   4.063   9.001  1.0018  0.7769 -0.4380
  646MOL0     O85141   0.527  10.156   9.553  0.0750  0.0118  0.3232
  646MOL0     C85142   0.530  10.276   9.577  0.3565  0.2178  0.4451
  646MOL0     O85143   0.429  10.360   9.545  0.0560 -0.8432 -0.0016
  646MOL0     C85144   0.302  10.310   9.516 -0.9656 -0.3638 -1.0977
  646MOL0     C85145   0.249  10.298   9.388 -0.0616  0.0318 -0.5784
  646MOL0     C85146   0.117  10.252   9.368 -0.1898 -0.0761  0.2575
  646MOL0     C85147   0.046  10.206   9.473 -0.0449 -0.4952  0.3179
  646MOL0     O85148  -0.077  10.149   9.457 -0.1983  0.3216  0.6604
  646MOL0     C85149  -0.160  10.112   9.571  0.1333 -0.3952 -0.2907
  646MOL0     C85150  -0.284  10.083   9.495 -0.4179  0.1259  0.6874
  646MOL0     C85151  -0.391  10.041   9.600  0.8564  0.5143 -0.4106
  646MOL0     C85152  -0.535  10.037   9.556 -0.5839 -0.1395  0.1551
  646MOL0     C85153  -0.618   9.976   9.671 -0.9919 -0.3670  0.1699
  646MOL0     C85154  -0.762   9.976   9.642  0.5408 -0.2090  0.1048
  646MOL0     C85155  -0.852   9.947   9.757  0.5176 -0.0786  0.1197
  646MOL0     C85156  -1.001   9.954   9.706  0.0959  0.7566  0.1659
  646MOL0     N85157  -1.096   9.924   9.811  0.8293  0.0384 -0.5359
  646MOL0     C85158  -1.099  10.002   9.921  0.1914  0.1412 -0.1420
  646MOL0     C85159  -1.150   9.937  10.030  0.4240  0.4336 -0.0650
  646MOL0     C85160  -1.180   9.983  10.169 -0.3944 -0.3536 -0.2092
  646MOL0     C85161  -1.320   9.934  10.209 -0.5066 -1.0483  0.2899
  646MOL0     C85162  -1.434  10.005  10.127  0.5345  0.0387  0.2887
  646MOL0     C85163  -1.576   9.951  10.172 -0.1753 -0.2921  0.5758
  646MOL0     O85164  -1.682  10.001  10.095 -0.6691  0.4959  0.3147
  646MOL0     C85165  -1.802   9.987  10.155  0.6258 -0.2281 -0.2262
  646MOL0     C85166  -1.851   9.946  10.281  0.0168 -0.4234 -0.0898
  646MOL0     C85167  -1.987   9.951  10.319 -0.8738 -0.1475  0.0320
  646MOL0     C85168  -2.082   9.990  10.220 -0.2130 -0.5642 -0.5559
  646MOL0     C85169  -2.227   9.997  10.257 -0.9813 -0.7396 -0.8362
  646MOL0     O85170  -2.267   9.967  10.387 -0.1761 -0.4636 -0.2050
  646MOL0     C85171  -2.398   9.981  10.421  0.1420 -1.1648  0.0651
  646MOL0     C85172  -2.450  10.111  10.409  0.0641  0.2515 -0.0197
  646MOL0     C85173  -2.578  10.147  10.456 -0.3803 -0.1344  1.0909
  646MOL0     C85174  -2.659  10.048  10.515 -0.8832 -1.2326  0.1854
  646MOL0     O85175  -2.787  10.088  10.547 -0.7274 -0.7322  0.1172
  646MOL0     C85176  -2.861  10.027  10.653  0.5585  0.5355  0.4004
  646MOL0     C85177  -2.999  10.102  10.649  0.4584  0.1546 -0.3091
  646MOL0     C85178  -3.110  10.020  10.582 -0.2879  0.6630  0.1771
  646MOL0     C85179  -3.255  10.067  10.598  0.1908 -0.0881  0.4571
  646MOL0     C85180  -3.367   9.961  10.569  0.3002 -0.0117  0.4721
  646MOL0     C85181  -3.507  10.021  10.577 -0.2583  0.6956 -0.3918
  646MOL0     C85182  -3.620   9.928  10.534  0.4573 -0.0294 -0.6663
  646MOL0     C85183  -3.614   9.879  10.391 -1.3212  0.4912  0.1431
  646MOL0    Cl85184  -3.601  10.028  10.296  0.1012  0.0330 -0.3195
  646MOL0     C85185  -2.611   9.914  10.528  0.1420 -0.7734 -0.8150
  646MOL0     C85186  -2.480   9.882  10.483 -0.3534 -0.3396  0.1650
  646MOL0     O85187  -2.298  10.044  10.176  0.0748  1.3968  0.2312
  646MOL0     C85188  -2.037  10.020  10.090  0.3319 -0.1192 -0.4886
  646MOL0     C85189  -1.897  10.024  10.057  0.7620 -1.2852 -0.3813
  646MOL0     N85190  -1.184   9.817   9.970  0.2730 -0.5848  0.0850
  646MOL0     N85191  -1.169   9.805   9.845 -0.5660  0.3764  0.7372
  646MOL0     C85192   0.107  10.208   9.602  0.4532  0.1676 -0.7805
  646MOL0     C85193   0.232  10.263   9.624 -0.7432 -0.2845 -0.4390
  646MOL0     C85194   0.639  10.338   9.668 -0.6734 -0.3976 -0.2141
  646MOL0     C85195   0.643  10.480   9.689  1.0371 -0.3339  0.7439
  646MOL0     C85196   0.750  10.540   9.755 -0.1792 -0.5083 -0.0763
  646MOL0     C85197   0.832  10.446   9.822 -1.3341 -0.6140 -0.5720
  646MOL0     O85198   0.936  10.507   9.891 -0.2329  0.3477 -0.6010
  646MOL0     C85199   1.009  10.440   9.987  0.0768 -0.0672  0.0619
  646MOL0     C85200   1.116  10.526  10.032  1.2196 -1.0649 -0.3150
  646MOL0     C85201   1.217  10.452  10.113  0.2447 -0.0580  0.2135
  646MOL0     C85202   1.170  10.431  10.262  0.2297 -0.4086 -0.1106
  646MOL0     C85203   1.246  10.322  10.318 -0.2292 -0.4537  0.2453
  646MOL0     C85204   1.326  10.235  10.351  0.2687  0.3174 -0.2606
  646MOL0     C85205   0.818  10.311   9.814 -0.2635 -0.5567  0.5790
  646MOL0     C85206   0.731  10.255   9.729  0.0484  1.1906  0.4811
  646MOL0     H85207   0.314  10.339   9.311  1.0764 -1.5774 -0.5192
  646MOL0     H85208   0.067  10.273   9.274  3.1901  2.6861 -1.1751
  646MOL0     H85209  -0.178  10.200   9.633  0.0740  1.0028 -2.2026
  646MOL0     H85210  -0.118  10.024   9.622  4.5749  2.0592  0.8193
  646MOL0     H85211  -0.269  10.005   9.421 -1.2423  1.1885 -0.6489
  646MOL0     H85212  -0.322  10.167   9.435 -2.4654 -0.1158  1.5309
  646MOL0     H85213  -0.382  10.112   9.683  2.1283  1.9935 -1.7516
  646MOL0     H85214  -0.374   9.937   9.630  0.0511  0.3268 -0.5982
  646MOL0     H85215  -0.562  10.139   9.525 -0.7831 -0.2681 -0.0949
  646MOL0     H85216  -0.559   9.976   9.469  0.3781  1.5958 -1.3888
  646MOL0     H85217  -0.602  10.035   9.762 -0.7344  1.3630 -0.9346
  646MOL0     H85218  -0.581   9.873   9.675 -0.0565 -0.0557 -0.1952
  646MOL0     H85219  -0.781   9.898   9.568 -2.8553  1.8870 -1.4799
  646MOL0     H85220  -0.796  10.066   9.590 -0.2962 -1.8131 -2.3506
  646MOL0     H85221  -0.835   9.844   9.791  3.5789  0.5887  0.9490
  646MOL0     H85222  -0.846  10.010   9.846  0.1468 -1.1297  0.8999
  646MOL0     H85223  -1.014   9.867   9.642 -2.4661 -0.4308  2.1219
  646MOL0     H85224  -1.019  10.039   9.639  1.0199 -0.6850 -2.0380
  646MOL0     H85225  -1.069  10.107   9.922 -1.3527  0.6532 -1.6729
  646MOL0     H85226  -1.173  10.090  10.189  2.5569 -0.3540 -0.6636
  646MOL0     H85227  -1.107   9.933  10.235  0.9330 -2.4018 -2.9998
  646MOL0     H85228  -1.339   9.964  10.312 -1.9297  2.1246 -0.7642
  646MOL0     H85229  -1.331   9.825  10.204 -0.9622 -1.0043  0.3110
  646MOL0     H85230  -1.441  10.113  10.140 -3.4481  0.0090 -0.2885
  646MOL0     H85231  -1.423   9.976  10.022  2.9353 -0.8901  0.7280
  646MOL0     H85232  -1.598   9.977  10.276 -2.5747 -2.0293  0.5767
  646MOL0     H85233  -1.575   9.842  10.174  2.5262 -0.3604  0.0652
  646MOL0     H85234  -1.782   9.891  10.344  0.3542  0.9559  0.8024
  646MOL0     H85235  -2.016   9.924  10.420  1.9944 -0.6515  0.7927
  646MOL0     H85236  -2.383  10.189  10.374  1.0517 -1.1332 -1.3307
  646MOL0     H85237  -2.610  10.251  10.451  0.8089  0.2093 -0.1703
  646MOL0     H85238  -2.806  10.047  10.746  0.3677 -1.6447  1.0408
  646MOL0     H85239  -2.866   9.918  10.644  2.7402  0.2135  2.0595
  646MOL0     H85240  -2.986  10.202  10.606  1.9230  0.3796  0.5627
  646MOL0     H85241  -3.019  10.121  10.754  2.4000  2.0995 -0.2156
  646MOL0     H85242  -3.108   9.918  10.622 -0.9426  0.5019 -0.1736
  646MOL0     H85243  -3.083  10.010  10.477 -2.8423  1.3831 -0.6425
  646MOL0     H85244  -3.261  10.122  10.692  0.1293 -1.2364  1.1391
  646MOL0     H85245  -3.259  10.148  10.524 -1.6002 -0.7444 -0.2126
  646MOL0     H85246  -3.352   9.868  10.625 -3.1071 -2.1278 -1.7453
  646MOL0     H85247  -3.336   9.939  10.467  2.9036  0.8003  1.0210
  646MOL0     H85248  -3.497  10.119  10.529  3.6090  1.4089  1.4420
  646MOL0     H85249  -3.520  10.036  10.684  1.7285 -0.8613  0.1307
  646MOL0     H85250  -3.619   9.837  10.594 -1.2612  1.8139  2.3893
  646MOL0     H85251  -3.714   9.979  10.556  1.4869  2.1551 -0.9896
  646MOL0     H85252  -3.694   9.812  10.359  1.4861 -3.9529  1.5595
  646MOL0     H85253  -3.535   9.805  10.374 -2.8860 -1.0754 -0.5716
  646MOL0     H85254  -2.677   9.841  10.574  1.2664 -0.0845  2.1161
  646MOL0     H85255  -2.445   9.780  10.494 -0.1390 -0.7088 -2.9259
  646MOL0     H85256  -2.114  10.047  10.019  1.2467  0.1596 -1.3981
  646MOL0     H85257  -1.871  10.047   9.955  0.4209  1.2173  0.0238
  646MOL0     H85258   0.057  10.161   9.686 -0.7708  0.1986 -1.4653
  646MOL0     H85259   0.273  10.265   9.725 -0.3944  0.6695 -0.5908
  646MOL0     H85260   0.555  10.537   9.658  1.3513 -0.8964 -1.3793
  646MOL0     H85261   0.768  10.645   9.773 -0.8296  0.5220 -4.4017
  646MOL0     H85262   1.051  10.348   9.945  0.0767  0.5755 -1.3907
  646MOL0     H85263   0.947  10.421  10.075  0.3858 -1.4119  0.0222
  646MOL0     H85264   1.164  10.576   9.947  3.8000 -0.8831  1.1466
  646MOL0     H85265   1.074  10.607  10.091 -1.9920 -1.8784 -1.3121
  646MOL0     H85266   1.315  10.499  10.100 -0.3142  0.9197 -0.6714
  646MOL0     H85267   1.241  10.355  10.069 -4.0335 -1.5043  0.6036
  646MOL0     H85268   1.181  10.519  10.326  1.7554 -0.8562  0.2648
  646MOL0     H85269   1.060  10.424  10.264 -0.0005  1.9341 -0.9255
  646MOL0     H85270   1.392  10.158  10.385 -0.4448  0.2855  1.1229
  646MOL0     H85271   0.891  10.241   9.853 -0.5690  1.0244  4.5098
  646MOL0     H85272   0.731  10.149   9.705 -0.1609  1.9045 -3.3640
  647MOL0     O85273  10.964  11.070   3.538 -0.2845 -0.0127  0.0048
  647MOL0     C85274  10.850  11.089   3.495  0.3489 -0.1456 -0.2010
  647MOL0     O85275  10.818  11.180   3.402  0.0596  0.1512  0.7756
  647MOL0     C85276  10.925  11.259   3.357  1.5415 -0.1004 -0.3092
  647MOL0     C85277  10.936  11.273   3.222  0.1822 -0.5694 -1.0635
  647MOL0     C85278  11.054  11.341   3.180 -0.1346  0.2241  0.7122
  647MOL0     C85279  11.142  11.408   3.267  0.1664  0.1138  0.4080
  647MOL0     O85280  11.244  11.468   3.210 -0.7101  0.0964 -0.2059
  647MOL0     C85281  11.327  11.558   3.288 -0.0871 -0.8733 -0.5905
  647MOL0     C85282  11.273  11.689   3.350  0.4544 -0.5484  0.0670
  647MOL0     C85283  11.365  11.757   3.459  0.1898 -0.5959 -1.1159
  647MOL0     C85284  11.470  11.857   3.395 -0.1056 -0.1356  0.3725
  647MOL0     C85285  11.572  11.926   3.487  0.6329  0.1145 -0.0194
  647MOL0     C85286  11.644  12.039   3.423 -0.6754  0.4536 -0.6404
  647MOL0     C85287  11.798  12.050   3.472  0.2124 -0.4108  0.1207
  647MOL0     C85288  11.818  12.099   3.614  0.7006 -0.5767 -0.5683
  647MOL0     N85289  11.958  12.086   3.664  0.0184 -1.1988 -0.0161
  647MOL0     C85290  12.002  12.153   3.779 -0.6806 -0.3033  0.0701
  647MOL0     C85291  12.118  12.101   3.805  0.1810  0.2565 -0.6592
  647MOL0     C85292  12.203  12.146   3.921  0.3882 -0.3039  0.0449
  647MOL0     C85293  12.258  12.032   4.012  0.0680 -0.4015  0.6835
  647MOL0     C85294  12.162  11.977   4.120  0.5256  0.5772  0.1359
  647MOL0     C85295  12.010  11.945   4.077 -0.4073 -0.5241  0.2742
  647MOL0     O85296  12.011  11.803   4.037 -0.6514 -0.2224 -0.4208
  647MOL0     C85297  11.880  11.767   4.004  0.0670 -0.7051 -0.3955
  647MOL0     C85298  11.786  11.760   4.109 -0.4792 -0.5646  0.2372
  647MOL0     C85299  11.657  11.730   4.084 -0.2918 -0.0570  0.2140
  647MOL0     C85300  11.617  11.682   3.959  0.0388  0.8949  0.3978
  647MOL0     C85301  11.482  11.631   3.940  0.4013  0.4155  0.3480
  647MOL0     O85302  11.433  11.632   3.821 -0.3150  0.3393  0.2207
  647MOL0     C85303  11.300  11.611   3.813  0.1303 -0.4079  0.8076
  647MOL0     C85304  11.220  11.709   3.760 -0.3679  0.0402 -0.7396
  647MOL0     C85305  11.084  11.686   3.725  0.8559 -0.5045  0.6305
  647MOL0     C85306  11.025  11.552   3.751 -0.0557 -0.8827 -0.1477
  647MOL0     O85307  10.891  11.535   3.727 -0.0137  0.1408  0.1651
  647MOL0     C85308  10.805  11.461   3.820 -0.9574 -0.3028  0.5134
  647MOL0     C85309  10.715  11.371   3.742  0.8006 -0.4088  0.4187
  647MOL0     C85310  10.598  11.318   3.831  1.2337 -0.5760  0.8949
  647MOL0     C85311  10.568  11.176   3.767 -0.3543 -0.6847 -0.3636
  647MOL0     C85312  10.461  11.094   3.848  0.7307  0.7789  0.5000
  647MOL0     C85313  10.324  11.136   3.814  0.4510 -0.7658 -0.5442
  647MOL0     C85314  10.269  11.059   3.695 -0.5800 -0.4335 -0.2379
  647MOL0     C85315  10.122  11.069   3.692 -0.5027 -0.1888  1.2454
  647MOL0    Cl85316  10.066  10.942   3.809  0.1809 -0.7083 -0.1719
  647MOL0     C85317  11.109  11.451   3.811  0.0738  0.3016  0.3744
  647MOL0     C85318  11.246  11.481   3.827 -0.3969  0.2083 -0.5827
  647MOL0     O85319  11.425  11.599   4.043  0.4343  0.5322  0.1828
  647MOL0     C85320  11.713  11.677   3.853  0.0333 -0.0640 -0.6181
  647MOL0     C85321  11.845  11.733   3.875  1.2219  0.7711 -0.5587
  647MOL0     N85322  12.144  12.012   3.703  0.4399  0.7734 -0.3927
  647MOL0     N85323  12.041  11.999   3.630  0.4554  0.1566  0.4976
  647MOL0     C85324  11.109  11.405   3.405 -0.3276  0.0682  0.4954
  647MOL0     C85325  10.996  11.331   3.451  0.0251  0.3977 -0.3375
  647MOL0     C85326  10.733  10.996   3.524 -0.3754  0.8855  0.2556
  647MOL0     C85327  10.604  11.007   3.461 -1.2616 -0.3446  0.4485
  647MOL0     C85328  10.503  10.919   3.488  0.1986 -0.1423  0.0132
  647MOL0     C85329  10.523  10.812   3.576  1.0777  0.4737 -1.1404
  647MOL0     O85330  10.408  10.748   3.627 -0.3557 -0.4128  0.2422
  647MOL0     C85331  10.411  10.645   3.736 -0.0826 -0.2818  0.4302
  647MOL0     C85332  10.377  10.706   3.869 -0.1856 -0.5979 -1.2072
  647MOL0     C85333  10.386  10.607   3.979 -0.0875 -0.5736  0.1151
  647MOL0     C85334  10.287  10.481   3.977 -0.3595 -0.2676 -0.1902
  647MOL0     C85335  10.327  10.396   4.092  0.5554 -0.2086  0.3404
  647MOL0     C85336  10.358  10.319   4.182 -0.9943 -0.3794  0.7202
  647MOL0     C85337  10.651  10.785   3.624 -0.6600  0.5909  0.3711
  647MOL0     C85338  10.755  10.883   3.608  0.0441 -0.5068 -0.0887
  647MOL0     H85339  10.880  11.206   3.157  2.3284 -3.3486 -0.2421
  647MOL0     H85340  11.075  11.341   3.074 -0.9284 -1.2506  0.5232
  647MOL0     H85341  11.409  11.580   3.218  0.9275 -0.7194  0.6019
  647MOL0     H85342  11.380  11.502   3.365  0.1447 -0.2076 -0.2573
  647MOL0     H85343  11.168  11.678   3.378  0.2377  1.6137  0.2366
  647MOL0     H85344  11.278  11.752   3.261  2.2827  1.4022  1.4662
  647MOL0     H85345  11.413  11.679   3.518 -2.0127 -2.2095 -1.3570
  647MOL0     H85346  11.305  11.814   3.531 -0.1991 -0.5443 -1.4778
  647MOL0     H85347  11.534  11.800   3.327  3.8257  1.4624  2.4381
  647MOL0     H85348  11.411  11.929   3.337 -1.6892 -2.9098 -1.6777
  647MOL0     H85349  11.653  11.857   3.515  1.0430  1.2515  1.7463
  647MOL0     H85350  11.528  11.960   3.581 -1.1123  0.1988 -0.8165
  647MOL0     H85351  11.594  12.136   3.424 -0.4607  0.5899 -1.6217
  647MOL0     H85352  11.645  12.005   3.319 -1.1985  1.9712 -1.1542
  647MOL0     H85353  11.841  11.952   3.449 -1.4322 -1.1270 -0.0797
  647MOL0     H85354  11.857  12.119   3.412  2.6118 -1.0184  1.6352
  647MOL0     H85355  11.747  12.048   3.680 -0.6976  1.5855 -0.3089
  647MOL0     H85356  11.808  12.208   3.611 -0.2730 -0.6045  0.7424
  647MOL0     H85357  11.951  12.220   3.847 -0.5788 -0.1079 -0.0487
  647MOL0     H85358  12.149  12.209   3.992  1.6567  3.3514 -2.0299
  647MOL0     H85359  12.292  12.186   3.871  1.3639 -2.3773 -0.0059
  647MOL0     H85360  12.352  12.070   4.054  0.7247  1.7893 -2.3423
  647MOL0     H85361  12.279  11.956   3.936 -2.6431  0.9303 -1.6220
  647MOL0     H85362  12.208  11.882   4.147  0.4977  0.5795  0.1903
  647MOL0     H85363  12.165  12.050   4.201  1.9557  1.7755 -0.9270
  647MOL0     H85364  11.966  12.009   4.001 -2.0686 -2.8298 -0.8089
  647MOL0     H85365  11.952  11.954   4.170  2.4541  0.9304  2.0659
  647MOL0     H85366  11.817  11.783   4.210  1.6752 -1.3590 -0.1937
  647MOL0     H85367  11.588  11.731   4.167  0.3684  0.7390  0.7668
  647MOL0     H85368  11.267  11.806   3.746 -1.1685  0.4933 -0.3407
  647MOL0     H85369  11.022  11.768   3.688  3.1709  0.9627 -0.2225
  647MOL0     H85370  10.751  11.531   3.885  1.2446 -1.1542  3.5133
  647MOL0     H85371  10.865  11.402   3.890 -2.0321 -1.0105  0.8686
  647MOL0     H85372  10.773  11.291   3.697  2.4772  1.2037 -0.4153
  647MOL0     H85373  10.676  11.432   3.660  2.1712  2.1274  1.5039
  647MOL0     H85374  10.512  11.385   3.822  1.7225 -0.1216 -0.7949
  647MOL0     H85375  10.630  11.305   3.935 -0.9907  0.5579  1.7884
  647MOL0     H85376  10.528  11.192   3.667 -2.6695  1.4864  0.7713
  647MOL0     H85377  10.659  11.117   3.770 -0.9265 -1.6434 -1.2402
  647MOL0     H85378  10.477  11.126   3.951  1.3393  2.1204  0.0218
  647MOL0     H85379  10.472  10.987   3.829  1.4235  0.7733  0.9394
  647MOL0     H85380  10.317  11.242   3.790 -0.7493 -0.7390 -0.1330
  647MOL0     H85381  10.252  11.112   3.893  1.1326 -0.5265  0.1653
  647MOL0     H85382  10.307  11.107   3.605 -1.9388  1.3601  0.0945
  647MOL0     H85383  10.292  10.952   3.703 -0.9720 -0.7295 -2.5493
  647MOL0     H85384  10.091  11.037   3.592  0.5446 -4.0950  2.0056
  647MOL0     H85385  10.095  11.174   3.710  0.7593  1.5569 -4.7307
  647MOL0     H85386  11.067  11.355   3.839 -1.3970  0.0942 -2.2505
  647MOL0     H85387  11.310  11.401   3.864  0.6360  0.4678 -1.7348
  647MOL0     H85388  11.688  11.620   3.764 -0.0557 -0.0800 -0.5832
  647MOL0     H85389  11.930  11.739   3.808  2.5338  1.5726  1.0964
  647MOL0     H85390  11.168  11.454   3.483 -0.2533  1.4777 -0.4006
  647MOL0     H85391  10.975  11.330   3.558 -0.5493 -0.1701 -0.4497
  647MOL0     H85392  10.583  11.094   3.400 -1.6070  0.3694  1.5563
  647MOL0     H85393  10.402  10.949   3.462  1.0942  2.2008 -0.9923
  647MOL0     H85394  10.511  10.604   3.749 -0.5423 -1.8847 -0.8607
  647MOL0     H85395  10.339  10.568   3.709 -1.8569  1.5740 -0.4521
  647MOL0     H85396  10.434  10.798   3.887 -1.5934 -0.3743  3.0796
  647MOL0     H85397  10.275  10.745   3.864 -0.3129  0.4824  4.1862
  647MOL0     H85398  10.353  10.662   4.068 -0.7119  0.0820 -0.5069
  647MOL0     H85399  10.488  10.572   3.995  1.4146  3.7322  1.4462
  647MOL0     H85400  10.183  10.513   3.985 -0.5433 -0.9463  0.2105
  647MOL0     H85401  10.299  10.425   3.884  3.2387  0.6579 -0.4364
  647MOL0     H85402  10.391  10.244   4.251  0.4783  0.3363  0.8371
  647MOL0     H85403  10.666  10.696   3.683 -0.6110 -1.3051 -2.2890
  647MOL0     H85404  10.847  10.861   3.661 -0.7860 -0.3775  1.4487
  648MOL0     O85405   7.997   1.243   6.267  0.4687  0.8431 -0.5277
  648MOL0     C85406   7.911   1.245   6.352 -0.0885 -0.2333  0.3433
  648MOL0     O85407   7.934   1.291   6.484  0.2760  0.8099 -0.1561
  648MOL0     C85408   8.062   1.313   6.527 -0.0843 -0.7564  0.3586
  648MOL0     C85409   8.165   1.231   6.496  0.6272  0.8192 -0.1831
  648MOL0     C85410   8.295   1.254   6.539 -0.3814 -0.0067  0.0539
  648MOL0     C85411   8.323   1.369   6.611 -0.5923  0.0040 -0.7330
  648MOL0     O85412   8.454   1.389   6.647  0.0177  0.0020 -0.5154
  648MOL0     C85413   8.507   1.519   6.693  0.9160 -0.5227  0.7169
  648MOL0     C85414   8.494   1.625   6.578  0.1272  0.0137  0.0627
  648MOL0     C85415   8.581   1.745   6.610 -1.1850 -0.2704 -1.1960
  648MOL0     C85416   8.577   1.840   6.492 -0.9330 -0.7232  0.2186
  648MOL0     C85417   8.615   1.986   6.527  0.5238  0.3385 -0.0473
  648MOL0     C85418   8.735   2.009   6.622 -0.3401  0.5056 -0.2881
  648MOL0     C85419   8.863   1.949   6.569 -0.5185  0.3141  0.0354
  648MOL0     C85420   8.958   1.910   6.691 -0.2452 -0.9400 -0.0048
  648MOL0     N85421   9.030   2.034   6.738  0.6709  0.6270 -0.5891
  648MOL0     C85422   9.068   2.063   6.866 -0.5989 -0.5337 -0.1516
  648MOL0     C85423   9.145   2.174   6.868  0.4946 -0.0042  0.3031
  648MOL0     C85424   9.215   2.238   6.975 -0.1528  0.1964 -0.1688
  648MOL0     C85425   9.321   2.140   7.044  0.2374 -0.5672  0.6476
  648MOL0     C85426   9.378   2.212   7.162  0.9859 -0.5755 -0.4251
  648MOL0     C85427   9.500   2.312   7.122  0.0105  0.2957  1.2119
  648MOL0     O85428   9.623   2.247   7.073 -0.9925 -0.6426 -0.1663
  648MOL0     C85429   9.705   2.193   7.169 -0.0226 -0.4682  0.6341
  648MOL0     C85430   9.719   2.055   7.172  1.0929  1.0318 -0.0708
  648MOL0     C85431   9.810   1.997   7.255 -0.2658 -1.2494 -0.2864
  648MOL0     C85432   9.893   2.077   7.342 -0.9884  0.8456  0.9692
  648MOL0     C85433  10.001   2.025   7.429  0.1395 -0.4100 -0.5535
  648MOL0     O85434  10.033   1.898   7.403  0.8164 -0.4107 -0.3696
  648MOL0     C85435  10.141   1.852   7.478  0.5232 -0.6373  1.0709
  648MOL0     C85436  10.141   1.811   7.608  0.5196  0.7992 -0.2972
  648MOL0     C85437  10.251   1.736   7.668  0.1980  0.2743  0.1214
  648MOL0     C85438  10.363   1.721   7.586  0.2558  0.1763 -0.3991
  648MOL0     O85439  10.482   1.660   7.622  0.3765 -0.2662  0.1552
  648MOL0     C85440  10.497   1.598   7.746 -0.0262 -0.2808 -0.6457
  648MOL0     C85441  10.592   1.476   7.733  0.0416 -0.0515 -0.8618
  648MOL0     C85442  10.546   1.367   7.635  0.4073  1.1298 -0.0769
  648MOL0     C85443  10.425   1.297   7.688  0.3266  0.5723  0.5522
  648MOL0     C85444  10.415   1.165   7.602  0.7418 -0.3090  0.0539
  648MOL0     C85445  10.312   1.064   7.661 -1.5009  0.4274  0.4686
  648MOL0     C85446  10.173   1.120   7.708 -0.4966 -0.9563 -0.5574
  648MOL0     C85447  10.075   1.006   7.741  0.7086  0.5941  0.2669
  648MOL0    Cl85448   9.921   1.061   7.814 -0.0215 -0.0127  0.2510
  648MOL0     C85449  10.361   1.755   7.449 -0.2639 -0.9792  0.2397
  648MOL0     C85450  10.251   1.823   7.395  1.4664  0.2172 -0.2368
  648MOL0     O85451  10.060   2.099   7.508  1.2329 -0.2908  0.5011
  648MOL0     C85452   9.884   2.216   7.332  0.5287 -0.5093  0.6349
  648MOL0     C85453   9.783   2.271   7.254 -0.1013 -0.2856  0.3300
  648MOL0     N85454   9.136   2.216   6.735 -0.1870  0.4746  0.3389
  648MOL0     N85455   9.071   2.128   6.657 -0.6971  0.5910 -0.2890
  648MOL0     C85456   8.215   1.457   6.642  0.2825  1.2466 -0.4353
  648MOL0     C85457   8.089   1.439   6.592  0.0222  0.7493  1.0630
  648MOL0     C85458   7.780   1.210   6.301  0.5423  0.8800 -0.6022
  648MOL0     C85459   7.733   1.211   6.169  0.1053  0.3586  0.1269
  648MOL0     C85460   7.609   1.160   6.140 -0.6884 -0.0951  0.0719
  648MOL0     C85461   7.518   1.100   6.233  0.0423 -0.5308  0.2687
  648MOL0     O85462   7.392   1.066   6.204  0.0277 -0.1350 -0.6559
  648MOL0     C85463   7.377   0.970   6.095 -0.2898  0.4630  0.4639
  648MOL0     C85464   7.426   0.830   6.139  0.1887 -0.9867  0.2084
  648MOL0     C85465   7.423   0.744   6.011 -0.6370  0.3409  0.5132
  648MOL0     C85466   7.469   0.600   6.044  0.0270  1.1963 -0.0468
  648MOL0     C85467   7.363   0.524   6.113  1.0199 -0.1281 -0.6292
  648MOL0     C85468   7.292   0.448   6.178  0.4567 -0.6197 -0.0678
  648MOL0     C85469   7.568   1.089   6.358 -0.3739 -0.1897  0.5447
  648MOL0     C85470   7.693   1.133   6.391 -0.4317  0.9237  0.4282
  648MOL0     H85471   8.142   1.151   6.427 -1.8626  1.0527  0.2775
  648MOL0     H85472   8.384   1.196   6.516 -0.5179 -0.7575  1.3534
  648MOL0     H85473   8.612   1.509   6.725  0.7108 -0.8411  1.3004
  648MOL0     H85474   8.460   1.553   6.786 -2.3969 -0.8406 -0.7023
  648MOL0     H85475   8.388   1.653   6.567 -0.3356 -1.1678  1.2709
  648MOL0     H85476   8.525   1.573   6.487 -1.2084 -2.0498  0.7223
  648MOL0     H85477   8.682   1.708   6.632 -1.1041  1.6896  2.5025
  648MOL0     H85478   8.554   1.801   6.700  0.9414 -2.4765  1.0256
  648MOL0     H85479   8.648   1.811   6.414 -4.2777 -2.7740 -2.3933
  648MOL0     H85480   8.480   1.844   6.440  0.4329 -1.2259 -2.5855
  648MOL0     H85481   8.529   2.031   6.577  1.8408  1.6769  1.0793
  648MOL0     H85482   8.627   2.035   6.430  1.7127  3.1491  1.4178
  648MOL0     H85483   8.718   1.943   6.707  2.8142 -0.1559 -0.0363
  648MOL0     H85484   8.760   2.111   6.654  2.8079 -0.2258 -0.1238
  648MOL0     H85485   8.845   1.851   6.524  1.2262  0.7465 -1.7848
  648MOL0     H85486   8.914   2.016   6.498 -1.2278  0.9317  0.0928
  648MOL0     H85487   9.040   1.845   6.659  0.8619  1.9739 -3.7747
  648MOL0     H85488   8.909   1.852   6.770  1.5286 -2.4467  0.0605
  648MOL0     H85489   9.039   1.992   6.943 -2.3017  0.0923 -0.1698
  648MOL0     H85490   9.142   2.262   7.053 -0.1462  0.7968 -0.3439
  648MOL0     H85491   9.262   2.333   6.948  0.4703  0.4009  1.5141
  648MOL0     H85492   9.396   2.111   6.970 -0.2138  2.1705 -1.0445
  648MOL0     H85493   9.275   2.050   7.087  0.3682 -2.0171 -2.0022
  648MOL0     H85494   9.302   2.266   7.218 -0.6959 -2.2125 -1.0359
  648MOL0     H85495   9.423   2.133   7.223  1.4032  1.4002  1.9741
  648MOL0     H85496   9.530   2.355   7.218 -0.8604  0.0519  1.6038
  648MOL0     H85497   9.462   2.379   7.044 -1.6055 -0.9663  0.8608
  648MOL0     H85498   9.674   1.977   7.111  3.1473 -0.5097  0.2459
  648MOL0     H85499   9.827   1.890   7.254 -2.2750 -1.8065  3.8385
  648MOL0     H85500  10.051   1.837   7.663 -0.6147 -1.9678 -0.6679
  648MOL0     H85501  10.239   1.699   7.769 -1.0966  0.5208  0.0778
  648MOL0     H85502  10.403   1.553   7.777  0.3301 -0.9488 -0.5149
  648MOL0     H85503  10.518   1.674   7.822 -1.6212  1.7041 -2.0687
  648MOL0     H85504  10.612   1.443   7.835  0.0717 -1.6078 -1.3437
  648MOL0     H85505  10.693   1.504   7.703  0.3563  0.9759  1.0167
  648MOL0     H85506  10.628   1.297   7.622 -0.8640 -0.2598 -0.9573
  648MOL0     H85507  10.523   1.395   7.531 -2.8623 -2.2769 -0.5115
  648MOL0     H85508  10.433   1.271   7.794  4.3948 -0.0407  0.2419
  648MOL0     H85509  10.338   1.361   7.673 -0.2272 -0.3769 -0.4468
  648MOL0     H85510  10.512   1.114   7.603 -0.3634 -2.6028  2.5002
  648MOL0     H85511  10.395   1.194   7.498 -1.8795  2.5723  1.2212
  648MOL0     H85512  10.366   1.018   7.744 -1.6886  0.3032  0.5212
  648MOL0     H85513  10.295   0.982   7.591 -3.1425 -0.3088  1.6768
  648MOL0     H85514  10.183   1.182   7.798 -0.4275 -2.3054  0.4022
  648MOL0     H85515  10.125   1.188   7.637 -3.2472  0.9555  2.8255
  648MOL0     H85516  10.116   0.940   7.818 -0.6781  0.4144  0.8920
  648MOL0     H85517  10.047   0.945   7.655  0.7904  0.9090  0.0153
  648MOL0     H85518  10.444   1.722   7.388 -0.9231 -1.3243 -0.4868
  648MOL0     H85519  10.229   1.840   7.290  3.7082  2.3362 -0.4597
  648MOL0     H85520   9.951   2.283   7.384  0.8550 -1.8256  1.9886
  648MOL0     H85521   9.772   2.378   7.244 -0.2767 -0.2662  0.6817
  648MOL0     H85522   8.221   1.544   6.706 -0.5234  2.1258 -1.5144
  648MOL0     H85523   8.012   1.509   6.623 -2.0722 -0.9629 -0.0281
  648MOL0     H85524   7.789   1.252   6.085 -0.1712 -0.3124 -0.3900
  648MOL0     H85525   7.570   1.173   6.040 -1.1870 -0.2704  0.2418
  648MOL0     H85526   7.415   1.008   5.999 -1.8893 -0.6146 -0.6469
  648MOL0     H85527   7.269   0.964   6.077 -0.0853  2.3574 -2.1296
  648MOL0     H85528   7.526   0.844   6.181 -0.1723  0.7649  0.5748
  648MOL0     H85529   7.363   0.789   6.218 -0.9455 -0.5434 -0.4364
  648MOL0     H85530   7.489   0.770   5.927 -0.0112 -3.4084 -0.3359
  648MOL0     H85531   7.323   0.739   5.967  0.1130 -1.3452 -1.1681
  648MOL0     H85532   7.496   0.549   5.951  1.6238  1.8071  0.0520
  648MOL0     H85533   7.553   0.607   6.114  0.1921 -1.5094  0.1529
  648MOL0     H85534   7.213   0.391   6.224  0.2515  2.0683  3.2813
  648MOL0     H85535   7.516   1.038   6.438  0.4121  0.3548  1.4320
  648MOL0     H85536   7.728   1.114   6.492  0.0926  3.3932  0.7940
  649MOL0     O85537  10.641   0.784   1.806 -0.2758  0.5180 -0.3470
  649MOL0     C85538  10.701   0.801   1.906  0.0400 -0.9277 -1.2373
  649MOL0     O85539  10.832   0.793   1.922 -0.4741  0.1096  0.4492
  649MOL0     C85540  10.920   0.742   1.823 -0.1730 -0.5473  0.2906
  649MOL0     C85541  10.881   0.665   1.709 -0.4317  0.3734  0.2784
  649MOL0     C85542  10.974   0.609   1.625  0.1461 -0.2437  0.5378
  649MOL0     C85543  11.109   0.644   1.635  0.0215  0.5308 -0.4077
  649MOL0     O85544  11.200   0.594   1.542  0.0048  0.0575  0.0982
  649MOL0     C85545  11.253   0.691   1.450 -0.5796  0.1891  0.3432
  649MOL0     C85546  11.149   0.707   1.327 -0.6258 -0.1049  0.9130
  649MOL0     C85547  11.153   0.587   1.230  0.0796  0.8004 -0.6222
  649MOL0     C85548  11.061   0.476   1.291  0.4811  0.1805 -0.0363
  649MOL0     C85549  11.003   0.388   1.173 -0.7618 -0.4283 -0.3194
  649MOL0     C85550  11.118   0.316   1.095 -0.3181  0.8450  0.4908
  649MOL0     C85551  11.084   0.260   0.951 -0.0421 -0.1495 -0.1917
  649MOL0     C85552  11.206   0.274   0.859  0.1236 -0.5143 -0.2724
  649MOL0     N85553  11.252   0.409   0.836 -0.5387  0.0598 -0.3110
  649MOL0     C85554  11.177   0.512   0.774 -0.7733  0.6490 -0.4720
  649MOL0     C85555  11.248   0.624   0.807 -1.2132  0.5444 -0.0370
  649MOL0     C85556  11.217   0.760   0.768  0.1734 -0.7339  0.1257
  649MOL0     C85557  11.112   0.822   0.869 -1.0815  0.2532  0.4617
  649MOL0     C85558  11.039   0.943   0.801  0.7033  0.2430 -0.1529
  649MOL0     C85559  11.109   1.088   0.773  0.5110  0.5291  0.2683
  649MOL0     O85560  11.125   1.134   0.901 -0.5422 -0.0245  0.8552
  649MOL0     C85561  11.159   1.261   0.918  0.3136  0.0770 -0.8526
  649MOL0     C85562  11.247   1.328   0.832 -0.9007  1.2063  0.2275
  649MOL0     C85563  11.273   1.459   0.859 -0.0628 -0.1152  0.1012
  649MOL0     C85564  11.223   1.538   0.961  1.0638 -1.2630 -0.6478
  649MOL0     C85565  11.262   1.678   0.996  0.0709 -0.3452  0.0603
  649MOL0     O85566  11.390   1.701   0.977  0.7129  0.3925 -0.0002
  649MOL0     C85567  11.427   1.829   0.986 -0.3843  0.4613  0.0286
  649MOL0     C85568  11.538   1.863   1.072  0.8918  0.0017 -0.4145
  649MOL0     C85569  11.576   1.999   1.092  1.0577  0.2073 -0.0364
  649MOL0     C85570  11.523   2.098   1.012  0.1514 -1.2357 -1.1666
  649MOL0     O85571  11.566   2.236   1.030  0.5490 -0.6580  0.2684
  649MOL0     C85572  11.603   2.321   0.918  0.1565 -0.1858 -1.0276
  649MOL0     C85573  11.759   2.330   0.900  0.4697 -0.5303 -0.6627
  649MOL0     C85574  11.826   2.368   1.031  0.2974  0.7914 -0.3119
  649MOL0     C85575  11.973   2.333   1.033  0.2574 -1.1181 -0.1015
  649MOL0     C85576  12.054   2.430   1.119 -0.2389  0.1938  0.6843
  649MOL0     C85577  12.200   2.425   1.060  0.3917 -0.3003 -0.4269
  649MOL0     C85578  12.300   2.493   1.162  0.4026 -0.2402  0.0727
  649MOL0     C85579  12.347   2.404   1.273 -0.3529  0.7747 -0.2644
  649MOL0    Cl85580  12.428   2.498   1.392  0.5378 -0.4144  0.3506
  649MOL0     C85581  11.423   2.058   0.921 -0.5656 -0.5290  0.9028
  649MOL0     C85582  11.380   1.930   0.905  0.3101 -0.5799  0.8903
  649MOL0     O85583  11.182   1.755   1.060  0.2276 -0.0779  0.3221
  649MOL0     C85584  11.134   1.467   1.051  1.2720  0.3715 -0.4120
  649MOL0     C85585  11.098   1.328   1.033 -0.0397 -0.1497  0.2270
  649MOL0     N85586  11.357   0.592   0.887 -0.4589  0.4861 -0.9374
  649MOL0     N85587  11.366   0.462   0.889 -0.4396 -0.0505 -0.3273
  649MOL0     C85588  11.150   0.728   1.737 -0.2564  0.1999  0.5033
  649MOL0     C85589  11.060   0.772   1.835 -0.1867 -0.2979  0.4232
  649MOL0     C85590  10.619   0.842   2.020  0.5855 -1.4942 -0.6826
  649MOL0     C85591  10.475   0.825   2.009 -0.2441 -0.3622 -0.5358
  649MOL0     C85592  10.391   0.858   2.120 -0.7164  0.9190  0.3784
  649MOL0     C85593  10.454   0.919   2.232  0.1288  0.3630  0.1721
  649MOL0     O85594  10.388   0.963   2.345  0.1897 -0.0845 -0.2794
  649MOL0     C85595  10.254   0.915   2.364  1.1173 -0.5619 -0.9428
  649MOL0     C85596  10.191   0.974   2.497  0.1568 -0.4873  0.0919
  649MOL0     C85597  10.266   0.928   2.620 -0.3797  0.5819 -0.1885
  649MOL0     C85598  10.183   0.965   2.743 -0.4390  0.5155  0.4160
  649MOL0     C85599  10.251   0.942   2.866  0.4629  0.2267 -0.9116
  649MOL0     C85600  10.302   0.913   2.971 -0.1065 -0.0276 -0.3091
  649MOL0     C85601  10.592   0.942   2.231  1.0454 -0.1690 -0.6474
  649MOL0     C85602  10.670   0.905   2.132  0.4165  0.2261  0.0068
  649MOL0     H85603  10.775   0.646   1.700 -0.5777  0.7083  1.1807
  649MOL0     H85604  10.949   0.538   1.547  2.1532 -0.6794  0.2362
  649MOL0     H85605  11.351   0.664   1.412 -0.5184  1.1257 -0.2031
  649MOL0     H85606  11.259   0.785   1.506  0.6266  0.6429 -0.5278
  649MOL0     H85607  11.167   0.802   1.276  1.5763 -0.7621  0.3611
  649MOL0     H85608  11.048   0.732   1.358  0.1675  2.7936  1.4564
  649MOL0     H85609  11.253   0.544   1.235 -0.7217 -1.0492  0.9505
  649MOL0     H85610  11.118   0.615   1.131 -1.2602  0.8897 -0.1472
  649MOL0     H85611  11.121   0.431   1.372 -0.9020 -1.9054 -0.0779
  649MOL0     H85612  10.973   0.516   1.342  0.4772  0.3186 -0.1543
  649MOL0     H85613  10.949   0.452   1.102  1.0149  2.9505  1.1432
  649MOL0     H85614  10.922   0.326   1.212 -0.6054 -1.2761 -1.2963
  649MOL0     H85615  11.161   0.226   1.141  2.8033  0.7596 -2.2432
  649MOL0     H85616  11.203   0.384   1.094  1.2880 -0.9447  2.8188
  649MOL0     H85617  11.044   0.158   0.953  1.8885 -0.9521  0.0434
  649MOL0     H85618  10.999   0.319   0.914 -0.6043 -0.1267  1.0800
  649MOL0     H85619  11.192   0.224   0.763  1.9783  1.8503 -1.8607
  649MOL0     H85620  11.282   0.214   0.909  0.1935 -0.3049 -0.1267
  649MOL0     H85621  11.081   0.507   0.723 -0.8344  1.0957 -0.4037
  649MOL0     H85622  11.169   0.764   0.670 -1.4896  3.5177  0.9034
  649MOL0     H85623  11.305   0.825   0.766 -1.2520  1.2902  0.3161
  649MOL0     H85624  11.179   0.860   0.947  2.2993 -1.2913 -1.4843
  649MOL0     H85625  11.041   0.750   0.910 -1.0793 -0.2688 -0.4315
  649MOL0     H85626  11.000   0.906   0.706 -0.9814  2.6564 -0.4898
  649MOL0     H85627  10.948   0.965   0.857 -1.3163  0.4886 -3.3064
  649MOL0     H85628  11.054   1.166   0.719  2.9999  0.2186 -3.0040
  649MOL0     H85629  11.204   1.067   0.723 -0.5722  0.7231 -2.0071
  649MOL0     H85630  11.288   1.288   0.740 -0.6011 -2.0422  1.6303
  649MOL0     H85631  11.341   1.504   0.788  1.4119 -0.9356  0.9254
  649MOL0     H85632  11.564   1.780   1.136  1.0137 -1.1321 -1.8905
  649MOL0     H85633  11.627   2.032   1.182 -0.3993  0.7626  0.6334
  649MOL0     H85634  11.559   2.419   0.938  1.9734  1.2828 -3.5759
  649MOL0     H85635  11.558   2.290   0.824 -1.3661  3.6849 -1.7914
  649MOL0     H85636  11.783   2.414   0.834 -2.0594 -0.3833 -1.4850
  649MOL0     H85637  11.790   2.236   0.853 -0.5890 -0.2239 -2.0161
  649MOL0     H85638  11.789   2.330   1.127 -1.3584 -0.0051 -1.2210
  649MOL0     H85639  11.810   2.476   1.034  0.2019  0.7989 -0.9604
  649MOL0     H85640  11.970   2.232   1.076 -0.2019  0.5778  4.3023
  649MOL0     H85641  12.003   2.333   0.927 -1.4391 -1.6290 -0.6209
  649MOL0     H85642  12.046   2.397   1.223 -0.1286  1.3179  1.0561
  649MOL0     H85643  12.005   2.527   1.117 -1.6002 -0.4180 -2.4880
  649MOL0     H85644  12.207   2.469   0.960 -4.4121  1.4739 -0.2562
  649MOL0     H85645  12.217   2.319   1.039 -3.3936 -1.1832  0.0838
  649MOL0     H85646  12.391   2.529   1.114  0.8281 -1.4100 -0.0486
  649MOL0     H85647  12.258   2.583   1.207 -1.1270 -0.0404 -1.6337
  649MOL0     H85648  12.419   2.335   1.230  0.0957 -0.1034  1.7871
  649MOL0     H85649  12.261   2.361   1.325  0.2393 -0.6191 -0.4114
  649MOL0     H85650  11.376   2.137   0.863 -3.4350 -0.2717  3.3402
  649MOL0     H85651  11.293   1.904   0.846  0.6566 -0.9206  0.5184
  649MOL0     H85652  11.108   1.519   1.143  0.0816 -0.5363 -0.2132
  649MOL0     H85653  11.029   1.274   1.096 -0.0006 -0.6880 -0.1803
  649MOL0     H85654  11.254   0.741   1.765 -0.6877 -1.8847  3.6121
  649MOL0     H85655  11.096   0.825   1.923 -2.0387  1.8603 -0.0420
  649MOL0     H85656  10.427   0.783   1.922  1.1170 -4.0920  0.3183
  649MOL0     H85657  10.288   0.825   2.117 -0.0636 -1.3463  0.5931
  649MOL0     H85658  10.269   0.807   2.373 -0.9547 -1.0442 -2.5520
  649MOL0     H85659  10.185   0.931   2.281  0.4814 -0.7693 -0.4570
  649MOL0     H85660  10.191   1.083   2.501  1.9547 -0.4386 -0.3581
  649MOL0     H85661  10.085   0.952   2.505 -0.8496  3.3365 -0.6856
  649MOL0     H85662  10.370   0.960   2.615  0.3241 -1.2159  1.6083
  649MOL0     H85663  10.269   0.818   2.614  2.5078  0.6141 -0.8131
  649MOL0     H85664  10.150   1.069   2.750  1.5173  1.2684 -0.8021
  649MOL0     H85665  10.093   0.903   2.740 -0.1801  0.1639 -2.2858
  649MOL0     H85666  10.326   0.883   3.071 -2.7909 -1.5763 -0.0306
  649MOL0     H85667  10.633   1.001   2.311  2.9696  0.2229 -1.8630
  649MOL0     H85668  10.777   0.918   2.150  0.0332  2.6422  0.8966
  650MOL0     O85669   2.602   5.831   3.434  1.0226  0.1336  0.2199
  650MOL0     C85670   2.620   5.768   3.337 -0.1433 -0.7371 -0.3501
  650MOL0     O85671   2.537   5.689   3.272  0.0198 -0.5050 -0.3157
  650MOL0     C85672   2.401   5.680   3.309 -0.8914 -0.0096  0.1132
  650MOL0     C85673   2.329   5.561   3.278 -0.1926  0.3500  0.0155
  650MOL0     C85674   2.195   5.534   3.315 -0.6504 -0.1608  0.9697
  650MOL0     C85675   2.126   5.640   3.372  0.5014 -0.1130  0.0610
  650MOL0     O85676   1.994   5.625   3.394  0.4011  0.8105  0.6325
  650MOL0     C85677   1.910   5.740   3.388  0.2072 -0.5921 -0.4751
  650MOL0     C85678   1.765   5.692   3.383  0.3863  0.1740  0.5702
  650MOL0     C85679   1.727   5.611   3.505 -0.5815 -0.7722  0.3358
  650MOL0     C85680   1.582   5.575   3.488  0.8659  0.2527 -0.8521
  650MOL0     C85681   1.479   5.674   3.524 -1.2154 -1.8267 -0.0723
  650MOL0     C85682   1.341   5.621   3.506 -0.6806  0.0827  0.2549
  650MOL0     C85683   1.229   5.716   3.562  0.0479  0.4381  1.1517
  650MOL0     C85684   1.095   5.648   3.589 -0.5713  0.4055 -0.0525
  650MOL0     N85685   1.012   5.645   3.470 -0.9565  0.4308  0.5879
  650MOL0     C85686   0.931   5.744   3.428  0.4850  0.4706 -0.7691
  650MOL0     C85687   0.872   5.696   3.316 -1.1543  0.2702 -0.4982
  650MOL0     C85688   0.787   5.771   3.218  0.7666 -0.0380 -0.3806
  650MOL0     C85689   0.634   5.749   3.244 -1.0752 -0.7588 -0.4366
  650MOL0     C85690   0.581   5.617   3.193  0.3667 -0.0112  0.5266
  650MOL0     C85691   0.596   5.605   3.041 -0.0812  0.3737 -0.1829
  650MOL0     O85692   0.557   5.472   2.985 -0.5031 -0.1202  0.5194
  650MOL0     C85693   0.435   5.463   2.923 -0.7453 -0.3608 -0.4052
  650MOL0     C85694   0.322   5.553   2.902 -0.7952  0.2889 -0.3806
  650MOL0     C85695   0.214   5.506   2.837 -0.6194  0.0277 -0.1410
  650MOL0     C85696   0.208   5.387   2.778 -0.0831  0.6479 -0.5573
  650MOL0     C85697   0.088   5.354   2.702  0.0150  0.3563  0.9586
  650MOL0     O85698  -0.005   5.445   2.694  0.8291  0.4264  0.3081
  650MOL0     C85699  -0.119   5.428   2.620 -0.2185  0.4394 -0.1275
  650MOL0     C85700  -0.123   5.391   2.487 -0.6679  0.0563  0.1315
  650MOL0     C85701  -0.240   5.386   2.414 -0.2429 -0.8399 -0.6451
  650MOL0     C85702  -0.361   5.439   2.466 -1.1407 -0.1187  0.4319
  650MOL0     O85703  -0.469   5.453   2.377  0.0010  0.6579  0.0170
  650MOL0     C85704  -0.603   5.429   2.430 -0.3559 -0.9030  0.2830
  650MOL0     C85705  -0.699   5.526   2.345  0.4759  0.4290 -0.9432
  650MOL0     C85706  -0.841   5.468   2.346  0.2620  0.9822  0.2294
  650MOL0     C85707  -0.924   5.538   2.236 -0.7084  0.2079  0.1948
  650MOL0     C85708  -1.068   5.502   2.238  0.4052 -0.1554  0.2220
  650MOL0     C85709  -1.102   5.362   2.274 -0.4692 -0.4797 -1.0972
  650MOL0     C85710  -1.250   5.337   2.311  0.4250 -0.0274 -1.0490
  650MOL0     C85711  -1.330   5.282   2.196 -0.3103 -0.5340 -0.0812
  650MOL0    Cl85712  -1.506   5.284   2.238  0.0707 -0.4940  0.4348
  650MOL0     C85713  -0.361   5.483   2.602  0.4302  1.0080  1.0979
  650MOL0     C85714  -0.238   5.472   2.677 -0.3182  0.1276 -0.3803
  650MOL0     O85715   0.081   5.244   2.652  0.2108 -0.7315 -0.1189
  650MOL0     C85716   0.318   5.293   2.789  0.7119 -0.6740 -0.7482
  650MOL0     C85717   0.427   5.336   2.864  0.1548 -0.4773 -1.0722
  650MOL0     N85718   0.908   5.558   3.296  0.1426 -0.4737 -0.4282
  650MOL0     N85719   0.998   5.533   3.394  0.0481 -0.2501  0.9028
  650MOL0     C85720   2.195   5.758   3.411 -0.2884  0.2807 -0.6409
  650MOL0     C85721   2.326   5.778   3.379  0.5810 -0.4926  0.2897
  650MOL0     C85722   2.761   5.759   3.290 -0.5805  0.6388  1.1872
  650MOL0     C85723   2.792   5.701   3.162  0.1401 -0.0588  0.0300
  650MOL0     C85724   2.922   5.695   3.119 -0.5566 -0.6957  0.2865
  650MOL0     C85725   3.030   5.744   3.190  0.6659  0.1455  0.3024
  650MOL0     O85726   3.154   5.748   3.138  0.5624  0.7515 -0.4800
  650MOL0     C85727   3.223   5.625   3.102  0.8659 -0.2300 -0.2912
  650MOL0     C85728   3.360   5.633   3.048  0.4333 -0.3216  0.3018
  650MOL0     C85729   3.412   5.496   3.004 -0.2541 -0.6293 -0.9585
  650MOL0     C85730   3.314   5.418   2.917 -0.0911  0.6624  0.0677
  650MOL0     C85731   3.381   5.298   2.870  0.0006  0.1766 -0.0316
  650MOL0     C85732   3.443   5.199   2.828 -0.0429  0.5029 -0.2021
  650MOL0     C85733   2.997   5.810   3.307  0.1387  0.0638  0.3111
  650MOL0     C85734   2.867   5.812   3.357  0.8643  0.5241 -0.2600
  650MOL0     H85735   2.384   5.475   3.241 -0.8345  0.9928 -2.5607
  650MOL0     H85736   2.149   5.436   3.303 -0.2196 -0.7253  3.2897
  650MOL0     H85737   1.930   5.806   3.303 -0.1519 -0.2709 -0.3137
  650MOL0     H85738   1.918   5.797   3.481  1.1724 -2.5174  0.6792
  650MOL0     H85739   1.757   5.634   3.291  2.7939 -1.5181  1.3206
  650MOL0     H85740   1.694   5.775   3.379 -1.5763 -1.3528  2.0474
  650MOL0     H85741   1.755   5.657   3.600  3.3320 -0.9599 -0.5729
  650MOL0     H85742   1.774   5.514   3.492 -2.5171 -1.6151 -0.8628
  650MOL0     H85743   1.561   5.539   3.387  1.0347 -0.0607 -0.7795
  650MOL0     H85744   1.564   5.496   3.562  1.5063  1.9693  1.2302
  650MOL0     H85745   1.499   5.770   3.474  0.1994 -0.3209  3.0877
  650MOL0     H85746   1.504   5.691   3.629 -1.0054 -3.1119  0.0942
  650MOL0     H85747   1.342   5.521   3.550 -0.4067 -0.1671 -0.3160
  650MOL0     H85748   1.327   5.618   3.398 -2.4747 -0.1434  0.4501
  650MOL0     H85749   1.272   5.745   3.658  1.5645  0.0539  0.6149
  650MOL0     H85750   1.215   5.806   3.501  0.7784  0.5047  1.0723
  650MOL0     H85751   1.043   5.702   3.668 -0.2726 -0.6300  0.8826
  650MOL0     H85752   1.111   5.548   3.631 -1.1325 -0.4449 -1.7804
  650MOL0     H85753   0.912   5.836   3.482  0.0721  0.3936 -0.7794
  650MOL0     H85754   0.807   5.731   3.118  0.6667  2.4467 -1.4547
  650MOL0     H85755   0.817   5.876   3.230  2.6116 -0.8335  4.0424
  650MOL0     H85756   0.575   5.819   3.185  3.7865  1.3534 -3.4743
  650MOL0     H85757   0.609   5.752   3.350  0.8645 -0.4237  0.0494
  650MOL0     H85758   0.647   5.541   3.236 -1.0439 -1.9851 -0.5892
  650MOL0     H85759   0.478   5.604   3.226 -0.0975  3.0321  0.5743
  650MOL0     H85760   0.694   5.622   2.998  0.4291 -1.5341  0.1282
  650MOL0     H85761   0.533   5.688   3.008 -1.0623 -0.0959  0.4376
  650MOL0     H85762   0.324   5.650   2.951 -0.4107 -0.8044  1.9283
  650MOL0     H85763   0.145   5.589   2.824  1.7387  2.0968 -0.2995
  650MOL0     H85764  -0.035   5.369   2.427  0.1947  1.3801  0.8282
  650MOL0     H85765  -0.230   5.356   2.310 -1.3782 -1.7124 -0.5130
  650MOL0     H85766  -0.616   5.448   2.537  0.5354 -0.9556  0.4054
  650MOL0     H85767  -0.630   5.324   2.419 -1.4110 -0.9251  2.4680
  650MOL0     H85768  -0.655   5.538   2.246  0.1586  1.4010 -0.9799
  650MOL0     H85769  -0.716   5.621   2.398  1.4477 -0.7589  1.6258
  650MOL0     H85770  -0.880   5.486   2.447  1.2859  3.2311  0.2657
  650MOL0     H85771  -0.845   5.362   2.320 -0.0734  0.6820  1.4137
  650MOL0     H85772  -0.921   5.647   2.222 -2.5303  0.1628 -0.8725
  650MOL0     H85773  -0.870   5.511   2.145  3.8544  2.2870  1.9824
  650MOL0     H85774  -1.109   5.513   2.138  0.9220 -0.6257 -0.0446
  650MOL0     H85775  -1.113   5.576   2.306  3.4386  0.4499  1.7612
  650MOL0     H85776  -1.051   5.323   2.362  1.2829 -0.9308 -2.2601
  650MOL0     H85777  -1.066   5.300   2.191  1.5493 -0.2977 -0.4192
  650MOL0     H85778  -1.256   5.268   2.396 -0.8501  2.2296  0.8141
  650MOL0     H85779  -1.293   5.435   2.337  1.8955  0.1002  1.1283
  650MOL0     H85780  -1.299   5.180   2.172 -1.6617 -0.3495 -3.0573
  650MOL0     H85781  -1.312   5.339   2.104 -1.2320 -1.1539 -0.6582
  650MOL0     H85782  -0.449   5.532   2.641 -1.8051 -0.8384 -1.2342
  650MOL0     H85783  -0.233   5.517   2.776  0.5776 -1.6177  0.4093
  650MOL0     H85784   0.323   5.187   2.767  2.9983 -1.0280  1.0811
  650MOL0     H85785   0.512   5.270   2.876  2.1189  2.1400  0.2703
  650MOL0     H85786   2.145   5.827   3.478 -2.3397 -2.6300  1.0477
  650MOL0     H85787   2.373   5.870   3.414 -0.6341 -0.3847  1.6987
  650MOL0     H85788   2.706   5.664   3.107  0.1392  3.5054 -2.7316
  650MOL0     H85789   2.954   5.640   3.031  1.6173 -0.6226  0.9628
  650MOL0     H85790   3.162   5.581   3.023 -1.1664  0.6724  0.7035
  650MOL0     H85791   3.223   5.552   3.183  0.1630 -0.3860 -0.4221
  650MOL0     H85792   3.351   5.698   2.960 -1.0801  1.8268  1.9137
  650MOL0     H85793   3.440   5.673   3.110  0.4824 -0.7452  0.5096
  650MOL0     H85794   3.439   5.430   3.087  0.6810 -0.6360 -1.2551
  650MOL0     H85795   3.511   5.509   2.959  0.7914 -1.8843  0.8514
  650MOL0     H85796   3.238   5.374   2.983 -0.0851 -0.4008 -0.6130
  650MOL0     H85797   3.274   5.481   2.837  2.5684  0.8066 -1.2535
  650MOL0     H85798   3.497   5.114   2.789 -0.2032  1.3018 -2.3148
  650MOL0     H85799   3.074   5.864   3.362  1.0915 -0.3289 -0.5989
  650MOL0     H85800   2.855   5.865   3.451 -2.9180  0.3607 -0.5066
  651MOL0     O85801   2.376   0.526   9.768 -0.2947  0.2853 -0.1910
  651MOL0     C85802   2.383   0.646   9.737  1.0350 -0.0927 -0.1693
  651MOL0     O85803   2.278   0.720   9.693 -0.0500  0.1574 -0.5449
  651MOL0     C85804   2.154   0.668   9.727  0.2200 -0.6918  0.1076
  651MOL0     C85805   2.073   0.726   9.832 -0.3307  0.8570  0.1854
  651MOL0     C85806   1.945   0.681   9.863  1.1436  0.3523 -0.1846
  651MOL0     C85807   1.901   0.571   9.784  0.4468  0.3923  0.1390
  651MOL0     O85808   1.780   0.510   9.822 -0.1827  0.0281 -0.1459
  651MOL0     C85809   1.677   0.516   9.730  0.2383  0.3444 -0.3277
  651MOL0     C85810   1.608   0.643   9.749  0.1901 -0.6732 -1.5136
  651MOL0     C85811   1.478   0.632   9.670 -0.4862  0.0128  0.2616
  651MOL0     C85812   1.385   0.754   9.684  0.3727 -0.0204 -0.1480
  651MOL0     C85813   1.255   0.724   9.607  0.2729 -0.0103 -0.6929
  651MOL0     C85814   1.169   0.849   9.596  0.8017  0.2067  0.0517
  651MOL0     C85815   1.043   0.839   9.510 -0.0433 -0.2743  0.5338
  651MOL0     C85816   0.949   0.730   9.559  0.0520 -0.6198 -0.5508
  651MOL0     N85817   0.817   0.735   9.490 -0.1171  0.1913 -1.0161
  651MOL0     C85818   0.787   0.669   9.379  0.1533  0.1051  0.3997
  651MOL0     C85819   0.653   0.692   9.366  0.7105 -0.5829  0.5698
  651MOL0     C85820   0.595   0.634   9.241 -0.3293 -0.0383  0.9204
  651MOL0     C85821   0.448   0.678   9.208  0.2612  0.1967  0.0057
  651MOL0     C85822   0.378   0.582   9.123 -0.1502  0.2414 -0.3735
  651MOL0     C85823   0.226   0.609   9.107  0.6565 -0.5323 -0.4007
  651MOL0     O85824   0.165   0.586   9.235 -1.0723 -0.1578  0.1646
  651MOL0     C85825   0.039   0.637   9.256 -1.1571  0.4743 -0.2870
  651MOL0     C85826   0.019   0.728   9.363  1.2365  0.7321  0.4604
  651MOL0     C85827  -0.110   0.773   9.394  0.2054  0.1402  1.0280
  651MOL0     C85828  -0.210   0.749   9.294  0.3562 -0.5210 -0.2399
  651MOL0     C85829  -0.342   0.827   9.305 -0.2327 -0.1495  0.7863
  651MOL0     O85830  -0.354   0.920   9.403 -0.3072  0.2014  0.1433
  651MOL0     C85831  -0.467   0.983   9.449  0.2980 -0.6025  0.1526
  651MOL0     C85832  -0.464   1.037   9.574 -0.2756 -0.6286  0.7097
  651MOL0     C85833  -0.574   1.112   9.622 -0.4207  1.0755 -0.3632
  651MOL0     C85834  -0.693   1.133   9.547  0.6175 -0.0144  0.1709
  651MOL0     O85835  -0.796   1.209   9.602  0.1876  0.8215 -0.7289
  651MOL0     C85836  -0.930   1.187   9.553  0.2914  0.6404  0.1708
  651MOL0     C85837  -1.008   1.203   9.688 -0.0802  1.3610  0.5184
  651MOL0     C85838  -1.149   1.265   9.668 -0.1847  0.3324 -0.4438
  651MOL0     C85839  -1.230   1.283   9.796  0.0205 -0.4360 -0.4505
  651MOL0     C85840  -1.345   1.376   9.760  0.1410  0.0271 -0.1583
  651MOL0     C85841  -1.436   1.387   9.879  0.8028  0.2478  0.5730
  651MOL0     C85842  -1.558   1.477   9.853 -0.1935  0.7403 -0.1886
  651MOL0     C85843  -1.684   1.403   9.780 -0.3253  0.8047 -0.1775
  651MOL0    Cl85844  -1.747   1.267   9.879 -0.0282 -0.1044  0.0932
  651MOL0     C85845  -0.689   1.071   9.422  0.9958 -0.3158  0.0370
  651MOL0     C85846  -0.583   1.000   9.371 -0.3005 -0.2582 -0.6270
  651MOL0     O85847  -0.437   0.782   9.242  0.2131 -1.1464  1.3985
  651MOL0     C85848  -0.190   0.664   9.190 -0.7049 -0.5842 -0.0162
  651MOL0     C85849  -0.061   0.601   9.174 -0.3949  0.1846  1.0218
  651MOL0     N85850   0.601   0.760   9.474  0.6156  0.4032  0.6057
  651MOL0     N85851   0.701   0.789   9.550 -1.1742  0.2719  0.4444
  651MOL0     C85852   1.978   0.510   9.682  0.5165 -0.4964  1.2593
  651MOL0     C85853   2.103   0.567   9.644 -0.1783  0.1882 -0.1637
  651MOL0     C85854   2.519   0.704   9.726  0.3284 -0.1054 -1.0993
  651MOL0     C85855   2.528   0.833   9.669 -0.5232 -0.2417  0.0824
  651MOL0     C85856   2.660   0.898   9.660 -0.2295  0.0357  0.2709
  651MOL0     C85857   2.778   0.845   9.721 -0.9729  0.6264 -1.3108
  651MOL0     O85858   2.901   0.919   9.711 -0.1329 -0.5937  0.3747
  651MOL0     C85859   3.027   0.887   9.776 -0.1644  1.2725  0.5261
  651MOL0     C85860   3.014   0.941   9.914  0.3861 -1.0238 -0.3946
  651MOL0     C85861   3.014   1.095   9.907  0.3941  0.9320  0.2829
  651MOL0     C85862   3.021   1.161  10.047  0.5008 -0.4526  0.1382
  651MOL0     C85863   2.991   1.307  10.036  0.8086  0.1253  0.3539
  651MOL0     C85864   2.969   1.429  10.003  0.6247  0.4319 -1.2871
  651MOL0     C85865   2.762   0.722   9.784  0.2209 -0.4602  0.1135
  651MOL0     C85866   2.635   0.646   9.780  0.7531 -0.3823 -0.0633
  651MOL0     H85867   2.097   0.815   9.889  1.9386 -0.0760  0.7901
  651MOL0     H85868   1.887   0.730   9.940  1.2875  2.8359 -1.5532
  651MOL0     H85869   1.609   0.436   9.759  0.0228 -0.0419 -1.8440
  651MOL0     H85870   1.707   0.513   9.625 -1.5325 -3.7361 -0.9010
  651MOL0     H85871   1.674   0.711   9.694  0.9078 -0.6214 -0.6081
  651MOL0     H85872   1.598   0.684   9.850  0.3173  0.4344 -1.9382
  651MOL0     H85873   1.426   0.546   9.713  0.2289  1.2530  4.0126
  651MOL0     H85874   1.498   0.622   9.563 -0.2235  1.4771  0.1510
  651MOL0     H85875   1.368   0.757   9.792 -1.8822 -0.3799 -0.4561
  651MOL0     H85876   1.435   0.845   9.649  0.8180  0.2037  1.0442
  651MOL0     H85877   1.201   0.642   9.656  2.1770 -0.1859  1.2615
  651MOL0     H85878   1.281   0.684   9.509 -3.3798 -0.5971 -1.5853
  651MOL0     H85879   1.246   0.915   9.555  1.1064  1.5584  2.5854
  651MOL0     H85880   1.147   0.893   9.694  2.5524 -0.0455  0.5867
  651MOL0     H85881   0.995   0.937   9.514 -0.0639 -0.3303  2.7340
  651MOL0     H85882   1.074   0.816   9.407  0.7932 -0.6769  0.8687
  651MOL0     H85883   0.928   0.758   9.663  1.7308  2.8160 -0.9827
  651MOL0     H85884   0.981   0.626   9.551  0.0160 -0.7887  1.0871
  651MOL0     H85885   0.853   0.627   9.304 -1.6193  0.8461 -1.6965
  651MOL0     H85886   0.581   0.528   9.264 -2.7033 -0.2374 -0.9767
  651MOL0     H85887   0.659   0.643   9.152 -0.1441  2.3318  1.2354
  651MOL0     H85888   0.448   0.778   9.164  1.3573  0.9014  1.5144
  651MOL0     H85889   0.395   0.688   9.304 -1.6137  1.1609 -1.0594
  651MOL0     H85890   0.418   0.601   9.022 -2.6615  2.3330 -1.0740
  651MOL0     H85891   0.407   0.480   9.148 -0.9823  0.1459  0.2080
  651MOL0     H85892   0.189   0.536   9.034 -1.5821 -3.5595  3.3220
  651MOL0     H85893   0.212   0.715   9.086 -0.9458 -0.4819  0.7249
  651MOL0     H85894   0.104   0.763   9.420  2.3651 -1.9730  0.5762
  651MOL0     H85895  -0.121   0.841   9.478 -3.0239  2.6016 -1.1806
  651MOL0     H85896  -0.374   1.036   9.634 -0.6637 -2.5856  1.3444
  651MOL0     H85897  -0.569   1.154   9.722 -1.2061 -1.1040  0.6574
  651MOL0     H85898  -0.944   1.088   9.508  0.8894  1.8405 -2.8463
  651MOL0     H85899  -0.962   1.257   9.475 -2.6485 -1.8349 -1.0849
  651MOL0     H85900  -0.957   1.280   9.746  1.1528 -0.4275  1.9081
  651MOL0     H85901  -1.016   1.107   9.740  1.0037 -0.0819 -1.7853
  651MOL0     H85902  -1.206   1.210   9.593 -1.9395  0.2163  0.8985
  651MOL0     H85903  -1.129   1.366   9.633  1.8466  0.3422  0.6014
  651MOL0     H85904  -1.270   1.192   9.842 -2.8831  2.0222  2.4493
  651MOL0     H85905  -1.172   1.342   9.866  1.5537 -1.7280 -0.5805
  651MOL0     H85906  -1.401   1.332   9.676 -2.9840  1.6291  0.9091
  651MOL0     H85907  -1.312   1.469   9.712 -0.5058  0.6135  0.5093
  651MOL0     H85908  -1.385   1.424   9.968  1.8649 -2.3600  1.1550
  651MOL0     H85909  -1.477   1.289   9.908 -2.0427  1.0093 -0.5307
  651MOL0     H85910  -1.600   1.510   9.948 -0.0095 -3.4646  1.5849
  651MOL0     H85911  -1.526   1.561   9.791  0.4501  0.1888 -0.6164
  651MOL0     H85912  -1.661   1.362   9.681  3.7121  3.3048 -0.5058
  651MOL0     H85913  -1.764   1.477   9.772 -1.1392  0.1773  1.6326
  651MOL0     H85914  -0.773   1.083   9.353  1.1939 -3.2405 -0.8256
  651MOL0     H85915  -0.596   0.951   9.275  0.2235  0.2524 -0.9637
  651MOL0     H85916  -0.262   0.629   9.117  1.2677  0.0855 -2.4077
  651MOL0     H85917  -0.044   0.545   9.082 -3.4125 -0.7435  0.9103
  651MOL0     H85918   1.962   0.414   9.632  2.4620  0.6676 -1.9030
  651MOL0     H85919   2.149   0.526   9.555 -0.2533 -1.5741  0.5787
  651MOL0     H85920   2.438   0.875   9.626 -1.7586 -1.2392  1.5921
  651MOL0     H85921   2.659   0.986   9.597 -1.1676 -0.5404 -0.5564
  651MOL0     H85922   3.104   0.949   9.731 -0.7999  2.2389  0.7381
  651MOL0     H85923   3.051   0.782   9.792 -1.1793  0.6196 -1.8577
  651MOL0     H85924   2.926   0.914   9.974  1.2793 -0.9460  1.0091
  651MOL0     H85925   3.102   0.907   9.970  1.6176  0.0915 -1.5993
  651MOL0     H85926   2.915   1.120   9.868  0.5554  1.1342  0.0014
  651MOL0     H85927   3.085   1.136   9.835  1.0617  2.4023  1.7222
  651MOL0     H85928   2.947   1.116  10.114  2.3338 -3.6576  0.2123
  651MOL0     H85929   3.123   1.149  10.084 -0.0342 -1.6620  1.3014
  651MOL0     H85930   2.947   1.530   9.973 -1.7920  0.7324  1.0519
  651MOL0     H85931   2.847   0.680   9.837 -0.2495 -1.3078  0.2228
  651MOL0     H85932   2.613   0.549   9.823 -1.3003 -0.8301 -1.9559
  652MOL0     O85933  10.315   8.899   7.969 -0.2534  0.1805 -0.3358
  652MOL0     C85934  10.405   8.943   8.039  0.4912 -0.0303 -0.2964
  652MOL0     O85935  10.387   9.045   8.134 -0.3307 -0.4880 -0.2354
  652MOL0     C85936  10.276   9.122   8.110  0.4148  0.5890 -0.3461
  652MOL0     C85937  10.278   9.226   8.023  0.3260  0.4664 -0.3203
  652MOL0     C85938  10.163   9.294   7.989 -0.1796  0.6634  0.6761
  652MOL0     C85939  10.040   9.252   8.043  0.3176 -0.5768 -0.0363
  652MOL0     O85940   9.931   9.319   8.004 -0.1259  0.1000  0.0107
  652MOL0     C85941   9.808   9.288   8.068  0.2467  0.1470 -0.1319
  652MOL0     C85942   9.705   9.383   8.023 -0.5006  0.1819 -0.5089
  652MOL0     C85943   9.568   9.361   8.096  0.3383 -0.1177 -1.1155
  652MOL0     C85944   9.460   9.451   8.041 -0.6889 -0.0356 -0.0989
  652MOL0     C85945   9.334   9.446   8.141  0.7428  0.9212  0.2452
  652MOL0     C85946   9.240   9.321   8.103 -0.8760  0.0643  0.9702
  652MOL0     C85947   9.173   9.257   8.227  0.2479 -0.5020 -0.0763
  652MOL0     C85948   9.056   9.342   8.271 -0.0529  0.2319  0.1437
  652MOL0     N85949   9.005   9.261   8.380  0.5306  0.6606  1.0943
  652MOL0     C85950   8.920   9.153   8.372 -0.0095 -0.2005 -0.0274
  652MOL0     C85951   8.920   9.110   8.502 -0.4827  0.2821 -0.4764
  652MOL0     C85952   8.855   8.975   8.546 -0.0358 -0.1704  1.2073
  652MOL0     C85953   8.714   9.004   8.594  0.7345 -0.0562  0.2762
  652MOL0     C85954   8.639   8.871   8.639 -0.6085 -0.3554  1.0854
  652MOL0     C85955   8.508   8.901   8.684  0.9472 -0.6460 -0.7878
  652MOL0     O85956   8.450   8.780   8.722  0.0826  0.6311  0.1193
  652MOL0     C85957   8.317   8.764   8.706  1.0099 -0.3552 -0.7101
  652MOL0     C85958   8.263   8.632   8.669  0.2743 -0.0585  0.0067
  652MOL0     C85959   8.127   8.604   8.651 -0.2621  0.5162 -0.8850
  652MOL0     C85960   8.040   8.699   8.713 -0.4298 -0.5226 -0.8978
  652MOL0     C85961   7.895   8.670   8.718 -0.2236  0.7146  0.0574
  652MOL0     O85962   7.822   8.772   8.740  1.7296  0.6203  0.0951
  652MOL0     C85963   7.687   8.745   8.780 -0.6731  0.6559 -0.6990
  652MOL0     C85964   7.595   8.661   8.695  0.4459 -0.2095 -0.6358
  652MOL0     C85965   7.474   8.620   8.745  0.0332 -0.0902  0.8256
  652MOL0     C85966   7.440   8.670   8.872  0.3924  0.2838  0.2988
  652MOL0     O85967   7.325   8.614   8.925 -0.1091 -0.1498  0.4611
  652MOL0     C85968   7.268   8.660   9.053  0.2925  0.0359  0.9827
  652MOL0     C85969   7.114   8.620   9.066  0.0593  0.0465 -0.1076
  652MOL0     C85970   7.075   8.577   9.207 -0.2093 -0.3697  0.2351
  652MOL0     C85971   6.923   8.554   9.198 -0.0189  0.5712 -1.0601
  652MOL0     C85972   6.858   8.514   9.335 -0.7055  0.1199  0.4673
  652MOL0     C85973   6.707   8.486   9.324 -0.6776 -0.2369  0.6581
  652MOL0     C85974   6.667   8.395   9.444  1.0704 -0.4374  0.3814
  652MOL0     C85975   6.519   8.427   9.492 -0.3066 -0.0273  0.2817
  652MOL0    Cl85976   6.484   8.591   9.546  0.0932  0.0097  0.0431
  652MOL0     C85977   7.527   8.744   8.955  0.1324 -0.2596 -0.3838
  652MOL0     C85978   7.644   8.798   8.902 -0.4874  0.2640  0.6045
  652MOL0     O85979   7.857   8.555   8.697 -0.5702  0.6201 -0.8289
  652MOL0     C85980   8.083   8.823   8.762  0.2800  0.2626  0.4860
  652MOL0     C85981   8.218   8.858   8.749 -0.3319  0.2114  0.3240
  652MOL0     N85982   8.972   9.212   8.583  0.0775  0.5170 -0.2560
  652MOL0     N85983   9.028   9.297   8.511 -0.4191 -0.6419 -0.3691
  652MOL0     C85984  10.036   9.149   8.136  0.6149  0.5906  0.2174
  652MOL0     C85985  10.152   9.088   8.170  0.3493  0.5669  0.1753
  652MOL0     C85986  10.541   8.872   8.037  0.1903  0.2705  0.3676
  652MOL0     C85987  10.645   8.913   8.134  0.2813  0.4628 -0.2836
  652MOL0     C85988  10.766   8.836   8.136 -0.2160 -0.2029 -0.0874
  652MOL0     C85989  10.782   8.723   8.056  0.5293  0.4750 -1.0748
  652MOL0     O85990  10.908   8.665   8.064  1.2021  0.3253 -0.1613
  652MOL0     C85991  10.948   8.570   7.961  0.0402  0.0096 -0.5728
  652MOL0     C85992  10.891   8.433   7.993 -0.7880  0.5653  0.0755
  652MOL0     C85993  10.977   8.311   7.955  0.7453  0.0643 -0.6230
  652MOL0     C85994  11.036   8.316   7.809  0.4890  0.2492 -0.1762
  652MOL0     C85995  10.936   8.315   7.695  0.0643  0.6616 -0.1978
  652MOL0     C85996  10.860   8.285   7.605 -0.1505 -0.1702  0.9818
  652MOL0     C85997  10.680   8.683   7.967 -0.0362 -1.6097 -0.2734
  652MOL0     C85998  10.564   8.762   7.951 -0.7010 -0.8341 -0.4868
  652MOL0     H85999  10.361   9.241   7.955 -0.3818 -0.1651 -1.3388
  652MOL0     H86000  10.169   9.363   7.905  2.4547 -0.7405 -0.4052
  652MOL0     H86001   9.815   9.278   8.177  2.2715 -2.2555 -0.4072
  652MOL0     H86002   9.789   9.186   8.035  3.4826 -0.9993  1.1625
  652MOL0     H86003   9.687   9.362   7.917 -0.4569  1.2779 -0.7478
  652MOL0     H86004   9.741   9.485   8.036 -0.3831 -0.1900  2.6728
  652MOL0     H86005   9.591   9.379   8.201  1.6369 -0.6681 -1.2893
  652MOL0     H86006   9.531   9.259   8.082  1.3762 -0.6209 -0.2384
  652MOL0     H86007   9.499   9.553   8.033  1.8906 -0.5722  3.5352
  652MOL0     H86008   9.441   9.418   7.938 -1.4675 -2.2974  0.7105
  652MOL0     H86009   9.277   9.539   8.136 -1.3642 -0.2667  0.9125
  652MOL0     H86010   9.367   9.437   8.245  0.0350  0.7697  0.4568
  652MOL0     H86011   9.290   9.238   8.052 -1.9451  0.6555 -1.1529
  652MOL0     H86012   9.169   9.360   8.029 -0.4264  1.9387  1.4613
  652MOL0     H86013   9.142   9.156   8.199 -2.1123  0.4486 -1.1556
  652MOL0     H86014   9.249   9.262   8.305  0.4840  1.0348 -0.3753
  652MOL0     H86015   8.978   9.361   8.196 -1.4167 -0.5059  1.3235
  652MOL0     H86016   9.095   9.441   8.294  1.3694  0.4271 -2.6154
  652MOL0     H86017   8.870   9.100   8.291 -1.3462  3.2250 -1.6246
  652MOL0     H86018   8.917   8.931   8.625 -1.3460  0.0421  2.3940
  652MOL0     H86019   8.852   8.898   8.467  1.2616 -1.2332  2.1413
  652MOL0     H86020   8.670   9.073   8.521  2.4040  0.0204 -0.7401
  652MOL0     H86021   8.737   9.077   8.672 -0.4103  2.5912 -1.7005
  652MOL0     H86022   8.633   8.813   8.547  0.0181  1.2131  0.0108
  652MOL0     H86023   8.692   8.810   8.713 -1.6941 -3.0213 -0.2144
  652MOL0     H86024   8.454   8.950   8.602  0.7886 -0.3997 -0.5360
  652MOL0     H86025   8.519   8.962   8.774 -0.1657 -1.5738 -0.0013
  652MOL0     H86026   8.336   8.552   8.660 -0.6167 -1.2643  2.4187
  652MOL0     H86027   8.088   8.507   8.622 -1.2630  1.3551 -2.4601
  652MOL0     H86028   7.623   8.638   8.593 -0.6085  0.0630 -1.0000
  652MOL0     H86029   7.414   8.547   8.692  0.4169 -0.2411  0.5943
  652MOL0     H86030   7.278   8.768   9.058  0.7330  0.1252 -1.1708
  652MOL0     H86031   7.320   8.622   9.142  0.7361  2.0312  1.6124
  652MOL0     H86032   7.090   8.537   8.998 -1.0478  0.4841 -0.2806
  652MOL0     H86033   7.053   8.702   9.026  0.8265  0.4983 -0.3703
  652MOL0     H86034   7.109   8.651   9.280  1.3541  1.9228 -2.5737
  652MOL0     H86035   7.121   8.486   9.246  0.9035 -0.8480 -2.0092
  652MOL0     H86036   6.877   8.647   9.164  1.1232  1.7818  0.5530
  652MOL0     H86037   6.905   8.469   9.131  0.9857 -2.4619  2.2128
  652MOL0     H86038   6.887   8.585   9.413  0.5808 -1.1829  1.2311
  652MOL0     H86039   6.905   8.423   9.374  0.4958  1.4155  2.1995
  652MOL0     H86040   6.689   8.454   9.221  2.9067  2.6227 -1.1086
  652MOL0     H86041   6.661   8.585   9.330 -0.4737  0.0172 -1.2778
  652MOL0     H86042   6.661   8.294   9.403 -0.0455 -0.5823  0.8733
  652MOL0     H86043   6.742   8.396   9.524 -1.0273 -1.9592  2.5060
  652MOL0     H86044   6.511   8.361   9.579 -0.7879 -1.7386 -1.0193
  652MOL0     H86045   6.439   8.396   9.425 -1.2489  2.1336  0.3154
  652MOL0     H86046   7.513   8.762   9.061  0.6729 -2.5995  0.1509
  652MOL0     H86047   7.722   8.855   8.951  0.7153 -0.7744 -0.0567
  652MOL0     H86048   8.019   8.890   8.818 -3.6928 -3.7851  1.3506
  652MOL0     H86049   8.257   8.939   8.810  2.7438 -2.2623  1.8758
  652MOL0     H86050   9.948   9.105   8.181  2.1929 -1.8873  1.0935
  652MOL0     H86051  10.143   9.009   8.244 -0.2913  0.8647  0.4265
  652MOL0     H86052  10.627   9.003   8.191 -2.8569 -0.0994 -0.2306
  652MOL0     H86053  10.847   8.872   8.197 -0.0168  0.5281 -0.7737
  652MOL0     H86054  11.058   8.565   7.962  0.0887  0.8703 -1.2341
  652MOL0     H86055  10.919   8.600   7.860  0.6431  0.3582 -0.6471
  652MOL0     H86056  10.864   8.429   8.099 -1.8314 -1.7534 -0.2118
  652MOL0     H86057  10.799   8.406   7.941 -0.1523 -1.4419 -0.0875
  652MOL0     H86058  10.919   8.218   7.959  0.5307  0.1717 -1.1306
  652MOL0     H86059  11.056   8.304   8.030  0.3908 -1.3369 -0.3517
  652MOL0     H86060  11.105   8.400   7.795 -1.7984  2.5539  1.3993
  652MOL0     H86061  11.097   8.226   7.799  0.4009  0.2269 -0.5088
  652MOL0     H86062  10.802   8.261   7.518 -1.2073 -0.6279  1.7978
  652MOL0     H86063  10.681   8.588   7.915 -2.1332 -0.7443 -2.0570
  652MOL0     H86064  10.488   8.744   7.876 -1.9627  3.1472 -0.4195
  653MOL0     O86065   0.415   4.683   9.793 -0.1061  0.2194  0.4601
  653MOL0     C86066   0.315   4.734   9.831  0.4051 -1.2212 -0.2676
  653MOL0     O86067   0.305   4.851   9.898 -0.1720  0.3497  0.2072
  653MOL0     C86068   0.410   4.918   9.951  0.0909  0.6892 -0.0585
  653MOL0     C86069   0.440   5.050   9.905 -0.3002 -0.4275  0.1865
  653MOL0     C86070   0.554   5.111   9.961 -0.8965 -0.8798 -0.1356
  653MOL0     C86071   0.611   5.055  10.084 -0.8093 -0.0549  0.2184
  653MOL0     O86072   0.702   5.118  10.170 -0.3308  0.0324  0.1279
  653MOL0     C86073   0.744   5.250  10.118 -0.3999 -0.1661 -0.2336
  653MOL0     C86074   0.848   5.307  10.219  0.0534  0.1711  0.3517
  653MOL0     C86075   0.945   5.401  10.141 -0.3388 -0.5540  0.2237
  653MOL0     C86076   1.058   5.475  10.220 -0.0412  0.1146  0.0523
  653MOL0     C86077   1.128   5.571  10.118  0.3444  0.9958 -0.1966
  653MOL0     C86078   1.273   5.615  10.149  0.4011 -0.9470  0.5911
  653MOL0     C86079   1.272   5.719  10.255  0.3036  0.5914  0.0469
  653MOL0     C86080   1.408   5.784  10.281 -0.0522  0.4230 -0.2859
  653MOL0     N86081   1.423   5.903  10.193 -0.6361 -0.8082  0.1887
  653MOL0     C86082   1.352   6.020  10.206  0.8865 -1.3602  0.2489
  653MOL0     C86083   1.404   6.096  10.107 -0.1224  0.5766  0.9154
  653MOL0     C86084   1.370   6.234  10.057 -0.2992  0.2250  0.0738
  653MOL0     C86085   1.428   6.345  10.140 -0.3924 -0.8062 -1.0462
  653MOL0     C86086   1.393   6.486  10.091  0.6501 -0.2758  0.7256
  653MOL0     C86087   1.244   6.510  10.116 -0.0019  0.4496  0.4876
  653MOL0     O86088   1.202   6.633  10.053 -0.2275 -0.3623 -0.2907
  653MOL0     C86089   1.068   6.653  10.064 -0.6837 -0.7951 -0.1786
  653MOL0     C86090   1.027   6.759   9.984  0.4168  0.1446 -0.4835
  653MOL0     C86091   0.897   6.802   9.997  0.9393 -0.9442 -0.0595
  653MOL0     C86092   0.805   6.743  10.091 -0.0597  0.0713 -0.4907
  653MOL0     C86093   0.660   6.767  10.075  0.3697 -0.0609 -0.5239
  653MOL0     O86094   0.624   6.852   9.981 -0.2342 -0.0926  0.8558
  653MOL0     C86095   0.495   6.868   9.935 -0.3153 -0.4684  0.9078
  653MOL0     C86096   0.381   6.886  10.012  0.0173 -0.0601 -0.8503
  653MOL0     C86097   0.261   6.885   9.950 -0.0319  0.4634 -0.4602
  653MOL0     C86098   0.245   6.877   9.814  0.0107  1.3397  0.0654
  653MOL0     O86099   0.130   6.872   9.744  0.3530 -0.3451 -0.1366
  653MOL0     C86100   0.017   6.841   9.825 -0.2431 -0.2467 -0.0966
  653MOL0     C86101  -0.108   6.848   9.738  0.2100  0.9099  0.8663
  653MOL0     C86102  -0.098   6.754   9.612  0.0501  1.0574 -0.1764
  653MOL0     C86103  -0.103   6.604   9.648 -0.7205  0.7497  0.0453
  653MOL0     C86104  -0.095   6.514   9.519 -1.0153 -0.9249 -0.4958
  653MOL0     C86105   0.048   6.510   9.453 -0.9186 -0.1558  0.6054
  653MOL0     C86106   0.050   6.398   9.345  0.1444 -0.1864 -0.7173
  653MOL0     C86107  -0.039   6.448   9.236  0.0268  0.0928 -0.6623
  653MOL0    Cl86108  -0.015   6.355   9.082 -0.0689  0.1693 -0.3602
  653MOL0     C86109   0.355   6.871   9.735 -0.7815 -0.0591 -0.1666
  653MOL0     C86110   0.482   6.857   9.798  0.3375 -0.0668 -1.2282
  653MOL0     O86111   0.583   6.705  10.148  0.3404  1.0834 -0.0362
  653MOL0     C86112   0.856   6.645  10.178  0.7307 -0.1308  0.4845
  653MOL0     C86113   0.981   6.595  10.156  0.1444 -0.0954  0.1576
  653MOL0     N86114   1.508   6.033  10.047  0.8228 -0.0409 -0.2331
  653MOL0     N86115   1.517   5.912  10.094  0.0685  0.1188  0.1126
  653MOL0     C86116   0.565   4.932  10.118  0.1391  1.4751 -0.6715
  653MOL0     C86117   0.464   4.868  10.059  0.3910 -0.5083  0.8186
  653MOL0     C86118   0.184   4.675   9.797  0.2790  0.3900 -0.2505
  653MOL0     C86119   0.177   4.533   9.764 -0.2460 -0.4972 -0.8570
  653MOL0     C86120   0.060   4.470   9.727 -0.4886 -0.4742 -1.0191
  653MOL0     C86121  -0.054   4.537   9.740  0.5409  0.2364 -0.4756
  653MOL0     O86122  -0.161   4.466   9.710  0.0911 -0.0809  0.3132
  653MOL0     C86123  -0.295   4.521   9.724 -0.6676 -0.2558  0.1395
  653MOL0     C86124  -0.340   4.537   9.872  0.6402  0.3097 -0.1491
  653MOL0     C86125  -0.484   4.584   9.890 -0.4763 -0.0145 -0.2666
  653MOL0     C86126  -0.519   4.613  10.035  0.4219 -0.1150  1.1209
  653MOL0     C86127  -0.462   4.722  10.114 -0.6380 -0.3958 -0.1532
  653MOL0     C86128  -0.389   4.794  10.181  0.4788 -0.2784 -0.0351
  653MOL0     C86129  -0.058   4.675   9.767 -0.2429  0.4531 -0.0947
  653MOL0     C86130   0.062   4.747   9.788 -0.1227  0.8061  0.2507
  653MOL0     H86131   0.384   5.090   9.822 -0.5457  1.8696  1.3807
  653MOL0     H86132   0.589   5.206   9.924 -0.0306 -1.6333 -1.3127
  653MOL0     H86133   0.667   5.324  10.093  1.2970  1.5855 -0.5249
  653MOL0     H86134   0.812   5.230  10.034  1.2042  2.6336  0.2875
  653MOL0     H86135   0.915   5.229  10.257  0.8053 -0.3371 -1.8741
  653MOL0     H86136   0.803   5.366  10.299 -1.2152 -1.2315  0.7030
  653MOL0     H86137   0.888   5.480  10.092 -1.2439 -0.1414  1.8874
  653MOL0     H86138   0.993   5.345  10.060  0.8357  1.3526 -0.4786
  653MOL0     H86139   1.014   5.534  10.301  0.7347 -0.4275  0.8869
  653MOL0     H86140   1.136   5.411  10.260 -0.4313  1.2033  2.7657
  653MOL0     H86141   1.057   5.653  10.101 -0.1085  0.5224 -0.6190
  653MOL0     H86142   1.129   5.526  10.018 -0.6524  1.6387 -0.5167
  653MOL0     H86143   1.309   5.657  10.055 -0.3903  2.4638  1.6754
  653MOL0     H86144   1.332   5.529  10.181  0.3316 -0.7340  1.3248
  653MOL0     H86145   1.199   5.796  10.227  0.4604 -0.5996 -4.4233
  653MOL0     H86146   1.239   5.671  10.348  1.0983  2.0807  1.1400
  653MOL0     H86147   1.493   5.715  10.272 -0.8911 -0.9353  1.4906
  653MOL0     H86148   1.411   5.823  10.383  0.6822  0.3802 -0.2858
  653MOL0     H86149   1.271   6.046  10.273  0.9913  1.0976 -0.4825
  653MOL0     H86150   1.261   6.240  10.068 -0.7503 -2.9974 -1.5102
  653MOL0     H86151   1.416   6.243   9.958  2.6077  1.4916  1.4151
  653MOL0     H86152   1.534   6.319  10.153 -0.2229  1.0508  2.4712
  653MOL0     H86153   1.386   6.344  10.241  2.2594 -0.0606  0.1656
  653MOL0     H86154   1.442   6.558  10.157  3.4334 -0.9853 -0.4406
  653MOL0     H86155   1.423   6.494   9.986  3.0640 -2.4696  1.1431
  653MOL0     H86156   1.223   6.508  10.223 -2.1148  2.7578  0.2124
  653MOL0     H86157   1.173   6.437  10.076 -1.4496  1.0746  1.8261
  653MOL0     H86158   1.087   6.799   9.903 -1.2329  1.0841 -1.2958
  653MOL0     H86159   0.861   6.883   9.935  1.2206 -1.6976 -1.2489
  653MOL0     H86160   0.368   6.869  10.118 -2.6301 -2.0060 -1.3951
  653MOL0     H86161   0.175   6.857  10.010 -0.1751 -0.8799 -1.2612
  653MOL0     H86162   0.007   6.909   9.910  0.8867 -3.9106  3.2891
  653MOL0     H86163   0.011   6.741   9.870  1.3617 -1.0749 -1.5866
  653MOL0     H86164  -0.105   6.952   9.706  0.5850  0.4480 -0.7136
  653MOL0     H86165  -0.198   6.833   9.799 -0.4143 -0.1677 -0.2641
  653MOL0     H86166  -0.013   6.783   9.550  2.7278  1.4146  3.3168
  653MOL0     H86167  -0.195   6.769   9.563 -1.4108 -0.7202  1.9406
  653MOL0     H86168  -0.012   6.584   9.706 -1.6225  0.1766  1.3136
  653MOL0     H86169  -0.187   6.572   9.711 -1.2613  0.1608 -0.9645
  653MOL0     H86170  -0.159   6.566   9.447 -0.4150 -0.6398 -0.8433
  653MOL0     H86171  -0.127   6.410   9.526  1.4962 -1.6753  1.3038
  653MOL0     H86172   0.117   6.487   9.535  1.6243 -0.7217 -1.5503
  653MOL0     H86173   0.077   6.607   9.412 -0.4415 -0.0249  1.2336
  653MOL0     H86174   0.152   6.384   9.307  1.3357  1.9973  1.4017
  653MOL0     H86175  -0.002   6.304   9.365  0.0280  0.1154  0.4471
  653MOL0     H86176  -0.017   6.554   9.219 -0.3518  0.0812 -1.2755
  653MOL0     H86177  -0.142   6.423   9.263  1.2987 -1.9423  2.8770
  653MOL0     H86178   0.345   6.870   9.627 -1.4774 -1.5024 -0.1166
  653MOL0     H86179   0.568   6.848   9.733  0.6540  1.4350 -1.0482
  653MOL0     H86180   0.788   6.600  10.250  0.4945  0.5694  0.7024
  653MOL0     H86181   1.014   6.513  10.220 -1.3406 -0.6839  0.2015
  653MOL0     H86182   0.594   4.896  10.216 -4.0724 -2.8622 -0.6808
  653MOL0     H86183   0.411   4.784  10.104 -0.7917  0.1353  0.6672
  653MOL0     H86184   0.267   4.473   9.765  0.0030 -0.3173 -3.9791
  653MOL0     H86185   0.057   4.361   9.724  1.8253 -0.6406  0.3752
  653MOL0     H86186  -0.364   4.457   9.668 -2.9625  1.9215  0.3139
  653MOL0     H86187  -0.296   4.620   9.677 -1.6421 -0.6769 -0.7690
  653MOL0     H86188  -0.323   4.436   9.908 -4.0176 -1.3167 -1.7794
  653MOL0     H86189  -0.273   4.612   9.917  0.4279  2.6664 -3.3969
  653MOL0     H86190  -0.551   4.513   9.840  1.4201 -1.4074 -0.9487
  653MOL0     H86191  -0.495   4.681   9.839 -0.6613  0.2203  0.2143
  653MOL0     H86192  -0.627   4.629  10.026 -0.0708 -1.5758  3.5216
  653MOL0     H86193  -0.512   4.528  10.104 -0.8628  1.5057  3.4012
  653MOL0     H86194  -0.330   4.841  10.258  0.7010 -3.6773  2.1218
  653MOL0     H86195  -0.155   4.722   9.785 -1.5362 -1.2057 -2.2219
  653MOL0     H86196   0.056   4.852   9.814  0.8345  0.9058  0.0777
  654MOL0     O86197   0.691   4.263   1.064  0.0321  0.8072  0.2406
  654MOL0     C86198   0.742   4.377   1.057  0.0604  0.2189  0.8693
  654MOL0     O86199   0.676   4.499   1.024 -0.0462  0.5832  0.3773
  654MOL0     C86200   0.543   4.493   0.994 -0.2165  0.3604 -0.1470
  654MOL0     C86201   0.457   4.565   1.067  0.1256 -0.7742  0.2693
  654MOL0     C86202   0.325   4.568   1.032  0.2587 -0.4191 -0.5696
  654MOL0     C86203   0.271   4.476   0.940 -0.4666 -0.2620 -0.1757
  654MOL0     O86204   0.138   4.481   0.901 -0.4644  0.0183  0.7214
  654MOL0     C86205   0.083   4.362   0.830 -0.4101 -0.4951 -0.6129
  654MOL0     C86206  -0.062   4.391   0.784  0.2619 -0.0271 -0.8065
  654MOL0     C86207  -0.165   4.378   0.905 -0.6674  0.0978  0.7326
  654MOL0     C86208  -0.302   4.430   0.862 -0.7554 -0.8863  1.0144
  654MOL0     C86209  -0.405   4.384   0.968  0.2292 -0.4707  0.0711
  654MOL0     C86210  -0.549   4.408   0.915 -0.7064  0.5858 -0.6226
  654MOL0     C86211  -0.650   4.348   1.022  0.4546 -0.3792  0.0022
  654MOL0     C86212  -0.807   4.357   1.000 -0.9643  0.4965  0.0781
  654MOL0     N86213  -0.838   4.375   0.862 -0.0131  0.3174 -0.7650
  654MOL0     C86214  -0.839   4.273   0.772  0.0339 -0.0374 -0.4362
  654MOL0     C86215  -0.871   4.333   0.655 -0.0869  0.2169  0.3463
  654MOL0     C86216  -0.897   4.262   0.526 -0.1482  1.0903 -0.2710
  654MOL0     C86217  -0.781   4.271   0.427  1.1102 -0.0433  0.1032
  654MOL0     C86218  -0.733   4.416   0.394 -0.1000  0.1242 -1.1449
  654MOL0     C86219  -0.648   4.416   0.266 -0.0938  0.6683 -0.7139
  654MOL0     O86220  -0.546   4.306   0.252  1.3288  0.5069  0.2607
  654MOL0     C86221  -0.423   4.308   0.309  0.1532 -0.3453  0.6861
  654MOL0     C86222  -0.385   4.411   0.396  0.4802 -0.1511 -0.1762
  654MOL0     C86223  -0.255   4.414   0.442 -0.0705 -0.0979  0.0700
  654MOL0     C86224  -0.163   4.314   0.400 -0.3158  0.2391  0.2419
  654MOL0     C86225  -0.016   4.317   0.431  0.5226  0.2213 -0.1474
  654MOL0     O86226   0.063   4.205   0.389  0.0313 -0.1283  0.3878
  654MOL0     C86227   0.197   4.217   0.359  0.1586  0.4330  0.6578
  654MOL0     C86228   0.254   4.091   0.321  0.2710 -1.1610 -0.0329
  654MOL0     C86229   0.386   4.086   0.271  1.0385 -0.4757 -0.7888
  654MOL0     C86230   0.465   4.199   0.289  0.2377 -0.2080  0.2854
  654MOL0     O86231   0.592   4.186   0.244 -0.3669 -0.1749  0.0190
  654MOL0     C86232   0.687   4.125   0.334  0.4600  0.0761  0.4280
  654MOL0     C86233   0.754   4.226   0.429 -0.4181  0.6214 -0.0347
  654MOL0     C86234   0.843   4.155   0.532  0.4045  0.4628 -1.0063
  654MOL0     C86235   0.890   4.253   0.639 -0.2415  0.2031 -0.5696
  654MOL0     C86236   0.986   4.185   0.734  0.6236 -0.7227 -0.6419
  654MOL0     C86237   0.933   4.087   0.833 -0.4498  1.4921 -0.3173
  654MOL0     C86238   1.036   4.066   0.942  0.0949 -0.3642 -0.8058
  654MOL0     C86239   1.001   3.956   1.026 -0.6792  0.0297  0.6155
  654MOL0    Cl86240   1.142   3.890   1.117 -0.4248  0.3196 -0.0529
  654MOL0     C86241   0.419   4.323   0.328  0.1683  0.0410 -0.4649
  654MOL0     C86242   0.282   4.335   0.353  0.9531 -0.5404  0.3734
  654MOL0     O86243   0.031   4.419   0.497  0.3605  0.4079 -0.8612
  654MOL0     C86244  -0.207   4.210   0.312 -0.3469 -0.7860 -0.0438
  654MOL0     C86245  -0.341   4.202   0.275 -0.6759 -0.1345  1.5236
  654MOL0     N86246  -0.878   4.469   0.669  0.4266 -0.5907  0.2798
  654MOL0     N86247  -0.867   4.491   0.798  0.0168  0.2832 -0.3190
  654MOL0     C86248   0.360   4.393   0.872  0.3633  0.3429  0.2897
  654MOL0     C86249   0.496   4.398   0.895 -0.2531  0.5394  0.7486
  654MOL0     C86250   0.879   4.387   1.111  0.2163 -0.5747  0.9865
  654MOL0     C86251   0.915   4.294   1.204  0.1401 -0.0697 -0.2581
  654MOL0     C86252   1.042   4.291   1.265  0.7153 -0.1698 -0.2461
  654MOL0     C86253   1.145   4.376   1.216 -0.3008 -0.3690  0.3734
  654MOL0     O86254   1.267   4.376   1.283  0.0057 -0.0087  1.0331
  654MOL0     C86255   1.361   4.467   1.230 -0.6687  0.1995 -0.8324
  654MOL0     C86256   1.496   4.442   1.305  0.3336 -0.1052 -0.2137
  654MOL0     C86257   1.594   4.557   1.258  0.1821  0.2885  0.2220
  654MOL0     C86258   1.722   4.569   1.339 -0.6975 -0.3462 -0.3519
  654MOL0     C86259   1.822   4.670   1.294 -0.2218 -0.6999 -0.7674
  654MOL0     C86260   1.910   4.745   1.255 -0.6338 -0.5818  0.4494
  654MOL0     C86261   1.116   4.456   1.110  0.4516  0.3399 -0.0959
  654MOL0     C86262   0.980   4.473   1.062  0.1748 -0.1724 -0.1354
  654MOL0     H86263   0.491   4.642   1.136 -1.1298  0.6390 -0.6394
  654MOL0     H86264   0.263   4.637   1.089  1.8298 -0.5637  1.4466
  654MOL0     H86265   0.084   4.282   0.903 -0.3670 -0.4605 -0.5762
  654MOL0     H86266   0.146   4.335   0.745  3.0422 -0.4911  1.7774
  654MOL0     H86267  -0.093   4.317   0.710  0.4240 -0.5290 -0.3792
  654MOL0     H86268  -0.064   4.492   0.743 -0.7517 -0.4012 -1.7379
  654MOL0     H86269  -0.127   4.440   0.987 -0.1843  3.2389 -1.6764
  654MOL0     H86270  -0.168   4.269   0.921 -0.2859 -0.2339 -1.1952
  654MOL0     H86271  -0.292   4.534   0.831  2.8003 -1.3631  0.0679
  654MOL0     H86272  -0.323   4.366   0.775  3.7404 -1.0954 -0.1795
  654MOL0     H86273  -0.386   4.446   1.057  0.7944  2.1539 -1.7499
  654MOL0     H86274  -0.385   4.278   0.985  0.6756 -1.0712 -3.4129
  654MOL0     H86275  -0.558   4.357   0.818 -3.0200  1.8900 -1.1566
  654MOL0     H86276  -0.569   4.514   0.900  0.0875  0.9572  0.8650
  654MOL0     H86277  -0.633   4.243   1.049  0.8221 -0.8288 -1.8277
  654MOL0     H86278  -0.618   4.397   1.115  1.0759 -0.2297 -0.2834
  654MOL0     H86279  -0.833   4.450   1.051  0.0821 -0.6289  2.8820
  654MOL0     H86280  -0.849   4.270   1.050  1.2905 -2.3503 -2.5539
  654MOL0     H86281  -0.826   4.167   0.792 -2.2582  0.1917  3.0861
  654MOL0     H86282  -0.984   4.308   0.478 -0.5945 -0.9263 -1.4857
  654MOL0     H86283  -0.905   4.154   0.534  0.6663  0.8078 -2.5209
  654MOL0     H86284  -0.804   4.214   0.336  1.0079 -0.2816  0.2790
  654MOL0     H86285  -0.695   4.220   0.471 -0.2870 -1.7030  0.9952
  654MOL0     H86286  -0.817   4.481   0.370  0.0400 -0.4519 -3.4350
  654MOL0     H86287  -0.670   4.454   0.475 -1.5549 -1.8383  1.0555
  654MOL0     H86288  -0.605   4.515   0.254 -0.6818  1.1969  1.2296
  654MOL0     H86289  -0.721   4.417   0.184 -2.4773  1.9123  1.2889
  654MOL0     H86290  -0.443   4.492   0.439  1.4763 -0.4641  1.8810
  654MOL0     H86291  -0.215   4.501   0.492  0.7717 -0.3055 -0.2247
  654MOL0     H86292   0.196   4.000   0.328 -3.5905  1.1835  3.6077
  654MOL0     H86293   0.418   3.988   0.239  0.4755 -0.8082 -0.3402
  654MOL0     H86294   0.754   4.082   0.260  0.3929 -0.2002  0.5261
  654MOL0     H86295   0.644   4.043   0.392 -0.2453  2.0551  2.9225
  654MOL0     H86296   0.677   4.263   0.497  0.3688 -0.0005  1.2504
  654MOL0     H86297   0.801   4.307   0.372 -2.1161 -0.2116 -2.7849
  654MOL0     H86298   0.934   4.109   0.491  1.7195  2.4044 -0.3938
  654MOL0     H86299   0.790   4.066   0.567  1.2075 -0.3176 -1.7182
  654MOL0     H86300   0.939   4.343   0.600  0.0047  0.5797  0.5597
  654MOL0     H86301   0.805   4.277   0.704  2.3408 -0.9368  3.5826
  654MOL0     H86302   1.008   4.273   0.795  0.1748  0.3388 -1.9443
  654MOL0     H86303   1.076   4.150   0.683  1.3210 -1.9971  1.3609
  654MOL0     H86304   0.905   3.990   0.791 -2.5825  1.7935  0.2503
  654MOL0     H86305   0.836   4.113   0.877 -0.1855 -1.2041  2.1044
  654MOL0     H86306   1.134   4.043   0.901  0.6636  2.0217 -0.9148
  654MOL0     H86307   1.046   4.152   1.009  3.1352 -2.8694  2.3388
  654MOL0     H86308   0.982   3.880   0.950 -0.0385  0.9993 -0.5531
  654MOL0     H86309   0.920   3.969   1.098  2.4266 -1.2134  4.7566
  654MOL0     H86310   0.484   4.410   0.331  1.1874 -0.7163 -0.0333
  654MOL0     H86311   0.247   4.433   0.384  3.0209 -0.1906  1.8037
  654MOL0     H86312  -0.146   4.129   0.272 -1.4853 -2.3770  1.2785
  654MOL0     H86313  -0.368   4.120   0.209  3.7096 -0.7285  0.1710
  654MOL0     H86314   0.340   4.330   0.786  1.5907 -1.7717  1.4751
  654MOL0     H86315   0.569   4.331   0.851 -1.4590 -0.8397  0.7614
  654MOL0     H86316   0.839   4.236   1.256 -3.1200  2.5511 -1.7370
  654MOL0     H86317   1.052   4.219   1.345 -1.2758 -2.2012 -1.6782
  654MOL0     H86318   1.339   4.574   1.227  1.0740  0.6895  1.3156
  654MOL0     H86319   1.375   4.433   1.127 -1.1678 -1.5781 -0.3647
  654MOL0     H86320   1.478   4.447   1.413  1.2019 -0.6362 -0.0337
  654MOL0     H86321   1.549   4.349   1.283  0.5518  0.2670 -1.3396
  654MOL0     H86322   1.550   4.656   1.267  1.6242  0.9606  0.1066
  654MOL0     H86323   1.620   4.533   1.155 -1.0776 -0.8356  0.1362
  654MOL0     H86324   1.697   4.578   1.446  2.7345  1.8700  0.4273
  654MOL0     H86325   1.781   4.477   1.334  2.7943  1.5041  2.4810
  654MOL0     H86326   1.997   4.802   1.230 -1.8983  0.5931 -1.5545
  654MOL0     H86327   1.192   4.514   1.060  2.2031  0.0468  2.1040
  654MOL0     H86328   0.972   4.553   0.989  0.2061  2.8737  2.9135
  655MOL0     O86329   4.954   8.699   3.045 -0.2145  0.1669 -0.7542
  655MOL0     C86330   4.868   8.692   2.953  0.0007  0.9455  0.1118
  655MOL0     O86331   4.886   8.624   2.837 -0.4038  0.2902  0.8258
  655MOL0     C86332   5.013   8.562   2.809 -0.7738  0.3984  0.1909
  655MOL0     C86333   5.112   8.524   2.907 -1.0174 -0.7110  0.8539
  655MOL0     C86334   5.227   8.458   2.863  0.4038 -0.8238 -0.6174
  655MOL0     C86335   5.239   8.407   2.726  0.5995 -0.3802 -0.4857
  655MOL0     O86336   5.329   8.317   2.690 -0.6748  0.0592  0.3156
  655MOL0     C86337   5.461   8.335   2.743  0.1018  0.3280  0.5523
  655MOL0     C86338   5.565   8.231   2.668 -0.4235  0.2854 -0.1729
  655MOL0     C86339   5.703   8.239   2.737  0.0297 -0.6826  0.4371
  655MOL0     C86340   5.803   8.123   2.692 -0.1645 -0.0026 -0.0731
  655MOL0     C86341   5.937   8.161   2.722 -0.7581 -0.6521 -0.2297
  655MOL0     C86342   6.038   8.055   2.649 -0.6119 -0.3720 -0.3124
  655MOL0     C86343   6.165   8.033   2.735 -0.3934 -0.7891  0.3678
  655MOL0     C86344   6.259   7.935   2.675 -0.9242 -0.5005  0.1301
  655MOL0     N86345   6.329   7.984   2.555  0.8436  0.5089 -0.2272
  655MOL0     C86346   6.285   7.952   2.429 -0.4529  0.2784  1.0803
  655MOL0     C86347   6.373   8.003   2.344  0.1708 -0.0752  0.8457
  655MOL0     C86348   6.374   7.995   2.193  0.2065 -0.1814  0.1092
  655MOL0     C86349   6.283   8.090   2.114 -0.1133  0.2878 -0.2227
  655MOL0     C86350   6.280   8.227   2.178 -0.7377 -0.4275 -1.3446
  655MOL0     C86351   6.238   8.330   2.079 -0.4187 -0.4779 -0.2263
  655MOL0     O86352   6.247   8.462   2.142 -0.2301  0.0148 -0.0820
  655MOL0     C86353   6.185   8.568   2.077 -0.6358 -0.9193 -0.3103
  655MOL0     C86354   6.130   8.565   1.948  0.0421 -0.4123 -0.1451
  655MOL0     C86355   6.073   8.675   1.893  0.2742 -0.2120  0.0662
  655MOL0     C86356   6.054   8.785   1.976  0.2049 -0.4088  0.3532
  655MOL0     C86357   5.976   8.895   1.927 -0.2321 -0.8827  0.6036
  655MOL0     O86358   5.882   8.873   1.823 -0.6815 -0.9164  0.2442
  655MOL0     C86359   5.792   8.980   1.793 -0.3566  0.2634  0.1566
  655MOL0     C86360   5.836   9.104   1.740 -0.6507 -0.1367  0.5551
  655MOL0     C86361   5.741   9.209   1.715 -0.9272 -0.1588 -0.0108
  655MOL0     C86362   5.607   9.193   1.759 -0.8750  0.5390  0.6375
  655MOL0     O86363   5.511   9.287   1.741 -0.3518 -0.6903 -0.4208
  655MOL0     C86364   5.532   9.428   1.775 -0.3093  0.8448  0.3604
  655MOL0     C86365   5.412   9.492   1.738  0.4140 -0.0707 -0.6886
  655MOL0     C86366   5.430   9.647   1.727 -1.2320  0.3301  0.0424
  655MOL0     C86367   5.396   9.720   1.851  0.5753 -1.1928 -0.6712
  655MOL0     C86368   5.367   9.870   1.825 -0.8272  0.2972  0.5070
  655MOL0     C86369   5.502   9.941   1.787 -0.5439 -0.2636 -0.4535
  655MOL0     C86370   5.478  10.086   1.817  0.9422  0.3983  0.2163
  655MOL0     C86371   5.476  10.143   1.955  0.1254 -0.3913 -0.2911
  655MOL0    Cl86372   5.455  10.323   1.949  0.1261 -0.2592  0.3686
  655MOL0     C86373   5.567   9.070   1.810 -0.8141 -0.1667 -0.8305
  655MOL0     C86374   5.658   8.965   1.829 -0.0452 -0.7498  0.0499
  655MOL0     O86375   5.979   8.995   1.996  0.3575  0.2048 -1.2179
  655MOL0     C86376   6.127   8.791   2.092 -0.4293 -0.1614 -0.2273
  655MOL0     C86377   6.194   8.680   2.145  1.2602 -1.2863 -0.5941
  655MOL0     N86378   6.470   8.065   2.427 -0.6789 -0.1156 -0.0087
  655MOL0     N86379   6.448   8.051   2.555 -0.2060  0.4881 -0.5710
  655MOL0     C86380   5.140   8.448   2.640  0.6306 -0.5940 -0.1218
  655MOL0     C86381   5.033   8.529   2.675 -0.0771 -0.2459  1.0760
  655MOL0     C86382   4.719   8.734   2.962 -0.4843  0.7740 -0.7012
  655MOL0     C86383   4.645   8.756   2.851  0.2992  0.9257  0.1010
  655MOL0     C86384   4.503   8.786   2.860 -0.8508  0.2422  0.8613
  655MOL0     C86385   4.446   8.802   2.993 -0.5190  0.1113 -1.0172
  655MOL0     O86386   4.323   8.858   3.001 -0.5084 -0.1988 -0.2379
  655MOL0     C86387   4.214   8.771   3.040 -0.4464 -0.3920  0.8447
  655MOL0     C86388   4.093   8.848   3.069 -0.3216  0.0834 -0.5564
  655MOL0     C86389   4.093   8.895   3.217 -0.3107  0.6618 -0.0518
  655MOL0     C86390   3.952   8.953   3.247 -0.5066 -0.2708  0.0369
  655MOL0     C86391   3.948   9.015   3.373 -0.2583 -0.1713 -0.3407
  655MOL0     C86392   3.942   9.068   3.487  0.1448  0.0513  1.2735
  655MOL0     C86393   4.521   8.772   3.107 -0.4460  1.1070  0.1750
  655MOL0     C86394   4.653   8.726   3.087 -0.9294 -0.4576 -0.6852
  655MOL0     H86395   5.095   8.532   3.014  0.1962 -3.0410  1.3006
  655MOL0     H86396   5.303   8.424   2.932  0.4107 -0.5378 -0.4840
  655MOL0     H86397   5.460   8.312   2.850 -1.1245  1.0869  0.7140
  655MOL0     H86398   5.497   8.436   2.721 -0.2383  0.2390 -0.4790
  655MOL0     H86399   5.575   8.252   2.561  1.5553 -1.1391 -0.3369
  655MOL0     H86400   5.532   8.127   2.661 -1.3477  0.5645 -0.0100
  655MOL0     H86401   5.686   8.218   2.843 -2.2865 -1.2467  0.0115
  655MOL0     H86402   5.750   8.337   2.720 -0.8243 -0.0411  1.6151
  655MOL0     H86403   5.765   8.029   2.734 -0.3504 -0.2165 -0.7021
  655MOL0     H86404   5.798   8.104   2.584 -0.0148 -0.5623  0.0150
  655MOL0     H86405   5.952   8.157   2.831 -0.6737  1.2327 -0.1260
  655MOL0     H86406   5.967   8.260   2.686 -0.1167 -1.3845 -1.7795
  655MOL0     H86407   6.055   8.095   2.548  0.6096  1.4919  0.5890
  655MOL0     H86408   5.993   7.955   2.645 -2.0676  0.2615 -0.7361
  655MOL0     H86409   6.209   8.132   2.751 -2.8215  0.3018  0.8566
  655MOL0     H86410   6.126   8.011   2.835 -2.1941 -1.2249 -0.3826
  655MOL0     H86411   6.209   7.842   2.647  1.7523 -2.0095  0.0267
  655MOL0     H86412   6.333   7.907   2.751  0.6579 -0.1185 -1.2002
  655MOL0     H86413   6.189   7.904   2.411 -0.3883  0.6863 -0.4576
  655MOL0     H86414   6.353   7.895   2.155 -1.9497  0.5671 -0.8040
  655MOL0     H86415   6.473   8.021   2.155 -0.0572  1.3265  0.3851
  655MOL0     H86416   6.185   8.043   2.119  0.3335 -0.4871  2.2557
  655MOL0     H86417   6.307   8.097   2.007 -0.7703  4.9123 -0.2916
  655MOL0     H86418   6.212   8.216   2.263  0.7413 -1.6020 -0.2659
  655MOL0     H86419   6.385   8.238   2.205 -0.8991 -1.8717  0.0078
  655MOL0     H86420   6.132   8.322   2.054 -0.3791 -0.8264 -0.2860
  655MOL0     H86421   6.299   8.322   1.988  0.3962  0.2664  0.2419
  655MOL0     H86422   6.130   8.476   1.885  0.4620  1.5661 -3.1687
  655MOL0     H86423   6.020   8.673   1.798  2.3849 -1.0863 -1.1999
  655MOL0     H86424   5.941   9.104   1.715 -0.3678 -1.4774  1.5868
  655MOL0     H86425   5.783   9.303   1.680 -0.2369 -0.9288 -1.3419
  655MOL0     H86426   5.618   9.464   1.719  1.0690  0.6810  2.2521
  655MOL0     H86427   5.558   9.442   1.881  1.7775  0.3303 -0.0409
  655MOL0     H86428   5.335   9.457   1.808 -0.8920 -0.1394 -2.1135
  655MOL0     H86429   5.386   9.450   1.641 -0.5711 -0.1307 -0.4122
  655MOL0     H86430   5.372   9.688   1.644  1.0954  1.7750 -0.9756
  655MOL0     H86431   5.533   9.666   1.698 -1.3056  0.3378 -0.2108
  655MOL0     H86432   5.300   9.675   1.880  1.0843 -1.9405 -0.1212
  655MOL0     H86433   5.470   9.695   1.927 -1.3959 -0.7173  1.4979
  655MOL0     H86434   5.330   9.909   1.921 -1.8569 -0.4469  0.4289
  655MOL0     H86435   5.289   9.883   1.749 -3.1192  3.6437  3.1156
  655MOL0     H86436   5.542   9.929   1.686  0.6874 -1.9361  0.1908
  655MOL0     H86437   5.582   9.912   1.856 -0.3228 -2.6533 -1.6084
  655MOL0     H86438   5.553  10.143   1.762 -0.3306  1.1519 -0.7907
  655MOL0     H86439   5.380  10.115   1.778  1.1644  1.9958  0.7635
  655MOL0     H86440   5.568  10.120   2.010 -1.5422 -1.6205  2.1631
  655MOL0     H86441   5.387  10.103   2.005 -0.2373 -1.2071 -1.5491
  655MOL0     H86442   5.463   9.069   1.841 -1.1394 -1.3777 -1.8629
  655MOL0     H86443   5.647   8.870   1.881  0.5165 -0.7826  0.1223
  655MOL0     H86444   6.123   8.882   2.151  3.0036 -0.2226  0.2968
  655MOL0     H86445   6.254   8.696   2.234 -1.4824  0.4502  1.0773
  655MOL0     H86446   5.142   8.406   2.540 -1.1001 -1.8562  0.3273
  655MOL0     H86447   4.964   8.564   2.599 -1.2356  0.8116  2.5556
  655MOL0     H86448   4.694   8.752   2.754 -0.2222 -1.2362 -0.1351
  655MOL0     H86449   4.436   8.812   2.778  0.8204  2.8930  0.1866
  655MOL0     H86450   4.244   8.698   3.116 -1.6654 -2.6105 -0.6867
  655MOL0     H86451   4.184   8.729   2.943 -2.8201  3.7361 -0.4653
  655MOL0     H86452   4.061   8.919   2.992 -0.5124 -0.2625 -0.7977
  655MOL0     H86453   4.009   8.778   3.081 -2.4294  2.6616  0.7924
  655MOL0     H86454   4.165   8.977   3.222  1.9256 -1.2072  0.4689
  655MOL0     H86455   4.119   8.815   3.288  0.4014  0.8210 -0.1201
  655MOL0     H86456   3.910   9.021   3.172 -3.7324 -1.1500  0.8570
  655MOL0     H86457   3.882   8.869   3.248 -0.8881  0.0419  0.0615
  655MOL0     H86458   3.939   9.108   3.586 -4.0974 -1.5937  2.0245
  655MOL0     H86459   4.478   8.785   3.206 -0.4114  1.6801  0.1194
  655MOL0     H86460   4.703   8.715   3.183 -2.5552  1.9827  0.5481
  656MOL0     O86461   9.062   3.151   9.461  0.3492 -0.6114 -0.2425
  656MOL0     C86462   9.003   3.053   9.507  0.6180  0.0198  0.0518
  656MOL0     O86463   9.071   2.941   9.567  0.0649 -0.0151 -0.6229
  656MOL0     C86464   9.204   2.937   9.569  0.5286  0.8968 -0.8021
  656MOL0     C86465   9.273   2.831   9.509 -0.0032 -1.0108 -0.2432
  656MOL0     C86466   9.406   2.817   9.523 -0.1674 -0.2108 -0.2329
  656MOL0     C86467   9.489   2.913   9.590  0.2997  0.2594 -0.1460
  656MOL0     O86468   9.625   2.907   9.568  0.1311  0.1838  0.1770
  656MOL0     C86469   9.695   2.889   9.691  0.4944 -0.5748 -1.2359
  656MOL0     C86470   9.828   2.830   9.647  0.5106 -0.1005  0.0390
  656MOL0     C86471   9.813   2.681   9.600  0.4550 -1.0501 -0.4478
  656MOL0     C86472   9.953   2.620   9.586  1.2760 -0.9740  0.0873
  656MOL0     C86473   9.953   2.482   9.519 -0.4756 -0.1521  0.5068
  656MOL0     C86474  10.098   2.420   9.518  0.0633 -0.3062 -0.2242
  656MOL0     C86475  10.180   2.459   9.392  0.3074 -0.4726 -0.4129
  656MOL0     C86476  10.325   2.410   9.418  0.1465 -0.1545  0.8300
  656MOL0     N86477  10.388   2.490   9.518 -0.2769  0.4326  0.4343
  656MOL0     C86478  10.422   2.625   9.523  0.6831  1.0457  0.4517
  656MOL0     C86479  10.498   2.649   9.628 -0.0418  0.3900 -0.4335
  656MOL0     C86480  10.558   2.777   9.684  0.8935  0.2672 -0.8586
  656MOL0     C86481  10.677   2.822   9.599  0.1353  0.5290 -0.3376
  656MOL0     C86482  10.795   2.757   9.653  0.8618 -0.1203 -0.3756
  656MOL0     C86483  10.905   2.805   9.558 -0.0630 -1.0155  1.0486
  656MOL0     O86484  11.013   2.708   9.555 -0.4256 -1.0129  1.0912
  656MOL0     C86485  11.131   2.755   9.483 -0.0376  0.4944 -0.9787
  656MOL0     C86486  11.242   2.673   9.509  0.1822  0.0055 -0.0822
  656MOL0     C86487  11.367   2.707   9.449  0.2446  0.2593 -0.3669
  656MOL0     C86488  11.375   2.811   9.349 -0.1599 -0.5292  0.1814
  656MOL0     C86489  11.496   2.837   9.268  0.0599 -0.5654  0.4780
  656MOL0     O86490  11.492   2.953   9.190 -0.3927  0.2927 -0.6732
  656MOL0     C86491  11.586   2.970   9.092 -1.1447  0.0295 -1.4052
  656MOL0     C86492  11.638   3.094   9.090  1.2112  0.6803 -0.2143
  656MOL0     C86493  11.752   3.130   9.019  1.0553 -0.0970  0.5727
  656MOL0     C86494  11.817   3.025   8.943 -0.7808  0.6417  0.2136
  656MOL0     O86495  11.941   3.031   8.880 -0.1618 -0.3908 -0.3489
  656MOL0     C86496  12.040   2.935   8.922  0.0131 -0.1022  0.2572
  656MOL0     C86497  12.112   2.866   8.802 -0.2531 -0.6109 -0.0149
  656MOL0     C86498  12.039   2.746   8.742 -0.1787 -0.2859  0.0812
  656MOL0     C86499  12.090   2.712   8.599 -0.1125 -0.8480  0.1016
  656MOL0     C86500  12.007   2.598   8.543 -0.4990  0.1618  0.7728
  656MOL0     C86501  12.011   2.475   8.619 -0.7427 -0.2532 -0.3849
  656MOL0     C86502  11.931   2.354   8.564  0.0448 -0.8845 -0.2375
  656MOL0     C86503  11.933   2.225   8.657 -1.3451 -0.0110  0.1026
  656MOL0    Cl86504  11.846   2.264   8.817  0.2297 -0.1842  0.2097
  656MOL0     C86505  11.749   2.901   8.932  0.2735  0.5370  0.3712
  656MOL0     C86506  11.627   2.869   8.996  0.7021 -0.0020 -0.5064
  656MOL0     O86507  11.586   2.760   9.280  0.0834  0.1669  0.9044
  656MOL0     C86508  11.262   2.895   9.335 -0.0338 -0.0120  0.7063
  656MOL0     C86509  11.144   2.869   9.404 -0.0377  0.2680  0.8133
  656MOL0     N86510  10.514   2.522   9.684 -0.8050  0.2931 -0.2816
  656MOL0     N86511  10.444   2.436   9.625 -0.4334  0.1685  0.8833
  656MOL0     C86512   9.427   3.023   9.641 -0.3839  0.4170 -0.1356
  656MOL0     C86513   9.288   3.037   9.620  1.0478  0.2176 -0.1749
  656MOL0     C86514   8.855   3.050   9.511 -0.0254  0.4526 -0.2552
  656MOL0     C86515   8.774   3.161   9.483  0.7662  0.9734 -0.5140
  656MOL0     C86516   8.640   3.144   9.480  0.0253 -0.2462 -0.3754
  656MOL0     C86517   8.574   3.022   9.493 -0.4280  0.2192 -0.5895
  656MOL0     O86518   8.433   2.998   9.503 -0.1840 -0.7464  0.3162
  656MOL0     C86519   8.328   3.098   9.494  0.8155  0.0498 -0.5546
  656MOL0     C86520   8.195   3.040   9.562  0.3915 -0.3311  0.0600
  656MOL0     C86521   8.067   3.132   9.554  0.0793  0.4457  0.0261
  656MOL0     C86522   7.941   3.051   9.503 -0.8872 -0.0083 -0.2760
  656MOL0     C86523   7.936   3.068   9.358  1.1246  0.0184 -0.2670
  656MOL0     C86524   7.925   3.079   9.240  0.1669 -0.5356 -0.3674
  656MOL0     C86525   8.658   2.905   9.512 -0.2237 -0.9992 -0.4569
  656MOL0     C86526   8.794   2.921   9.528 -0.6333  0.1094  0.7603
  656MOL0     H86527   9.215   2.765   9.446 -4.3977  2.0800  0.0417
  656MOL0     H86528   9.462   2.746   9.464  1.0334  0.9478 -0.5385
  656MOL0     H86529   9.642   2.822   9.758  2.7027 -1.2993 -0.1253
  656MOL0     H86530   9.727   2.980   9.743  1.4309 -1.1638 -0.7546
  656MOL0     H86531   9.903   2.833   9.726  0.0118  1.2862  0.4823
  656MOL0     H86532   9.878   2.894   9.574  0.3927  0.5904  0.5576
  656MOL0     H86533   9.755   2.686   9.507  0.1820  1.5450 -0.2212
  656MOL0     H86534   9.754   2.624   9.672 -1.8983 -0.8263 -2.0521
  656MOL0     H86535  10.012   2.684   9.520 -0.6088 -0.8422 -1.5620
  656MOL0     H86536   9.991   2.616   9.689  0.9744  0.3622  0.2683
  656MOL0     H86537   9.922   2.489   9.415  1.5436 -0.7555 -0.1900
  656MOL0     H86538   9.874   2.419   9.563 -2.2937  1.7066  0.0391
  656MOL0     H86539  10.090   2.311   9.519 -1.6809 -0.2149 -0.7191
  656MOL0     H86540  10.148   2.441   9.612  0.4326 -2.5354  0.1324
  656MOL0     H86541  10.145   2.407   9.303  3.3619 -3.0360 -0.2740
  656MOL0     H86542  10.168   2.568   9.394 -1.4113 -0.6332  0.9330
  656MOL0     H86543  10.391   2.418   9.331 -1.5654  1.5208 -0.4089
  656MOL0     H86544  10.330   2.308   9.457 -0.5626 -0.9626 -1.0630
  656MOL0     H86545  10.373   2.696   9.457 -1.4383 -2.2136 -1.7453
  656MOL0     H86546  10.573   2.779   9.792 -3.6040 -0.1204 -0.0464
  656MOL0     H86547  10.477   2.850   9.688  0.6901  0.0036  0.5992
  656MOL0     H86548  10.689   2.930   9.613 -2.1931  0.9245 -0.9513
  656MOL0     H86549  10.655   2.801   9.494 -0.9397  1.3520 -0.2874
  656MOL0     H86550  10.813   2.798   9.753 -0.1557  0.2761 -0.3457
  656MOL0     H86551  10.781   2.650   9.670 -1.3086  0.4015  1.6006
  656MOL0     H86552  10.944   2.906   9.578 -0.8824 -0.8102  1.6715
  656MOL0     H86553  10.865   2.820   9.457  2.0174 -0.7920  0.2026
  656MOL0     H86554  11.234   2.588   9.575  2.1261  1.4231  2.1586
  656MOL0     H86555  11.461   2.660   9.477 -0.2547 -3.1376 -3.5981
  656MOL0     H86556  11.581   3.163   9.150  0.3851 -1.1222  1.1728
  656MOL0     H86557  11.783   3.234   9.017 -0.2195  0.3290  1.5931
  656MOL0     H86558  12.018   2.858   8.996  3.6324  0.1734  1.8434
  656MOL0     H86559  12.110   2.995   8.981 -1.0666  0.6553  0.8096
  656MOL0     H86560  12.209   2.832   8.838 -1.7307 -2.2449  2.6748
  656MOL0     H86561  12.117   2.949   8.730 -1.0532  0.0010  0.6162
  656MOL0     H86562  11.932   2.767   8.736  0.4482  2.9179 -1.5651
  656MOL0     H86563  12.063   2.670   8.817  0.6417 -0.4784 -0.3591
  656MOL0     H86564  12.059   2.797   8.538  1.1758 -0.4581 -0.0247
  656MOL0     H86565  12.199   2.710   8.602  0.2374  4.0288  3.3610
  656MOL0     H86566  12.042   2.571   8.443 -3.3832  1.0393 -0.5746
  656MOL0     H86567  11.905   2.633   8.522 -1.0602  0.8230  4.0307
  656MOL0     H86568  11.975   2.495   8.721  1.6591  0.0484  0.4766
  656MOL0     H86569  12.116   2.444   8.629 -0.3857 -0.3024 -3.3841
  656MOL0     H86570  11.824   2.376   8.556  0.5654  1.6589 -1.2977
  656MOL0     H86571  11.962   2.332   8.462  3.4943  3.2505 -0.3861
  656MOL0     H86572  12.038   2.205   8.676 -0.3987  1.7865 -2.6310
  656MOL0     H86573  11.886   2.143   8.601 -0.8625 -0.2207  0.0028
  656MOL0     H86574  11.803   2.821   8.881 -1.2260 -0.5468  0.4076
  656MOL0     H86575  11.584   2.769   9.003 -0.2210  0.4858  1.9405
  656MOL0     H86576  11.265   2.979   9.267 -0.3035  1.1919  2.1358
  656MOL0     H86577  11.058   2.933   9.389  0.9534  1.6323  0.7875
  656MOL0     H86578   9.495   3.082   9.702 -3.5513 -0.8429  5.3447
  656MOL0     H86579   9.233   3.122   9.659  0.0984  0.2258 -1.4740
  656MOL0     H86580   8.817   3.261   9.478  1.1852  0.8829  0.9045
  656MOL0     H86581   8.591   3.239   9.459  0.0756 -0.3484 -0.9837
  656MOL0     H86582   8.320   3.122   9.388  2.0608 -1.1270 -0.9392
  656MOL0     H86583   8.351   3.186   9.555 -1.6305 -1.5110  3.0088
  656MOL0     H86584   8.173   2.941   9.521 -1.8462  1.2906 -3.0416
  656MOL0     H86585   8.218   3.028   9.668  0.0682  0.4234  0.2248
  656MOL0     H86586   8.075   3.225   9.497  0.4526  0.0758 -0.5213
  656MOL0     H86587   8.044   3.157   9.659 -1.6505 -1.7764  0.2576
  656MOL0     H86588   7.960   2.948   9.530  1.3350  0.8652  1.7597
  656MOL0     H86589   7.852   3.097   9.548  0.6854  2.5493  0.4059
  656MOL0     H86590   7.907   3.083   9.134 -0.4933  0.7648 -0.2279
  656MOL0     H86591   8.612   2.807   9.525 -1.6245 -0.6818 -2.5166
  656MOL0     H86592   8.860   2.838   9.553 -1.3012  0.1325  2.7710
  657MOL0     O86593   2.302  10.506   4.627 -0.0385  0.1965  0.1364
  657MOL0     C86594   2.244  10.441   4.537  0.2801  0.5854 -0.2215
  657MOL0     O86595   2.106  10.415   4.534  0.0786 -0.8089  0.5810
  657MOL0     C86596   2.029  10.451   4.637 -0.2642  0.1990  0.0632
  657MOL0     C86597   2.013  10.344   4.730  0.1883  0.2065  0.0404
  657MOL0     C86598   1.918  10.362   4.835  0.2063  0.4440  0.0373
  657MOL0     C86599   1.842  10.478   4.845 -0.7728 -0.2579 -0.9152
  657MOL0     O86600   1.742  10.462   4.936  0.1991 -0.5072 -0.3088
  657MOL0     C86601   1.646  10.571   4.957  0.1668 -0.2295  0.3116
  657MOL0     C86602   1.689  10.638   5.084  0.1418  0.0875  0.1128
  657MOL0     C86603   1.596  10.756   5.103 -0.3597  0.1348 -0.6070
  657MOL0     C86604   1.649  10.869   5.201  0.0753  0.5026  0.4022
  657MOL0     C86605   1.606  11.013   5.161 -0.1754  0.7685 -1.2191
  657MOL0     C86606   1.682  11.048   5.031  0.0017  0.3423 -0.1100
  657MOL0     C86607   1.825  11.100   5.054  0.1095  0.7552  0.1281
  657MOL0     C86608   1.891  11.128   4.916 -0.4151  1.0531 -0.3695
  657MOL0     N86609   1.968  11.007   4.873 -0.2561  0.5523  0.8445
  657MOL0     C86610   2.091  10.961   4.926 -0.2987  0.3726 -0.6241
  657MOL0     C86611   2.136  10.867   4.848 -0.1543 -1.1322  0.4706
  657MOL0     C86612   2.262  10.790   4.874 -0.3154 -0.5672  0.3218
  657MOL0     C86613   2.394  10.875   4.889  0.1827  0.5051 -0.7651
  657MOL0     C86614   2.511  10.787   4.934  0.1438  0.7539 -0.2683
  657MOL0     C86615   2.636  10.865   4.943 -0.0286 -0.6866 -0.3884
  657MOL0     O86616   2.744  10.787   5.006  0.9880  0.3646 -0.0644
  657MOL0     C86617   2.868  10.846   5.007  1.5499  0.7808 -0.8042
  657MOL0     C86618   2.971  10.784   5.085  0.2910 -0.1387  0.4406
  657MOL0     C86619   3.109  10.817   5.082  0.7040  0.1821 -0.0995
  657MOL0     C86620   3.140  10.928   5.003 -0.9931 -0.4753  0.0612
  657MOL0     C86621   3.280  10.956   4.991 -0.1908 -1.0338 -0.5062
  657MOL0     O86622   3.370  10.865   5.032 -0.1306  0.0230 -0.4111
  657MOL0     C86623   3.502  10.868   4.993 -0.7797  0.7163 -0.0071
  657MOL0     C86624   3.570  10.953   4.905 -0.1227 -0.0570 -0.4849
  657MOL0     C86625   3.711  10.942   4.887 -0.4782 -0.1591  0.5396
  657MOL0     C86626   3.782  10.833   4.944 -0.7844  0.2479  0.1688
  657MOL0     O86627   3.925  10.827   4.933  0.0335 -0.3799  0.1021
  657MOL0     C86628   4.004  10.943   4.964  0.1153 -0.1181 -0.1994
  657MOL0     C86629   4.120  10.955   4.862  0.0124  0.0555 -0.2599
  657MOL0     C86630   4.231  10.854   4.887  0.2757 -0.3766 -0.6336
  657MOL0     C86631   4.355  10.867   4.810  0.3753  0.4678 -1.2406
  657MOL0     C86632   4.474  10.786   4.876  0.2229 -1.0480  0.8700
  657MOL0     C86633   4.541  10.850   5.008  0.7110 -0.6038  0.2627
  657MOL0     C86634   4.546  11.003   5.019 -0.3426  0.4912  0.0128
  657MOL0     C86635   4.602  11.055   5.151  0.1958  0.0662 -0.1933
  657MOL0    Cl86636   4.477  11.014   5.274 -0.0408  0.0821  0.4795
  657MOL0     C86637   3.717  10.733   5.008 -0.5522 -0.1603 -0.8952
  657MOL0     C86638   3.579  10.751   5.034 -0.4770 -0.2311  0.1649
  657MOL0     O86639   3.303  11.073   4.955 -0.5393  0.4656 -0.7391
  657MOL0     C86640   3.043  11.004   4.941 -0.7476  0.2801 -0.1472
  657MOL0     C86641   2.913  10.956   4.941 -0.0482  0.2817  0.4562
  657MOL0     N86642   2.046  10.860   4.748  0.5825 -0.0478  0.8291
  657MOL0     N86643   1.939  10.938   4.762 -0.3974 -0.3779 -1.1231
  657MOL0     C86644   1.867  10.588   4.757  0.5267  0.8992 -1.0384
  657MOL0     C86645   1.965  10.570   4.656  0.8947  0.8603  0.6087
  657MOL0     C86646   2.325  10.377   4.428  0.5080 -0.7885 -0.4936
  657MOL0     C86647   2.263  10.336   4.310  0.4743 -0.7054 -0.0483
  657MOL0     C86648   2.341  10.308   4.192  0.5674 -0.7178  0.1578
  657MOL0     C86649   2.482  10.297   4.197 -0.5324 -0.2184  0.1230
  657MOL0     O86650   2.562  10.247   4.095 -0.3195  0.0699 -0.2307
  657MOL0     C86651   2.525  10.279   3.956  0.1449 -0.3649 -1.0285
  657MOL0     C86652   2.644  10.308   3.868 -0.1455  0.1927  0.3733
  657MOL0     C86653   2.737  10.184   3.846 -0.3766 -0.2093  0.9463
  657MOL0     C86654   2.817  10.140   3.968  0.7525 -0.8418 -0.0967
  657MOL0     C86655   2.909  10.240   4.019  0.9598 -0.3934 -0.1084
  657MOL0     C86656   2.995  10.329   4.049 -0.5292  0.0720 -0.6005
  657MOL0     C86657   2.542  10.344   4.317 -1.0719 -0.5603  0.1696
  657MOL0     C86658   2.466  10.395   4.428 -1.1963  0.6861  0.8018
  657MOL0     H86659   2.063  10.248   4.738  0.8543  0.6360  1.3886
  657MOL0     H86660   1.920  10.283   4.910  0.6840  0.9798  0.6066
  657MOL0     H86661   1.549  10.522   4.963 -0.1506  0.4829  1.1407
  657MOL0     H86662   1.641  10.636   4.869  0.1804 -0.1855  0.3433
  657MOL0     H86663   1.792  10.673   5.071 -0.4518  1.7509 -0.4986
  657MOL0     H86664   1.679  10.573   5.170 -4.7317  2.3560  1.6336
  657MOL0     H86665   1.501  10.716   5.138  0.0814 -1.2855 -0.9706
  657MOL0     H86666   1.590  10.797   5.001 -0.3178 -0.0013 -0.6641
  657MOL0     H86667   1.629  10.837   5.304  0.6374  0.1737  0.4174
  657MOL0     H86668   1.758  10.870   5.191  0.0295 -0.2557 -0.2876
  657MOL0     H86669   1.638  11.073   5.246 -1.2353 -1.4931  0.9148
  657MOL0     H86670   1.497  11.013   5.158 -0.6815  3.1513  4.4588
  657MOL0     H86671   1.627  11.128   4.979  1.7257  0.0279 -2.6238
  657MOL0     H86672   1.688  10.960   4.966 -4.6847 -1.8871  2.0705
  657MOL0     H86673   1.822  11.191   5.114  0.1435 -0.6512  2.4162
  657MOL0     H86674   1.877  11.017   5.104 -3.5811 -2.3044 -0.6347
  657MOL0     H86675   1.967  11.204   4.937  3.0123 -2.2915  0.3573
  657MOL0     H86676   1.817  11.145   4.837  2.0598  1.7525 -2.7113
  657MOL0     H86677   2.137  10.988   5.021  2.6701 -1.7211 -1.3251
  657MOL0     H86678   2.282  10.720   4.793 -3.0061 -1.9673  0.7553
  657MOL0     H86679   2.242  10.731   4.964 -0.6453  0.4991  0.9628
  657MOL0     H86680   2.374  10.954   4.962 -0.6379 -0.1715 -0.2555
  657MOL0     H86681   2.424  10.917   4.792  2.9225 -0.3575 -0.3902
  657MOL0     H86682   2.493  10.743   5.032 -1.7616 -0.1668 -0.9821
  657MOL0     H86683   2.518  10.709   4.857 -0.0756  0.4048  0.0645
  657MOL0     H86684   2.619  10.956   5.002 -3.2027 -1.1422 -0.4073
  657MOL0     H86685   2.667  10.879   4.839 -1.0321 -2.5137 -0.9675
  657MOL0     H86686   2.937  10.693   5.133 -0.9270 -1.1615 -2.1762
  657MOL0     H86687   3.181  10.756   5.136  2.6742  0.6068 -2.0959
  657MOL0     H86688   3.510  11.039   4.878  0.2117  1.1164  2.1118
  657MOL0     H86689   3.780  11.002   4.828  3.7372 -1.5378  3.5803
  657MOL0     H86690   4.052  10.948   5.062  1.3394  1.1830 -0.8259
  657MOL0     H86691   3.940  11.031   4.953 -0.9104 -0.8398 -0.1263
  657MOL0     H86692   4.161  11.056   4.874 -2.0194  0.7139  1.9653
  657MOL0     H86693   4.077  10.934   4.763  2.8480 -0.0862 -1.5525
  657MOL0     H86694   4.195  10.752   4.869 -0.2677 -0.3669  0.2705
  657MOL0     H86695   4.261  10.849   4.993  2.1523  1.9158 -1.0009
  657MOL0     H86696   4.342  10.823   4.711 -0.4741  1.5124 -1.6060
  657MOL0     H86697   4.388  10.970   4.796  1.5578  0.4632  0.9642
  657MOL0     H86698   4.547  10.779   4.794  0.5807  1.6475  0.8522
  657MOL0     H86699   4.451  10.683   4.905 -1.1778 -1.0671 -0.1856
  657MOL0     H86700   4.638  10.806   5.032 -0.1996 -3.5019 -0.8637
  657MOL0     H86701   4.479  10.815   5.090  2.4963 -0.1046  1.8956
  657MOL0     H86702   4.610  11.042   4.939  0.3959 -1.6640 -0.5208
  657MOL0     H86703   4.446  11.047   5.015 -0.5498  0.0126 -0.3057
  657MOL0     H86704   4.613  11.164   5.159 -0.8160  0.1777 -0.2752
  657MOL0     H86705   4.699  11.020   5.189  0.1991  2.3671  2.2451
  657MOL0     H86706   3.768  10.639   5.028  3.7249  2.3346  1.1687
  657MOL0     H86707   3.538  10.671   5.095 -0.4096 -0.7801 -0.5039
  657MOL0     H86708   3.069  11.102   4.901  0.2359 -0.3989 -1.2608
  657MOL0     H86709   2.843  11.011   4.880 -0.1036 -0.9505 -0.6488
  657MOL0     H86710   1.828  10.689   4.766  0.1673  0.7949 -1.3947
  657MOL0     H86711   1.993  10.652   4.591  0.0717  0.0639 -0.7875
  657MOL0     H86712   2.156  10.316   4.307  0.7115 -1.8574 -2.0911
  657MOL0     H86713   2.288  10.284   4.101 -1.0653  1.6231  0.3934
  657MOL0     H86714   2.472  10.373   3.972  0.4264 -0.4444  0.6076
  657MOL0     H86715   2.451  10.212   3.910  1.2185 -2.0169 -0.4578
  657MOL0     H86716   2.603  10.326   3.769  0.6606 -1.4079 -0.2880
  657MOL0     H86717   2.712  10.386   3.905  0.3683  1.0256 -2.1254
  657MOL0     H86718   2.794  10.221   3.761 -3.5670  3.2523  0.0107
  657MOL0     H86719   2.678  10.102   3.804 -1.5145  1.1193 -0.1342
  657MOL0     H86720   2.750  10.106   4.048 -0.1112 -1.3179 -1.0001
  657MOL0     H86721   2.865  10.051   3.926  0.2406 -0.3227 -1.8835
  657MOL0     H86722   3.071  10.404   4.058 -1.0056  0.2971  2.9128
  657MOL0     H86723   2.650  10.354   4.314 -0.9245 -1.1481  2.3564
  657MOL0     H86724   2.530  10.428   4.510  1.0438  0.0021 -0.5792
  658MOL0     O86725   9.945   7.910   9.727 -0.1419  0.5852  0.3756
  658MOL0     C86726  10.017   7.859   9.820 -0.1193  0.0999  0.0506
  658MOL0     O86727   9.967   7.788   9.926  1.2163 -0.6055  0.1044
  658MOL0     C86728   9.837   7.739   9.918  0.1500 -0.3448  0.0992
  658MOL0     C86729   9.819   7.610   9.874  0.0712  0.1894 -0.2506
  658MOL0     C86730   9.682   7.563   9.853 -0.0412  0.4255  0.0374
  658MOL0     C86731   9.570   7.639   9.891  0.2803  0.1061 -0.2521
  658MOL0     O86732   9.445   7.594   9.875  0.2854 -0.3089  0.3558
  658MOL0     C86733   9.374   7.671   9.771  0.4582 -0.3987 -0.9104
  658MOL0     C86734   9.228   7.631   9.775  0.1158  0.2849  0.4534
  658MOL0     C86735   9.170   7.620   9.907  0.8819 -0.0901 -0.0460
  658MOL0     C86736   9.013   7.655   9.907  0.0389  0.4599  0.4330
  658MOL0     C86737   8.960   7.651  10.050  0.4632 -0.5216 -0.9005
  658MOL0     C86738   8.810   7.684  10.065 -1.0924 -0.4591  0.2104
  658MOL0     C86739   8.764   7.664  10.202  0.2521  0.1656  0.3130
  658MOL0     C86740   8.601   7.675  10.194  0.0164 -0.6931  0.5281
  658MOL0     N86741   8.543   7.698  10.328 -0.4366  0.4843  0.0137
  658MOL0     C86742   8.495   7.608  10.418 -0.1222  0.1710 -0.9532
  658MOL0     C86743   8.472   7.682  10.531  0.7295 -0.2958 -0.2802
  658MOL0     C86744   8.416   7.635  10.660  0.2027  0.2075  0.6380
  658MOL0     C86745   8.480   7.702  10.783 -0.3342  0.3093 -0.1953
  658MOL0     C86746   8.440   7.628  10.912  0.3820  0.6910  0.1450
  658MOL0     C86747   8.285   7.602  10.928 -0.7566  0.8650  0.5865
  658MOL0     O86748   8.245   7.560  11.057  0.3403 -0.3139 -0.6553
  658MOL0     C86749   8.113   7.542  11.087  0.4525 -0.4749  0.2892
  658MOL0     C86750   8.011   7.553  10.983 -0.7427  0.2139 -0.1961
  658MOL0     C86751   7.877   7.533  11.005  1.0115 -0.5930 -0.6073
  658MOL0     C86752   7.841   7.498  11.136 -0.1006 -0.3206 -0.0492
  658MOL0     C86753   7.696   7.480  11.157  1.5832  0.2791 -0.8145
  658MOL0     O86754   7.611   7.410  11.073  0.0368  0.5736 -0.2016
  658MOL0     C86755   7.481   7.390  11.116  0.8161  0.7472  0.1465
  658MOL0     C86756   7.382   7.489  11.102  0.6491 -0.2168 -0.0992
  658MOL0     C86757   7.256   7.469  11.148 -0.3609 -0.2011  0.2756
  658MOL0     C86758   7.225   7.357  11.237  0.6991 -0.7284  0.0073
  658MOL0     O86759   7.102   7.347  11.310  0.0369 -0.1804 -0.3903
  658MOL0     C86760   7.026   7.462  11.326 -0.3419 -0.0032  0.0058
  658MOL0     C86761   6.902   7.423  11.397 -0.0676 -0.1104  0.2597
  658MOL0     C86762   6.806   7.544  11.383  0.5651  1.3786  0.5485
  658MOL0     C86763   6.690   7.503  11.459  0.2411 -0.4331 -0.3500
  658MOL0     C86764   6.602   7.624  11.462  0.2923  0.7662 -0.1557
  658MOL0     C86765   6.462   7.616  11.535 -0.3484 -0.3672 -0.8092
  658MOL0     C86766   6.379   7.496  11.479  0.1566  0.1119 -0.3888
  658MOL0     C86767   6.231   7.506  11.508 -0.3005 -0.4528  0.1265
  658MOL0    Cl86768   6.142   7.575  11.364 -0.0956  0.3899 -0.6681
  658MOL0     C86769   7.317   7.253  11.255 -0.3711 -0.5542  0.1456
  658MOL0     C86770   7.445   7.268  11.193 -0.1297 -0.3716 -0.1246
  658MOL0     O86771   7.647   7.539  11.257  0.2993 -1.2334  0.1890
  658MOL0     C86772   7.938   7.470  11.232  1.0836  0.0728 -0.6548
  658MOL0     C86773   8.073   7.492  11.212 -0.1346  0.6359  0.1124
  658MOL0     N86774   8.502   7.816  10.505  0.0188  0.7355 -0.4935
  658MOL0     N86775   8.544   7.828  10.380  0.2518  0.3651  0.1369
  658MOL0     C86776   9.603   7.773   9.934 -0.3140 -0.4931 -0.9224
  658MOL0     C86777   9.727   7.818   9.948 -0.1360  0.0664 -0.1920
  658MOL0     C86778  10.165   7.886   9.806  0.3313  0.2124 -1.1951
  658MOL0     C86779  10.254   7.800   9.874 -0.9221  0.0020 -0.4435
  658MOL0     C86780  10.390   7.822   9.884 -0.8305  0.2630  1.0270
  658MOL0     C86781  10.447   7.939   9.829 -0.0705  0.2979 -0.9089
  658MOL0     O86782  10.575   7.982   9.822 -0.3696 -0.0607  0.0447
  658MOL0     C86783  10.686   7.890   9.860  0.1083 -0.0011  0.5451
  658MOL0     C86784  10.810   7.960   9.812 -0.7010  0.4392  0.1461
  658MOL0     C86785  10.803   7.990   9.662  0.8200 -1.0723  0.2855
  658MOL0     C86786  10.928   8.038   9.594 -0.0371  0.1014  0.3762
  658MOL0     C86787  11.034   7.937   9.610  0.5085  0.4172 -0.3255
  658MOL0     C86788  11.115   7.857   9.633 -0.4800  0.2100 -0.0760
  658MOL0     C86789  10.358   8.028   9.762 -0.0827  0.4326 -0.1089
  658MOL0     C86790  10.221   7.996   9.746 -0.2929  0.3273  0.0063
  658MOL0     H86791   9.894   7.545   9.829 -2.3426 -1.1488 -2.6249
  658MOL0     H86792   9.671   7.458   9.830 -1.1570  0.2825  1.1518
  658MOL0     H86793   9.416   7.660   9.671 -0.2492 -0.0440 -1.2529
  658MOL0     H86794   9.368   7.776   9.803 -1.1793 -0.0522 -2.2021
  658MOL0     H86795   9.206   7.531   9.736  0.2808 -0.0980  1.3223
  658MOL0     H86796   9.160   7.694   9.717 -1.8515 -0.4073  1.8799
  658MOL0     H86797   9.229   7.682   9.976 -0.9012  0.0464  1.4372
  658MOL0     H86798   9.195   7.519   9.942  0.8926 -0.0399  0.0942
  658MOL0     H86799   8.992   7.755   9.866 -0.9159  0.1336  0.1033
  658MOL0     H86800   8.967   7.585   9.838  1.3247  1.7723 -1.8928
  658MOL0     H86801   9.018   7.716  10.116  0.7671 -1.3908 -0.2909
  658MOL0     H86802   8.973   7.551  10.092  2.5506  1.2644  3.3376
  658MOL0     H86803   8.755   7.624   9.991  0.5114 -0.3046 -1.1827
  658MOL0     H86804   8.798   7.789  10.037 -1.3430 -0.0751  1.7034
  658MOL0     H86805   8.788   7.563  10.237  0.1322  0.0690  0.1176
  658MOL0     H86806   8.805   7.731  10.278 -1.6967  1.8639 -0.0466
  658MOL0     H86807   8.574   7.583  10.139 -0.3810 -0.4093  0.2432
  658MOL0     H86808   8.579   7.765  10.136 -3.0599  0.6606  3.4469
  658MOL0     H86809   8.498   7.501  10.403  0.5648  0.2621 -1.4567
  658MOL0     H86810   8.448   7.531  10.674 -0.3174 -0.0376  0.0240
  658MOL0     H86811   8.307   7.642  10.660  0.3019  3.3601  2.2526
  658MOL0     H86812   8.441   7.803  10.802  1.3939  0.8942  0.4426
  658MOL0     H86813   8.589   7.710  10.786 -0.4044  1.4038  0.0060
  658MOL0     H86814   8.497   7.538  10.936 -0.7552  0.3169  1.5595
  658MOL0     H86815   8.450   7.701  10.993 -1.7017  0.3877  0.7284
  658MOL0     H86816   8.243   7.533  10.853 -1.9220 -1.0856  2.8984
  658MOL0     H86817   8.254   7.704  10.904  1.5541  1.2623 -1.1176
  658MOL0     H86818   8.036   7.580  10.881 -0.2218  0.1389 -0.0920
  658MOL0     H86819   7.801   7.545  10.929 -0.0367 -2.4329  0.1007
  658MOL0     H86820   7.400   7.581  11.047  1.7255 -0.9283 -0.9963
  658MOL0     H86821   7.186   7.551  11.137 -1.5164 -1.4579 -2.8139
  658MOL0     H86822   6.997   7.500  11.227 -1.5098 -1.4731 -0.2504
  658MOL0     H86823   7.077   7.540  11.385 -0.5214 -1.4315  2.1450
  658MOL0     H86824   6.923   7.390  11.499 -0.1939 -2.3723 -0.3890
  658MOL0     H86825   6.859   7.334  11.350 -0.1775 -0.0235  0.1946
  658MOL0     H86826   6.784   7.561  11.277  2.8700 -0.3421 -0.2639
  658MOL0     H86827   6.853   7.633  11.426 -0.0423  1.0758  1.8924
  658MOL0     H86828   6.644   7.426  11.397  0.4806  0.7863 -2.1166
  658MOL0     H86829   6.705   7.479  11.565 -2.8296 -1.0148  0.0409
  658MOL0     H86830   6.571   7.642  11.359 -2.3734  0.3426  0.4889
  658MOL0     H86831   6.656   7.710  11.500  0.6968  0.2483  0.4669
  658MOL0     H86832   6.412   7.712  11.521 -0.8522 -0.4814  0.1903
  658MOL0     H86833   6.479   7.616  11.643  0.2892 -0.8742 -0.9024
  658MOL0     H86834   6.396   7.509  11.372 -0.7820 -0.7460 -0.6535
  658MOL0     H86835   6.427   7.403  11.511  0.5332  0.6946  0.8074
  658MOL0     H86836   6.207   7.560  11.600  0.7610  0.2485  0.0121
  658MOL0     H86837   6.182   7.409  11.511  1.7717 -1.7609 -2.9118
  658MOL0     H86838   7.300   7.174  11.327 -1.2322 -1.5297 -1.1032
  658MOL0     H86839   7.528   7.207  11.228  1.6416  2.3174  0.7327
  658MOL0     H86840   7.912   7.441  11.333  0.9246  1.3491 -0.3134
  658MOL0     H86841   8.142   7.484  11.295 -0.7431  0.7157  0.6342
  658MOL0     H86842   9.527   7.850   9.945  0.6030  0.3598 -0.4399
  658MOL0     H86843   9.735   7.921   9.981 -1.1028  0.0399  0.1761
  658MOL0     H86844  10.218   7.707   9.917 -3.0991  0.1090 -1.8764
  658MOL0     H86845  10.463   7.753   9.925  0.0096  1.2374  1.2219
  658MOL0     H86846  10.677   7.788   9.822  0.4523 -1.2642  3.5305
  658MOL0     H86847  10.694   7.875   9.968 -0.0954 -3.1928  0.2214
  658MOL0     H86848  10.807   8.050   9.874  2.9112 -0.9321  2.6431
  658MOL0     H86849  10.898   7.905   9.845 -1.2688 -1.0508 -0.7084
  658MOL0     H86850  10.726   8.066   9.645 -0.2385 -1.1722  3.8173
  658MOL0     H86851  10.757   7.906   9.609  2.7050 -1.2314 -1.2184
  658MOL0     H86852  10.897   8.041   9.490  0.0826  3.0254  0.3341
  658MOL0     H86853  10.969   8.137   9.617  0.7781  0.5883 -2.7879
  658MOL0     H86854  11.189   7.780   9.642  1.3873  1.9362 -0.0941
  658MOL0     H86855  10.385   8.123   9.716 -1.7472  0.7858 -0.4240
  658MOL0     H86856  10.145   8.056   9.697 -0.6045  2.0132  2.3928
  659MOL0     O86857   6.712   0.144   6.561  0.8918  0.8449  0.1313
  659MOL0     C86858   6.750   0.255   6.526 -0.0241  0.1937  0.8613
  659MOL0     O86859   6.851   0.321   6.584  0.1614  0.8018  0.0258
  659MOL0     C86860   6.928   0.256   6.681  1.1077 -0.4701 -1.3958
  659MOL0     C86861   7.060   0.215   6.646  1.5968  1.0388 -0.0938
  659MOL0     C86862   7.133   0.149   6.733  0.4643  0.6267 -0.5435
  659MOL0     C86863   7.088   0.115   6.864 -0.1377 -0.2765  0.5598
  659MOL0     O86864   7.156   0.032   6.957 -0.5972 -0.5236  0.1921
  659MOL0     C86865   7.258  -0.049   6.906 -0.8301  0.5527 -0.6025
  659MOL0     C86866   7.277  -0.170   6.996 -0.0998  0.1331  0.1056
  659MOL0     C86867   7.193  -0.288   6.948  0.7766 -0.3248  0.4522
  659MOL0     C86868   7.222  -0.423   7.027 -0.7514 -0.2540 -0.4825
  659MOL0     C86869   7.125  -0.540   6.987 -0.2881 -0.1069  0.0649
  659MOL0     C86870   6.981  -0.529   7.055 -0.0701  0.3060 -0.0457
  659MOL0     C86871   6.899  -0.643   7.008  0.5483  0.4714 -0.6025
  659MOL0     C86872   6.777  -0.666   7.103  0.1030 -0.5761  0.3000
  659MOL0     N86873   6.713  -0.798   7.091 -0.6108 -1.1379  0.1170
  659MOL0     C86874   6.694  -0.876   6.978  0.6921  0.8520 -0.3862
  659MOL0     C86875   6.613  -0.968   7.028 -0.3301  0.2995  0.1759
  659MOL0     C86876   6.583  -1.092   6.943 -1.0034 -0.3715  0.3101
  659MOL0     C86877   6.435  -1.150   6.956  0.1511 -0.9848 -0.4002
  659MOL0     C86878   6.411  -1.291   6.896 -0.7613  1.2168 -0.2592
  659MOL0     C86879   6.267  -1.324   6.904 -0.0919  0.4368 -0.9425
  659MOL0     O86880   6.257  -1.459   6.853  0.2272  0.2491  0.2092
  659MOL0     C86881   6.133  -1.514   6.875  0.1894  0.0535 -0.4407
  659MOL0     C86882   6.123  -1.650   6.898 -0.3974  0.5103  0.0543
  659MOL0     C86883   6.004  -1.719   6.912 -0.0079  0.2309  0.4020
  659MOL0     C86884   5.887  -1.642   6.901  0.5096  0.0584 -0.8384
  659MOL0     C86885   5.755  -1.709   6.879 -0.1076 -0.1192  0.2787
  659MOL0     O86886   5.646  -1.626   6.900  0.4495 -0.2172 -0.3526
  659MOL0     C86887   5.532  -1.682   6.956  0.3271 -0.7957  0.1234
  659MOL0     C86888   5.529  -1.783   7.057  0.9872  0.2298  0.2299
  659MOL0     C86889   5.409  -1.833   7.115  0.5173 -0.5421  0.4780
  659MOL0     C86890   5.283  -1.784   7.062 -0.6245 -0.5878 -1.2185
  659MOL0     O86891   5.160  -1.797   7.120 -0.1975  0.0235  0.4477
  659MOL0     C86892   5.155  -1.854   7.259 -0.2552  0.3346 -0.8090
  659MOL0     C86893   5.010  -1.881   7.289 -0.1859  0.3375  1.4962
  659MOL0     C86894   4.966  -1.874   7.433 -0.1367  1.3751  0.2802
  659MOL0     C86895   4.820  -1.897   7.464  0.3104  0.3327  0.1966
  659MOL0     C86896   4.792  -1.896   7.615 -0.2371 -0.2708  0.0897
  659MOL0     C86897   4.795  -1.757   7.679  0.3633  0.0896 -0.4872
  659MOL0     C86898   4.726  -1.764   7.821 -0.2422  0.4944 -0.1765
  659MOL0     C86899   4.740  -1.631   7.897  0.9800  0.0227 -0.1384
  659MOL0    Cl86900   4.914  -1.581   7.929 -0.1574 -0.3337 -0.4413
  659MOL0     C86901   5.290  -1.691   6.958  0.0162 -0.0789  0.7943
  659MOL0     C86902   5.408  -1.640   6.905  0.3448 -1.0056  0.7220
  659MOL0     O86903   5.755  -1.828   6.853  0.0571 -0.1747  0.4108
  659MOL0     C86904   5.891  -1.502   6.888  1.1643 -0.1809  0.5830
  659MOL0     C86905   6.015  -1.440   6.878  0.9245  1.0324 -0.2485
  659MOL0     N86906   6.582  -0.944   7.159 -0.3759  0.6917  0.1962
  659MOL0     N86907   6.647  -0.846   7.197 -0.8440  0.3468  0.3838
  659MOL0     C86908   6.963   0.159   6.900  0.8172 -0.5810 -0.0609
  659MOL0     C86909   6.883   0.236   6.813  0.2276 -0.3408  0.1747
  659MOL0     C86910   6.682   0.308   6.400 -0.4891  0.3092  0.1606
  659MOL0     C86911   6.556   0.256   6.355  0.1332  0.0508 -0.4206
  659MOL0     C86912   6.481   0.312   6.255  0.0129  0.6584  0.6637
  659MOL0     C86913   6.523   0.430   6.208  0.2583  0.1114 -0.0646
  659MOL0     O86914   6.441   0.503   6.130  0.2057  0.1567 -0.6128
  659MOL0     C86915   6.371   0.615   6.186 -0.2672 -0.1515 -0.1348
  659MOL0     C86916   6.251   0.580   6.284  0.0197 -0.7909 -0.8344
  659MOL0     C86917   6.118   0.551   6.223  0.1245  0.1911  0.4170
  659MOL0     C86918   6.009   0.513   6.321  0.2678 -0.4144 -0.7133
  659MOL0     C86919   5.876   0.537   6.254 -0.3716 -0.0958  0.8817
  659MOL0     C86920   5.764   0.539   6.224 -0.4207  0.2855 -0.5964
  659MOL0     C86921   6.649   0.486   6.243 -0.1992  0.3192 -0.4754
  659MOL0     C86922   6.736   0.417   6.340  0.7978  0.3003 -0.6839
  659MOL0     H86923   7.100   0.245   6.549  2.6539 -1.0383 -0.3444
  659MOL0     H86924   7.237   0.134   6.704  0.1962  2.2063 -2.5815
  659MOL0     H86925   7.353   0.007   6.904  0.8830 -2.2082 -2.4964
  659MOL0     H86926   7.245  -0.094   6.807  1.8621  0.5283 -1.0464
  659MOL0     H86927   7.262  -0.147   7.102 -1.1022  1.3229 -0.2812
  659MOL0     H86928   7.383  -0.193   6.978 -0.7381 -1.4079 -2.0988
  659MOL0     H86929   7.212  -0.310   6.843  2.2038 -1.3698  0.9076
  659MOL0     H86930   7.085  -0.276   6.963  1.0250  3.5174  0.1086
  659MOL0     H86931   7.327  -0.453   7.013 -0.9174 -0.2859 -1.7088
  659MOL0     H86932   7.201  -0.411   7.134  1.4435  2.5625 -0.2644
  659MOL0     H86933   7.178  -0.635   7.000 -1.4809 -0.7608  0.2305
  659MOL0     H86934   7.103  -0.522   6.882 -1.9471  1.0290  0.5663
  659MOL0     H86935   6.928  -0.437   7.027 -1.6047 -0.8169 -1.0462
  659MOL0     H86936   6.987  -0.528   7.164 -0.8446 -0.1217  0.0106
  659MOL0     H86937   6.860  -0.634   6.906 -0.2783 -0.4261 -0.3775
  659MOL0     H86938   6.960  -0.733   7.010  0.1742  0.1945  2.4068
  659MOL0     H86939   6.700  -0.591   7.079 -2.0732 -2.9135 -0.5730
  659MOL0     H86940   6.818  -0.668   7.204  0.4698  0.4811  0.1826
  659MOL0     H86941   6.737  -0.880   6.879 -1.8232  0.6394 -1.5230
  659MOL0     H86942   6.654  -1.175   6.955 -2.3491 -1.4590  0.9817
  659MOL0     H86943   6.592  -1.068   6.837  1.3431 -1.6058  0.1450
  659MOL0     H86944   6.372  -1.079   6.901 -2.0976  1.2042  4.4434
  659MOL0     H86945   6.407  -1.153   7.062 -0.1271 -1.0287 -0.4753
  659MOL0     H86946   6.438  -1.277   6.791 -3.6314  1.8443 -1.0048
  659MOL0     H86947   6.473  -1.363   6.951 -0.0653  3.4019  2.0084
  659MOL0     H86948   6.211  -1.254   6.840  0.5123  1.7031 -0.1167
  659MOL0     H86949   6.235  -1.317   7.008  0.0493  0.0969 -0.8724
  659MOL0     H86950   6.224  -1.691   6.894 -1.7292 -2.9663 -2.6848
  659MOL0     H86951   6.006  -1.825   6.936 -3.3491 -0.0657 -0.1056
  659MOL0     H86952   5.620  -1.826   7.098  2.1844  1.0780 -1.3741
  659MOL0     H86953   5.417  -1.906   7.195  0.6176  0.3790  1.3278
  659MOL0     H86954   5.195  -1.782   7.331  3.1744 -1.9545 -0.1780
  659MOL0     H86955   5.216  -1.945   7.269  0.0117  0.7668  3.4264
  659MOL0     H86956   4.993  -1.984   7.258  0.4536  0.7468 -0.3813
  659MOL0     H86957   4.948  -1.821   7.222 -0.8030 -0.1229  1.6493
  659MOL0     H86958   4.981  -1.768   7.458  0.5966  2.1795 -2.9863
  659MOL0     H86959   5.028  -1.936   7.498 -0.4561 -0.7553 -1.3196
  659MOL0     H86960   4.749  -1.840   7.403 -1.9082 -1.3204  1.0659
  659MOL0     H86961   4.815  -2.001   7.429  3.1577  0.9418 -2.4088
  659MOL0     H86962   4.878  -1.946   7.661  0.0732  2.3259  2.6751
  659MOL0     H86963   4.705  -1.957   7.640  0.6702 -0.6638  2.6493
  659MOL0     H86964   4.736  -1.686   7.622 -3.0205 -1.5809  0.6817
  659MOL0     H86965   4.898  -1.720   7.678  0.6025 -0.5680 -0.5972
  659MOL0     H86966   4.620  -1.764   7.796 -0.4259  1.5969  0.5271
  659MOL0     H86967   4.754  -1.852   7.879 -1.6976 -0.6324 -1.1096
  659MOL0     H86968   4.678  -1.635   7.987 -0.2346 -1.4820 -0.9792
  659MOL0     H86969   4.698  -1.551   7.836  0.7896  1.4270  1.7434
  659MOL0     H86970   5.192  -1.663   6.921  0.1281  1.0400  1.2936
  659MOL0     H86971   5.394  -1.577   6.818  1.4731 -0.8793  0.6237
  659MOL0     H86972   5.801  -1.444   6.903  0.6677 -0.7633 -0.0718
  659MOL0     H86973   6.013  -1.332   6.868  0.1705  1.2905  2.1197
  659MOL0     H86974   6.928   0.142   7.001 -1.1721  0.5678 -0.5042
  659MOL0     H86975   6.781   0.273   6.824  0.5937  0.4181  1.0996
  659MOL0     H86976   6.504   0.177   6.408  0.8363  0.3110  0.6785
  659MOL0     H86977   6.379   0.278   6.236  0.3213  0.0666  0.0084
  659MOL0     H86978   6.330   0.669   6.100 -0.6860 -0.9948 -0.4773
  659MOL0     H86979   6.448   0.681   6.226 -1.1629  2.0302 -1.8544
  659MOL0     H86980   6.278   0.492   6.344  2.2712 -0.3226 -1.0629
  659MOL0     H86981   6.243   0.660   6.358  1.8406 -1.6000  0.3140
  659MOL0     H86982   6.126   0.459   6.165 -1.5840 -3.6053  5.4040
  659MOL0     H86983   6.085   0.638   6.166 -3.3590 -0.4346  1.2410
  659MOL0     H86984   6.023   0.408   6.346  0.7607 -0.7956 -2.4055
  659MOL0     H86985   6.009   0.564   6.418 -0.1828  0.7356 -1.2896
  659MOL0     H86986   5.658   0.541   6.211 -0.6151 -3.7558 -0.7760
  659MOL0     H86987   6.687   0.570   6.186  2.0793  0.1628  0.7170
  659MOL0     H86988   6.831   0.464   6.365  0.3141  3.0679 -3.5413
  660MOL0     O86989   9.788   5.228   7.261 -0.1667 -0.1742  0.1172
  660MOL0     C86990   9.767   5.126   7.206  0.1948  0.6234 -0.9662
  660MOL0     O86991   9.641   5.077   7.168  0.2603 -0.4290 -0.3593
  660MOL0     C86992   9.520   5.154   7.175 -1.1664 -0.2579  0.4582
  660MOL0     C86993   9.429   5.120   7.075 -0.0785 -0.7240  1.1240
  660MOL0     C86994   9.312   5.194   7.068 -0.0327  0.8055  0.1127
  660MOL0     C86995   9.278   5.289   7.162 -1.0924  0.4638 -0.4536
  660MOL0     O86996   9.165   5.366   7.169  0.3700  0.0817  0.1950
  660MOL0     C86997   9.071   5.353   7.062 -0.0122 -0.1238  0.2020
  660MOL0     C86998   8.943   5.441   7.099 -1.3956 -0.2176 -0.9215
  660MOL0     C86999   8.836   5.447   6.992 -0.0285  0.2454  0.1003
  660MOL0     C87000   8.690   5.463   7.037 -0.9937 -0.6017  0.1763
  660MOL0     C87001   8.589   5.393   6.937 -0.3102 -0.5985 -1.0803
  660MOL0     C87002   8.443   5.400   7.002 -0.4792  0.3377  0.8501
  660MOL0     C87003   8.351   5.341   6.901 -0.0993  0.7024  0.8950
  660MOL0     C87004   8.209   5.334   6.945  0.4066  1.0523 -0.4514
  660MOL0     N87005   8.129   5.240   6.872 -0.5818  0.3826  0.7894
  660MOL0     C87006   8.044   5.282   6.786  0.4821 -0.3729  0.6332
  660MOL0     C87007   8.010   5.171   6.709  0.0585 -0.9083  0.4583
  660MOL0     C87008   7.910   5.179   6.599 -0.2107  0.2448 -0.1879
  660MOL0     C87009   7.778   5.111   6.647  0.2686 -0.1592 -0.5145
  660MOL0     C87010   7.673   5.090   6.539  0.1677  0.1111  0.0913
  660MOL0     C87011   7.561   4.986   6.572 -0.9032 -0.6505  0.4018
  660MOL0     O87012   7.494   5.016   6.694  0.0587 -0.8169 -0.3917
  660MOL0     C87013   7.402   5.115   6.706  0.7021 -0.2200  0.1846
  660MOL0     C87014   7.322   5.105   6.823  0.1431 -0.1714  1.0687
  660MOL0     C87015   7.209   5.184   6.837 -0.0282  0.2256  0.0887
  660MOL0     C87016   7.168   5.268   6.733 -0.0090  0.2079 -0.3109
  660MOL0     C87017   7.043   5.351   6.758  0.2324  0.4490 -0.1867
  660MOL0     O87018   6.968   5.314   6.862 -0.5310  0.1655  0.3085
  660MOL0     C87019   6.837   5.347   6.869  0.1842 -0.4778 -0.4945
  660MOL0     C87020   6.746   5.270   6.947 -0.2388 -1.1582 -0.4656
  660MOL0     C87021   6.612   5.310   6.971 -0.1036 -0.9285  0.0999
  660MOL0     C87022   6.566   5.427   6.915  0.7355  1.0143 -0.3958
  660MOL0     O87023   6.430   5.459   6.929 -0.0581 -0.2217 -1.3154
  660MOL0     C87024   6.369   5.480   6.806 -0.5030  0.2545  0.4857
  660MOL0     C87025   6.221   5.491   6.829 -0.3118  0.3981  0.3264
  660MOL0     C87026   6.127   5.438   6.710 -0.3328 -0.3103  0.3486
  660MOL0     C87027   5.983   5.442   6.753  0.2991 -0.4926  0.2319
  660MOL0     C87028   5.888   5.398   6.643 -0.9048  0.5557  0.1378
  660MOL0     C87029   5.748   5.398   6.689 -0.5192  0.2257  0.3727
  660MOL0     C87030   5.652   5.328   6.596 -0.0758  0.5807 -0.0719
  660MOL0     C87031   5.615   5.420   6.478 -0.7642 -0.5293 -0.4896
  660MOL0    Cl87032   5.524   5.563   6.542  0.2217  0.0572  0.1497
  660MOL0     C87033   6.648   5.507   6.840  0.0067  0.1302 -0.0758
  660MOL0     C87034   6.780   5.468   6.820 -0.6454 -0.2303 -0.0030
  660MOL0     O87035   7.012   5.437   6.676  0.9375  0.5320 -0.8336
  660MOL0     C87036   7.235   5.275   6.612  0.7862 -0.2718 -1.5474
  660MOL0     C87037   7.352   5.201   6.600 -0.1066 -0.1422 -0.2516
  660MOL0     N87038   8.079   5.056   6.752 -1.3852  0.0299 -0.8708
  660MOL0     N87039   8.149   5.107   6.856  0.6006  0.7507  0.0965
  660MOL0     C87040   9.376   5.322   7.263  0.8069  0.3164 -0.2106
  660MOL0     C87041   9.498   5.257   7.270  0.0600 -0.2093  1.3229
  660MOL0     C87042   9.877   5.041   7.169 -0.6594  0.3789  0.8989
  660MOL0     C87043   9.995   5.036   7.235  0.3093  0.6824 -0.0206
  660MOL0     C87044  10.100   4.958   7.187  0.7109  0.3418  0.4136
  660MOL0     C87045  10.089   4.882   7.066 -0.4048 -0.4025 -0.4944
  660MOL0     O87046  10.185   4.791   7.031 -0.5405  0.1962 -0.3036
  660MOL0     C87047  10.302   4.803   7.106 -0.4116  0.3036 -0.7018
  660MOL0     C87048  10.413   4.710   7.058 -0.3821  0.8074  0.3397
  660MOL0     C87049  10.550   4.732   7.121 -0.5908  0.5553  0.4267
  660MOL0     C87050  10.641   4.609   7.092  0.2788 -0.8306 -0.7621
  660MOL0     C87051  10.663   4.580   6.955 -0.8031 -0.7638 -1.2613
  660MOL0     C87052  10.680   4.555   6.838 -0.2024 -0.3536 -0.0909
  660MOL0     C87053   9.963   4.883   7.008 -0.1323 -0.0955  0.3615
  660MOL0     C87054   9.858   4.967   7.050 -0.4387 -0.1754  0.3727
  660MOL0     H87055   9.456   5.050   6.997 -0.3560  1.7492 -1.3331
  660MOL0     H87056   9.241   5.174   6.988  0.5931  0.1874 -0.3010
  660MOL0     H87057   9.045   5.246   7.055  0.8933 -0.2483 -2.4509
  660MOL0     H87058   9.109   5.382   6.964  0.0824 -2.0230 -0.3653
  660MOL0     H87059   8.979   5.543   7.113  0.2627 -1.0148  1.2148
  660MOL0     H87060   8.915   5.402   7.197 -1.0660  1.5693 -0.0702
  660MOL0     H87061   8.842   5.353   6.936 -2.1039  1.2836 -2.0490
  660MOL0     H87062   8.862   5.520   6.915  1.6666  0.3732  0.7659
  660MOL0     H87063   8.689   5.420   7.138  3.0532 -1.5290  0.0002
  660MOL0     H87064   8.668   5.570   7.049  2.1285 -0.0693  2.2551
  660MOL0     H87065   8.613   5.287   6.930  0.0343 -0.5697 -0.3979
  660MOL0     H87066   8.580   5.447   6.842 -2.8951  1.0076 -0.0259
  660MOL0     H87067   8.411   5.502   7.028 -1.6917  1.0265 -2.8138
  660MOL0     H87068   8.442   5.324   7.081  1.9686  0.9131  1.5162
  660MOL0     H87069   8.351   5.379   6.799 -1.5037 -1.5975 -0.0578
  660MOL0     H87070   8.385   5.237   6.896 -1.3282  0.1910  2.1886
  660MOL0     H87071   8.165   5.434   6.939  0.0002  0.9231  0.2592
  660MOL0     H87072   8.207   5.299   7.048 -0.5886 -1.0620 -1.1309
  660MOL0     H87073   7.994   5.378   6.779 -2.6971 -1.7679  2.1602
  660MOL0     H87074   7.946   5.127   6.510 -2.7492 -0.4476 -0.8829
  660MOL0     H87075   7.886   5.284   6.579 -1.7724  0.5483  2.7026
  660MOL0     H87076   7.734   5.154   6.737  0.0933  0.2322 -0.7840
  660MOL0     H87077   7.802   5.012   6.687 -0.5558 -0.1913 -0.0747
  660MOL0     H87078   7.630   5.184   6.502 -2.2505 -1.8578 -2.6285
  660MOL0     H87079   7.721   5.042   6.453  1.1400 -0.0748  0.7220
  660MOL0     H87080   7.599   4.884   6.562  1.4311  0.2794 -0.9418
  660MOL0     H87081   7.488   4.996   6.491 -1.0355 -1.3968  0.4139
  660MOL0     H87082   7.352   5.039   6.903  1.4306  0.4087  1.0878
  660MOL0     H87083   7.158   5.170   6.932  2.1568 -2.4413  1.0035
  660MOL0     H87084   6.788   5.185   7.001 -0.3856 -0.6741  0.4241
  660MOL0     H87085   6.550   5.246   7.033  0.3693 -0.2328  1.3338
  660MOL0     H87086   6.380   5.387   6.750  0.1866 -0.2874  1.4821
  660MOL0     H87087   6.405   5.569   6.753 -4.3944  1.4011 -0.6184
  660MOL0     H87088   6.206   5.599   6.840  3.5035  1.0678  0.3282
  660MOL0     H87089   6.199   5.427   6.915 -0.5492 -0.5046 -0.3844
  660MOL0     H87090   6.159   5.337   6.683  1.7286  0.2506  0.5429
  660MOL0     H87091   6.151   5.501   6.623  2.7668 -2.7386 -0.7289
  660MOL0     H87092   5.981   5.374   6.839  1.5226 -2.8654 -1.5121
  660MOL0     H87093   5.962   5.546   6.780  1.8202  0.1530 -0.9584
  660MOL0     H87094   5.927   5.298   6.622  1.7491  1.2944  1.0092
  660MOL0     H87095   5.901   5.452   6.549  3.4910 -0.1016  0.1535
  660MOL0     H87096   5.720   5.501   6.711 -2.4429 -0.4304  1.2920
  660MOL0     H87097   5.756   5.339   6.781  1.0042 -2.4998 -1.3618
  660MOL0     H87098   5.707   5.239   6.561  2.4588  2.1522 -0.3293
  660MOL0     H87099   5.567   5.289   6.652  0.8944 -1.6284 -0.0354
  660MOL0     H87100   5.556   5.360   6.407 -0.1123 -0.7314 -0.8632
  660MOL0     H87101   5.698   5.468   6.427  0.3289 -0.1131  1.5751
  660MOL0     H87102   6.618   5.601   6.795 -0.0351 -0.0251 -0.3797
  660MOL0     H87103   6.845   5.541   6.775 -1.2947  1.3021  1.4107
  660MOL0     H87104   7.188   5.320   6.526  2.0400 -0.7620 -2.5213
  660MOL0     H87105   7.410   5.213   6.510 -0.2652  0.9270 -0.2331
  660MOL0     H87106   9.348   5.404   7.329  3.0527 -0.1715  1.4498
  660MOL0     H87107   9.562   5.287   7.353  1.4361  0.4401  0.0732
  660MOL0     H87108  10.006   5.097   7.324  1.2999  0.8561 -0.2561
  660MOL0     H87109  10.193   4.960   7.241  0.4410 -0.1654  0.9091
  660MOL0     H87110  10.289   4.788   7.214  1.9969 -1.6953 -0.5965
  660MOL0     H87111  10.340   4.904   7.089  0.8727 -0.2599 -1.2904
  660MOL0     H87112  10.377   4.609   7.082 -1.5964  0.5884 -2.0812
  660MOL0     H87113  10.430   4.722   6.951  0.8839 -0.9061  0.3083
  660MOL0     H87114  10.553   4.758   7.227 -1.4703  2.9362 -0.0804
  660MOL0     H87115  10.597   4.816   7.069  1.0469  0.3243  1.4605
  660MOL0     H87116  10.741   4.622   7.134  0.4125 -1.5649 -0.8346
  660MOL0     H87117  10.597   4.518   7.134 -1.5850 -0.6066 -2.1104
  660MOL0     H87118  10.694   4.550   6.732 -1.0259  0.9019 -0.2811
  660MOL0     H87119   9.947   4.815   6.925 -1.7989 -0.4109  0.9037
  660MOL0     H87120   9.759   4.972   7.006 -1.1539 -1.3292  1.7564
  661MOL0     O87121   4.480   9.015   7.687 -0.9155 -0.4179 -0.1827
  661MOL0     C87122   4.434   9.088   7.777  1.6929  0.1594 -0.1971
  661MOL0     O87123   4.328   9.166   7.762  0.1083 -0.8717  0.0266
  661MOL0     C87124   4.279   9.185   7.630  0.7985 -0.2543 -0.1495
  661MOL0     C87125   4.361   9.217   7.523  0.0108 -0.4998 -0.1566
  661MOL0     C87126   4.315   9.237   7.395  0.8567 -0.3931 -0.3433
  661MOL0     C87127   4.177   9.215   7.371 -0.0866  0.1099 -0.2520
  661MOL0     O87128   4.130   9.248   7.245 -1.0214 -0.2221 -0.2298
  661MOL0     C87129   4.119   9.144   7.152  0.2639  1.0180 -0.0483
  661MOL0     C87130   3.984   9.078   7.141  0.6069 -1.0992 -0.5707
  661MOL0     C87131   3.903   9.168   7.047 -0.3111  1.1860 -0.4276
  661MOL0     C87132   3.759   9.121   7.024  0.6286  0.3297 -0.0493
  661MOL0     C87133   3.701   9.151   6.887  0.0606 -0.0948 -0.5036
  661MOL0     C87134   3.644   9.291   6.879  1.0287  0.7416 -0.8054
  661MOL0     C87135   3.585   9.322   6.741 -0.0749 -0.0350 -0.6628
  661MOL0     C87136   3.477   9.434   6.752  0.3384  0.1260  0.3492
  661MOL0     N87137   3.360   9.411   6.654  0.3295 -0.5632 -0.4796
  661MOL0     C87138   3.283   9.296   6.635  0.1663 -0.7809  0.4573
  661MOL0     C87139   3.201   9.326   6.530 -0.2312  0.2598 -0.1762
  661MOL0     C87140   3.096   9.234   6.456  0.0660 -0.0403  0.1386
  661MOL0     C87141   2.952   9.225   6.526  0.5927 -0.8416  0.8195
  661MOL0     C87142   2.894   9.360   6.541  0.0552  0.1327 -0.7159
  661MOL0     C87143   2.837   9.427   6.414  0.5574  0.3095  0.1139
  661MOL0     O87144   2.744   9.339   6.343 -0.6866 -0.6248  0.1158
  661MOL0     C87145   2.620   9.375   6.320  0.2261 -0.6519 -0.4593
  661MOL0     C87146   2.578   9.514   6.329 -0.8673 -0.9006 -0.2943
  661MOL0     C87147   2.445   9.551   6.325  0.4290  0.0506 -0.8544
  661MOL0     C87148   2.346   9.446   6.304  0.1484 -1.0614 -0.6254
  661MOL0     C87149   2.202   9.482   6.306 -1.4746  0.3705  0.3454
  661MOL0     O87150   2.107   9.389   6.286 -0.2163 -0.6823 -0.7263
  661MOL0     C87151   1.979   9.427   6.237 -0.4959  0.5820 -0.2088
  661MOL0     C87152   1.947   9.549   6.175 -0.8804  0.5117 -0.3293
  661MOL0     C87153   1.827   9.561   6.110  0.2517 -0.1435 -0.1211
  661MOL0     C87154   1.728   9.462   6.119  0.0194  0.2253 -0.1200
  661MOL0     O87155   1.609   9.502   6.057  0.4319  0.4763  0.3484
  661MOL0     C87156   1.500   9.415   6.072 -0.5766  0.3407  0.0591
  661MOL0     C87157   1.375   9.471   6.011  0.4965 -0.1436  0.1662
  661MOL0     C87158   1.347   9.617   6.030  0.0016  0.2416 -0.7150
  661MOL0     C87159   1.336   9.640   6.183 -0.9856  0.0732  0.7543
  661MOL0     C87160   1.263   9.767   6.216  0.3346 -0.7558 -0.2042
  661MOL0     C87161   1.112   9.778   6.177 -0.7289 -0.0790 -0.2302
  661MOL0     C87162   1.037   9.842   6.298  1.0717  0.1997 -0.2432
  661MOL0     C87163   0.895   9.860   6.261  0.5899 -0.0322  0.4994
  661MOL0    Cl87164   0.805   9.924   6.395  0.4690 -0.2543 -0.4092
  661MOL0     C87165   1.762   9.341   6.186  0.3527 -0.3953  0.8175
  661MOL0     C87166   1.886   9.325   6.240  0.9802  0.7709 -0.5312
  661MOL0     O87167   2.179   9.594   6.341  0.2430  0.2962 -0.4391
  661MOL0     C87168   2.388   9.315   6.290  0.6959  0.4305 -0.1845
  661MOL0     C87169   2.522   9.281   6.301 -0.7865 -0.5231 -0.6255
  661MOL0     N87170   3.238   9.448   6.482  0.1109  0.0966 -0.6236
  661MOL0     N87171   3.325   9.499   6.558 -0.7236 -0.8493 -0.0248
  661MOL0     C87172   4.086   9.187   7.474  0.5086 -0.0572 -1.0282
  661MOL0     C87173   4.141   9.186   7.604 -0.0258 -0.8244  0.5552
  661MOL0     C87174   4.532   9.135   7.883 -0.2006 -1.2030  0.4318
  661MOL0     C87175   4.672   9.100   7.868  0.0397 -0.2054 -0.6552
  661MOL0     C87176   4.763   9.145   7.969  0.2613  0.1163 -0.1991
  661MOL0     C87177   4.727   9.234   8.075  0.6661 -0.0979  0.0893
  661MOL0     O87178   4.829   9.255   8.163  0.0282 -0.2224 -0.3493
  661MOL0     C87179   4.805   9.353   8.267  0.6911  0.5079  0.5559
  661MOL0     C87180   4.827   9.499   8.230  0.1275  0.2462 -0.4628
  661MOL0     C87181   4.963   9.533   8.190  0.6635  0.1510 -0.0009
  661MOL0     C87182   5.073   9.500   8.286  0.2276  0.6099  0.7390
  661MOL0     C87183   5.043   9.561   8.419  1.0966  0.3526  0.0366
  661MOL0     C87184   5.006   9.621   8.523 -0.1996 -0.1753  0.7369
  661MOL0     C87185   4.595   9.268   8.085  0.1391  0.4408 -0.0854
  661MOL0     C87186   4.494   9.210   7.996 -0.0648  0.0409 -0.1002
  661MOL0     H87187   4.468   9.223   7.539  0.6071  1.9941 -3.8394
  661MOL0     H87188   4.382   9.282   7.323  2.0640  1.9810  2.1027
  661MOL0     H87189   4.188   9.064   7.179  0.9099  1.8895  0.9439
  661MOL0     H87190   4.152   9.177   7.053  0.6279 -1.4426 -0.7958
  661MOL0     H87191   3.921   9.063   7.229 -1.4555 -1.3816 -2.0091
  661MOL0     H87192   3.995   8.986   7.083 -1.0528 -1.6566 -0.0507
  661MOL0     H87193   3.956   9.176   6.952 -0.1341  1.2702 -0.3211
  661MOL0     H87194   3.902   9.267   7.095  0.1203  0.9952 -0.0174
  661MOL0     H87195   3.757   9.012   7.037 -2.0925  0.2835 -0.3754
  661MOL0     H87196   3.699   9.170   7.100  1.7758  0.7139  0.6377
  661MOL0     H87197   3.623   9.077   6.867 -0.4426 -0.2309  1.7179
  661MOL0     H87198   3.790   9.134   6.824  0.4287 -2.0979  0.4658
  661MOL0     H87199   3.718   9.368   6.903  1.2105 -0.2084  2.1726
  661MOL0     H87200   3.571   9.281   6.959  0.6691  1.6726 -1.0153
  661MOL0     H87201   3.673   9.353   6.683 -0.4956 -0.2676 -1.4425
  661MOL0     H87202   3.543   9.231   6.697  1.1762  0.1887 -2.4243
  661MOL0     H87203   3.529   9.529   6.740  1.7300 -0.8023 -1.2791
  661MOL0     H87204   3.428   9.428   6.850 -0.8726 -0.0657 -0.2400
  661MOL0     H87205   3.288   9.203   6.690  1.3116  0.7089  3.1033
  661MOL0     H87206   3.151   9.140   6.447  3.3232  1.4411  2.6332
  661MOL0     H87207   3.100   9.286   6.360 -0.0688  1.8005  1.0946
  661MOL0     H87208   2.966   9.190   6.629 -0.3851 -0.5790  1.0550
  661MOL0     H87209   2.879   9.152   6.491  0.1531 -0.6164  1.2536
  661MOL0     H87210   2.815   9.356   6.616  2.2236 -0.9749  1.6734
  661MOL0     H87211   2.975   9.423   6.581  2.4153 -1.9873 -1.8665
  661MOL0     H87212   2.924   9.436   6.348  2.0530  0.6420  2.0673
  661MOL0     H87213   2.801   9.524   6.449  0.3497 -0.4364  2.0561
  661MOL0     H87214   2.646   9.599   6.318 -1.2761 -0.7335 -1.7063
  661MOL0     H87215   2.423   9.656   6.337  0.5688  0.0959 -1.0026
  661MOL0     H87216   2.024   9.625   6.169 -1.1193  0.6134 -3.1629
  661MOL0     H87217   1.792   9.646   6.052 -3.3642 -1.3182  0.1171
  661MOL0     H87218   1.491   9.389   6.178  1.0852 -1.7377 -0.2630
  661MOL0     H87219   1.518   9.318   6.024 -1.5950 -1.0043  2.2370
  661MOL0     H87220   1.291   9.407   6.038 -0.4405  0.2075 -1.6962
  661MOL0     H87221   1.395   9.451   5.905  0.9278  0.6556  0.0902
  661MOL0     H87222   1.255   9.646   5.978 -1.3502 -2.3853  0.0260
  661MOL0     H87223   1.435   9.673   5.997  0.3669  0.0121 -0.1583
  661MOL0     H87224   1.283   9.554   6.225 -2.0220 -0.8027 -2.0967
  661MOL0     H87225   1.434   9.632   6.230 -0.3799 -0.6966 -0.6168
  661MOL0     H87226   1.323   9.850   6.176 -0.0886 -1.8229 -3.3189
  661MOL0     H87227   1.266   9.767   6.325 -2.0758  2.5000  0.0412
  661MOL0     H87228   1.062   9.682   6.167 -0.9207 -0.0774  0.6197
  661MOL0     H87229   1.097   9.847   6.094  0.4836  0.3743 -0.0919
  661MOL0     H87230   1.026   9.782   6.388 -3.1060  0.6392 -0.2642
  661MOL0     H87231   1.085   9.928   6.345  3.3281 -1.7367  1.2448
  661MOL0     H87232   0.850   9.765   6.231 -0.0040  0.3066  0.2984
  661MOL0     H87233   0.882   9.931   6.179  1.4109  0.2186  0.5828
  661MOL0     H87234   1.698   9.253   6.196  3.4923 -2.8372  1.0154
  661MOL0     H87235   1.897   9.230   6.292 -2.5905  0.3885 -0.2290
  661MOL0     H87236   2.315   9.241   6.258  0.9544  0.3733 -0.6525
  661MOL0     H87237   2.542   9.174   6.297 -0.1211 -0.5335  1.5788
  661MOL0     H87238   3.979   9.179   7.457  0.1001 -1.0251  1.4806
  661MOL0     H87239   4.075   9.182   7.690 -0.9593  2.6024  0.1439
  661MOL0     H87240   4.718   9.034   7.795  1.1573 -0.1867 -0.0004
  661MOL0     H87241   4.868   9.118   7.959  0.6126  1.6637 -1.0002
  661MOL0     H87242   4.874   9.337   8.350  0.0630  3.8972  1.8945
  661MOL0     H87243   4.704   9.332   8.302  0.8328 -2.8598 -0.6740
  661MOL0     H87244   4.755   9.526   8.152 -1.0786 -3.1025 -0.7004
  661MOL0     H87245   4.796   9.543   8.325  2.3216 -0.3681  0.6010
  661MOL0     H87246   4.969   9.640   8.165  0.0545 -0.0178 -0.9009
  661MOL0     H87247   4.995   9.489   8.096  1.2848  1.5568 -0.4873
  661MOL0     H87248   5.091   9.393   8.299  3.4264  1.0480  0.8146
  661MOL0     H87249   5.159   9.550   8.240 -3.1396  3.7784 -2.8180
  661MOL0     H87250   4.961   9.659   8.612 -6.6902 -1.9109 -1.2818
  661MOL0     H87251   4.563   9.326   8.171 -1.0984  0.2871 -0.4267
  661MOL0     H87252   4.391   9.233   8.019  0.4700  0.9578  1.4723
  662MOL0     O87253   5.377   7.513   0.241 -0.1816  0.7595  1.0891
  662MOL0     C87254   5.448   7.493   0.146 -0.3747  0.3585  0.4348
  662MOL0     O87255   5.426   7.541   0.022  0.0558 -0.7138 -0.7858
  662MOL0     C87256   5.354   7.657  -0.001  0.8569  1.1322  0.3589
  662MOL0     C87257   5.247   7.632  -0.091 -0.2527 -0.0666  0.3153
  662MOL0     C87258   5.168   7.743  -0.133  0.9662  0.1066  0.1870
  662MOL0     C87259   5.212   7.868  -0.092 -0.1790 -0.7077  0.1572
  662MOL0     O87260   5.144   7.984  -0.131 -0.2075  0.7378  0.0858
  662MOL0     C87261   5.079   7.984  -0.259  0.4656  0.5996 -0.7818
  662MOL0     C87262   5.009   8.119  -0.264  0.5705 -0.4369 -0.6193
  662MOL0     C87263   4.922   8.142  -0.386 -1.2954  0.6167 -0.4098
  662MOL0     C87264   5.005   8.204  -0.493 -0.2271 -0.2745  0.9716
  662MOL0     C87265   4.921   8.216  -0.627 -0.0842 -0.1781 -0.2301
  662MOL0     C87266   4.885   8.087  -0.692 -0.6727  0.0269 -0.3462
  662MOL0     C87267   4.802   8.102  -0.825 -0.3934 -0.1195  0.5173
  662MOL0     C87268   4.817   7.974  -0.922  0.5299  0.0767 -0.2730
  662MOL0     N87269   4.948   7.980  -0.993 -0.2402 -0.1199  0.4907
  662MOL0     C87270   5.039   7.882  -1.012  0.4676  0.0152 -0.1069
  662MOL0     C87271   5.130   7.921  -1.100  0.0214 -0.5312 -0.1676
  662MOL0     C87272   5.265   7.858  -1.131 -0.0986  0.7692  0.6773
  662MOL0     C87273   5.370   7.842  -1.017  0.7907  0.5809  1.1966
  662MOL0     C87274   5.448   7.719  -1.053  0.6602 -0.2462 -0.6652
  662MOL0     C87275   5.577   7.723  -0.974 -0.1062 -0.3387  0.1639
  662MOL0     O87276   5.631   7.593  -0.962  0.6226 -0.0278 -0.0994
  662MOL0     C87277   5.757   7.573  -0.911  1.0321 -0.8076 -0.8448
  662MOL0     C87278   5.856   7.678  -0.905  0.5142  0.2781 -0.5755
  662MOL0     C87279   5.983   7.648  -0.850  0.2708 -0.1814 -0.7632
  662MOL0     C87280   6.013   7.516  -0.809 -0.0201  0.2233 -0.7278
  662MOL0     C87281   6.149   7.484  -0.780 -0.1195  0.2514 -0.4087
  662MOL0     O87282   6.196   7.353  -0.785  0.0045 -0.8946  0.3260
  662MOL0     C87283   6.334   7.345  -0.775  0.3482 -0.5831 -0.5304
  662MOL0     C87284   6.383   7.256  -0.884 -0.0223 -0.1053 -0.3225
  662MOL0     C87285   6.526   7.244  -0.895  0.2987 -0.0379 -0.5869
  662MOL0     C87286   6.609   7.284  -0.785  0.9216  0.3024 -0.9403
  662MOL0     O87287   6.746   7.276  -0.781 -0.7512 -0.5504 -1.1958
  662MOL0     C87288   6.812   7.255  -0.903  0.0280  0.7226  0.9799
  662MOL0     C87289   6.964   7.290  -0.863  0.6803 -0.0831  0.0375
  662MOL0     C87290   7.048   7.303  -0.983  0.2468  0.4266 -0.2977
  662MOL0     C87291   7.186   7.230  -0.973  0.4910  0.4454  0.6314
  662MOL0     C87292   7.293   7.309  -1.039 -0.1290  0.3585 -0.0037
  662MOL0     C87293   7.405   7.215  -1.105  0.1392 -0.4191 -0.1998
  662MOL0     C87294   7.525   7.298  -1.134 -0.6857  0.0816  0.1731
  662MOL0     C87295   7.512   7.434  -1.218  0.8019 -0.1210  0.0520
  662MOL0    Cl87296   7.418   7.384  -1.363 -0.6530  0.1724  0.1455
  662MOL0     C87297   6.552   7.353  -0.668  0.1414 -0.5580 -0.1747
  662MOL0     C87298   6.416   7.396  -0.671  0.7114  0.2546 -0.7211
  662MOL0     O87299   6.214   7.585  -0.748  0.5375  0.4721  0.4760
  662MOL0     C87300   5.928   7.412  -0.836 -0.5364  0.2367 -0.1425
  662MOL0     C87301   5.801   7.446  -0.870 -0.6417  0.6327  0.4414
  662MOL0     N87302   5.096   8.050  -1.123 -0.0527 -0.3193  0.3928
  662MOL0     N87303   4.982   8.085  -1.076  0.8025  0.0267 -0.2647
  662MOL0     C87304   5.307   7.881   0.008  0.1384 -0.2849  0.5548
  662MOL0     C87305   5.392   7.778   0.046  0.2639 -0.5336 -0.5527
  662MOL0     C87306   5.572   7.415   0.177  0.2295  0.3884 -0.3676
  662MOL0     C87307   5.656   7.378   0.084  0.2643 -0.3073  0.3797
  662MOL0     C87308   5.782   7.324   0.117  0.2367 -0.5537  0.3597
  662MOL0     C87309   5.816   7.282   0.247 -0.8404 -0.4033 -0.1926
  662MOL0     O87310   5.939   7.216   0.271  0.5328 -0.2676 -0.3198
  662MOL0     C87311   5.963   7.178   0.408  0.2959 -0.1320  0.2706
  662MOL0     C87312   6.057   7.272   0.479 -0.3485  0.6232  0.2879
  662MOL0     C87313   6.204   7.240   0.445 -0.5073  0.0122  0.9203
  662MOL0     C87314   6.317   7.321   0.527  0.5417  0.1381 -0.4752
  662MOL0     C87315   6.449   7.295   0.466 -0.1090 -0.6414  0.1847
  662MOL0     C87316   6.559   7.278   0.418 -0.3540  0.4133  0.3681
  662MOL0     C87317   5.719   7.320   0.344 -0.1037  0.1949 -0.5698
  662MOL0     C87318   5.605   7.392   0.315  0.0952 -0.3042 -0.6596
  662MOL0     H87319   5.223   7.531  -0.124 -0.9107  1.1601 -3.5748
  662MOL0     H87320   5.081   7.730  -0.197 -1.3833 -1.1521  3.3772
  662MOL0     H87321   5.001   7.907  -0.261  0.3258  0.4798  2.9365
  662MOL0     H87322   5.161   7.978  -0.331  1.1466  2.6733 -0.2463
  662MOL0     H87323   5.079   8.203  -0.254  0.1046 -0.2861  2.6530
  662MOL0     H87324   4.934   8.121  -0.184  0.9082  0.0514 -0.3037
  662MOL0     H87325   4.841   8.214  -0.379  0.2840  2.5965 -1.4036
  662MOL0     H87326   4.873   8.049  -0.417  0.5933 -0.2173 -1.0657
  662MOL0     H87327   5.037   8.307  -0.474  0.0988 -0.7287  3.2516
  662MOL0     H87328   5.088   8.138  -0.521 -1.6764 -1.2952 -1.1948
  662MOL0     H87329   4.973   8.272  -0.706 -1.6826  0.2589 -1.0168
  662MOL0     H87330   4.829   8.265  -0.593  0.3070  1.3254 -1.2055
  662MOL0     H87331   4.831   8.032  -0.614 -0.3663 -0.6536 -0.6091
  662MOL0     H87332   4.974   8.037  -0.731  1.1546  1.6691  1.5141
  662MOL0     H87333   4.697   8.130  -0.809 -0.4770  1.3687 -2.0525
  662MOL0     H87334   4.844   8.190  -0.874  2.5890 -0.9442  1.4341
  662MOL0     H87335   4.731   7.977  -0.989 -0.3177 -2.6849  0.5795
  662MOL0     H87336   4.818   7.879  -0.867 -1.5639 -0.3830 -0.9447
  662MOL0     H87337   5.026   7.788  -0.959 -0.7835 -1.3145 -2.6281
  662MOL0     H87338   5.298   7.899  -1.226 -1.0361  0.1548  0.0627
  662MOL0     H87339   5.235   7.758  -1.165 -0.4401  1.2360 -0.4263
  662MOL0     H87340   5.323   7.848  -0.918  1.2356  2.2902  1.3450
  662MOL0     H87341   5.429   7.934  -1.024 -0.5620  1.4524  0.8003
  662MOL0     H87342   5.386   7.630  -1.038 -0.0287  0.2452 -0.4896
  662MOL0     H87343   5.471   7.721  -1.160 -0.0756 -1.6499 -0.8704
  662MOL0     H87344   5.572   7.757  -0.870  2.1795  1.0036 -0.1031
  662MOL0     H87345   5.646   7.791  -1.026 -0.7426  0.2873  0.1082
  662MOL0     H87346   5.838   7.778  -0.942  1.6938  0.3542 -1.0085
  662MOL0     H87347   6.057   7.723  -0.826 -0.4033  0.1850  0.2358
  662MOL0     H87348   6.321   7.216  -0.963  0.9481 -3.0087  0.2233
  662MOL0     H87349   6.571   7.201  -0.984  0.0846  2.3054 -1.8832
  662MOL0     H87350   6.770   7.323  -0.978 -1.3887 -2.4657 -1.3386
  662MOL0     H87351   6.803   7.159  -0.954  0.4817  1.5364 -0.6980
  662MOL0     H87352   6.986   7.197  -0.810  0.1447  0.3728  1.0871
  662MOL0     H87353   6.961   7.372  -0.791 -3.0193 -1.6984  2.0013
  662MOL0     H87354   7.055   7.409  -1.008  0.0949  0.0856 -1.9014
  662MOL0     H87355   7.002   7.275  -1.078 -0.5797  2.2744 -0.4870
  662MOL0     H87356   7.213   7.207  -0.869  0.7992 -2.4541 -0.0161
  662MOL0     H87357   7.171   7.134  -1.024 -1.9823  0.4517  1.2123
  662MOL0     H87358   7.343   7.355  -0.954  0.7017 -0.8261  0.1767
  662MOL0     H87359   7.272   7.392  -1.107 -0.8122 -0.1400 -0.4242
  662MOL0     H87360   7.374   7.166  -1.198  3.1102 -0.0788 -1.4749
  662MOL0     H87361   7.438   7.145  -1.028 -1.8120  0.9568  2.0199
  662MOL0     H87362   7.577   7.324  -1.041 -1.3306  1.6807  0.1293
  662MOL0     H87363   7.587   7.232  -1.195 -3.1379 -0.7003 -1.6396
  662MOL0     H87364   7.604   7.491  -1.235  0.8880 -0.5870 -1.1412
  662MOL0     H87365   7.447   7.499  -1.158  0.0931 -1.0767  0.3387
  662MOL0     H87366   6.608   7.369  -0.576 -0.4954  1.8362 -0.1319
  662MOL0     H87367   6.367   7.444  -0.587  1.2798 -1.6680  0.8012
  662MOL0     H87368   5.961   7.312  -0.810  1.9067  1.2565  1.0465
  662MOL0     H87369   5.722   7.372  -0.884 -1.7823  2.1269 -1.6726
  662MOL0     H87370   5.335   7.981   0.041  1.5048 -0.5671  0.2992
  662MOL0     H87371   5.467   7.804   0.121 -2.4490 -0.8792  2.5374
  662MOL0     H87372   5.641   7.402  -0.021 -0.7341 -0.2706  0.5257
  662MOL0     H87373   5.849   7.312   0.033 -1.9868  0.5346 -1.7067
  662MOL0     H87374   6.003   7.077   0.392 -0.8805 -0.5868  0.0788
  662MOL0     H87375   5.876   7.155   0.471 -1.1594  0.0662 -1.5691
  662MOL0     H87376   6.042   7.378   0.456 -1.3252  0.3987 -0.1333
  662MOL0     H87377   6.034   7.261   0.586 -4.0718  0.1265 -0.4373
  662MOL0     H87378   6.211   7.256   0.337 -1.3838  3.5428  1.2764
  662MOL0     H87379   6.217   7.132   0.456 -1.3598 -0.1796  0.1623
  662MOL0     H87380   6.293   7.427   0.531 -4.3548 -0.5411 -3.1897
  662MOL0     H87381   6.317   7.284   0.630  0.6188  2.3241  0.3627
  662MOL0     H87382   6.653   7.257   0.372  0.5168  1.5432  1.5638
  662MOL0     H87383   5.746   7.325   0.449  1.7119 -0.7106 -0.9367
  662MOL0     H87384   5.545   7.428   0.398  0.4343 -0.0848 -0.5046
  663MOL0     O87385   0.104   3.203   1.411 -0.3114 -0.3225  0.0914
  663MOL0     C87386   0.137   3.122   1.498  0.7726  0.1878  0.5243
  663MOL0     O87387   0.054   3.023   1.535 -0.0241  0.9974 -0.0244
  663MOL0     C87388  -0.078   3.033   1.494 -0.4227  0.0819 -0.1746
  663MOL0     C87389  -0.177   3.108   1.554 -0.0971 -0.5211  0.1421
  663MOL0     C87390  -0.302   3.110   1.489 -0.4515 -1.0029  0.0351
  663MOL0     C87391  -0.342   3.031   1.380 -0.1656 -0.2587 -0.4794
  663MOL0     O87392  -0.469   3.020   1.341  0.5159 -0.5617 -0.6369
  663MOL0     C87393  -0.569   3.084   1.418  0.7079 -0.2271 -0.7008
  663MOL0     C87394  -0.704   3.047   1.358 -0.0554  0.2064  0.0987
  663MOL0     C87395  -0.750   2.904   1.383  0.0942 -0.2377 -0.1276
  663MOL0     C87396  -0.903   2.893   1.347  0.1504  1.0565  0.9692
  663MOL0     C87397  -0.947   2.748   1.314 -0.4170  0.8740  0.7423
  663MOL0     C87398  -1.096   2.751   1.285 -0.4630  0.6034 -0.6242
  663MOL0     C87399  -1.153   2.612   1.267  0.3409 -0.6199  0.1082
  663MOL0     C87400  -1.290   2.610   1.195 -1.1955  0.9217 -0.2242
  663MOL0     N87401  -1.406   2.646   1.277  0.2844 -0.1331 -0.0836
  663MOL0     C87402  -1.453   2.579   1.383 -0.0142 -0.0325 -0.2299
  663MOL0     C87403  -1.577   2.639   1.417 -0.8878 -0.1083  0.2837
  663MOL0     C87404  -1.675   2.570   1.496  0.3638 -0.3661 -0.1944
  663MOL0     C87405  -1.618   2.458   1.574 -0.1888  0.0181 -0.2708
  663MOL0     C87406  -1.621   2.332   1.488 -0.1521  0.3548 -0.2673
  663MOL0     C87407  -1.595   2.207   1.570  0.0228 -0.0298 -1.0204
  663MOL0     O87408  -1.479   2.221   1.642 -0.1570 -0.7342  0.0603
  663MOL0     C87409  -1.348   2.221   1.587 -1.4159 -0.7228 -0.8112
  663MOL0     C87410  -1.257   2.295   1.659  0.1029  0.7480  0.4748
  663MOL0     C87411  -1.136   2.336   1.607  0.2462  0.4881 -0.5964
  663MOL0     C87412  -1.086   2.290   1.485  0.7022  0.0334 -0.0396
  663MOL0     C87413  -0.951   2.325   1.448  0.8181  0.1127 -0.3906
  663MOL0     O87414  -0.927   2.332   1.313 -0.4691 -0.2525  0.2775
  663MOL0     C87415  -0.810   2.383   1.270 -0.5726 -0.5022  0.2235
  663MOL0     C87416  -0.715   2.459   1.343 -0.3485  0.3197  0.3937
  663MOL0     C87417  -0.598   2.518   1.276  0.1537 -0.0567  0.0957
  663MOL0     C87418  -0.595   2.525   1.134 -0.6025 -0.0405  0.0560
  663MOL0     O87419  -0.487   2.581   1.068  1.0162  0.7776  0.5587
  663MOL0     C87420  -0.368   2.625   1.131 -0.8214 -0.6823  0.4399
  663MOL0     C87421  -0.272   2.631   1.012 -0.2407  0.3609  0.2346
  663MOL0     C87422  -0.141   2.708   1.038 -0.2202 -0.1073 -0.1263
  663MOL0     C87423  -0.042   2.625   1.120 -0.7016  0.8771 -0.8177
  663MOL0     C87424   0.082   2.706   1.144 -0.9229  0.3944 -0.4352
  663MOL0     C87425   0.163   2.618   1.256 -0.4808 -0.7476  0.1390
  663MOL0     C87426   0.295   2.683   1.282  1.0438 -0.5341 -0.4100
  663MOL0     C87427   0.369   2.596   1.390 -0.0756  0.5551 -0.7607
  663MOL0    Cl87428   0.516   2.676   1.450  0.5235 -0.1135 -0.3011
  663MOL0     C87429  -0.698   2.472   1.059  1.5309  0.2330 -0.4336
  663MOL0     C87430  -0.800   2.393   1.126  0.1173  0.1220  0.5184
  663MOL0     O87431  -0.866   2.323   1.536  0.1759  0.1308  0.8502
  663MOL0     C87432  -1.171   2.215   1.411 -0.7276 -0.0751  0.7867
  663MOL0     C87433  -1.303   2.185   1.451  0.2272  0.4312  0.3520
  663MOL0     N87434  -1.599   2.742   1.326  0.0404  0.1188  0.1193
  663MOL0     N87435  -1.496   2.747   1.246 -1.0428 -1.1560  0.0370
  663MOL0     C87436  -0.244   2.946   1.333  0.6285  0.0267 -0.0660
  663MOL0     C87437  -0.117   2.947   1.393  0.3654  1.1608  1.0840
  663MOL0     C87438   0.280   3.120   1.540 -0.1480 -0.5548  0.1985
  663MOL0     C87439   0.340   2.994   1.572  0.1751 -0.2609  0.3997
  663MOL0     C87440   0.482   2.986   1.588  0.1565  0.8171 -1.0203
  663MOL0     C87441   0.562   3.100   1.602  0.4663 -0.2369  0.3690
  663MOL0     O87442   0.690   3.105   1.621 -0.4698 -0.8900 -0.2133
  663MOL0     C87443   0.761   2.982   1.657  0.9104  0.1669  0.0096
  663MOL0     C87444   0.913   3.007   1.657  1.2415  0.5181 -0.4477
  663MOL0     C87445   0.968   3.101   1.772  0.0527  0.0522  0.7955
  663MOL0     C87446   1.114   3.106   1.749 -0.1339  0.2293 -0.8725
  663MOL0     C87447   1.183   3.204   1.825  0.3915 -0.3850  0.1497
  663MOL0     C87448   1.259   3.281   1.889 -1.3226 -0.0003  0.8305
  663MOL0     C87449   0.499   3.220   1.568  0.3449 -1.1858 -0.5860
  663MOL0     C87450   0.364   3.234   1.528  0.2925 -0.1921 -0.2535
  663MOL0     H87451  -0.168   3.176   1.638  1.1116  2.0047 -1.9018
  663MOL0     H87452  -0.368   3.175   1.545  1.2723  1.3922 -0.5288
  663MOL0     H87453  -0.557   3.192   1.417 -2.6952  0.4429  3.0307
  663MOL0     H87454  -0.569   3.055   1.523 -0.7535 -0.0812 -0.6298
  663MOL0     H87455  -0.713   3.058   1.250  1.8068 -0.0411 -0.1140
  663MOL0     H87456  -0.773   3.118   1.406  0.4224  1.7133 -1.3649
  663MOL0     H87457  -0.743   2.866   1.485 -3.6352 -4.0300 -1.0181
  663MOL0     H87458  -0.685   2.840   1.323  0.3731  0.5303 -0.6622
  663MOL0     H87459  -0.968   2.932   1.425 -0.5805  2.4260 -0.2828
  663MOL0     H87460  -0.925   2.951   1.257  4.3440  0.5303 -0.6342
  663MOL0     H87461  -0.942   2.681   1.400  0.5691  0.7028  0.5628
  663MOL0     H87462  -0.902   2.714   1.220 -0.9610 -0.4285  0.9364
  663MOL0     H87463  -1.108   2.806   1.191  0.0929 -0.3172 -1.2496
  663MOL0     H87464  -1.166   2.808   1.346 -0.4637  0.5053 -0.5323
  663MOL0     H87465  -1.092   2.556   1.196 -0.1448 -1.7911  0.5795
  663MOL0     H87466  -1.138   2.551   1.357 -1.1425  1.0093  1.5274
  663MOL0     H87467  -1.300   2.502   1.178 -1.2466  0.8065  0.5179
  663MOL0     H87468  -1.289   2.664   1.100 -5.0186  0.3866 -0.7457
  663MOL0     H87469  -1.408   2.494   1.432  0.4240  1.0478  1.3364
  663MOL0     H87470  -1.750   2.534   1.425  2.1576  1.0809 -2.9688
  663MOL0     H87471  -1.719   2.647   1.560  2.0490 -1.5296  2.5809
  663MOL0     H87472  -1.691   2.438   1.653 -1.1712  1.0448 -0.8682
  663MOL0     H87473  -1.520   2.485   1.614 -0.2056 -0.1369 -0.1239
  663MOL0     H87474  -1.725   2.311   1.463 -1.0716  1.8454  1.9952
  663MOL0     H87475  -1.556   2.333   1.400  1.6946  0.1382  1.0238
  663MOL0     H87476  -1.589   2.124   1.500 -0.8627 -0.0363 -1.1065
  663MOL0     H87477  -1.684   2.190   1.633 -0.7581  0.3105 -2.0041
  663MOL0     H87478  -1.281   2.323   1.761 -1.1769  1.2263  0.0621
  663MOL0     H87479  -1.072   2.410   1.655 -2.1806  2.1035  0.3003
  663MOL0     H87480  -0.720   2.464   1.451 -2.3271 -0.0311  0.3484
  663MOL0     H87481  -0.524   2.551   1.348  2.3664 -2.0886 -1.1188
  663MOL0     H87482  -0.326   2.569   1.215  3.0935  1.7663  0.3656
  663MOL0     H87483  -0.393   2.728   1.156  0.3404  0.4601 -2.6083
  663MOL0     H87484  -0.319   2.691   0.934  3.3716  1.3233 -1.4162
  663MOL0     H87485  -0.250   2.532   0.971  0.3072  0.3736  0.4788
  663MOL0     H87486  -0.169   2.808   1.073 -0.6530 -0.0323 -0.6759
  663MOL0     H87487  -0.094   2.744   0.946  2.3460  0.5695  1.3403
  663MOL0     H87488  -0.087   2.604   1.218 -2.4755 -1.8379 -2.1025
  663MOL0     H87489  -0.012   2.534   1.068  3.4199  1.7604 -0.3054
  663MOL0     H87490   0.049   2.803   1.181 -0.5233  1.7450 -3.3176
  663MOL0     H87491   0.143   2.722   1.054  1.1073 -1.0727  0.5761
  663MOL0     H87492   0.187   2.514   1.233  0.4351 -0.6515  0.6379
  663MOL0     H87493   0.098   2.605   1.344  0.1096  0.4220  0.7798
  663MOL0     H87494   0.352   2.700   1.190  0.7689 -0.2210 -0.5248
  663MOL0     H87495   0.270   2.774   1.338 -1.0747 -0.7652 -0.8857
  663MOL0     H87496   0.381   2.498   1.342 -3.8568  0.9796 -2.9697
  663MOL0     H87497   0.312   2.576   1.481  0.4663 -0.5533 -0.6474
  663MOL0     H87498  -0.701   2.464   0.951 -2.0468  0.1667 -0.4446
  663MOL0     H87499  -0.888   2.351   1.078 -0.2562  0.2115  1.1108
  663MOL0     H87500  -1.142   2.171   1.316  0.1392 -0.2323  1.1207
  663MOL0     H87501  -1.367   2.131   1.382  0.8842 -1.2204  1.0023
  663MOL0     H87502  -0.265   2.899   1.238  0.5325  3.4892 -1.9457
  663MOL0     H87503  -0.036   2.879   1.367 -0.8436 -0.6658  1.8203
  663MOL0     H87504   0.286   2.902   1.593  1.0457 -0.3397  2.6178
  663MOL0     H87505   0.530   2.891   1.612 -0.3605  1.2300  2.1345
  663MOL0     H87506   0.735   2.904   1.585 -2.1087  2.5935 -1.8004
  663MOL0     H87507   0.731   2.963   1.760  2.1957  0.0254  0.3819
  663MOL0     H87508   0.961   2.909   1.660  1.3066  0.5714  1.9726
  663MOL0     H87509   0.943   3.035   1.556  3.7114 -3.4912 -1.0086
  663MOL0     H87510   0.947   3.060   1.871 -0.2979 -3.3698 -0.5656
  663MOL0     H87511   0.933   3.205   1.764  1.6071  0.5044 -0.9576
  663MOL0     H87512   1.160   3.008   1.761 -0.2210  0.3916  1.2046
  663MOL0     H87513   1.134   3.129   1.644 -2.5003  2.2368 -0.9797
  663MOL0     H87514   1.320   3.362   1.924 -1.4668  0.7488 -0.5544
  663MOL0     H87515   0.563   3.306   1.585 -0.5719 -1.1846  4.9236
  663MOL0     H87516   0.320   3.325   1.489  0.3528 -0.9820 -2.2464
  664MOL0     O87517   7.845   6.897  10.733 -0.0092  0.1189  0.1450
  664MOL0     C87518   7.852   6.857  10.850  0.7152 -0.2379 -0.5007
  664MOL0     O87519   7.745   6.808  10.917  0.2026  0.5792 -0.0696
  664MOL0     C87520   7.623   6.781  10.857 -0.2849  0.2351 -0.4759
  664MOL0     C87521   7.605   6.677  10.765 -0.1637 -0.9817  0.1309
  664MOL0     C87522   7.474   6.658  10.715  0.3816  0.3036 -0.6388
  664MOL0     C87523   7.366   6.739  10.747  0.1576  0.0704 -1.1783
  664MOL0     O87524   7.236   6.703  10.699 -0.1656  0.2852 -0.4400
  664MOL0     C87525   7.144   6.688  10.809 -0.3293  0.9301 -0.0637
  664MOL0     C87526   7.040   6.586  10.765  0.7720 -0.3413 -0.3247
  664MOL0     C87527   6.894   6.606  10.812 -0.8440  0.4897  0.2066
  664MOL0     C87528   6.869   6.582  10.960  0.1319  0.6802 -1.1388
  664MOL0     C87529   6.729   6.586  11.011  0.2282 -0.0293 -0.0676
  664MOL0     C87530   6.658   6.721  10.995  0.4887 -0.1100  0.3370
  664MOL0     C87531   6.509   6.704  10.967 -0.3545  0.4095 -1.0413
  664MOL0     C87532   6.422   6.788  11.067  0.8441 -0.3355  0.4736
  664MOL0     N87533   6.288   6.736  11.085 -0.3636 -0.5531  0.1141
  664MOL0     C87534   6.190   6.752  10.988 -0.1876  0.0894  0.0942
  664MOL0     C87535   6.076   6.710  11.030 -0.1331 -0.2974  0.0121
  664MOL0     C87536   5.950   6.693  10.949  1.2440 -0.1275 -0.2668
  664MOL0     C87537   5.961   6.611  10.829 -0.2641  0.1217  0.4750
  664MOL0     C87538   6.010   6.466  10.866 -0.3453  0.3127 -0.4179
  664MOL0     C87539   6.154   6.443  10.831 -0.4083  0.4750  0.0166
  664MOL0     O87540   6.207   6.462  10.696 -0.0016 -0.3401 -0.5012
  664MOL0     C87541   6.327   6.425  10.657 -0.6949 -0.1662 -0.2273
  664MOL0     C87542   6.343   6.414  10.522 -0.2003 -0.5055  0.4650
  664MOL0     C87543   6.471   6.379  10.471 -0.0006  0.2023 -0.4051
  664MOL0     C87544   6.582   6.343  10.552  0.2870 -1.1639 -0.3410
  664MOL0     C87545   6.717   6.309  10.496 -1.2653  0.5428 -0.7800
  664MOL0     O87546   6.818   6.293  10.586 -0.7864 -0.1178 -0.6419
  664MOL0     C87547   6.950   6.297  10.542 -0.2747 -0.1673  1.2710
  664MOL0     C87548   7.052   6.244  10.621 -0.2086  0.5826 -0.1824
  664MOL0     C87549   7.183   6.255  10.577  0.2952  0.2019 -0.1706
  664MOL0     C87550   7.222   6.327  10.465  0.5936 -0.0407  0.3834
  664MOL0     O87551   7.360   6.335  10.442  0.3791  0.0320  0.6060
  664MOL0     C87552   7.397   6.411  10.336 -0.0565  0.0682 -0.1105
  664MOL0     C87553   7.549   6.406  10.314 -0.0761 -0.4897 -0.6465
  664MOL0     C87554   7.634   6.484  10.419  0.7022  0.0110 -0.4100
  664MOL0     C87555   7.776   6.492  10.365 -0.1229  0.1299  0.8145
  664MOL0     C87556   7.851   6.571  10.469  0.2172 -0.0094  0.8146
  664MOL0     C87557   8.008   6.554  10.467 -0.8922  0.3667  0.7517
  664MOL0     C87558   8.075   6.629  10.577  0.7309 -0.3905  0.2027
  664MOL0     C87559   8.224   6.649  10.561  0.4212 -0.2122 -0.0502
  664MOL0    Cl87560   8.332   6.502  10.533 -0.5507  0.0295 -0.1637
  664MOL0     C87561   7.123   6.385  10.387  0.2627 -0.5166  0.3461
  664MOL0     C87562   6.990   6.362  10.417  1.5487 -0.0448  0.0140
  664MOL0     O87563   6.722   6.275  10.377 -0.2299 -0.3479  0.4227
  664MOL0     C87564   6.551   6.350  10.692  1.0394  1.4327 -0.0311
  664MOL0     C87565   6.427   6.390  10.751 -0.5945 -0.3453  0.6657
  664MOL0     N87566   6.101   6.674  11.161  0.3427  0.0054  0.1340
  664MOL0     N87567   6.222   6.684  11.191 -0.9800  0.9932  0.9154
  664MOL0     C87568   7.383   6.843  10.844 -0.2035  0.2055 -0.6076
  664MOL0     C87569   7.512   6.853  10.901  0.4349 -0.5465  1.0931
  664MOL0     C87570   7.975   6.877  10.930  0.3418 -0.1769  0.0806
  664MOL0     C87571   8.104   6.885  10.869  0.5856  0.3152 -0.7141
  664MOL0     C87572   8.213   6.911  10.959 -0.4738 -0.3735  0.6544
  664MOL0     C87573   8.205   6.900  11.091 -0.2684 -0.1886 -0.4581
  664MOL0     O87574   8.325   6.917  11.157 -0.0178  0.2919 -0.1079
  664MOL0     C87575   8.332   6.890  11.295  0.7535 -0.3831 -0.4857
  664MOL0     C87576   8.293   7.015  11.373 -0.1956 -0.3271 -0.1202
  664MOL0     C87577   8.331   6.986  11.522  0.0912 -0.2244 -0.0969
  664MOL0     C87578   8.257   7.077  11.615 -0.2539  0.6221  0.0162
  664MOL0     C87579   8.313   7.073  11.753  0.9974 -0.6355 -0.1328
  664MOL0     C87580   8.345   7.094  11.870 -0.3373  0.2364 -0.0057
  664MOL0     C87581   8.081   6.879  11.155  0.0219  0.4805  0.4618
  664MOL0     C87582   7.965   6.874  11.074 -0.3310 -0.2679  0.6264
  664MOL0     H87583   7.692   6.614  10.751  1.3184  0.8195  0.8051
  664MOL0     H87584   7.456   6.572  10.651 -3.2048 -0.1229  0.6817
  664MOL0     H87585   7.097   6.787  10.822  1.5404  1.6390  1.8623
  664MOL0     H87586   7.182   6.654  10.906 -0.8073  3.3075  1.0579
  664MOL0     H87587   7.071   6.484  10.789  0.6062 -0.1108  0.9407
  664MOL0     H87588   7.043   6.606  10.657  1.3448 -0.8662 -0.4124
  664MOL0     H87589   6.832   6.540  10.751  0.1366 -3.2611  2.9041
  664MOL0     H87590   6.853   6.704  10.786 -0.4700  0.5466 -0.1653
  664MOL0     H87591   6.911   6.483  10.981  1.6754  1.2888 -1.2512
  664MOL0     H87592   6.939   6.645  11.016  0.3797 -0.9401  0.4552
  664MOL0     H87593   6.718   6.555  11.115  0.1009 -0.0843 -0.0974
  664MOL0     H87594   6.672   6.512  10.954 -4.5205  1.1266  2.6095
  664MOL0     H87595   6.697   6.781  10.913  2.3910 -1.2511  0.3677
  664MOL0     H87596   6.676   6.769  11.092  2.6011 -4.4107  2.3660
  664MOL0     H87597   6.478   6.724  10.864 -1.2003 -2.4616 -1.4329
  664MOL0     H87598   6.481   6.598  10.973  0.1480  0.3420  0.4750
  664MOL0     H87599   6.426   6.894  11.040 -0.5965 -0.3605  0.0745
  664MOL0     H87600   6.463   6.786  11.168  1.7466 -2.8533  0.1168
  664MOL0     H87601   6.230   6.789  10.893  3.5507 -1.6752  0.7909
  664MOL0     H87602   5.918   6.795  10.927 -0.7208 -0.6719 -0.0785
  664MOL0     H87603   5.875   6.652  11.017  1.6569 -1.5542 -0.6231
  664MOL0     H87604   6.027   6.662  10.758  1.3306 -1.1123  0.9946
  664MOL0     H87605   5.868   6.606  10.772 -1.2607 -2.3968  2.1239
  664MOL0     H87606   6.007   6.442  10.973  1.2605 -3.4907 -1.0654
  664MOL0     H87607   5.959   6.394  10.801  2.0864 -2.0466  0.1014
  664MOL0     H87608   6.182   6.342  10.861  3.9180  1.7047  0.7686
  664MOL0     H87609   6.215   6.502  10.900  0.6648  3.0338 -2.8732
  664MOL0     H87610   6.263   6.442  10.454  2.1623  1.5483 -1.6581
  664MOL0     H87611   6.493   6.389  10.365 -1.0508  0.9858 -0.5617
  664MOL0     H87612   7.018   6.189  10.709 -1.8830  0.1046 -1.0767
  664MOL0     H87613   7.269   6.202  10.618  1.4226  1.6803 -0.5093
  664MOL0     H87614   7.370   6.515  10.357  0.7685  0.2446  0.0909
  664MOL0     H87615   7.355   6.365  10.246  2.1069 -2.4513  0.0326
  664MOL0     H87616   7.558   6.443  10.211 -4.2274  2.9813 -0.0267
  664MOL0     H87617   7.563   6.298  10.309 -1.6115 -0.6323 -3.6130
  664MOL0     H87618   7.646   6.418  10.505 -1.4022 -0.3434 -0.3393
  664MOL0     H87619   7.595   6.585  10.436  1.4231 -0.1255  2.5007
  664MOL0     H87620   7.827   6.398  10.344  0.5077  0.9341 -1.4609
  664MOL0     H87621   7.780   6.550  10.272 -0.1002 -1.2069 -0.0387
  664MOL0     H87622   7.814   6.542  10.568 -0.6628  1.4379  0.9352
  664MOL0     H87623   7.831   6.678  10.463  0.3826  0.0868  1.7239
  664MOL0     H87624   8.056   6.586  10.374 -0.7614 -4.8232 -1.3281
  664MOL0     H87625   8.033   6.448  10.477 -0.1976  0.5158  0.6206
  664MOL0     H87626   8.043   6.732  10.597 -0.7884 -0.4308 -1.6848
  664MOL0     H87627   8.050   6.563  10.661  1.7053 -0.9251  0.0850
  664MOL0     H87628   8.257   6.708  10.648 -3.9817 -0.8203  2.3426
  664MOL0     H87629   8.238   6.710  10.472  3.6264 -1.1515 -0.3354
  664MOL0     H87630   7.141   6.433  10.291  0.6231  1.9138  1.5670
  664MOL0     H87631   6.917   6.410  10.353  0.2285 -0.6010  1.0406
  664MOL0     H87632   6.625   6.319  10.765 -1.0236 -1.0224  1.1530
  664MOL0     H87633   6.407   6.404  10.857  0.2173  3.2294  0.4816
  664MOL0     H87634   7.308   6.909  10.886 -1.8322 -0.9675 -1.5417
  664MOL0     H87635   7.536   6.914  10.987  1.0223 -1.2237  1.4188
  664MOL0     H87636   8.119   6.895  10.762 -3.9254 -0.5720 -1.6552
  664MOL0     H87637   8.306   6.949  10.919 -0.7142 -0.1583  0.2987
  664MOL0     H87638   8.437   6.881  11.324  0.8551  1.5628 -0.1139
  664MOL0     H87639   8.278   6.798  11.321  0.9036 -1.0355 -2.3250
  664MOL0     H87640   8.335   7.113  11.347  1.5569  0.0401  3.5008
  664MOL0     H87641   8.185   7.029  11.363 -0.5732  0.6899  3.8623
  664MOL0     H87642   8.440   6.992  11.535  0.1208  3.2550 -0.8548
  664MOL0     H87643   8.308   6.885  11.555  2.1730 -0.6268  0.2630
  664MOL0     H87644   8.284   7.178  11.585  1.0600 -0.0590 -1.1810
  664MOL0     H87645   8.149   7.062  11.616 -0.2727  0.6485 -0.9846
  664MOL0     H87646   8.385   7.118  11.967 -1.3573  2.4917 -0.0805
  664MOL0     H87647   8.069   6.875  11.262 -1.0469  1.9178  0.4262
  664MOL0     H87648   7.869   6.866  11.126 -1.2750  1.8874 -0.6772
  665MOL0     O87649   4.203   2.121   7.723 -0.5449  0.0312 -0.3230
  665MOL0     C87650   4.165   2.020   7.662  0.1236  0.3810 -0.2846
  665MOL0     O87651   4.039   1.991   7.626  0.4961  0.5327 -1.1462
  665MOL0     C87652   3.930   2.073   7.650 -0.2801 -0.5516  0.4401
  665MOL0     C87653   3.815   2.025   7.590  0.0091 -0.1770  0.8990
  665MOL0     C87654   3.691   2.089   7.596  0.6437 -0.1421  0.3530
  665MOL0     C87655   3.677   2.204   7.672 -0.5242  0.3735  0.8106
  665MOL0     O87656   3.547   2.269   7.678 -0.3647  0.2360  0.2814
  665MOL0     C87657   3.547   2.411   7.700  0.1884 -1.2968 -0.5939
  665MOL0     C87658   3.394   2.450   7.718  0.3758  0.1496 -0.4550
  665MOL0     C87659   3.334   2.440   7.863 -0.6899 -0.0968  1.0707
  665MOL0     C87660   3.189   2.478   7.845  1.3319 -0.0242 -1.5541
  665MOL0     C87661   3.118   2.451   7.980  0.2665 -0.2659 -0.3923
  665MOL0     C87662   2.971   2.498   7.987  0.3131 -0.6444  0.0778
  665MOL0     C87663   2.890   2.439   8.095 -0.1339 -0.3379 -0.0388
  665MOL0     C87664   2.735   2.467   8.080 -0.3159 -0.8526  0.4073
  665MOL0     N87665   2.703   2.615   8.101  0.0121  0.0899 -0.2053
  665MOL0     C87666   2.642   2.667   8.210  0.4439 -0.0072 -0.4761
  665MOL0     C87667   2.601   2.796   8.184 -1.1040 -0.3011 -0.0972
  665MOL0     C87668   2.510   2.891   8.254  0.1075 -0.3910  0.2324
  665MOL0     C87669   2.376   2.889   8.204 -0.7284  0.1187  0.6015
  665MOL0     C87670   2.281   2.984   8.272 -0.5400 -0.4720  0.2098
  665MOL0     C87671   2.289   3.113   8.192  0.0280  0.1409  0.1991
  665MOL0     O87672   2.206   3.109   8.075 -0.5750  0.2733  0.0214
  665MOL0     C87673   2.092   3.180   8.065 -0.2822 -0.2020  0.5212
  665MOL0     C87674   2.052   3.297   8.128  0.7327 -0.4131 -0.3155
  665MOL0     C87675   1.923   3.343   8.121  0.3155 -0.3848  0.2333
  665MOL0     C87676   1.829   3.287   8.042  0.7666  0.2657 -0.5330
  665MOL0     C87677   1.687   3.316   8.069 -0.4649  0.5638  0.1362
  665MOL0     O87678   1.594   3.216   8.066  0.4759  0.0343 -0.1097
  665MOL0     C87679   1.467   3.252   8.083  0.5974 -0.7014  0.3637
  665MOL0     C87680   1.371   3.242   7.981  0.9173 -0.1531 -0.1216
  665MOL0     C87681   1.236   3.280   8.005 -0.0021  0.2411 -0.0160
  665MOL0     C87682   1.198   3.319   8.127  0.1953  0.6764  0.6468
  665MOL0     O87683   1.057   3.339   8.127 -0.8599  0.9065 -0.2159
  665MOL0     C87684   1.005   3.452   8.198  0.6583 -0.3793 -0.1896
  665MOL0     C87685   0.866   3.469   8.137  0.1894 -0.1551 -0.0447
  665MOL0     C87686   0.802   3.609   8.151  0.0342 -0.4053  0.0977
  665MOL0     C87687   0.663   3.615   8.093 -0.0395  0.3813  0.0963
  665MOL0     C87688   0.577   3.733   8.147 -0.2541  0.2637 -0.0166
  665MOL0     C87689   0.516   3.705   8.282 -0.6931  0.3595  0.3811
  665MOL0     C87690   0.464   3.839   8.335 -0.2478 -0.2680  0.1407
  665MOL0     C87691   0.428   3.820   8.491  0.7612  0.5627  0.5744
  665MOL0    Cl87692   0.571   3.846   8.592  0.2881  0.0072 -0.1471
  665MOL0     C87693   1.285   3.329   8.230 -0.0550 -0.4783  0.0826
  665MOL0     C87694   1.425   3.303   8.209  0.0415 -1.2761  0.6776
  665MOL0     O87695   1.674   3.426   8.117 -0.5286 -0.4351 -0.1619
  665MOL0     C87696   1.871   3.178   7.969 -0.4832 -1.3635 -0.9674
  665MOL0     C87697   2.003   3.127   7.977 -0.0875  0.3247 -0.4605
  665MOL0     N87698   2.654   2.827   8.061 -0.0757 -0.8372 -0.2572
  665MOL0     N87699   2.706   2.722   8.012  0.8434 -0.6899 -0.6416
  665MOL0     C87700   3.795   2.254   7.742 -0.9438  0.7687  0.6138
  665MOL0     C87701   3.919   2.191   7.720 -0.1954 -0.6307 -0.3237
  665MOL0     C87702   4.271   1.931   7.634 -0.1509  0.4428 -0.3918
  665MOL0     C87703   4.243   1.826   7.547  0.5634 -0.4245  0.1820
  665MOL0     C87704   4.349   1.743   7.508 -0.2081 -1.0177 -0.3381
  665MOL0     C87705   4.481   1.762   7.556  0.1552  0.0394  0.5635
  665MOL0     O87706   4.579   1.680   7.508 -0.5353  0.5401 -0.3353
  665MOL0     C87707   4.722   1.705   7.533  0.3467  0.6201  0.4601
  665MOL0     C87708   4.760   1.649   7.673  0.5946 -0.7699 -0.3097
  665MOL0     C87709   4.887   1.719   7.702  0.3626 -0.8419  0.1409
  665MOL0     C87710   4.960   1.677   7.831  0.7125 -0.1204 -0.3584
  665MOL0     C87711   5.064   1.780   7.864 -0.4010  0.5132 -0.6257
  665MOL0     C87712   5.155   1.859   7.883  0.1766  0.1051 -0.6666
  665MOL0     C87713   4.499   1.862   7.653  0.6422  0.6476 -0.6820
  665MOL0     C87714   4.395   1.937   7.701  0.8353 -1.0104  0.7223
  665MOL0     H87715   3.813   1.940   7.522  0.2801 -0.6250  1.4443
  665MOL0     H87716   3.608   2.074   7.527  1.6335  2.4976 -1.5741
  665MOL0     H87717   3.608   2.468   7.630  1.0013 -2.7718 -1.1430
  665MOL0     H87718   3.597   2.437   7.794 -3.3952 -0.2959  1.2155
  665MOL0     H87719   3.331   2.386   7.657  0.5684  1.5375 -2.1829
  665MOL0     H87720   3.373   2.552   7.685  0.1262  0.6622  1.1815
  665MOL0     H87721   3.380   2.515   7.928  0.8664 -0.1427  0.0448
  665MOL0     H87722   3.357   2.348   7.917  0.0885  1.1009  2.8725
  665MOL0     H87723   3.179   2.586   7.832 -1.3198  0.4980  2.6926
  665MOL0     H87724   3.130   2.429   7.767  1.3856 -1.2191 -0.8636
  665MOL0     H87725   3.178   2.502   8.056 -1.2727 -1.0733  1.4585
  665MOL0     H87726   3.126   2.346   8.010  0.4248 -0.0120  0.4664
  665MOL0     H87727   2.919   2.469   7.895 -1.2020  0.6305  0.5012
  665MOL0     H87728   2.974   2.607   7.995 -1.4329 -0.3779 -2.0506
  665MOL0     H87729   2.895   2.330   8.091  0.2802 -0.3028 -0.6109
  665MOL0     H87730   2.920   2.470   8.196 -1.5102 -1.1183  0.6397
  665MOL0     H87731   2.694   2.400   8.156 -0.9026 -2.9816 -1.6425
  665MOL0     H87732   2.688   2.434   7.987  0.5972  1.1290 -0.8126
  665MOL0     H87733   2.621   2.615   8.303 -2.0190 -0.3467 -1.1603
  665MOL0     H87734   2.548   2.993   8.247  0.7420 -0.7643 -3.8924
  665MOL0     H87735   2.504   2.877   8.363 -0.4857 -1.8542  0.0381
  665MOL0     H87736   2.354   2.782   8.210  1.9186 -0.6790 -1.9826
  665MOL0     H87737   2.384   2.909   8.097  3.7763 -1.9454  0.3242
  665MOL0     H87738   2.184   2.935   8.261 -1.4702  1.4748 -0.6874
  665MOL0     H87739   2.307   2.994   8.378 -1.7772 -3.1470  0.8363
  665MOL0     H87740   2.395   3.131   8.175 -0.2209  1.4190 -0.1368
  665MOL0     H87741   2.256   3.196   8.256 -2.5181  0.1458 -0.9703
  665MOL0     H87742   2.117   3.348   8.199  2.0154 -3.1727  0.6699
  665MOL0     H87743   1.897   3.420   8.193  0.0025 -1.2417  1.0523
  665MOL0     H87744   1.404   3.208   7.883  3.5247  2.6679 -0.3686
  665MOL0     H87745   1.163   3.278   7.924  1.1652  0.6098 -1.1110
  665MOL0     H87746   1.060   3.546   8.182 -0.6616  0.4889  0.2308
  665MOL0     H87747   0.991   3.427   8.304 -3.9608 -2.0009 -0.9825
  665MOL0     H87748   0.796   3.401   8.188  0.5025 -0.4169  0.0418
  665MOL0     H87749   0.865   3.430   8.035 -2.0433 -1.8483  0.5457
  665MOL0     H87750   0.858   3.694   8.110  0.0212 -0.8585 -0.8620
  665MOL0     H87751   0.808   3.621   8.260 -0.1541 -3.5312  0.5333
  665MOL0     H87752   0.673   3.624   7.985 -1.2398  0.8961  0.0114
  665MOL0     H87753   0.619   3.517   8.116  0.9579  0.7859  4.7240
  665MOL0     H87754   0.501   3.743   8.069  2.2310 -0.8915 -2.8035
  665MOL0     H87755   0.642   3.820   8.156  1.0500 -0.7968  1.3534
  665MOL0     H87756   0.601   3.676   8.345  0.3338 -0.6731 -1.4162
  665MOL0     H87757   0.440   3.626   8.275 -2.2431  1.9588 -1.8338
  665MOL0     H87758   0.540   3.917   8.338 -0.6258  0.0914  2.0956
  665MOL0     H87759   0.374   3.873   8.284  0.2189  3.2001  1.3718
  665MOL0     H87760   0.393   3.720   8.520  0.0210  0.6373 -0.0310
  665MOL0     H87761   0.342   3.880   8.522  1.1030  0.0965  2.5577
  665MOL0     H87762   1.239   3.357   8.324 -0.4045  0.0632 -0.2403
  665MOL0     H87763   1.499   3.316   8.287  1.7671 -0.4498 -1.0057
  665MOL0     H87764   1.804   3.133   7.897  0.6071 -0.9842 -2.2533
  665MOL0     H87765   2.031   3.040   7.918 -3.0707 -0.9376 -0.2002
  665MOL0     H87766   3.785   2.350   7.791  0.4261  2.4714 -2.1747
  665MOL0     H87767   4.012   2.239   7.750  0.1719 -2.4928  1.7078
  665MOL0     H87768   4.143   1.801   7.512 -1.3301  0.9372  4.0814
  665MOL0     H87769   4.338   1.653   7.449 -1.6861 -1.0116 -0.1204
  665MOL0     H87770   4.747   1.809   7.514 -1.3994  1.3156  1.7607
  665MOL0     H87771   4.770   1.662   7.445 -0.8250 -0.9823  0.5541
  665MOL0     H87772   4.686   1.662   7.752  0.9744 -1.0343  0.0975
  665MOL0     H87773   4.780   1.542   7.664  0.8478 -0.7667  0.1624
  665MOL0     H87774   4.855   1.821   7.726 -0.9315 -1.3203  0.5436
  665MOL0     H87775   4.948   1.718   7.612 -2.1730  0.6158 -1.7242
  665MOL0     H87776   4.891   1.669   7.915 -0.8040 -1.4056 -1.6659
  665MOL0     H87777   5.001   1.576   7.821 -0.6741 -0.9067  1.4589
  665MOL0     H87778   5.229   1.931   7.913  2.4937 -1.1185 -3.0087
  665MOL0     H87779   4.597   1.868   7.701  0.9793 -5.6751  0.3111
  665MOL0     H87780   4.413   2.028   7.757  1.5306  0.5460 -1.8378
  666MOL0     O87781   8.839   7.381   2.260  0.4494 -0.1153 -0.3526
  666MOL0     C87782   8.851   7.409   2.142  0.5144  0.8645 -0.5447
  666MOL0     O87783   8.759   7.373   2.046  1.0901 -0.0047 -0.3462
  666MOL0     C87784   8.627   7.336   2.072  0.1348 -0.0791 -0.5167
  666MOL0     C87785   8.559   7.377   2.185  0.3100 -0.7411  0.3949
  666MOL0     C87786   8.433   7.332   2.211 -0.7018 -0.5713  1.3980
  666MOL0     C87787   8.366   7.241   2.123  0.9165 -0.7288  0.6475
  666MOL0     O87788   8.244   7.185   2.172 -0.4905 -0.0456  0.3545
  666MOL0     C87789   8.177   7.091   2.085  0.2160 -0.3773 -0.0870
  666MOL0     C87790   8.029   7.099   2.126 -0.3864 -0.0375  0.1234
  666MOL0     C87791   7.948   7.003   2.048  0.6009 -0.8236  0.4997
  666MOL0     C87792   7.805   7.066   2.065 -0.2486 -1.0449 -0.2647
  666MOL0     C87793   7.695   6.961   2.036 -0.1455  0.3790 -0.2138
  666MOL0     C87794   7.562   7.014   2.075  0.8046  1.0331  0.7046
  666MOL0     C87795   7.443   6.928   2.035 -0.2092  0.4667 -0.4596
  666MOL0     C87796   7.306   6.999   2.066 -0.1571  0.3151  0.6485
  666MOL0     N87797   7.207   6.894   2.078  0.0858 -0.6553 -0.7303
  666MOL0     C87798   7.157   6.839   2.189  0.2557 -0.5470  0.6094
  666MOL0     C87799   7.060   6.753   2.136 -0.2404 -0.1377  0.7743
  666MOL0     C87800   6.960   6.661   2.210 -0.1323 -0.2634 -0.4307
  666MOL0     C87801   6.886   6.571   2.108  0.3499  0.4220 -0.9422
  666MOL0     C87802   6.752   6.531   2.159 -0.6248  0.2780 -0.2087
  666MOL0     C87803   6.651   6.633   2.207  0.0852 -0.4741  0.3747
  666MOL0     O87804   6.604   6.717   2.101 -0.4610  0.4839  0.5326
  666MOL0     C87805   6.538   6.831   2.137  1.2741 -0.2656  0.2570
  666MOL0     C87806   6.446   6.839   2.241  1.0102  0.3524 -0.2473
  666MOL0     C87807   6.384   6.954   2.282  0.3140 -0.3184  0.8325
  666MOL0     C87808   6.387   7.065   2.207  0.4760 -0.4714 -0.6173
  666MOL0     C87809   6.311   7.193   2.236 -0.8266 -0.6140  0.8059
  666MOL0     O87810   6.293   7.284   2.140  0.4750  0.2202  0.7506
  666MOL0     C87811   6.230   7.404   2.169  1.4307  0.1628  0.8847
  666MOL0     C87812   6.135   7.455   2.072 -1.4220 -0.5627 -0.3078
  666MOL0     C87813   6.064   7.579   2.098  0.1275 -0.9475 -0.1462
  666MOL0     C87814   6.092   7.651   2.212  0.0419  0.6444 -0.5626
  666MOL0     O87815   6.035   7.775   2.245 -0.2790 -0.2405  0.1494
  666MOL0     C87816   5.893   7.793   2.207 -0.1330  0.4909 -0.2903
  666MOL0     C87817   5.841   7.928   2.260  0.4107 -0.7301  0.7029
  666MOL0     C87818   5.714   7.991   2.203  0.1985  0.9866  1.0517
  666MOL0     C87819   5.651   8.100   2.280 -0.5519 -0.9394 -0.2357
  666MOL0     C87820   5.547   8.171   2.187 -0.0326 -0.5161 -0.8386
  666MOL0     C87821   5.462   8.259   2.273  0.6764 -0.8745 -0.7415
  666MOL0     C87822   5.533   8.387   2.308  0.2946  0.0492 -0.0653
  666MOL0     C87823   5.442   8.487   2.377  0.1749 -1.1738  0.4248
  666MOL0    Cl87824   5.303   8.526   2.265 -0.2303  0.1184 -0.1652
  666MOL0     C87825   6.185   7.600   2.297 -0.3227 -0.0929  0.4267
  666MOL0     C87826   6.250   7.479   2.282 -0.5767 -0.0117 -0.6784
  666MOL0     O87827   6.267   7.190   2.349 -0.5088  1.3511  0.1097
  666MOL0     C87828   6.474   7.064   2.096 -0.3595 -0.2279 -0.6972
  666MOL0     C87829   6.553   6.951   2.067  0.2355  0.5720 -0.0821
  666MOL0     N87830   7.064   6.760   2.001  0.8139 -0.6482  0.2372
  666MOL0     N87831   7.129   6.858   1.973 -0.6238  0.1600  0.7209
  666MOL0     C87832   8.433   7.202   2.001 -0.2604 -0.3270 -0.5006
  666MOL0     C87833   8.561   7.248   1.978  0.0000  0.7972 -0.6231
  666MOL0     C87834   8.981   7.457   2.096 -0.2314  1.0646 -0.5085
  666MOL0     C87835   9.099   7.422   2.149 -0.2879  0.8726 -0.1495
  666MOL0     C87836   9.223   7.461   2.083  0.2452 -0.7114 -0.5726
  666MOL0     C87837   9.221   7.551   1.969 -0.7850 -0.5428  0.0805
  666MOL0     O87838   9.337   7.593   1.893  0.4280 -0.6180  0.3764
  666MOL0     C87839   9.457   7.511   1.898 -0.2475  0.0057  0.0274
  666MOL0     C87840   9.432   7.391   1.800 -0.7252  0.8193  0.0158
  666MOL0     C87841   9.520   7.270   1.838 -0.9279  0.3391 -0.0487
  666MOL0     C87842   9.513   7.152   1.743  1.0477 -1.3163 -0.1017
  666MOL0     C87843   9.625   7.064   1.756  0.9294 -0.1547 -0.8088
  666MOL0     C87844   9.727   6.999   1.770  0.2815  0.3704  0.1631
  666MOL0     C87845   9.091   7.586   1.924  0.0416 -0.0947  0.1745
  666MOL0     C87846   8.982   7.543   1.988  0.0221  0.1835  0.2767
  666MOL0     H87847   8.605   7.442   2.259  1.2919 -1.7907  0.7336
  666MOL0     H87848   8.395   7.378   2.302  0.9999 -0.7891  2.2569
  666MOL0     H87849   8.206   6.989   2.110  1.3002 -0.1510 -0.3845
  666MOL0     H87850   8.182   7.118   1.979 -2.3598  2.3886  0.3370
  666MOL0     H87851   8.005   7.201   2.093 -1.5218  0.2086  1.6059
  666MOL0     H87852   8.012   7.081   2.232 -0.7298 -3.1990 -0.3565
  666MOL0     H87853   7.943   6.901   2.088  2.3397 -0.8079  0.8010
  666MOL0     H87854   7.998   6.994   1.951 -0.0222  1.3438 -0.0769
  666MOL0     H87855   7.787   7.111   2.163 -0.7810  0.3033 -0.9568
  666MOL0     H87856   7.797   7.154   2.000  1.0541  1.0063  2.1700
  666MOL0     H87857   7.715   6.870   2.093  5.3933  0.8528 -0.8449
  666MOL0     H87858   7.692   6.939   1.929 -1.7075  0.0358 -0.1243
  666MOL0     H87859   7.549   7.112   2.028 -2.4322  0.5549  0.3854
  666MOL0     H87860   7.553   7.019   2.184  0.6888 -2.1533  0.9426
  666MOL0     H87861   7.460   6.915   1.927 -0.3371 -2.0480 -0.2404
  666MOL0     H87862   7.436   6.835   2.091 -2.8458 -1.7566 -4.0529
  666MOL0     H87863   7.277   7.061   1.981  1.5349 -0.4295 -0.5196
  666MOL0     H87864   7.316   7.046   2.164 -0.7901 -0.4210  1.0777
  666MOL0     H87865   7.189   6.843   2.293 -0.4184  1.3601  0.7959
  666MOL0     H87866   6.890   6.718   2.271  0.3895 -1.0317  0.9128
  666MOL0     H87867   7.020   6.599   2.277 -0.2994 -0.7153 -0.6910
  666MOL0     H87868   6.938   6.477   2.090 -0.4677 -0.4581  1.0098
  666MOL0     H87869   6.870   6.619   2.010  1.1627  0.4184 -1.0805
  666MOL0     H87870   6.703   6.468   2.084  1.7700 -2.0577  0.0511
  666MOL0     H87871   6.769   6.458   2.239 -1.6138 -1.1755 -1.2583
  666MOL0     H87872   6.687   6.681   2.298  1.9188 -3.9420  1.6363
  666MOL0     H87873   6.571   6.571   2.248 -1.2274 -1.5383 -3.4104
  666MOL0     H87874   6.429   6.751   2.302 -0.0926 -0.3243 -1.4827
  666MOL0     H87875   6.320   6.953   2.370  2.3554 -0.7995  2.3895
  666MOL0     H87876   6.105   7.388   1.991  0.0784 -2.7620  0.8559
  666MOL0     H87877   5.994   7.602   2.018 -1.0630  1.1217  1.3988
  666MOL0     H87878   5.828   7.713   2.244 -3.8531  2.7614 -1.3071
  666MOL0     H87879   5.880   7.810   2.100  2.2612  0.3119 -0.6577
  666MOL0     H87880   5.908   8.006   2.223  0.4965 -1.0304  0.2031
  666MOL0     H87881   5.841   7.933   2.369  0.5827  2.8895  0.6303
  666MOL0     H87882   5.640   7.913   2.185  0.5052  0.8492  0.3391
  666MOL0     H87883   5.733   8.030   2.102 -1.6851 -2.8237 -0.9762
  666MOL0     H87884   5.604   8.058   2.370  0.7925  1.6660  1.7755
  666MOL0     H87885   5.720   8.179   2.310 -1.8059  0.1329 -0.0538
  666MOL0     H87886   5.493   8.094   2.132  0.3402 -2.0210  0.8086
  666MOL0     H87887   5.587   8.228   2.103 -1.6092  1.2989 -0.4097
  666MOL0     H87888   5.425   8.212   2.365  3.9788 -1.0728  0.6109
  666MOL0     H87889   5.369   8.275   2.218  0.2391 -0.2337  0.1495
  666MOL0     H87890   5.616   8.385   2.379  2.1126  2.1928 -1.9587
  666MOL0     H87891   5.571   8.428   2.214 -1.1853  0.5486 -0.4769
  666MOL0     H87892   5.484   8.584   2.402 -2.5271  0.6071 -1.3678
  666MOL0     H87893   5.405   8.441   2.469  0.4876 -1.5898  0.3447
  666MOL0     H87894   6.190   7.652   2.392 -2.1419  1.9875 -0.5189
  666MOL0     H87895   6.318   7.439   2.357 -1.0341 -1.2718 -0.9137
  666MOL0     H87896   6.488   7.153   2.036 -1.1191  1.0484  0.9531
  666MOL0     H87897   6.634   6.964   1.996 -1.5110  2.0052 -1.9115
  666MOL0     H87898   8.385   7.134   1.932  0.6206 -0.8576 -0.5904
  666MOL0     H87899   8.614   7.206   1.893 -0.6825  0.6014 -0.9614
  666MOL0     H87900   9.082   7.356   2.234 -1.6894  1.0914 -0.2424
  666MOL0     H87901   9.312   7.428   2.135  0.1855  4.0918  3.4035
  666MOL0     H87902   9.477   7.480   2.001  0.7471  0.3519 -0.0560
  666MOL0     H87903   9.534   7.579   1.862 -1.0719  1.3734  0.7386
  666MOL0     H87904   9.325   7.368   1.799 -0.8807  1.5176 -0.0196
  666MOL0     H87905   9.462   7.428   1.701  3.5602  0.0333  0.8033
  666MOL0     H87906   9.492   7.237   1.939 -0.0474  1.1730  0.4829
  666MOL0     H87907   9.626   7.294   1.850 -0.1912 -3.0707  1.4743
  666MOL0     H87908   9.416   7.103   1.754 -2.1589  4.3543  1.2040
  666MOL0     H87909   9.501   7.195   1.643  0.5947 -0.7682  0.1767
  666MOL0     H87910   9.820   6.947   1.766 -0.7704 -1.6984  1.0924
  666MOL0     H87911   9.074   7.653   1.840  0.1303 -1.2665 -0.7988
  666MOL0     H87912   8.891   7.584   1.946  0.5163  1.0578  0.0179
  667MOL0     O87913   7.260   2.590   2.094  0.2018  0.5002  0.4155
  667MOL0     C87914   7.302   2.509   2.016 -0.1534  0.4219  0.0251
  667MOL0     O87915   7.276   2.507   1.876 -0.5497 -0.1249 -0.1276
  667MOL0     C87916   7.176   2.583   1.820 -0.4648  0.6208  0.6357
  667MOL0     C87917   7.042   2.553   1.845 -0.3347 -0.3353  0.1264
  667MOL0     C87918   6.949   2.624   1.775  0.6250 -0.2205 -0.2821
  667MOL0     C87919   6.976   2.728   1.687  0.9469  0.0213  0.5733
  667MOL0     O87920   6.884   2.804   1.613  0.0738 -1.3212 -0.1510
  667MOL0     C87921   6.752   2.822   1.671  0.4836 -0.2126  0.1894
  667MOL0     C87922   6.668   2.928   1.603 -0.6566 -0.3152 -0.8666
  667MOL0     C87923   6.724   3.065   1.589  0.6504 -0.0655  0.1454
  667MOL0     C87924   6.700   3.158   1.710 -0.8608  0.7709 -0.2633
  667MOL0     C87925   6.747   3.304   1.681  0.0967  0.4961 -0.2389
  667MOL0     C87926   6.891   3.320   1.639 -0.7307  0.8748 -0.2173
  667MOL0     C87927   6.984   3.253   1.741  0.2053 -0.3552  0.0379
  667MOL0     C87928   7.080   3.144   1.677 -0.5301  0.0106  0.1566
  667MOL0     N87929   7.191   3.110   1.765  0.6194  0.1433  0.2098
  667MOL0     C87930   7.185   3.031   1.876 -0.7180  0.5815 -0.1819
  667MOL0     C87931   7.308   3.048   1.926 -0.5557 -0.2160 -0.3953
  667MOL0     C87932   7.376   2.974   2.043  0.3948  0.8859 -0.1233
  667MOL0     C87933   7.480   2.881   1.979 -0.5541 -0.8321 -0.0293
  667MOL0     C87934   7.557   2.800   2.078 -0.5375 -0.1025  0.1958
  667MOL0     C87935   7.666   2.708   2.011  0.0390 -0.0243  0.2582
  667MOL0     O87936   7.762   2.780   1.931  0.1069 -0.4521 -0.1650
  667MOL0     C87937   7.882   2.722   1.903  0.1336  0.1711  0.3739
  667MOL0     C87938   7.909   2.645   1.793  0.2792 -0.7468 -0.6369
  667MOL0     C87939   8.031   2.588   1.781  0.0586  0.0846 -0.1319
  667MOL0     C87940   8.137   2.593   1.877  0.0524 -1.1981 -0.1422
  667MOL0     C87941   8.269   2.521   1.874 -0.1190  0.7802  0.3365
  667MOL0     O87942   8.275   2.433   1.765  0.1026  0.7405 -0.4650
  667MOL0     C87943   8.388   2.374   1.713  0.3340 -0.4652  0.9104
  667MOL0     C87944   8.518   2.410   1.758  0.2524 -0.5279  0.2508
  667MOL0     C87945   8.630   2.362   1.691  0.2510 -0.8826 -0.2372
  667MOL0     C87946   8.630   2.285   1.569 -1.1678 -0.1554 -1.3924
  667MOL0     O87947   8.735   2.238   1.506 -0.4799  0.6450  0.2110
  667MOL0     C87948   8.796   2.331   1.429  0.5249 -0.6148  0.4148
  667MOL0     C87949   8.867   2.257   1.312 -0.0007 -0.7485 -0.3533
  667MOL0     C87950   8.769   2.174   1.231  0.0256  0.3205  0.3391
  667MOL0     C87951   8.668   2.261   1.153  0.2503 -0.0274 -0.0172
  667MOL0     C87952   8.733   2.348   1.043 -0.1000 -0.3474  0.2448
  667MOL0     C87953   8.619   2.414   0.951  0.2634  0.5330 -0.4167
  667MOL0     C87954   8.672   2.514   0.864 -0.1173  0.0570 -0.2807
  667MOL0     C87955   8.592   2.546   0.739  0.5511 -0.0530 -1.0962
  667MOL0    Cl87956   8.684   2.647   0.627  0.5063 -0.0325 -0.2369
  667MOL0     C87957   8.503   2.241   1.526  0.6139 -0.4129  0.0053
  667MOL0     C87958   8.386   2.296   1.593  0.4246 -0.6644  0.0288
  667MOL0     O87959   8.344   2.539   1.970  0.1941 -1.0942 -0.5020
  667MOL0     C87960   8.104   2.683   1.991  0.1534 -0.0440  0.0443
  667MOL0     C87961   7.974   2.739   2.002  0.1457  0.1614  0.4496
  667MOL0     N87962   7.376   3.138   1.850  0.1083  0.7421 -0.3239
  667MOL0     N87963   7.313   3.178   1.749 -0.3950  0.6514  0.0006
  667MOL0     C87964   7.110   2.766   1.670 -0.1476  0.1462 -0.1937
  667MOL0     C87965   7.211   2.680   1.721 -0.6140  0.1218  0.0136
  667MOL0     C87966   7.388   2.396   2.057  0.2446 -0.4384 -0.0273
  667MOL0     C87967   7.439   2.314   1.964  0.5250  0.8028  0.4211
  667MOL0     C87968   7.495   2.192   2.001 -1.0563  0.6406 -0.5161
  667MOL0     C87969   7.516   2.160   2.133  0.7274  0.1744 -0.7906
  667MOL0     O87970   7.575   2.042   2.154 -0.0946 -0.5328  0.3014
  667MOL0     C87971   7.665   2.030   2.271  0.1655  1.1494  0.3006
  667MOL0     C87972   7.722   1.890   2.244 -0.6523  0.1848  0.0890
  667MOL0     C87973   7.827   1.895   2.134  0.5304 -0.1065  0.8526
  667MOL0     C87974   7.774   1.896   1.984 -0.3023  0.3236 -0.6781
  667MOL0     C87975   7.886   1.892   1.888 -0.1887  0.5113  0.1483
  667MOL0     C87976   7.974   1.918   1.805 -0.7726 -0.4310  0.5398
  667MOL0     C87977   7.472   2.251   2.234  0.2653  0.1948 -0.7817
  667MOL0     C87978   7.399   2.365   2.189 -0.5978  0.4136 -0.1879
  667MOL0     H87979   7.014   2.478   1.919 -1.8360  1.5350  1.5499
  667MOL0     H87980   6.844   2.598   1.787  0.6795  0.2665  1.3808
  667MOL0     H87981   6.751   2.842   1.779 -0.4954  0.3872  0.0759
  667MOL0     H87982   6.701   2.725   1.667 -2.4931  1.2604  0.1217
  667MOL0     H87983   6.584   2.941   1.672 -0.6544 -0.6744 -0.7955
  667MOL0     H87984   6.637   2.888   1.507 -0.7557  0.0187 -0.9759
  667MOL0     H87985   6.682   3.114   1.501 -0.4368 -3.2608 -1.2280
  667MOL0     H87986   6.830   3.070   1.562  0.8831 -1.9869  0.5665
  667MOL0     H87987   6.591   3.156   1.721 -1.0039  3.6828 -0.3257
  667MOL0     H87988   6.746   3.115   1.800 -1.5764  0.0609 -0.2250
  667MOL0     H87989   6.724   3.360   1.772 -0.8970 -0.3376  0.0290
  667MOL0     H87990   6.689   3.355   1.603 -0.1708  0.0484 -0.3323
  667MOL0     H87991   6.919   3.426   1.640  0.0340  0.7071  1.9593
  667MOL0     H87992   6.901   3.291   1.534  0.9006 -0.9414  0.3723
  667MOL0     H87993   7.036   3.335   1.791  1.9627 -0.9156 -0.7778
  667MOL0     H87994   6.928   3.199   1.818 -0.2770  0.6522  0.4119
  667MOL0     H87995   7.116   3.182   1.581 -0.0029 -0.9398 -0.0337
  667MOL0     H87996   7.015   3.056   1.679 -1.3483  0.6233  1.3668
  667MOL0     H87997   7.109   2.966   1.917 -0.6255  0.4432 -0.2298
  667MOL0     H87998   7.291   2.917   2.083  2.5218 -0.2537  3.1997
  667MOL0     H87999   7.421   3.041   2.116  0.1017  0.1048  0.7965
  667MOL0     H88000   7.554   2.942   1.926 -2.0699 -0.5348 -1.9238
  667MOL0     H88001   7.439   2.818   1.899 -1.4344  1.9029 -1.8673
  667MOL0     H88002   7.608   2.867   2.147 -0.4075 -2.3713  2.4336
  667MOL0     H88003   7.481   2.748   2.138  0.0598  1.1971  2.1550
  667MOL0     H88004   7.613   2.631   1.953 -0.8088  0.4076  0.4377
  667MOL0     H88005   7.719   2.650   2.086  0.1158 -0.1810  0.0848
  667MOL0     H88006   7.830   2.647   1.718  0.4590 -0.4877 -0.8204
  667MOL0     H88007   8.051   2.527   1.694  0.7977  0.9238 -0.5731
  667MOL0     H88008   8.537   2.468   1.848  1.9201  1.5213 -1.3340
  667MOL0     H88009   8.729   2.394   1.720  1.6310 -2.8087 -2.4859
  667MOL0     H88010   8.859   2.389   1.498 -1.8845  0.1006  2.1251
  667MOL0     H88011   8.730   2.401   1.377  3.1878  0.3679 -1.9375
  667MOL0     H88012   8.941   2.183   1.345 -0.3928 -0.4969  1.1764
  667MOL0     H88013   8.912   2.336   1.252 -1.0822 -1.1371 -1.7163
  667MOL0     H88014   8.704   2.107   1.288 -1.1050 -2.0191 -3.3789
  667MOL0     H88015   8.824   2.114   1.158 -2.5964 -2.7467  0.6826
  667MOL0     H88016   8.599   2.192   1.103 -2.6628  0.2008  3.2972
  667MOL0     H88017   8.620   2.333   1.220 -0.2293  1.4860 -1.9078
  667MOL0     H88018   8.804   2.291   0.981  3.1093  2.8592  0.6409
  667MOL0     H88019   8.784   2.429   1.096  1.8689 -0.9487 -0.6301
  667MOL0     H88020   8.545   2.470   1.009  0.3478 -0.0161  0.2356
  667MOL0     H88021   8.563   2.339   0.893 -0.2183  2.4088 -2.4876
  667MOL0     H88022   8.683   2.614   0.907 -1.2148  1.2665 -2.6379
  667MOL0     H88023   8.768   2.473   0.832 -1.1559 -0.9587 -2.2956
  667MOL0     H88024   8.503   2.598   0.773 -1.3357 -2.5556 -1.8563
  667MOL0     H88025   8.555   2.455   0.689 -1.4491  0.3211 -0.3671
  667MOL0     H88026   8.476   2.181   1.439 -1.7584 -3.2843  2.4868
  667MOL0     H88027   8.287   2.282   1.552  1.5816 -1.1928 -2.7893
  667MOL0     H88028   8.188   2.701   2.058  0.5419 -1.8239  0.0952
  667MOL0     H88029   7.964   2.794   2.095  2.1167 -0.5064  1.1099
  667MOL0     H88030   7.121   2.851   1.603 -1.1317  1.5348  1.3194
  667MOL0     H88031   7.313   2.691   1.687 -0.2007 -3.0617 -0.1344
  667MOL0     H88032   7.437   2.330   1.856  1.6730 -0.0027  0.2531
  667MOL0     H88033   7.543   2.130   1.927 -1.5951 -0.7527  0.2627
  667MOL0     H88034   7.610   2.033   2.366 -0.1223  2.7516  0.1155
  667MOL0     H88035   7.740   2.108   2.290 -1.7519  3.0194  0.5722
  667MOL0     H88036   7.777   1.854   2.331  0.5438  2.8566  0.5362
  667MOL0     H88037   7.641   1.822   2.216 -0.9611  0.4131  0.4312
  667MOL0     H88038   7.896   1.810   2.146  2.0141  0.8353 -0.6779
  667MOL0     H88039   7.895   1.980   2.143  0.0465  0.2371  1.3570
  667MOL0     H88040   7.691   1.827   1.965 -0.4885  0.2353  0.3752
  667MOL0     H88041   7.732   1.995   1.963 -0.9918  0.8118  2.4365
  667MOL0     H88042   8.048   1.936   1.729  0.1998 -1.3253  1.2435
  667MOL0     H88043   7.474   2.217   2.338 -1.0863  1.9920 -0.1215
  667MOL0     H88044   7.362   2.434   2.264  2.2097 -0.4878  2.1999
  668MOL0     O88045   0.125   1.160   9.792 -0.4106 -0.4214 -0.0458
  668MOL0     C88046   0.206   1.082   9.744  0.6784  1.2142  0.0797
  668MOL0     O88047   0.184   0.951   9.697 -0.6250 -0.0136  0.6879
  668MOL0     C88048   0.071   0.871   9.741 -0.9654  0.5258 -0.1012
  668MOL0     C88049   0.109   0.739   9.781  0.3675 -1.0511  0.1338
  668MOL0     C88050   0.011   0.646   9.806  1.0067 -0.3287  0.4868
  668MOL0     C88051  -0.126   0.689   9.791 -0.5055  0.2624 -1.0836
  668MOL0     O88052  -0.216   0.596   9.826 -0.4846 -0.5441  0.6177
  668MOL0     C88053  -0.356   0.613   9.802 -0.2866  0.6701 -0.4246
  668MOL0     C88054  -0.430   0.665   9.930 -0.2214 -0.0880 -0.2823
  668MOL0     C88055  -0.424   0.820   9.949  0.6293  0.4438  0.0321
  668MOL0     C88056  -0.485   0.872  10.086  1.2511  0.3249 -0.4229
  668MOL0     C88057  -0.639   0.846  10.116 -0.7750 -0.2759  0.0004
  668MOL0     C88058  -0.726   0.882  10.000  0.6219 -0.4563 -0.3917
  668MOL0     C88059  -0.872   0.844  10.032 -0.3197 -0.3084 -0.4019
  668MOL0     C88060  -0.969   0.949  10.008 -0.2576  0.6116  0.0531
  668MOL0     N88061  -1.109   0.910  10.019  0.7833  0.6403 -0.3886
  668MOL0     C88062  -1.203   0.957  10.099 -0.1762 -1.2769 -0.4093
  668MOL0     C88063  -1.307   0.870  10.103 -0.5201 -0.0754 -0.3391
  668MOL0     C88064  -1.432   0.877  10.181  1.5420 -0.0402  0.8287
  668MOL0     C88065  -1.536   0.975  10.121  0.2191  0.8610  0.2731
  668MOL0     C88066  -1.658   0.966  10.212  1.3492  0.0549  0.1738
  668MOL0     C88067  -1.777   1.024  10.147  0.1890 -0.4650  0.6546
  668MOL0     O88068  -1.876   1.049  10.242 -0.2648  0.1547 -0.3264
  668MOL0     C88069  -1.992   1.096  10.194 -0.3648  0.3786  0.5140
  668MOL0     C88070  -2.025   1.128  10.060  1.1975 -0.0261 -0.3003
  668MOL0     C88071  -2.151   1.185  10.025  0.2157  0.0873 -0.0750
  668MOL0     C88072  -2.257   1.205  10.122 -0.0167  0.4999  0.5664
  668MOL0     C88073  -2.393   1.251  10.090 -0.1182 -0.9083 -0.5008
  668MOL0     O88074  -2.484   1.250  10.194  0.8995  0.2728 -0.4681
  668MOL0     C88075  -2.620   1.276  10.191  0.4131  0.5887 -0.1222
  668MOL0     C88076  -2.708   1.208  10.275 -0.3186  0.3007  0.7838
  668MOL0     C88077  -2.849   1.232  10.270 -0.0800  0.3059  0.4130
  668MOL0     C88078  -2.896   1.340  10.179  0.0829  0.8473  0.0803
  668MOL0     O88079  -3.021   1.391  10.176 -0.0678  0.9846 -0.3074
  668MOL0     C88080  -3.112   1.372  10.284 -0.1029  0.3768  0.0628
  668MOL0     C88081  -3.228   1.466  10.283  0.2952  0.4007  0.3767
  668MOL0     C88082  -3.323   1.443  10.162 -0.4743 -0.4596  0.6608
  668MOL0     C88083  -3.432   1.348  10.196 -0.8401  1.0293 -0.1684
  668MOL0     C88084  -3.545   1.351  10.085  0.8626 -0.0460  0.2287
  668MOL0     C88085  -3.509   1.273   9.951 -0.9134 -0.9716  0.2346
  668MOL0     C88086  -3.603   1.296   9.841  0.1767  0.1277 -0.3439
  668MOL0     C88087  -3.547   1.385   9.723  0.6907 -0.3057  0.5900
  668MOL0    Cl88088  -3.666   1.394   9.583 -0.1139 -0.2464 -0.2387
  668MOL0     C88089  -2.812   1.406  10.096  0.1535  0.7361 -0.5959
  668MOL0     C88090  -2.673   1.372  10.101  0.5160 -0.8476 -0.4870
  668MOL0     O88091  -2.413   1.294   9.982  0.0851 -0.8143  0.2314
  668MOL0     C88092  -2.223   1.176  10.256  0.1063  1.2575  0.4977
  668MOL0     C88093  -2.091   1.122  10.289 -0.1763  1.2110  0.7080
  668MOL0     N88094  -1.272   0.759  10.023  0.3757 -0.1261  1.2055
  668MOL0     N88095  -1.152   0.790   9.980 -1.3595  0.0602 -0.7922
  668MOL0     C88096  -0.154   0.819   9.758  0.9688  0.0088 -0.2894
  668MOL0     C88097  -0.057   0.914   9.744  0.3137 -0.5857  0.5666
  668MOL0     C88098   0.345   1.129   9.745 -0.0926 -0.2596 -0.1373
  668MOL0     C88099   0.439   1.055   9.676  0.2947  0.2756  1.0773
  668MOL0     C88100   0.577   1.103   9.671 -0.1471 -0.3706 -0.6657
  668MOL0     C88101   0.617   1.200   9.762  0.5658 -0.7563  0.1855
  668MOL0     O88102   0.752   1.231   9.776 -0.2317  0.7406 -0.5706
  668MOL0     C88103   0.858   1.156   9.710 -0.4601 -0.4287  0.6309
  668MOL0     C88104   0.992   1.177   9.777  0.6202  0.0581 -0.9739
  668MOL0     C88105   1.033   1.318   9.762 -0.0664 -0.5167  0.3200
  668MOL0     C88106   1.124   1.367   9.873  0.7917  0.0230  0.8032
  668MOL0     C88107   1.263   1.307   9.858  0.0078 -0.2173  0.0082
  668MOL0     C88108   1.372   1.248   9.860  1.0541  0.0778 -0.1520
  668MOL0     C88109   0.526   1.274   9.842  1.0730 -0.1203  1.1788
  668MOL0     C88110   0.389   1.243   9.823  0.0965 -0.0967 -0.0157
  668MOL0     H88111   0.215   0.716   9.775  0.0409 -2.9651  0.8449
  668MOL0     H88112   0.033   0.551   9.854  0.7025 -1.0364 -0.7235
  668MOL0     H88113  -0.392   0.510   9.794  3.2485 -0.7358 -0.2748
  668MOL0     H88114  -0.385   0.672   9.715  1.2932  2.6399  0.2926
  668MOL0     H88115  -0.406   0.621  10.027  2.5105  1.5359 -0.1273
  668MOL0     H88116  -0.534   0.644   9.904 -0.4361  0.6849 -0.0652
  668MOL0     H88117  -0.477   0.864   9.864 -2.7752  0.3553  1.9127
  668MOL0     H88118  -0.323   0.862   9.953  1.0362 -0.3183 -1.6115
  668MOL0     H88119  -0.444   0.827  10.177 -1.2563 -2.3389 -0.4341
  668MOL0     H88120  -0.471   0.979  10.099 -0.8201  0.7889 -1.6181
  668MOL0     H88121  -0.669   0.908  10.201  0.4729  0.9218 -0.3968
  668MOL0     H88122  -0.648   0.743  10.149  3.5396 -0.7801  0.0433
  668MOL0     H88123  -0.690   0.824   9.915  1.6116  0.3048 -0.5093
  668MOL0     H88124  -0.705   0.984   9.966 -1.3863  0.2021  0.1935
  668MOL0     H88125  -0.902   0.751   9.982  0.6988 -2.1586  2.1709
  668MOL0     H88126  -0.874   0.828  10.141  0.1654  3.6259  0.3162
  668MOL0     H88127  -0.964   0.992   9.908 -1.5416 -0.0952 -0.3353
  668MOL0     H88128  -0.958   1.026  10.085  0.0804  0.4198  0.2012
  668MOL0     H88129  -1.196   1.057  10.141 -1.4626 -2.2186  2.2660
  668MOL0     H88130  -1.404   0.901  10.284 -1.5991  1.4094  1.4716
  668MOL0     H88131  -1.473   0.776  10.174 -1.1404  1.0613 -0.7990
  668MOL0     H88132  -1.556   0.948  10.017  2.4122  0.2921 -0.0545
  668MOL0     H88133  -1.500   1.078  10.123 -2.8411  2.0029  0.5914
  668MOL0     H88134  -1.685   0.863  10.236  1.4783 -0.8218 -3.0112
  668MOL0     H88135  -1.633   1.022  10.303  2.8436  1.3380 -0.9614
  668MOL0     H88136  -1.827   0.964  10.070  2.4958 -1.1130 -0.4258
  668MOL0     H88137  -1.755   1.119  10.097 -2.9550  0.7488  1.3360
  668MOL0     H88138  -1.957   1.107   9.978  1.3834  1.5630 -0.5773
  668MOL0     H88139  -2.166   1.209   9.921  1.9085 -0.2482 -0.4246
  668MOL0     H88140  -2.663   1.130  10.335  0.0075  0.9505  1.4073
  668MOL0     H88141  -2.907   1.177  10.342  1.2724 -2.0896 -0.2136
  668MOL0     H88142  -3.057   1.381  10.378  0.9279  0.8300 -0.5705
  668MOL0     H88143  -3.152   1.270  10.285 -0.2668  0.4387  0.6524
  668MOL0     H88144  -3.186   1.566  10.269  2.9616 -0.5428  0.9739
  668MOL0     H88145  -3.273   1.463  10.383  3.4964 -0.8798  1.9364
  668MOL0     H88146  -3.263   1.410  10.077  0.8489  0.6925  1.1099
  668MOL0     H88147  -3.373   1.536  10.136 -1.6396 -0.8202  1.5035
  668MOL0     H88148  -3.397   1.247  10.216 -3.9041  0.0100  0.6025
  668MOL0     H88149  -3.489   1.391  10.279 -1.8995 -0.0039 -0.3351
  668MOL0     H88150  -3.565   1.458  10.075 -3.4587 -0.6614  0.6431
  668MOL0     H88151  -3.639   1.301  10.110 -1.0796  3.0874 -0.3247
  668MOL0     H88152  -3.508   1.166   9.976  4.6519 -1.5265 -1.1089
  668MOL0     H88153  -3.408   1.309   9.928  0.3964 -2.9474  2.3572
  668MOL0     H88154  -3.631   1.205   9.786  0.6887  0.5811 -1.3824
  668MOL0     H88155  -3.703   1.316   9.881 -0.9164  0.4132 -2.9859
  668MOL0     H88156  -3.454   1.346   9.681  1.0303  1.6616 -0.5968
  668MOL0     H88157  -3.529   1.485   9.764  0.0745 -0.4405  1.2167
  668MOL0     H88158  -2.851   1.478  10.026  0.2823 -0.5421 -2.0258
  668MOL0     H88159  -2.605   1.422  10.033 -1.4098  0.9758 -1.1850
  668MOL0     H88160  -2.291   1.198  10.338 -0.2476 -0.9161  0.8440
  668MOL0     H88161  -2.065   1.093  10.391  2.1445 -1.2136 -0.4456
  668MOL0     H88162  -0.253   0.858   9.738  0.5637 -0.9030 -0.1237
  668MOL0     H88163  -0.077   1.019   9.724  0.1777 -0.5226  1.0080
  668MOL0     H88164   0.408   0.971   9.614 -1.0311  3.0009 -2.3170
  668MOL0     H88165   0.647   1.051   9.607 -0.1994 -1.6379  0.2831
  668MOL0     H88166   0.853   1.188   9.605  0.8138 -3.7554 -0.5636
  668MOL0     H88167   0.829   1.051   9.702 -0.7260 -0.2402 -4.0288
  668MOL0     H88168   0.989   1.136   9.878  2.2639 -0.7147 -1.2047
  668MOL0     H88169   1.059   1.103   9.733 -1.6172 -2.2635 -0.6954
  668MOL0     H88170   0.942   1.378   9.765 -0.1467 -0.5495 -0.9242
  668MOL0     H88171   1.086   1.327   9.667  1.3411  1.3899  1.1967
  668MOL0     H88172   1.137   1.475   9.875 -0.8381  0.4422 -3.2593
  668MOL0     H88173   1.083   1.337   9.971  2.7576  1.7554  2.2389
  668MOL0     H88174   1.461   1.189   9.871 -0.4728 -2.3758 -0.0673
  668MOL0     H88175   0.554   1.354   9.910  1.1886  0.0253  0.9597
  668MOL0     H88176   0.316   1.308   9.869 -0.5180 -0.8142  0.0397
  669MOL0     O88177   5.583   8.442   5.537  0.1893 -0.2558  0.0498
  669MOL0     C88178   5.693   8.420   5.475  0.1339 -0.1276 -0.1395
  669MOL0     O88179   5.748   8.507   5.387  0.2458  0.7783  0.8464
  669MOL0     C88180   5.675   8.617   5.358  0.8453 -0.7529  1.0082
  669MOL0     C88181   5.711   8.731   5.421 -0.0633 -0.3795  0.4344
  669MOL0     C88182   5.637   8.849   5.410 -0.3195  0.5007 -0.7513
  669MOL0     C88183   5.531   8.854   5.325 -0.5223 -1.0592 -0.3763
  669MOL0     O88184   5.451   8.969   5.327 -0.4645  0.0660 -0.2761
  669MOL0     C88185   5.381   8.965   5.448 -0.0810  0.7686 -0.1047
  669MOL0     C88186   5.286   9.089   5.465 -0.0859 -0.4681  0.1535
  669MOL0     C88187   5.183   9.050   5.571  0.1657  0.6786  0.1488
  669MOL0     C88188   5.199   9.119   5.712  0.4128 -0.1867 -0.3364
  669MOL0     C88189   5.085   9.079   5.807  0.8141 -0.9111  0.6431
  669MOL0     C88190   5.095   9.150   5.935  1.1747  0.1510  0.0753
  669MOL0     C88191   4.984   9.122   6.030  0.2123 -0.5288  1.8961
  669MOL0     C88192   4.985   9.210   6.155  0.1448  0.5316  0.0280
  669MOL0     N88193   4.889   9.168   6.263 -0.0371  0.5464 -0.1303
  669MOL0     C88194   4.760   9.135   6.237  0.3908 -0.0916 -0.0940
  669MOL0     C88195   4.698   9.122   6.359  0.2849  0.3216  1.0990
  669MOL0     C88196   4.553   9.097   6.398  0.2331 -0.2673 -0.1066
  669MOL0     C88197   4.515   9.136   6.540  0.6849 -0.1131  0.1639
  669MOL0     C88198   4.366   9.149   6.568  0.7711  0.3430  0.1250
  669MOL0     C88199   4.340   9.157   6.722  1.4634 -0.4901 -0.3585
  669MOL0     O88200   4.211   9.215   6.749 -0.0657 -0.5093 -0.2202
  669MOL0     C88201   4.095   9.169   6.695 -0.4255  0.1170 -1.0111
  669MOL0     C88202   4.061   9.040   6.690 -0.5233  0.4279 -0.2060
  669MOL0     C88203   3.943   8.999   6.634  0.2147  0.8541 -0.3560
  669MOL0     C88204   3.863   9.090   6.569 -0.1897  0.6665 -0.3602
  669MOL0     C88205   3.765   9.052   6.472 -0.0685 -0.1900 -0.4907
  669MOL0     O88206   3.675   9.146   6.418  0.0989  0.6845  0.0576
  669MOL0     C88207   3.591   9.117   6.316  0.4197  0.2243 -0.2289
  669MOL0     C88208   3.471   9.186   6.314 -0.9248  0.1791 -0.4408
  669MOL0     C88209   3.371   9.174   6.220  1.1749  0.4885 -0.0854
  669MOL0     C88210   3.389   9.081   6.119 -0.4570  0.8358 -0.2128
  669MOL0     O88211   3.305   9.059   6.017  0.8875  0.2002 -0.1079
  669MOL0     C88212   3.195   9.142   6.000  0.2989 -0.2123 -1.1892
  669MOL0     C88213   3.075   9.092   6.089  0.0639 -0.3864  0.0286
  669MOL0     C88214   2.955   9.185   6.091 -0.2544 -0.4265 -0.3254
  669MOL0     C88215   2.920   9.221   5.946 -0.4272  0.0349  0.7912
  669MOL0     C88216   2.774   9.264   5.952  0.1834  0.0986 -0.6129
  669MOL0     C88217   2.709   9.278   5.813  0.2038 -0.1619  0.3736
  669MOL0     C88218   2.558   9.293   5.822  0.3211 -0.3558 -0.2252
  669MOL0     C88219   2.477   9.163   5.853  0.6203  0.1111  0.2345
  669MOL0    Cl88220   2.480   9.043   5.723 -0.1702 -0.1184  0.1625
  669MOL0     C88221   3.513   9.010   6.119 -0.3320  0.0928 -0.2991
  669MOL0     C88222   3.613   9.035   6.213 -0.9517  0.6250 -0.8635
  669MOL0     O88223   3.751   8.926   6.461  0.4502 -0.7205  0.6217
  669MOL0     C88224   3.895   9.228   6.583  0.4543  0.6482 -0.1938
  669MOL0     C88225   4.009   9.265   6.644  0.3114 -0.0831 -0.5102
  669MOL0     N88226   4.798   9.137   6.453 -0.2130  0.3355  0.3256
  669MOL0     N88227   4.910   9.168   6.403 -0.4886 -0.3709  0.0144
  669MOL0     C88228   5.512   8.742   5.240 -0.3100  0.6294 -0.1529
  669MOL0     C88229   5.574   8.620   5.262 -0.3507 -0.2032  0.1918
  669MOL0     C88230   5.765   8.303   5.510 -0.0723 -0.0712 -0.3696
  669MOL0     C88231   5.705   8.214   5.592 -0.2977  0.2770 -0.9492
  669MOL0     C88232   5.771   8.106   5.641 -0.1497 -0.0043  0.0308
  669MOL0     C88233   5.901   8.081   5.605 -0.1023  0.3094 -0.3552
  669MOL0     O88234   5.958   7.965   5.654 -0.0792  0.7120  0.2753
  669MOL0     C88235   6.092   7.940   5.619 -0.2972  0.0764 -0.7624
  669MOL0     C88236   6.151   7.799   5.648 -0.3948 -0.3642  1.1942
  669MOL0     C88237   6.108   7.745   5.778 -0.7456  0.4575 -0.0818
  669MOL0     C88238   6.146   7.826   5.898  0.4739 -0.0052 -1.1154
  669MOL0     C88239   6.291   7.842   5.918  0.2052 -0.1975  0.7491
  669MOL0     C88240   6.409   7.857   5.925  0.1190  0.9664 -0.1322
  669MOL0     C88241   5.965   8.171   5.522 -0.7776 -0.2153 -0.4290
  669MOL0     C88242   5.898   8.289   5.469 -0.4056  0.3797 -0.4737
  669MOL0     H88243   5.796   8.740   5.488 -0.8976  0.8535  1.3567
  669MOL0     H88244   5.663   8.928   5.479 -2.0842  0.9702 -0.5765
  669MOL0     H88245   5.449   8.968   5.533 -0.5191 -0.2946  0.3047
  669MOL0     H88246   5.318   8.875   5.442 -1.7920  1.9888 -2.2348
  669MOL0     H88247   5.228   9.093   5.372  0.9420  0.8111 -0.4779
  669MOL0     H88248   5.340   9.180   5.493 -0.2954 -0.5230  0.7532
  669MOL0     H88249   5.183   8.943   5.594 -0.4239  0.4928 -0.6364
  669MOL0     H88250   5.084   9.075   5.531  1.0446  1.1316 -1.8735
  669MOL0     H88251   5.288   9.072   5.756  0.4736 -0.0160 -0.2778
  669MOL0     H88252   5.209   9.225   5.687 -0.7713  0.1529  0.5250
  669MOL0     H88253   5.084   8.972   5.830 -1.8835 -1.3626 -1.1529
  669MOL0     H88254   4.993   9.095   5.751  1.0850  0.3263  0.5301
  669MOL0     H88255   5.082   9.258   5.921 -1.0860 -0.0701  0.1530
  669MOL0     H88256   5.185   9.128   5.993  0.1915 -2.3178  0.7963
  669MOL0     H88257   4.892   9.137   5.973  0.1235  2.8898  2.7391
  669MOL0     H88258   5.000   9.015   6.045  1.0636 -1.3738 -3.0613
  669MOL0     H88259   4.954   9.309   6.120 -0.1095  0.5293  0.2464
  669MOL0     H88260   5.083   9.216   6.202  0.1956  3.5172 -0.3034
  669MOL0     H88261   4.713   9.131   6.140 -0.1025 -0.3421  0.1492
  669MOL0     H88262   4.520   8.993   6.398  1.6830 -0.7526  0.3763
  669MOL0     H88263   4.490   9.157   6.331  1.5745  0.0238 -1.1655
  669MOL0     H88264   4.550   9.238   6.552  1.7197 -0.6359  1.8275
  669MOL0     H88265   4.570   9.078   6.614  0.2696 -1.6990 -0.7210
  669MOL0     H88266   4.340   9.245   6.522  2.6779  0.5316 -0.6447
  669MOL0     H88267   4.305   9.067   6.529 -0.1873  0.5924  1.0403
  669MOL0     H88268   4.414   9.226   6.763 -2.0220  1.3478  3.5597
  669MOL0     H88269   4.349   9.057   6.766 -2.8308 -1.3850 -1.0834
  669MOL0     H88270   4.131   8.967   6.731 -0.8834 -0.5763 -1.3195
  669MOL0     H88271   3.931   8.892   6.626  0.9353  0.7588 -0.2481
  669MOL0     H88272   3.475   9.257   6.396  1.7923  1.2493 -1.4104
  669MOL0     H88273   3.282   9.236   6.229 -0.1526 -0.9521 -2.4432
  669MOL0     H88274   3.173   9.135   5.893 -2.9087 -0.7417 -0.5927
  669MOL0     H88275   3.225   9.246   6.014 -1.9024  0.5038 -1.3872
  669MOL0     H88276   3.106   9.082   6.193  1.0880  0.6232 -0.1516
  669MOL0     H88277   3.029   8.999   6.053 -2.4745  1.1476 -1.0064
  669MOL0     H88278   2.982   9.273   6.149  0.8570 -0.8462 -0.1673
  669MOL0     H88279   2.879   9.125   6.142  0.0960  0.7726  1.7098
  669MOL0     H88280   2.968   9.307   5.899 -1.7644 -1.1152 -3.1143
  669MOL0     H88281   2.930   9.133   5.881  0.6848  0.1312  0.8218
  669MOL0     H88282   2.768   9.367   5.990  0.9943 -0.3729  0.8636
  669MOL0     H88283   2.723   9.193   6.017  2.0555 -1.1721 -0.4448
  669MOL0     H88284   2.742   9.198   5.747 -0.0428 -2.1354  2.4936
  669MOL0     H88285   2.750   9.372   5.777 -0.7492  0.7979  1.7011
  669MOL0     H88286   2.532   9.363   5.902 -1.8171  1.5581 -2.4191
  669MOL0     H88287   2.521   9.333   5.727 -3.3859  1.1224  1.6216
  669MOL0     H88288   2.370   9.183   5.865  0.7734  0.3897  1.2802
  669MOL0     H88289   2.520   9.114   5.941 -0.4154  0.2435  0.8367
  669MOL0     H88290   3.523   8.944   6.034  0.3035  4.0694 -3.6493
  669MOL0     H88291   3.712   8.993   6.194 -0.9099  0.7934 -1.0278
  669MOL0     H88292   3.832   9.308   6.546  1.9492  1.6373 -0.6701
  669MOL0     H88293   4.016   9.372   6.659 -3.8321  0.3167 -0.3439
  669MOL0     H88294   5.424   8.737   5.177 -1.3056 -0.4819  1.2839
  669MOL0     H88295   5.547   8.531   5.206  1.4086 -1.2165  0.8690
  669MOL0     H88296   5.599   8.224   5.612 -0.5475  1.2469 -2.5962
  669MOL0     H88297   5.729   8.031   5.708 -1.7859  2.2956  1.7638
  669MOL0     H88298   6.151   8.019   5.665 -1.2743  0.8930 -0.8749
  669MOL0     H88299   6.103   7.964   5.513  1.3848  2.3884 -0.1440
  669MOL0     H88300   6.109   7.732   5.573 -1.7326  1.1043  0.5772
  669MOL0     H88301   6.259   7.816   5.650 -0.7460  2.5210  0.2592
  669MOL0     H88302   6.146   7.643   5.789  1.3121  0.1321 -6.5380
  669MOL0     H88303   6.001   7.741   5.755 -0.0861 -2.3240 -3.5106
  669MOL0     H88304   6.084   7.915   5.894 -1.3126 -1.1081  0.3155
  669MOL0     H88305   6.107   7.769   5.983 -1.0408  0.7312 -1.2807
  669MOL0     H88306   6.514   7.876   5.921  0.0513  1.2229 -1.0188
  669MOL0     H88307   6.069   8.164   5.490 -0.4770  0.8784  0.2611
  669MOL0     H88308   5.943   8.342   5.385  2.5330  0.7777  1.1974
  670MOL0     O88309  10.001   8.299   2.564  0.6441  0.2108 -0.2308
  670MOL0     C88310  10.008   8.289   2.685  0.0505  0.3459  0.0714
  670MOL0     O88311   9.920   8.244   2.770 -0.5600  0.1000 -0.0985
  670MOL0     C88312   9.792   8.232   2.723  0.1796  0.6891  0.2499
  670MOL0     C88313   9.708   8.326   2.672 -0.2039 -0.5640 -0.7675
  670MOL0     C88314   9.577   8.292   2.620  0.2899  0.2290 -1.2134
  670MOL0     C88315   9.527   8.161   2.637 -0.3024  0.1077  0.0012
  670MOL0     O88316   9.397   8.129   2.627  0.3588 -0.9205 -0.9477
  670MOL0     C88317   9.322   8.185   2.517 -1.1929  0.0856 -0.7861
  670MOL0     C88318   9.244   8.320   2.548  0.0431 -0.2945 -0.0326
  670MOL0     C88319   9.093   8.275   2.579 -0.7622  0.0711  1.1264
  670MOL0     C88320   9.001   8.395   2.605  0.4429  0.0671  0.3965
  670MOL0     C88321   8.860   8.340   2.660  0.5313 -0.0634 -0.1244
  670MOL0     C88322   8.746   8.440   2.669 -0.0714 -0.7470 -0.1366
  670MOL0     C88323   8.602   8.385   2.686  0.4077 -0.6427  1.0564
  670MOL0     C88324   8.510   8.512   2.678 -0.3142  0.4830 -0.0225
  670MOL0     N88325   8.378   8.493   2.729 -0.4352  0.6016  0.7580
  670MOL0     C88326   8.271   8.424   2.670  0.4896  0.2280  0.1262
  670MOL0     C88327   8.166   8.460   2.739  0.1517  0.6585  0.5426
  670MOL0     C88328   8.023   8.412   2.703 -0.0990 -0.3997  0.8362
  670MOL0     C88329   7.964   8.457   2.569 -0.3402 -0.0408  0.4383
  670MOL0     C88330   7.813   8.421   2.557 -0.1142  0.0301  0.3661
  670MOL0     C88331   7.785   8.272   2.569  0.7402 -0.6848 -0.6114
  670MOL0     O88332   7.678   8.229   2.488 -0.3562 -0.4797 -0.8386
  670MOL0     C88333   7.557   8.283   2.523  0.4481  0.0539  0.3583
  670MOL0     C88334   7.447   8.250   2.436 -0.9272  1.9243  0.4218
  670MOL0     C88335   7.319   8.307   2.457 -0.1748  0.5260 -0.6555
  670MOL0     C88336   7.284   8.377   2.572  0.1456  0.4553  0.4235
  670MOL0     C88337   7.146   8.414   2.601  0.5156  0.4928 -0.5547
  670MOL0     O88338   7.043   8.338   2.547 -0.4013  0.0592 -0.6434
  670MOL0     C88339   6.911   8.368   2.571  0.1875 -0.5864  0.4391
  670MOL0     C88340   6.821   8.336   2.466 -0.0467 -0.1037  0.3276
  670MOL0     C88341   6.685   8.357   2.476 -0.1259  0.0475  0.2893
  670MOL0     C88342   6.631   8.410   2.589  0.5868 -0.1061 -0.0146
  670MOL0     O88343   6.497   8.426   2.615  0.5081  0.2424 -0.4277
  670MOL0     C88344   6.410   8.460   2.506 -0.3636  1.3764  0.2658
  670MOL0     C88345   6.271   8.460   2.566 -0.2974 -0.5016  0.2101
  670MOL0     C88346   6.176   8.544   2.487 -0.5214  0.2177  0.0580
  670MOL0     C88347   6.030   8.528   2.539  0.3782 -0.5106 -0.2143
  670MOL0     C88348   5.931   8.600   2.440  0.3728 -1.2829 -0.3900
  670MOL0     C88349   5.941   8.751   2.450 -0.7533  0.8787 -0.2143
  670MOL0     C88350   5.828   8.828   2.400  0.4509 -0.2112 -0.5508
  670MOL0     C88351   5.773   8.781   2.266  0.1874 -0.6653  0.5269
  670MOL0    Cl88352   5.626   8.876   2.221 -0.1217  0.3680 -0.3500
  670MOL0     C88353   6.722   8.442   2.688  0.1972  0.8806 -0.8478
  670MOL0     C88354   6.860   8.426   2.682  0.6352 -0.3400 -0.6417
  670MOL0     O88355   7.121   8.515   2.671  1.0527 -0.3637  0.2570
  670MOL0     C88356   7.388   8.399   2.659 -0.2512  0.0122 -0.2898
  670MOL0     C88357   7.516   8.358   2.639 -0.4502  0.1999 -0.0664
  670MOL0     N88358   8.202   8.523   2.853  0.7969  0.0156 -1.1441
  670MOL0     N88359   8.329   8.540   2.851  1.1576 -0.0087  0.8230
  670MOL0     C88360   9.603   8.074   2.717 -0.0414  0.2848 -0.3377
  670MOL0     C88361   9.734   8.106   2.755  0.4520  0.5636  0.1302
  670MOL0     C88362  10.129   8.334   2.760  0.3381  0.2301  0.1885
  670MOL0     C88363  10.247   8.355   2.693  0.1188 -0.7763  0.3507
  670MOL0     C88364  10.356   8.392   2.757 -0.4363 -0.2299 -0.1276
  670MOL0     C88365  10.354   8.423   2.895  0.1838 -0.1911 -0.1789
  670MOL0     O88366  10.473   8.452   2.957  0.1892  0.9011  0.1928
  670MOL0     C88367  10.473   8.465   3.100 -0.5276  0.0267 -0.6844
  670MOL0     C88368  10.622   8.458   3.148  0.3647 -0.6584 -0.9275
  670MOL0     C88369  10.643   8.548   3.271 -0.4691  0.5896 -0.3380
  670MOL0     C88370  10.786   8.547   3.324  0.2751  0.7264  1.4967
  670MOL0     C88371  10.815   8.656   3.408 -1.0297 -0.9149  0.4831
  670MOL0     C88372  10.841   8.757   3.478  0.2470  0.4309  0.2472
  670MOL0     C88373  10.234   8.411   2.968  0.2273  0.7967  0.6993
  670MOL0     C88374  10.123   8.358   2.900 -0.0872 -0.4054  0.0190
  670MOL0     H88375   9.734   8.431   2.669  0.2734 -0.6798 -0.6975
  670MOL0     H88376   9.514   8.364   2.570 -1.4581  0.4580  1.1536
  670MOL0     H88377   9.253   8.113   2.471 -0.5393 -4.1244  3.9493
  670MOL0     H88378   9.399   8.213   2.444 -1.0200  0.2939 -0.5261
  670MOL0     H88379   9.237   8.384   2.459 -1.8500 -0.2151  0.1427
  670MOL0     H88380   9.285   8.370   2.636 -1.2609 -0.0464  0.4448
  670MOL0     H88381   9.087   8.218   2.673  1.9968 -0.9618  0.7683
  670MOL0     H88382   9.048   8.219   2.497 -0.3959  1.4836 -0.0771
  670MOL0     H88383   9.045   8.455   2.685 -1.9568 -0.5210  2.2737
  670MOL0     H88384   8.987   8.464   2.521 -1.4125 -2.4541 -1.5351
  670MOL0     H88385   8.879   8.297   2.758  2.3621  1.2108  0.1259
  670MOL0     H88386   8.830   8.275   2.577  2.4395 -1.0430 -0.1125
  670MOL0     H88387   8.754   8.491   2.573 -0.7002 -3.5275 -1.7817
  670MOL0     H88388   8.767   8.499   2.759 -0.2121  1.9547 -1.7683
  670MOL0     H88389   8.575   8.318   2.604  2.5056 -0.1919 -0.0622
  670MOL0     H88390   8.587   8.346   2.787 -2.3045 -1.2458  0.4991
  670MOL0     H88391   8.522   8.542   2.574 -0.6711 -1.5577 -0.6971
  670MOL0     H88392   8.553   8.597   2.731  0.5077  0.3861 -0.5139
  670MOL0     H88393   8.271   8.371   2.575  0.0734  2.8751 -1.4889
  670MOL0     H88394   7.951   8.446   2.778 -0.7261  1.2453 -0.4313
  670MOL0     H88395   8.037   8.304   2.696 -1.4092 -0.4839 -3.1761
  670MOL0     H88396   8.021   8.422   2.482 -0.0479  2.6289 -0.5499
  670MOL0     H88397   7.963   8.566   2.573  0.6235  0.1934 -2.7647
  670MOL0     H88398   7.763   8.483   2.633 -0.7440 -0.4403  0.3455
  670MOL0     H88399   7.775   8.454   2.460 -1.8575 -1.0714  0.6235
  670MOL0     H88400   7.750   8.248   2.669 -1.3765 -1.5438 -1.5192
  670MOL0     H88401   7.872   8.210   2.546  1.3689  0.6852 -2.1893
  670MOL0     H88402   7.468   8.180   2.355 -1.0647  1.0732  1.1114
  670MOL0     H88403   7.250   8.282   2.378  2.5671 -1.3233 -2.6383
  670MOL0     H88404   6.869   8.300   2.376  2.4863 -0.8810  1.8718
  670MOL0     H88405   6.626   8.316   2.394  0.8006 -1.9183  0.5374
  670MOL0     H88406   6.407   8.383   2.429  0.7051  0.3849  1.1808
  670MOL0     H88407   6.421   8.562   2.468 -2.4301  0.7024 -2.3930
  670MOL0     H88408   6.278   8.504   2.666  3.9832 -2.5222  1.0327
  670MOL0     H88409   6.233   8.361   2.591 -0.1261  0.2436  4.0936
  670MOL0     H88410   6.183   8.515   2.381 -0.7705  0.5865 -0.0623
  670MOL0     H88411   6.203   8.649   2.499  1.6113 -0.4743  1.9894
  670MOL0     H88412   6.012   8.420   2.545  0.7801 -0.5685 -0.0837
  670MOL0     H88413   6.029   8.579   2.635  1.3970  0.1788 -0.5563
  670MOL0     H88414   5.837   8.575   2.489  0.8316 -1.7141  0.2946
  670MOL0     H88415   5.927   8.556   2.340 -1.3549  1.3919 -1.5969
  670MOL0     H88416   6.028   8.791   2.396  2.7077 -1.8929  2.7897
  670MOL0     H88417   5.951   8.778   2.555 -1.3502 -1.9163  0.6478
  670MOL0     H88418   5.745   8.812   2.469 -1.0031  0.7771 -1.9731
  670MOL0     H88419   5.846   8.936   2.403 -1.2385  0.0801  0.3855
  670MOL0     H88420   5.753   8.674   2.271  1.8938 -1.4523 -4.2119
  670MOL0     H88421   5.846   8.777   2.184  0.3513 -1.1546  0.6943
  670MOL0     H88422   6.681   8.499   2.771 -1.0712  1.9187 -2.1354
  670MOL0     H88423   6.919   8.459   2.767  0.6394  0.5869 -0.9945
  670MOL0     H88424   7.378   8.463   2.746  2.3437 -0.5163  0.4585
  670MOL0     H88425   7.587   8.373   2.720  0.6387 -2.9821 -0.3095
  670MOL0     H88426   9.561   7.974   2.726 -0.1324  0.2619 -0.9316
  670MOL0     H88427   9.787   8.025   2.805 -1.6053 -3.4259 -3.5287
  670MOL0     H88428  10.256   8.339   2.586 -0.8810  0.8883 -0.0188
  670MOL0     H88429  10.437   8.403   2.685 -0.3825  0.3320  0.0122
  670MOL0     H88430  10.409   8.407   3.167 -0.2455  4.0426  3.6033
  670MOL0     H88431  10.430   8.564   3.120 -2.0440 -0.6923 -0.2029
  670MOL0     H88432  10.641   8.356   3.182 -1.6734 -2.1615 -3.8205
  670MOL0     H88433  10.687   8.482   3.064  0.4501 -0.4152 -0.7919
  670MOL0     H88434  10.577   8.512   3.350 -2.7535  4.4831 -0.2083
  670MOL0     H88435  10.614   8.652   3.253  0.3374  0.8169 -0.3801
  670MOL0     H88436  10.799   8.456   3.383 -2.9398 -1.9260 -1.4121
  670MOL0     H88437  10.853   8.527   3.239  0.0809 -0.3371  1.5749
  670MOL0     H88438  10.853   8.851   3.529 -0.7651  0.8676 -0.3080
  670MOL0     H88439  10.223   8.460   3.065 -0.3516  3.5163 -0.6473
  670MOL0     H88440  10.034   8.358   2.963  0.6467 -1.2346  1.0914
  671MOL0     O88441   0.545   2.468   5.282 -0.0530 -1.1570  0.5555
  671MOL0     C88442   0.537   2.447   5.162 -0.3153  1.0617 -0.1013
  671MOL0     O88443   0.422   2.415   5.091 -0.3384 -0.6228  0.3546
  671MOL0     C88444   0.297   2.393   5.156  0.7237 -1.1915 -0.8590
  671MOL0     C88445   0.183   2.426   5.075 -0.3095 -0.9739  0.2402
  671MOL0     C88446   0.054   2.391   5.129 -0.0605 -0.6925  0.4831
  671MOL0     C88447   0.039   2.328   5.253  0.9898  0.2626  0.4799
  671MOL0     O88448  -0.089   2.288   5.297 -0.0009  0.5575  0.3139
  671MOL0     C88449  -0.106   2.152   5.356  0.5383 -0.4380  1.3692
  671MOL0     C88450  -0.254   2.110   5.384  0.6467 -0.3973  0.5430
  671MOL0     C88451  -0.330   2.227   5.453  0.8920 -0.7680 -1.1054
  671MOL0     C88452  -0.441   2.167   5.535  0.2173 -0.9862 -0.5842
  671MOL0     C88453  -0.558   2.107   5.475  0.2281 -0.4593  0.7287
  671MOL0     C88454  -0.656   2.046   5.569  0.4456  0.2268 -0.6222
  671MOL0     C88455  -0.769   1.970   5.491 -0.4576  0.1320 -0.0826
  671MOL0     C88456  -0.911   2.026   5.512  0.1251  0.8953  0.3151
  671MOL0     N88457  -1.005   1.931   5.442 -0.2745 -0.5649 -0.0049
  671MOL0     C88458  -1.003   1.905   5.304  0.0136  0.2896 -0.2575
  671MOL0     C88459  -1.082   1.801   5.287  0.1692 -0.2795  0.0621
  671MOL0     C88460  -1.097   1.741   5.145  0.2128 -0.9703 -0.3445
  671MOL0     C88461  -1.229   1.782   5.065 -0.4737 -0.2695 -0.6236
  671MOL0     C88462  -1.210   1.903   4.974 -1.4830  0.0542 -0.0625
  671MOL0     C88463  -1.334   1.965   4.926  0.0648  0.1125 -0.0659
  671MOL0     O88464  -1.322   2.074   4.838  0.5984 -1.1575 -0.5249
  671MOL0     C88465  -1.292   2.067   4.705  0.2058  0.0656 -0.1017
  671MOL0     C88466  -1.265   1.948   4.631  0.0974 -0.6789  0.0875
  671MOL0     C88467  -1.262   1.943   4.493 -0.2583  0.7437  0.2340
  671MOL0     C88468  -1.280   2.055   4.416 -0.1585  0.0874 -0.1861
  671MOL0     C88469  -1.296   2.051   4.268 -0.2626  0.4913  1.0717
  671MOL0     O88470  -1.316   1.939   4.201  0.0934  0.4377 -0.3417
  671MOL0     C88471  -1.360   1.932   4.077  0.8998  0.1376  0.5501
  671MOL0     C88472  -1.472   1.874   4.043 -0.1929 -0.7021 -0.1615
  671MOL0     C88473  -1.495   1.846   3.910  0.5561  0.5939 -0.0293
  671MOL0     C88474  -1.409   1.874   3.811  0.4288 -0.1827  1.2504
  671MOL0     O88475  -1.440   1.825   3.685 -0.3664 -0.3404 -0.4999
  671MOL0     C88476  -1.342   1.846   3.593  1.0166 -0.0608  0.6933
  671MOL0     C88477  -1.400   1.787   3.468 -0.1268 -0.2330 -0.1888
  671MOL0     C88478  -1.301   1.812   3.353  0.2997 -0.3989 -0.5339
  671MOL0     C88479  -1.313   1.706   3.243  0.1965  0.6299  0.1047
  671MOL0     C88480  -1.449   1.713   3.160 -0.7753 -0.2621 -0.1280
  671MOL0     C88481  -1.434   1.591   3.057  0.5824 -0.9791 -0.0041
  671MOL0     C88482  -1.538   1.604   2.952 -0.5172  0.3710  0.0816
  671MOL0     C88483  -1.535   1.478   2.860 -0.6355 -0.2218 -0.2471
  671MOL0    Cl88484  -1.599   1.327   2.937  0.0192  0.0076  0.1084
  671MOL0     C88485  -1.300   1.947   3.847  0.0714 -0.3247 -0.2192
  671MOL0     C88486  -1.268   1.971   3.978  0.4204  1.0364  0.4040
  671MOL0     O88487  -1.274   2.158   4.216  0.3250 -0.0667 -0.1424
  671MOL0     C88488  -1.292   2.173   4.487 -0.2557  0.1996  0.0725
  671MOL0     C88489  -1.304   2.184   4.634 -0.8320  0.4305  0.5808
  671MOL0     N88490  -1.146   1.768   5.411  0.3492  0.1299 -0.3502
  671MOL0     N88491  -1.097   1.842   5.502  0.2384  0.0351  0.8232
  671MOL0     C88492   0.149   2.315   5.337 -0.1336 -0.6738  0.3981
  671MOL0     C88493   0.277   2.348   5.292 -0.2023 -0.5542 -0.4132
  671MOL0     C88494   0.661   2.441   5.081 -0.5406  0.6831  0.8251
  671MOL0     C88495   0.785   2.417   5.145 -0.2984 -0.6377  0.3747
  671MOL0     C88496   0.906   2.432   5.076 -0.4377  0.3934 -1.0745
  671MOL0     C88497   0.914   2.440   4.943  0.9821 -0.7786  0.0703
  671MOL0     O88498   1.029   2.449   4.864 -0.5334  0.4370 -0.3352
  671MOL0     C88499   1.152   2.458   4.945 -0.5257 -0.2731  0.7802
  671MOL0     C88500   1.270   2.474   4.852 -0.3148 -0.7846  0.4431
  671MOL0     C88501   1.405   2.489   4.928  0.7516  0.7585 -1.2189
  671MOL0     C88502   1.526   2.529   4.841  0.0259 -0.1550 -0.1615
  671MOL0     C88503   1.546   2.431   4.736 -0.1278  0.1516  0.8374
  671MOL0     C88504   1.570   2.364   4.641  0.8842 -0.0203 -0.1894
  671MOL0     C88505   0.787   2.453   4.872 -0.5027  0.2548  0.0263
  671MOL0     C88506   0.671   2.456   4.944  0.3755 -0.1461  0.3927
  671MOL0     H88507   0.188   2.468   4.976 -2.2309 -1.4904 -0.1358
  671MOL0     H88508  -0.034   2.399   5.066  1.2295  2.9646 -1.1285
  671MOL0     H88509  -0.059   2.144   5.455  0.4118  1.2528  1.6016
  671MOL0     H88510  -0.059   2.077   5.292  0.6536 -0.5667  1.6029
  671MOL0     H88511  -0.262   2.018   5.444 -1.4934 -1.5738 -1.4022
  671MOL0     H88512  -0.305   2.087   5.291 -0.3170 -1.1302  1.2286
  671MOL0     H88513  -0.367   2.308   5.390 -1.8789 -0.8347  0.3039
  671MOL0     H88514  -0.268   2.283   5.524 -0.8290 -0.2937  0.0735
  671MOL0     H88515  -0.395   2.087   5.593  0.1494  0.4667  1.6253
  671MOL0     H88516  -0.480   2.240   5.607 -3.6271 -1.8422 -1.5461
  671MOL0     H88517  -0.507   2.029   5.418  2.1816 -0.1388  1.9353
  671MOL0     H88518  -0.600   2.176   5.402 -2.3601 -3.6117 -1.0637
  671MOL0     H88519  -0.702   2.119   5.636 -0.6787 -0.1678 -0.9413
  671MOL0     H88520  -0.612   1.968   5.632  0.2117  2.2620  2.2796
  671MOL0     H88521  -0.747   1.977   5.384  1.3711  1.2783  0.3083
  671MOL0     H88522  -0.762   1.864   5.514 -2.0080 -0.4261 -2.0105
  671MOL0     H88523  -0.927   2.121   5.461 -0.9163  0.0991 -0.9281
  671MOL0     H88524  -0.930   2.023   5.619  2.2315  0.6955  0.7294
  671MOL0     H88525  -0.922   1.954   5.251  0.7063  1.0781  1.4526
  671MOL0     H88526  -1.076   1.634   5.133  1.1944 -0.5771 -2.6979
  671MOL0     H88527  -1.010   1.783   5.095  1.1761 -1.8818  0.5234
  671MOL0     H88528  -1.305   1.812   5.138 -0.3129  1.7326 -1.2231
  671MOL0     H88529  -1.276   1.699   5.012 -0.4307 -0.9707  0.4123
  671MOL0     H88530  -1.150   1.975   5.030  1.7999 -0.8152 -2.1563
  671MOL0     H88531  -1.151   1.874   4.887  1.9325  2.0834  1.3895
  671MOL0     H88532  -1.395   2.011   5.005 -0.6765  1.0885 -1.1620
  671MOL0     H88533  -1.399   1.894   4.873 -1.2282  1.4993 -0.4378
  671MOL0     H88534  -1.248   1.854   4.682  0.1540 -0.9232 -0.3848
  671MOL0     H88535  -1.253   1.843   4.453 -0.0591  1.1713 -0.8060
  671MOL0     H88536  -1.543   1.832   4.114  1.3010 -2.1745  0.5386
  671MOL0     H88537  -1.586   1.794   3.882  0.6790  1.0168 -1.2693
  671MOL0     H88538  -1.252   1.793   3.624  0.6604  0.5552  2.9914
  671MOL0     H88539  -1.318   1.953   3.587 -1.7534  0.7609  2.4114
  671MOL0     H88540  -1.501   1.824   3.447 -1.7866 -1.6997  4.0929
  671MOL0     H88541  -1.399   1.677   3.471  2.3841 -0.2484  0.7572
  671MOL0     H88542  -1.199   1.809   3.394 -0.6604 -0.4828  2.0169
  671MOL0     H88543  -1.319   1.908   3.304 -3.0515 -0.1349  0.9258
  671MOL0     H88544  -1.234   1.721   3.169 -0.2816  0.3071 -0.4889
  671MOL0     H88545  -1.301   1.608   3.289 -4.0824  0.1670  0.6610
  671MOL0     H88546  -1.455   1.815   3.121  2.5493  2.3717  5.0405
  671MOL0     H88547  -1.537   1.701   3.223 -1.4810  1.7550 -0.6715
  671MOL0     H88548  -1.454   1.495   3.105 -3.1023 -0.5882 -0.4417
  671MOL0     H88549  -1.335   1.607   3.013  0.0261 -0.5064 -1.1232
  671MOL0     H88550  -1.635   1.608   3.004  0.2941 -2.4373  2.0175
  671MOL0     H88551  -1.517   1.683   2.879 -2.1940  0.3134 -0.5219
  671MOL0     H88552  -1.429   1.476   2.834 -0.8567  0.5118 -1.2688
  671MOL0     H88553  -1.592   1.494   2.769  0.9742 -0.4635 -1.3334
  671MOL0     H88554  -1.221   1.981   3.780 -0.4830 -0.9611 -1.2317
  671MOL0     H88555  -1.176   2.022   4.003  1.2506 -0.2985  0.1714
  671MOL0     H88556  -1.309   2.260   4.425 -0.7942  0.1308  0.1177
  671MOL0     H88557  -1.336   2.278   4.677  0.5432  1.6430 -0.9185
  671MOL0     H88558   0.134   2.279   5.438  1.0228 -0.3979  0.6845
  671MOL0     H88559   0.362   2.338   5.359 -0.0342 -0.8254 -0.6619
  671MOL0     H88560   0.796   2.413   5.252  1.0267 -0.9739  0.2445
  671MOL0     H88561   1.001   2.435   5.129  1.2917 -6.1031 -2.8742
  671MOL0     H88562   1.162   2.368   5.006  2.8957 -1.6261 -1.4724
  671MOL0     H88563   1.139   2.549   5.005  1.2723 -1.1121  2.5489
  671MOL0     H88564   1.294   2.388   4.790 -0.0016  0.5602 -1.4058
  671MOL0     H88565   1.251   2.554   4.779 -1.4546  0.0658  1.6177
  671MOL0     H88566   1.429   2.392   4.972  3.4172  2.9672  2.9091
  671MOL0     H88567   1.395   2.563   5.008 -2.0432 -1.4599  0.6880
  671MOL0     H88568   1.513   2.621   4.784  2.4222  1.6570  1.9911
  671MOL0     H88569   1.614   2.535   4.906 -0.4897 -1.5913  0.7131
  671MOL0     H88570   1.602   2.308   4.556 -3.5012 -0.8239 -1.5681
  671MOL0     H88571   0.785   2.466   4.764 -0.0312 -0.2936 -0.0517
  671MOL0     H88572   0.576   2.456   4.890  0.5115  0.0353  0.1514
  672MOL0     O88573   1.190   9.333   3.140 -0.4927  0.3393 -0.2649
  672MOL0     C88574   1.182   9.274   3.031 -0.5236  0.8627 -0.1606
  672MOL0     O88575   1.079   9.191   2.984  0.4002 -0.4096 -0.7577
  672MOL0     C88576   0.977   9.180   3.073  0.3027 -1.4724 -0.6566
  672MOL0     C88577   1.003   9.111   3.191  0.2564  0.8137  0.0659
  672MOL0     C88578   0.898   9.084   3.278  1.1990  0.9872 -1.0630
  672MOL0     C88579   0.764   9.122   3.257 -0.0801  0.2450  0.2697
  672MOL0     O88580   0.662   9.113   3.352  0.6350 -0.2230  0.7359
  672MOL0     C88581   0.695   9.083   3.494 -0.4692 -0.6440  0.0775
  672MOL0     C88582   0.774   9.199   3.560 -0.0888 -0.5789 -0.4372
  672MOL0     C88583   0.855   9.161   3.694  0.2776 -0.2021 -0.3058
  672MOL0     C88584   0.905   9.291   3.769  0.2313  0.8747 -1.5080
  672MOL0     C88585   1.034   9.356   3.724  0.3606 -0.0551  0.8453
  672MOL0     C88586   1.147   9.254   3.708  0.4103 -0.4601 -1.0782
  672MOL0     C88587   1.280   9.329   3.709 -0.1872 -1.1537 -0.1117
  672MOL0     C88588   1.399   9.258   3.768 -0.6399 -0.3432  0.8386
  672MOL0     N88589   1.502   9.346   3.808  0.1614 -0.1267  0.2749
  672MOL0     C88590   1.590   9.410   3.719  0.9515 -0.3559  0.0568
  672MOL0     C88591   1.698   9.433   3.803 -0.3426  0.3923 -0.1529
  672MOL0     C88592   1.829   9.473   3.743 -0.3725  0.0514  0.3019
  672MOL0     C88593   1.954   9.429   3.828  0.1273  0.3273  0.1679
  672MOL0     C88594   2.089   9.493   3.791 -0.2626 -0.0360 -0.4574
  672MOL0     C88595   2.121   9.507   3.643  0.2942  0.9558 -0.2732
  672MOL0     O88596   2.101   9.385   3.567  0.4631  0.2884 -0.5696
  672MOL0     C88597   2.171   9.353   3.455 -0.4819  1.0581 -0.2609
  672MOL0     C88598   2.144   9.224   3.402  0.4745 -0.9193 -1.2346
  672MOL0     C88599   2.219   9.187   3.292 -0.6606 -0.3316 -0.0570
  672MOL0     C88600   2.335   9.265   3.248  0.9074 -0.5345 -0.1211
  672MOL0     C88601   2.424   9.224   3.140  0.4706 -0.1743 -0.1935
  672MOL0     O88602   2.544   9.291   3.148 -0.0414  0.0515  0.6264
  672MOL0     C88603   2.638   9.259   3.052  0.3125  0.1432  0.1685
  672MOL0     C88604   2.758   9.203   3.088 -0.0509  0.2876 -0.3216
  672MOL0     C88605   2.861   9.176   2.990  0.0165  0.7392 -0.7524
  672MOL0     C88606   2.830   9.186   2.858 -0.6296  0.3869 -0.3223
  672MOL0     O88607   2.927   9.151   2.767  0.9537 -0.2516 -0.6551
  672MOL0     C88608   3.054   9.218   2.768 -0.2437  0.2231 -0.3090
  672MOL0     C88609   3.151   9.127   2.684 -0.0801  0.6065  0.1833
  672MOL0     C88610   3.160   8.990   2.751  0.9908  0.1941  0.6279
  672MOL0     C88611   3.300   8.963   2.790 -0.5652 -0.2703  0.2130
  672MOL0     C88612   3.308   8.828   2.868  0.0858 -0.5651  0.5574
  672MOL0     C88613   3.228   8.821   3.002 -0.2422  0.0020  0.3986
  672MOL0     C88614   3.259   8.696   3.077 -0.1120 -0.1815  0.0561
  672MOL0     C88615   3.399   8.696   3.144  0.0181  0.1469  0.5171
  672MOL0    Cl88616   3.427   8.546   3.232 -0.2751  0.1920 -0.1016
  672MOL0     C88617   2.704   9.208   2.819  0.2569  0.5175  0.3851
  672MOL0     C88618   2.622   9.270   2.912  0.5501  0.0463 -0.3162
  672MOL0     O88619   2.395   9.128   3.069  0.6621 -0.3689  0.4434
  672MOL0     C88620   2.353   9.397   3.308  0.1934 -0.1594 -0.5977
  672MOL0     C88621   2.274   9.442   3.410 -0.5747 -0.1231 -0.4832
  672MOL0     N88622   1.675   9.383   3.926  0.1914  1.3570 -0.0187
  672MOL0     N88623   1.557   9.334   3.927 -1.0343 -0.0444  0.3469
  672MOL0     C88624   0.744   9.192   3.131  0.8311  0.7182  0.3775
  672MOL0     C88625   0.845   9.230   3.036 -0.3443 -0.3406 -0.1517
  672MOL0     C88626   1.293   9.290   2.932  0.0948  1.1304  0.0777
  672MOL0     C88627   1.280   9.248   2.805  0.0922  0.7912 -0.0690
  672MOL0     C88628   1.388   9.239   2.715 -0.1529  0.3196 -0.7399
  672MOL0     C88629   1.514   9.294   2.752 -0.6468 -0.1460  0.3799
  672MOL0     O88630   1.631   9.279   2.680  0.1267  0.3925 -0.1333
  672MOL0     C88631   1.616   9.236   2.544 -0.3034  0.7462 -0.0552
  672MOL0     C88632   1.755   9.240   2.471 -0.1134  0.3000  0.0672
  672MOL0     C88633   1.760   9.165   2.339  1.3600  0.8035 -0.5884
  672MOL0     C88634   1.907   9.163   2.283  0.7040  0.2792  0.7282
  672MOL0     C88635   1.958   9.303   2.251 -0.0752 -0.4149  0.6130
  672MOL0     C88636   2.002   9.413   2.220 -0.2007 -0.1093 -1.1796
  672MOL0     C88637   1.529   9.349   2.875 -0.0659 -0.3453 -0.6492
  672MOL0     C88638   1.420   9.352   2.964  0.6003  0.7276  0.1287
  672MOL0     H88639   1.101   9.070   3.214 -0.4251 -0.6185  0.4918
  672MOL0     H88640   0.919   9.026   3.367 -1.0857  1.0554 -0.4173
  672MOL0     H88641   0.758   8.994   3.498 -1.1090 -1.0772  0.9918
  672MOL0     H88642   0.595   9.063   3.533 -1.2992 -0.0135 -1.6386
  672MOL0     H88643   0.707   9.284   3.578  1.0637  1.4295 -4.4398
  672MOL0     H88644   0.843   9.237   3.484 -0.5306 -0.0240 -0.5717
  672MOL0     H88645   0.943   9.104   3.662 -0.3167 -0.8886 -0.7596
  672MOL0     H88646   0.794   9.091   3.752  2.7814 -2.2280  0.0829
  672MOL0     H88647   0.825   9.365   3.772 -2.3865 -1.7521 -0.9007
  672MOL0     H88648   0.918   9.259   3.873 -0.9949  1.3303 -1.2009
  672MOL0     H88649   1.053   9.423   3.809  1.6825  0.8244 -0.0991
  672MOL0     H88650   1.020   9.419   3.636 -0.3035 -0.4198  0.6846
  672MOL0     H88651   1.131   9.186   3.623  2.0951  0.4532 -2.1786
  672MOL0     H88652   1.151   9.195   3.800  2.7449  1.5374  0.1992
  672MOL0     H88653   1.319   9.348   3.609  0.1870 -0.9288  0.0754
  672MOL0     H88654   1.275   9.424   3.762 -0.9109 -1.5032  0.4753
  672MOL0     H88655   1.449   9.195   3.694  1.0392  0.9527  0.8063
  672MOL0     H88656   1.366   9.196   3.851 -1.3842 -2.5039 -0.9841
  672MOL0     H88657   1.585   9.410   3.611 -0.4520  0.5652  0.1012
  672MOL0     H88658   1.827   9.582   3.735 -1.4550 -0.0316 -0.8324
  672MOL0     H88659   1.833   9.436   3.640 -3.4250  1.7942 -0.5501
  672MOL0     H88660   1.971   9.321   3.830  0.6856  0.3974 -0.4654
  672MOL0     H88661   1.930   9.446   3.933  1.6164  0.3519  0.5332
  672MOL0     H88662   2.107   9.591   3.836 -0.8630  0.2702 -0.8719
  672MOL0     H88663   2.170   9.442   3.843 -1.1014  1.1442  2.1505
  672MOL0     H88664   2.227   9.531   3.641  0.9196 -1.5370 -1.1993
  672MOL0     H88665   2.063   9.592   3.607 -2.5691 -0.2663  1.0751
  672MOL0     H88666   2.067   9.160   3.444  0.2744  0.4322  0.5796
  672MOL0     H88667   2.172   9.093   3.266 -2.6970  0.2678  1.1611
  672MOL0     H88668   2.756   9.187   3.195 -1.1792  2.3266  0.0131
  672MOL0     H88669   2.966   9.155   3.010  0.3135  2.4907 -0.2429
  672MOL0     H88670   3.106   9.234   2.863  3.3947 -0.4284 -2.0111
  672MOL0     H88671   3.051   9.319   2.725 -0.3089 -0.2729 -1.4834
  672MOL0     H88672   3.252   9.169   2.674 -0.3717  1.7803  1.7663
  672MOL0     H88673   3.100   9.126   2.587  0.7063  2.5428 -0.3056
  672MOL0     H88674   3.139   8.910   2.678 -0.5927 -1.0591  2.3536
  672MOL0     H88675   3.093   8.979   2.837  0.5756  0.6680  0.3645
  672MOL0     H88676   3.365   8.966   2.702 -1.3362  0.7862 -0.3253
  672MOL0     H88677   3.340   9.040   2.857  0.9952 -0.5348 -0.3592
  672MOL0     H88678   3.414   8.800   2.867  0.4630  0.5459 -3.3170
  672MOL0     H88679   3.258   8.767   2.792 -3.1028  1.2798  0.9682
  672MOL0     H88680   3.121   8.826   2.982 -0.0673  0.5172 -0.4634
  672MOL0     H88681   3.259   8.908   3.060  0.1516  1.3296 -1.6852
  672MOL0     H88682   3.174   8.676   3.144  0.1246  4.8592  2.2852
  672MOL0     H88683   3.257   8.618   3.000 -1.4221 -1.2904  1.1631
  672MOL0     H88684   3.402   8.786   3.207 -2.9293 -0.3559  1.5681
  672MOL0     H88685   3.480   8.720   3.074  0.7722  2.0085  1.9260
  672MOL0     H88686   2.687   9.210   2.711  0.5621 -2.6754  0.1989
  672MOL0     H88687   2.541   9.335   2.878 -0.3085 -0.0980  1.3660
  672MOL0     H88688   2.434   9.459   3.272  1.7001 -1.2055  0.8763
  672MOL0     H88689   2.301   9.533   3.462  0.3804 -1.8767  2.3298
  672MOL0     H88690   0.640   9.221   3.118 -0.2805 -0.9195  4.1718
  672MOL0     H88691   0.816   9.295   2.955  1.6993  1.2587  0.3102
  672MOL0     H88692   1.187   9.202   2.770  0.8938 -0.1932 -1.0014
  672MOL0     H88693   1.375   9.192   2.618 -0.8153  0.9071 -0.9407
  672MOL0     H88694   1.542   9.309   2.509 -0.1912  2.0142  2.1719
  672MOL0     H88695   1.572   9.136   2.539 -2.4617  1.3702  3.3901
  672MOL0     H88696   1.785   9.343   2.452 -1.9559  1.5111  2.9302
  672MOL0     H88697   1.831   9.205   2.542 -0.3127 -0.6113 -0.1503
  672MOL0     H88698   1.693   9.224   2.276 -0.7789  0.4395  1.2038
  672MOL0     H88699   1.725   9.063   2.361  0.5605  1.2815  0.4655
  672MOL0     H88700   1.973   9.123   2.360  2.2109  0.1763 -0.5835
  672MOL0     H88701   1.905   9.100   2.194 -0.7500 -0.2068  1.0718
  672MOL0     H88702   2.042   9.510   2.198  1.3720 -0.3180  0.5695
  672MOL0     H88703   1.621   9.380   2.922 -0.3355 -2.2679  1.3113
  672MOL0     H88704   1.436   9.392   3.064 -0.7944 -2.5383  1.8072
  673MOL0     O88705   1.020  10.610   3.202 -0.2923  0.3123  0.1945
  673MOL0     C88706   1.033  10.635   3.082 -0.2692 -0.8311  0.0644
  673MOL0     O88707   1.150  10.647   3.012 -0.5881  0.6352  0.6981
  673MOL0     C88708   1.267  10.596   3.067  1.1541 -0.0784 -0.5414
  673MOL0     C88709   1.302  10.615   3.203 -0.0670 -0.9456 -0.2360
  673MOL0     C88710   1.432  10.582   3.254  0.0065  0.4549  0.0296
  673MOL0     C88711   1.531  10.537   3.161  0.9024  0.5570 -0.1522
  673MOL0     O88712   1.659  10.491   3.183 -0.5041 -0.0791  0.2865
  673MOL0     C88713   1.695  10.454   3.323  0.1519 -1.0634 -0.7248
  673MOL0     C88714   1.728  10.568   3.432 -0.5821 -0.7935 -0.1453
  673MOL0     C88715   1.874  10.632   3.427  0.0358  0.3220  0.5536
  673MOL0     C88716   1.891  10.720   3.305  0.5637  0.6807  0.5952
  673MOL0     C88717   2.034  10.774   3.306  0.2604  1.1404  0.1234
  673MOL0     C88718   2.054  10.884   3.406  0.6038  0.0609  0.4355
  673MOL0     C88719   2.193  10.937   3.404  0.6857 -0.3309  0.1047
  673MOL0     C88720   2.221  11.013   3.269  0.5890  0.4214 -1.0465
  673MOL0     N88721   2.341  11.095   3.285 -0.0055 -0.7488  0.7057
  673MOL0     C88722   2.453  11.079   3.366  0.4801 -0.3658  0.0556
  673MOL0     C88723   2.521  11.196   3.355  0.7909 -1.2955 -0.9385
  673MOL0     C88724   2.641  11.218   3.434  0.4419  0.4682 -0.7578
  673MOL0     C88725   2.761  11.266   3.354 -0.2996 -0.7615  0.1944
  673MOL0     C88726   2.839  11.159   3.283  0.3198  0.0280  1.0390
  673MOL0     C88727   2.902  11.064   3.378 -0.1232  0.0304 -0.5697
  673MOL0     O88728   3.006  11.131   3.453 -0.0926  0.5844  0.5116
  673MOL0     C88729   3.112  11.059   3.489 -1.0547 -0.2420  0.0314
  673MOL0     C88730   3.098  10.926   3.525  0.4873  0.9387 -0.5473
  673MOL0     C88731   3.206  10.850   3.568  0.0665  0.9806  0.1855
  673MOL0     C88732   3.330  10.908   3.567 -0.2673 -0.2240  1.0012
  673MOL0     C88733   3.451  10.825   3.604 -0.3256  0.1861  0.7597
  673MOL0     O88734   3.563  10.868   3.544  0.2810  1.1233 -0.2356
  673MOL0     C88735   3.678  10.806   3.600  0.2322  0.0433 -0.3781
  673MOL0     C88736   3.749  10.871   3.702  0.9024  0.1517  0.4429
  673MOL0     C88737   3.868  10.810   3.754  0.7177  0.0472  0.2717
  673MOL0     C88738   3.924  10.686   3.714  0.5008  0.4189  0.0642
  673MOL0     O88739   4.042  10.636   3.766  0.1351 -0.4919 -0.7782
  673MOL0     C88740   4.011  10.546   3.869 -0.2270 -0.1389  0.1473
  673MOL0     C88741   4.146  10.479   3.903  0.2944 -1.0256  0.2563
  673MOL0     C88742   4.148  10.413   4.042  0.1492  0.4866  1.0572
  673MOL0     C88743   4.154  10.524   4.148 -0.4958  1.7128 -1.1447
  673MOL0     C88744   4.213  10.465   4.275 -0.6648  0.7163 -0.4152
  673MOL0     C88745   4.364  10.437   4.274 -0.3163  0.1044  0.7876
  673MOL0     C88746   4.432  10.415   4.413 -0.3134 -0.1831 -0.4402
  673MOL0     C88747   4.586  10.398   4.411  1.0745 -0.3457  0.0731
  673MOL0    Cl88748   4.645  10.247   4.329 -0.2522  0.6054  0.5474
  673MOL0     C88749   3.853  10.637   3.601  0.4763 -0.6961 -0.1916
  673MOL0     C88750   3.731  10.683   3.556  1.0095  0.1690 -0.9183
  673MOL0     O88751   3.435  10.712   3.649 -0.5124 -0.9652 -0.1243
  673MOL0     C88752   3.350  11.045   3.535  0.0179  0.5973 -0.7636
  673MOL0     C88753   3.237  11.122   3.496  0.3942 -0.1824 -0.1285
  673MOL0     N88754   2.449  11.278   3.258 -0.0243  0.5763  0.0543
  673MOL0     N88755   2.350  11.219   3.224 -0.6495 -0.2591  0.3912
  673MOL0     C88756   1.494  10.532   3.027 -0.0609 -0.4789 -0.1278
  673MOL0     C88757   1.362  10.554   2.984  0.5840 -0.4885  1.3675
  673MOL0     C88758   0.913  10.685   3.007 -0.6804 -0.1230  0.2829
  673MOL0     C88759   0.900  10.646   2.869 -0.1953  0.1137  0.2009
  673MOL0     C88760   0.788  10.685   2.796  0.5017 -0.0466 -0.1905
  673MOL0     C88761   0.688  10.762   2.859  0.0520  0.2923 -0.3527
  673MOL0     O88762   0.581  10.811   2.799 -0.4763 -1.1938  0.0836
  673MOL0     C88763   0.545  10.751   2.672  0.2047 -0.9774 -0.2255
  673MOL0     C88764   0.401  10.778   2.639 -1.3702  0.3620 -0.6300
  673MOL0     C88765   0.356  10.925   2.625  0.1982  1.0521  0.8301
  673MOL0     C88766   0.365  10.988   2.490  0.2064  0.0918 -0.1941
  673MOL0     C88767   0.496  10.982   2.420  0.5909 -0.8168 -0.0257
  673MOL0     C88768   0.600  10.972   2.355 -0.5633 -0.3846  0.3601
  673MOL0     C88769   0.713  10.808   2.988 -0.2423 -0.0498  0.2105
  673MOL0     C88770   0.821  10.762   3.065  0.5571  0.3792  0.5831
  673MOL0     H88771   1.233  10.672   3.264  0.1175 -0.7777 -0.1819
  673MOL0     H88772   1.431  10.582   3.362 -2.6547 -3.3718  0.2315
  673MOL0     H88773   1.785  10.391   3.319  0.7820 -0.2861  0.6638
  673MOL0     H88774   1.617  10.385   3.356  3.1140 -4.8818 -0.9814
  673MOL0     H88775   1.718  10.533   3.535 -0.1804 -3.0457 -0.8230
  673MOL0     H88776   1.656  10.649   3.418  0.9746  0.8245  0.7925
  673MOL0     H88777   1.948  10.551   3.423 -1.5821 -1.2370  0.9430
  673MOL0     H88778   1.888  10.693   3.516  1.0537  1.5162 -0.3823
  673MOL0     H88779   1.867  10.662   3.216 -0.5002  0.8575  0.7404
  673MOL0     H88780   1.818  10.802   3.308 -2.0330 -1.4041 -0.7746
  673MOL0     H88781   2.071  10.801   3.207  0.5860 -0.8838 -0.3511
  673MOL0     H88782   2.098  10.690   3.334 -3.5521 -2.5361 -1.0970
  673MOL0     H88783   2.033  10.828   3.498 -0.3952 -1.4415 -0.6534
  673MOL0     H88784   1.988  10.968   3.386  2.1965  0.7861 -2.3335
  673MOL0     H88785   2.211  11.004   3.489  1.3662  0.2131 -0.4586
  673MOL0     H88786   2.262  10.853   3.421  0.8629  0.2533  2.7954
  673MOL0     H88787   2.146  11.088   3.243  0.5263  0.0118 -2.1031
  673MOL0     H88788   2.236  10.945   3.185 -0.2593  1.4593 -2.0802
  673MOL0     H88789   2.469  10.994   3.431 -2.3765 -0.4662  0.7620
  673MOL0     H88790   2.661  11.144   3.512 -1.7603  0.0189 -0.5309
  673MOL0     H88791   2.600  11.305   3.488 -0.1478  0.1439 -0.6754
  673MOL0     H88792   2.822  11.309   3.434 -2.1138  1.0635  0.6776
  673MOL0     H88793   2.731  11.346   3.286 -1.6471 -2.6108 -1.5098
  673MOL0     H88794   2.773  11.106   3.213 -3.8894  0.6231  4.1269
  673MOL0     H88795   2.920  11.211   3.232  0.4456 -1.2525 -0.1240
  673MOL0     H88796   2.943  10.982   3.319 -1.0043 -1.1807  0.4530
  673MOL0     H88797   2.820  11.011   3.428 -3.6739  1.4566 -4.3055
  673MOL0     H88798   2.998  10.885   3.533 -1.0152  3.9853 -1.7685
  673MOL0     H88799   3.197  10.745   3.590  0.1521  0.1688 -3.0949
  673MOL0     H88800   3.711  10.962   3.748  0.5463  0.1099  0.2350
  673MOL0     H88801   3.913  10.859   3.840  0.7703  1.6163 -0.6225
  673MOL0     H88802   3.936  10.475   3.833  1.8702 -1.0696 -2.7677
  673MOL0     H88803   3.963  10.592   3.956 -2.1026 -1.4917 -0.1000
  673MOL0     H88804   4.218  10.561   3.896 -0.5861 -0.2965 -0.5341
  673MOL0     H88805   4.165  10.402   3.829 -0.5758  0.8543 -2.0469
  673MOL0     H88806   4.230  10.341   4.056 -0.3134 -0.6958 -1.7325
  673MOL0     H88807   4.057  10.353   4.047 -0.2817  0.7841 -1.6960
  673MOL0     H88808   4.224  10.603   4.120  3.0513 -0.6643  0.2095
  673MOL0     H88809   4.053  10.558   4.173 -1.8218 -2.7248  0.7145
  673MOL0     H88810   4.151  10.378   4.298  1.6452 -1.0028 -0.3563
  673MOL0     H88811   4.185  10.547   4.342  0.2470  1.3934 -0.8273
  673MOL0     H88812   4.402  10.524   4.220 -0.1833 -0.9875 -0.9681
  673MOL0     H88813   4.388  10.358   4.202  0.9043  2.1668 -1.1862
  673MOL0     H88814   4.411  10.508   4.466  1.9997  0.8433 -1.2212
  673MOL0     H88815   4.389  10.335   4.474  1.7952 -0.8377  0.2832
  673MOL0     H88816   4.627  10.407   4.512  2.3093 -2.2533 -0.2244
  673MOL0     H88817   4.633  10.479   4.354  0.1929 -1.1294 -1.8326
  673MOL0     H88818   3.895  10.547   3.558  2.6873  1.1366 -2.1622
  673MOL0     H88819   3.684  10.652   3.463 -0.6900  1.4745 -0.5561
  673MOL0     H88820   3.450  11.086   3.540  0.3115 -0.0486 -1.1905
  673MOL0     H88821   3.248  11.229   3.488  0.9560  0.0822  2.9440
  673MOL0     H88822   1.561  10.501   2.948 -0.9968 -0.3215 -1.0130
  673MOL0     H88823   1.325  10.563   2.882 -0.3130 -0.7944  1.6599
  673MOL0     H88824   0.980  10.587   2.826  1.2947  2.6913 -0.7339
  673MOL0     H88825   0.784  10.667   2.689 -2.7622 -1.1424  0.0298
  673MOL0     H88826   0.567  10.644   2.673  0.7829 -0.9682 -2.8854
  673MOL0     H88827   0.610  10.807   2.603 -1.3869  0.9645 -0.2574
  673MOL0     H88828   0.377  10.716   2.552  5.5109 -0.7389 -2.3736
  673MOL0     H88829   0.332  10.741   2.714 -1.8593  1.3752 -0.5630
  673MOL0     H88830   0.409  10.990   2.695  0.6148  0.0599  1.4584
  673MOL0     H88831   0.250  10.923   2.652 -0.1329 -3.8792  0.0964
  673MOL0     H88832   0.285  10.944   2.430  1.1123 -2.8930  0.6345
  673MOL0     H88833   0.334  11.091   2.512 -0.7984 -0.1286 -0.5503
  673MOL0     H88834   0.687  10.963   2.293  1.2475 -0.4342  2.7592
  673MOL0     H88835   0.635  10.859   3.044  0.3855  0.0834  0.9748
  673MOL0     H88836   0.832  10.799   3.166 -1.5072  2.6803  0.0710
  674MOL0     O88837   3.171   6.914   0.164  0.2496  0.9413 -0.3185
  674MOL0     C88838   3.203   6.798   0.202  0.1914 -0.0486  0.2647
  674MOL0     O88839   3.141   6.729   0.309  0.0442  0.3097 -0.1610
  674MOL0     C88840   3.040   6.785   0.382 -0.7558 -0.2010 -0.6642
  674MOL0     C88841   2.918   6.720   0.380 -0.8136 -0.7601 -0.0170
  674MOL0     C88842   2.809   6.764   0.456 -0.0828  0.0917 -0.1768
  674MOL0     C88843   2.831   6.872   0.545 -0.3596  0.2074 -0.4605
  674MOL0     O88844   2.749   6.913   0.645  0.3002 -1.0240  0.9870
  674MOL0     C88845   2.610   6.912   0.614 -0.2093  0.6788  0.0083
  674MOL0     C88846   2.545   7.004   0.722  0.0061 -0.0846  0.6536
  674MOL0     C88847   2.594   7.144   0.713  0.0842  0.6771 -0.7896
  674MOL0     C88848   2.502   7.252   0.779 -0.2737  0.0915 -0.1732
  674MOL0     C88849   2.455   7.222   0.920 -0.0146 -0.1944  0.1800
  674MOL0     C88850   2.380   7.335   0.988 -0.3609 -0.7694 -0.2718
  674MOL0     C88851   2.465   7.441   1.067 -0.1325 -0.1130 -0.1914
  674MOL0     C88852   2.374   7.526   1.158  0.6864 -0.9131 -0.3548
  674MOL0     N88853   2.445   7.635   1.240 -0.2463  0.3308  0.0449
  674MOL0     C88854   2.490   7.750   1.188 -0.2368  0.0896 -1.0476
  674MOL0     C88855   2.527   7.826   1.298  0.7680 -0.6861 -0.0112
  674MOL0     C88856   2.578   7.957   1.300  1.2049 -0.1192 -0.1867
  674MOL0     C88857   2.731   7.940   1.269 -0.0788 -0.2970 -0.0411
  674MOL0     C88858   2.817   7.974   1.389  0.2957 -0.3852 -0.5004
  674MOL0     C88859   2.818   7.864   1.494  0.4075  0.1657  0.3953
  674MOL0     O88860   2.920   7.888   1.591 -0.6136 -0.0997 -0.2365
  674MOL0     C88861   3.047   7.853   1.545 -0.1563  0.4417 -0.1564
  674MOL0     C88862   3.081   7.768   1.440  0.6026 -0.1808 -0.0841
  674MOL0     C88863   3.209   7.751   1.400 -0.1129 -0.9944  1.5809
  674MOL0     C88864   3.309   7.835   1.448 -0.1818  0.3210 -0.7274
  674MOL0     C88865   3.436   7.837   1.382  0.3130  0.2097  0.0068
  674MOL0     O88866   3.432   7.788   1.258 -0.7340  1.0875 -0.2295
  674MOL0     C88867   3.536   7.808   1.178  0.4630 -0.1056  0.0895
  674MOL0     C88868   3.536   7.907   1.074  0.4859 -0.0773 -1.1517
  674MOL0     C88869   3.654   7.933   1.004  0.6263 -0.3468 -0.2568
  674MOL0     C88870   3.767   7.855   1.026 -0.3967  0.3589  0.7895
  674MOL0     O88871   3.890   7.873   0.964  0.5095 -0.1004 -0.0001
  674MOL0     C88872   3.905   7.981   0.867 -0.7413 -0.3882  0.3441
  674MOL0     C88873   4.033   7.946   0.784  0.4867 -0.2394  0.6026
  674MOL0     C88874   4.168   7.978   0.845  0.2413 -0.3026  0.4322
  674MOL0     C88875   4.282   7.935   0.748 -0.7874  0.4818  0.2609
  674MOL0     C88876   4.414   7.946   0.824 -0.6673 -0.4613 -0.0365
  674MOL0     C88877   4.524   7.922   0.719  0.0297 -0.4088 -0.0509
  674MOL0     C88878   4.664   7.912   0.779 -0.3432  0.6552 -0.2113
  674MOL0     C88879   4.769   7.906   0.664  1.0940  1.1621 -0.3587
  674MOL0    Cl88880   4.918   7.944   0.742  0.2282  0.1358  0.0466
  674MOL0     C88881   3.762   7.746   1.114  0.5944  0.2996 -0.2119
  674MOL0     C88882   3.643   7.721   1.191 -0.0007 -0.0652  0.1030
  674MOL0     O88883   3.523   7.906   1.434 -1.2993 -0.3017 -0.2677
  674MOL0     C88884   3.281   7.921   1.563 -0.0987  0.1043  0.7282
  674MOL0     C88885   3.147   7.925   1.607 -0.0746 -0.4136  0.3301
  674MOL0     N88886   2.495   7.756   1.408 -0.4561  0.6139 -0.4563
  674MOL0     N88887   2.454   7.637   1.373  0.6340 -0.9822 -0.3534
  674MOL0     C88888   2.955   6.927   0.560  0.0223 -0.2184 -0.6313
  674MOL0     C88889   3.057   6.880   0.482 -0.3183  0.0666 -0.3758
  674MOL0     C88890   3.324   6.742   0.137 -0.1177  0.5444  0.5363
  674MOL0     C88891   3.388   6.808   0.022  0.5306 -0.5646 -0.7415
  674MOL0     C88892   3.488   6.730  -0.043  0.2515 -0.5737  0.9867
  674MOL0     C88893   3.518   6.601  -0.012 -0.3315 -0.1169  0.1574
  674MOL0     O88894   3.605   6.536  -0.095  0.0416 -0.0309  0.6239
  674MOL0     C88895   3.663   6.417  -0.058 -0.3428  0.1485  0.2358
  674MOL0     C88896   3.789   6.409  -0.146 -0.2152 -0.7818 -0.2480
  674MOL0     C88897   3.918   6.445  -0.074 -0.3559  0.0220 -0.1110
  674MOL0     C88898   4.043   6.360  -0.109  0.7556  0.3479 -0.7752
  674MOL0     C88899   4.172   6.391  -0.048 -0.2310  0.1490 -0.2802
  674MOL0     C88900   4.286   6.417  -0.016 -0.0260 -0.1125  0.5162
  674MOL0     C88901   3.456   6.546   0.099 -0.8878 -0.3233 -0.2022
  674MOL0     C88902   3.365   6.615   0.173 -0.2444 -0.5625 -0.1507
  674MOL0     H88903   2.900   6.656   0.294  1.7618  0.0984 -1.2937
  674MOL0     H88904   2.707   6.730   0.450 -0.7597  1.9711  0.1349
  674MOL0     H88905   2.578   6.808   0.622 -1.4124  0.9848 -0.5516
  674MOL0     H88906   2.587   6.943   0.511 -0.9512 -1.6487 -0.5765
  674MOL0     H88907   2.556   6.957   0.821  1.1355 -0.8541  0.1807
  674MOL0     H88908   2.443   7.023   0.687  0.7487  1.5858 -0.6872
  674MOL0     H88909   2.600   7.189   0.614 -3.2234 -0.0026 -1.4258
  674MOL0     H88910   2.690   7.145   0.766 -1.4767 -2.8376  2.5992
  674MOL0     H88911   2.552   7.349   0.790  1.3012 -0.8600  1.4722
  674MOL0     H88912   2.415   7.258   0.712  0.2545 -0.3125 -0.9202
  674MOL0     H88913   2.540   7.186   0.979 -0.8324 -0.3509  1.2970
  674MOL0     H88914   2.383   7.139   0.918  1.9901 -2.0196  0.0913
  674MOL0     H88915   2.321   7.280   1.062 -1.5232 -3.9100 -3.2451
  674MOL0     H88916   2.302   7.376   0.923  2.4861  2.7993 -1.7539
  674MOL0     H88917   2.541   7.386   1.124  2.4756 -0.9227 -4.0208
  674MOL0     H88918   2.513   7.514   1.001 -0.5102  0.1417 -0.1860
  674MOL0     H88919   2.331   7.451   1.224 -4.1311  0.0139 -2.0505
  674MOL0     H88920   2.287   7.573   1.111  1.0188 -0.0526 -0.1298
  674MOL0     H88921   2.496   7.798   1.091 -0.9226 -2.0677 -2.2088
  674MOL0     H88922   2.561   7.987   1.403 -4.2450 -1.4592 -0.3786
  674MOL0     H88923   2.530   8.026   1.229 -0.6552 -0.9149  0.2403
  674MOL0     H88924   2.751   8.011   1.189  0.7898 -2.0971 -1.4753
  674MOL0     H88925   2.748   7.844   1.221  1.5085  0.9014 -2.0334
  674MOL0     H88926   2.918   7.983   1.350  0.3218 -2.3262 -1.0134
  674MOL0     H88927   2.796   8.074   1.428  3.4598  1.2982 -2.6710
  674MOL0     H88928   2.819   7.765   1.448  0.8406  0.7705 -0.9200
  674MOL0     H88929   2.724   7.860   1.550  1.1459 -0.1732  1.6761
  674MOL0     H88930   3.002   7.708   1.397  0.1765  0.6322 -0.4675
  674MOL0     H88931   3.222   7.678   1.320 -0.8039 -1.9407  2.2990
  674MOL0     H88932   3.442   7.958   1.057 -0.2912 -0.5283  1.3903
  674MOL0     H88933   3.646   8.016   0.935  0.5305  0.1548  0.3522
  674MOL0     H88934   3.933   8.069   0.925  1.0119 -0.2819 -0.6088
  674MOL0     H88935   3.818   8.002   0.804  0.7665  3.8933 -0.6690
  674MOL0     H88936   4.013   7.986   0.684 -0.7409 -2.4498 -0.1106
  674MOL0     H88937   4.031   7.842   0.749  0.8665 -0.1810  0.3966
  674MOL0     H88938   4.187   7.929   0.941 -0.5693 -1.1091  0.1939
  674MOL0     H88939   4.179   8.085   0.860  0.8341 -0.3817  0.5985
  674MOL0     H88940   4.257   7.836   0.709 -1.4172  0.6462  0.2333
  674MOL0     H88941   4.289   8.011   0.671  1.7064 -0.6411 -0.7145
  674MOL0     H88942   4.416   7.875   0.907 -2.8388  0.3468  0.7806
  674MOL0     H88943   4.423   8.048   0.862 -1.9896 -1.0099  1.8903
  674MOL0     H88944   4.519   8.001   0.643  2.4036  0.1344  0.2740
  674MOL0     H88945   4.508   7.828   0.665 -4.3259 -0.3900  0.8630
  674MOL0     H88946   4.691   7.989   0.852 -1.0926 -0.1549  0.9665
  674MOL0     H88947   4.680   7.822   0.839  3.3336 -0.3722 -2.4138
  674MOL0     H88948   4.761   7.983   0.587  1.0290  0.0665 -1.4716
  674MOL0     H88949   4.778   7.807   0.619  0.8598  0.6277  0.7257
  674MOL0     H88950   3.834   7.666   1.106 -2.0864 -2.2190 -0.9981
  674MOL0     H88951   3.645   7.643   1.266  0.8022 -0.1538 -0.0012
  674MOL0     H88952   3.357   7.982   1.609  0.0610  0.6900 -0.2793
  674MOL0     H88953   3.135   7.993   1.690 -0.6385  1.2218 -1.0343
  674MOL0     H88954   2.973   7.009   0.629  2.2487 -0.4329 -0.8981
  674MOL0     H88955   3.151   6.929   0.503 -0.1356  0.2192 -1.4823
  674MOL0     H88956   3.369   6.912  -0.004 -1.4330 -1.1032 -1.5888
  674MOL0     H88957   3.535   6.755  -0.138 -1.0106  0.8983  0.7079
  674MOL0     H88958   3.600   6.328  -0.066  2.1202 -1.5628 -1.9943
  674MOL0     H88959   3.692   6.417   0.048 -0.3795  2.1428  0.2830
  674MOL0     H88960   3.800   6.309  -0.188  1.7990 -0.2086 -1.2319
  674MOL0     H88961   3.776   6.467  -0.238 -0.2087  1.5501  1.1497
  674MOL0     H88962   3.906   6.440   0.034  4.3205 -3.9042  0.5439
  674MOL0     H88963   3.945   6.547  -0.103 -2.3244  1.1451  1.7364
  674MOL0     H88964   4.009   6.258  -0.089 -1.0548  1.1979  0.8187
  674MOL0     H88965   4.062   6.360  -0.217 -0.8273  0.3394 -1.0810
  674MOL0     H88966   4.384   6.432   0.025 -0.3579  1.3195  0.8321
  674MOL0     H88967   3.482   6.447   0.136 -2.0470  0.3284  2.6760
  674MOL0     H88968   3.326   6.569   0.263  0.7682 -1.1222  0.0129
  675MOL0     O88969   1.008   4.779   4.362  0.3978 -0.5185 -0.4314
  675MOL0     C88970   0.988   4.880   4.296  0.7829  0.1280 -0.1974
  675MOL0     O88971   0.878   4.908   4.228 -0.1058 -0.1019 -0.6557
  675MOL0     C88972   0.762   4.835   4.252 -0.8957 -0.4047 -0.7423
  675MOL0     C88973   0.704   4.767   4.141 -0.1605 -1.1779 -0.8729
  675MOL0     C88974   0.576   4.705   4.159 -0.3680 -0.2345 -0.1145
  675MOL0     C88975   0.520   4.696   4.291 -0.7549 -0.3173  0.6638
  675MOL0     O88976   0.425   4.604   4.306  0.6365 -0.0892 -0.7620
  675MOL0     C88977   0.340   4.599   4.428  0.7851 -0.3323  0.5560
  675MOL0     C88978   0.239   4.491   4.426  0.7205 -0.9578 -0.3340
  675MOL0     C88979   0.137   4.500   4.547 -0.4732  0.1493  0.8774
  675MOL0     C88980   0.033   4.397   4.554  0.4567  0.0840 -0.0507
  675MOL0     C88981  -0.082   4.442   4.641  0.5036 -1.0300 -0.4346
  675MOL0     C88982  -0.183   4.331   4.645 -0.9459  0.9321 -0.4551
  675MOL0     C88983  -0.312   4.381   4.714  0.0710 -0.0110  0.1026
  675MOL0     C88984  -0.403   4.266   4.758  0.4026 -0.4616  0.5512
  675MOL0     N88985  -0.505   4.316   4.855  0.2701  0.8542  0.5743
  675MOL0     C88986  -0.535   4.262   4.974  0.3569  0.0032 -0.6212
  675MOL0     C88987  -0.654   4.325   5.019  0.5924  0.1551  0.8022
  675MOL0     C88988  -0.706   4.305   5.152 -0.0481 -0.5681  0.4375
  675MOL0     C88989  -0.786   4.173   5.138 -0.3929 -0.1601 -0.2271
  675MOL0     C88990  -0.825   4.146   5.284 -0.5993  0.4801 -0.1672
  675MOL0     C88991  -0.902   4.021   5.292 -0.3054  0.7953  0.9461
  675MOL0     O88992  -1.034   4.021   5.240  0.3172 -0.3743 -0.3783
  675MOL0     C88993  -1.148   4.006   5.329  0.2806 -0.4896  0.3349
  675MOL0     C88994  -1.162   4.108   5.420 -0.1283 -0.3312  0.0805
  675MOL0     C88995  -1.268   4.097   5.517  0.8696 -0.1934 -0.0583
  675MOL0     C88996  -1.364   3.998   5.511 -0.2083 -0.4727 -0.2872
  675MOL0     C88997  -1.481   4.013   5.615  0.4241  0.7964  0.1892
  675MOL0     O88998  -1.518   4.130   5.674  0.3472  0.1756  0.4241
  675MOL0     C88999  -1.631   4.127   5.748  0.5350  1.4745 -0.3654
  675MOL0     C89000  -1.745   4.189   5.712 -0.6076 -0.5781 -0.3142
  675MOL0     C89001  -1.858   4.175   5.788 -0.1720  0.4888  0.3047
  675MOL0     C89002  -1.853   4.098   5.905  0.6626 -0.1781  0.1687
  675MOL0     O89003  -1.972   4.076   5.978 -0.3863  0.3314 -0.5333
  675MOL0     C89004  -2.096   4.140   5.953 -0.5219 -0.0251  0.5197
  675MOL0     C89005  -2.173   4.144   6.084 -0.3440 -0.6777 -0.6478
  675MOL0     C89006  -2.105   4.224   6.197  0.3825 -0.4879  0.7167
  675MOL0     C89007  -2.183   4.219   6.323 -0.5437 -0.3903  0.2353
  675MOL0     C89008  -2.180   4.073   6.370  0.6138 -0.0360 -0.5616
  675MOL0     C89009  -2.216   4.079   6.518 -0.4603  0.3628  0.0542
  675MOL0     C89010  -2.190   3.929   6.583 -0.3391 -0.1580 -0.2497
  675MOL0     C89011  -2.168   3.960   6.735  0.4066  0.6290  0.5095
  675MOL0    Cl89012  -2.317   3.995   6.831 -0.7046  0.6185 -0.0243
  675MOL0     C89013  -1.742   4.037   5.946  0.0686  0.0926  0.1710
  675MOL0     C89014  -1.619   4.055   5.870 -0.0535  0.1316  0.2625
  675MOL0     O89015  -1.545   3.904   5.628 -0.7082  0.0129 -0.2545
  675MOL0     C89016  -1.347   3.903   5.419 -0.5838  0.4674 -0.5019
  675MOL0     C89017  -1.233   3.903   5.329 -0.3249 -0.7283  0.3074
  675MOL0     N89018  -0.683   4.420   4.919  0.4152 -0.3615 -0.2757
  675MOL0     N89019  -0.592   4.420   4.831 -0.2717 -0.4009  0.5737
  675MOL0     C89020   0.575   4.769   4.394  0.6175 -0.0886 -0.8055
  675MOL0     C89021   0.696   4.841   4.374 -0.8237 -0.2256  0.2253
  675MOL0     C89022   1.100   4.969   4.283  0.8004  0.9410 -0.8128
  675MOL0     C89023   1.068   5.109   4.272 -0.3299  0.4338 -0.1038
  675MOL0     C89024   1.168   5.204   4.280 -0.5906 -0.1449 -0.8736
  675MOL0     C89025   1.307   5.165   4.304  0.2644 -0.6216  0.2881
  675MOL0     O89026   1.412   5.252   4.323 -0.0658  0.2579  0.5753
  675MOL0     C89027   1.369   5.388   4.320 -0.8906 -0.8029 -0.3446
  675MOL0     C89028   1.487   5.486   4.354  1.2563  0.1580 -0.4227
  675MOL0     C89029   1.563   5.488   4.493  0.1051 -0.0886 -0.7273
  675MOL0     C89030   1.660   5.367   4.501  0.1408 -0.1832  0.5708
  675MOL0     C89031   1.701   5.351   4.638  0.0462 -1.4864  0.2454
  675MOL0     C89032   1.731   5.333   4.752 -0.4984  0.6959  0.2693
  675MOL0     C89033   1.335   5.030   4.300 -0.1300  0.0134 -0.3696
  675MOL0     C89034   1.236   4.937   4.288  0.2859  0.5470  0.2525
  675MOL0     H89035   0.753   4.779   4.045  1.4237 -0.6594 -0.0356
  675MOL0     H89036   0.543   4.655   4.068  1.7966 -1.2926 -0.3844
  675MOL0     H89037   0.284   4.693   4.430  0.6659 -0.3629 -0.5870
  675MOL0     H89038   0.402   4.603   4.518  0.9823 -2.6645  0.5894
  675MOL0     H89039   0.282   4.391   4.429  1.2333 -0.7292  0.1051
  675MOL0     H89040   0.190   4.493   4.328 -2.2133  0.5452  1.0159
  675MOL0     H89041   0.089   4.596   4.526  0.5277  0.9346  1.9523
  675MOL0     H89042   0.190   4.515   4.642 -1.9311  2.0106  1.4539
  675MOL0     H89043   0.002   4.379   4.451  0.1637 -1.3562  0.2656
  675MOL0     H89044   0.068   4.305   4.602 -0.8408  0.2501  1.2891
  675MOL0     H89045  -0.124   4.538   4.607  0.3576 -1.1078 -0.4755
  675MOL0     H89046  -0.035   4.454   4.739 -0.3130  0.3275 -0.1761
  675MOL0     H89047  -0.136   4.251   4.702  2.8596  2.3678 -1.2708
  675MOL0     H89048  -0.213   4.294   4.546  0.4042 -0.4711 -0.3750
  675MOL0     H89049  -0.291   4.427   4.810 -1.4164  0.6162  0.1400
  675MOL0     H89050  -0.362   4.462   4.660 -0.2438 -0.2456  0.0396
  675MOL0     H89051  -0.351   4.187   4.812 -2.1743 -2.0222  0.9276
  675MOL0     H89052  -0.446   4.223   4.668  0.6120  1.7391 -0.6766
  675MOL0     H89053  -0.476   4.194   5.035  0.2924  2.2192  2.1295
  675MOL0     H89054  -0.762   4.397   5.168 -0.8725 -0.2470 -3.3964
  675MOL0     H89055  -0.622   4.305   5.222 -0.8642  1.4691  1.4903
  675MOL0     H89056  -0.719   4.097   5.097 -0.1163  0.7598 -1.5410
  675MOL0     H89057  -0.880   4.177   5.082 -1.2447  0.9986  1.1838
  675MOL0     H89058  -0.737   4.128   5.347 -0.3141  2.5485  0.1170
  675MOL0     H89059  -0.883   4.230   5.323  1.0302  1.3247  0.5680
  675MOL0     H89060  -0.917   3.988   5.396 -0.2405 -0.7054  0.5008
  675MOL0     H89061  -0.856   3.940   5.234 -0.3078  0.9893  0.6764
  675MOL0     H89062  -1.100   4.197   5.412  0.3674 -0.7028 -0.3433
  675MOL0     H89063  -1.274   4.177   5.589 -0.7576 -0.6287  0.3250
  675MOL0     H89064  -1.730   4.257   5.629 -0.1425 -0.2313  0.0521
  675MOL0     H89065  -1.948   4.233   5.767 -1.4720 -0.1536  3.4726
  675MOL0     H89066  -2.156   4.081   5.884  0.0557 -2.5187  2.0177
  675MOL0     H89067  -2.094   4.248   5.938 -1.3581  0.5248  3.5629
  675MOL0     H89068  -2.187   4.039   6.112 -0.6649 -0.7445 -1.0581
  675MOL0     H89069  -2.269   4.194   6.069  0.5999  0.3067 -4.0955
  675MOL0     H89070  -2.113   4.328   6.162 -2.2723 -0.3430  1.4746
  675MOL0     H89071  -2.005   4.186   6.217 -0.0765 -1.3483  1.4154
  675MOL0     H89072  -2.145   4.295   6.391  0.3421 -0.1921 -0.4699
  675MOL0     H89073  -2.285   4.257   6.316 -0.3677  0.6113  2.3110
  675MOL0     H89074  -2.082   4.026   6.359 -0.8706 -4.2196  1.6307
  675MOL0     H89075  -2.249   4.021   6.303  1.2356 -2.1203  0.3369
  675MOL0     H89076  -2.315   4.120   6.542 -1.7665 -2.1096 -0.7741
  675MOL0     H89077  -2.155   4.155   6.569  0.8381 -1.0624  0.7128
  675MOL0     H89078  -2.283   3.875   6.561 -0.4146  0.5195 -1.7732
  675MOL0     H89079  -2.099   3.893   6.535  0.2150 -1.9008  1.9859
  675MOL0     H89080  -2.095   4.041   6.740  1.4747 -0.1597 -1.3246
  675MOL0     H89081  -2.104   3.882   6.777  2.0437  1.9184  0.5160
  675MOL0     H89082  -1.742   3.986   6.042 -1.1274  0.8730  0.6105
  675MOL0     H89083  -1.532   3.999   5.902  1.7683  2.1679 -0.9103
  675MOL0     H89084  -1.406   3.812   5.411  1.6483 -1.1358 -0.1079
  675MOL0     H89085  -1.231   3.810   5.273  1.6285 -2.3788  2.8386
  675MOL0     H89086   0.524   4.771   4.490  0.6785 -3.5189 -0.5849
  675MOL0     H89087   0.721   4.889   4.468  0.5620  0.1891 -0.3242
  675MOL0     H89088   0.963   5.133   4.264 -0.2517  0.3759 -1.4084
  675MOL0     H89089   1.134   5.306   4.264 -1.4283 -0.3781 -0.6230
  675MOL0     H89090   1.298   5.393   4.403 -0.0355 -0.2482  0.3623
  675MOL0     H89091   1.324   5.410   4.223 -2.6826 -4.6434 -0.5867
  675MOL0     H89092   1.560   5.471   4.274  1.2071  0.1156 -0.4594
  675MOL0     H89093   1.444   5.586   4.351 -1.3701 -0.8583  0.3928
  675MOL0     H89094   1.491   5.491   4.575  1.7948 -2.6591  0.9739
  675MOL0     H89095   1.628   5.576   4.503 -0.1688 -0.0376  0.7926
  675MOL0     H89096   1.605   5.274   4.484 -3.3203  1.8634 -0.5650
  675MOL0     H89097   1.738   5.365   4.424 -1.8288  0.2516 -1.5427
  675MOL0     H89098   1.751   5.321   4.856  0.2608  0.1170  0.0675
  675MOL0     H89099   1.438   4.997   4.301 -0.3223 -0.6181 -0.6433
  675MOL0     H89100   1.273   4.836   4.278  0.8151  0.7129  0.5245
  676MOL0     O89101   8.109   6.765   0.265  0.2229  0.3332  0.6485
  676MOL0     C89102   8.058   6.686   0.189  0.3235 -0.3004  0.1698
  676MOL0     O89103   8.116   6.589   0.118 -0.9946  0.7137 -0.3372
  676MOL0     C89104   8.248   6.559   0.113 -0.4098  1.1199  0.5718
  676MOL0     C89105   8.285   6.476   0.009  0.2116  0.0307  0.2292
  676MOL0     C89106   8.415   6.419   0.003 -0.6027  0.0915 -0.0458
  676MOL0     C89107   8.516   6.465   0.091 -0.2108 -0.3339 -1.0018
  676MOL0     O89108   8.648   6.424   0.069 -0.0626  0.4432  1.0560
  676MOL0     C89109   8.744   6.454   0.174 -0.4980  0.4574 -0.3293
  676MOL0     C89110   8.882   6.409   0.144 -0.0841 -0.2281  0.4123
  676MOL0     C89111   8.967   6.449   0.271  0.2892 -0.0898  0.6156
  676MOL0     C89112   9.006   6.599   0.273  0.2222 -0.0385  0.0012
  676MOL0     C89113   9.089   6.655   0.157 -1.1369 -0.4658 -0.4088
  676MOL0     C89114   9.221   6.586   0.131  0.0302  0.5613 -0.4937
  676MOL0     C89115   9.318   6.669   0.062 -1.2379  0.2969 -0.0596
  676MOL0     C89116   9.457   6.600   0.071 -0.3534  0.0364  1.0860
  676MOL0     N89117   9.581   6.673   0.042  0.1568  0.2553  0.3003
  676MOL0     C89118   9.689   6.607   0.002 -0.4758 -0.6488 -0.0184
  676MOL0     C89119   9.796   6.681   0.040  1.1455  0.0218 -0.7438
  676MOL0     C89120   9.935   6.639   0.037 -0.2661  1.1989 -0.2959
  676MOL0     C89121  10.016   6.688  -0.080  0.5664  0.4834 -0.3034
  676MOL0     C89122  10.169   6.658  -0.062  0.3170  0.2005  0.0253
  676MOL0     C89123  10.241   6.707  -0.181  0.4202 -0.1458  0.8174
  676MOL0     O89124  10.219   6.635  -0.301  0.3612 -0.8730  0.5260
  676MOL0     C89125  10.317   6.621  -0.399 -0.6460 -0.4307 -0.3789
  676MOL0     C89126  10.454   6.653  -0.376  1.0127 -0.0596  0.0379
  676MOL0     C89127  10.543   6.656  -0.475 -1.0911  0.4732  0.1676
  676MOL0     C89128  10.513   6.618  -0.606 -1.5539  0.3847 -0.4287
  676MOL0     C89129  10.606   6.638  -0.721  0.3927  0.1257 -0.1603
  676MOL0     O89130  10.553   6.648  -0.847 -0.4184 -0.3685  0.1970
  676MOL0     C89131  10.631   6.620  -0.963  0.7755 -0.3760  0.1494
  676MOL0     C89132  10.761   6.666  -0.977  0.6862  0.1467 -0.7354
  676MOL0     C89133  10.844   6.631  -1.086 -0.1390  0.3182 -0.9438
  676MOL0     C89134  10.788   6.571  -1.196 -0.6308  0.1347  0.3827
  676MOL0     O89135  10.875   6.558  -1.304 -0.0275  1.0494  0.3471
  676MOL0     C89136  10.838   6.455  -1.407 -0.0106 -0.5658  0.2708
  676MOL0     C89137  10.950   6.476  -1.512  0.8454  0.5383  0.0028
  676MOL0     C89138  10.901   6.433  -1.651 -0.8226  0.6758 -0.0861
  676MOL0     C89139  10.845   6.291  -1.654 -0.3998  1.2733 -0.1213
  676MOL0     C89140  10.816   6.255  -1.800  0.0683 -0.7791 -0.2198
  676MOL0     C89141  10.669   6.278  -1.843 -0.6511 -0.3309  0.0653
  676MOL0     C89142  10.642   6.182  -1.957 -0.1411 -0.0002  0.3462
  676MOL0     C89143  10.513   6.205  -2.041 -0.4546  0.2050 -0.5925
  676MOL0    Cl89144  10.348   6.189  -1.959  0.0133  0.2356 -0.3550
  676MOL0     C89145  10.655   6.526  -1.189 -0.1644 -1.2296  0.5943
  676MOL0     C89146  10.578   6.549  -1.070 -0.0585 -0.3074  0.8114
  676MOL0     O89147  10.725   6.617  -0.696  0.3158 -0.3336  0.3053
  676MOL0     C89148  10.378   6.579  -0.632  0.4905 -0.4403  0.8084
  676MOL0     C89149  10.284   6.573  -0.526  0.2724  0.3281 -0.0211
  676MOL0     N89150   9.750   6.787   0.120  0.6252 -0.2445  0.4116
  676MOL0     N89151   9.620   6.779   0.117  1.1766 -0.1197  1.1274
  676MOL0     C89152   8.477   6.547   0.201 -0.0922  0.1446 -0.0217
  676MOL0     C89153   8.346   6.588   0.211 -0.7120 -1.2041  0.2653
  676MOL0     C89154   7.912   6.709   0.150  0.9590 -0.2383  0.3429
  676MOL0     C89155   7.840   6.825   0.194  0.6097  0.7624  0.7788
  676MOL0     C89156   7.707   6.836   0.151 -0.4049  0.2025 -0.2918
  676MOL0     C89157   7.636   6.756   0.061  0.1966  0.6564  0.9498
  676MOL0     O89158   7.509   6.794   0.021 -0.4641  0.2586  0.5028
  676MOL0     C89159   7.459   6.758  -0.110  1.3554 -0.6098 -0.6814
  676MOL0     C89160   7.349   6.847  -0.165 -0.3819 -0.8635 -0.4972
  676MOL0     C89161   7.217   6.869  -0.077  0.3494 -0.4668  0.4000
  676MOL0     C89162   7.150   6.734  -0.032  0.4271  0.4084  0.2414
  676MOL0     C89163   7.004   6.765  -0.002 -0.7267  0.4272  0.3954
  676MOL0     C89164   6.896   6.807   0.016  1.1766  0.1571 -0.3637
  676MOL0     C89165   7.710   6.651   0.004 -0.2709 -0.2246 -1.2461
  676MOL0     C89166   7.841   6.624   0.056  0.9675 -0.5216  0.1362
  676MOL0     H89167   8.210   6.443  -0.063  2.8584 -1.7814 -1.9036
  676MOL0     H89168   8.443   6.349  -0.076 -0.8004  0.6426 -0.6179
  676MOL0     H89169   8.710   6.410   0.269  3.2028 -0.8149  0.5739
  676MOL0     H89170   8.745   6.562   0.187 -0.6232  0.7675 -2.5489
  676MOL0     H89171   8.914   6.456   0.051 -4.6179  0.3463 -1.1292
  676MOL0     H89172   8.897   6.300   0.138  0.6261 -0.1171  0.0923
  676MOL0     H89173   9.057   6.387   0.265  0.8226  0.7660 -0.8029
  676MOL0     H89174   8.911   6.419   0.360 -0.1236 -1.6522 -0.1393
  676MOL0     H89175   8.917   6.658   0.295 -0.2435  0.0233 -1.8869
  676MOL0     H89176   9.072   6.616   0.358 -0.1059  1.6663 -0.0417
  676MOL0     H89177   9.103   6.758   0.191 -1.4463 -0.4891 -0.2055
  676MOL0     H89178   9.036   6.663   0.061  0.4270  3.3070 -1.1608
  676MOL0     H89179   9.209   6.494   0.072  0.8100 -1.1610  1.8658
  676MOL0     H89180   9.266   6.547   0.223  3.7128 -1.0853 -2.7679
  676MOL0     H89181   9.289   6.699  -0.040  2.5601  4.3295 -0.2453
  676MOL0     H89182   9.331   6.754   0.129 -0.2568  0.2287 -0.1600
  676MOL0     H89183   9.464   6.508   0.012 -1.6084  1.3521 -1.2666
  676MOL0     H89184   9.474   6.577   0.176 -3.9746  2.6392  2.4338
  676MOL0     H89185   9.683   6.516  -0.056 -0.9125 -0.1126 -0.8404
  676MOL0     H89186   9.945   6.530   0.041  3.3912  1.3746 -1.0550
  676MOL0     H89187   9.982   6.666   0.132 -1.5534 -1.7099  1.2982
  676MOL0     H89188   9.978   6.788  -0.106  3.8095  1.9324 -0.0222
  676MOL0     H89189   9.990   6.623  -0.164 -0.3379 -0.0976  0.4122
  676MOL0     H89190  10.194   6.716   0.028  2.7421 -2.0002  0.8892
  676MOL0     H89191  10.184   6.553  -0.037 -1.1034 -0.1514 -0.5051
  676MOL0     H89192  10.345   6.726  -0.155  1.4165 -0.6531 -2.3635
  676MOL0     H89193  10.207   6.810  -0.200  1.0769  0.4390  2.5575
  676MOL0     H89194  10.496   6.675  -0.278  0.8443  2.8544 -0.4294
  676MOL0     H89195  10.642   6.693  -0.453 -1.7208  2.2270  0.2590
  676MOL0     H89196  10.796   6.717  -0.887 -0.9636 -1.1077  0.7049
  676MOL0     H89197  10.947   6.666  -1.088  0.2576 -0.8376 -2.0208
  676MOL0     H89198  10.733   6.461  -1.438 -0.1072  0.4955  0.7616
  676MOL0     H89199  10.852   6.363  -1.350  2.0804 -0.2815  0.2994
  676MOL0     H89200  11.037   6.416  -1.483  2.6757  3.1953  0.3369
  676MOL0     H89201  10.978   6.581  -1.519 -0.0361  0.9555  2.0848
  676MOL0     H89202  10.994   6.442  -1.709 -0.7796  0.1889 -0.0890
  676MOL0     H89203  10.836   6.506  -1.701  0.7292  1.2060 -1.4653
  676MOL0     H89204  10.900   6.211  -1.603  0.7930  0.3713 -2.6500
  676MOL0     H89205  10.749   6.291  -1.602  0.9492  3.4305  2.6067
  676MOL0     H89206  10.833   6.147  -1.794  0.1845 -0.6989  1.3003
  676MOL0     H89207  10.887   6.293  -1.874  1.1903 -0.8362  0.7806
  676MOL0     H89208  10.657   6.381  -1.879 -0.5582 -0.2236  0.3406
  676MOL0     H89209  10.595   6.264  -1.764  0.6308  2.1477  1.8518
  676MOL0     H89210  10.719   6.207  -2.030  1.3569 -1.2009  1.4383
  676MOL0     H89211  10.650   6.075  -1.933 -4.3918 -1.1716 -2.4760
  676MOL0     H89212  10.510   6.132  -2.122 -0.3889 -1.6057  0.9754
  676MOL0     H89213  10.519   6.300  -2.095 -3.5055 -0.4599 -2.3210
  676MOL0     H89214  10.609   6.483  -1.277 -0.1933  0.5070 -0.2865
  676MOL0     H89215  10.474   6.521  -1.057 -1.7174  3.9565 -1.2876
  676MOL0     H89216  10.345   6.562  -0.734 -1.6361  4.1023  0.5124
  676MOL0     H89217  10.182   6.547  -0.551  0.3104  1.7694 -1.9026
  676MOL0     H89218   8.547   6.571   0.280  2.7352 -2.3273 -1.5992
  676MOL0     H89219   8.319   6.652   0.294 -3.7832 -0.5369 -1.0950
  676MOL0     H89220   7.872   6.898   0.268  0.5341  1.2687  0.3204
  676MOL0     H89221   7.643   6.919   0.178 -1.2590 -0.2188 -0.9735
  676MOL0     H89222   7.418   6.657  -0.109 -4.7115  1.4216 -0.5624
  676MOL0     H89223   7.542   6.752  -0.180  1.7869  1.2750 -0.3984
  676MOL0     H89224   7.394   6.946  -0.176 -3.4853  0.7402  0.0463
  676MOL0     H89225   7.326   6.811  -0.265  1.8660  1.7184 -2.0782
  676MOL0     H89226   7.142   6.935  -0.121  0.0879 -0.3240  1.0598
  676MOL0     H89227   7.250   6.927   0.009  1.2418 -1.3902  0.6953
  676MOL0     H89228   7.150   6.661  -0.112 -4.5060  0.1137  0.2327
  676MOL0     H89229   7.204   6.685   0.050  1.6887  1.1950 -0.0811
  676MOL0     H89230   6.794   6.832   0.036  2.4338  2.5942  4.9547
  676MOL0     H89231   7.675   6.584  -0.074 -0.2055 -2.9530  0.9018
  676MOL0     H89232   7.878   6.539   0.001 -1.1476 -1.4557  0.0516
  677MOL0     O89233   7.520   6.525   6.317 -0.0699 -0.2843  0.4296
  677MOL0     C89234   7.436   6.505   6.404 -0.9244 -0.6550  0.4765
  677MOL0     O89235   7.459   6.445   6.517  0.2809  0.2829 -0.1279
  677MOL0     C89236   7.589   6.397   6.537 -0.0843 -0.3684 -0.6731
  677MOL0     C89237   7.640   6.303   6.447 -0.3243 -0.1634  0.1828
  677MOL0     C89238   7.762   6.241   6.474 -0.2888  0.5118 -0.2739
  677MOL0     C89239   7.836   6.268   6.581  0.6738  0.6670  0.5455
  677MOL0     O89240   7.941   6.183   6.609  0.2490 -0.0522 -0.6571
  677MOL0     C89241   7.961   6.141   6.739  0.8700 -0.5767  0.1966
  677MOL0     C89242   8.092   6.066   6.742 -0.9251 -0.7800  0.6980
  677MOL0     C89243   8.217   6.163   6.740  0.8972 -0.2687 -0.2547
  677MOL0     C89244   8.351   6.100   6.767  1.1198  0.0885  0.0996
  677MOL0     C89245   8.455   6.181   6.695 -0.5806  0.3756  0.5305
  677MOL0     C89246   8.596   6.143   6.710  0.0624  1.0355 -0.3668
  677MOL0     C89247   8.680   6.221   6.613  0.4051  0.0404 -0.1852
  677MOL0     C89248   8.668   6.154   6.479  0.3171  0.4730  0.3021
  677MOL0     N89249   8.799   6.099   6.433  0.5128  0.2149  0.9272
  677MOL0     C89250   8.912   6.178   6.403 -0.0296  0.7076  0.7028
  677MOL0     C89251   9.012   6.086   6.400  0.3074 -0.3025 -0.1599
  677MOL0     C89252   9.155   6.099   6.389 -1.3839 -0.5311 -0.4429
  677MOL0     C89253   9.229   6.107   6.531 -0.2431 -0.9472 -0.2202
  677MOL0     C89254   9.241   5.980   6.612  0.0164 -0.5827 -0.5327
  677MOL0     C89255   9.346   5.881   6.554 -0.1872  0.1652  0.2062
  677MOL0     O89256   9.477   5.933   6.545  0.1453 -1.0952 -0.1597
  677MOL0     C89257   9.575   5.839   6.523 -0.3566  0.0952  0.4390
  677MOL0     C89258   9.694   5.910   6.491 -0.6429  0.5670 -0.7086
  677MOL0     C89259   9.814   5.829   6.472 -0.0216  0.0160  1.2655
  677MOL0     C89260   9.812   5.689   6.466  0.7287  0.1122  0.6771
  677MOL0     C89261   9.928   5.622   6.414 -0.7789  0.2141 -0.6811
  677MOL0     O89262  10.032   5.698   6.369  0.1529 -1.1875  0.1520
  677MOL0     C89263  10.135   5.640   6.312  0.8365  0.6301  0.4179
  677MOL0     C89264  10.148   5.592   6.175 -0.4805 -0.9676 -0.1606
  677MOL0     C89265  10.267   5.524   6.136 -0.5796  0.6646  0.7198
  677MOL0     C89266  10.367   5.511   6.232  0.2764 -0.3501  0.6263
  677MOL0     O89267  10.480   5.436   6.210 -0.8898  0.1330 -0.6994
  677MOL0     C89268  10.544   5.470   6.082  0.7270  0.3151 -0.2114
  677MOL0     C89269  10.688   5.416   6.071  0.1911  0.5977  0.2436
  677MOL0     C89270  10.687   5.262   6.059 -0.1365 -0.0142  0.5569
  677MOL0     C89271  10.822   5.203   6.068 -0.0679 -0.0557  0.0294
  677MOL0     C89272  10.821   5.063   6.008  0.2555 -0.4672  0.0957
  677MOL0     C89273  10.965   5.003   6.008  0.3810 -0.2686  0.4303
  677MOL0     C89274  10.968   4.867   5.938 -0.0598  0.1239 -0.7098
  677MOL0     C89275  11.083   4.779   5.982  0.0934  0.3787 -0.1240
  677MOL0    Cl89276  11.236   4.857   5.951 -0.2777  0.7373 -0.4058
  677MOL0     C89277  10.346   5.563   6.360  0.3569 -0.5302  1.1745
  677MOL0     C89278  10.237   5.634   6.402 -0.4626 -0.4105  0.5041
  677MOL0     O89279   9.924   5.498   6.404  0.2425 -0.6663 -0.3819
  677MOL0     C89280   9.691   5.621   6.499 -0.9769  0.1464 -0.8768
  677MOL0     C89281   9.571   5.693   6.525  0.0214  0.1335 -0.2818
  677MOL0     N89282   8.958   5.960   6.406 -0.4411  0.2375 -0.5213
  677MOL0     N89283   8.833   5.975   6.426  0.5059  0.6336 -0.3195
  677MOL0     C89284   7.790   6.362   6.676  0.1404 -0.1380 -0.6480
  677MOL0     C89285   7.669   6.427   6.662  1.0740  0.2670  0.2587
  677MOL0     C89286   7.290   6.560   6.378 -0.3802 -0.2835  0.1932
  677MOL0     C89287   7.241   6.592   6.255 -0.0284 -0.0788  0.1175
  677MOL0     C89288   7.110   6.635   6.243  0.4189  0.0346 -0.2833
  677MOL0     C89289   7.032   6.673   6.358  0.3842 -0.3791  0.5336
  677MOL0     O89290   6.910   6.735   6.363  0.3462  0.8725  0.0772
  677MOL0     C89291   6.802   6.649   6.344  0.9736  0.7669  0.2738
  677MOL0     C89292   6.748   6.601   6.479 -0.0475  0.4543 -0.0595
  677MOL0     C89293   6.728   6.736   6.552  0.5966 -0.4535 -1.0816
  677MOL0     C89294   6.645   6.727   6.678  0.5824 -0.4269  0.0513
  677MOL0     C89295   6.504   6.708   6.645 -0.1125 -0.2260  0.0775
  677MOL0     C89296   6.389   6.706   6.609  0.1407 -0.4401  0.5740
  677MOL0     C89297   7.076   6.631   6.476 -0.2866 -0.5307 -0.2052
  677MOL0     C89298   7.206   6.570   6.488  0.3018  0.3668 -0.8723
  677MOL0     H89299   7.572   6.264   6.371 -1.2774 -0.8994  1.3728
  677MOL0     H89300   7.803   6.156   6.421  0.9728 -0.8650  2.6556
  677MOL0     H89301   7.875   6.080   6.771 -0.8569  1.0003 -1.2239
  677MOL0     H89302   7.958   6.219   6.816 -0.4912 -0.1494 -0.2543
  677MOL0     H89303   8.109   6.008   6.651  0.9748 -0.8741  1.0684
  677MOL0     H89304   8.096   5.999   6.828  2.8557 -0.1897  1.1538
  677MOL0     H89305   8.197   6.245   6.810  1.0151  0.4013 -1.0021
  677MOL0     H89306   8.223   6.196   6.636 -0.4904  0.1642 -0.2173
  677MOL0     H89307   8.375   6.098   6.874  2.3837  0.4212 -0.1586
  677MOL0     H89308   8.345   5.998   6.728  0.4481 -0.5448  1.7402
  677MOL0     H89309   8.448   6.286   6.724  1.3146  0.9606 -0.8649
  677MOL0     H89310   8.432   6.172   6.588 -0.4399 -2.2122  0.6523
  677MOL0     H89311   8.596   6.035   6.693 -1.7623  0.4092  2.8723
  677MOL0     H89312   8.640   6.164   6.808  1.2818 -2.6085  0.0034
  677MOL0     H89313   8.642   6.324   6.615 -0.1357 -0.1664  0.4044
  677MOL0     H89314   8.782   6.217   6.653  0.0533 -0.3109  0.6863
  677MOL0     H89315   8.644   6.232   6.405 -0.8561  0.6818  0.8871
  677MOL0     H89316   8.590   6.077   6.474 -1.1334  1.9058 -3.6996
  677MOL0     H89317   8.928   6.285   6.412 -1.6817  0.9133  1.6418
  677MOL0     H89318   9.162   6.189   6.328 -1.0668  1.1020  1.8864
  677MOL0     H89319   9.204   6.022   6.329  0.2545 -0.0459  0.2090
  677MOL0     H89320   9.188   6.185   6.596  2.8345  0.6305  0.0242
  677MOL0     H89321   9.329   6.147   6.511 -1.1439  2.0849  0.7389
  677MOL0     H89322   9.273   6.022   6.708 -2.1734  2.6924 -1.0927
  677MOL0     H89323   9.139   5.944   6.629 -0.7854  1.9882  0.5554
  677MOL0     H89324   9.311   5.852   6.455 -0.0967  0.6684  0.0246
  677MOL0     H89325   9.336   5.792   6.617 -0.1040  1.7120  2.5368
  677MOL0     H89326   9.699   6.018   6.501  2.7362  0.3165  2.7921
  677MOL0     H89327   9.905   5.888   6.464 -1.1188  1.4958 -1.9139
  677MOL0     H89328  10.066   5.617   6.108 -1.4663  2.2539  1.9800
  677MOL0     H89329  10.267   5.483   6.036 -2.6479  0.6716  0.6636
  677MOL0     H89330  10.550   5.579   6.069 -2.0416  1.1000  3.3599
  677MOL0     H89331  10.487   5.436   5.995 -1.5073  0.8674  0.9516
  677MOL0     H89332  10.740   5.451   6.161  1.6504  2.5986 -1.2866
  677MOL0     H89333  10.734   5.456   5.981 -1.1722 -1.4429 -1.4766
  677MOL0     H89334  10.636   5.240   5.965  1.8956  0.7985 -0.8017
  677MOL0     H89335  10.631   5.216   6.141  1.4142 -1.3266  0.9248
  677MOL0     H89336  10.898   5.255   6.009 -1.9115 -0.9280 -3.4154
  677MOL0     H89337  10.846   5.196   6.174 -2.2451  0.7044  0.6261
  677MOL0     H89338  10.778   5.068   5.908 -1.7051 -0.8504  0.8818
  677MOL0     H89339  10.742   5.010   6.061  0.1245  0.9850  1.4096
  677MOL0     H89340  11.016   5.001   6.105 -0.8086 -0.2762  1.0651
  677MOL0     H89341  11.017   5.078   5.948  0.3801  0.1026  0.8900
  677MOL0     H89342  10.878   4.805   5.941  1.0523 -1.5901 -1.2035
  677MOL0     H89343  10.973   4.894   5.832 -0.7417  0.2931 -0.7091
  677MOL0     H89344  11.087   4.695   5.912  0.1089  2.0907 -2.2813
  677MOL0     H89345  11.064   4.723   6.074 -0.7512 -0.6219 -0.8853
  677MOL0     H89346  10.423   5.565   6.436  0.2642 -1.3556  1.2994
  677MOL0     H89347  10.247   5.675   6.502  1.7216  3.8462 -1.2039
  677MOL0     H89348   9.674   5.514   6.500 -0.0937 -0.1098  3.1940
  677MOL0     H89349   9.486   5.627   6.535  0.7963 -1.0221 -1.1155
  677MOL0     H89350   7.849   6.387   6.763 -1.8149  0.5266  0.5357
  677MOL0     H89351   7.636   6.497   6.738  0.8685 -0.6849  1.0554
  677MOL0     H89352   7.309   6.592   6.171  1.0912 -2.1774  0.9466
  677MOL0     H89353   7.083   6.668   6.143 -0.1353  1.6839  0.3697
  677MOL0     H89354   6.836   6.555   6.299 -1.6645 -0.3072  0.3347
  677MOL0     H89355   6.722   6.695   6.285  0.1277 -0.4706  0.4157
  677MOL0     H89356   6.648   6.556   6.468 -0.7674  1.3065  2.3090
  677MOL0     H89357   6.827   6.538   6.520  0.4949  0.9749 -0.2972
  677MOL0     H89358   6.687   6.814   6.486 -1.1412  0.5162  1.0272
  677MOL0     H89359   6.822   6.780   6.585 -0.0005 -1.9310  3.1662
  677MOL0     H89360   6.680   6.646   6.742  3.3864  0.0508 -0.7333
  677MOL0     H89361   6.657   6.818   6.737 -2.3122  1.3637 -1.8898
  677MOL0     H89362   6.282   6.701   6.608  0.1329 -0.3136 -0.5963
  677MOL0     H89363   7.024   6.648   6.569 -0.1769  0.2182 -0.2718
  677MOL0     H89364   7.232   6.549   6.591  0.0804  1.4388 -0.5919
  678MOL0     O89365   2.900   1.945   4.522 -0.1347 -0.0702  0.0006
  678MOL0     C89366   2.971   1.970   4.422 -0.5544 -0.0513  0.6638
  678MOL0     O89367   2.952   2.078   4.341 -0.2690 -0.2842 -0.5614
  678MOL0     C89368   2.868   2.180   4.376  0.6080 -0.4469  0.0875
  678MOL0     C89369   2.819   2.273   4.271 -0.9500  0.5303  0.2577
  678MOL0     C89370   2.733   2.386   4.298  0.1168  0.0978  0.1120
  678MOL0     C89371   2.680   2.402   4.431  0.5171 -0.6013 -0.3365
  678MOL0     O89372   2.592   2.494   4.479 -0.4996 -0.4193  0.5292
  678MOL0     C89373   2.599   2.622   4.418 -0.1098 -0.5742  0.0721
  678MOL0     C89374   2.529   2.733   4.499 -0.7923 -0.0321  0.9519
  678MOL0     C89375   2.378   2.705   4.524  0.3903 -0.5470  0.3335
  678MOL0     C89376   2.318   2.834   4.589 -0.3539  0.4145 -0.7168
  678MOL0     C89377   2.168   2.837   4.583  0.0940 -0.0357  0.7025
  678MOL0     C89378   2.094   2.777   4.704  0.4766 -0.2647  0.7401
  678MOL0     C89379   1.950   2.763   4.671 -0.0661 -0.8226  0.0075
  678MOL0     C89380   1.869   2.701   4.790 -0.7972 -0.7698  0.9075
  678MOL0     N89381   1.900   2.559   4.809 -0.2852 -0.2760 -0.0464
  678MOL0     C89382   1.912   2.464   4.716 -0.4209  0.0280 -0.5829
  678MOL0     C89383   1.955   2.347   4.781 -0.2625 -0.2794  0.9438
  678MOL0     C89384   1.986   2.208   4.728 -0.7449 -0.7378 -0.3545
  678MOL0     C89385   2.074   2.199   4.597 -0.3047 -0.0152 -0.7352
  678MOL0     C89386   2.209   2.272   4.603  0.2536 -0.1459  0.4238
  678MOL0     C89387   2.300   2.219   4.722  1.3262 -0.4057 -0.6572
  678MOL0     O89388   2.321   2.078   4.732  0.8068  0.6597 -0.3519
  678MOL0     C89389   2.403   2.007   4.643  0.0274 -0.3633  0.8218
  678MOL0     C89390   2.479   2.062   4.534  0.4047  0.2641 -0.4349
  678MOL0     C89391   2.546   1.979   4.452 -0.3081  0.7419  1.3807
  678MOL0     C89392   2.547   1.842   4.462  0.4286  0.3608 -0.5978
  678MOL0     C89393   2.609   1.751   4.381  0.1383 -0.0416  0.4255
  678MOL0     O89394   2.661   1.634   4.436  0.0283  0.5597 -1.1513
  678MOL0     C89395   2.712   1.534   4.361  0.1913 -0.9414  0.0878
  678MOL0     C89396   2.709   1.528   4.222  0.1120  0.1693 -0.0663
  678MOL0     C89397   2.762   1.415   4.160  0.7945  1.0433  0.3476
  678MOL0     C89398   2.816   1.308   4.233  0.9300  0.9290  0.1524
  678MOL0     O89399   2.886   1.216   4.158 -0.0711 -0.1227 -0.0408
  678MOL0     C89400   2.996   1.147   4.210 -0.3660 -0.1445  0.2436
  678MOL0     C89401   2.954   1.016   4.283 -0.1110  0.0482  0.6630
  678MOL0     C89402   3.063   0.900   4.282 -0.5789  0.5873 -0.7249
  678MOL0     C89403   3.199   0.952   4.337 -0.5684  0.2507 -0.3246
  678MOL0     C89404   3.287   0.834   4.391 -0.6583 -0.3926 -0.8472
  678MOL0     C89405   3.337   0.759   4.266 -0.0022 -0.0924  0.4430
  678MOL0     C89406   3.451   0.671   4.291  0.6452  0.8331 -0.1977
  678MOL0     C89407   3.481   0.575   4.173 -0.0477 -0.7958 -0.1034
  678MOL0    Cl89408   3.342   0.475   4.123 -0.0724  0.5241 -0.1846
  678MOL0     C89409   2.812   1.317   4.373 -0.2112  0.2364  0.3706
  678MOL0     C89410   2.764   1.427   4.436  0.2315 -0.1327 -0.3960
  678MOL0     O89411   2.641   1.800   4.272 -0.1721  0.2632  0.1601
  678MOL0     C89412   2.477   1.798   4.574 -0.2826 -0.0259 -0.2077
  678MOL0     C89413   2.404   1.878   4.662 -1.0714 -0.1219 -0.3837
  678MOL0     N89414   1.995   2.388   4.903  1.0226 -0.3284 -0.2755
  678MOL0     N89415   1.952   2.502   4.920 -0.5034 -0.8219 -0.6001
  678MOL0     C89416   2.714   2.305   4.532 -0.6109  0.1589  0.9752
  678MOL0     C89417   2.814   2.212   4.503 -1.0229 -0.5225 -0.4053
  678MOL0     C89418   3.057   1.860   4.370 -0.1009  0.3315  0.0599
  678MOL0     C89419   3.029   1.724   4.392 -0.4065 -0.6147  0.8178
  678MOL0     C89420   3.122   1.626   4.342  1.1732  0.9248  0.2148
  678MOL0     C89421   3.242   1.660   4.276  1.2538 -0.4220  0.5456
  678MOL0     O89422   3.331   1.568   4.227  0.0671 -0.3284  0.4198
  678MOL0     C89423   3.292   1.437   4.206 -0.3684 -0.3332  0.1815
  678MOL0     C89424   3.322   1.340   4.320  0.4294 -0.5268  0.0638
  678MOL0     C89425   3.471   1.296   4.325 -0.1673  0.9662 -0.7510
  678MOL0     C89426   3.572   1.416   4.335  0.2538 -0.6599 -1.3236
  678MOL0     C89427   3.717   1.363   4.351 -0.6600  0.3061  0.6699
  678MOL0     C89428   3.832   1.320   4.360 -0.4034 -0.2328 -0.2696
  678MOL0     C89429   3.257   1.794   4.243  0.7440  0.0630 -0.3650
  678MOL0     C89430   3.168   1.889   4.290  0.8861 -0.4214  0.5652
  678MOL0     H89431   2.851   2.250   4.169  1.3935  1.3491  0.7455
  678MOL0     H89432   2.714   2.460   4.221  1.4691  0.6837  0.3034
  678MOL0     H89433   2.570   2.613   4.313  3.9447 -3.2111 -1.0526
  678MOL0     H89434   2.705   2.648   4.404 -0.2532 -0.9719 -2.1454
  678MOL0     H89435   2.549   2.820   4.436 -3.6271 -0.8560 -1.3171
  678MOL0     H89436   2.576   2.738   4.598  0.7333  1.9506  0.2128
  678MOL0     H89437   2.361   2.613   4.580  2.0077 -2.2822 -1.8294
  678MOL0     H89438   2.329   2.699   4.427  1.4057  2.8023 -0.5152
  678MOL0     H89439   2.351   2.839   4.693 -0.5711  1.4962 -0.6957
  678MOL0     H89440   2.353   2.921   4.534 -0.1771  0.8808  0.1169
  678MOL0     H89441   2.130   2.792   4.490 -0.3419  1.9683 -0.1365
  678MOL0     H89442   2.141   2.943   4.576 -0.6056 -0.0905  2.1639
  678MOL0     H89443   2.112   2.835   4.795 -0.0107 -2.0865  2.0519
  678MOL0     H89444   2.132   2.675   4.706 -1.8888 -1.3252 -1.8507
  678MOL0     H89445   1.910   2.862   4.648  4.3326  1.3515  0.6074
  678MOL0     H89446   1.951   2.695   4.585  1.8215 -1.1745  0.2610
  678MOL0     H89447   1.761   2.707   4.771 -0.8859  1.2185  1.7710
  678MOL0     H89448   1.877   2.752   4.886 -5.4652  1.3981  0.4449
  678MOL0     H89449   1.889   2.460   4.610  0.0597  4.2835 -1.0066
  678MOL0     H89450   1.886   2.167   4.709 -0.8321 -1.1307  0.8700
  678MOL0     H89451   2.032   2.148   4.806  1.7738  1.0898 -0.3355
  678MOL0     H89452   2.016   2.242   4.515 -2.0863  0.6773  0.8044
  678MOL0     H89453   2.085   2.090   4.592 -1.3202 -0.2620  1.3690
  678MOL0     H89454   2.263   2.254   4.510  0.4403 -0.7564  0.6448
  678MOL0     H89455   2.199   2.380   4.615  2.0678  0.0114  0.9075
  678MOL0     H89456   2.260   2.254   4.818 -0.1128 -0.5433 -1.1832
  678MOL0     H89457   2.385   2.285   4.710  0.8261  0.0954 -1.5392
  678MOL0     H89458   2.478   2.168   4.514 -0.9227  0.7057  1.6871
  678MOL0     H89459   2.621   2.011   4.380  1.4510 -1.6898  2.0151
  678MOL0     H89460   2.682   1.605   4.150  1.6073  1.2166  0.4431
  678MOL0     H89461   2.750   1.404   4.052  1.7288 -2.7023  0.4907
  678MOL0     H89462   3.064   1.209   4.269  0.5680 -1.4999  0.6548
  678MOL0     H89463   3.055   1.123   4.121 -0.0587  2.7619 -0.4397
  678MOL0     H89464   2.861   0.979   4.239  0.2561 -0.3028  0.1738
  678MOL0     H89465   2.933   1.046   4.386 -2.3562 -3.2015  1.2760
  678MOL0     H89466   3.070   0.860   4.181 -2.9023  0.4824 -0.8943
  678MOL0     H89467   3.028   0.820   4.348 -2.2362  0.3332 -1.8557
  678MOL0     H89468   3.265   1.009   4.271  1.3486 -0.6163  0.7535
  678MOL0     H89469   3.164   1.014   4.420 -0.6200 -1.3003  0.8589
  678MOL0     H89470   3.214   0.768   4.439 -2.3847  0.0469 -2.7592
  678MOL0     H89471   3.373   0.865   4.451 -0.2815 -0.7884 -1.1775
  678MOL0     H89472   3.367   0.820   4.181  0.8481 -0.2223  0.6423
  678MOL0     H89473   3.259   0.690   4.232  0.5717 -1.5630  1.9514
  678MOL0     H89474   3.536   0.739   4.300  2.8954 -1.9309  1.0767
  678MOL0     H89475   3.435   0.602   4.374  2.3463 -3.7266 -3.2007
  678MOL0     H89476   3.574   0.521   4.193  0.5794  0.0349 -0.7115
  678MOL0     H89477   3.506   0.635   4.085  0.5429  0.3173  0.7958
  678MOL0     H89478   2.849   1.233   4.431  0.4549 -1.3615 -2.2083
  678MOL0     H89479   2.756   1.435   4.543 -1.6450  0.3666 -0.5434
  678MOL0     H89480   2.478   1.697   4.615 -1.3712  0.2785  0.6155
  678MOL0     H89481   2.360   1.838   4.753  1.2984 -3.7673 -0.6184
  678MOL0     H89482   2.664   2.320   4.627 -0.8314  1.6951  0.6404
  678MOL0     H89483   2.847   2.156   4.591  2.3193  1.3366 -0.3193
  678MOL0     H89484   2.936   1.697   4.443 -0.2147  0.9089  2.0659
  678MOL0     H89485   3.093   1.527   4.377 -1.4534  1.7699  0.5860
  678MOL0     H89486   3.346   1.401   4.118 -2.5989  1.6540 -2.1510
  678MOL0     H89487   3.188   1.438   4.173 -0.2539  0.0802 -0.1672
  678MOL0     H89488   3.307   1.390   4.416  3.9031 -0.3943  0.6351
  678MOL0     H89489   3.265   1.247   4.311  0.5971 -0.7708  1.3502
  678MOL0     H89490   3.518   1.232   4.250  6.3012  1.9182  1.8049
  678MOL0     H89491   3.481   1.247   4.423 -0.7183  0.0952 -1.1213
  678MOL0     H89492   3.575   1.470   4.239  3.8892 -0.0104 -0.9977
  678MOL0     H89493   3.553   1.491   4.412  2.7422  1.0738 -2.2597
  678MOL0     H89494   3.928   1.275   4.378 -1.6902 -3.6648 -1.3651
  678MOL0     H89495   3.339   1.831   4.183  0.3096  1.5362 -0.0823
  678MOL0     H89496   3.187   1.996   4.286  0.3214 -0.2811  1.3386
  679MOL0     O89497   7.444   8.501   0.794  0.5078  0.1984  0.5004
  679MOL0     C89498   7.472   8.413   0.710 -0.6707  0.0603  0.3555
  679MOL0     O89499   7.386   8.314   0.660 -0.2203  0.4870  0.0042
  679MOL0     C89500   7.258   8.339   0.682 -0.4061  0.7409  0.2308
  679MOL0     C89501   7.173   8.345   0.577  0.6534 -0.4281 -0.4329
  679MOL0     C89502   7.034   8.366   0.598 -0.8184  0.5712 -0.5075
  679MOL0     C89503   6.983   8.387   0.726 -0.6422 -0.0008  0.2692
  679MOL0     O89504   6.854   8.431   0.751 -0.3472  0.4688 -0.2068
  679MOL0     C89505   6.789   8.490   0.633 -0.6723  0.7292  0.1432
  679MOL0     C89506   6.659   8.566   0.672 -0.7057  0.1801  0.6326
  679MOL0     C89507   6.661   8.725   0.624 -1.1091  1.0963  0.7416
  679MOL0     C89508   6.539   8.806   0.674 -0.3586  0.3049 -0.0064
  679MOL0     C89509   6.504   8.937   0.593  0.0992  0.1569 -0.3541
  679MOL0     C89510   6.389   9.007   0.658  0.4561  0.6545 -0.6917
  679MOL0     C89511   6.406   9.157   0.632 -0.0076 -0.2754 -0.1466
  679MOL0     C89512   6.373   9.201   0.491 -0.3217  0.5132 -0.0047
  679MOL0     N89513   6.376   9.345   0.496  0.0180  0.2342  0.1655
  679MOL0     C89514   6.269   9.428   0.517  0.2080  0.4611  0.3350
  679MOL0     C89515   6.318   9.551   0.476  0.2323  0.2054 -0.2561
  679MOL0     C89516   6.237   9.682   0.475  0.5519  0.1309  0.5346
  679MOL0     C89517   6.088   9.660   0.474 -1.0826  0.3268 -0.6505
  679MOL0     C89518   6.011   9.795   0.486  0.5850  0.2367 -0.8513
  679MOL0     C89519   5.871   9.773   0.434 -1.0114  0.8197  0.6114
  679MOL0     O89520   5.810   9.659   0.495 -0.1433 -0.2611 -0.7558
  679MOL0     C89521   5.675   9.653   0.470  0.3478 -0.0525  0.0834
  679MOL0     C89522   5.628   9.528   0.451 -0.3853 -0.3826  0.1951
  679MOL0     C89523   5.492   9.514   0.423 -1.3524 -0.3600 -0.1941
  679MOL0     C89524   5.404   9.622   0.421  0.2774 -0.6171  0.8200
  679MOL0     C89525   5.260   9.616   0.400 -0.2607 -0.6961  0.2344
  679MOL0     O89526   5.182   9.734   0.386 -0.8189  0.0371 -0.4162
  679MOL0     C89527   5.058   9.716   0.372 -0.2155  0.4413  0.6511
  679MOL0     C89528   4.966   9.672   0.468 -0.6265  0.2036 -1.2978
  679MOL0     C89529   4.836   9.682   0.458  0.8047  0.4756 -0.1610
  679MOL0     C89530   4.775   9.720   0.339  1.0730 -0.4568  0.0681
  679MOL0     O89531   4.637   9.707   0.329  0.0206 -0.2770  0.1154
  679MOL0     C89532   4.570   9.728   0.206 -0.4920  0.0717  0.2395
  679MOL0     C89533   4.482   9.857   0.185 -0.4370 -1.3582 -0.2028
  679MOL0     C89534   4.422   9.855   0.049  0.3206  0.4554 -0.3763
  679MOL0     C89535   4.367  10.000   0.025  0.2155  0.3282 -0.4374
  679MOL0     C89536   4.271  10.057   0.140  0.3958  0.7943 -0.6894
  679MOL0     C89537   4.155   9.960   0.162  1.2910  0.7340  0.0481
  679MOL0     C89538   4.037  10.018   0.227  0.4008 -0.1369 -1.2695
  679MOL0     C89539   3.940   9.921   0.279  0.2996  0.0579  0.0413
  679MOL0    Cl89540   4.022   9.830   0.408 -0.8912 -0.4065  0.1542
  679MOL0     C89541   4.862   9.773   0.239  0.0439 -0.1024 -0.3364
  679MOL0     C89542   4.998   9.771   0.257  0.2367 -0.3094  0.1625
  679MOL0     O89543   5.214   9.502   0.392 -0.4879 -0.3067  0.1735
  679MOL0     C89544   5.456   9.754   0.445 -0.0294 -0.3362  0.7341
  679MOL0     C89545   5.588   9.766   0.474 -0.3582 -0.0245  0.0434
  679MOL0     N89546   6.451   9.528   0.432 -0.4767 -0.0466  0.0753
  679MOL0     N89547   6.484   9.408   0.452  0.2762 -0.3121 -0.8111
  679MOL0     C89548   7.077   8.370   0.827  0.9392 -0.5364  0.3090
  679MOL0     C89549   7.212   8.346   0.814  0.2638  0.9288  0.0232
  679MOL0     C89550   7.613   8.407   0.659  0.4821 -0.1826 -0.3889
  679MOL0     C89551   7.713   8.471   0.737 -0.5374  0.1833 -0.7041
  679MOL0     C89552   7.851   8.461   0.695 -0.4326 -0.8777  0.4616
  679MOL0     C89553   7.880   8.404   0.577 -0.1808 -0.0469 -0.3608
  679MOL0     O89554   8.013   8.416   0.555 -0.3360  0.1111  0.5477
  679MOL0     C89555   8.061   8.358   0.431  0.3046  0.7127 -0.4944
  679MOL0     C89556   8.063   8.450   0.314 -0.3385  0.3596  0.4189
  679MOL0     C89557   8.128   8.372   0.200  0.4394 -0.2894  0.0750
  679MOL0     C89558   8.171   8.470   0.087  0.4681 -0.4949  0.1137
  679MOL0     C89559   8.053   8.514   0.016  0.7221 -0.5349 -0.4482
  679MOL0     C89560   7.955   8.553  -0.046  0.6840 -0.0021 -0.3694
  679MOL0     C89561   7.775   8.344   0.495 -0.0003 -0.3427 -0.5438
  679MOL0     C89562   7.645   8.350   0.536  1.0791  0.1999 -0.0219
  679MOL0     H89563   7.209   8.338   0.475 -3.7841 -1.8327 -2.1305
  679MOL0     H89564   6.961   8.375   0.518 -3.9181  0.9310  2.1486
  679MOL0     H89565   6.755   8.413   0.563  2.2332  0.3175 -0.9727
  679MOL0     H89566   6.860   8.559   0.586  2.3015 -1.4824  1.0344
  679MOL0     H89567   6.632   8.575   0.777  2.5286  0.0782  1.5713
  679MOL0     H89568   6.575   8.514   0.626 -3.5394  3.4171  1.6752
  679MOL0     H89569   6.661   8.729   0.515 -2.7575 -3.6031  0.3371
  679MOL0     H89570   6.758   8.769   0.649 -2.0214  2.8815  1.3684
  679MOL0     H89571   6.453   8.739   0.665 -1.0102  1.0759  0.3825
  679MOL0     H89572   6.561   8.838   0.776  1.0238 -1.2396  0.2173
  679MOL0     H89573   6.474   8.928   0.488  3.6561  1.1588 -1.5917
  679MOL0     H89574   6.583   9.012   0.585  0.6529  0.0865  2.9158
  679MOL0     H89575   6.385   8.987   0.765  0.2068  0.7238 -0.6877
  679MOL0     H89576   6.291   8.981   0.619 -0.1380  0.4427  0.8926
  679MOL0     H89577   6.348   9.220   0.701  0.7454  0.8239 -0.4735
  679MOL0     H89578   6.509   9.187   0.656  0.1991  1.2638 -2.6114
  679MOL0     H89579   6.270   9.172   0.467  0.1362 -0.9312 -0.3215
  679MOL0     H89580   6.436   9.167   0.407 -0.2008 -1.7588  0.9272
  679MOL0     H89581   6.166   9.405   0.543  0.2669  2.5510  2.8430
  679MOL0     H89582   6.277   9.737   0.390  0.7448 -0.1635  0.4309
  679MOL0     H89583   6.251   9.744   0.564  2.1626  3.7393 -2.0122
  679MOL0     H89584   6.062   9.596   0.559  0.4921  2.9985  2.0267
  679MOL0     H89585   6.066   9.614   0.377 -0.8689  1.6712 -1.3667
  679MOL0     H89586   6.011   9.825   0.592 -1.2722  1.4301 -1.1455
  679MOL0     H89587   6.058   9.871   0.424 -2.6508  3.9204  0.7876
  679MOL0     H89588   5.873   9.748   0.328 -0.1885 -0.7256  0.9660
  679MOL0     H89589   5.817   9.867   0.449 -0.6098  1.2912 -0.7570
  679MOL0     H89590   5.685   9.437   0.468 -3.6356 -3.1116 -2.1919
  679MOL0     H89591   5.457   9.411   0.415  0.4646 -0.9228 -1.4050
  679MOL0     H89592   5.009   9.632   0.559 -0.0927  1.2303 -1.0765
  679MOL0     H89593   4.780   9.658   0.548  1.3747  1.9408  0.6172
  679MOL0     H89594   4.496   9.647   0.197  0.1869 -0.7998  1.9755
  679MOL0     H89595   4.641   9.716   0.124 -1.2160  4.0103 -1.1786
  679MOL0     H89596   4.557   9.935   0.200 -1.3089 -0.7288  1.1184
  679MOL0     H89597   4.396   9.868   0.252  0.2192 -1.3582  0.6563
  679MOL0     H89598   4.335   9.788   0.047  1.3241 -0.8986 -0.2648
  679MOL0     H89599   4.487   9.825  -0.033 -0.3751  1.2774 -1.2548
  679MOL0     H89600   4.457  10.058   0.002  3.0703 -3.8391 -0.9688
  679MOL0     H89601   4.305  10.006  -0.064 -1.8994  2.0786  1.0287
  679MOL0     H89602   4.220  10.150   0.116  0.0417  0.7761 -0.0217
  679MOL0     H89603   4.333  10.094   0.222  2.7751 -0.4682 -1.7857
  679MOL0     H89604   4.198   9.881   0.224  1.0221 -2.5328 -3.5410
  679MOL0     H89605   4.119   9.922   0.066  2.5445  0.2227 -0.2397
  679MOL0     H89606   4.071  10.083   0.308 -0.9257  1.1155 -1.6867
  679MOL0     H89607   3.983  10.079   0.154 -3.5568 -1.4395  0.3427
  679MOL0     H89608   3.896   9.859   0.200 -0.0637  1.4706 -0.9124
  679MOL0     H89609   3.857   9.982   0.315  1.3959  0.9162  1.1840
  679MOL0     H89610   4.808   9.798   0.149 -0.8703 -1.7376 -0.2797
  679MOL0     H89611   5.058   9.790   0.169 -0.0654 -1.1960 -0.2341
  679MOL0     H89612   5.385   9.835   0.446  0.3312 -0.0198  0.9332
  679MOL0     H89613   5.615   9.870   0.490  2.9402 -0.5925 -0.9592
  679MOL0     H89614   7.037   8.383   0.927 -0.9123  3.0138 -0.7206
  679MOL0     H89615   7.280   8.350   0.898 -0.3196 -0.1109  0.5561
  679MOL0     H89616   7.686   8.512   0.834  0.1415 -0.7871 -0.0825
  679MOL0     H89617   7.925   8.506   0.762  1.8301 -0.0419 -2.3903
  679MOL0     H89618   8.010   8.263   0.418 -0.1355  0.0328  4.4481
  679MOL0     H89619   8.160   8.331   0.469 -0.5987 -0.2148  1.3481
  679MOL0     H89620   7.962   8.485   0.291 -0.4305  1.0816  1.8258
  679MOL0     H89621   8.123   8.539   0.335  2.4693 -0.3620 -3.3523
  679MOL0     H89622   8.061   8.290   0.172 -0.1372  0.2443 -0.1222
  679MOL0     H89623   8.218   8.320   0.234  0.0827 -2.1935 -1.6487
  679MOL0     H89624   8.230   8.556   0.119  1.2608 -0.5758 -1.0596
  679MOL0     H89625   8.238   8.422   0.014  0.8261  0.3218 -0.1080
  679MOL0     H89626   7.866   8.578  -0.100  1.1038  0.7553 -0.7384
  679MOL0     H89627   7.794   8.301   0.397 -0.7732  0.3223 -1.0067
  679MOL0     H89628   7.571   8.297   0.476  0.8340 -1.0091  1.2970
  680MOL0     O89629   3.910   6.840   4.081  0.1887  0.1315 -0.7170
  680MOL0     C89630   3.936   6.790   3.970 -0.1605 -0.2428  1.0866
  680MOL0     O89631   3.837   6.739   3.891  0.5770  0.4019 -0.5622
  680MOL0     C89632   3.710   6.762   3.925  0.5542 -0.1193 -0.4756
  680MOL0     C89633   3.633   6.683   4.015 -0.0814  0.9164  0.1572
  680MOL0     C89634   3.494   6.708   4.040 -0.7320  0.0119  0.6784
  680MOL0     C89635   3.428   6.800   3.962  0.5193  0.1872 -0.1367
  680MOL0     O89636   3.295   6.813   3.982 -0.4835 -0.3949 -0.0496
  680MOL0     C89637   3.218   6.777   3.866 -0.0648 -0.0878  0.0820
  680MOL0     C89638   3.074   6.748   3.908  0.5149 -0.5244 -0.2503
  680MOL0     C89639   2.985   6.879   3.933 -0.2514  0.7700 -0.7643
  680MOL0     C89640   2.847   6.848   3.892 -0.6112 -0.2781  0.1218
  680MOL0     C89641   2.744   6.962   3.904 -0.4096  1.3555  0.1327
  680MOL0     C89642   2.602   6.910   3.918  0.2615 -0.4978  0.5556
  680MOL0     C89643   2.507   7.022   3.965  0.8876 -0.4265 -0.1706
  680MOL0     C89644   2.384   7.061   3.859 -0.2328  0.0356  0.0941
  680MOL0     N89645   2.443   7.166   3.777  0.6056  0.1533  0.3075
  680MOL0     C89646   2.547   7.162   3.687  0.2084  0.0073  0.2786
  680MOL0     C89647   2.553   7.282   3.629 -0.2564 -0.0402 -0.2471
  680MOL0     C89648   2.660   7.329   3.532 -0.9100  0.8894  0.5631
  680MOL0     C89649   2.799   7.294   3.579  0.6623  0.4896 -1.2374
  680MOL0     C89650   2.821   7.346   3.721  0.8138 -0.0711 -0.1255
  680MOL0     C89651   2.970   7.339   3.746 -0.0779 -0.2395  0.4198
  680MOL0     O89652   3.028   7.209   3.750  0.0753  0.2274 -0.0684
  680MOL0     C89653   3.160   7.200   3.734 -0.6391 -0.7638 -0.8749
  680MOL0     C89654   3.256   7.289   3.787  0.3619  0.4488  0.0480
  680MOL0     C89655   3.395   7.268   3.759  0.1847 -0.1279  0.2636
  680MOL0     C89656   3.437   7.168   3.676  0.2539  0.3882  0.3631
  680MOL0     C89657   3.585   7.152   3.659  0.5040 -0.4396 -0.5786
  680MOL0     O89658   3.660   7.195   3.772  0.9978  0.5465  0.7788
  680MOL0     C89659   3.790   7.180   3.786 -0.5133 -0.3602 -1.1458
  680MOL0     C89660   3.848   7.277   3.865  0.8089 -0.6844 -0.4245
  680MOL0     C89661   3.985   7.281   3.889  0.6077 -0.2094 -0.0566
  680MOL0     C89662   4.068   7.186   3.834 -0.5408  0.3302  0.1907
  680MOL0     O89663   4.202   7.176   3.880  0.4125  0.1001 -0.7539
  680MOL0     C89664   4.283   7.297   3.866  0.0694  1.1362  0.4290
  680MOL0     C89665   4.381   7.272   3.759  0.4438  0.4540  0.7221
  680MOL0     C89666   4.478   7.143   3.783  0.1354 -0.1408  0.3085
  680MOL0     C89667   4.599   7.145   3.685  0.4265  0.1030  1.1761
  680MOL0     C89668   4.689   7.025   3.708 -0.2318  0.5918  0.8321
  680MOL0     C89669   4.789   7.016   3.586  0.0295 -1.5895 -0.6611
  680MOL0     C89670   4.863   6.883   3.583  0.4684  0.4696 -0.3444
  680MOL0     C89671   4.978   6.891   3.491 -0.5881  0.2897  0.2980
  680MOL0    Cl89672   5.107   7.002   3.547 -0.1719  0.4748 -0.0724
  680MOL0     C89673   4.016   7.084   3.751 -0.4506 -0.3699 -0.2145
  680MOL0     C89674   3.874   7.086   3.726 -1.1517 -0.5746  0.3347
  680MOL0     O89675   3.631   7.073   3.572  0.2688  0.3638 -0.7927
  680MOL0     C89676   3.348   7.074   3.620  0.0363 -0.0724 -0.6189
  680MOL0     C89677   3.206   7.093   3.648  0.1631 -0.3042 -0.1183
  680MOL0     N89678   2.441   7.354   3.672 -0.2406  0.6776  1.0382
  680MOL0     N89679   2.377   7.288   3.759  0.9710 -0.3531 -0.3306
  680MOL0     C89680   3.501   6.880   3.874  0.2951 -0.3711  0.3654
  680MOL0     C89681   3.640   6.859   3.860  0.0476 -0.6716 -1.2204
  680MOL0     C89682   4.074   6.785   3.908  0.2308 -0.4213 -0.2331
  680MOL0     C89683   4.189   6.857   3.969 -0.0746  0.4466  0.5700
  680MOL0     C89684   4.318   6.836   3.912  0.8618 -0.3246 -0.7158
  680MOL0     C89685   4.343   6.744   3.809  0.7028  0.0016 -0.4752
  680MOL0     O89686   4.476   6.710   3.779  0.5931 -0.6368  0.2617
  680MOL0     C89687   4.507   6.623   3.674 -0.0727 -0.3103 -0.1992
  680MOL0     C89688   4.480   6.479   3.712 -0.8191 -0.2704  0.1798
  680MOL0     C89689   4.501   6.382   3.589 -0.3651 -0.4275  0.6555
  680MOL0     C89690   4.482   6.241   3.644 -0.2715  0.0847 -0.0901
  680MOL0     C89691   4.347   6.212   3.705 -0.7521  0.5341  0.4561
  680MOL0     C89692   4.242   6.176   3.745  0.1878  0.3770 -0.8385
  680MOL0     C89693   4.235   6.694   3.743  0.3650 -0.4802 -0.0930
  680MOL0     C89694   4.100   6.715   3.793  0.1920  0.3160 -0.5355
  680MOL0     H89695   3.686   6.609   4.075  0.1137  0.7673 -0.1961
  680MOL0     H89696   3.442   6.642   4.108  1.1814 -1.9639  0.3073
  680MOL0     H89697   3.258   6.685   3.821 -0.5673  0.7039 -2.1077
  680MOL0     H89698   3.226   6.848   3.783 -0.6854 -1.1803 -0.9553
  680MOL0     H89699   3.070   6.667   3.981 -0.4991 -1.7393 -1.5885
  680MOL0     H89700   3.031   6.694   3.824 -0.4200 -1.5733  0.8730
  680MOL0     H89701   3.024   6.965   3.877 -0.7995  1.2773 -0.3710
  680MOL0     H89702   3.000   6.896   4.040 -0.5716 -0.1496 -0.5673
  680MOL0     H89703   2.857   6.809   3.790  0.5301 -0.3714  0.2586
  680MOL0     H89704   2.804   6.764   3.947  0.7060 -0.9069  0.2240
  680MOL0     H89705   2.761   7.013   3.809 -2.9255 -1.3188 -1.9173
  680MOL0     H89706   2.771   7.021   3.992 -0.1360 -2.4716  2.8263
  680MOL0     H89707   2.603   6.824   3.986 -0.3115 -0.1207  1.0473
  680MOL0     H89708   2.571   6.867   3.822  0.3071 -0.2553  0.4309
  680MOL0     H89709   2.462   6.987   4.059  0.6249 -3.2448 -1.2524
  680MOL0     H89710   2.569   7.110   3.985 -1.1044  0.0691  6.3590
  680MOL0     H89711   2.300   7.103   3.916 -2.4249  0.1579 -2.9982
  680MOL0     H89712   2.364   6.970   3.803  2.1365 -1.0882  0.9310
  680MOL0     H89713   2.606   7.071   3.682 -1.8188 -1.6643  3.5054
  680MOL0     H89714   2.652   7.438   3.524  0.4580  1.0858  1.4734
  680MOL0     H89715   2.647   7.283   3.433  1.6155  0.3177  0.4339
  680MOL0     H89716   2.866   7.337   3.503  0.0395  2.8644 -0.4955
  680MOL0     H89717   2.807   7.185   3.574  2.7545  0.5892 -1.0260
  680MOL0     H89718   2.787   7.449   3.727 -0.0669 -0.3037 -1.0091
  680MOL0     H89719   2.780   7.292   3.807  0.7083  1.8192  1.0723
  680MOL0     H89720   2.982   7.388   3.843  2.1112 -1.7616  0.9891
  680MOL0     H89721   3.021   7.405   3.675  1.0499 -0.5469  0.9267
  680MOL0     H89722   3.212   7.370   3.844 -2.3582  0.3809 -1.8155
  680MOL0     H89723   3.466   7.338   3.803  0.0569 -0.0134  0.2878
  680MOL0     H89724   3.777   7.345   3.910  0.8690 -1.4677  0.9040
  680MOL0     H89725   4.007   7.354   3.967 -1.2915  0.6533 -0.2852
  680MOL0     H89726   4.341   7.313   3.957  3.0700 -2.8046 -0.4957
  680MOL0     H89727   4.222   7.386   3.847  0.4495  1.0640 -1.3192
  680MOL0     H89728   4.448   7.359   3.764 -0.4510  1.0943  1.8943
  680MOL0     H89729   4.336   7.270   3.659 -0.5136 -2.5907  1.1104
  680MOL0     H89730   4.427   7.049   3.764  1.9773 -0.8731 -1.3683
  680MOL0     H89731   4.525   7.146   3.882  3.0595 -0.7188 -0.9545
  680MOL0     H89732   4.556   7.145   3.585 -2.6536 -1.2934  2.3923
  680MOL0     H89733   4.653   7.240   3.692 -0.8804  1.0551 -0.7363
  680MOL0     H89734   4.631   6.934   3.729 -1.6105  0.7916 -1.7313
  680MOL0     H89735   4.756   7.038   3.794  2.5678  3.7675 -1.5330
  680MOL0     H89736   4.856   7.103   3.585  0.1151 -1.6018 -2.9745
  680MOL0     H89737   4.726   7.021   3.497 -0.0420 -4.3467 -0.8503
  680MOL0     H89738   4.898   6.869   3.686 -2.8991  1.7818  1.1324
  680MOL0     H89739   4.787   6.810   3.554 -1.6494  2.8743 -1.2602
  680MOL0     H89740   4.943   6.920   3.392 -2.5579  1.5674  1.3042
  680MOL0     H89741   5.016   6.788   3.492 -2.5556 -0.4946  0.9935
  680MOL0     H89742   4.088   7.013   3.710  0.6904  0.1082  0.9014
  680MOL0     H89743   3.835   7.009   3.660 -3.0090 -0.7865  1.6226
  680MOL0     H89744   3.371   6.997   3.546  1.2406 -1.2296  0.8870
  680MOL0     H89745   3.135   7.045   3.581  1.4794  1.6508 -3.1155
  680MOL0     H89746   3.452   6.958   3.816  0.6508  1.1241  1.9816
  680MOL0     H89747   3.695   6.911   3.782  0.4932 -1.6029 -1.5495
  680MOL0     H89748   4.171   6.913   4.060 -0.1271  0.2581  0.6754
  680MOL0     H89749   4.402   6.879   3.966  0.6518  0.6513 -1.1267
  680MOL0     H89750   4.613   6.640   3.653 -0.8449  2.4326 -2.4825
  680MOL0     H89751   4.453   6.657   3.585  0.2267  2.0096  0.4369
  680MOL0     H89752   4.550   6.455   3.792 -0.8774  1.5502  0.8211
  680MOL0     H89753   4.375   6.477   3.741 -1.7119  2.0625 -2.4249
  680MOL0     H89754   4.602   6.397   3.549 -0.5816 -0.9584 -0.1091
  680MOL0     H89755   4.434   6.409   3.507  1.5696  1.5345 -0.3860
  680MOL0     H89756   4.495   6.171   3.561 -3.0117  0.8156 -1.2438
  680MOL0     H89757   4.564   6.215   3.712  0.2829  0.1978 -0.7048
  680MOL0     H89758   4.143   6.143   3.768  0.5586 -1.1974 -1.3811
  680MOL0     H89759   4.237   6.630   3.656 -2.8516 -1.7335  0.6136
  680MOL0     H89760   4.018   6.674   3.735  0.4264 -1.4535  0.3000
  681MOL0     O89761   2.115   4.082   4.708  0.8417 -0.0116  0.1768
  681MOL0     C89762   2.201   4.032   4.771 -0.9182  0.7637  0.1611
  681MOL0     O89763   2.188   3.983   4.892 -0.8296  0.2673 -0.3223
  681MOL0     C89764   2.056   3.963   4.947 -0.0559 -0.2736 -0.0119
  681MOL0     C89765   2.031   3.993   5.080 -0.6693 -0.3287  0.3085
  681MOL0     C89766   1.901   3.983   5.133 -0.2878  0.1957 -0.2737
  681MOL0     C89767   1.797   3.932   5.070  0.3644 -0.0772 -0.2107
  681MOL0     O89768   1.699   3.895   5.160 -0.1538  0.6773  0.0206
  681MOL0     C89769   1.581   3.836   5.109 -0.9702 -0.3577 -0.6700
  681MOL0     C89770   1.473   3.944   5.102 -0.3349 -0.2326  0.2330
  681MOL0     C89771   1.351   3.871   5.047  0.7287  0.3075  0.2507
  681MOL0     C89772   1.226   3.958   5.024 -0.7766  0.6590 -1.2870
  681MOL0     C89773   1.104   3.874   5.000  0.7059 -0.4196 -0.9004
  681MOL0     C89774   0.986   3.963   4.956  0.5593 -0.8854  0.1553
  681MOL0     C89775   0.849   3.894   4.979  0.5670  0.0741  0.3814
  681MOL0     C89776   0.821   3.767   4.907 -0.4933 -0.0547  0.3772
  681MOL0     N89777   0.677   3.737   4.913 -0.5443  0.6152  0.4695
  681MOL0     C89778   0.614   3.687   5.024 -0.7890  0.1006 -0.0119
  681MOL0     C89779   0.491   3.659   4.974  1.1480  0.2557 -0.0109
  681MOL0     C89780   0.375   3.602   5.051  0.2180  0.1511 -0.0868
  681MOL0     C89781   0.257   3.698   5.058  0.3686  0.0558 -0.8485
  681MOL0     C89782   0.136   3.639   5.144 -0.4328 -0.0877  0.6473
  681MOL0     C89783   0.037   3.742   5.197 -0.6225  0.6171 -0.2387
  681MOL0     O89784  -0.081   3.681   5.241  0.9578 -0.2251 -0.4152
  681MOL0     C89785  -0.177   3.744   5.314 -0.1679  0.5110 -0.4864
  681MOL0     C89786  -0.181   3.884   5.315 -0.2435  0.4061  0.1999
  681MOL0     C89787  -0.283   3.951   5.379  0.5115  0.1762  0.0191
  681MOL0     C89788  -0.386   3.891   5.439 -0.0740  0.4840  0.9094
  681MOL0     C89789  -0.513   3.956   5.484  0.0726 -0.5736 -0.4138
  681MOL0     O89790  -0.620   3.880   5.532 -0.1017 -0.5779  0.2922
  681MOL0     C89791  -0.726   3.931   5.602 -0.2475  0.1802 -0.0114
  681MOL0     C89792  -0.769   4.065   5.618 -0.4632 -0.4241 -0.0193
  681MOL0     C89793  -0.876   4.095   5.710  0.5544  0.7053  0.2711
  681MOL0     C89794  -0.950   3.992   5.770 -0.1293  0.2026  0.3212
  681MOL0     O89795  -1.045   4.033   5.854 -0.4834  0.6513 -0.0815
  681MOL0     C89796  -1.095   3.947   5.955 -0.0651  0.1303 -0.3464
  681MOL0     C89797  -1.195   4.019   6.031 -0.7629 -1.2256  0.4156
  681MOL0     C89798  -1.270   3.937   6.133 -0.2906  0.9580 -0.4086
  681MOL0     C89799  -1.276   4.005   6.269 -0.5288  0.6105  0.8129
  681MOL0     C89800  -1.369   3.942   6.379 -1.1262  0.4684 -0.1593
  681MOL0     C89801  -1.514   3.916   6.337  0.3588 -0.3278 -0.8435
  681MOL0     C89802  -1.614   3.864   6.445  0.9056  0.7075  0.0837
  681MOL0     C89803  -1.731   3.968   6.457 -0.0421  0.7405 -0.1108
  681MOL0    Cl89804  -1.798   3.958   6.624  0.1156  0.1613  0.2823
  681MOL0     C89805  -0.901   3.862   5.758  0.5454  0.2582 -0.3219
  681MOL0     C89806  -0.791   3.830   5.672  0.2173  0.6693  0.3654
  681MOL0     O89807  -0.502   4.078   5.493  0.6159 -0.4328 -0.3595
  681MOL0     C89808  -0.373   3.748   5.450  0.7367 -0.4136  0.5203
  681MOL0     C89809  -0.274   3.670   5.387 -0.7577 -0.0685 -0.0625
  681MOL0     N89810   0.474   3.700   4.847 -0.4468 -0.0997  0.7163
  681MOL0     N89811   0.591   3.733   4.809 -0.7916 -0.0824  0.3399
  681MOL0     C89812   1.823   3.877   4.948  0.6040  0.3130 -0.4827
  681MOL0     C89813   1.941   3.903   4.877 -0.7328 -0.4191  0.5538
  681MOL0     C89814   2.335   4.033   4.718 -0.1362  0.1528  0.0027
  681MOL0     C89815   2.449   4.028   4.800 -1.0598 -0.2890  0.2618
  681MOL0     C89816   2.570   4.028   4.735 -0.2069  0.5245 -0.0503
  681MOL0     C89817   2.591   4.043   4.592 -0.0735  0.1545  0.0115
  681MOL0     O89818   2.715   4.050   4.529 -0.0644  0.5100  0.4884
  681MOL0     C89819   2.835   4.034   4.612  0.9758  0.8437  0.2686
  681MOL0     C89820   2.959   4.004   4.531  0.5045 -0.5073  0.3706
  681MOL0     C89821   2.939   3.867   4.482 -0.7747  0.2148 -0.2626
  681MOL0     C89822   3.056   3.830   4.394  0.4038 -0.5104 -0.5805
  681MOL0     C89823   3.168   3.758   4.464  0.1217 -0.5759 -0.8868
  681MOL0     C89824   3.270   3.716   4.514  0.2258  0.1105  0.3257
  681MOL0     C89825   2.476   4.053   4.513 -0.1555 -0.0502  0.3981
  681MOL0     C89826   2.350   4.033   4.580  0.3654 -0.0190 -0.5399
  681MOL0     H89827   2.112   4.034   5.139 -0.8109  1.3814 -0.6116
  681MOL0     H89828   1.888   4.030   5.230  0.2756  0.3491 -0.2720
  681MOL0     H89829   1.542   3.772   5.189 -0.8400 -0.0741 -0.3775
  681MOL0     H89830   1.605   3.794   5.011  3.2729  2.6367 -1.2143
  681MOL0     H89831   1.494   4.022   5.028  0.9765  0.9879  1.8300
  681MOL0     H89832   1.447   3.972   5.204  0.9148 -2.5077  1.2574
  681MOL0     H89833   1.327   3.799   5.126 -2.5870  0.4511 -0.4652
  681MOL0     H89834   1.378   3.831   4.949  1.3549  1.6888 -0.1740
  681MOL0     H89835   1.213   4.018   5.115 -1.0212 -0.6289 -0.4315
  681MOL0     H89836   1.259   4.026   4.946 -0.0042  0.3119 -1.2781
  681MOL0     H89837   1.085   3.838   5.102 -0.1043  2.9138  0.2499
  681MOL0     H89838   1.114   3.785   4.937  2.4903 -1.0874  0.2565
  681MOL0     H89839   0.998   3.991   4.851  2.2417 -2.2047 -0.0428
  681MOL0     H89840   0.988   4.060   5.008 -0.6196 -1.2848  1.0005
  681MOL0     H89841   0.848   3.882   5.088  2.8240  1.5104  0.6329
  681MOL0     H89842   0.765   3.960   4.957  0.0171 -0.4407  0.9094
  681MOL0     H89843   0.878   3.681   4.942 -0.9808  0.1137  1.6467
  681MOL0     H89844   0.840   3.763   4.799 -0.2139  1.7814  0.3164
  681MOL0     H89845   0.657   3.664   5.120 -0.7736  0.3076  0.0321
  681MOL0     H89846   0.410   3.559   5.145  0.2959 -4.6247 -2.0251
  681MOL0     H89847   0.345   3.507   5.005  0.2608  0.0399  0.1166
  681MOL0     H89848   0.222   3.722   4.957 -1.2538  0.2370 -0.2797
  681MOL0     H89849   0.283   3.794   5.103  0.6988 -1.2597  1.9765
  681MOL0     H89850   0.082   3.569   5.080  2.0979 -0.7656 -0.9031
  681MOL0     H89851   0.189   3.589   5.226 -1.4225  1.7565  2.5077
  681MOL0     H89852  -0.001   3.809   5.119 -3.1917  0.6539  0.9455
  681MOL0     H89853   0.086   3.806   5.270 -0.3125  0.8662 -0.6569
  681MOL0     H89854  -0.105   3.942   5.264  0.5070 -0.5707  0.1770
  681MOL0     H89855  -0.290   4.060   5.384 -1.4430  0.0220  3.3346
  681MOL0     H89856  -0.709   4.144   5.575  1.7370 -1.9585  0.0614
  681MOL0     H89857  -0.916   4.194   5.727  0.0333  0.7982 -1.3899
  681MOL0     H89858  -1.014   3.916   6.022 -1.9649 -1.9694  1.1544
  681MOL0     H89859  -1.132   3.853   5.912 -0.0612 -0.1798  0.3126
  681MOL0     H89860  -1.257   4.072   5.957 -0.2334  2.4301  2.3366
  681MOL0     H89861  -1.141   4.100   6.081 -1.7307 -0.2998  0.0116
  681MOL0     H89862  -1.212   3.845   6.145 -1.3676  0.3448  0.2146
  681MOL0     H89863  -1.369   3.917   6.093  0.3228  1.8672 -2.5611
  681MOL0     H89864  -1.183   4.024   6.323 -1.3965  3.5889  1.4787
  681MOL0     H89865  -1.321   4.104   6.252  1.0532  1.0738 -0.9701
  681MOL0     H89866  -1.359   4.010   6.464  0.2369 -2.6792  2.4151
  681MOL0     H89867  -1.325   3.844   6.399 -0.4001  0.7089 -0.5631
  681MOL0     H89868  -1.514   3.847   6.252 -2.3286  0.2012 -1.3721
  681MOL0     H89869  -1.540   4.016   6.302  0.4814  0.8041  2.0139
  681MOL0     H89870  -1.664   3.768   6.427  3.2289 -1.3478  3.3944
  681MOL0     H89871  -1.566   3.847   6.542  3.1115  0.7414 -0.9427
  681MOL0     H89872  -1.806   3.957   6.378  1.5561 -2.3470 -1.3775
  681MOL0     H89873  -1.694   4.070   6.446 -1.9079  1.4545 -0.0958
  681MOL0     H89874  -0.928   3.786   5.831  1.8838 -0.3136 -0.3910
  681MOL0     H89875  -0.765   3.726   5.653 -1.5434  0.7989 -3.5840
  681MOL0     H89876  -0.443   3.684   5.503  0.5658 -0.6242  0.0567
  681MOL0     H89877  -0.262   3.562   5.388 -1.1720 -0.1653  2.6256
  681MOL0     H89878   1.751   3.815   4.896  0.6518  0.6317 -0.9327
  681MOL0     H89879   1.962   3.872   4.775  1.4146  0.5026  0.6666
  681MOL0     H89880   2.439   4.030   4.908  1.1530  0.6624  0.5112
  681MOL0     H89881   2.652   4.030   4.806  1.4515 -1.8487 -1.7347
  681MOL0     H89882   2.809   3.954   4.681 -0.4508  1.7291  0.8092
  681MOL0     H89883   2.854   4.123   4.672  1.5765  0.9141 -0.0190
  681MOL0     H89884   2.965   4.069   4.443  2.0109 -1.5013 -0.3065
  681MOL0     H89885   3.054   4.027   4.580 -0.0138 -2.1256  2.2560
  681MOL0     H89886   2.846   3.859   4.425  0.3135 -0.2341 -2.0472
  681MOL0     H89887   2.935   3.791   4.560 -3.2077 -2.0571 -2.4297
  681MOL0     H89888   3.017   3.766   4.315 -1.9404 -2.3296  1.8785
  681MOL0     H89889   3.095   3.925   4.355  0.6285 -1.1783 -2.0103
  681MOL0     H89890   3.349   3.670   4.570  0.5288  1.9022  1.4512
  681MOL0     H89891   2.476   4.066   4.405  0.7178  2.3725  0.6239
  681MOL0     H89892   2.264   4.018   4.515 -2.2481  0.8343  2.5049
  682MOL0     O89893   0.472   9.059   6.423 -0.3006 -0.7670  0.9536
  682MOL0     C89894   0.529   9.112   6.327  0.4737 -1.1851  0.0522
  682MOL0     O89895   0.482   9.212   6.246  0.0431  0.1745 -1.4382
  682MOL0     C89896   0.358   9.247   6.272  0.5619  1.3486 -0.1046
  682MOL0     C89897   0.257   9.211   6.179  0.0318  0.1586 -1.3843
  682MOL0     C89898   0.120   9.234   6.207 -0.8628 -0.1820 -0.0953
  682MOL0     C89899   0.078   9.302   6.322 -1.3229 -0.8039 -0.2349
  682MOL0     O89900  -0.055   9.334   6.327 -0.4999 -0.6656  0.2481
  682MOL0     C89901  -0.115   9.408   6.435 -0.1757 -0.1374 -0.1220
  682MOL0     C89902  -0.179   9.309   6.536  0.1529 -0.0044  0.2945
  682MOL0     C89903  -0.296   9.235   6.467 -0.7814 -0.5642 -0.6709
  682MOL0     C89904  -0.377   9.158   6.563  0.1856  0.6049 -0.0359
  682MOL0     C89905  -0.507   9.095   6.499 -0.6656 -0.7889 -0.2780
  682MOL0     C89906  -0.490   8.981   6.402 -0.7797  0.2062  0.0386
  682MOL0     C89907  -0.605   8.959   6.307  0.2816  0.2012  0.9268
  682MOL0     C89908  -0.589   8.825   6.230 -1.0156 -0.6880  0.3813
  682MOL0     N89909  -0.720   8.785   6.168 -0.3028 -0.6117 -0.0745
  682MOL0     C89910  -0.768   8.659   6.156 -0.6725  0.1943  0.8309
  682MOL0     C89911  -0.896   8.662   6.107 -0.1149  0.6560 -0.1345
  682MOL0     C89912  -0.964   8.537   6.065  0.2791 -0.7342  0.2143
  682MOL0     C89913  -1.106   8.548   6.119 -0.9341 -0.0575  0.7034
  682MOL0     C89914  -1.189   8.421   6.087 -0.5885 -1.1295 -0.2157
  682MOL0     C89915  -1.197   8.391   5.937 -0.1502 -0.4357  1.4122
  682MOL0     O89916  -1.297   8.293   5.899  0.2712  0.0133  0.0859
  682MOL0     C89917  -1.263   8.217   5.792  1.0512 -1.2097  0.6488
  682MOL0     C89918  -1.320   8.094   5.796  0.3234 -0.2985  0.7026
  682MOL0     C89919  -1.298   8.008   5.690 -0.7656  0.3069 -0.9132
  682MOL0     C89920  -1.198   8.031   5.587  0.3756  0.2912  0.3211
  682MOL0     C89921  -1.169   7.931   5.479 -0.4375  0.1838 -0.0030
  682MOL0     O89922  -1.261   7.839   5.441  0.2980 -0.0901  0.2266
  682MOL0     C89923  -1.230   7.729   5.355  0.0985  0.1405  0.0289
  682MOL0     C89924  -1.123   7.644   5.398  1.2807  0.6295  0.7592
  682MOL0     C89925  -1.092   7.528   5.326  0.3018  0.5485 -0.3310
  682MOL0     C89926  -1.171   7.497   5.213 -0.2126  1.3983  0.4992
  682MOL0     O89927  -1.128   7.383   5.131 -0.6912  0.2709 -0.3062
  682MOL0     C89928  -1.011   7.415   5.042 -0.5996 -0.0170 -0.1582
  682MOL0     C89929  -1.035   7.358   4.912  0.2337  0.6410 -0.3706
  682MOL0     C89930  -1.008   7.201   4.913  0.6644  0.2288 -0.2161
  682MOL0     C89931  -0.863   7.167   4.918 -0.5512 -0.4841  0.7603
  682MOL0     C89932  -0.836   7.014   4.908 -0.2547 -0.1241 -0.1107
  682MOL0     C89933  -0.882   6.932   5.033  0.2195 -0.4755  0.4281
  682MOL0     C89934  -0.837   6.783   5.013 -0.2923 -0.4211 -0.2481
  682MOL0     C89935  -0.887   6.704   5.138 -0.5738 -0.7795  0.6972
  682MOL0    Cl89936  -0.919   6.540   5.121  0.0304  0.2040 -0.0111
  682MOL0     C89937  -1.279   7.574   5.176  0.0337  0.0241 -1.2292
  682MOL0     C89938  -1.308   7.692   5.246 -0.1672  0.6492 -0.0563
  682MOL0     O89939  -1.058   7.944   5.419 -0.7647 -0.4988  1.0972
  682MOL0     C89940  -1.161   8.166   5.576 -0.0053  0.6680  0.9107
  682MOL0     C89941  -1.180   8.251   5.683 -0.1261 -0.7558  0.6506
  682MOL0     N89942  -0.924   8.797   6.099 -0.0714  0.5564  0.1229
  682MOL0     N89943  -0.823   8.868   6.136 -0.8296  0.1208 -0.3548
  682MOL0     C89944   0.182   9.346   6.414  0.4536  0.6879 -0.0610
  682MOL0     C89945   0.315   9.311   6.390 -0.5965 -0.5094 -0.5139
  682MOL0     C89946   0.656   9.050   6.280 -0.3146 -0.6872 -0.3175
  682MOL0     C89947   0.742   9.116   6.182  0.8240  0.4329 -1.0121
  682MOL0     C89948   0.864   9.049   6.152 -0.1956 -0.2675  0.6827
  682MOL0     C89949   0.905   8.925   6.204 -0.1318 -0.4412  0.3453
  682MOL0     O89950   1.014   8.866   6.141  0.5187  0.9561 -0.1281
  682MOL0     C89951   0.987   8.748   6.075 -0.6322  0.5664  0.0550
  682MOL0     C89952   1.117   8.697   6.015  0.8018  0.6060 -0.1066
  682MOL0     C89953   1.230   8.668   6.114 -0.0385  0.9028 -0.2923
  682MOL0     C89954   1.238   8.512   6.134  0.1654 -0.8676 -0.6472
  682MOL0     C89955   1.123   8.461   6.218  0.2772 -1.7033 -1.0625
  682MOL0     C89956   1.021   8.404   6.263  1.2615 -0.5242 -0.9956
  682MOL0     C89957   0.835   8.878   6.306  0.8176  0.2865 -0.5548
  682MOL0     C89958   0.711   8.935   6.337 -1.2105 -0.4323 -0.8657
  682MOL0     H89959   0.284   9.166   6.084  0.1801  0.1093 -1.3190
  682MOL0     H89960   0.045   9.207   6.133 -2.2135  0.2152  1.0856
  682MOL0     H89961  -0.195   9.475   6.404 -2.0094 -2.6130 -1.0428
  682MOL0     H89962  -0.050   9.480   6.486 -1.6023  0.5591  0.7408
  682MOL0     H89963  -0.212   9.360   6.627  4.4237  1.4929  1.2236
  682MOL0     H89964  -0.106   9.236   6.570  0.9703  1.2700  1.3695
  682MOL0     H89965  -0.262   9.173   6.384  1.3413 -0.0783 -0.2207
  682MOL0     H89966  -0.362   9.315   6.431 -0.9634 -0.1130  0.6148
  682MOL0     H89967  -0.304   9.089   6.607  1.0085  2.6323  1.9766
  682MOL0     H89968  -0.412   9.215   6.649 -1.4607  0.4817 -0.5940
  682MOL0     H89969  -0.555   9.183   6.454 -2.2635  0.0795  2.8413
  682MOL0     H89970  -0.575   9.067   6.580 -1.6151 -0.8939 -1.0801
  682MOL0     H89971  -0.482   8.889   6.460 -1.1609 -0.0106 -0.2398
  682MOL0     H89972  -0.396   9.002   6.350 -0.8686  1.0271  0.1896
  682MOL0     H89973  -0.698   8.948   6.364 -0.9915 -2.3453 -1.4082
  682MOL0     H89974  -0.611   9.037   6.230 -2.5580  3.0453  3.6874
  682MOL0     H89975  -0.545   8.748   6.295 -1.7212  0.1510  1.9135
  682MOL0     H89976  -0.517   8.827   6.148  1.0459 -1.3347  2.0553
  682MOL0     H89977  -0.714   8.567   6.174 -1.9647 -1.1455 -1.5470
  682MOL0     H89978  -0.898   8.453   6.087  2.3088  0.7481  0.0515
  682MOL0     H89979  -0.963   8.535   5.955 -0.0804  1.3245  0.1408
  682MOL0     H89980  -1.157   8.629   6.066 -0.8021 -0.7278 -0.4846
  682MOL0     H89981  -1.104   8.564   6.227 -0.8758 -1.2449  0.8925
  682MOL0     H89982  -1.144   8.334   6.136  4.5975  0.2582 -1.8904
  682MOL0     H89983  -1.286   8.439   6.135  0.7799 -3.1991  3.8080
  682MOL0     H89984  -1.099   8.357   5.903 -1.3939 -2.8521 -0.0840
  682MOL0     H89985  -1.224   8.483   5.884 -0.7717 -0.4731  1.6497
  682MOL0     H89986  -1.383   8.061   5.878  1.3404 -1.7574  0.9391
  682MOL0     H89987  -1.347   7.912   5.681  2.5419 -1.6068 -0.2190
  682MOL0     H89988  -1.069   7.662   5.490 -0.8015  0.4495  2.0867
  682MOL0     H89989  -1.007   7.465   5.351  0.1628  0.6497  0.4392
  682MOL0     H89990  -0.912   7.393   5.082 -0.5200  0.4806 -0.0680
  682MOL0     H89991  -1.006   7.524   5.034 -0.1249  0.1051  1.4393
  682MOL0     H89992  -0.969   7.407   4.839 -2.5163 -0.0908 -3.6146
  682MOL0     H89993  -1.139   7.382   4.890  0.5672  0.9903 -1.6539
  682MOL0     H89994  -1.050   7.164   4.820  1.8373  0.3858 -0.8337
  682MOL0     H89995  -1.060   7.146   4.992  1.5473  2.0425  1.7357
  682MOL0     H89996  -0.814   7.220   4.836 -1.1437 -0.5321  0.3754
  682MOL0     H89997  -0.817   7.202   5.011 -2.0761 -0.1250  1.4022
  682MOL0     H89998  -0.728   6.994   4.900  0.0485 -0.3767  3.0477
  682MOL0     H89999  -0.886   6.973   4.820  1.8954 -1.6655 -0.7064
  682MOL0     H90000  -0.988   6.943   5.056 -0.1886  0.3658 -1.5646
  682MOL0     H90001  -0.834   6.971   5.123 -0.7408  2.2175 -0.1199
  682MOL0     H90002  -0.882   6.739   4.923 -1.3763 -0.7070  0.4092
  682MOL0     H90003  -0.730   6.765   5.010 -0.1230  0.4364  0.3631
  682MOL0     H90004  -0.982   6.751   5.161  0.2879  1.4174  0.0112
  682MOL0     H90005  -0.820   6.722   5.222 -1.1943 -3.1710  1.7788
  682MOL0     H90006  -1.347   7.553   5.093 -0.6883  1.0291 -0.9165
  682MOL0     H90007  -1.383   7.762   5.210 -2.1838 -1.2185  0.2676
  682MOL0     H90008  -1.107   8.197   5.487  0.5496  0.3423  1.1274
  682MOL0     H90009  -1.152   8.355   5.670  1.5667 -1.2122  0.4937
  682MOL0     H90010   0.160   9.376   6.516  0.2450 -1.7054  0.6670
  682MOL0     H90011   0.395   9.333   6.461  0.2904 -1.1935 -1.2746
  682MOL0     H90012   0.703   9.209   6.142 -1.3093 -0.3147 -0.7630
  682MOL0     H90013   0.935   9.075   6.073  0.5341  0.0587  1.4363
  682MOL0     H90014   0.916   8.775   5.996 -0.8860  0.2751  0.1817
  682MOL0     H90015   0.941   8.672   6.140 -1.4615  2.7559  2.1867
  682MOL0     H90016   1.090   8.615   5.948  3.6522 -0.8934  0.4075
  682MOL0     H90017   1.144   8.774   5.942  0.1516  3.6020  2.5788
  682MOL0     H90018   1.216   8.721   6.209  1.1953  1.2498 -0.2911
  682MOL0     H90019   1.322   8.707   6.072 -0.3636  0.1885 -1.7397
  682MOL0     H90020   1.251   8.473   6.033 -0.0795  0.6729 -1.2905
  682MOL0     H90021   1.330   8.497   6.192 -0.0723  0.6247  0.1762
  682MOL0     H90022   0.929   8.365   6.299  1.3206  1.3008  1.3475
  682MOL0     H90023   0.866   8.779   6.338 -2.2457 -0.6283 -0.1002
  682MOL0     H90024   0.654   8.888   6.417  1.4556 -0.4162  1.1525
  683MOL0     O90025   0.902   8.539  10.637  0.1233  0.1305 -0.3003
  683MOL0     C90026   0.915   8.642  10.570 -0.5918  0.1289 -0.0316
  683MOL0     O90027   0.814   8.717  10.520 -0.6413  0.0332  0.5594
  683MOL0     C90028   0.684   8.670  10.529  0.0268  0.2359  0.0544
  683MOL0     C90029   0.616   8.622  10.407  0.1669 -0.2867  0.7509
  683MOL0     C90030   0.484   8.573  10.415 -0.1005  0.2867  0.1829
  683MOL0     C90031   0.412   8.578  10.535 -0.1808  0.3911 -0.5594
  683MOL0     O90032   0.280   8.554  10.541  0.0136 -0.3218  0.5944
  683MOL0     C90033   0.200   8.532  10.416  0.6952 -0.7316 -0.1593
  683MOL0     C90034   0.054   8.514  10.446  0.3618  0.5478 -0.3155
  683MOL0     C90035   0.038   8.376  10.525  0.3144 -0.2741 -0.0366
  683MOL0     C90036  -0.110   8.358  10.541 -0.4724 -0.3742 -0.8138
  683MOL0     C90037  -0.141   8.239  10.627 -0.7776 -0.0032  1.2200
  683MOL0     C90038  -0.141   8.116  10.535 -0.0321 -0.8386  0.1591
  683MOL0     C90039  -0.207   7.998  10.604  0.3771  0.2691  0.5663
  683MOL0     C90040  -0.226   7.882  10.502 -0.3576  0.4304  0.1736
  683MOL0     N90041  -0.235   7.755  10.573 -0.4722 -0.3530  0.0091
  683MOL0     C90042  -0.345   7.678  10.574  0.3397  0.0709 -0.1373
  683MOL0     C90043  -0.316   7.562  10.629  0.4858  0.0643 -0.7759
  683MOL0     C90044  -0.391   7.426  10.631 -0.7743 -0.3135  0.0807
  683MOL0     C90045  -0.545   7.428  10.636  0.7524 -0.1783 -0.2036
  683MOL0     C90046  -0.602   7.293  10.668 -1.1389  0.3354 -0.5661
  683MOL0     C90047  -0.747   7.276  10.675  0.1934  0.1848  0.2035
  683MOL0     O90048  -0.774   7.151  10.738  0.9174 -0.5190  1.3877
  683MOL0     C90049  -0.908   7.130  10.760 -0.1034 -0.0389 -0.6057
  683MOL0     C90050  -1.015   7.215  10.734  0.9986 -0.3631  0.2778
  683MOL0     C90051  -1.144   7.174  10.766  0.5898  0.1277  0.8820
  683MOL0     C90052  -1.179   7.044  10.810  0.3841  0.1468  0.2758
  683MOL0     C90053  -1.323   7.005  10.841 -0.9904 -0.6117  0.0368
  683MOL0     O90054  -1.340   6.885  10.907  0.8099 -0.3587  0.1857
  683MOL0     C90055  -1.458   6.812  10.893 -0.2374 -0.3573 -0.4195
  683MOL0     C90056  -1.583   6.872  10.899 -0.5040 -0.1427 -0.2338
  683MOL0     C90057  -1.689   6.791  10.935 -0.2344  0.5170  0.1795
  683MOL0     C90058  -1.664   6.657  10.962  0.4537 -0.1931 -0.7401
  683MOL0     O90059  -1.756   6.561  10.999 -0.3003  0.4886  0.4358
  683MOL0     C90060  -1.890   6.596  11.041 -0.3990  0.1867 -0.2416
  683MOL0     C90061  -1.971   6.469  11.053 -0.6923 -0.1407  0.0381
  683MOL0     C90062  -2.123   6.493  11.073 -0.4518 -0.9026 -0.5428
  683MOL0     C90063  -2.179   6.355  11.090 -0.5468  0.1402 -0.7461
  683MOL0     C90064  -2.336   6.358  11.090 -0.9176  0.0117 -0.8975
  683MOL0     C90065  -2.374   6.238  11.164  0.0933 -1.0168  1.1175
  683MOL0     C90066  -2.526   6.210  11.171 -0.2081 -1.3506  0.1629
  683MOL0     C90067  -2.600   6.158  11.043 -0.2938  0.1433 -0.0938
  683MOL0    Cl90068  -2.782   6.144  11.079  0.2128 -0.7497 -0.1831
  683MOL0     C90069  -1.536   6.598  10.951 -0.3299 -0.0555 -0.1275
  683MOL0     C90070  -1.437   6.682  10.908 -0.0857  1.1897  0.0251
  683MOL0     O90071  -1.407   7.088  10.801 -0.4070  0.4603 -0.2358
  683MOL0     C90072  -1.075   6.961  10.839 -0.1865  0.1188 -0.5464
  683MOL0     C90073  -0.943   7.002  10.812  0.8393  0.1063  0.3995
  683MOL0     N90074  -0.185   7.570  10.668 -0.2747 -0.0434  0.4939
  683MOL0     N90075  -0.140   7.684  10.645 -0.0471  0.2525  0.1705
  683MOL0     C90076   0.482   8.614  10.653 -0.8893 -0.0043  0.0139
  683MOL0     C90077   0.615   8.659  10.646 -0.1186 -0.3126 -0.0039
  683MOL0     C90078   1.051   8.702  10.573  0.4001 -0.7243  0.1559
  683MOL0     C90079   1.099   8.801  10.482 -0.5429 -0.1231  0.7346
  683MOL0     C90080   1.234   8.841  10.480  0.1765  0.4744 -0.6002
  683MOL0     C90081   1.334   8.780  10.563  0.0839  0.4141  0.1384
  683MOL0     O90082   1.465   8.818  10.557  0.5169  0.4087  0.1649
  683MOL0     C90083   1.537   8.719  10.485 -0.1542  0.0570  0.4853
  683MOL0     C90084   1.684   8.738  10.544 -0.5300 -0.2482  0.5582
  683MOL0     C90085   1.793   8.687  10.448  0.5013  0.8569 -0.8003
  683MOL0     C90086   1.923   8.645  10.514 -0.6201  0.3455  0.6116
  683MOL0     C90087   1.991   8.767  10.561 -1.2029  0.2799 -0.1511
  683MOL0     C90088   2.064   8.857  10.610 -0.1459  0.6404 -0.8779
  683MOL0     C90089   1.280   8.692  10.656  0.0521  0.6129  0.2019
  683MOL0     C90090   1.147   8.654  10.667 -1.0012 -0.1254 -0.2747
  683MOL0     H90091   0.659   8.591  10.313 -3.1044  0.4348 -1.1362
  683MOL0     H90092   0.429   8.534  10.330 -1.2801 -1.6235  1.7290
  683MOL0     H90093   0.228   8.445  10.356  1.0801 -0.5655 -0.2209
  683MOL0     H90094   0.211   8.618  10.349 -0.4186 -0.7579 -0.3969
  683MOL0     H90095   0.003   8.506  10.350 -1.1748  0.4917  0.4826
  683MOL0     H90096   0.014   8.599  10.503 -0.7475 -0.0288 -0.2085
  683MOL0     H90097   0.090   8.383  10.621  3.2122  3.5655 -1.5934
  683MOL0     H90098   0.077   8.296  10.462 -3.2919 -2.0402 -0.2531
  683MOL0     H90099  -0.138   8.443  10.603  3.4106  0.0167  0.6935
  683MOL0     H90100  -0.155   8.359  10.442 -0.4892 -0.7352 -0.8120
  683MOL0     H90101  -0.243   8.241  10.664 -0.8117 -1.7885  1.3244
  683MOL0     H90102  -0.077   8.234  10.715  0.1528 -3.3982  0.4872
  683MOL0     H90103  -0.036   8.092  10.513  0.4520  0.4539  0.9081
  683MOL0     H90104  -0.190   8.137  10.440 -0.4380 -1.2535  0.2732
  683MOL0     H90105  -0.145   7.962  10.686  0.0967 -0.4308  0.4810
  683MOL0     H90106  -0.306   8.032  10.639  1.1892  0.3091  2.9959
  683MOL0     H90107  -0.143   7.875  10.431 -1.1629 -1.0043 -0.6691
  683MOL0     H90108  -0.316   7.908  10.447 -0.6044 -0.9636 -0.1259
  683MOL0     H90109  -0.433   7.704  10.516  0.8938  0.8020 -0.6721
  683MOL0     H90110  -0.347   7.371  10.715  0.8899  0.7849 -0.0248
  683MOL0     H90111  -0.370   7.374  10.538 -0.9260  0.2918 -0.3006
  683MOL0     H90112  -0.585   7.476  10.546  1.1288  0.4944 -0.0198
  683MOL0     H90113  -0.574   7.496  10.716 -1.3144  0.3949 -1.3669
  683MOL0     H90114  -0.573   7.235  10.580  2.8298  3.0717 -1.3571
  683MOL0     H90115  -0.541   7.246  10.745  0.2752 -1.1486 -2.4806
  683MOL0     H90116  -0.784   7.281  10.573  0.6823  0.2695  0.0257
  683MOL0     H90117  -0.785   7.357  10.739  1.7746  0.1860  1.2011
  683MOL0     H90118  -1.013   7.317  10.697 -0.3759 -0.8446 -1.2071
  683MOL0     H90119  -1.221   7.245  10.738 -1.9236 -2.0929  1.7065
  683MOL0     H90120  -1.597   6.979  10.902  2.9712  0.7782 -5.1562
  683MOL0     H90121  -1.789   6.829  10.955 -0.9237 -1.4295  0.6211
  683MOL0     H90122  -1.941   6.661  10.970  1.2712  1.2593 -0.5237
  683MOL0     H90123  -1.884   6.638  11.141 -0.5889 -1.6858  0.5925
  683MOL0     H90124  -1.936   6.414  11.140 -2.1988  1.1492  1.5285
  683MOL0     H90125  -1.957   6.420  10.956 -1.6288  2.5469 -1.5808
  683MOL0     H90126  -2.165   6.550  10.990  0.5400  1.4279  0.4351
  683MOL0     H90127  -2.149   6.545  11.166 -1.0940  0.7844 -1.6322
  683MOL0     H90128  -2.147   6.289  11.009  0.6556  2.5382 -2.3169
  683MOL0     H90129  -2.144   6.320  11.188 -2.4320  0.2104  0.0013
  683MOL0     H90130  -2.370   6.355  10.986  0.0883  0.1213 -1.2482
  683MOL0     H90131  -2.374   6.451  11.132  0.4846  0.4042 -0.4495
  683MOL0     H90132  -2.340   6.247  11.268  0.3638 -0.9432  1.0250
  683MOL0     H90133  -2.331   6.150  11.116 -1.7302  0.1419 -3.0870
  683MOL0     H90134  -2.552   6.144  11.254  0.1647  1.5866  2.7880
  683MOL0     H90135  -2.568   6.307  11.198  0.4609 -0.8813 -0.4228
  683MOL0     H90136  -2.545   6.068  11.014  0.1798  0.7620 -1.1739
  683MOL0     H90137  -2.590   6.230  10.962  2.3506  0.9047  0.8085
  683MOL0     H90138  -1.523   6.496  10.985  1.4286  0.3480  0.5229
  683MOL0     H90139  -1.334   6.647  10.904 -1.3246 -3.0476  0.0344
  683MOL0     H90140  -1.095   6.863  10.881 -3.8495  2.4564  4.2664
  683MOL0     H90141  -0.858   6.938  10.834  0.7323 -0.7710 -1.5398
  683MOL0     H90142   0.430   8.636  10.746 -0.8111 -1.7476  0.5027
  683MOL0     H90143   0.660   8.692  10.739  1.8592  0.0434 -1.0359
  683MOL0     H90144   1.020   8.847  10.422 -0.1395  1.7458  1.5614
  683MOL0     H90145   1.253   8.922  10.411 -1.1145  1.6003  0.3276
  683MOL0     H90146   1.523   8.727  10.377  1.3455 -2.7939 -0.0190
  683MOL0     H90147   1.505   8.619  10.515 -0.1392 -0.7337 -1.9242
  683MOL0     H90148   1.698   8.844  10.565  0.4919 -0.4231  0.7991
  683MOL0     H90149   1.673   8.679  10.636 -2.5395  0.1349  0.6259
  683MOL0     H90150   1.823   8.759  10.371  1.6347  0.5836 -0.6303
  683MOL0     H90151   1.751   8.601  10.397  0.1425  0.2171  0.5228
  683MOL0     H90152   1.909   8.575  10.597 -0.3159 -0.8750 -0.3249
  683MOL0     H90153   1.979   8.597  10.433 -0.7733  1.1325  0.0305
  683MOL0     H90154   2.114   8.945  10.647  1.9903 -0.9042  0.1829
  683MOL0     H90155   1.333   8.651  10.742 -1.3875 -0.9096  0.4226
  683MOL0     H90156   1.136   8.586  10.751  0.9369 -1.4173 -0.9979
  684MOL0     O90157   9.467   0.832  10.568  0.7545  1.3123  0.3295
  684MOL0     C90158   9.510   0.746  10.487  0.4722 -1.2513  0.7273
  684MOL0     O90159   9.429   0.672  10.408  0.9599  0.1860 -0.0094
  684MOL0     C90160   9.294   0.702  10.399  0.9864 -1.0748 -0.3449
  684MOL0     C90161   9.214   0.664  10.505  0.2933 -0.8179  0.2882
  684MOL0     C90162   9.076   0.691  10.497 -0.0946 -0.0646  0.5031
  684MOL0     C90163   9.011   0.744  10.389  0.2957  0.2922 -0.2738
  684MOL0     O90164   8.870   0.745  10.382 -0.2567  0.6700 -0.1554
  684MOL0     C90165   8.818   0.797  10.267  0.4372  0.3141  0.0136
  684MOL0     C90166   8.669   0.797  10.280  0.6175 -0.2514 -0.1890
  684MOL0     C90167   8.598   0.858  10.164  0.2947 -0.5934  0.6676
  684MOL0     C90168   8.442   0.861  10.178 -0.7267 -0.4525 -0.7823
  684MOL0     C90169   8.385   0.875  10.040  0.0975 -0.3222  1.0359
  684MOL0     C90170   8.237   0.905  10.062 -0.3060 -0.1841  0.9485
  684MOL0     C90171   8.175   0.899   9.926 -0.6994  0.3747  0.2252
  684MOL0     C90172   8.024   0.895   9.941  0.1075 -0.4655 -0.3120
  684MOL0     N90173   7.963   0.870   9.813  0.2582  0.1100  0.4036
  684MOL0     C90174   7.871   0.961   9.750 -1.0626  0.6024  0.0219
  684MOL0     C90175   7.825   0.897   9.642  0.2206  0.4309  0.8781
  684MOL0     C90176   7.750   0.970   9.536  0.2091 -0.1790  0.4580
  684MOL0     C90177   7.635   0.889   9.469 -0.3655  0.0062  0.5329
  684MOL0     C90178   7.521   0.858   9.569  0.2314  0.2471 -0.2896
  684MOL0     C90179   7.391   0.915   9.507 -0.6853 -0.2335 -0.6467
  684MOL0     O90180   7.295   0.877   9.609  0.4179 -0.3213  0.1338
  684MOL0     C90181   7.157   0.908   9.593 -1.2922  0.0582  0.2471
  684MOL0     C90182   7.053   0.865   9.672  0.6432 -0.2423 -0.4900
  684MOL0     C90183   6.917   0.903   9.650 -0.0097 -0.9731  0.3845
  684MOL0     C90184   6.884   1.004   9.556  0.3568  0.0013 -0.3968
  684MOL0     C90185   6.750   1.043   9.522 -0.2354 -0.0776 -0.1391
  684MOL0     O90186   6.653   0.951   9.563  0.6362 -0.0408  0.3938
  684MOL0     C90187   6.520   0.980   9.548  0.7897  1.0051 -0.5584
  684MOL0     C90188   6.466   1.097   9.593 -1.4564 -0.8212 -0.0398
  684MOL0     C90189   6.328   1.119   9.599 -0.5710 -0.1573  0.0365
  684MOL0     C90190   6.237   1.030   9.565  0.6733  0.1274 -0.1173
  684MOL0     O90191   6.111   1.060   9.606 -0.8919 -0.1263 -0.6488
  684MOL0     C90192   5.999   1.022   9.525 -0.9553  0.2818 -0.0245
  684MOL0     C90193   5.888   1.124   9.525  0.5778 -0.4441 -0.8139
  684MOL0     C90194   5.849   1.154   9.666  0.2100  0.2217 -0.6695
  684MOL0     C90195   5.737   1.251   9.686 -0.1437 -1.1588 -0.0632
  684MOL0     C90196   5.609   1.158   9.678 -0.4201 -0.3859 -0.0356
  684MOL0     C90197   5.485   1.245   9.692  0.2823 -0.5527 -0.4340
  684MOL0     C90198   5.354   1.162   9.726  0.0129 -0.0444 -0.5445
  684MOL0     C90199   5.244   1.238   9.653 -0.1470  1.2374 -0.0041
  684MOL0    Cl90200   5.257   1.229   9.475  0.4193 -0.2248  0.4444
  684MOL0     C90201   6.285   0.911   9.505 -0.2688 -0.9202 -0.7405
  684MOL0     C90202   6.425   0.890   9.501  0.1268  0.1091  0.3974
  684MOL0     O90203   6.732   1.147   9.448 -0.7581 -0.0356 -0.3254
  684MOL0     C90204   6.997   1.069   9.490  1.5406 -0.8633  0.3048
  684MOL0     C90205   7.120   1.004   9.492 -0.0642  0.7905 -0.5711
  684MOL0     N90206   7.879   0.769   9.646 -0.7320  0.3621 -0.4676
  684MOL0     N90207   7.968   0.754   9.749  0.9131  0.2166  0.1522
  684MOL0     C90208   9.103   0.801  10.291  0.4006  0.9837  0.3486
  684MOL0     C90209   9.243   0.778  10.295  0.2576  0.0704  0.6242
  684MOL0     C90210   9.648   0.720  10.483 -0.2739 -0.1837  0.1901
  684MOL0     C90211   9.702   0.618  10.397  0.5093  1.2573 -1.2621
  684MOL0     C90212   9.834   0.589  10.394 -0.5116 -0.3892  0.1544
  684MOL0     C90213   9.921   0.670  10.469 -0.4733 -0.0853 -0.3264
  684MOL0     O90214  10.053   0.626  10.455 -0.2752  0.1339 -0.7047
  684MOL0     C90215  10.161   0.669  10.539  0.9201 -0.6279  0.0803
  684MOL0     C90216  10.266   0.565  10.560 -0.2452 -0.2812 -0.1315
  684MOL0     C90217  10.311   0.515  10.418  0.5549 -1.5081  0.6754
  684MOL0     C90218  10.393   0.623  10.348 -0.7643 -0.5173 -0.0975
  684MOL0     C90219  10.516   0.639  10.425  0.1650 -0.0595  0.2856
  684MOL0     C90220  10.619   0.638  10.489  0.2308  0.4027 -0.1283
  684MOL0     C90221   9.876   0.781  10.539  1.3239  0.7223 -0.3497
  684MOL0     C90222   9.737   0.806  10.553 -0.2218  0.5255 -0.4323
  684MOL0     H90223   9.254   0.622  10.597 -1.1630  0.1831  1.4143
  684MOL0     H90224   9.013   0.676  10.584  1.1446 -0.8040  1.3118
  684MOL0     H90225   8.859   0.739  10.184 -1.3661 -1.5943  0.3891
  684MOL0     H90226   8.848   0.902  10.260 -2.5098  1.3675  1.5755
  684MOL0     H90227   8.639   0.848  10.372  2.5512  4.1122 -1.7029
  684MOL0     H90228   8.644   0.691  10.287 -1.2596  0.1720  0.3970
  684MOL0     H90229   8.626   0.800  10.075 -1.0029  1.0988 -0.9346
  684MOL0     H90230   8.621   0.964  10.149 -1.7837  0.0467  1.6213
  684MOL0     H90231   8.417   0.773  10.238  3.2922  0.0915  2.0414
  684MOL0     H90232   8.406   0.945  10.238 -0.7360 -0.5158 -0.7006
  684MOL0     H90233   8.406   0.789   9.975  0.8183 -0.2377  1.1499
  684MOL0     H90234   8.427   0.969  10.004  1.0222 -0.7785  0.8996
  684MOL0     H90235   8.216   1.004  10.103 -0.1268 -0.3033  1.3338
  684MOL0     H90236   8.195   0.821  10.118 -1.8033  0.8875  1.5066
  684MOL0     H90237   8.210   0.984   9.869  2.5784 -0.9409  0.0627
  684MOL0     H90238   8.193   0.809   9.866 -1.8198 -0.5487  1.2092
  684MOL0     H90239   7.985   0.988   9.983  0.3884 -0.0345 -0.9924
  684MOL0     H90240   7.994   0.807   9.999 -0.2409 -0.8152 -1.0212
  684MOL0     H90241   7.871   1.060   9.795  0.7106  0.0134  1.4898
  684MOL0     H90242   7.822   1.004   9.461 -1.8237 -0.5444 -1.7730
  684MOL0     H90243   7.711   1.059   9.586  0.8801 -0.1647  0.9738
  684MOL0     H90244   7.675   0.792   9.435 -0.9573  1.0918 -3.9432
  684MOL0     H90245   7.599   0.944   9.381  0.7402  1.0273  0.6989
  684MOL0     H90246   7.514   0.752   9.595  2.8539 -0.0076 -0.3607
  684MOL0     H90247   7.533   0.913   9.663  0.8463 -0.3467 -0.0074
  684MOL0     H90248   7.362   0.866   9.415 -1.2814 -0.9558 -0.0814
  684MOL0     H90249   7.399   1.025   9.505 -2.7646 -0.0658 -1.7688
  684MOL0     H90250   7.081   0.778   9.731  1.5607  0.6741  0.4653
  684MOL0     H90251   6.841   0.842   9.698 -2.6393  0.6655 -1.3773
  684MOL0     H90252   6.536   1.168   9.636 -1.8832  0.0573 -0.7557
  684MOL0     H90253   6.304   1.206   9.659  4.7526  0.9660  1.0366
  684MOL0     H90254   5.957   0.926   9.557  1.2696 -0.9212 -0.5076
  684MOL0     H90255   6.018   1.003   9.419  0.2353  1.0956  0.0216
  684MOL0     H90256   5.796   1.104   9.471 -1.0059 -2.1880  2.2353
  684MOL0     H90257   5.933   1.218   9.492  1.4922 -0.6392 -0.1751
  684MOL0     H90258   5.931   1.206   9.716 -1.3260  0.7991  1.3765
  684MOL0     H90259   5.833   1.060   9.721  2.0008  0.1579 -0.1926
  684MOL0     H90260   5.749   1.295   9.785  4.3017 -0.1576 -0.8347
  684MOL0     H90261   5.736   1.325   9.606 -0.5651 -3.4239 -2.3040
  684MOL0     H90262   5.621   1.096   9.768  0.1706  2.2925  1.8398
  684MOL0     H90263   5.590   1.106   9.584  1.8758  0.1801 -0.8809
  684MOL0     H90264   5.465   1.296   9.598  2.4230  1.3485  0.0532
  684MOL0     H90265   5.511   1.328   9.760 -3.7532  2.6953 -2.3963
  684MOL0     H90266   5.365   1.059   9.690  2.2198  0.0805 -0.3410
  684MOL0     H90267   5.347   1.158   9.835  2.0410  2.1818 -0.2507
  684MOL0     H90268   5.240   1.342   9.689 -0.8301  0.9482  0.7762
  684MOL0     H90269   5.149   1.194   9.682  1.7279 -3.2547  0.0514
  684MOL0     H90270   6.209   0.846   9.464  0.6193 -3.9138  1.9489
  684MOL0     H90271   6.452   0.789   9.472 -2.3054 -0.8127  1.1829
  684MOL0     H90272   6.969   1.145   9.419  1.8119 -1.8539 -0.8936
  684MOL0     H90273   7.185   1.050   9.419  0.4861 -0.1610 -0.6932
  684MOL0     H90274   9.059   0.861  10.212  0.4325 -0.3477 -0.7119
  684MOL0     H90275   9.312   0.812  10.219  0.4411  0.7744  1.0878
  684MOL0     H90276   9.630   0.567  10.334  1.0235  0.4150 -1.1775
  684MOL0     H90277   9.867   0.515  10.322  1.9024  3.7569 -3.5443
  684MOL0     H90278  10.126   0.702  10.638  0.4571 -1.1438  0.0890
  684MOL0     H90279  10.200   0.758  10.488 -1.7969  0.1111 -0.8704
  684MOL0     H90280  10.345   0.618  10.615  0.4490 -0.5890 -0.8181
  684MOL0     H90281  10.234   0.480  10.622  0.0701  0.6448  1.3624
  684MOL0     H90282  10.228   0.496  10.348  1.3986 -1.7053 -0.2954
  684MOL0     H90283  10.364   0.420  10.432  2.7608 -0.3116  0.8844
  684MOL0     H90284  10.406   0.588  10.245  0.8560 -2.1506  0.6144
  684MOL0     H90285  10.349   0.723  10.358 -1.0255 -0.8181  2.4140
  684MOL0     H90286  10.712   0.638  10.543  2.3332 -4.8672 -3.0392
  684MOL0     H90287   9.943   0.858  10.579  2.3349 -0.5792  0.5631
  684MOL0     H90288   9.697   0.882  10.619  0.2053  0.6721 -0.3443
  685MOL0     O90289   3.867   0.577   1.473  0.1529  0.3401 -0.0637
  685MOL0     C90290   3.910   0.582   1.359 -0.8532  0.6890  0.7314
  685MOL0     O90291   3.906   0.694   1.280  0.2760  0.3457  0.0490
  685MOL0     C90292   3.792   0.773   1.272 -0.1141 -0.4917 -1.1833
  685MOL0     C90293   3.814   0.894   1.203  0.4578 -0.6599 -0.4842
  685MOL0     C90294   3.709   0.989   1.177  0.2539 -0.7101  0.0847
  685MOL0     C90295   3.577   0.950   1.201 -0.2225  0.1232 -0.4198
  685MOL0     O90296   3.470   1.030   1.163  0.1303  0.2921  0.3227
  685MOL0     C90297   3.336   0.992   1.163  0.2570  0.1217 -0.7484
  685MOL0     C90298   3.261   1.106   1.101 -0.2526  0.5761 -0.0257
  685MOL0     C90299   3.292   1.245   1.163  0.6354 -0.5766 -0.0461
  685MOL0     C90300   3.156   1.324   1.161  0.3043  0.4587  0.8170
  685MOL0     C90301   3.122   1.391   1.294  0.0458 -1.1283  0.6018
  685MOL0     C90302   2.993   1.482   1.286 -0.9899 -0.7109 -0.5117
  685MOL0     C90303   3.014   1.637   1.272 -1.1846  0.4812  1.0660
  685MOL0     C90304   2.892   1.721   1.273  0.4908 -0.6606 -0.1769
  685MOL0     N90305   2.939   1.862   1.264  0.8217  0.9680 -0.2492
  685MOL0     C90306   2.929   1.942   1.153  0.5227 -0.2657  0.6062
  685MOL0     C90307   2.967   2.062   1.197 -0.0964 -0.3560 -0.6014
  685MOL0     C90308   2.981   2.188   1.109 -0.4456 -0.5162  0.2286
  685MOL0     C90309   2.849   2.262   1.076 -0.2886 -0.2791 -0.9895
  685MOL0     C90310   2.758   2.281   1.195 -0.5308  0.2465  0.1628
  685MOL0     C90311   2.662   2.399   1.164  0.3333  0.1451  0.8477
  685MOL0     O90312   2.579   2.354   1.057 -0.5958  0.0215  1.0592
  685MOL0     C90313   2.448   2.380   1.036 -0.7594 -0.5591  0.5793
  685MOL0     C90314   2.359   2.431   1.138  0.3865 -0.0566 -0.2314
  685MOL0     C90315   2.228   2.457   1.104  0.2823  0.0760 -0.0921
  685MOL0     C90316   2.187   2.446   0.970 -0.0705 -0.3941  0.1465
  685MOL0     C90317   2.047   2.468   0.934 -0.8719 -0.8980  0.1902
  685MOL0     O90318   2.017   2.480   0.798  0.0327 -0.8406 -0.1062
  685MOL0     C90319   1.881   2.484   0.762 -0.6711  0.2019 -0.7948
  685MOL0     C90320   1.858   2.408   0.646 -0.8234 -0.0343 -0.5627
  685MOL0     C90321   1.736   2.415   0.588 -0.7168 -0.1786  0.0954
  685MOL0     C90322   1.626   2.480   0.649 -0.0950 -0.4387 -0.1768
  685MOL0     O90323   1.507   2.479   0.584  0.7405 -0.6136  0.3935
  685MOL0     C90324   1.383   2.538   0.624 -0.5951  0.1972 -0.3172
  685MOL0     C90325   1.283   2.433   0.577  0.2616  1.0774 -0.2107
  685MOL0     C90326   1.135   2.470   0.618  0.1826 -0.4183  0.0160
  685MOL0     C90327   1.025   2.370   0.572  0.6980  1.1601 -0.5910
  685MOL0     C90328   0.895   2.446   0.575  0.5944  0.2764  0.4003
  685MOL0     C90329   0.775   2.357   0.558 -0.3167 -1.0579 -0.4357
  685MOL0     C90330   0.652   2.432   0.579  0.5713  0.0279  0.8227
  685MOL0     C90331   0.535   2.375   0.491  0.1437  0.7080  0.3002
  685MOL0    Cl90332   0.520   2.203   0.502 -0.3145 -0.0571 -0.3895
  685MOL0     C90333   1.646   2.559   0.762 -0.3261  0.4358  1.1486
  685MOL0     C90334   1.769   2.552   0.818 -0.2897 -1.1370 -0.7980
  685MOL0     O90335   1.968   2.478   1.025  0.4946 -0.1318  0.0766
  685MOL0     C90336   2.271   2.399   0.878 -0.2128  1.6151  0.7564
  685MOL0     C90337   2.400   2.356   0.911 -0.9239 -0.4420 -0.3014
  685MOL0     N90338   3.009   2.050   1.330 -0.4195 -0.4226  0.5336
  685MOL0     N90339   2.991   1.929   1.371 -0.5617  0.9383  0.6443
  685MOL0     C90340   3.550   0.826   1.265 -1.0035  0.6203 -0.8360
  685MOL0     C90341   3.660   0.739   1.304  0.4399  0.7341  0.1419
  685MOL0     C90342   3.993   0.464   1.315  1.7306  0.0673  0.1172
  685MOL0     C90343   4.039   0.457   1.179 -0.0627 -0.0857  0.2352
  685MOL0     C90344   4.107   0.343   1.128 -1.2399 -0.3343 -1.7120
  685MOL0     C90345   4.145   0.248   1.216 -0.5535 -1.0409  0.4968
  685MOL0     O90346   4.229   0.154   1.162 -0.0156 -0.5623 -0.7946
  685MOL0     C90347   4.246   0.028   1.228  0.0760  0.3575 -0.2759
  685MOL0     C90348   4.255  -0.083   1.130 -1.3429 -0.1365 -0.1219
  685MOL0     C90349   4.398  -0.090   1.063 -0.1370 -0.0762 -0.3182
  685MOL0     C90350   4.444  -0.225   1.021  1.0242  0.3263 -0.5626
  685MOL0     C90351   4.345  -0.282   0.923 -0.1828  0.2266 -0.2123
  685MOL0     C90352   4.275  -0.341   0.849  0.7164  0.2134  1.2791
  685MOL0     C90353   4.099   0.254   1.349  0.0687  0.5023  0.8688
  685MOL0     C90354   4.016   0.353   1.395 -0.6036 -0.2120 -0.3098
  685MOL0     H90355   3.911   0.923   1.165  0.3373  0.7087  0.1793
  685MOL0     H90356   3.717   1.083   1.123 -1.4596 -1.2623 -1.2157
  685MOL0     H90357   3.305   0.986   1.267 -0.8307 -0.5141 -1.0838
  685MOL0     H90358   3.308   0.899   1.111 -4.1067  0.0997  1.2167
  685MOL0     H90359   3.156   1.076   1.100  0.1840 -1.3740 -3.3347
  685MOL0     H90360   3.283   1.121   0.995 -0.2912 -0.0619 -0.1295
  685MOL0     H90361   3.378   1.294   1.117  0.1527  2.5452  2.0722
  685MOL0     H90362   3.310   1.217   1.267 -3.0822  1.7043  1.4344
  685MOL0     H90363   3.162   1.395   1.078  5.1787 -0.6816 -0.0999
  685MOL0     H90364   3.072   1.256   1.145  2.0502 -1.9625  1.3433
  685MOL0     H90365   3.209   1.438   1.341 -0.8859 -0.3375  1.5954
  685MOL0     H90366   3.103   1.309   1.364 -0.8268 -2.7053 -1.4163
  685MOL0     H90367   2.939   1.446   1.374 -2.3468 -0.1793 -1.1051
  685MOL0     H90368   2.935   1.450   1.199  1.3095 -5.2464 -0.6175
  685MOL0     H90369   3.091   1.658   1.347 -0.4382 -2.6667  1.3299
  685MOL0     H90370   3.069   1.653   1.179  0.3588  1.5352  2.1212
  685MOL0     H90371   2.828   1.710   1.361  0.6840  2.1305  0.4200
  685MOL0     H90372   2.831   1.689   1.188  1.4503  0.7769 -1.4671
  685MOL0     H90373   2.900   1.919   1.051 -0.6685  2.2635  0.2875
  685MOL0     H90374   3.018   2.149   1.013 -1.1497 -0.9759  0.1380
  685MOL0     H90375   3.040   2.270   1.150 -1.2669  1.7009 -2.7056
  685MOL0     H90376   2.797   2.200   1.002  2.1144  0.4547 -3.4550
  685MOL0     H90377   2.876   2.360   1.033 -0.7993 -0.0922 -0.8951
  685MOL0     H90378   2.700   2.190   1.210 -0.9001  0.6217  1.1059
  685MOL0     H90379   2.810   2.308   1.287 -2.1953  0.9114  0.9637
  685MOL0     H90380   2.721   2.484   1.128  0.0523 -1.0989 -3.0482
  685MOL0     H90381   2.598   2.429   1.248  1.3542  0.2991  1.5996
  685MOL0     H90382   2.390   2.462   1.238  4.9789  1.9903 -1.9905
  685MOL0     H90383   2.161   2.493   1.181  0.4826 -1.5799  0.9074
  685MOL0     H90384   1.944   2.359   0.600  0.5189  2.1495 -0.5275
  685MOL0     H90385   1.716   2.358   0.498 -0.6118  0.3544 -0.2677
  685MOL0     H90386   1.369   2.636   0.577 -0.4372 -0.5308 -1.9685
  685MOL0     H90387   1.372   2.561   0.730  0.5806 -0.8940  0.0675
  685MOL0     H90388   1.313   2.333   0.610 -0.6859  1.3253  1.5177
  685MOL0     H90389   1.297   2.431   0.469 -0.7809 -0.9810 -0.3518
  685MOL0     H90390   1.121   2.559   0.556  1.2585 -0.2958 -0.0754
  685MOL0     H90391   1.116   2.508   0.718 -2.3728  0.5853 -0.7837
  685MOL0     H90392   1.044   2.333   0.470 -3.8766  1.2430 -1.6735
  685MOL0     H90393   1.030   2.283   0.638  2.0874  0.5983 -1.3742
  685MOL0     H90394   0.898   2.523   0.497  2.0864 -0.7319 -0.5958
  685MOL0     H90395   0.886   2.503   0.668 -1.3270  1.6059 -0.5237
  685MOL0     H90396   0.779   2.279   0.634 -0.0312 -0.7824 -0.1652
  685MOL0     H90397   0.769   2.308   0.460  2.0108  1.5281 -2.0336
  685MOL0     H90398   0.633   2.433   0.687  3.7417  3.2100  1.5280
  685MOL0     H90399   0.666   2.534   0.543  2.7047  0.6832  3.2186
  685MOL0     H90400   0.552   2.404   0.387  1.1373  0.1134  0.2839
  685MOL0     H90401   0.442   2.415   0.533 -0.5361 -0.3867 -0.1255
  685MOL0     H90402   1.556   2.604   0.802  0.1885  3.9809 -1.2599
  685MOL0     H90403   1.795   2.617   0.901  1.0880  0.9937 -2.7645
  685MOL0     H90404   2.234   2.380   0.778  0.1440  2.2307  0.5027
  685MOL0     H90405   2.464   2.314   0.835 -1.0273  3.3201 -2.7262
  685MOL0     H90406   3.451   0.788   1.288 -0.2147 -2.7603 -2.4423
  685MOL0     H90407   3.629   0.649   1.357 -2.0735  0.7377 -1.1588
  685MOL0     H90408   4.032   0.531   1.100  2.5962  2.4688  2.1772
  685MOL0     H90409   4.143   0.339   1.026  0.8500 -0.4021 -1.0186
  685MOL0     H90410   4.149   0.010   1.275 -0.8284  0.5561 -1.9733
  685MOL0     H90411   4.333   0.018   1.293 -0.1646  1.4775  0.2431
  685MOL0     H90412   4.248  -0.172   1.193  0.9542  1.3560  2.4640
  685MOL0     H90413   4.168  -0.077   1.063 -0.7379  1.8877 -0.8055
  685MOL0     H90414   4.471  -0.053   1.136 -0.7645  1.1267 -0.2686
  685MOL0     H90415   4.395  -0.022   0.977 -0.7121 -0.0587 -0.2874
  685MOL0     H90416   4.537  -0.214   0.963  0.8025 -2.0570 -1.5229
  685MOL0     H90417   4.459  -0.302   1.097 -3.1796 -3.2556 -2.8981
  685MOL0     H90418   4.219  -0.397   0.776 -1.0277 -0.0891  2.7700
  685MOL0     H90419   4.132   0.176   1.417 -1.9720 -2.3478 -1.2050
  685MOL0     H90420   3.981   0.354   1.497 -0.3423  0.1508 -0.2232
  686MOL0     O90421   4.057   6.829   4.799 -0.4592 -0.2538 -0.0022
  686MOL0     C90422   4.137   6.829   4.894  0.2992 -0.4967 -0.8565
  686MOL0     O90423   4.143   6.915   5.004  0.7515 -0.3317 -0.0280
  686MOL0     C90424   4.034   7.000   5.024 -0.6377  0.3222  0.3984
  686MOL0     C90425   3.999   7.025   5.154  0.2570 -0.9430 -0.8374
  686MOL0     C90426   3.895   7.114   5.182  0.1859 -0.9977 -0.5440
  686MOL0     C90427   3.816   7.179   5.090  0.5464 -0.0773 -0.4918
  686MOL0     O90428   3.714   7.254   5.123 -0.1916 -1.0363 -0.5168
  686MOL0     C90429   3.736   7.396   5.132  0.3700  1.0904 -0.4053
  686MOL0     C90430   3.622   7.458   5.221  0.1506 -0.5988  0.0915
  686MOL0     C90431   3.608   7.607   5.214 -0.8827 -0.1356 -0.8737
  686MOL0     C90432   3.519   7.669   5.331 -0.6037 -0.5040  0.0479
  686MOL0     C90433   3.525   7.818   5.324  0.8759  0.2402  0.2604
  686MOL0     C90434   3.476   7.877   5.187  0.0902 -0.0279  0.3636
  686MOL0     C90435   3.330   7.844   5.153 -0.4411 -0.5978 -0.1410
  686MOL0     C90436   3.233   7.890   5.259 -0.1389  0.0403 -0.2611
  686MOL0     N90437   3.094   7.891   5.202 -0.3089 -0.5014 -0.2848
  686MOL0     C90438   2.981   7.928   5.268 -0.0986 -0.5587 -0.5000
  686MOL0     C90439   2.883   7.921   5.163  0.2787 -1.2516 -0.4386
  686MOL0     C90440   2.736   7.942   5.173 -1.0158 -0.9498 -0.3369
  686MOL0     C90441   2.668   7.812   5.229 -1.2964 -0.4694  0.6593
  686MOL0     C90442   2.635   7.717   5.117  0.4416  0.8949 -0.8292
  686MOL0     C90443   2.604   7.573   5.160  0.5334  1.4176 -0.5774
  686MOL0     O90444   2.504   7.564   5.268 -0.2626  0.2819 -0.4515
  686MOL0     C90445   2.377   7.552   5.240 -1.2150  0.7986  0.0128
  686MOL0     C90446   2.293   7.669   5.263 -0.1688 -0.0358 -0.3817
  686MOL0     C90447   2.153   7.667   5.240 -0.9298  0.2811  0.9255
  686MOL0     C90448   2.097   7.546   5.196 -0.3033 -0.2614 -0.7978
  686MOL0     C90449   1.953   7.528   5.203 -0.8799  0.0804 -0.3084
  686MOL0     O90450   1.913   7.403   5.166 -0.1221  0.6114  0.0900
  686MOL0     C90451   1.786   7.359   5.188  0.3108  0.1623 -0.3381
  686MOL0     C90452   1.775   7.221   5.174  0.5076 -0.5507  0.1980
  686MOL0     C90453   1.653   7.152   5.180 -0.8103  0.8672 -0.2087
  686MOL0     C90454   1.533   7.219   5.201 -0.3104 -0.2784 -0.2409
  686MOL0     O90455   1.416   7.151   5.204  0.2779  0.6300 -0.2499
  686MOL0     C90456   1.362   7.136   5.073 -0.0490  0.3038 -0.1724
  686MOL0     C90457   1.377   6.984   5.033 -0.4420 -0.3995 -0.3085
  686MOL0     C90458   1.308   6.937   4.905  0.6630 -0.0496  0.6250
  686MOL0     C90459   1.349   7.014   4.784 -0.4427  0.2489 -0.6357
  686MOL0     C90460   1.337   6.935   4.648 -0.1289 -0.3310 -0.2270
  686MOL0     C90461   1.192   6.924   4.611  0.3333 -0.1992  0.2932
  686MOL0     C90462   1.188   6.832   4.493 -0.0897 -0.5494  0.4680
  686MOL0     C90463   1.055   6.844   4.421  0.6608 -0.4450  0.1529
  686MOL0    Cl90464   1.029   6.740   4.292  0.0011 -0.4570 -0.1691
  686MOL0     C90465   1.538   7.351   5.222  0.9482 -0.6042 -0.2069
  686MOL0     C90466   1.664   7.423   5.225  0.4543  0.1884 -0.5920
  686MOL0     O90467   1.873   7.620   5.232 -0.2734 -0.1560  0.7933
  686MOL0     C90468   2.183   7.438   5.173  0.6898 -0.1436 -0.4528
  686MOL0     C90469   2.318   7.436   5.203  0.2609 -0.4996  0.2274
  686MOL0     N90470   2.942   7.888   5.041  0.3754  0.0991 -0.0629
  686MOL0     N90471   3.066   7.863   5.072  0.0980 -0.6555  0.2070
  686MOL0     C90472   3.854   7.152   4.952 -0.7923 -0.2483 -0.0713
  686MOL0     C90473   3.972   7.073   4.920  0.4798 -0.3518  0.2126
  686MOL0     C90474   4.230   6.715   4.897 -0.6246  1.1027  1.4314
  686MOL0     C90475   4.334   6.703   4.996  0.4531 -0.1730  0.7012
  686MOL0     C90476   4.422   6.593   4.992  1.2217  0.9103  0.4853
  686MOL0     C90477   4.399   6.484   4.900 -0.1263  0.2627  0.9296
  686MOL0     O90478   4.479   6.375   4.919  0.1196  0.7024  0.9476
  686MOL0     C90479   4.521   6.312   4.797 -0.0727  1.0649 -0.4644
  686MOL0     C90480   4.663   6.252   4.823  0.0588  1.0609  0.3218
  686MOL0     C90481   4.769   6.341   4.741  0.5957 -0.1242 -0.5028
  686MOL0     C90482   4.906   6.278   4.720 -0.3166 -1.2075  0.0856
  686MOL0     C90483   4.969   6.286   4.853 -0.4573  0.1855  0.2349
  686MOL0     C90484   5.027   6.273   4.956 -1.0456  0.3025 -0.4862
  686MOL0     C90485   4.291   6.495   4.812  0.3106 -0.5584  1.2863
  686MOL0     C90486   4.213   6.613   4.803  0.5466  0.2709  0.5559
  686MOL0     H90487   4.046   6.965   5.231 -0.2415 -1.7854 -1.1776
  686MOL0     H90488   3.855   7.127   5.282 -0.6632  1.3678 -1.1327
  686MOL0     H90489   3.746   7.430   5.029 -1.0073 -1.6955 -1.5776
  686MOL0     H90490   3.833   7.425   5.174  0.8940 -1.1576  0.1055
  686MOL0     H90491   3.639   7.424   5.323 -0.2708 -0.9818  0.0338
  686MOL0     H90492   3.530   7.409   5.186  0.5196  0.2061 -2.1790
  686MOL0     H90493   3.582   7.638   5.112  1.4932 -0.2686 -1.5760
  686MOL0     H90494   3.707   7.649   5.232 -1.2848 -0.5750  3.5309
  686MOL0     H90495   3.419   7.629   5.313 -0.5442 -0.3656 -0.5830
  686MOL0     H90496   3.552   7.639   5.431 -1.1292 -2.1676 -0.2568
  686MOL0     H90497   3.628   7.846   5.347  1.3776  0.0632 -1.5867
  686MOL0     H90498   3.452   7.862   5.393 -1.1926 -1.7794 -0.5224
  686MOL0     H90499   3.550   7.860   5.108  0.8839  0.3300  1.0107
  686MOL0     H90500   3.472   7.985   5.204 -0.6519  0.8375 -4.1600
  686MOL0     H90501   3.311   7.909   5.067 -0.2034  2.5632  2.0221
  686MOL0     H90502   3.309   7.738   5.132 -0.7354 -0.6052  0.1720
  686MOL0     H90503   3.264   7.990   5.290 -1.4092 -0.1811  1.8875
  686MOL0     H90504   3.239   7.819   5.342 -1.3218  0.6278  0.3397
  686MOL0     H90505   2.961   7.959   5.369 -0.6916  0.8580 -1.0269
  686MOL0     H90506   2.692   7.975   5.078 -1.9153 -1.0304  0.0386
  686MOL0     H90507   2.717   8.024   5.243  1.3289 -1.2730  0.7723
  686MOL0     H90508   2.573   7.851   5.265 -0.0656  3.6062  0.0599
  686MOL0     H90509   2.729   7.763   5.305 -1.9923  0.0705  1.5857
  686MOL0     H90510   2.544   7.754   5.070 -1.2924 -1.1612  0.6849
  686MOL0     H90511   2.720   7.717   5.048  0.7040  1.2651 -0.5062
  686MOL0     H90512   2.697   7.525   5.191  1.5198  2.0724 -2.3829
  686MOL0     H90513   2.567   7.518   5.073  4.0160 -2.6085  0.2039
  686MOL0     H90514   2.330   7.765   5.296 -4.0114  1.3230  0.5569
  686MOL0     H90515   2.108   7.764   5.255  2.5777  1.7166  3.9307
  686MOL0     H90516   1.857   7.162   5.133 -0.1409 -1.3584  0.0306
  686MOL0     H90517   1.659   7.049   5.147 -0.6661  0.4060  1.1745
  686MOL0     H90518   1.418   7.205   5.010  0.8735  0.8030  1.1571
  686MOL0     H90519   1.262   7.178   5.060  0.4386  1.4396 -0.3300
  686MOL0     H90520   1.322   6.940   5.116  2.2059 -3.2826  0.0968
  686MOL0     H90521   1.482   6.956   5.040 -0.3781 -0.7917 -2.1294
  686MOL0     H90522   1.202   6.946   4.930 -0.0052  0.6279 -2.1145
  686MOL0     H90523   1.319   6.830   4.885  0.2910  0.1044 -0.4589
  686MOL0     H90524   1.291   7.107   4.783 -1.0661 -0.0090  2.5496
  686MOL0     H90525   1.456   7.037   4.785 -0.4479  0.3789 -1.6938
  686MOL0     H90526   1.382   6.838   4.671 -0.3643  0.1717  2.6923
  686MOL0     H90527   1.388   6.991   4.569 -0.6138 -1.3729 -1.3279
  686MOL0     H90528   1.138   7.017   4.588 -0.6809 -1.0169 -0.7402
  686MOL0     H90529   1.133   6.879   4.691  0.2611  1.8493  1.4504
  686MOL0     H90530   1.264   6.844   4.415  1.5597 -2.6048  1.6619
  686MOL0     H90531   1.195   6.728   4.527 -1.5361  0.0115  2.7115
  686MOL0     H90532   1.033   6.947   4.391 -0.5775 -0.4849  0.8425
  686MOL0     H90533   0.976   6.822   4.494 -2.3242  1.7396 -2.1641
  686MOL0     H90534   1.443   7.402   5.228  0.9866 -0.3830 -1.2448
  686MOL0     H90535   1.666   7.526   5.260 -2.5225 -0.2100  1.0609
  686MOL0     H90536   2.149   7.344   5.130  1.4555  0.3676 -2.2761
  686MOL0     H90537   2.373   7.344   5.186  0.9590 -0.3134  1.3916
  686MOL0     H90538   3.794   7.194   4.872 -0.4179 -0.0199 -0.2371
  686MOL0     H90539   3.992   7.067   4.814 -1.7604  4.0504 -0.7021
  686MOL0     H90540   4.355   6.784   5.065  2.5200  1.0090 -1.1581
  686MOL0     H90541   4.486   6.578   5.078 -0.5643 -3.5778  1.3323
  686MOL0     H90542   4.513   6.371   4.705  0.0939  1.3382 -0.3063
  686MOL0     H90543   4.458   6.223   4.790 -0.7202  1.3374  1.4433
  686MOL0     H90544   4.686   6.230   4.928  1.8287 -3.5059 -0.8003
  686MOL0     H90545   4.659   6.153   4.777  0.2110  2.0599 -1.9764
  686MOL0     H90546   4.763   6.441   4.785  1.4735  0.5670 -1.9042
  686MOL0     H90547   4.736   6.350   4.637  2.1513  0.6483 -0.9632
  686MOL0     H90548   4.887   6.175   4.687 -1.7478  0.0009 -3.2701
  686MOL0     H90549   4.963   6.337   4.648  0.7770 -2.2923  0.0375
  686MOL0     H90550   5.089   6.243   5.038  1.4738  3.3675 -1.0661
  686MOL0     H90551   4.246   6.414   4.756  0.4631 -0.2303  0.6783
  686MOL0     H90552   4.144   6.602   4.720  3.5939 -1.4787 -1.9671
  687MOL0     O90553  10.118   6.870   8.324 -0.0447  0.2596 -0.1448
  687MOL0     C90554  10.236   6.921   8.325  0.6881 -0.6139  0.0987
  687MOL0     O90555  10.300   6.968   8.214 -0.2421  0.5522 -0.4891
  687MOL0     C90556  10.247   6.947   8.093  0.7141 -0.2477  0.0129
  687MOL0     C90557  10.250   6.822   8.034 -0.4364  0.7120  0.7725
  687MOL0     C90558  10.193   6.790   7.907  0.2297 -0.3492  0.4631
  687MOL0     C90559  10.129   6.898   7.841  0.1887 -0.6490 -0.1962
  687MOL0     O90560  10.078   6.887   7.705 -0.1105 -0.9731 -0.4483
  687MOL0     C90561  10.034   6.753   7.666 -0.7203 -0.1275  0.3845
  687MOL0     C90562   9.990   6.749   7.528 -0.0046  0.1686  0.9198
  687MOL0     C90563  10.069   6.831   7.421 -0.1809  0.1692 -0.7740
  687MOL0     C90564  10.209   6.777   7.398  0.0834  0.3829 -0.0737
  687MOL0     C90565  10.295   6.856   7.297  0.4848  0.9018  0.5522
  687MOL0     C90566  10.308   7.001   7.336  0.1373 -0.5699 -0.8640
  687MOL0     C90567  10.390   7.074   7.242 -0.1410 -0.1268 -0.1857
  687MOL0     C90568  10.459   7.212   7.278  0.7793  0.8994  0.0632
  687MOL0     N90569  10.580   7.212   7.189  0.0799 -0.6145  0.5834
  687MOL0     C90570  10.711   7.196   7.235  0.5094 -0.4262 -0.7180
  687MOL0     C90571  10.794   7.173   7.138  0.3935 -0.2615 -0.0012
  687MOL0     C90572  10.940   7.156   7.157 -0.1284 -0.5539  0.6997
  687MOL0     C90573  11.026   7.288   7.166  0.3887 -0.3640 -0.5972
  687MOL0     C90574  10.970   7.399   7.264 -0.8199 -0.4857  0.1003
  687MOL0     C90575  11.083   7.507   7.272 -0.0756  0.3067 -0.8494
  687MOL0     O90576  11.048   7.622   7.350 -1.2954  0.4572  0.4242
  687MOL0     C90577  11.032   7.732   7.264 -0.5413  0.2600  0.0739
  687MOL0     C90578  11.075   7.858   7.327  0.6959 -0.7970  0.0271
  687MOL0     C90579  11.046   7.978   7.261 -0.2148 -0.1253  0.1675
  687MOL0     C90580  10.977   7.983   7.138 -0.1699 -0.0886  0.1637
  687MOL0     C90581  10.934   8.116   7.086  0.3940  0.1186 -1.0309
  687MOL0     O90582  10.917   8.125   6.951  0.4086  0.4347  0.0967
  687MOL0     C90583  10.843   8.230   6.905 -0.3454 -0.2170  0.4081
  687MOL0     C90584  10.755   8.327   6.968 -1.3377  0.6161 -0.4844
  687MOL0     C90585  10.695   8.429   6.889  0.1443  0.4522 -0.1143
  687MOL0     C90586  10.710   8.437   6.754 -0.7664  0.4788  0.2260
  687MOL0     O90587  10.643   8.532   6.689 -0.3792 -0.2623  0.1596
  687MOL0     C90588  10.666   8.583   6.557 -1.1393 -0.5467  0.4131
  687MOL0     C90589  10.570   8.696   6.527 -0.9607 -0.6663  0.6584
  687MOL0     C90590  10.432   8.643   6.494  0.2886  0.8530  0.1695
  687MOL0     C90591  10.338   8.750   6.449 -0.0461  0.7719  0.0916
  687MOL0     C90592  10.291   8.840   6.564  0.0815  0.2761 -0.2832
  687MOL0     C90593  10.234   8.757   6.684 -0.1862  0.6870  0.5804
  687MOL0     C90594  10.177   8.838   6.797  0.2103  0.0060 -0.0525
  687MOL0     C90595  10.100   8.752   6.891 -0.1835  0.3419 -0.3725
  687MOL0    Cl90596   9.949   8.679   6.810 -0.3193  0.5759 -0.1662
  687MOL0     C90597  10.805   8.359   6.689 -0.2337  0.0030  0.6687
  687MOL0     C90598  10.859   8.255   6.767 -0.2673  0.5531  0.5874
  687MOL0     O90599  10.922   8.215   7.165 -0.3408  0.8909  0.3271
  687MOL0     C90600  10.943   7.864   7.077  0.3315  0.5120  0.5311
  687MOL0     C90601  10.964   7.738   7.137  0.2929 -0.0353  0.4312
  687MOL0     N90602  10.710   7.191   7.024  0.2595  0.3558  0.2045
  687MOL0     N90603  10.578   7.195   7.058 -0.3014 -0.2220  0.5502
  687MOL0     C90604  10.123   7.026   7.908  0.5530 -0.0640 -0.5361
  687MOL0     C90605  10.181   7.047   8.035  0.5169  0.9564  0.0190
  687MOL0     C90606  10.306   6.941   8.443  0.3606 -0.4738  0.5792
  687MOL0     C90607  10.447   6.926   8.444  0.5134  0.6873  0.4273
  687MOL0     C90608  10.526   6.944   8.553  0.2456 -0.5717 -0.9298
  687MOL0     C90609  10.466   6.955   8.679 -0.7923  0.2614  0.0416
  687MOL0     O90610  10.540   6.969   8.792  0.1056  0.4217 -0.3129
  687MOL0     C90611  10.678   6.915   8.783 -0.9019 -0.7100  0.0482
  687MOL0     C90612  10.740   6.912   8.924  0.1568  0.5921  0.5424
  687MOL0     C90613  10.873   6.838   8.917  0.0286 -0.4430 -0.2294
  687MOL0     C90614  10.942   6.834   9.054 -0.8143  0.2241 -0.2245
  687MOL0     C90615  11.080   6.788   9.026  0.6682 -0.0594  0.0293
  687MOL0     C90616  11.189   6.747   8.997 -0.1204 -0.8540 -0.1214
  687MOL0     C90617  10.323   6.965   8.686 -0.0469 -0.5198 -0.4990
  687MOL0     C90618  10.249   6.973   8.566 -0.0367  0.1301 -0.7665
  687MOL0     H90619  10.301   6.748   8.095 -1.5535  2.0443  3.4931
  687MOL0     H90620  10.204   6.692   7.861 -1.0788 -1.2014  1.8696
  687MOL0     H90621   9.951   6.719   7.729 -0.2115 -2.4870 -0.1313
  687MOL0     H90622  10.119   6.685   7.674 -0.6714  0.0543  1.4879
  687MOL0     H90623   9.886   6.781   7.514  0.0292 -0.5770 -1.5643
  687MOL0     H90624   9.990   6.643   7.499 -1.5751  0.8295 -1.7696
  687MOL0     H90625  10.075   6.936   7.449  2.1589  0.7071 -2.9320
  687MOL0     H90626  10.016   6.824   7.325 -0.9642 -2.9808 -0.2151
  687MOL0     H90627  10.265   6.798   7.490  0.5848  2.0962 -0.7471
  687MOL0     H90628  10.200   6.668   7.389 -3.2843  0.3416  1.9215
  687MOL0     H90629  10.248   6.845   7.199 -0.7260  0.2892  1.1768
  687MOL0     H90630  10.392   6.805   7.306  0.1811  0.3003  0.4298
  687MOL0     H90631  10.362   7.014   7.430  1.5832  2.6394 -1.9858
  687MOL0     H90632  10.209   7.047   7.336  0.0760 -0.6906 -1.5297
  687MOL0     H90633  10.473   7.007   7.217 -1.8210 -1.4426 -2.6630
  687MOL0     H90634  10.317   7.088   7.162 -0.7559  0.2464  0.4286
  687MOL0     H90635  10.490   7.204   7.383 -1.3686  0.7350  0.7240
  687MOL0     H90636  10.380   7.285   7.260 -1.1212 -1.6419 -2.8864
  687MOL0     H90637  10.746   7.188   7.338 -0.8208 -5.0404 -0.4064
  687MOL0     H90638  10.981   7.095   7.076  1.8544 -0.2718  1.4417
  687MOL0     H90639  10.951   7.094   7.246 -0.1021 -2.1099 -0.3437
  687MOL0     H90640  11.025   7.315   7.060 -1.0388 -2.1160 -1.0774
  687MOL0     H90641  11.126   7.261   7.202 -0.0375  0.6932  1.5870
  687MOL0     H90642  10.882   7.447   7.220 -1.6212 -1.9119  0.1048
  687MOL0     H90643  10.948   7.358   7.362 -0.7472  0.2532  0.4355
  687MOL0     H90644  11.110   7.529   7.168  5.0631  2.7497  0.6735
  687MOL0     H90645  11.177   7.479   7.320 -0.5113  0.9697  0.4404
  687MOL0     H90646  11.111   7.874   7.428  0.9756  0.6059 -0.2724
  687MOL0     H90647  11.078   8.077   7.292 -0.7946  0.3202 -0.6108
  687MOL0     H90648  10.732   8.312   7.072 -0.3416  1.7442 -0.0728
  687MOL0     H90649  10.615   8.495   6.921 -0.8197 -0.7588  0.0490
  687MOL0     H90650  10.666   8.508   6.477 -1.2394  0.5791 -0.6714
  687MOL0     H90651  10.762   8.635   6.559 -1.0968 -0.6091  0.0985
  687MOL0     H90652  10.605   8.753   6.440  0.7641 -2.1953  0.2834
  687MOL0     H90653  10.559   8.768   6.608 -1.3526  1.3321 -1.0816
  687MOL0     H90654  10.392   8.588   6.580  1.4817 -0.7960 -0.2970
  687MOL0     H90655  10.440   8.573   6.411 -1.5104  1.4968 -0.5916
  687MOL0     H90656  10.394   8.804   6.372 -1.3750  0.0455 -1.4679
  687MOL0     H90657  10.255   8.707   6.391 -0.5385  2.5858 -0.6048
  687MOL0     H90658  10.219   8.905   6.515 -1.4059 -2.5997 -2.2518
  687MOL0     H90659  10.376   8.901   6.595  0.7074 -0.7622  0.1028
  687MOL0     H90660  10.313   8.696   6.728 -0.5089 -0.3805 -0.2573
  687MOL0     H90661  10.165   8.681   6.644  1.6110 -0.9217  0.4055
  687MOL0     H90662  10.258   8.881   6.856  1.2634  2.4445 -3.0221
  687MOL0     H90663  10.106   8.912   6.759  1.6726  1.1467 -0.6880
  687MOL0     H90664  10.060   8.811   6.975 -0.7453 -0.4708 -0.0510
  687MOL0     H90665  10.168   8.674   6.927  1.6415  1.0143 -2.1907
  687MOL0     H90666  10.805   8.353   6.580 -1.1412 -1.4969  0.7211
  687MOL0     H90667  10.926   8.192   6.711 -0.3387  0.2086  0.8879
  687MOL0     H90668  10.892   7.867   6.981 -0.6547  2.7148  1.0496
  687MOL0     H90669  10.932   7.658   7.071 -0.1199  0.8515 -0.4706
  687MOL0     H90670  10.081   7.114   7.861  3.3393  0.9150 -1.4260
  687MOL0     H90671  10.169   7.142   8.085 -2.7650  0.3454  0.6124
  687MOL0     H90672  10.497   6.913   8.348 -3.0138  1.9486 -1.7788
  687MOL0     H90673  10.631   6.941   8.524  0.1680  2.5275 -1.9807
  687MOL0     H90674  10.741   6.971   8.714 -0.5374  1.2080  1.8251
  687MOL0     H90675  10.652   6.816   8.744 -2.5614 -0.9251  1.5625
  687MOL0     H90676  10.735   7.013   8.965 -2.8195  1.1809 -1.0155
  687MOL0     H90677  10.670   6.855   8.986 -1.4912  0.1814 -1.5875
  687MOL0     H90678  10.938   6.873   8.836  1.0328 -0.0095  0.7419
  687MOL0     H90679  10.866   6.731   8.892  1.4756 -0.4960 -0.5252
  687MOL0     H90680  10.949   6.937   9.089  1.8595  0.1047 -0.2063
  687MOL0     H90681  10.877   6.771   9.115 -2.2853  1.5802 -0.3311
  687MOL0     H90682  11.279   6.693   8.975  0.0587  1.1113 -5.7137
  687MOL0     H90683  10.273   6.971   8.782  4.0470  2.5334  1.7334
  687MOL0     H90684  10.141   6.973   8.578 -0.0239  0.7190 -0.5922
  688MOL0     O90685   4.512   1.439   4.131 -0.1477 -0.0618  0.2922
  688MOL0     C90686   4.446   1.542   4.153 -0.2768  0.2971  0.2968
  688MOL0     O90687   4.456   1.660   4.084 -0.1771 -0.1939  0.5424
  688MOL0     C90688   4.544   1.655   3.984 -0.4159  0.2737 -0.0865
  688MOL0     C90689   4.496   1.653   3.854 -0.6192 -0.3960 -0.1284
  688MOL0     C90690   4.591   1.654   3.744  0.0815 -0.9037 -0.2641
  688MOL0     C90691   4.731   1.664   3.765  0.2939 -0.7751  0.3954
  688MOL0     O90692   4.823   1.677   3.663  0.0831  0.3381 -0.0980
  688MOL0     C90693   4.812   1.582   3.552 -0.3883  0.0429 -0.3365
  688MOL0     C90694   4.780   1.659   3.425  0.1514  0.8546 -0.9159
  688MOL0     C90695   4.860   1.784   3.405  0.1789  1.1144  0.5327
  688MOL0     C90696   5.012   1.759   3.388 -0.9329  0.7718 -0.6895
  688MOL0     C90697   5.087   1.897   3.393 -1.0264  0.8001 -0.3207
  688MOL0     C90698   5.066   1.975   3.258  0.2327  0.4364 -0.6451
  688MOL0     C90699   5.126   2.113   3.229 -0.2299  0.4490  1.1471
  688MOL0     C90700   5.241   2.101   3.138 -0.0772 -0.2824 -0.7612
  688MOL0     N90701   5.207   2.081   3.002  0.2074 -0.1159 -0.1687
  688MOL0     C90702   5.124   2.160   2.926 -0.7821 -0.2065  0.4168
  688MOL0     C90703   5.136   2.113   2.798  1.1665 -0.5288 -0.2605
  688MOL0     C90704   5.077   2.179   2.681  0.0317  0.3224 -0.0263
  688MOL0     C90705   5.190   2.257   2.612  0.1119 -0.2133 -0.1143
  688MOL0     C90706   5.164   2.299   2.465  0.0793 -0.1986  0.0798
  688MOL0     C90707   5.039   2.382   2.444 -0.3847  0.0344  0.3492
  688MOL0     O90708   4.926   2.291   2.452  1.1479 -0.3941 -0.8933
  688MOL0     C90709   4.803   2.347   2.464 -0.4355  0.5370  0.5109
  688MOL0     C90710   4.700   2.284   2.533  0.7735  0.5042 -0.0921
  688MOL0     C90711   4.574   2.327   2.525  0.9725  1.1328  0.6296
  688MOL0     C90712   4.542   2.444   2.451  0.2676  0.3173 -0.1198
  688MOL0     C90713   4.403   2.497   2.438 -0.0039 -0.0559 -0.0655
  688MOL0     O90714   4.309   2.429   2.509  0.8112  0.2301  0.3595
  688MOL0     C90715   4.187   2.502   2.534 -0.1618  1.0354 -0.2943
  688MOL0     C90716   4.069   2.454   2.488  0.8773  0.1938 -0.1635
  688MOL0     C90717   3.950   2.523   2.492 -0.0975  0.4021 -1.0998
  688MOL0     C90718   3.948   2.648   2.570  0.2447  0.5389 -0.4809
  688MOL0     O90719   3.829   2.721   2.599 -0.1892 -0.0045 -0.0635
  688MOL0     C90720   3.714   2.652   2.565  1.0093 -0.6569 -0.4993
  688MOL0     C90721   3.594   2.746   2.599 -1.0761  0.2637 -0.5169
  688MOL0     C90722   3.546   2.739   2.749 -0.4085  0.9151  1.4523
  688MOL0     C90723   3.450   2.851   2.781 -0.6879 -0.0711 -0.5511
  688MOL0     C90724   3.460   2.898   2.929  0.2719  0.1823 -0.5950
  688MOL0     C90725   3.341   2.990   2.962  0.3192  0.2367  0.0195
  688MOL0     C90726   3.349   3.053   3.108 -0.3432  0.3619  0.9803
  688MOL0     C90727   3.231   3.142   3.140 -0.2749 -0.1774  0.4348
  688MOL0    Cl90728   3.079   3.066   3.086 -0.0819 -0.1214 -0.0581
  688MOL0     C90729   4.066   2.691   2.639  0.2836 -0.5960 -0.5049
  688MOL0     C90730   4.181   2.615   2.616 -0.3179 -0.5941  0.8028
  688MOL0     O90731   4.377   2.604   2.377  0.3166  0.1252 -0.4771
  688MOL0     C90732   4.654   2.514   2.401 -1.0668  0.8715 -0.7748
  688MOL0     C90733   4.786   2.468   2.410 -0.5647  0.4129 -0.3808
  688MOL0     N90734   5.217   2.001   2.799  0.4283  0.0336  0.6256
  688MOL0     N90735   5.259   1.989   2.919  0.0933  0.6109  0.0807
  688MOL0     C90736   4.778   1.661   3.895 -0.3442 -0.2646  0.2324
  688MOL0     C90737   4.689   1.659   4.001  0.1607 -0.2851  0.0989
  688MOL0     C90738   4.368   1.528   4.275 -0.5033 -1.5828 -0.9669
  688MOL0     C90739   4.299   1.647   4.317 -0.6218 -0.5381 -0.3632
  688MOL0     C90740   4.200   1.639   4.412 -0.6484 -0.0333  0.3990
  688MOL0     C90741   4.163   1.515   4.463 -0.6743  0.9805  0.1058
  688MOL0     O90742   4.095   1.491   4.579  0.1138 -0.0278  0.1829
  688MOL0     C90743   4.017   1.583   4.652 -0.0691  0.8800 -0.8027
  688MOL0     C90744   3.876   1.536   4.641 -0.2154 -0.1382 -1.2031
  688MOL0     C90745   3.772   1.646   4.685 -0.6816  0.4123  0.4637
  688MOL0     C90746   3.770   1.660   4.833 -0.8801 -0.4562 -0.3055
  688MOL0     C90747   3.629   1.674   4.885 -0.8134  0.0737 -0.0175
  688MOL0     C90748   3.514   1.694   4.914 -0.2926 -0.1417  0.0860
  688MOL0     C90749   4.234   1.398   4.424 -0.4062  0.1852  1.0235
  688MOL0     C90750   4.335   1.403   4.322 -1.1778  0.2806  0.3851
  688MOL0     H90751   4.389   1.656   3.834 -0.2778 -2.0226 -2.5550
  688MOL0     H90752   4.548   1.654   3.644  1.4625  1.0452 -0.8973
  688MOL0     H90753   4.746   1.496   3.565 -0.7776 -0.2657 -3.5738
  688MOL0     H90754   4.915   1.546   3.544  0.8944  3.5571 -1.1531
  688MOL0     H90755   4.672   1.679   3.419 -0.0237  0.4415  0.5143
  688MOL0     H90756   4.807   1.589   3.345  1.1967  1.2976 -0.9544
  688MOL0     H90757   4.844   1.861   3.481 -1.7417  2.0778 -0.7846
  688MOL0     H90758   4.831   1.821   3.307  1.3750 -0.6100 -0.5197
  688MOL0     H90759   5.051   1.695   3.468 -0.0647  2.9649  0.7373
  688MOL0     H90760   5.028   1.705   3.295 -0.3905 -0.1531 -0.0733
  688MOL0     H90761   5.194   1.886   3.410 -0.9607 -1.4645 -1.8673
  688MOL0     H90762   5.046   1.961   3.472 -0.1275  2.7207 -1.3168
  688MOL0     H90763   4.957   1.981   3.257  0.0542 -1.4691 -3.4115
  688MOL0     H90764   5.092   1.910   3.174 -1.0363 -0.1939 -0.5757
  688MOL0     H90765   5.054   2.183   3.187  1.5895  1.2213 -0.8465
  688MOL0     H90766   5.169   2.144   3.325  1.7389 -0.0961  0.4806
  688MOL0     H90767   5.309   2.020   3.166  0.7498  0.2288 -1.2737
  688MOL0     H90768   5.304   2.190   3.141 -0.9586  0.3406 -0.2621
  688MOL0     H90769   5.058   2.237   2.964 -1.8495 -0.3917 -0.9792
  688MOL0     H90770   4.996   2.249   2.703  1.7721  2.1767  0.8579
  688MOL0     H90771   5.045   2.099   2.613 -3.1066  0.7203  0.8361
  688MOL0     H90772   5.278   2.191   2.612 -0.9241 -1.6706 -0.7975
  688MOL0     H90773   5.213   2.343   2.675  1.5382 -0.9310  0.4012
  688MOL0     H90774   5.232   2.374   2.423  0.9520  0.1528  1.9729
  688MOL0     H90775   5.159   2.210   2.402  2.0504 -2.0316  2.3093
  688MOL0     H90776   5.040   2.419   2.341 -2.6460  2.2826  1.0477
  688MOL0     H90777   5.028   2.453   2.526  0.2433 -0.3461  0.7774
  688MOL0     H90778   4.716   2.190   2.585 -1.2797 -0.1114 -0.4917
  688MOL0     H90779   4.499   2.261   2.567  0.1300 -0.2883 -2.7452
  688MOL0     H90780   4.089   2.362   2.434  3.5695  1.0325 -0.7840
  688MOL0     H90781   3.866   2.465   2.455 -1.7462 -0.5712  3.4678
  688MOL0     H90782   3.713   2.557   2.620 -0.9424 -1.0072 -1.0282
  688MOL0     H90783   3.716   2.613   2.463 -0.5093 -0.1743 -0.7486
  688MOL0     H90784   3.503   2.729   2.541 -2.2792  1.2239  1.0472
  688MOL0     H90785   3.618   2.848   2.570  0.5598 -0.0748 -0.4532
  688MOL0     H90786   3.633   2.723   2.813  0.3154 -1.1108  0.1050
  688MOL0     H90787   3.485   2.648   2.751  0.5818  0.1677 -0.0189
  688MOL0     H90788   3.469   2.940   2.720  1.7506  0.3359  0.6657
  688MOL0     H90789   3.352   2.816   2.749 -1.0587  2.1634 -2.1025
  688MOL0     H90790   3.550   2.954   2.952 -0.0728  0.1308  0.9627
  688MOL0     H90791   3.448   2.819   3.004 -1.3412  0.6255 -0.3423
  688MOL0     H90792   3.256   2.921   2.961 -0.1783  0.7354  2.4969
  688MOL0     H90793   3.343   3.062   2.880  2.2181 -1.5993 -1.6610
  688MOL0     H90794   3.334   2.978   3.186 -1.8169  0.6610  1.0241
  688MOL0     H90795   3.450   3.093   3.123 -0.0401 -0.7975  2.1848
  688MOL0     H90796   3.247   3.238   3.090 -0.3395 -1.4416 -2.1581
  688MOL0     H90797   3.232   3.166   3.247  1.4655 -2.3589  0.9846
  688MOL0     H90798   4.068   2.779   2.704 -0.7639  1.4364 -3.0573
  688MOL0     H90799   4.280   2.651   2.642  0.1248 -0.5216 -0.8613
  688MOL0     H90800   4.643   2.610   2.353 -3.4747  0.9626 -0.1823
  688MOL0     H90801   4.863   2.533   2.369  0.1574  0.4693  1.0091
  688MOL0     H90802   4.883   1.658   3.923 -0.4704 -3.3450  0.7681
  688MOL0     H90803   4.726   1.656   4.103 -1.6448  0.3372  0.8068
  688MOL0     H90804   4.340   1.746   4.295  3.9867 -1.8657  1.2040
  688MOL0     H90805   4.167   1.735   4.449 -1.2927 -1.2614  3.2442
  688MOL0     H90806   4.034   1.680   4.605  2.6397  0.4870 -0.7704
  688MOL0     H90807   4.041   1.587   4.759 -3.1297 -2.9600  0.2864
  688MOL0     H90808   3.860   1.515   4.535 -3.4916 -1.4286 -0.5955
  688MOL0     H90809   3.867   1.444   4.700  2.3073  1.1845  1.4401
  688MOL0     H90810   3.672   1.614   4.654 -0.8975  0.2124  1.3277
  688MOL0     H90811   3.787   1.745   4.641  2.6815  1.3195  3.1751
  688MOL0     H90812   3.832   1.587   4.887  1.3837  0.9822 -0.8170
  688MOL0     H90813   3.818   1.756   4.855  2.1703 -2.1935  1.4296
  688MOL0     H90814   3.409   1.694   4.933 -0.3384 -0.8366 -0.1511
  688MOL0     H90815   4.213   1.301   4.469  1.5583 -2.6429 -3.3866
  688MOL0     H90816   4.374   1.309   4.285 -1.8795 -0.9935  2.6561
  689MOL0     O90817   7.821   7.099   3.844 -0.1603 -0.1414  0.2006
  689MOL0     C90818   7.870   7.103   3.731 -0.1152  0.0126  0.4224
  689MOL0     O90819   7.805   7.145   3.616  0.2528 -0.0586  0.6496
  689MOL0     C90820   7.668   7.125   3.610 -0.0065  0.5335  0.2230
  689MOL0     C90821   7.603   7.006   3.652  1.0218  0.1520  0.1048
  689MOL0     C90822   7.461   6.986   3.641  0.4005  0.2398 -0.2939
  689MOL0     C90823   7.385   7.085   3.567 -0.5252  0.6826 -0.9513
  689MOL0     O90824   7.247   7.076   3.582  0.1410  0.5440  0.1276
  689MOL0     C90825   7.156   7.175   3.517 -0.5025  0.4212 -0.2669
  689MOL0     C90826   7.112   7.114   3.375 -0.3097  0.0801 -0.7754
  689MOL0     C90827   7.016   7.001   3.397 -0.2220 -0.2734  0.3835
  689MOL0     C90828   6.976   6.921   3.270  0.0164 -0.1420  0.6456
  689MOL0     C90829   7.094   6.856   3.193  0.8553 -0.1121 -0.0116
  689MOL0     C90830   7.155   6.744   3.276  1.2987 -0.4952  0.4853
  689MOL0     C90831   7.248   6.654   3.192 -1.0857 -0.3838  0.4130
  689MOL0     C90832   7.343   6.564   3.283  0.0095 -0.1213 -0.3741
  689MOL0     N90833   7.270   6.498   3.386 -0.1460  0.6162  0.6356
  689MOL0     C90834   7.251   6.542   3.507 -0.1781  0.0475 -0.4472
  689MOL0     C90835   7.170   6.453   3.569 -0.2953  0.7409  0.3410
  689MOL0     C90836   7.146   6.451   3.716  0.5042 -0.7812  1.2217
  689MOL0     C90837   7.002   6.436   3.756  0.4963  0.0035  0.7121
  689MOL0     C90838   6.987   6.332   3.874  0.3054  0.4849  0.2481
  689MOL0     C90839   7.047   6.386   4.007 -0.3494  0.3759  0.6851
  689MOL0     O90840   6.973   6.489   4.071  0.1855 -0.4521  0.4273
  689MOL0     C90841   6.850   6.463   4.123  0.6629  0.0880  0.3939
  689MOL0     C90842   6.811   6.349   4.195 -0.2494  0.1587 -1.1935
  689MOL0     C90843   6.684   6.340   4.250 -0.2615  0.2573  0.1600
  689MOL0     C90844   6.595   6.454   4.244 -0.0156  0.2176  0.6023
  689MOL0     C90845   6.465   6.453   4.319 -0.1944  0.3790  0.8413
  689MOL0     O90846   6.381   6.556   4.313  0.1851  0.0862  0.1721
  689MOL0     C90847   6.252   6.547   4.356 -0.2280 -0.1607 -0.0192
  689MOL0     C90848   6.213   6.603   4.471 -0.3572  0.1324  0.2091
  689MOL0     C90849   6.087   6.578   4.515  0.3541  0.0846  0.5097
  689MOL0     C90850   5.985   6.492   4.457 -0.8959  0.2961 -0.5258
  689MOL0     O90851   5.860   6.485   4.509 -0.0965  0.5458  0.4497
  689MOL0     C90852   5.769   6.509   4.401 -0.0413 -0.8582 -0.1746
  689MOL0     C90853   5.676   6.619   4.452 -0.3983 -0.3983 -0.2225
  689MOL0     C90854   5.592   6.560   4.565 -0.2761  0.7150  0.1176
  689MOL0     C90855   5.492   6.670   4.620  0.1827  1.2903 -0.2131
  689MOL0     C90856   5.403   6.614   4.732 -0.0302  0.0674  0.2360
  689MOL0     C90857   5.479   6.530   4.836  0.4605 -0.5846 -0.0190
  689MOL0     C90858   5.386   6.475   4.954 -0.6649  0.4527  0.2928
  689MOL0     C90859   5.356   6.582   5.063 -0.5623 -0.0904  0.6080
  689MOL0    Cl90860   5.250   6.716   5.012 -0.5135  0.0374 -0.2863
  689MOL0     C90861   6.035   6.429   4.341  0.2965  0.3847  0.6278
  689MOL0     C90862   6.170   6.458   4.288  1.0986 -0.4853 -1.1309
  689MOL0     O90863   6.452   6.361   4.401 -0.5621 -1.0732  0.0330
  689MOL0     C90864   6.636   6.570   4.171  0.9050  0.6197  0.3376
  689MOL0     C90865   6.760   6.567   4.111  0.8957  0.4393 -1.1827
  689MOL0     N90866   7.148   6.350   3.476 -0.1806  0.2183 -0.1692
  689MOL0     N90867   7.212   6.372   3.371  0.6716  0.4582  0.7834
  689MOL0     C90868   7.452   7.190   3.511  1.3372 -0.4218  0.2762
  689MOL0     C90869   7.583   7.220   3.542  0.1500  1.4203 -0.0920
  689MOL0     C90870   8.022   7.085   3.714 -0.2759  0.3345  0.6103
  689MOL0     C90871   8.111   7.095   3.821  0.0081 -0.6346  0.1168
  689MOL0     C90872   8.246   7.071   3.810 -0.6440  0.3089 -0.5890
  689MOL0     C90873   8.310   7.043   3.684  0.1455 -0.1693  0.6289
  689MOL0     O90874   8.447   7.021   3.662 -0.0340  0.0021  0.0380
  689MOL0     C90875   8.546   7.054   3.762 -0.4570 -0.2321 -0.0301
  689MOL0     C90876   8.683   6.999   3.735  0.2929  0.7933 -0.4339
  689MOL0     C90877   8.800   7.069   3.803  0.6564 -0.1149  0.0065
  689MOL0     C90878   8.937   6.998   3.772 -0.3219 -0.0919 -0.4089
  689MOL0     C90879   8.982   7.001   3.635  0.3504  0.1016  0.1741
  689MOL0     C90880   9.055   6.993   3.538  0.3421  0.0571  1.0632
  689MOL0     C90881   8.219   7.029   3.574  0.7954 -0.6193 -0.8755
  689MOL0     C90882   8.078   7.045   3.588 -0.4335  0.6278  0.2326
  689MOL0     H90883   7.673   6.937   3.697  1.0203  0.3492  0.4101
  689MOL0     H90884   7.406   6.911   3.698  1.6529  1.5614  2.9385
  689MOL0     H90885   7.191   7.277   3.502 -2.0836  1.3848  1.9102
  689MOL0     H90886   7.078   7.191   3.593  1.7910  0.0579  2.3218
  689MOL0     H90887   7.197   7.068   3.324 -0.9857  0.9089 -2.7397
  689MOL0     H90888   7.066   7.183   3.304 -0.1660  0.3333 -0.6204
  689MOL0     H90889   6.929   7.044   3.448  0.6723 -1.2002  2.8684
  689MOL0     H90890   7.055   6.934   3.474  1.0059  0.8584  0.7725
  689MOL0     H90891   6.902   6.847   3.302 -0.5237  0.5740  1.0802
  689MOL0     H90892   6.923   6.987   3.201 -0.8861 -3.6399 -2.2836
  689MOL0     H90893   7.172   6.926   3.161 -0.9487  3.2906  2.3451
  689MOL0     H90894   7.051   6.812   3.103 -0.8426 -2.5577  1.8681
  689MOL0     H90895   7.081   6.681   3.325  1.6531 -1.2123  0.1161
  689MOL0     H90896   7.217   6.788   3.355  0.3840  0.9807  0.4296
  689MOL0     H90897   7.193   6.594   3.119 -2.1235  0.7597  0.2189
  689MOL0     H90898   7.314   6.719   3.133 -1.3927 -3.2299 -3.4324
  689MOL0     H90899   7.428   6.612   3.331  0.8813 -1.2160 -0.7701
  689MOL0     H90900   7.398   6.495   3.218  1.5604 -0.7040  1.4605
  689MOL0     H90901   7.306   6.624   3.551 -0.7318 -0.1247  0.6220
  689MOL0     H90902   7.185   6.547   3.753  0.2323 -0.3626  0.4499
  689MOL0     H90903   7.205   6.367   3.752  1.5742  0.0117  1.3786
  689MOL0     H90904   6.945   6.393   3.673  0.7060 -0.1049  0.6226
  689MOL0     H90905   6.957   6.534   3.771  1.5751  0.7961 -0.9197
  689MOL0     H90906   6.883   6.302   3.890  0.4375  0.2252  0.6511
  689MOL0     H90907   7.035   6.244   3.831  0.2417  2.0084 -3.2578
  689MOL0     H90908   7.145   6.429   3.984 -0.5655  0.3924 -0.2729
  689MOL0     H90909   7.070   6.304   4.075  0.2329  2.2977  2.9360
  689MOL0     H90910   6.877   6.264   4.208  1.0628  1.0954 -1.5490
  689MOL0     H90911   6.651   6.251   4.302  1.3710 -2.2672 -2.7916
  689MOL0     H90912   6.274   6.663   4.539 -0.8839 -0.8559  1.6156
  689MOL0     H90913   6.050   6.622   4.607 -1.9165 -0.2188 -0.1972
  689MOL0     H90914   5.716   6.414   4.391 -3.9200  1.1602 -0.5374
  689MOL0     H90915   5.805   6.540   4.303 -0.3502 -0.2302 -0.0935
  689MOL0     H90916   5.602   6.640   4.374 -0.2690 -1.0168 -0.5180
  689MOL0     H90917   5.722   6.710   4.492 -2.8398  0.2438  1.3134
  689MOL0     H90918   5.656   6.523   4.645 -0.1915 -0.2925 -0.4092
  689MOL0     H90919   5.525   6.479   4.536 -2.4687  1.2850  3.1091
  689MOL0     H90920   5.547   6.755   4.663 -0.5059 -0.1802  4.0441
  689MOL0     H90921   5.426   6.708   4.542  0.2482 -1.1812 -1.5657
  689MOL0     H90922   5.322   6.560   4.680 -0.9274 -0.6290  2.2742
  689MOL0     H90923   5.370   6.707   4.777  2.4489 -0.0628  2.5173
  689MOL0     H90924   5.550   6.595   4.889 -0.9389  0.9644  0.0545
  689MOL0     H90925   5.526   6.443   4.791 -0.7845 -0.1129 -2.3798
  689MOL0     H90926   5.298   6.423   4.914 -1.4345  3.1948 -1.9151
  689MOL0     H90927   5.430   6.395   5.015 -0.8230  0.1651  0.0353
  689MOL0     H90928   5.455   6.615   5.096 -0.2267  0.4079 -0.8144
  689MOL0     H90929   5.309   6.535   5.150  2.8550 -5.0598  0.1765
  689MOL0     H90930   5.974   6.352   4.295 -2.6688  2.7328  0.3216
  689MOL0     H90931   6.189   6.404   4.196 -3.0865 -3.5947 -0.4791
  689MOL0     H90932   6.566   6.650   4.192  0.4584 -0.1799  2.1019
  689MOL0     H90933   6.791   6.662   4.068  1.9764  0.4931 -0.3233
  689MOL0     H90934   7.396   7.273   3.471  1.4510 -0.0811  0.8141
  689MOL0     H90935   7.635   7.310   3.509  0.1676  2.4367  2.4396
  689MOL0     H90936   8.064   7.112   3.918 -0.8064 -2.5653  0.1107
  689MOL0     H90937   8.303   7.072   3.902  0.9988  1.0268 -1.5871
  689MOL0     H90938   8.508   7.020   3.859 -0.7134  1.4272  0.4873
  689MOL0     H90939   8.557   7.163   3.767  1.7196 -0.3736 -0.6475
  689MOL0     H90940   8.677   6.893   3.763 -3.2068  0.4006 -2.1987
  689MOL0     H90941   8.692   7.005   3.626 -0.0214  0.8117 -0.4601
  689MOL0     H90942   8.782   7.065   3.911  3.8691  2.3901  0.7792
  689MOL0     H90943   8.804   7.176   3.779  3.4386 -0.1136  0.2090
  689MOL0     H90944   9.010   7.050   3.834 -1.6244 -0.4487  1.5364
  689MOL0     H90945   8.935   6.898   3.815 -0.4601 -0.0187 -0.2415
  689MOL0     H90946   9.117   6.985   3.451 -1.0764  3.0984 -0.3944
  689MOL0     H90947   8.248   6.997   3.475  0.8598  0.6027 -1.2740
  689MOL0     H90948   8.009   7.016   3.509 -1.3465 -2.9546  2.1599
  690MOL0     O90949   1.497   5.787  11.218 -0.3629  1.0650 -0.1975
  690MOL0     C90950   1.481   5.829  11.334 -0.2626  0.3121  1.2860
  690MOL0     O90951   1.361   5.878  11.386  0.1865  0.7567 -0.7030
  690MOL0     C90952   1.252   5.846  11.310 -0.5950 -0.0596 -0.3171
  690MOL0     C90953   1.215   5.716  11.282 -0.2882 -0.1082  0.2477
  690MOL0     C90954   1.090   5.692  11.221 -0.1387 -0.2386  0.4723
  690MOL0     C90955   1.006   5.799  11.170  0.4505  0.2591 -0.6996
  690MOL0     O90956   0.886   5.766  11.124  0.2741  0.3790 -0.1673
  690MOL0     C90957   0.785   5.861  11.075  0.7999 -0.2767 -0.3768
  690MOL0     C90958   0.659   5.775  11.032  0.0992 -0.4662  0.4868
  690MOL0     C90959   0.670   5.718  10.887  0.5469 -0.3218  0.6657
  690MOL0     C90960   0.788   5.631  10.853 -0.4032  0.5694  0.2930
  690MOL0     C90961   0.784   5.547  10.726  0.4000 -0.3921  0.4938
  690MOL0     C90962   0.908   5.451  10.716  0.1457 -0.1142  0.2242
  690MOL0     C90963   0.967   5.432  10.576  0.5311 -0.0172  0.9065
  690MOL0     C90964   1.066   5.318  10.578 -0.3792  0.3575 -0.5065
  690MOL0     N90965   1.196   5.355  10.644 -0.2113  0.2431  0.4000
  690MOL0     C90966   1.247   5.291  10.755 -0.2235 -0.0657  0.8194
  690MOL0     C90967   1.365   5.344  10.781  1.2662  0.1627 -0.0680
  690MOL0     C90968   1.459   5.314  10.895 -0.6491  0.2253  0.1959
  690MOL0     C90969   1.388   5.296  11.040 -1.1956 -0.7508  0.3873
  690MOL0     C90970   1.487   5.329  11.149 -0.2704  0.9440 -0.1492
  690MOL0     C90971   1.609   5.233  11.171  0.0302  0.0916  0.5202
  690MOL0     O90972   1.703   5.276  11.267 -0.5058 -0.4175  0.3324
  690MOL0     C90973   1.796   5.373  11.226  0.6688 -0.8726 -0.3099
  690MOL0     C90974   1.786   5.460  11.117  0.2943  0.3525 -0.4858
  690MOL0     C90975   1.870   5.569  11.106  0.7665 -0.6899  0.3872
  690MOL0     C90976   1.975   5.586  11.190 -0.6522 -0.2308  0.1805
  690MOL0     C90977   2.068   5.703  11.147 -0.1731  0.3693 -0.3430
  690MOL0     O90978   2.065   5.751  11.017 -0.1457  0.4046 -0.3889
  690MOL0     C90979   2.173   5.821  10.967 -0.5301  0.2981 -0.0508
  690MOL0     C90980   2.176   5.957  10.998  0.1459 -0.1487 -0.0424
  690MOL0     C90981   2.266   6.043  10.930  0.8287  1.0793 -0.7092
  690MOL0     C90982   2.352   5.993  10.832  1.4031 -0.0713  0.2821
  690MOL0     O90983   2.423   6.089  10.766  0.1859  0.3394  0.0994
  690MOL0     C90984   2.471   6.070  10.630  0.1658 -0.4224 -0.0876
  690MOL0     C90985   2.467   6.207  10.556 -0.1426  0.5062  0.3053
  690MOL0     C90986   2.498   6.207  10.402  0.7966  0.2891 -0.1390
  690MOL0     C90987   2.494   6.347  10.329  0.5827 -0.1479 -0.7173
  690MOL0     C90988   2.525   6.327  10.185  0.7922  0.5137  0.2237
  690MOL0     C90989   2.516   6.429  10.079  0.3296 -1.0688 -0.6233
  690MOL0     C90990   2.569   6.561  10.145  0.5078 -0.0492  0.2599
  690MOL0     C90991   2.717   6.575  10.185  0.4551  0.4748  0.2237
  690MOL0    Cl90992   2.750   6.738  10.247  0.2033 -0.3233 -0.0278
  690MOL0     C90993   2.349   5.852  10.802  0.2681  0.5698  0.4699
  690MOL0     C90994   2.259   5.767  10.863  0.8143 -0.1384 -0.5684
  690MOL0     O90995   2.150   5.732  11.227  0.7572 -0.5483 -0.0067
  690MOL0     C90996   1.990   5.499  11.298 -0.1574 -0.2632  0.1130
  690MOL0     C90997   1.895   5.397  11.315 -0.0531 -0.0997 -0.4125
  690MOL0     N90998   1.384   5.453  10.694 -0.6096  0.5275  0.1478
  690MOL0     N90999   1.287   5.451  10.610 -0.0472 -0.7712 -1.0356
  690MOL0     C91000   1.050   5.926  11.189 -0.0542 -0.7067  0.2438
  690MOL0     C91001   1.174   5.949  11.255 -0.2242 -0.4672 -1.1211
  690MOL0     C91002   1.602   5.836  11.419 -0.6901 -0.3229 -0.1242
  690MOL0     C91003   1.603   5.887  11.550  0.0212 -0.0874 -0.6872
  690MOL0     C91004   1.715   5.892  11.633  0.5493 -0.0016  0.0900
  690MOL0     C91005   1.831   5.818  11.598 -0.3219 -0.6665 -0.0375
  690MOL0     O91006   1.948   5.819  11.668  0.0137  0.4914 -0.1352
  690MOL0     C91007   1.941   5.866  11.803  0.2453 -0.2226  1.1829
  690MOL0     C91008   2.072   5.830  11.875 -0.1339 -0.1716  0.3062
  690MOL0     C91009   2.196   5.889  11.806 -0.9989 -0.3610 -0.2064
  690MOL0     C91010   2.323   5.890  11.905  0.8741 -0.0552 -0.3763
  690MOL0     C91011   2.308   5.981  12.016 -0.3994 -0.3429 -0.7204
  690MOL0     C91012   2.288   6.051  12.109  0.3036 -0.0917  0.3666
  690MOL0     C91013   1.838   5.765  11.471 -0.2976  0.0882 -0.7462
  690MOL0     C91014   1.723   5.780  11.376 -1.2808 -0.2270  0.0428
  690MOL0     H91015   1.282   5.634  11.307 -1.7913 -1.3934  0.2195
  690MOL0     H91016   1.056   5.589  11.210 -0.2449 -0.2539  0.9484
  690MOL0     H91017   0.823   5.921  10.992 -1.5240  3.0002  0.6954
  690MOL0     H91018   0.754   5.939  11.146  0.2151  0.1165 -1.0438
  690MOL0     H91019   0.566   5.832  11.039  2.2416  3.2432  1.4262
  690MOL0     H91020   0.642   5.687  11.095 -3.2847  1.2887  2.3013
  690MOL0     H91021   0.661   5.795  10.810  3.3815 -0.5579 -0.0163
  690MOL0     H91022   0.583   5.652  10.883 -0.7535  1.3193  0.9892
  690MOL0     H91023   0.876   5.697  10.848  0.9908 -1.2819 -1.3833
  690MOL0     H91024   0.803   5.562  10.938  1.8167  1.0531  0.3644
  690MOL0     H91025   0.781   5.616  10.642 -2.1791 -0.6133  0.3281
  690MOL0     H91026   0.691   5.490  10.723 -0.1650  0.4936 -2.8472
  690MOL0     H91027   0.880   5.352  10.753  0.1644 -0.8517 -1.6279
  690MOL0     H91028   0.986   5.489  10.782  0.5733  0.1300 -0.4056
  690MOL0     H91029   0.889   5.406  10.504  0.7180 -2.0468  1.3641
  690MOL0     H91030   1.029   5.513  10.537  1.8593 -1.3861  0.0449
  690MOL0     H91031   1.080   5.287  10.474 -3.5403 -1.0125 -0.6412
  690MOL0     H91032   1.036   5.231  10.636  3.0021 -0.8809 -0.3542
  690MOL0     H91033   1.194   5.211  10.806  1.6546 -0.1560  2.7941
  690MOL0     H91034   1.532   5.396  10.899  0.6352 -0.8296 -0.9033
  690MOL0     H91035   1.517   5.223  10.880  0.8356  0.5233  3.3456
  690MOL0     H91036   1.349   5.196  11.057  1.4672 -1.8042  0.7676
  690MOL0     H91037   1.312   5.374  11.052 -0.0703  0.1214  2.2233
  690MOL0     H91038   1.526   5.426  11.118 -0.6899  2.3652  3.3750
  690MOL0     H91039   1.431   5.346  11.241 -1.2550 -0.4847 -0.4380
  690MOL0     H91040   1.660   5.241  11.075  1.3466  0.8470  1.2624
  690MOL0     H91041   1.586   5.126  11.182  2.4734 -0.3421  2.4806
  690MOL0     H91042   1.709   5.446  11.042 -2.2614  1.4080  1.7822
  690MOL0     H91043   1.839   5.624  11.019  0.6157 -0.7045  0.4314
  690MOL0     H91044   2.109   5.993  11.076  1.3804  1.8718  0.1701
  690MOL0     H91045   2.265   6.150  10.944 -0.5036  0.9190  0.7471
  690MOL0     H91046   2.418   5.993  10.573 -1.1923  1.7563 -1.9254
  690MOL0     H91047   2.574   6.032  10.636  0.1571 -0.2711  1.3891
  690MOL0     H91048   2.545   6.270  10.600 -0.8199  0.9583  0.8801
  690MOL0     H91049   2.365   6.244  10.570 -1.4574 -2.6844 -0.1422
  690MOL0     H91050   2.430   6.139  10.349  0.9179 -0.1853  0.3128
  690MOL0     H91051   2.601   6.170  10.399 -0.5121 -3.9621 -2.6629
  690MOL0     H91052   2.399   6.400  10.341  0.8440  0.1865 -0.0720
  690MOL0     H91053   2.576   6.413  10.358 -0.6606  1.8796 -1.6349
  690MOL0     H91054   2.463   6.250  10.139  0.8366 -1.5332  3.3327
  690MOL0     H91055   2.622   6.278  10.175 -0.7790 -2.7849 -0.0771
  690MOL0     H91056   2.411   6.443  10.051  0.5126 -2.0120 -1.8825
  690MOL0     H91057   2.562   6.396   9.985 -1.9095 -0.0424 -2.1917
  690MOL0     H91058   2.566   6.632  10.063 -0.8975 -2.5297 -1.9812
  690MOL0     H91059   2.507   6.585  10.232  1.2782  0.1265  0.7738
  690MOL0     H91060   2.778   6.560  10.096 -0.6356 -2.1247 -0.1769
  690MOL0     H91061   2.754   6.495  10.250  3.1335 -1.4147 -3.2730
  690MOL0     H91062   2.405   5.805  10.723  0.3301  2.2279 -0.5023
  690MOL0     H91063   2.250   5.662  10.836 -0.3363 -0.0656 -0.5312
  690MOL0     H91064   2.078   5.513  11.360  1.0378  1.4869 -1.8377
  690MOL0     H91065   1.918   5.340  11.404 -3.6643 -0.4791  0.4031
  690MOL0     H91066   1.003   6.021  11.163  2.5499  0.8397  0.7578
  690MOL0     H91067   1.191   6.056  11.263 -0.0893 -0.5971  1.0564
  690MOL0     H91068   1.504   5.922  11.578 -0.8231 -4.3958  2.6366
  690MOL0     H91069   1.709   5.946  11.728  0.0059  2.9173 -1.4964
  690MOL0     H91070   1.848   5.828  11.848  0.8762  0.2786  3.0094
  690MOL0     H91071   1.917   5.973  11.810 -0.6793 -0.2371 -0.8760
  690MOL0     H91072   2.082   5.853  11.982  3.1214 -3.0031  0.8065
  690MOL0     H91073   2.076   5.721  11.865 -0.0849 -0.0865 -0.7136
  690MOL0     H91074   2.167   5.986  11.764 -1.5974  0.0567  1.1348
  690MOL0     H91075   2.209   5.819  11.723  0.4982 -3.2273  2.2541
  690MOL0     H91076   2.333   5.791  11.951  1.1400  0.1241 -0.0392
  690MOL0     H91077   2.410   5.908  11.841 -0.6861 -0.9707 -2.8819
  690MOL0     H91078   2.264   6.131  12.176  0.0078  1.0953 -1.1114
  690MOL0     H91079   1.937   5.727  11.446  0.0797 -0.6141  1.6504
  690MOL0     H91080   1.726   5.754  11.271 -1.6292 -1.2838  0.2804
  691MOL0     O91081  10.681   1.176   3.448  0.3077  0.2015  0.0917
  691MOL0     C91082  10.593   1.262   3.449 -0.3102  0.2428 -0.1173
  691MOL0     O91083  10.473   1.254   3.503  0.4342  0.2051 -0.4848
  691MOL0     C91084  10.406   1.137   3.533 -0.4381  0.1940  0.3557
  691MOL0     C91085  10.373   1.034   3.439  0.0139 -0.0693 -0.1364
  691MOL0     C91086  10.291   0.925   3.484  0.1035  0.3415  0.9315
  691MOL0     C91087  10.240   0.918   3.610  1.1797  1.2679 -0.0024
  691MOL0     O91088  10.148   0.821   3.639  0.3784 -0.3360  0.0235
  691MOL0     C91089  10.016   0.852   3.579  0.4105  0.6199  0.4201
  691MOL0     C91090   9.897   0.802   3.660  0.3671  0.5817 -0.6664
  691MOL0     C91091   9.915   0.848   3.797 -0.3184  0.2456  0.2879
  691MOL0     C91092   9.789   0.878   3.874  0.3882  0.3854 -0.0113
  691MOL0     C91093   9.726   0.746   3.924 -0.0855  0.2351 -0.2010
  691MOL0     C91094   9.602   0.754   4.014  0.1110  0.7660 -0.7591
  691MOL0     C91095   9.560   0.607   4.047  0.1687  1.2564  0.1427
  691MOL0     C91096   9.464   0.604   4.173 -0.0503  0.4738  0.1570
  691MOL0     N91097   9.340   0.677   4.150  0.0145  1.3671 -0.0036
  691MOL0     C91098   9.241   0.622   4.073 -1.1545 -0.3630  0.7306
  691MOL0     C91099   9.127   0.683   4.116 -0.7649 -1.1022  0.7446
  691MOL0     C91100   8.994   0.659   4.050 -0.2614  0.2491  0.7180
  691MOL0     C91101   8.876   0.671   4.151  0.2910 -0.0269 -0.1748
  691MOL0     C91102   8.748   0.652   4.060  0.5459 -0.5759  0.1345
  691MOL0     C91103   8.616   0.607   4.135 -0.5411 -0.5705 -0.4116
  691MOL0     O91104   8.567   0.691   4.239  0.3733  0.0229 -0.5081
  691MOL0     C91105   8.459   0.660   4.317  1.1990 -0.3557  0.0963
  691MOL0     C91106   8.348   0.570   4.279 -0.0307  0.8361  0.0891
  691MOL0     C91107   8.262   0.522   4.374 -0.1542 -0.6636 -0.7439
  691MOL0     C91108   8.264   0.574   4.505  0.3128 -0.1991 -0.0317
  691MOL0     C91109   8.167   0.529   4.608  0.1232  0.5275  0.2868
  691MOL0     O91110   8.086   0.425   4.572  0.2491 -0.5466 -0.3850
  691MOL0     C91111   8.020   0.369   4.681 -0.3129 -0.0478  0.4207
  691MOL0     C91112   7.878   0.379   4.706  0.3744  1.1112  0.3907
  691MOL0     C91113   7.824   0.332   4.829  0.0785  0.1601  0.3643
  691MOL0     C91114   7.904   0.272   4.923  0.7999 -0.0306  0.6740
  691MOL0     O91115   7.837   0.219   5.037  0.1843  0.1216 -0.3026
  691MOL0     C91116   7.907   0.133   5.128 -0.8373  0.9299 -1.1140
  691MOL0     C91117   7.854   0.166   5.270  0.2171 -0.4886  0.4603
  691MOL0     C91118   7.906   0.060   5.368  0.2798 -0.6617 -0.6760
  691MOL0     C91119   7.837   0.085   5.499  0.0656 -0.0476 -0.2906
  691MOL0     C91120   7.697   0.010   5.497 -0.2248 -0.0485  0.1122
  691MOL0     C91121   7.592   0.064   5.597  0.0373 -0.5452  0.5638
  691MOL0     C91122   7.464  -0.024   5.585 -0.0808 -0.0999  0.1693
  691MOL0     C91123   7.480  -0.182   5.586 -1.0872  0.2574  0.3397
  691MOL0    Cl91124   7.511  -0.220   5.758  0.0390  0.7548  0.1518
  691MOL0     C91125   8.036   0.248   4.885 -0.1068 -0.0427  1.0183
  691MOL0     C91126   8.091   0.304   4.773 -1.1307  0.1802  0.6073
  691MOL0     O91127   8.171   0.583   4.723 -0.0388 -0.7976  0.2700
  691MOL0     C91128   8.371   0.662   4.545 -0.1189  0.1267 -0.3031
  691MOL0     C91129   8.470   0.698   4.456 -0.0493  0.3346  0.3039
  691MOL0     N91130   9.161   0.773   4.209  0.3173 -0.1785 -0.6971
  691MOL0     N91131   9.286   0.773   4.233 -0.8927  0.0851 -0.0061
  691MOL0     C91132  10.284   1.007   3.701 -0.0025  0.3195  0.4442
  691MOL0     C91133  10.365   1.114   3.664  0.0948 -0.5402 -0.3108
  691MOL0     C91134  10.628   1.392   3.395  0.3328 -0.2613 -0.7242
  691MOL0     C91135  10.680   1.405   3.272 -0.1323  0.3770  0.1858
  691MOL0     C91136  10.725   1.532   3.227 -0.1422 -0.4704 -0.3004
  691MOL0     C91137  10.706   1.646   3.311  0.4295 -0.4648  0.0605
  691MOL0     O91138  10.760   1.773   3.278  0.7194  0.0369  0.2728
  691MOL0     C91139  10.876   1.791   3.184 -0.3227  0.3614 -0.7481
  691MOL0     C91140  10.895   1.937   3.135 -0.7566  0.1011 -0.2821
  691MOL0     C91141  10.798   1.985   3.027  0.1415  0.1280 -0.1275
  691MOL0     C91142  10.788   2.135   3.016  0.4134  0.7912 -0.2382
  691MOL0     C91143  10.911   2.199   2.988  0.4703 -0.4028  0.2660
  691MOL0     C91144  11.016   2.249   2.956  0.2387  0.6910  0.0612
  691MOL0     C91145  10.641   1.640   3.429  1.0101 -0.3448 -0.2954
  691MOL0     C91146  10.601   1.505   3.466 -0.3318  0.5788 -0.9098
  691MOL0     H91147  10.405   1.029   3.336 -4.3033  0.9736 -1.6985
  691MOL0     H91148  10.268   0.848   3.411  0.0173 -0.3997  1.7249
  691MOL0     H91149  10.007   0.803   3.482  0.0914  0.7121  0.4010
  691MOL0     H91150  10.001   0.959   3.561  0.0886  0.2543 -1.8146
  691MOL0     H91151   9.886   0.694   3.649 -0.2336  0.6888 -1.1502
  691MOL0     H91152   9.811   0.847   3.610 -0.0070 -0.1478 -0.6827
  691MOL0     H91153   9.964   0.946   3.792  1.7812 -0.7140  0.7807
  691MOL0     H91154   9.975   0.772   3.849 -1.7964 -2.9238 -2.3180
  691MOL0     H91155   9.824   0.943   3.955 -0.5309  1.1992 -0.2546
  691MOL0     H91156   9.717   0.932   3.813 -0.5838 -0.3212  0.4821
  691MOL0     H91157   9.795   0.692   3.989 -1.4617  0.1389  1.2571
  691MOL0     H91158   9.696   0.684   3.839  0.9421 -0.2511 -0.2275
  691MOL0     H91159   9.527   0.807   3.955  1.3414  1.6166 -1.5977
  691MOL0     H91160   9.619   0.810   4.106 -2.2498  1.7003 -0.8249
  691MOL0     H91161   9.500   0.564   3.967  0.4731 -1.7213  1.3760
  691MOL0     H91162   9.647   0.541   4.058 -2.3865 -2.2628  0.8759
  691MOL0     H91163   9.518   0.632   4.264  0.7152  0.5304 -0.3091
  691MOL0     H91164   9.436   0.500   4.192  0.3600 -0.0043 -1.7045
  691MOL0     H91165   9.255   0.558   3.987  0.3350  0.0388  0.6468
  691MOL0     H91166   8.989   0.560   4.004 -3.0244 -0.0046  1.3645
  691MOL0     H91167   8.972   0.730   3.970 -0.4267 -1.0417 -0.4152
  691MOL0     H91168   8.875   0.768   4.203 -1.0453 -0.1203  0.0196
  691MOL0     H91169   8.870   0.598   4.232 -2.4755  0.6598  0.3550
  691MOL0     H91170   8.738   0.757   4.031 -2.8660 -0.8958 -0.2763
  691MOL0     H91171   8.751   0.597   3.965 -2.1935 -1.3369  0.3962
  691MOL0     H91172   8.643   0.510   4.177  1.9562  0.0502 -0.4156
  691MOL0     H91173   8.538   0.579   4.063 -2.3438  2.1278  0.3294
  691MOL0     H91174   8.347   0.521   4.182  0.2502 -0.3526  0.6625
  691MOL0     H91175   8.186   0.453   4.338 -2.1797  2.9929 -4.3178
  691MOL0     H91176   7.818   0.439   4.638  1.4281  1.1903 -0.4775
  691MOL0     H91177   7.719   0.348   4.854 -0.4460 -2.4123  0.0440
  691MOL0     H91178   8.016   0.120   5.127 -0.7825  0.1254  2.3237
  691MOL0     H91179   7.864   0.038   5.096 -1.6356  0.1064  2.0276
  691MOL0     H91180   7.745   0.168   5.263  0.3370  0.9353 -3.0215
  691MOL0     H91181   7.895   0.262   5.302 -3.1219  2.3937 -2.9893
  691MOL0     H91182   8.010   0.087   5.392 -0.9494  2.9443  1.4235
  691MOL0     H91183   7.895  -0.037   5.319 -2.3123  0.2750 -2.1587
  691MOL0     H91184   7.902   0.037   5.573  0.7649  0.4576 -0.5616
  691MOL0     H91185   7.818   0.189   5.526 -3.6402 -1.6178  4.3874
  691MOL0     H91186   7.724  -0.094   5.520 -2.6015 -0.4360  1.5477
  691MOL0     H91187   7.657   0.022   5.396  1.3612  0.5085 -0.4738
  691MOL0     H91188   7.568   0.165   5.564  3.8381 -0.3519 -2.3343
  691MOL0     H91189   7.629   0.057   5.700  0.7631 -1.5480  0.2570
  691MOL0     H91190   7.400   0.019   5.663  2.3281  2.4605  0.8939
  691MOL0     H91191   7.412  -0.008   5.491  0.2866 -0.0763 -0.0303
  691MOL0     H91192   7.551  -0.219   5.511 -2.3640  1.4991 -1.5977
  691MOL0     H91193   7.388  -0.232   5.553 -0.6341 -0.1394 -0.3402
  691MOL0     H91194   8.105   0.192   4.947  0.3933  0.8627  1.2987
  691MOL0     H91195   8.197   0.291   4.752 -0.9781  0.3846  1.2314
  691MOL0     H91196   8.376   0.699   4.646  0.4064 -4.2694  1.5245
  691MOL0     H91197   8.549   0.769   4.480  1.1556 -0.1682 -1.8807
  691MOL0     H91198  10.252   1.001   3.805  1.0997  0.4505  0.8011
  691MOL0     H91199  10.373   1.192   3.738 -0.6383 -1.1634  0.4542
  691MOL0     H91200  10.688   1.318   3.209 -1.8519 -0.8195  1.5342
  691MOL0     H91201  10.761   1.541   3.125  2.3970 -1.2054  0.4621
  691MOL0     H91202  10.866   1.734   3.092 -1.1763 -0.5913 -0.0828
  691MOL0     H91203  10.960   1.754   3.243 -1.3128  1.6552  1.6485
  691MOL0     H91204  10.884   2.003   3.221 -1.5112 -1.4087  0.8334
  691MOL0     H91205  10.996   1.943   3.093  0.0461 -3.4336  0.7391
  691MOL0     H91206  10.692   1.959   3.036  0.4144 -0.6765  0.9153
  691MOL0     H91207  10.832   1.936   2.935  1.6523  1.0093 -0.0646
  691MOL0     H91208  10.715   2.162   2.938  0.2081 -2.3560 -1.2921
  691MOL0     H91209  10.755   2.170   3.114 -0.4118  0.4330 -0.3783
  691MOL0     H91210  11.114   2.273   2.920  1.4084 -2.7063  0.5696
  691MOL0     H91211  10.627   1.732   3.485 -1.9842  0.8295 -2.7170
  691MOL0     H91212  10.551   1.491   3.562  1.5121 -4.9826 -0.4060
  692MOL0     O91213   9.439   1.771   3.341  0.2181 -0.5595 -0.1565
  692MOL0     C91214   9.360   1.813   3.253 -0.0103  0.6848 -0.5136
  692MOL0     O91215   9.223   1.811   3.258 -1.1006  0.0627  0.1851
  692MOL0     C91216   9.146   1.744   3.349 -0.5393 -0.0887 -0.8637
  692MOL0     C91217   9.191   1.638   3.433  0.2169  0.0027  0.2388
  692MOL0     C91218   9.104   1.577   3.519  0.1842 -0.3218 -0.4121
  692MOL0     C91219   8.966   1.612   3.520 -0.1235  0.4422 -0.0396
  692MOL0     O91220   8.890   1.555   3.619  0.2840 -0.2243 -0.8605
  692MOL0     C91221   8.746   1.559   3.607 -0.8290 -0.0916  1.1298
  692MOL0     C91222   8.687   1.512   3.739 -0.4225 -0.0522  1.1681
  692MOL0     C91223   8.541   1.523   3.732  0.2037  0.2249  1.3041
  692MOL0     C91224   8.486   1.490   3.877  0.4404  0.2125  0.0081
  692MOL0     C91225   8.333   1.452   3.877 -0.5418  0.1384 -0.5669
  692MOL0     C91226   8.287   1.409   4.013  0.7034  0.2857 -0.0575
  692MOL0     C91227   8.291   1.528   4.104  0.2696  0.3148  0.7291
  692MOL0     C91228   8.220   1.493   4.235 -1.0573 -0.4209 -0.6360
  692MOL0     N91229   8.077   1.494   4.230 -0.2362 -0.4479  0.7570
  692MOL0     C91230   7.990   1.603   4.219 -0.0667 -0.6911 -0.3566
  692MOL0     C91231   7.871   1.556   4.244  0.5756  0.4898 -0.9041
  692MOL0     C91232   7.742   1.623   4.259  1.2662 -1.1907  0.8008
  692MOL0     C91233   7.633   1.598   4.153  0.2129  0.2638  0.5009
  692MOL0     C91234   7.661   1.674   4.021 -0.4716  0.3449 -0.0491
  692MOL0     C91235   7.538   1.659   3.933  0.1678  0.0089  0.1219
  692MOL0     O91236   7.503   1.779   3.864  0.4970 -0.0015 -0.6155
  692MOL0     C91237   7.387   1.794   3.793  0.3420  0.1847 -0.5301
  692MOL0     C91238   7.343   1.926   3.770  0.5673 -0.5595 -0.2119
  692MOL0     C91239   7.216   1.939   3.718  0.3707 -0.3735  0.5103
  692MOL0     C91240   7.127   1.833   3.700  0.3693 -0.2005 -0.4765
  692MOL0     C91241   6.990   1.847   3.654 -0.3757  0.2591  0.8260
  692MOL0     O91242   6.904   1.742   3.669 -0.2303  0.1693 -0.1891
  692MOL0     C91243   6.800   1.711   3.583  0.0731 -0.5136 -0.1195
  692MOL0     C91244   6.757   1.783   3.474  0.1327 -0.7373  0.1379
  692MOL0     C91245   6.644   1.744   3.403 -0.0886  0.1772 -0.1612
  692MOL0     C91246   6.577   1.628   3.437 -0.7582  0.0155  0.1305
  692MOL0     O91247   6.453   1.613   3.384  1.0794 -0.2858  1.0704
  692MOL0     C91248   6.399   1.476   3.373  0.0011  0.2642  0.5256
  692MOL0     C91249   6.305   1.454   3.254  0.2363 -0.2554  1.1320
  692MOL0     C91250   6.211   1.572   3.239 -0.4095 -0.5757  0.5079
  692MOL0     C91251   6.075   1.532   3.172 -0.9341  0.6053 -0.8449
  692MOL0     C91252   5.968   1.649   3.164 -1.2358 -0.9918 -0.2089
  692MOL0     C91253   6.010   1.777   3.092  0.0171  0.6548 -0.4563
  692MOL0     C91254   5.896   1.874   3.127 -0.1365  0.4457 -0.0241
  692MOL0     C91255   5.923   2.024   3.094 -0.1457  0.1462  0.2598
  692MOL0    Cl91256   5.986   2.041   2.924  0.3762 -0.0792  0.0998
  692MOL0     C91257   6.622   1.552   3.545 -0.5542  0.2040  0.1868
  692MOL0     C91258   6.725   1.596   3.621  0.3193  0.5739 -0.1014
  692MOL0     O91259   6.959   1.959   3.617 -0.4217 -0.3389 -0.0058
  692MOL0     C91260   7.181   1.706   3.730  0.0738  0.3381  0.2214
  692MOL0     C91261   7.309   1.684   3.774  0.1853  0.0011  0.4004
  692MOL0     N91262   7.879   1.414   4.252  0.1085 -0.2661  0.0110
  692MOL0     N91263   8.002   1.381   4.254  0.3126  0.9521  0.3476
  692MOL0     C91264   8.919   1.718   3.435  0.0377 -0.2843 -0.1007
  692MOL0     C91265   9.013   1.786   3.357 -0.8081 -0.8218 -0.2825
  692MOL0     C91266   9.417   1.887   3.130  0.4249  0.5035 -0.5655
  692MOL0     C91267   9.336   1.974   3.053  0.1567 -0.7530 -0.1759
  692MOL0     C91268   9.383   2.027   2.934 -0.7605 -0.8646 -0.4163
  692MOL0     C91269   9.522   2.020   2.907  0.1056  0.1723  0.1567
  692MOL0     O91270   9.583   2.074   2.798 -1.0201  0.8382  0.5573
  692MOL0     C91271   9.517   2.147   2.702 -0.6321  0.1392  0.0185
  692MOL0     C91272   9.610   2.250   2.640  0.0726 -0.1417  0.9806
  692MOL0     C91273   9.656   2.362   2.736  0.9102  0.2615 -0.9017
  692MOL0     C91274   9.714   2.465   2.639 -0.5777  0.5670 -0.4906
  692MOL0     C91275   9.770   2.585   2.707  0.4850  0.2577  0.2348
  692MOL0     C91276   9.812   2.679   2.760 -0.7168 -0.4266  0.4983
  692MOL0     C91277   9.612   1.946   2.982  0.7379  1.1941 -0.6856
  692MOL0     C91278   9.553   1.878   3.097  0.1853 -0.0209 -0.6604
  692MOL0     H91279   9.292   1.599   3.422 -0.4297 -1.1617 -2.7688
  692MOL0     H91280   9.133   1.498   3.588  1.2415  1.5745  1.3914
  692MOL0     H91281   8.708   1.495   3.528  1.9540  0.6344 -0.9707
  692MOL0     H91282   8.698   1.655   3.586  1.8239  1.0841 -0.0121
  692MOL0     H91283   8.728   1.582   3.812  4.5691 -1.9783  0.5817
  692MOL0     H91284   8.718   1.411   3.768  1.1198 -0.1495 -0.6451
  692MOL0     H91285   8.496   1.457   3.658  3.3097 -1.2260  0.5679
  692MOL0     H91286   8.520   1.628   3.707 -1.2725 -0.5248 -0.8038
  692MOL0     H91287   8.547   1.409   3.917 -3.1216 -1.5337  2.4464
  692MOL0     H91288   8.499   1.575   3.944  0.4892 -1.1184  1.7543
  692MOL0     H91289   8.305   1.365   3.816 -0.7107 -1.4322  1.6085
  692MOL0     H91290   8.273   1.535   3.840 -3.4108 -1.7993 -0.6753
  692MOL0     H91291   8.342   1.334   4.070 -0.7420 -0.9006 -0.1727
  692MOL0     H91292   8.184   1.374   4.000  0.9562 -0.3828 -0.3563
  692MOL0     H91293   8.395   1.554   4.127 -0.0338  1.1298  1.2399
  692MOL0     H91294   8.234   1.614   4.066  0.6356  0.5729  0.7552
  692MOL0     H91295   8.242   1.560   4.319 -0.6191 -0.7314 -0.4968
  692MOL0     H91296   8.266   1.398   4.264  3.1128  1.3430 -0.7563
  692MOL0     H91297   8.012   1.709   4.205 -2.8916  0.1742  1.0566
  692MOL0     H91298   7.747   1.730   4.282  3.0903 -1.0473 -0.0741
  692MOL0     H91299   7.691   1.582   4.347 -1.1785 -0.9055 -0.4013
  692MOL0     H91300   7.537   1.630   4.195  0.1212 -1.4048  1.6526
  692MOL0     H91301   7.635   1.493   4.122 -1.5518  0.6068 -0.9454
  692MOL0     H91302   7.679   1.780   4.043 -4.9149  1.5929 -1.3376
  692MOL0     H91303   7.742   1.618   3.972 -0.0822  1.8280 -1.1618
  692MOL0     H91304   7.451   1.630   3.992  1.1441 -0.0740  1.5727
  692MOL0     H91305   7.561   1.573   3.869  2.1868 -0.0102  0.8138
  692MOL0     H91306   7.402   2.009   3.808 -0.6415  1.3483 -2.2241
  692MOL0     H91307   7.187   2.043   3.707  0.9150 -0.2878 -0.1514
  692MOL0     H91308   6.814   1.870   3.440  1.2875 -0.4775  2.5732
  692MOL0     H91309   6.608   1.809   3.324  1.2760  1.2730  0.0638
  692MOL0     H91310   6.354   1.450   3.470  1.5056  0.6082  1.3543
  692MOL0     H91311   6.480   1.403   3.369  0.8305  0.9615  2.7763
  692MOL0     H91312   6.257   1.356   3.263  2.2484 -1.1756  2.4102
  692MOL0     H91313   6.367   1.455   3.164  2.4996  2.8868  2.5777
  692MOL0     H91314   6.260   1.649   3.179 -0.0099 -1.9203 -0.9604
  692MOL0     H91315   6.185   1.608   3.339 -0.9665 -2.2615  1.0005
  692MOL0     H91316   6.087   1.504   3.067 -0.7156 -0.7942 -0.4661
  692MOL0     H91317   6.034   1.448   3.229  0.3610  1.6393  1.7544
  692MOL0     H91318   5.953   1.673   3.270  1.2731  0.4902 -0.1110
  692MOL0     H91319   5.876   1.602   3.128 -2.0480 -0.8552  1.5617
  692MOL0     H91320   6.019   1.772   2.983 -1.4812 -2.0267 -0.5529
  692MOL0     H91321   6.105   1.808   3.137  0.2859 -0.0104 -0.5416
  692MOL0     H91322   5.818   1.834   3.061  2.9548 -3.3948 -1.7385
  692MOL0     H91323   5.854   1.857   3.226  3.7901  0.5447  1.8320
  692MOL0     H91324   6.000   2.058   3.163 -0.2900 -0.9178  0.9674
  692MOL0     H91325   5.829   2.080   3.104 -2.5922 -3.5476  0.0918
  692MOL0     H91326   6.552   1.477   3.580 -2.6811  1.9053 -0.1928
  692MOL0     H91327   6.760   1.543   3.709 -1.6960 -0.3868  0.1750
  692MOL0     H91328   7.132   1.611   3.715  2.1883 -0.4767 -2.3983
  692MOL0     H91329   7.336   1.582   3.801  0.0905 -0.1296 -0.0009
  692MOL0     H91330   8.823   1.769   3.441 -0.3022 -1.0621  1.8388
  692MOL0     H91331   8.981   1.870   3.296 -0.4021 -0.9527 -0.6754
  692MOL0     H91332   9.229   1.985   3.072 -0.2542  0.5733 -2.7319
  692MOL0     H91333   9.324   2.092   2.870 -1.4435  0.8512  1.8102
  692MOL0     H91334   9.437   2.209   2.743 -1.6014 -0.9641 -0.1474
  692MOL0     H91335   9.468   2.079   2.632 -0.8034  0.0234  0.2521
  692MOL0     H91336   9.697   2.193   2.604  0.6610  1.3829 -0.1332
  692MOL0     H91337   9.556   2.288   2.553 -0.4115 -4.3968 -0.8458
  692MOL0     H91338   9.718   2.332   2.821 -1.2616  1.3634  1.1941
  692MOL0     H91339   9.560   2.399   2.774  0.0265 -3.2060  0.7081
  692MOL0     H91340   9.784   2.409   2.575 -0.1360 -3.9187  3.3548
  692MOL0     H91341   9.640   2.507   2.571 -1.2109 -0.9377 -0.7660
  692MOL0     H91342   9.862   2.757   2.813  1.1027 -0.2066 -1.3803
  692MOL0     H91343   9.719   1.937   2.964  1.0799  1.1323  1.1788
  692MOL0     H91344   9.621   1.810   3.146  0.8150  0.4820 -0.8277
  693MOL0     O91345   0.356   9.084  10.806 -0.7515  0.3212 -0.6645
  693MOL0     C91346   0.388   9.178  10.735 -0.1024  0.2784  0.7985
  693MOL0     O91347   0.325   9.300  10.722  0.1504  0.8194 -0.3184
  693MOL0     C91348   0.211   9.311  10.797  0.0031  1.2996 -0.4452
  693MOL0     C91349   0.209   9.322  10.936  1.2408 -0.0481  0.6575
  693MOL0     C91350   0.085   9.339  10.999  0.5461  0.0979  1.4215
  693MOL0     C91351  -0.034   9.346  10.923  0.1413 -0.5407 -0.3827
  693MOL0     O91352  -0.172   9.360  10.968 -0.4919 -0.1112  0.1646
  693MOL0     C91353  -0.192   9.307  11.096  0.3436  0.1453  0.9235
  693MOL0     C91354  -0.343   9.288  11.104 -0.6345  0.1215  0.6362
  693MOL0     C91355  -0.378   9.151  11.052  0.6700  0.1066  0.2300
  693MOL0     C91356  -0.528   9.121  11.047  0.3435  1.2696  0.6015
  693MOL0     C91357  -0.573   9.056  11.180  0.1129 -0.0855 -0.4997
  693MOL0     C91358  -0.716   9.036  11.217 -0.4785  0.2029  1.0354
  693MOL0     C91359  -0.813   9.132  11.149 -0.2802 -0.8385 -0.3863
  693MOL0     C91360  -0.959   9.099  11.186  0.1670 -0.3927 -0.2150
  693MOL0     N91361  -1.032   9.219  11.208  0.5757 -0.0417 -0.3292
  693MOL0     C91362  -1.039   9.282  11.322 -0.9884  0.1504 -0.2402
  693MOL0     C91363  -1.146   9.367  11.310 -0.3772 -0.0245 -0.3192
  693MOL0     C91364  -1.209   9.447  11.429 -0.3821 -0.0572 -0.4067
  693MOL0     C91365  -1.329   9.358  11.465 -0.4378 -0.6125  0.0258
  693MOL0     C91366  -1.373   9.412  11.603 -0.3351 -0.2118 -0.0718
  693MOL0     C91367  -1.514   9.347  11.626  0.1464 -0.1645  0.4131
  693MOL0     O91368  -1.607   9.395  11.525  0.2214  0.0624 -0.7661
  693MOL0     C91369  -1.637   9.529  11.540 -0.3723  0.1199 -0.0456
  693MOL0     C91370  -1.583   9.627  11.449  0.6079 -0.0860 -0.0017
  693MOL0     C91371  -1.608   9.762  11.469  0.3072 -0.4602 -0.6113
  693MOL0     C91372  -1.695   9.805  11.572 -0.4580 -0.7785 -1.2482
  693MOL0     C91373  -1.698   9.958  11.592 -0.4915  1.7294 -0.3271
  693MOL0     O91374  -1.616  10.040  11.518 -0.2352 -0.4947 -0.1671
  693MOL0     C91375  -1.652  10.173  11.507 -0.4837  0.2211  0.0591
  693MOL0     C91376  -1.713  10.216  11.382 -0.1257 -0.4602 -0.6210
  693MOL0     C91377  -1.753  10.355  11.360 -0.0535 -0.3278 -0.4506
  693MOL0     C91378  -1.708  10.451  11.450  0.9477  0.2139 -0.9417
  693MOL0     O91379  -1.718  10.584  11.423 -0.4386  0.0038 -0.1839
  693MOL0     C91380  -1.675  10.640  11.300  0.3089  0.1299 -0.1504
  693MOL0     C91381  -1.610  10.775  11.337  0.4232 -0.0773 -0.5219
  693MOL0     C91382  -1.485  10.763  11.427 -0.1589 -0.2725 -0.0015
  693MOL0     C91383  -1.413  10.897  11.442 -0.4868 -0.0943  0.8016
  693MOL0     C91384  -1.292  10.872  11.529 -1.1908  1.0781  0.5691
  693MOL0     C91385  -1.211  10.998  11.568  0.0830 -0.4958 -0.2878
  693MOL0     C91386  -1.167  11.079  11.451 -0.2216 -0.2482  0.2174
  693MOL0     C91387  -1.239  11.211  11.442 -0.1890  0.1226  0.0253
  693MOL0    Cl91388  -1.147  11.328  11.333 -0.1751  0.1542  0.1278
  693MOL0     C91389  -1.640  10.404  11.568 -0.9976 -0.0719  0.1064
  693MOL0     C91390  -1.622  10.271  11.597  0.2357  0.1480  0.3975
  693MOL0     O91391  -1.782   9.991  11.674 -0.0215  0.4153 -0.3819
  693MOL0     C91392  -1.776   9.707  11.632 -0.7373  0.1893 -0.5738
  693MOL0     C91393  -1.740   9.567  11.620 -0.0393  0.4054 -0.1709
  693MOL0     N91394  -1.187   9.363  11.178  0.6735  0.6635  0.7053
  693MOL0     N91395  -1.114   9.279  11.116 -0.8761 -0.4600 -0.5341
  693MOL0     C91396  -0.029   9.335  10.784 -0.9991 -0.4963 -0.6219
  693MOL0     C91397   0.093   9.310  10.721 -0.8222 -0.2762 -0.0940
  693MOL0     C91398   0.521   9.176  10.668 -0.3519  0.0496  0.3323
  693MOL0     C91399   0.575   9.285  10.602  0.2730  0.4734  0.7150
  693MOL0     C91400   0.686   9.269  10.525 -0.7138 -0.7228 -0.5279
  693MOL0     C91401   0.764   9.149  10.537  0.0831  0.1749 -0.2035
  693MOL0     O91402   0.899   9.131  10.498 -0.3241  0.2667  0.1840
  693MOL0     C91403   0.971   9.252  10.476 -0.0761  0.4544 -0.1825
  693MOL0     C91404   1.112   9.220  10.473 -0.9561 -0.5158  0.9196
  693MOL0     C91405   1.206   9.344  10.483  0.2529 -0.2219  0.0419
  693MOL0     C91406   1.336   9.310  10.545  0.1277 -0.1262 -0.4241
  693MOL0     C91407   1.438   9.422  10.546 -0.1875  0.3930 -0.0083
  693MOL0     C91408   1.509   9.516  10.548  0.0905 -0.6282  0.6252
  693MOL0     C91409   0.712   9.035  10.599 -0.1728 -0.9257  0.2414
  693MOL0     C91410   0.590   9.054  10.669  0.6116  0.0708 -0.7907
  693MOL0     H91411   0.296   9.320  11.000  0.6938  0.6542  1.4385
  693MOL0     H91412   0.079   9.355  11.107  0.2651  0.1522  1.3996
  693MOL0     H91413  -0.160   9.378  11.173 -2.0797  1.4916  0.7523
  693MOL0     H91414  -0.143   9.210  11.116  1.6512  0.9611  1.8752
  693MOL0     H91415  -0.407   9.360  11.052 -2.1407 -2.0739 -0.7362
  693MOL0     H91416  -0.369   9.288  11.210 -2.6230  2.8096  0.2693
  693MOL0     H91417  -0.323   9.072  11.103  3.0204  1.3426 -0.2629
  693MOL0     H91418  -0.329   9.153  10.954 -0.8145  1.9416 -0.5296
  693MOL0     H91419  -0.579   9.217  11.032  1.1595  1.4919 -0.9202
  693MOL0     H91420  -0.556   9.058  10.962 -0.1476  0.0345  1.6430
  693MOL0     H91421  -0.530   9.127  11.252  0.6937  1.7799 -2.5521
  693MOL0     H91422  -0.510   8.967  11.186  0.9088  0.1420 -3.7753
  693MOL0     H91423  -0.723   9.048  11.326  2.4071 -1.8372  1.5380
  693MOL0     H91424  -0.751   8.940  11.179 -0.1525  0.5397 -0.1493
  693MOL0     H91425  -0.785   9.233  11.182 -1.6046 -0.8365  0.8078
  693MOL0     H91426  -0.820   9.131  11.040 -3.0866  0.5122 -0.3033
  693MOL0     H91427  -0.970   9.054  11.285 -2.3737  3.2687  1.4016
  693MOL0     H91428  -1.014   9.036  11.115  0.3331 -1.4784  0.5934
  693MOL0     H91429  -0.972   9.266  11.406  0.4554  1.0108 -1.1890
  693MOL0     H91430  -1.233   9.552  11.409  2.4419  0.4497 -1.5681
  693MOL0     H91431  -1.141   9.439  11.515 -1.2878 -1.3794  0.2206
  693MOL0     H91432  -1.301   9.254  11.485  4.3345  0.6832  1.3445
  693MOL0     H91433  -1.398   9.360  11.380  0.1169  0.4992 -0.4249
  693MOL0     H91434  -1.313   9.373  11.686  0.0982  3.4341  1.5262
  693MOL0     H91435  -1.393   9.518  11.622 -0.2206 -0.7012  3.2955
  693MOL0     H91436  -1.552   9.376  11.724 -3.3558 -0.8641 -0.5908
  693MOL0     H91437  -1.511   9.238  11.612  3.0059 -0.1413  0.3118
  693MOL0     H91438  -1.522   9.611  11.360  0.7963  0.4647  0.0208
  693MOL0     H91439  -1.558   9.833  11.405 -0.4512  1.4881  0.8454
  693MOL0     H91440  -1.739  10.138  11.310 -0.2232 -1.7398  0.7454
  693MOL0     H91441  -1.808  10.385  11.271 -1.4451 -1.2074  0.0927
  693MOL0     H91442  -1.759  10.662  11.234 -0.4833 -0.4953  0.6226
  693MOL0     H91443  -1.599  10.572  11.259  0.5573 -1.0998  2.1667
  693MOL0     H91444  -1.684  10.830  11.396 -0.5541 -2.2828  0.4037
  693MOL0     H91445  -1.584  10.834  11.248  1.2564 -1.4373 -1.2233
  693MOL0     H91446  -1.429  10.680  11.384 -0.5066 -0.7144  0.3912
  693MOL0     H91447  -1.519  10.729  11.526 -2.1927  0.7490 -0.3023
  693MOL0     H91448  -1.375  10.934  11.347 -0.9314 -3.0892 -0.6751
  693MOL0     H91449  -1.472  10.974  11.493  0.5090 -0.2539  2.2369
  693MOL0     H91450  -1.226  10.803  11.476 -1.6999  1.1450 -0.1627
  693MOL0     H91451  -1.323  10.830  11.625 -0.4679 -0.2152  0.2582
  693MOL0     H91452  -1.122  10.970  11.625  2.1991 -2.6603 -4.2251
  693MOL0     H91453  -1.268  11.059  11.639  0.2548 -2.1150  1.3449
  693MOL0     H91454  -1.062  11.090  11.480 -0.0935 -1.5939  0.3355
  693MOL0     H91455  -1.169  11.030  11.354 -0.5967  0.0825  0.0551
  693MOL0     H91456  -1.232  11.257  11.541  2.8807 -2.2629  1.0318
  693MOL0     H91457  -1.346  11.198  11.423 -1.4142  0.2647  5.2650
  693MOL0     H91458  -1.591  10.482  11.625 -1.8271 -0.3142  1.1824
  693MOL0     H91459  -1.574  10.251  11.693 -1.3072  0.8795  1.3592
  693MOL0     H91460  -1.851   9.740  11.703  0.3956  1.3609  0.1259
  693MOL0     H91461  -1.807   9.493  11.664 -1.7609 -0.2349 -3.5079
  693MOL0     H91462  -0.127   9.337  10.737 -0.6986 -0.2348 -1.2485
  693MOL0     H91463   0.099   9.292  10.614  1.5434  2.0286 -0.4431
  693MOL0     H91464   0.524   9.380  10.590 -0.7563 -0.2682 -1.2365
  693MOL0     H91465   0.718   9.363  10.481 -0.1404  0.0935  1.4869
  693MOL0     H91466   0.956   9.326  10.556  2.2070 -0.8069  1.5580
  693MOL0     H91467   0.936   9.293  10.381 -0.9773 -2.2039 -1.0905
  693MOL0     H91468   1.125   9.166  10.568  1.1355  4.1765  3.6581
  693MOL0     H91469   1.135   9.156  10.388 -0.2040 -0.0371  0.7572
  693MOL0     H91470   1.147   9.411  10.547 -2.2191 -0.3476 -1.9750
  693MOL0     H91471   1.224   9.383  10.383 -0.1674 -2.8715 -1.1565
  693MOL0     H91472   1.314   9.286  10.649 -0.9970 -2.5924 -1.1633
  693MOL0     H91473   1.388   9.219  10.514 -0.5556 -0.9886  0.8754
  693MOL0     H91474   1.568   9.604  10.563 -0.2487 -0.3130  0.1733
  693MOL0     H91475   0.764   8.940  10.599  3.2853  0.7490  2.5036
  693MOL0     H91476   0.549   8.965  10.715  1.2922 -0.3621 -1.0076
  694MOL0     O91477   2.108   1.422   6.783 -0.3007  0.2555  0.8282
  694MOL0     C91478   2.104   1.382   6.665 -0.4928  0.4291 -0.2833
  694MOL0     O91479   1.999   1.331   6.609  0.9598  0.1382  0.6550
  694MOL0     C91480   1.875   1.364   6.638  0.4391 -0.1955 -0.4313
  694MOL0     C91481   1.836   1.492   6.693 -0.2476  0.2688  1.3736
  694MOL0     C91482   1.705   1.522   6.711  0.4738  0.1930  0.4740
  694MOL0     C91483   1.599   1.431   6.670 -0.2865 -0.1144  0.3093
  694MOL0     O91484   1.463   1.472   6.651 -0.0609  1.0674  0.1988
  694MOL0     C91485   1.442   1.612   6.632 -1.1517 -0.6144 -0.2877
  694MOL0     C91486   1.314   1.638   6.568 -0.2301  0.7778  0.8079
  694MOL0     C91487   1.274   1.538   6.458  0.4249  0.5619 -1.0217
  694MOL0     C91488   1.128   1.554   6.421 -0.3494  0.2848 -0.3285
  694MOL0     C91489   1.089   1.695   6.394  0.9731 -0.1458 -0.5997
  694MOL0     C91490   0.963   1.708   6.320  0.3753 -0.4333 -0.5874
  694MOL0     C91491   0.961   1.683   6.171 -0.0681 -0.1627 -0.7126
  694MOL0     C91492   0.830   1.710   6.086 -0.4452  0.0180 -0.7609
  694MOL0     N91493   0.728   1.611   6.116  0.4333  0.0553  0.5707
  694MOL0     C91494   0.736   1.481   6.072  0.2949 -0.9356  0.9613
  694MOL0     C91495   0.603   1.440   6.052  0.4630  0.2131  0.1171
  694MOL0     C91496   0.567   1.311   5.987  0.0202 -0.8704  0.3985
  694MOL0     C91497   0.612   1.318   5.841  0.7441 -0.9571 -0.0867
  694MOL0     C91498   0.597   1.179   5.764 -0.4658 -0.4941  0.8261
  694MOL0     C91499   0.723   1.080   5.794 -0.5382  0.7402 -0.2110
  694MOL0     O91500   0.846   1.144   5.779 -0.1975 -0.3609 -0.6630
  694MOL0     C91501   0.967   1.075   5.779  0.4612 -0.7790 -0.1188
  694MOL0     C91502   0.986   0.964   5.853  0.6981  0.1030  0.6784
  694MOL0     C91503   1.102   0.880   5.833  0.0033 -0.4770  0.3207
  694MOL0     C91504   1.206   0.921   5.767 -0.8122  0.4037 -0.9478
  694MOL0     C91505   1.325   0.829   5.759 -0.3620 -0.5452  0.4528
  694MOL0     O91506   1.320   0.688   5.775  0.5105 -0.5811  0.2312
  694MOL0     C91507   1.433   0.615   5.778 -0.2337 -0.4891 -0.3612
  694MOL0     C91508   1.472   0.530   5.672 -0.7421 -0.8869 -0.4366
  694MOL0     C91509   1.601   0.474   5.665 -0.0896 -0.8939 -0.2496
  694MOL0     C91510   1.697   0.509   5.761  0.4835  0.0868 -0.4861
  694MOL0     O91511   1.818   0.447   5.749 -0.1912  0.6030 -1.3657
  694MOL0     C91512   1.911   0.498   5.648  0.2469  0.9487 -0.4761
  694MOL0     C91513   1.982   0.384   5.580  1.3552 -0.8322  0.0980
  694MOL0     C91514   2.056   0.304   5.699 -0.5152  0.8599  0.2500
  694MOL0     C91515   2.132   0.186   5.630 -0.3125 -0.1792  1.1358
  694MOL0     C91516   2.210   0.098   5.729  1.2193  0.1280 -0.5740
  694MOL0     C91517   2.275  -0.023   5.655 -0.1246 -0.5942 -0.2388
  694MOL0     C91518   2.372  -0.111   5.741 -0.1479  0.4124  0.1487
  694MOL0     C91519   2.522  -0.073   5.731  0.1941 -0.2046 -0.0896
  694MOL0    Cl91520   2.563   0.066   5.834  0.7291 -0.2432  0.0929
  694MOL0     C91521   1.658   0.593   5.864 -0.1450 -0.1339 -0.4735
  694MOL0     C91522   1.526   0.641   5.881  0.4412  0.8989  0.5493
  694MOL0     O91523   1.431   0.892   5.740 -0.2668 -0.3877  0.2113
  694MOL0     C91524   1.187   1.039   5.688 -0.0799 -0.2871  0.0225
  694MOL0     C91525   1.068   1.114   5.686  0.2968  0.3701 -0.2550
  694MOL0     N91526   0.522   1.545   6.102  0.1397 -0.6492  0.1832
  694MOL0     N91527   0.602   1.651   6.131 -0.8493 -0.1942 -0.0668
  694MOL0     C91528   1.639   1.306   6.623 -0.1231 -0.2835  0.0214
  694MOL0     C91529   1.772   1.271   6.605 -0.5914  1.0222 -0.0847
  694MOL0     C91530   2.223   1.397   6.585 -0.2177 -1.2657 -0.1724
  694MOL0     C91531   2.353   1.437   6.634 -0.0511 -0.0816  0.6251
  694MOL0     C91532   2.462   1.453   6.550 -0.9381 -0.2426 -0.2442
  694MOL0     C91533   2.449   1.419   6.419 -0.7532  0.2825 -0.9477
  694MOL0     O91534   2.563   1.416   6.342 -0.5094 -0.0025  0.4888
  694MOL0     C91535   2.697   1.391   6.404 -0.0872 -0.8628  0.2386
  694MOL0     C91536   2.778   1.321   6.287 -0.2963  0.0396 -0.0529
  694MOL0     C91537   2.923   1.294   6.327 -0.5968 -0.2113 -0.6894
  694MOL0     C91538   3.013   1.207   6.235 -0.1296 -0.7002  0.2381
  694MOL0     C91539   3.159   1.197   6.291 -0.4559 -0.1796  0.7338
  694MOL0     C91540   3.271   1.179   6.330 -0.5834  0.4942 -0.4344
  694MOL0     C91541   2.331   1.376   6.367  0.0284  0.4980  1.1373
  694MOL0     C91542   2.217   1.371   6.446  0.5144  0.6165  0.1405
  694MOL0     H91543   1.917   1.564   6.705  2.6166 -2.7923  1.9120
  694MOL0     H91544   1.678   1.624   6.737 -2.7881 -0.8691  1.8834
  694MOL0     H91545   1.513   1.641   6.554 -2.0350  0.2348 -0.7914
  694MOL0     H91546   1.443   1.670   6.725  1.3585 -0.4942 -0.3071
  694MOL0     H91547   1.317   1.738   6.525 -0.0467  0.4610  0.0756
  694MOL0     H91548   1.240   1.620   6.647 -0.1122 -1.6761  0.4365
  694MOL0     H91549   1.289   1.432   6.481  1.1738  0.9197  0.2267
  694MOL0     H91550   1.342   1.567   6.377  1.6438 -2.3998 -1.1820
  694MOL0     H91551   1.119   1.498   6.328  4.2325 -1.1714 -0.1172
  694MOL0     H91552   1.055   1.515   6.493 -0.1261  0.0663 -0.2223
  694MOL0     H91553   1.172   1.748   6.347  1.7274  1.0149  1.8768
  694MOL0     H91554   1.081   1.749   6.489 -1.2520  0.1658 -0.9108
  694MOL0     H91555   0.940   1.814   6.334  0.7685 -0.2339 -1.3804
  694MOL0     H91556   0.881   1.649   6.362  0.6038 -0.4951 -0.2234
  694MOL0     H91557   1.041   1.737   6.120  1.7474  0.2660  2.3101
  694MOL0     H91558   0.980   1.578   6.145 -1.5255 -0.6188 -0.0526
  694MOL0     H91559   0.854   1.705   5.979  0.0915  2.8841 -0.8683
  694MOL0     H91560   0.799   1.814   6.099  0.9080  0.0585  3.9264
  694MOL0     H91561   0.830   1.431   6.048  0.3432 -0.3801 -0.0632
  694MOL0     H91562   0.459   1.292   5.992 -0.1136  0.0716  1.4300
  694MOL0     H91563   0.621   1.228   6.034  1.1071 -0.0493  0.6505
  694MOL0     H91564   0.718   1.344   5.840  0.1419  2.2890  2.2140
  694MOL0     H91565   0.547   1.394   5.796  1.8413  0.0264 -0.0407
  694MOL0     H91566   0.506   1.125   5.791 -1.4815  1.0659  0.6463
  694MOL0     H91567   0.605   1.189   5.656  4.6151 -1.3312  0.8466
  694MOL0     H91568   0.724   0.982   5.746  1.6393 -0.5567  2.2726
  694MOL0     H91569   0.718   1.063   5.902  1.4129  3.6495  0.4560
  694MOL0     H91570   0.902   0.926   5.910  1.1313 -1.5817  0.2432
  694MOL0     H91571   1.119   0.784   5.881  2.5209 -0.3885 -0.2848
  694MOL0     H91572   1.390   0.512   5.604 -1.1243  2.8057 -1.1524
  694MOL0     H91573   1.629   0.402   5.589 -1.5413  0.4596 -2.1922
  694MOL0     H91574   1.991   0.562   5.686 -0.3562  0.8380  1.0929
  694MOL0     H91575   1.859   0.553   5.570 -2.7631 -0.8644  0.0970
  694MOL0     H91576   2.055   0.423   5.507 -0.6473  0.2537 -1.4218
  694MOL0     H91577   1.907   0.324   5.529 -1.1453  3.4733 -1.8727
  694MOL0     H91578   1.987   0.256   5.768  0.4829 -0.3184  0.4617
  694MOL0     H91579   2.132   0.354   5.760  2.1589 -1.6796 -0.7554
  694MOL0     H91580   2.065   0.133   5.561 -0.4189  2.7605 -1.2033
  694MOL0     H91581   2.202   0.233   5.561 -1.4018 -0.9938 -0.6087
  694MOL0     H91582   2.143   0.062   5.808  3.0563 -1.1899  0.4805
  694MOL0     H91583   2.282   0.161   5.782  0.5935  0.5750 -0.2391
  694MOL0     H91584   2.321   0.038   5.578 -1.6349  2.8606  1.3918
  694MOL0     H91585   2.201  -0.091   5.612 -1.2827  0.7846 -0.5044
  694MOL0     H91586   2.348  -0.090   5.846  2.1723  0.9080  0.6249
  694MOL0     H91587   2.354  -0.215   5.715 -2.7881 -0.0041  3.0729
  694MOL0     H91588   2.535  -0.046   5.625 -0.0839 -3.4588 -1.0808
  694MOL0     H91589   2.591  -0.149   5.770 -0.9824 -0.3272  1.8713
  694MOL0     H91590   1.730   0.619   5.941 -1.4652 -1.0622  1.1392
  694MOL0     H91591   1.498   0.700   5.967 -0.0354  1.0027  0.3250
  694MOL0     H91592   1.262   1.077   5.620 -1.8327 -1.7809 -2.9124
  694MOL0     H91593   1.049   1.200   5.623  0.8584 -0.0713 -1.0361
  694MOL0     H91594   1.569   1.231   6.586  0.8128 -2.5002  2.4257
  694MOL0     H91595   1.810   1.180   6.560  0.1677  0.2106  2.0644
  694MOL0     H91596   2.368   1.460   6.739 -0.5458  2.6129  0.1642
  694MOL0     H91597   2.552   1.496   6.593 -0.4466  0.9438 -2.3342
  694MOL0     H91598   2.690   1.319   6.486  2.9169 -0.5578  0.8815
  694MOL0     H91599   2.760   1.474   6.439  0.6195 -1.1838 -0.2360
  694MOL0     H91600   2.733   1.234   6.239 -1.9396  0.5824  0.4373
  694MOL0     H91601   2.783   1.403   6.215  0.5663  0.4596  0.4531
  694MOL0     H91602   2.922   1.252   6.428 -0.3854  2.8678  0.7162
  694MOL0     H91603   2.972   1.392   6.327 -1.0505  0.0364 -1.8834
  694MOL0     H91604   2.969   1.108   6.220 -0.7387 -0.2484 -1.1153
  694MOL0     H91605   3.017   1.254   6.137 -3.8413 -1.0926 -0.2645
  694MOL0     H91606   3.359   1.162   6.390 -0.3837  1.9700 -0.2524
  694MOL0     H91607   2.342   1.337   6.267 -2.4480  2.3137  0.0454
  694MOL0     H91608   2.123   1.331   6.410 -0.3838  1.6318  1.2927
  695MOL0     O91609   3.694   4.873  10.029  0.7012 -0.5337 -0.5772
  695MOL0     C91610   3.761   4.775  10.043 -0.5232  0.8867 -1.3889
  695MOL0     O91611   3.711   4.651  10.079 -0.0623  0.2248 -0.1269
  695MOL0     C91612   3.575   4.653  10.085  0.6721 -0.1149 -0.6174
  695MOL0     C91613   3.512   4.704  10.200 -0.4915 -0.4575 -0.4579
  695MOL0     C91614   3.378   4.705  10.219 -0.7734  0.1605 -0.5632
  695MOL0     C91615   3.296   4.655  10.114  0.2145  0.1092 -0.6576
  695MOL0     O91616   3.165   4.649  10.133  0.0029 -0.0491  0.0075
  695MOL0     C91617   3.127   4.552  10.234  0.8241 -0.1585  0.6039
  695MOL0     C91618   3.045   4.622  10.345 -0.5102  0.3603  0.1134
  695MOL0     C91619   2.926   4.537  10.383 -0.0255  0.4146 -0.4487
  695MOL0     C91620   2.849   4.582  10.504  0.2324  0.0941 -0.0007
  695MOL0     C91621   2.740   4.479  10.544 -0.3711 -0.0542 -0.2240
  695MOL0     C91622   2.782   4.419  10.676 -0.5431 -1.4661 -0.2999
  695MOL0     C91623   2.680   4.319  10.725  0.3470  0.0099 -0.2567
  695MOL0     C91624   2.658   4.197  10.631 -0.6982  0.7868  0.3626
  695MOL0     N91625   2.558   4.095  10.676  1.0824 -0.4237  0.5320
  695MOL0     C91626   2.422   4.108  10.669  1.2740 -0.2093  0.9980
  695MOL0     C91627   2.367   3.988  10.716 -0.5885  0.2156 -0.1502
  695MOL0     C91628   2.224   3.954  10.734  1.6199 -0.0103 -1.4009
  695MOL0     C91629   2.204   3.905  10.894  0.4502 -0.4763  0.5664
  695MOL0     C91630   2.048   3.872  10.915  0.3905 -0.7693  0.2535
  695MOL0     C91631   1.962   4.001  10.893  0.4268  0.8702  0.6446
  695MOL0     O91632   1.839   3.975  10.963  0.0990 -0.3233 -0.1324
  695MOL0     C91633   1.720   3.997  10.901 -0.3294  0.2788 -0.0879
  695MOL0     C91634   1.608   3.923  10.937 -0.5774 -0.0141 -0.6436
  695MOL0     C91635   1.484   3.958  10.881  1.3601  0.1841 -0.3786
  695MOL0     C91636   1.460   4.068  10.792 -0.2437  0.2654  0.5694
  695MOL0     C91637   1.323   4.095  10.747 -0.2126 -0.1202 -0.3761
  695MOL0     O91638   1.219   4.053  10.832  0.0505  0.6472 -0.4542
  695MOL0     C91639   1.091   4.067  10.797 -0.3842 -0.7497  0.1332
  695MOL0     C91640   1.043   4.000  10.679 -0.2682  0.1169  0.7799
  695MOL0     C91641   0.911   4.016  10.640 -0.3246  0.0961 -1.1752
  695MOL0     C91642   0.824   4.079  10.723 -0.3428 -0.2031 -0.2997
  695MOL0     O91643   0.699   4.087  10.673 -0.0489  0.5680  0.0568
  695MOL0     C91644   0.636   4.214  10.666  0.8545 -0.0571  0.1062
  695MOL0     C91645   0.489   4.182  10.622  0.5489  0.2984  0.4492
  695MOL0     C91646   0.420   4.098  10.738 -1.2148 -0.1644  0.6756
  695MOL0     C91647   0.272   4.075  10.716  0.1548 -0.4285 -0.2058
  695MOL0     C91648   0.214   3.976  10.814  0.0001  0.6099  0.6729
  695MOL0     C91649   0.138   4.034  10.934  0.2695  0.1284 -0.0864
  695MOL0     C91650   0.045   3.923  10.998 -0.2930  0.1300 -0.2201
  695MOL0     C91651   0.112   3.825  11.096  0.4129 -0.0735  0.8166
  695MOL0    Cl91652   0.215   3.907  11.220  0.3038 -0.4786  0.1369
  695MOL0     C91653   0.864   4.125  10.851 -0.1154 -0.4312 -0.7305
  695MOL0     C91654   0.996   4.118  10.890  0.6627 -0.2693 -0.9961
  695MOL0     O91655   1.307   4.173  10.653  1.0954  0.1861 -0.3890
  695MOL0     C91656   1.579   4.135  10.755 -0.2220  0.6872 -1.0279
  695MOL0     C91657   1.701   4.098  10.807  0.4122 -0.6398 -0.1854
  695MOL0     N91658   2.472   3.913  10.762  0.0841  0.2884  0.5092
  695MOL0     N91659   2.577   3.982  10.732 -0.1028  0.8549  0.3878
  695MOL0     C91660   3.355   4.597   9.996  0.8096 -0.4720  0.5472
  695MOL0     C91661   3.493   4.605   9.986  0.2527 -0.0763  0.6398
  695MOL0     C91662   3.903   4.777  10.006 -0.5442  0.6991  0.3982
  695MOL0     C91663   3.986   4.663  10.018 -0.1075 -0.0998  0.1403
  695MOL0     C91664   4.122   4.665   9.992 -0.1518 -0.0211  0.1842
  695MOL0     C91665   4.178   4.784   9.945 -0.2639  0.5438  0.6006
  695MOL0     O91666   4.308   4.778   9.919 -0.3644  0.0426  0.1488
  695MOL0     C91667   4.365   4.892   9.857  0.1716 -0.6937 -0.1597
  695MOL0     C91668   4.518   4.889   9.845  0.4778  0.3535  1.0657
  695MOL0     C91669   4.590   5.024   9.835  0.3406  0.4436  0.5096
  695MOL0     C91670   4.739   5.012   9.856 -0.5288  0.9256  0.6853
  695MOL0     C91671   4.771   5.034   9.998  0.2484 -0.4513 -0.1740
  695MOL0     C91672   4.810   5.061  10.112  0.0353 -0.6941  0.0018
  695MOL0     C91673   4.102   4.905   9.941 -0.9397  0.5310  0.4250
  695MOL0     C91674   3.969   4.894   9.981  0.3659 -0.2948  0.0915
  695MOL0     H91675   3.572   4.744  10.281  0.9826 -1.3726 -1.0486
  695MOL0     H91676   3.332   4.742  10.311  1.7891  0.9689  0.4583
  695MOL0     H91677   3.210   4.485  10.259  0.5453 -0.1270  1.6241
  695MOL0     H91678   3.058   4.484  10.182 -0.3223 -0.3714  2.3440
  695MOL0     H91679   3.002   4.713  10.302 -1.4444 -0.9509 -1.8953
  695MOL0     H91680   3.109   4.632  10.433  0.2821  1.3588 -0.5516
  695MOL0     H91681   2.960   4.435  10.402 -0.8429  0.5837  2.3264
  695MOL0     H91682   2.858   4.525  10.298 -1.8463  0.0009  0.9865
  695MOL0     H91683   2.929   4.598  10.576  0.9248  1.7949 -1.0875
  695MOL0     H91684   2.803   4.678  10.478  1.9299  0.9887  0.1659
  695MOL0     H91685   2.732   4.404  10.465  1.4486 -0.6556  0.1132
  695MOL0     H91686   2.647   4.536  10.551  0.5251  1.4847 -0.3731
  695MOL0     H91687   2.781   4.498  10.752 -2.0373 -3.0279  1.4013
  695MOL0     H91688   2.882   4.377  10.664  0.1054 -0.2229  0.5145
  695MOL0     H91689   2.701   4.284  10.826 -3.0882 -1.5113  0.0653
  695MOL0     H91690   2.584   4.371  10.725  0.0067 -0.2703  3.9022
  695MOL0     H91691   2.748   4.135  10.622 -0.2777  1.2987  0.9634
  695MOL0     H91692   2.631   4.230  10.530 -1.5822  0.1760  0.3864
  695MOL0     H91693   2.377   4.198  10.627  0.7851 -0.3413  1.2325
  695MOL0     H91694   2.195   3.887  10.652  1.0623 -0.9124 -0.4924
  695MOL0     H91695   2.162   4.043  10.730  1.2137 -0.0381  1.5930
  695MOL0     H91696   2.233   3.987  10.959 -1.5021 -0.6842  1.7727
  695MOL0     H91697   2.268   3.819  10.916 -0.3964 -1.9084 -2.1052
  695MOL0     H91698   2.018   3.784  10.858 -1.6526 -1.6832  2.5723
  695MOL0     H91699   2.034   3.848  11.021  0.0338  0.3915  0.4803
  695MOL0     H91700   1.947   4.005  10.785  0.6079 -5.2008  0.0589
  695MOL0     H91701   2.012   4.092  10.928  1.7041  0.1698  0.7147
  695MOL0     H91702   1.601   3.850  11.017 -3.2236  0.1932 -0.6074
  695MOL0     H91703   1.402   3.891  10.905  0.8516 -0.1367 -2.7547
  695MOL0     H91704   1.109   3.947  10.612  0.5763  0.7500  1.1004
  695MOL0     H91705   0.881   3.967  10.548  0.8934 -0.6245 -1.2171
  695MOL0     H91706   0.676   4.288  10.596  2.4223  1.3099  2.2965
  695MOL0     H91707   0.624   4.259  10.765  2.8366 -0.8763  0.7670
  695MOL0     H91708   0.489   4.126  10.528  0.6772 -0.0610  0.6583
  695MOL0     H91709   0.441   4.273  10.586  2.2381  0.9138 -0.3423
  695MOL0     H91710   0.431   4.148  10.835 -1.1514 -0.6290  0.9090
  695MOL0     H91711   0.469   4.001  10.749 -0.2053  0.3074  0.4698
  695MOL0     H91712   0.207   4.163  10.705  1.0934  0.3261  0.0630
  695MOL0     H91713   0.274   4.036  10.613 -2.1215  0.8182 -0.7811
  695MOL0     H91714   0.293   3.914  10.857 -2.8167 -3.4234  0.5411
  695MOL0     H91715   0.147   3.907  10.762  1.0310  0.8974 -1.1563
  695MOL0     H91716   0.067   4.108  10.896 -1.4633 -1.7876 -0.7740
  695MOL0     H91717   0.194   4.085  11.013 -0.2517 -0.7751  0.9030
  695MOL0     H91718  -0.041   3.974  11.043  0.0399  0.0588  0.5044
  695MOL0     H91719   0.012   3.844  10.929  0.4430  0.5180 -1.0387
  695MOL0     H91720   0.180   3.759  11.040  1.8931  1.1098  1.1518
  695MOL0     H91721   0.036   3.762  11.143 -3.5466  2.9098 -0.9773
  695MOL0     H91722   0.785   4.166  10.913 -3.0759 -2.8997 -2.5827
  695MOL0     H91723   1.026   4.163  10.985 -4.4114 -1.3101  1.4811
  695MOL0     H91724   1.570   4.219  10.688 -0.7010  1.1335 -0.4146
  695MOL0     H91725   1.787   4.163  10.790  1.1102 -0.2236  3.9508
  695MOL0     H91726   3.297   4.550   9.918  3.4113  1.8934 -3.1139
  695MOL0     H91727   3.532   4.562   9.895  3.1594  1.9603  0.7928
  695MOL0     H91728   3.935   4.569  10.037 -0.7119 -0.0734 -1.1865
  695MOL0     H91729   4.185   4.577   9.998  0.9109  0.7884  1.4351
  695MOL0     H91730   4.342   4.969   9.932  0.5525 -1.8412  1.1935
  695MOL0     H91731   4.314   4.924   9.766 -0.2281 -4.8293 -1.5846
  695MOL0     H91732   4.554   4.841   9.937  1.6539 -0.5262  0.1895
  695MOL0     H91733   4.558   4.835   9.759 -0.9882 -2.6226  2.1054
  695MOL0     H91734   4.549   5.092   9.911  1.9917  0.4936  1.4094
  695MOL0     H91735   4.572   5.067   9.737  2.4463  1.3952  0.4813
  695MOL0     H91736   4.784   4.917   9.824 -0.0248  1.9960 -1.9936
  695MOL0     H91737   4.785   5.090   9.796  1.7818 -1.2044 -0.5056
  695MOL0     H91738   4.866   5.071  10.203  2.1492 -1.4821 -1.1324
  695MOL0     H91739   4.144   4.991   9.890 -2.1052  0.3098 -0.9856
  695MOL0     H91740   3.905   4.981   9.972 -0.0810 -0.6981 -0.6811
  696MOL0     O91741   0.331  11.159   9.150 -0.9212  0.7344  0.5600
  696MOL0     C91742   0.439  11.207   9.180 -0.6305 -0.1727 -0.1736
  696MOL0     O91743   0.460  11.345   9.206  0.1512  0.6903  0.0030
  696MOL0     C91744   0.344  11.422   9.201  0.2138  0.4715  0.2181
  696MOL0     C91745   0.243  11.412   9.297  0.7906 -0.3483 -0.7268
  696MOL0     C91746   0.111  11.451   9.267 -0.3405 -0.4023 -0.7110
  696MOL0     C91747   0.087  11.522   9.145 -0.5257  0.6064  0.4993
  696MOL0     O91748  -0.036  11.571   9.111 -0.3692 -0.0776 -0.4206
  696MOL0     C91749  -0.141  11.586   9.205 -1.4116 -0.8205 -1.1019
  696MOL0     C91750  -0.243  11.472   9.187 -0.4458 -0.6990  0.6574
  696MOL0     C91751  -0.375  11.482   9.272  0.3034 -0.2809  0.5507
  696MOL0     C91752  -0.426  11.344   9.298 -0.2678 -0.8067  0.5483
  696MOL0     C91753  -0.545  11.343   9.387  0.6916  0.1789  0.2188
  696MOL0     C91754  -0.513  11.401   9.525  0.1606 -0.5691 -0.3942
  696MOL0     C91755  -0.643  11.417   9.604 -1.1237  0.0705 -0.9880
  696MOL0     C91756  -0.607  11.447   9.750 -0.8092  0.1421  0.4715
  696MOL0     N91757  -0.733  11.460   9.829  0.2270  0.6445 -0.0855
  696MOL0     C91758  -0.828  11.557   9.803  0.0637 -0.0411  0.1289
  696MOL0     C91759  -0.939  11.508   9.861 -0.5549 -0.7147 -0.8361
  696MOL0     C91760  -1.078  11.564   9.834 -0.1706 -0.3245  0.0475
  696MOL0     C91761  -1.075  11.709   9.868  0.2238  0.5129  0.3358
  696MOL0     C91762  -1.117  11.730  10.005  0.9888  0.7636 -0.2926
  696MOL0     C91763  -1.271  11.766  10.018 -1.0492 -0.3273  0.0659
  696MOL0     O91764  -1.353  11.651  10.005 -0.2506  0.1818 -1.0206
  696MOL0     C91765  -1.483  11.653  10.030  1.5772 -0.8140 -0.5099
  696MOL0     C91766  -1.562  11.548  10.061 -0.3159 -0.1582 -0.7473
  696MOL0     C91767  -1.701  11.558  10.080  0.3837 -0.5155 -0.1372
  696MOL0     C91768  -1.764  11.676  10.060 -0.9479 -0.4452  0.4858
  696MOL0     C91769  -1.912  11.684  10.065  0.8228 -0.8355 -0.2261
  696MOL0     O91770  -1.975  11.805  10.023 -0.3830  0.0216 -0.2042
  696MOL0     C91771  -2.106  11.814  10.043  0.1024  0.6799  0.6482
  696MOL0     C91772  -2.168  11.806  10.163  0.1523  0.6717 -1.3272
  696MOL0     C91773  -2.307  11.827  10.176 -0.6089 -0.9111 -0.1056
  696MOL0     C91774  -2.384  11.853  10.066  0.1454 -0.8568  0.1809
  696MOL0     O91775  -2.522  11.870  10.089  0.0747  0.0096 -0.6789
  696MOL0     C91776  -2.610  11.829   9.980 -0.3028 -0.7474  0.1870
  696MOL0     C91777  -2.755  11.844  10.028  0.4132  0.2793 -0.6245
  696MOL0     C91778  -2.860  11.792   9.919 -0.1669  0.5414 -0.6344
  696MOL0     C91779  -2.990  11.801   9.988 -0.4767 -0.2758 -0.1450
  696MOL0     C91780  -3.094  11.777   9.876 -0.2484 -0.0931 -0.9092
  696MOL0     C91781  -3.240  11.763   9.915 -0.8267  0.5085 -1.1502
  696MOL0     C91782  -3.342  11.749   9.787  0.9354  0.9994 -0.0482
  696MOL0     C91783  -3.489  11.776   9.818 -0.0902 -0.5104 -0.5545
  696MOL0    Cl91784  -3.553  11.681   9.953 -0.0946 -0.0122  0.1838
  696MOL0     C91785  -2.318  11.869   9.940  0.2107  0.1842 -0.1228
  696MOL0     C91786  -2.182  11.841   9.932 -0.0164  0.2982  0.6014
  696MOL0     O91787  -1.975  11.591  10.117  0.1993 -0.1307  0.1169
  696MOL0     C91788  -1.688  11.796  10.046 -0.3080  0.3214  0.9125
  696MOL0     C91789  -1.547  11.783  10.024 -0.4098  0.8297 -0.2722
  696MOL0     N91790  -0.898  11.409   9.941 -0.2035 -0.5648 -0.2316
  696MOL0     N91791  -0.771  11.390   9.934 -1.1605  0.7031  0.1860
  696MOL0     C91792   0.194  11.541   9.060  1.0842  1.0037  0.2031
  696MOL0     C91793   0.323  11.489   9.082 -0.2904  0.2377  0.7509
  696MOL0     C91794   0.547  11.117   9.203 -0.2907 -0.4127  0.5239
  696MOL0     C91795   0.653  11.149   9.301 -0.0155  0.0849  0.6786
  696MOL0     C91796   0.769  11.068   9.310  0.4820 -0.7068 -0.5358
  696MOL0     C91797   0.790  10.956   9.233  0.8139  1.1625  0.6279
  696MOL0     O91798   0.904  10.882   9.231 -0.0424 -0.0382  1.2415
  696MOL0     C91799   1.016  10.912   9.311  0.8156 -0.5289 -0.4501
  696MOL0     C91800   1.140  10.849   9.246 -0.3627  0.5136  0.2561
  696MOL0     C91801   1.269  10.866   9.343  0.7178 -0.8777  0.0685
  696MOL0     C91802   1.396  10.784   9.299 -0.0566 -0.7594 -0.0154
  696MOL0     C91803   1.377  10.643   9.327  0.6917  0.3290 -1.5697
  696MOL0     C91804   1.374  10.529   9.372  0.7637 -0.1637  0.2834
  696MOL0     C91805   0.682  10.923   9.142  0.2139 -1.0177  0.9063
  696MOL0     C91806   0.571  11.002   9.121  0.1020  1.2091 -0.7296
  696MOL0     H91807   0.266  11.368   9.394 -0.8476 -3.2193 -1.5256
  696MOL0     H91808   0.033  11.435   9.342 -0.5740  0.2955 -0.7980
  696MOL0     H91809  -0.187  11.683   9.183  1.2144  0.9669  0.7300
  696MOL0     H91810  -0.099  11.599   9.305 -1.3155 -2.6744 -0.8729
  696MOL0     H91811  -0.193  11.379   9.214  0.1716  0.0719  2.2994
  696MOL0     H91812  -0.268  11.468   9.081 -1.7183  1.8572  0.7867
  696MOL0     H91813  -0.454  11.542   9.225 -1.5564 -0.0155  3.7549
  696MOL0     H91814  -0.341  11.541   9.357 -1.1117  3.6331 -1.3275
  696MOL0     H91815  -0.449  11.304   9.199 -0.8453 -1.2371  0.8466
  696MOL0     H91816  -0.350  11.280   9.345 -0.1716 -0.3793  0.9765
  696MOL0     H91817  -0.596  11.247   9.393  0.2048  0.4755  1.1818
  696MOL0     H91818  -0.623  11.406   9.342  1.7769 -0.4043 -2.6805
  696MOL0     H91819  -0.471  11.502   9.521  0.7024 -0.7349  0.7312
  696MOL0     H91820  -0.445  11.328   9.571  0.7911  0.0924 -0.2699
  696MOL0     H91821  -0.703  11.497   9.559  0.7023  2.5344  0.7303
  696MOL0     H91822  -0.688  11.318   9.589 -0.6184 -0.7721  2.2378
  696MOL0     H91823  -0.543  11.535   9.752 -2.2231  1.2262 -0.2260
  696MOL0     H91824  -0.546  11.366   9.791  0.8946  1.4069  0.5663
  696MOL0     H91825  -0.832  11.629   9.722  0.5306 -0.7541 -0.5405
  696MOL0     H91826  -1.158  11.511   9.886 -1.0464 -1.0802 -1.9773
  696MOL0     H91827  -1.096  11.568   9.726 -0.7613  0.8707  0.1821
  696MOL0     H91828  -1.146  11.757   9.800 -2.4416  2.5340  4.1286
  696MOL0     H91829  -0.983  11.765   9.849 -1.3157  2.2829 -2.6355
  696MOL0     H91830  -1.091  11.641  10.063  1.5618  0.0483 -1.5888
  696MOL0     H91831  -1.071  11.819  10.047 -0.1882  0.4171  1.8678
  696MOL0     H91832  -1.299  11.836   9.939 -2.2422 -0.8536  0.0026
  696MOL0     H91833  -1.273  11.821  10.113  2.3820  2.7152 -1.3886
  696MOL0     H91834  -1.515  11.452  10.079  2.2895  1.0082 -0.9316
  696MOL0     H91835  -1.763  11.470  10.090 -2.4424  1.5396  2.8655
  696MOL0     H91836  -2.096  11.800  10.243 -1.2427  0.7418 -0.0200
  696MOL0     H91837  -2.349  11.824  10.277 -2.0540  1.5622 -0.5441
  696MOL0     H91838  -2.599  11.723   9.955  0.4178 -0.5035 -0.5610
  696MOL0     H91839  -2.595  11.884   9.886 -1.5936 -0.5277  0.0833
  696MOL0     H91840  -2.761  11.951  10.049  3.3563  0.3905  0.1585
  696MOL0     H91841  -2.764  11.773  10.111 -1.3662 -2.0200 -2.6378
  696MOL0     H91842  -2.830  11.693   9.885  1.6799  1.7596 -2.8174
  696MOL0     H91843  -2.871  11.859   9.833  2.6156  3.0154  0.7546
  696MOL0     H91844  -2.993  11.719  10.060  3.8684 -1.8721 -1.4817
  696MOL0     H91845  -3.006  11.899  10.034  1.2155  1.1987 -2.4790
  696MOL0     H91846  -3.052  11.692   9.821  2.5561  2.6668 -3.4079
  696MOL0     H91847  -3.087  11.857   9.803 -2.8193  0.6317 -0.4520
  696MOL0     H91848  -3.258  11.855   9.970  2.0401  2.0428 -2.5369
  696MOL0     H91849  -3.258  11.677   9.981 -1.5279  1.0582 -0.6136
  696MOL0     H91850  -3.306  11.817   9.709  3.0993  5.8069  4.4769
  696MOL0     H91851  -3.340  11.645   9.753 -2.1798  1.7770 -3.1920
  696MOL0     H91852  -3.547  11.769   9.726  3.3139  1.2969 -3.0630
  696MOL0     H91853  -3.501  11.881   9.847  1.5166 -0.9691  2.1791
  696MOL0     H91854  -2.360  11.905   9.846  0.2646 -1.6810 -0.9059
  696MOL0     H91855  -2.138  11.862   9.835  1.0104  2.9107  1.5423
  696MOL0     H91856  -1.737  11.893  10.053 -1.2163 -0.1172  0.7268
  696MOL0     H91857  -1.500  11.879  10.001 -3.4470  2.2393 -1.1431
  696MOL0     H91858   0.177  11.590   8.965  0.6572  1.5665  0.5656
  696MOL0     H91859   0.400  11.499   9.007 -0.1232 -2.0966  0.5409
  696MOL0     H91860   0.627  11.239   9.355 -1.2074  0.1242  0.0759
  696MOL0     H91861   0.846  11.095   9.381 -1.1574  0.2022  0.9695
  696MOL0     H91862   1.008  10.879   9.415  2.8319  1.2844  0.3612
  696MOL0     H91863   1.026  11.020   9.328  3.0671 -1.1309  2.9806
  696MOL0     H91864   1.123  10.741   9.244  3.2964 -0.2194 -2.5375
  696MOL0     H91865   1.141  10.878   9.141  0.2094  2.9146  0.8450
  696MOL0     H91866   1.256  10.849   9.450  2.8902  1.1048  0.7355
  696MOL0     H91867   1.300  10.971   9.334  0.0744 -0.4565  2.3004
  696MOL0     H91868   1.424  10.793   9.194  0.4599 -2.9691 -0.1111
  696MOL0     H91869   1.480  10.819   9.359 -0.8362 -1.0939  1.3101
  696MOL0     H91870   1.362  10.429   9.409  4.1703 -0.7856  0.0279
  696MOL0     H91871   0.681  10.830   9.086 -0.5082 -0.2939 -0.3482
  696MOL0     H91872   0.503  10.972   9.042 -1.8067  1.6200  0.6813
  697MOL0     O91873   5.767   3.427   2.500 -0.4360 -0.7459  0.5239
  697MOL0     C91874   5.866   3.467   2.429  0.3544  0.1343 -0.6269
  697MOL0     O91875   5.863   3.536   2.313  0.0477 -0.9237 -0.3002
  697MOL0     C91876   5.741   3.571   2.262  0.2172 -0.2673 -0.7722
  697MOL0     C91877   5.645   3.654   2.333  0.0725 -0.7341  0.2987
  697MOL0     C91878   5.528   3.707   2.279  0.0238  0.5533 -0.1458
  697MOL0     C91879   5.511   3.695   2.139  0.5845 -0.2175  0.2408
  697MOL0     O91880   5.387   3.738   2.091 -0.2167  0.2595 -0.2759
  697MOL0     C91881   5.384   3.757   1.949  0.1886  0.8730 -0.4083
  697MOL0     C91882   5.235   3.804   1.922  0.0175  0.0427  0.3729
  697MOL0     C91883   5.216   3.861   1.784  0.4644  0.1389 -0.6147
  697MOL0     C91884   5.083   3.928   1.742 -0.4028 -0.8452 -0.2233
  697MOL0     C91885   4.971   3.822   1.716 -0.7153 -0.4415 -0.2468
  697MOL0     C91886   4.834   3.889   1.707  0.1727 -0.1375 -0.2514
  697MOL0     C91887   4.818   3.989   1.593 -0.6288 -0.4246 -0.4432
  697MOL0     C91888   4.853   3.935   1.446 -1.1082  0.5678  0.1229
  697MOL0     N91889   4.733   3.868   1.382  0.2388 -0.7425  0.4776
  697MOL0     C91890   4.717   3.732   1.342 -0.0944 -0.6184 -0.1832
  697MOL0     C91891   4.602   3.725   1.276  0.2577  0.4001  0.5270
  697MOL0     C91892   4.534   3.605   1.217  0.9040  0.7159 -0.4603
  697MOL0     C91893   4.509   3.506   1.317  0.0189 -0.0371  0.6281
  697MOL0     C91894   4.429   3.562   1.442  0.2935 -0.2596  0.2191
  697MOL0     C91895   4.277   3.537   1.444 -1.2869 -0.3458 -0.0590
  697MOL0     O91896   4.217   3.604   1.549 -0.0899  0.1725 -0.1974
  697MOL0     C91897   4.092   3.559   1.600 -0.2829  0.0663  0.0476
  697MOL0     C91898   4.013   3.460   1.541  0.3127 -0.7047  0.1206
  697MOL0     C91899   3.889   3.413   1.591 -1.0077 -0.3130 -0.7670
  697MOL0     C91900   3.834   3.480   1.703 -0.0193  0.2986 -0.9216
  697MOL0     C91901   3.703   3.450   1.752  0.3948  0.4072 -0.2807
  697MOL0     O91902   3.651   3.510   1.861  0.2522 -0.2947 -1.2526
  697MOL0     C91903   3.518   3.503   1.895 -0.7547  0.9178 -0.1898
  697MOL0     C91904   3.504   3.493   2.034  0.7459 -0.5420 -0.3592
  697MOL0     C91905   3.385   3.437   2.088  0.1998 -0.3204 -0.1321
  697MOL0     C91906   3.277   3.407   2.010  0.3987 -1.3100 -0.0376
  697MOL0     O91907   3.172   3.333   2.070  0.3768  0.6865  0.0832
  697MOL0     C91908   3.096   3.265   1.963  0.8593 -0.1215  0.3279
  697MOL0     C91909   2.981   3.191   2.024  0.2369 -0.0556  0.3474
  697MOL0     C91910   2.915   3.086   1.930 -1.6651  0.4750  0.2459
  697MOL0     C91911   2.769   3.052   1.971 -0.1348  0.1396  0.7771
  697MOL0     C91912   2.732   2.913   1.923 -1.0739 -0.0449  1.1868
  697MOL0     C91913   2.590   2.873   1.927  0.2817 -0.7831  0.2779
  697MOL0     C91914   2.545   2.804   2.059  0.0103 -0.4975 -0.1450
  697MOL0     C91915   2.395   2.826   2.096  0.7430 -0.6695  1.0476
  697MOL0    Cl91916   2.380   2.780   2.268  0.6819  0.0176  0.2635
  697MOL0     C91917   3.282   3.452   1.878 -1.1326 -0.2633  0.5052
  697MOL0     C91918   3.404   3.491   1.815  0.1750 -0.4907 -0.6320
  697MOL0     O91919   3.638   3.381   1.674  0.2387  0.8933  0.0403
  697MOL0     C91920   3.905   3.591   1.758 -0.8116  0.3206  0.5983
  697MOL0     C91921   4.036   3.621   1.714 -0.2591 -0.1503 -0.5322
  697MOL0     N91922   4.536   3.848   1.279 -0.6808 -0.1055 -0.0786
  697MOL0     N91923   4.606   3.931   1.341 -0.2304  0.3959  0.2043
  697MOL0     C91924   5.603   3.616   2.071  0.1649  0.5395  0.0453
  697MOL0     C91925   5.718   3.559   2.127 -1.3488 -0.5086 -0.0894
  697MOL0     C91926   6.003   3.442   2.477  0.1996 -0.1799 -0.1959
  697MOL0     C91927   6.116   3.506   2.421 -0.1760  0.0923  0.0426
  697MOL0     C91928   6.244   3.484   2.476  0.0145 -0.1845 -0.2272
  697MOL0     C91929   6.254   3.406   2.597 -0.3403  0.2077 -0.0686
  697MOL0     O91930   6.384   3.384   2.653  0.7469  0.4392 -0.1507
  697MOL0     C91931   6.388   3.344   2.791  0.3526 -0.4200  0.6019
  697MOL0     C91932   6.356   3.470   2.877 -0.3146  0.0003 -0.4149
  697MOL0     C91933   6.340   3.433   3.029 -0.4820 -0.2027 -0.4592
  697MOL0     C91934   6.434   3.336   3.086 -0.9984 -0.7870  0.6465
  697MOL0     C91935   6.581   3.367   3.076 -0.8505 -0.1754  0.3505
  697MOL0     C91936   6.700   3.406   3.075 -0.7844  0.0757  0.2787
  697MOL0     C91937   6.147   3.334   2.647 -0.1758 -0.0848  0.6568
  697MOL0     C91938   6.018   3.350   2.591  0.2223 -0.2596  1.1135
  697MOL0     H91939   5.664   3.665   2.439  1.9448 -2.0926  0.1556
  697MOL0     H91940   5.470   3.774   2.342 -0.2291 -1.0485  1.4030
  697MOL0     H91941   5.405   3.663   1.897 -2.0699  0.2094 -0.2311
  697MOL0     H91942   5.449   3.843   1.930 -0.5603  1.6507  0.4733
  697MOL0     H91943   5.208   3.882   1.993  1.2286 -0.1777  1.1152
  697MOL0     H91944   5.160   3.726   1.935  0.5323 -0.5615 -0.2291
  697MOL0     H91945   5.231   3.774   1.718  1.5279  0.6733 -1.1034
  697MOL0     H91946   5.297   3.933   1.771 -0.8941  1.8381  0.0553
  697MOL0     H91947   5.049   3.997   1.820 -0.2912  0.8409 -1.5874
  697MOL0     H91948   5.093   3.982   1.647 -3.2542  3.6070  1.6529
  697MOL0     H91949   4.984   3.747   1.795  1.4448  0.8883  0.7409
  697MOL0     H91950   4.998   3.772   1.623 -0.5437  0.6836 -0.8163
  697MOL0     H91951   4.823   3.928   1.808 -0.8930  2.3516 -1.2277
  697MOL0     H91952   4.765   3.809   1.677  0.3124  0.0091 -1.0025
  697MOL0     H91953   4.718   4.034   1.591  0.2490  1.6293 -1.8558
  697MOL0     H91954   4.891   4.070   1.605  1.6553 -2.5178  0.5529
  697MOL0     H91955   4.940   3.868   1.446 -1.1099  0.5589  1.0172
  697MOL0     H91956   4.875   4.017   1.376  1.6243  0.5679  0.8607
  697MOL0     H91957   4.777   3.642   1.354  0.2119 -0.4134 -0.1695
  697MOL0     H91958   4.595   3.562   1.137  2.0679  0.7348  0.4124
  697MOL0     H91959   4.434   3.625   1.176  0.6202 -0.0918 -0.1714
  697MOL0     H91960   4.599   3.457   1.356  0.2687  0.5467  0.8090
  697MOL0     H91961   4.447   3.434   1.265 -0.3380  1.7716 -1.5975
  697MOL0     H91962   4.472   3.521   1.534  0.7309  1.1304  0.6541
  697MOL0     H91963   4.439   3.671   1.438 -2.3486  0.0106 -2.5757
  697MOL0     H91964   4.261   3.429   1.442 -0.0172 -0.5612 -2.7475
  697MOL0     H91965   4.230   3.581   1.356  1.5784  4.2602  0.3854
  697MOL0     H91966   4.055   3.399   1.462 -0.8358 -2.9718  1.1685
  697MOL0     H91967   3.846   3.328   1.540  0.0570 -1.8291  0.7820
  697MOL0     H91968   3.596   3.509   2.088  1.6617  1.4675 -2.3986
  697MOL0     H91969   3.376   3.433   2.197  1.7095  0.1595  0.0305
  697MOL0     H91970   3.163   3.205   1.902  0.4307 -0.2863  0.0137
  697MOL0     H91971   3.051   3.339   1.897  1.2812 -1.7664 -1.9104
  697MOL0     H91972   2.901   3.252   2.068  0.8523  0.2009  1.1306
  697MOL0     H91973   3.027   3.135   2.106 -1.3398 -1.2264  0.4954
  697MOL0     H91974   2.981   3.000   1.917 -0.7612  0.7743  2.4598
  697MOL0     H91975   2.903   3.126   1.829 -0.9415 -2.2465 -1.0198
  697MOL0     H91976   2.756   3.054   2.079 -0.7683  0.6393  0.6932
  697MOL0     H91977   2.699   3.124   1.929  0.2486  0.3757  0.5309
  697MOL0     H91978   2.783   2.834   1.978 -0.1740  0.5721  1.2506
  697MOL0     H91979   2.781   2.914   1.825  1.4198  3.8007  2.2417
  697MOL0     H91980   2.580   2.799   1.848 -0.1062 -1.4888  0.9709
  697MOL0     H91981   2.518   2.949   1.894 -0.7378 -1.7399  0.2255
  697MOL0     H91982   2.560   2.696   2.054 -0.7686 -0.8322  2.6599
  697MOL0     H91983   2.614   2.840   2.136  2.6556 -1.2046 -2.0826
  697MOL0     H91984   2.321   2.761   2.049 -0.8927 -0.6464  3.4271
  697MOL0     H91985   2.372   2.930   2.072 -0.2873 -1.8154 -3.8512
  697MOL0     H91986   3.201   3.453   1.806 -0.4982  1.7554 -0.2363
  697MOL0     H91987   3.416   3.471   1.709  0.4739 -0.1535 -0.6639
  697MOL0     H91988   3.867   3.660   1.832 -0.2244  2.2876 -0.8429
  697MOL0     H91989   4.095   3.702   1.756  1.7393 -1.4104 -0.7947
  697MOL0     H91990   5.581   3.593   1.967 -2.4205 -0.3735  0.7205
  697MOL0     H91991   5.774   3.485   2.071 -5.6781 -2.6817 -2.0240
  697MOL0     H91992   6.102   3.570   2.334 -0.5150  0.3645  0.2954
  697MOL0     H91993   6.337   3.530   2.444 -0.2199  0.0816 -0.5256
  697MOL0     H91994   6.496   3.329   2.801  0.7767 -0.0213 -2.2853
  697MOL0     H91995   6.329   3.253   2.807 -1.2397  0.3940 -0.4287
  697MOL0     H91996   6.434   3.547   2.874 -0.8159  0.4975 -0.8903
  697MOL0     H91997   6.269   3.529   2.846  1.5005  2.9379 -0.3755
  697MOL0     H91998   6.242   3.393   3.057  0.3566 -0.6397  2.0657
  697MOL0     H91999   6.352   3.528   3.081  0.7477 -1.2229  1.2365
  697MOL0     H92000   6.425   3.329   3.195  0.8686 -0.1058  0.8811
  697MOL0     H92001   6.417   3.234   3.050  4.0169 -1.2535 -1.1287
  697MOL0     H92002   6.794   3.455   3.090 -0.6432  1.0537 -2.9594
  697MOL0     H92003   6.154   3.257   2.724  3.5250 -2.2719 -1.5781
  697MOL0     H92004   5.936   3.293   2.633 -1.0663  0.7035  0.0035
  698MOL0     O92005   5.690  11.029   1.036 -0.2483 -0.2226 -0.5454
  698MOL0     C92006   5.734  11.020   0.922  0.3782  0.2710  0.3077
  698MOL0     O92007   5.671  11.002   0.803 -0.4698  0.5296 -0.1801
  698MOL0     C92008   5.533  10.999   0.815  0.3400  0.6447  0.1005
  698MOL0     C92009   5.464  10.888   0.782  1.2473  0.4618 -0.3175
  698MOL0     C92010   5.327  10.876   0.804 -0.5791 -0.9540  0.2517
  698MOL0     C92011   5.256  10.989   0.847 -0.1569  0.3268  0.5317
  698MOL0     O92012   5.114  10.991   0.850 -0.2983 -0.1079 -0.6000
  698MOL0     C92013   5.036  10.903   0.765  0.6464 -0.1080 -0.1171
  698MOL0     C92014   4.946  10.827   0.878 -1.1734  0.2871  0.4093
  698MOL0     C92015   5.024  10.724   0.961 -0.4627  0.6642 -0.4404
  698MOL0     C92016   5.060  10.586   0.899  0.1893 -0.4179  0.8787
  698MOL0     C92017   5.124  10.481   1.000  0.4215 -0.7032  1.0653
  698MOL0     C92018   5.115  10.338   0.946  0.4658 -0.4634  0.0766
  698MOL0     C92019   5.156  10.238   1.046  0.2174 -0.3152  0.1720
  698MOL0     C92020   5.089  10.108   1.003 -0.2886  0.5850 -0.0338
  698MOL0     N92021   5.123   9.992   1.081 -0.3693  0.3113 -0.3364
  698MOL0     C92022   5.235   9.920   1.052 -0.5086 -0.7110 -0.5208
  698MOL0     C92023   5.217   9.795   1.105  0.2260 -1.0501  0.8194
  698MOL0     C92024   5.291   9.667   1.084 -0.5818 -0.3112 -0.0727
  698MOL0     C92025   5.273   9.573   1.199 -0.3443 -0.4045  0.7451
  698MOL0     C92026   5.343   9.629   1.328  0.6226  1.2479  0.5075
  698MOL0     C92027   5.496   9.590   1.327 -0.3046  0.6330 -0.4621
  698MOL0     O92028   5.502   9.450   1.355  0.1994  0.0025  0.4608
  698MOL0     C92029   5.625   9.399   1.366  0.3739  0.5046  0.0021
  698MOL0     C92030   5.720   9.449   1.450  0.7258  0.4014  0.2027
  698MOL0     C92031   5.852   9.395   1.459  0.0882  0.6663  0.1572
  698MOL0     C92032   5.884   9.292   1.367 -0.0728 -0.0638 -0.0449
  698MOL0     C92033   6.015   9.223   1.361  0.2638 -0.5429 -0.7354
  698MOL0     O92034   6.037   9.146   1.475 -0.3149 -0.1382  0.2834
  698MOL0     C92035   6.153   9.067   1.486  0.4191 -0.3711  0.5361
  698MOL0     C92036   6.279   9.100   1.444  0.2674 -0.1000  0.2943
  698MOL0     C92037   6.383   9.012   1.454 -0.0362  0.0567  0.5740
  698MOL0     C92038   6.372   8.885   1.509  0.2786  0.2913  0.1631
  698MOL0     O92039   6.459   8.783   1.524 -0.4586 -0.2947  0.2492
  698MOL0     C92040   6.592   8.811   1.466 -0.3766 -0.3928  0.3520
  698MOL0     C92041   6.693   8.688   1.480  0.8089  0.6933  1.0466
  698MOL0     C92042   6.759   8.683   1.609  0.0429  0.1949  0.0929
  698MOL0     C92043   6.818   8.545   1.646 -0.2142 -1.0680 -0.0764
  698MOL0     C92044   6.884   8.556   1.783  0.2220 -0.0329 -0.6451
  698MOL0     C92045   6.797   8.564   1.907  0.9782 -0.1634 -0.6947
  698MOL0     C92046   6.820   8.453   2.008  0.5357  0.7977 -0.8220
  698MOL0     C92047   6.723   8.452   2.134 -0.0807 -0.3181  0.3206
  698MOL0    Cl92048   6.549   8.438   2.083  0.1406 -0.0875  0.4362
  698MOL0     C92049   6.244   8.855   1.563 -0.8956  0.4081 -0.5434
  698MOL0     C92050   6.139   8.943   1.544 -0.3989 -0.5621 -0.2140
  698MOL0     O92051   6.089   9.228   1.265  0.0357  0.3220  0.1271
  698MOL0     C92052   5.793   9.237   1.282 -0.4667  0.4660  1.1069
  698MOL0     C92053   5.660   9.287   1.283  0.9102 -0.0235 -0.3783
  698MOL0     N92054   5.083   9.789   1.148 -0.4874 -0.3596 -0.1765
  698MOL0     N92055   5.038   9.905   1.147  0.3369 -0.3985  0.2041
  698MOL0     C92056   5.325  11.102   0.874 -0.3439  0.7468 -0.8738
  698MOL0     C92057   5.464  11.107   0.861  0.3617 -0.9489 -0.0514
  698MOL0     C92058   5.878  10.996   0.916 -0.2981  0.0325  0.8129
  698MOL0     C92059   5.959  10.980   1.033  0.5752  0.3311 -0.3910
  698MOL0     C92060   6.100  10.969   1.011 -0.7114  0.3584 -1.1635
  698MOL0     C92061   6.161  10.968   0.889 -0.5338  0.1792 -0.8264
  698MOL0     O92062   6.295  10.949   0.877  0.2362 -0.0368  0.1107
  698MOL0     C92063   6.393  10.886   0.964  0.3898 -0.8189  0.5300
  698MOL0     C92064   6.515  10.861   0.888 -1.2190 -0.0194  0.8103
  698MOL0     C92065   6.564  10.992   0.822 -0.0815 -0.5833 -0.2157
  698MOL0     C92066   6.527  11.007   0.673 -0.9242 -0.1389 -0.0275
  698MOL0     C92067   6.616  11.094   0.604  0.3571  0.1939  0.7165
  698MOL0     C92068   6.693  11.156   0.540  0.9735 -0.7249 -0.3086
  698MOL0     C92069   6.084  10.984   0.774  0.6445  0.6725  1.9514
  698MOL0     C92070   5.941  10.996   0.785  0.3187  0.3629  0.6439
  698MOL0     H92071   5.510  10.796   0.748  3.7147  1.6543 -0.4055
  698MOL0     H92072   5.261  10.792   0.783  1.0174 -2.0545 -0.5147
  698MOL0     H92073   5.085  10.834   0.695 -0.8349 -0.6843 -0.6523
  698MOL0     H92074   4.974  10.974   0.709  0.6350  0.6518  0.8394
  698MOL0     H92075   4.865  10.772   0.830 -0.3745 -0.4738 -0.0904
  698MOL0     H92076   4.888  10.899   0.937 -2.9282 -1.0424  0.3725
  698MOL0     H92077   4.969  10.712   1.054  1.4403 -0.3679  0.6062
  698MOL0     H92078   5.119  10.770   0.992  0.8634 -1.4715 -1.0972
  698MOL0     H92079   4.967  10.555   0.851  0.3967 -2.8591  1.9293
  698MOL0     H92080   5.121  10.612   0.812  2.9070 -2.3310  2.0718
  698MOL0     H92081   5.079  10.486   1.100 -1.8812  1.1911  0.0569
  698MOL0     H92082   5.222  10.526   1.013 -0.6700  1.6769  1.6319
  698MOL0     H92083   5.158  10.336   0.846  0.0091  2.5556 -0.2808
  698MOL0     H92084   5.008  10.330   0.929  0.6487  0.3205 -1.6986
  698MOL0     H92085   5.266  10.238   1.043  0.2082 -0.2102 -0.4546
  698MOL0     H92086   5.118  10.258   1.146 -1.7956 -0.8210 -0.4456
  698MOL0     H92087   5.114  10.076   0.901  0.2516  1.2387 -0.1148
  698MOL0     H92088   4.980  10.116   1.011 -0.3493 -0.4216  0.3333
  698MOL0     H92089   5.320   9.969   1.006 -0.5320  0.4841  0.6370
  698MOL0     H92090   5.399   9.672   1.071 -0.6937  1.1887 -0.6925
  698MOL0     H92091   5.244   9.630   0.992 -0.5481  0.0832 -0.2488
  698MOL0     H92092   5.313   9.474   1.173  2.4275  0.6453  0.6005
  698MOL0     H92093   5.165   9.564   1.212 -0.4007 -1.9033 -0.4699
  698MOL0     H92094   5.341   9.737   1.342  1.0684  1.2047  0.9141
  698MOL0     H92095   5.289   9.583   1.411 -0.8291 -2.9318 -2.3880
  698MOL0     H92096   5.553   9.639   1.406  1.9008 -0.4071 -1.3180
  698MOL0     H92097   5.543   9.624   1.234  0.4683  0.6266 -0.0752
  698MOL0     H92098   5.700   9.535   1.513  3.0541  1.0438  0.1390
  698MOL0     H92099   5.921   9.441   1.529  0.3496 -0.4611  0.6560
  698MOL0     H92100   6.305   9.202   1.415  1.1490 -0.4534 -0.1926
  698MOL0     H92101   6.477   9.045   1.411 -0.4264  2.1484  1.2115
  698MOL0     H92102   6.635   8.900   1.513 -3.5699  0.5807  1.7036
  698MOL0     H92103   6.589   8.845   1.362  2.6120  0.5167  0.4500
  698MOL0     H92104   6.767   8.693   1.399  3.4580 -0.7925  3.2068
  698MOL0     H92105   6.631   8.600   1.465  0.3050  1.4317 -1.7804
  698MOL0     H92106   6.689   8.697   1.692  0.2526 -4.0677  1.2509
  698MOL0     H92107   6.843   8.753   1.612  0.2485 -0.0679  0.8905
  698MOL0     H92108   6.734   8.477   1.636 -0.5557 -0.3967 -2.5202
  698MOL0     H92109   6.898   8.535   1.571 -1.6211  2.7545 -2.3971
  698MOL0     H92110   6.953   8.640   1.796 -2.2390  2.0381 -0.1279
  698MOL0     H92111   6.924   8.454   1.789 -2.1124 -1.0779 -1.4545
  698MOL0     H92112   6.694   8.575   1.873  1.2674  2.2804 -0.9930
  698MOL0     H92113   6.807   8.661   1.955 -4.9482  0.0548  0.7900
  698MOL0     H92114   6.811   8.354   1.963 -3.0554  0.9645 -0.7290
  698MOL0     H92115   6.924   8.470   2.038  0.4055 -0.7834  0.6839
  698MOL0     H92116   6.747   8.543   2.190  0.3685  1.4211 -2.4641
  698MOL0     H92117   6.741   8.363   2.195  0.8077 -0.0191  0.5096
  698MOL0     H92118   6.232   8.756   1.606  3.9848 -1.7058 -3.2592
  698MOL0     H92119   6.036   8.925   1.572  0.1058 -4.1693 -0.2313
  698MOL0     H92120   5.812   9.157   1.211  0.9176  0.6207  1.2802
  698MOL0     H92121   5.591   9.223   1.227  0.3467 -1.3181  1.6833
  698MOL0     H92122   5.263  11.186   0.903 -1.2388 -0.1498 -0.1226
  698MOL0     H92123   5.523  11.193   0.891  3.0278 -1.5441 -2.9477
  698MOL0     H92124   5.919  10.970   1.133 -0.0224 -2.3412 -0.8306
  698MOL0     H92125   6.166  10.964   1.097 -0.2720  0.6420 -1.4802
  698MOL0     H92126   6.354  10.794   1.009 -1.6275 -0.8838 -1.2010
  698MOL0     H92127   6.426  10.960   1.038 -1.1866  3.1321 -2.3583
  698MOL0     H92128   6.588  10.830   0.963  0.9683  2.7415  0.0139
  698MOL0     H92129   6.487  10.782   0.818 -1.6027  1.1162 -0.3739
  698MOL0     H92130   6.673  10.990   0.832  0.0907 -4.7486 -1.1711
  698MOL0     H92131   6.536  11.072   0.891  3.5010 -0.6503  1.5138
  698MOL0     H92132   6.533  10.906   0.632  3.2908 -0.8225  1.7306
  698MOL0     H92133   6.423  11.040   0.669 -1.2195 -0.5212  2.4267
  698MOL0     H92134   6.768  11.217   0.495  0.9076 -0.9429 -0.7189
  698MOL0     H92135   6.137  10.975   0.680  1.1194  0.4250  2.2392
  698MOL0     H92136   5.884  10.999   0.692  0.3451 -1.2889  0.5383
  699MOL0     O92137   5.326  10.190   9.806  0.0635 -0.4666 -0.8231
  699MOL0     C92138   5.214  10.229   9.776  0.3143 -0.0316  0.4734
  699MOL0     O92139   5.120  10.148   9.712  0.2316 -0.6825 -0.3022
  699MOL0     C92140   5.157  10.025   9.677  0.6038  0.4408 -0.3783
  699MOL0     C92141   5.131   9.981   9.546 -0.0989  0.1879  0.6922
  699MOL0     C92142   5.169   9.847   9.512 -0.2855  1.0376  0.4527
  699MOL0     C92143   5.231   9.756   9.603 -0.1657  0.7310  0.9897
  699MOL0     O92144   5.280   9.630   9.566 -0.4638 -0.7478 -0.5369
  699MOL0     C92145   5.217   9.543   9.474  1.1169 -0.3033  0.7675
  699MOL0     C92146   5.317   9.530   9.347 -0.7742 -0.1180  0.4491
  699MOL0     C92147   5.258   9.442   9.235 -0.0731 -0.3358 -0.5115
  699MOL0     C92148   5.244   9.298   9.293  0.5983 -0.0974  0.2181
  699MOL0     C92149   5.224   9.192   9.186  0.0702  1.0115  0.5168
  699MOL0     C92150   5.101   9.200   9.097  0.5517 -0.8296 -0.4458
  699MOL0     C92151   4.963   9.171   9.166  0.7925 -0.3193 -0.2706
  699MOL0     C92152   4.953   9.025   9.219 -0.4860 -0.4630 -0.0078
  699MOL0     N92153   4.818   9.010   9.273 -0.2751  0.5259 -0.8605
  699MOL0     C92154   4.747   8.896   9.255 -0.6739 -0.0094 -0.4052
  699MOL0     C92155   4.631   8.924   9.324 -0.1053 -0.4181  0.6180
  699MOL0     C92156   4.513   8.828   9.311 -0.2604 -0.7208  0.7377
  699MOL0     C92157   4.425   8.826   9.439 -0.3212 -0.2300 -0.1205
  699MOL0     C92158   4.327   8.716   9.430  0.1477  0.0016 -0.0464
  699MOL0     C92159   4.202   8.749   9.522  0.8418 -0.8147  0.0552
  699MOL0     O92160   4.140   8.874   9.482  0.5520  0.2468  0.0363
  699MOL0     C92161   4.107   8.959   9.586  0.5271  0.9432  0.0614
  699MOL0     C92162   4.155   9.089   9.596 -1.1241  0.1969  0.3602
  699MOL0     C92163   4.119   9.175   9.703  0.2597  0.4159  0.1882
  699MOL0     C92164   4.028   9.137   9.803 -0.2045  0.6242 -0.3702
  699MOL0     C92165   3.998   9.225   9.924 -0.6030 -0.2787 -0.3737
  699MOL0     O92166   3.909   9.186  10.015 -0.4175 -0.5175  0.6871
  699MOL0     C92167   3.876   9.276  10.115  1.0233  0.1250  0.6977
  699MOL0     C92168   3.737   9.284  10.145 -0.7355  0.4398 -0.9725
  699MOL0     C92169   3.698   9.362  10.256 -0.0988 -0.7657  0.0474
  699MOL0     C92170   3.790   9.425  10.341  0.8591  0.3262 -0.2795
  699MOL0     O92171   3.766   9.497  10.461 -0.3665  0.1046  0.5729
  699MOL0     C92172   3.639   9.501  10.520  1.2164  0.3008 -0.2223
  699MOL0     C92173   3.663   9.486  10.676 -0.6508  0.3002  0.2277
  699MOL0     C92174   3.529   9.483  10.744  0.2773  0.5438 -0.7076
  699MOL0     C92175   3.528   9.518  10.888 -0.2018  0.7127 -0.1692
  699MOL0     C92176   3.393   9.508  10.950  0.1402  0.1424 -0.0013
  699MOL0     C92177   3.374   9.597  11.076  0.3019  0.5364 -0.2518
  699MOL0     C92178   3.241   9.560  11.141  0.0194 -0.6911 -0.7862
  699MOL0     C92179   3.134   9.515  11.049  1.0975  0.1802  0.6311
  699MOL0    Cl92180   2.997   9.513  11.153 -0.1356  0.0534  0.2192
  699MOL0     C92181   3.921   9.425  10.303  0.4947  2.2460 -0.0653
  699MOL0     C92182   3.962   9.337  10.197  0.2440 -0.5187 -0.1025
  699MOL0     O92183   4.059   9.331   9.921 -0.1782  0.2132 -0.3823
  699MOL0     C92184   3.990   8.997   9.803 -1.0077 -0.0462  0.1779
  699MOL0     C92185   4.029   8.911   9.696  0.0341  0.2024 -0.4796
  699MOL0     N92186   4.634   9.054   9.374 -0.0785 -0.4172 -0.7310
  699MOL0     N92187   4.745   9.099   9.339 -0.0058 -0.1814 -0.5009
  699MOL0     C92188   5.242   9.802   9.739 -0.1989 -0.0562 -0.4520
  699MOL0     C92189   5.208   9.930   9.774  0.2663 -1.6729 -1.4587
  699MOL0     C92190   5.174  10.368   9.817  0.2351  0.5192  0.3709
  699MOL0     C92191   5.268  10.463   9.851  0.4773  0.3881  0.5464
  699MOL0     C92192   5.230  10.592   9.879  0.8759 -0.0769  0.3694
  699MOL0     C92193   5.087  10.621   9.872  0.8771 -0.5189 -0.5559
  699MOL0     O92194   5.033  10.747   9.886  0.0788  1.0969 -0.1849
  699MOL0     C92195   5.108  10.853   9.943  0.7277 -0.2393 -0.5612
  699MOL0     C92196   5.125  10.824  10.096  0.9029  0.1423  0.1411
  699MOL0     C92197   4.991  10.792  10.164 -0.5188  0.3637  0.0896
  699MOL0     C92198   5.012  10.816  10.304  0.2220 -0.2224 -0.4863
  699MOL0     C92199   5.134  10.758  10.364 -0.0193 -0.4266 -0.1816
  699MOL0     C92200   5.214  10.689  10.423  0.8251  0.2614  0.7258
  699MOL0     C92201   4.993  10.521   9.848  0.3759 -0.3297 -0.2695
  699MOL0     C92202   5.037  10.393   9.819  1.0422  0.1210 -1.1866
  699MOL0     H92203   5.074  10.041   9.475  0.5851 -0.3005 -0.3020
  699MOL0     H92204   5.145   9.829   9.408  2.3609  0.9282 -0.2266
  699MOL0     H92205   5.122   9.577   9.430  1.7768  0.1197 -0.3943
  699MOL0     H92206   5.191   9.444   9.514 -1.6053  0.2512  0.5969
  699MOL0     H92207   5.410   9.498   9.396 -0.0596  0.1641 -0.6945
  699MOL0     H92208   5.360   9.624   9.311  1.1591 -1.8639 -2.1768
  699MOL0     H92209   5.339   9.442   9.162  0.3208  0.0399 -0.0826
  699MOL0     H92210   5.165   9.479   9.192 -1.0620 -0.3149  1.5063
  699MOL0     H92211   5.337   9.267   9.343  0.5803 -3.1165 -1.3624
  699MOL0     H92212   5.163   9.295   9.366 -1.1959 -1.9367 -1.7062
  699MOL0     H92213   5.212   9.097   9.239  0.2090 -0.7383 -2.3819
  699MOL0     H92214   5.313   9.181   9.124  0.3780 -0.1019  1.1322
  699MOL0     H92215   5.119   9.122   9.023 -0.3253 -0.3065 -1.2367
  699MOL0     H92216   5.090   9.305   9.066  0.0151 -0.9219 -0.5796
  699MOL0     H92217   4.946   9.238   9.251  0.4252 -1.7912  0.8646
  699MOL0     H92218   4.887   9.195   9.091  2.4528  3.3948 -0.9670
  699MOL0     H92219   5.025   9.009   9.300 -0.2697 -0.2813 -0.1616
  699MOL0     H92220   4.975   8.961   9.133 -0.2859  0.7072 -0.8544
  699MOL0     H92221   4.785   8.814   9.195  2.4243  0.9250  0.0720
  699MOL0     H92222   4.555   8.730   9.290  1.0175  0.5816 -3.7408
  699MOL0     H92223   4.455   8.847   9.220 -1.6652 -2.0312  1.3074
  699MOL0     H92224   4.371   8.921   9.443 -1.2599 -0.5354 -3.0948
  699MOL0     H92225   4.486   8.821   9.530 -0.2779 -0.4272 -0.1615
  699MOL0     H92226   4.300   8.695   9.327 -0.5698 -0.2067  0.1768
  699MOL0     H92227   4.382   8.628   9.465  1.4327  0.8133  0.0549
  699MOL0     H92228   4.238   8.754   9.625  0.3074  2.2983  0.1802
  699MOL0     H92229   4.132   8.669   9.497  0.3260 -0.2155 -0.4527
  699MOL0     H92230   4.226   9.126   9.523 -0.5490 -0.7733  0.4177
  699MOL0     H92231   4.168   9.271   9.715 -1.8057  1.6424 -0.4704
  699MOL0     H92232   3.675   9.215  10.090 -2.6628  0.1314  1.4450
  699MOL0     H92233   3.591   9.366  10.274 -0.4486 -0.4348 -1.8619
  699MOL0     H92234   3.574   9.424  10.478 -1.0148  2.6745 -1.4096
  699MOL0     H92235   3.591   9.595  10.493  2.6224  0.2755 -3.1451
  699MOL0     H92236   3.713   9.578  10.707  0.1642  0.2711 -0.9580
  699MOL0     H92237   3.729   9.405  10.708 -2.7690 -1.9004 -0.6754
  699MOL0     H92238   3.486   9.383  10.735 -1.1343  1.0887 -0.2027
  699MOL0     H92239   3.451   9.538  10.691  1.5665  3.3886  0.1804
  699MOL0     H92240   3.603   9.462  10.945  0.9826  3.1723  0.8526
  699MOL0     H92241   3.555   9.624  10.896 -1.6557  1.0181  1.3895
  699MOL0     H92242   3.369   9.409  10.989 -2.1853  1.2173  1.5359
  699MOL0     H92243   3.315   9.537  10.878 -0.6091 -1.5703  0.0810
  699MOL0     H92244   3.385   9.702  11.048 -1.7874  1.7253  2.8260
  699MOL0     H92245   3.460   9.571  11.138  0.9932  0.2601 -1.3021
  699MOL0     H92246   3.254   9.490  11.224  0.1873  1.5331  1.1854
  699MOL0     H92247   3.208   9.655  11.183  1.7788  0.7598 -2.4837
  699MOL0     H92248   3.150   9.411  11.020  0.4491  0.3850 -0.4927
  699MOL0     H92249   3.118   9.574  10.959 -0.4030  0.4362  1.0265
  699MOL0     H92250   3.999   9.472  10.361  1.8543 -1.3143  1.2915
  699MOL0     H92251   4.070   9.332  10.184  0.2551 -0.3340 -0.0771
  699MOL0     H92252   3.949   8.948   9.891 -1.8115 -1.4897 -0.9584
  699MOL0     H92253   3.994   8.809   9.703 -3.4015  1.3392  3.3547
  699MOL0     H92254   5.288   9.732   9.808  1.0197  0.8706 -0.2865
  699MOL0     H92255   5.217   9.962   9.877 -0.5308 -5.0427 -0.2104
  699MOL0     H92256   5.370  10.430   9.866 -0.2889 -1.7196  1.5690
  699MOL0     H92257   5.302  10.670   9.902 -1.1530  1.6957  1.0931
  699MOL0     H92258   5.047  10.944   9.941 -0.5502 -1.0615 -0.1246
  699MOL0     H92259   5.205  10.861   9.892  0.8649 -0.0236 -0.2708
  699MOL0     H92260   5.200  10.746  10.110  1.2446  0.4887  0.2619
  699MOL0     H92261   5.170  10.918  10.130 -0.2753  0.8436 -0.1722
  699MOL0     H92262   4.971  10.690  10.129  1.3594  0.4136 -1.3213
  699MOL0     H92263   4.915  10.859  10.123 -1.4993 -1.6201 -1.5621
  699MOL0     H92264   4.997  10.922  10.330 -0.5626 -0.2085 -0.9593
  699MOL0     H92265   4.927  10.772  10.357  2.7054 -0.2235  3.9765
  699MOL0     H92266   5.285  10.620  10.463  0.9651  0.7169  1.2743
  699MOL0     H92267   4.888  10.547   9.844  0.9371  2.1008 -0.9558
  699MOL0     H92268   4.965  10.316   9.792  0.3022 -0.5527  2.1905
  700MOL0     O92269   1.413   4.039   2.710 -0.4261  0.4967  0.5901
  700MOL0     C92270   1.398   4.144   2.780 -0.8709 -0.0100  0.5005
  700MOL0     O92271   1.284   4.210   2.799 -0.3126  0.3604 -0.5878
  700MOL0     C92272   1.159   4.154   2.766 -0.5513 -1.2001 -0.0123
  700MOL0     C92273   1.065   4.247   2.733  0.4169  0.9897  0.4260
  700MOL0     C92274   0.943   4.207   2.678  0.8752 -0.9844 -0.0060
  700MOL0     C92275   0.890   4.081   2.677 -0.5025 -0.0233  0.4131
  700MOL0     O92276   0.759   4.051   2.658  0.0111  1.1314 -0.0174
  700MOL0     C92277   0.675   4.121   2.562 -0.0425 -0.2092 -0.0512
  700MOL0     C92278   0.544   4.035   2.564  0.1407  0.9868  0.0061
  700MOL0     C92279   0.434   4.114   2.501 -0.5223  0.3423  1.1312
  700MOL0     C92280   0.312   4.031   2.464  0.5503  0.3485 -0.0114
  700MOL0     C92281   0.185   4.114   2.421 -0.2121  0.5230  0.9334
  700MOL0     C92282   0.127   4.205   2.527  0.3585 -0.0699 -0.2827
  700MOL0     C92283   0.003   4.281   2.490  0.6015 -0.2313 -0.6573
  700MOL0     C92284  -0.127   4.205   2.502  0.4990 -0.3597  0.8725
  700MOL0     N92285  -0.248   4.286   2.469 -0.4282  0.2905 -0.0992
  700MOL0     C92286  -0.303   4.303   2.343  0.2749  0.0531  0.6490
  700MOL0     C92287  -0.425   4.364   2.362 -0.8380 -0.2462  0.1672
  700MOL0     C92288  -0.520   4.382   2.245 -0.4375 -0.4324 -1.0215
  700MOL0     C92289  -0.495   4.523   2.196  0.0621  0.5618  0.1412
  700MOL0     C92290  -0.561   4.558   2.064  0.7241 -0.6939 -0.0105
  700MOL0     C92291  -0.704   4.545   2.067 -0.0259  0.4343 -0.4327
  700MOL0     O92292  -0.756   4.557   1.928 -0.2680 -0.3206  0.4247
  700MOL0     C92293  -0.879   4.510   1.907 -0.5104  0.1800 -0.1337
  700MOL0     C92294  -0.977   4.511   1.998  0.0458 -0.0600  0.0065
  700MOL0     C92295  -1.115   4.505   1.961  0.2772  0.7336 -0.6161
  700MOL0     C92296  -1.152   4.498   1.825  0.0233 -0.5990 -0.3883
  700MOL0     C92297  -1.294   4.494   1.779 -0.0705  0.7444  1.2150
  700MOL0     O92298  -1.324   4.460   1.651  0.2648  0.1742  0.4492
  700MOL0     C92299  -1.441   4.422   1.598  1.0803  0.5676  0.7931
  700MOL0     C92300  -1.572   4.472   1.629  0.0050  0.3311 -0.0691
  700MOL0     C92301  -1.691   4.438   1.555 -0.4467  0.5038 -0.0691
  700MOL0     C92302  -1.689   4.357   1.446 -0.4788  0.0093 -0.5539
  700MOL0     O92303  -1.803   4.338   1.371 -0.0912  0.0611  0.6122
  700MOL0     C92304  -1.815   4.212   1.313 -0.3471 -0.7746  0.1866
  700MOL0     C92305  -1.861   4.112   1.418 -0.3472 -0.0430  0.1335
  700MOL0     C92306  -1.854   3.976   1.351 -0.6617  0.0598 -0.8097
  700MOL0     C92307  -1.932   3.864   1.410  0.5617 -0.2275  1.0480
  700MOL0     C92308  -1.961   3.750   1.303 -0.1595 -0.0963 -0.5922
  700MOL0     C92309  -2.071   3.655   1.359 -0.5579  0.2740 -0.2343
  700MOL0     C92310  -2.215   3.716   1.343  0.0121 -0.2705  0.2257
  700MOL0     C92311  -2.275   3.757   1.476 -0.5117  0.6424  0.4369
  700MOL0    Cl92312  -2.441   3.819   1.443 -0.2773  0.1072  0.4768
  700MOL0     C92313  -1.566   4.302   1.418 -0.2898  0.1777  0.4549
  700MOL0     C92314  -1.448   4.337   1.489  0.4457  0.2171  0.2650
  700MOL0     O92315  -1.377   4.510   1.865  0.7813 -0.0099  0.1208
  700MOL0     C92316  -1.048   4.496   1.742  0.1776  1.5815  1.0839
  700MOL0     C92317  -0.917   4.495   1.777 -1.7912 -0.8605  0.2287
  700MOL0     N92318  -0.433   4.392   2.495 -0.0287 -0.0965 -0.2796
  700MOL0     N92319  -0.329   4.352   2.557  0.8900  1.0849 -0.1489
  700MOL0     C92320   0.981   3.980   2.715 -0.7374 -0.5161  0.6953
  700MOL0     C92321   1.116   4.020   2.753 -0.3386  0.4505 -0.5199
  700MOL0     C92322   1.524   4.211   2.818 -1.7298 -0.6699  0.4639
  700MOL0     C92323   1.646   4.177   2.756 -0.2836 -0.3276  0.1855
  700MOL0     C92324   1.765   4.241   2.791 -0.1339 -0.9271 -0.7067
  700MOL0     C92325   1.759   4.351   2.881 -0.6261  0.6192 -0.5038
  700MOL0     O92326   1.858   4.437   2.923  0.3710  0.7545 -0.1335
  700MOL0     C92327   1.990   4.403   2.884  0.4412 -0.5669  1.4367
  700MOL0     C92328   2.077   4.472   2.985  0.9378  1.3229  0.0481
  700MOL0     C92329   2.221   4.477   2.942 -0.0799 -0.3153 -0.2501
  700MOL0     C92330   2.247   4.590   2.836  1.1018 -0.3463  0.1016
  700MOL0     C92331   2.381   4.587   2.781  0.7789 -0.9284  0.0979
  700MOL0     C92332   2.488   4.608   2.736 -0.5395 -0.9546  0.8341
  700MOL0     C92333   1.638   4.391   2.935 -1.0189  0.4504 -0.3891
  700MOL0     C92334   1.527   4.318   2.902 -0.4500 -0.2151 -0.6064
  700MOL0     H92335   1.091   4.352   2.744 -1.9609  1.5183  1.5362
  700MOL0     H92336   0.867   4.282   2.658  2.8556  0.6827 -1.7387
  700MOL0     H92337   0.716   4.116   2.461  0.4377 -1.1470  0.1816
  700MOL0     H92338   0.667   4.223   2.602 -1.3915 -0.4134  0.2518
  700MOL0     H92339   0.510   4.002   2.663 -1.5839 -0.5717 -1.0206
  700MOL0     H92340   0.555   3.947   2.500 -3.9959  0.4125 -0.2241
  700MOL0     H92341   0.461   4.170   2.411 -3.2044 -2.3261 -1.5791
  700MOL0     H92342   0.404   4.186   2.577 -4.2142 -0.3353  0.5289
  700MOL0     H92343   0.336   3.957   2.387  1.3505 -0.6275  1.1317
  700MOL0     H92344   0.289   3.971   2.553 -1.7458  0.4553 -0.4756
  700MOL0     H92345   0.106   4.052   2.377 -0.0625  1.8602 -1.3187
  700MOL0     H92346   0.213   4.178   2.338 -1.3488 -0.6702 -0.4289
  700MOL0     H92347   0.202   4.279   2.556  0.8803 -1.3601  1.8777
  700MOL0     H92348   0.108   4.150   2.619  1.2670  0.8378  0.4729
  700MOL0     H92349  -0.006   4.380   2.537 -0.4649 -0.8709  0.5230
  700MOL0     H92350   0.014   4.310   2.385 -1.0571  0.5812 -0.6440
  700MOL0     H92351  -0.127   4.162   2.603 -1.0533 -0.6157  0.7940
  700MOL0     H92352  -0.132   4.118   2.436 -1.1044 -1.5466  2.4640
  700MOL0     H92353  -0.257   4.254   2.258 -0.2561 -0.6824  0.7724
  700MOL0     H92354  -0.621   4.364   2.284 -0.7173  0.0130 -1.5177
  700MOL0     H92355  -0.499   4.312   2.164  1.7440 -1.4175  0.3195
  700MOL0     H92356  -0.387   4.527   2.177 -0.0332  3.2983 -0.2268
  700MOL0     H92357  -0.519   4.602   2.267 -0.9393  1.0532 -0.7181
  700MOL0     H92358  -0.536   4.662   2.040  2.5716 -0.8029  1.2306
  700MOL0     H92359  -0.511   4.501   1.986 -1.3087 -0.1593 -1.8005
  700MOL0     H92360  -0.735   4.623   2.137 -0.8667 -1.5478  1.5387
  700MOL0     H92361  -0.739   4.448   2.103 -0.9950  0.7139 -0.6049
  700MOL0     H92362  -0.962   4.548   2.099 -2.7906  1.8906 -0.1795
  700MOL0     H92363  -1.187   4.520   2.040 -0.3733  0.1265 -1.0825
  700MOL0     H92364  -1.581   4.543   1.711 -1.3916 -0.2532  0.3152
  700MOL0     H92365  -1.790   4.478   1.575 -1.1758 -1.0466 -0.4841
  700MOL0     H92366  -1.719   4.187   1.267 -0.5117 -0.5860 -0.2720
  700MOL0     H92367  -1.890   4.215   1.233 -0.8442 -0.5241  0.6590
  700MOL0     H92368  -1.966   4.126   1.446 -0.0341  0.3517  1.1811
  700MOL0     H92369  -1.796   4.115   1.506 -2.9329 -0.1037  2.1774
  700MOL0     H92370  -1.751   3.943   1.340 -1.2713 -2.4137  0.2536
  700MOL0     H92371  -1.893   3.981   1.249  0.9221 -1.0559 -1.4965
  700MOL0     H92372  -1.879   3.823   1.496  3.4108 -2.6943 -1.6527
  700MOL0     H92373  -2.031   3.904   1.438  0.1167  2.5092 -3.4236
  700MOL0     H92374  -1.868   3.698   1.277 -2.5119 -3.9291 -2.1497
  700MOL0     H92375  -1.995   3.802   1.213 -0.7873 -1.3720 -1.1206
  700MOL0     H92376  -2.058   3.622   1.462 -1.3970 -0.0923 -0.2420
  700MOL0     H92377  -2.068   3.570   1.291  0.7745  1.0277 -1.1691
  700MOL0     H92378  -2.218   3.796   1.268 -4.2478  0.1133  0.5617
  700MOL0     H92379  -2.286   3.641   1.305 -0.6197  0.8501 -0.8660
  700MOL0     H92380  -2.208   3.823   1.533  2.9668 -2.7917  0.8026
  700MOL0     H92381  -2.262   3.664   1.532  0.2327 -1.1332 -2.4642
  700MOL0     H92382  -1.539   4.230   1.342  4.2922 -0.5622  2.4610
  700MOL0     H92383  -1.363   4.280   1.453 -0.9453  0.1331 -3.3931
  700MOL0     H92384  -1.072   4.507   1.637 -5.4058  1.6753  2.0634
  700MOL0     H92385  -0.835   4.491   1.706  0.2393 -2.4166  2.4856
  700MOL0     H92386   0.957   3.874   2.716 -5.1854  0.2873  0.1609
  700MOL0     H92387   1.181   3.937   2.782 -0.4961  0.4424 -0.1831
  700MOL0     H92388   1.655   4.081   2.707  0.5954 -1.0217  1.6208
  700MOL0     H92389   1.854   4.194   2.751  0.4368  0.2253 -0.8309
  700MOL0     H92390   2.002   4.453   2.788 -0.5693 -0.5411  1.3162
  700MOL0     H92391   2.006   4.295   2.891  1.2664 -0.5217  0.4858
  700MOL0     H92392   2.027   4.568   2.999 -0.6040  0.4815  0.5687
  700MOL0     H92393   2.071   4.424   3.083 -0.3379 -1.6250 -1.3736
  700MOL0     H92394   2.258   4.378   2.913 -0.4466 -1.0468  1.5861
  700MOL0     H92395   2.287   4.511   3.023  0.0539 -0.0655 -0.4642
  700MOL0     H92396   2.181   4.583   2.750  2.2726  1.2247 -0.9726
  700MOL0     H92397   2.224   4.687   2.879 -0.6220  0.0173 -1.5423
  700MOL0     H92398   2.589   4.621   2.702  0.0334 -0.1471  2.7596
  700MOL0     H92399   1.642   4.469   3.011  1.1995 -0.0145  0.0511
  700MOL0     H92400   1.440   4.363   2.950  2.5130  2.9760  2.4531
  701MOL0     O92401   3.577  10.142   9.186  1.2423 -0.0651 -0.1997
  701MOL0     C92402   3.457  10.120   9.160 -0.6738 -0.6115  0.1064
  701MOL0     O92403   3.358  10.219   9.153 -0.4133  1.1509 -0.2320
  701MOL0     C92404   3.392  10.353   9.154  0.6189  0.0759 -0.7919
  701MOL0     C92405   3.496  10.400   9.071 -0.8612 -0.4883  0.3053
  701MOL0     C92406   3.521  10.538   9.057  0.1104 -0.2216 -0.6299
  701MOL0     C92407   3.445  10.636   9.133 -0.8370  0.4808 -1.1163
  701MOL0     O92408   3.481  10.766   9.124  0.4536  0.2157 -0.6631
  701MOL0     C92409   3.607  10.805   9.069  0.0637  0.7976 -0.4987
  701MOL0     C92410   3.575  10.850   8.920  0.5422 -0.0938  0.7648
  701MOL0     C92411   3.659  10.971   8.886  0.3762  0.8775  0.2001
  701MOL0     C92412   3.805  10.931   8.855  0.2804 -1.3165 -0.1589
  701MOL0     C92413   3.899  11.054   8.855  0.2412 -0.0710 -0.1764
  701MOL0     C92414   3.866  11.156   8.746 -0.1392 -1.2928  0.0538
  701MOL0     C92415   3.891  11.117   8.593 -0.4727  0.2401  0.2602
  701MOL0     C92416   3.844  11.211   8.475 -0.0010  0.5231 -0.2586
  701MOL0     N92417   3.715  11.272   8.512  0.1404  0.6898  0.1962
  701MOL0     C92418   3.594  11.215   8.484 -0.0480  0.0176 -0.1643
  701MOL0     C92419   3.499  11.306   8.530 -0.4614 -0.0888  1.1307
  701MOL0     C92420   3.345  11.306   8.518 -0.0754  0.3562 -0.0131
  701MOL0     C92421   3.303  11.173   8.586  0.3541  0.2739 -0.0319
  701MOL0     C92422   3.153  11.172   8.593  0.7466  0.1911 -0.1497
  701MOL0     C92423   3.111  11.034   8.645 -0.2875 -0.6624 -0.8143
  701MOL0     O92424   3.154  11.002   8.774 -0.7980 -0.1346  1.1706
  701MOL0     C92425   3.092  10.900   8.842  0.2191 -0.8661  0.8437
  701MOL0     C92426   3.144  10.878   8.962 -0.1659  0.2696  0.5385
  701MOL0     C92427   3.080  10.791   9.052  0.6101  0.0441  0.5439
  701MOL0     C92428   2.975  10.715   9.011  0.6554 -0.3844  0.5321
  701MOL0     C92429   2.909  10.629   9.112  0.6378  0.7127 -0.3067
  701MOL0     O92430   2.792  10.576   9.072  0.7810  0.1136 -0.0215
  701MOL0     C92431   2.700  10.515   9.154  0.1311  1.1960  0.1596
  701MOL0     C92432   2.566  10.534   9.121 -0.8353  0.7958  0.7591
  701MOL0     C92433   2.472  10.443   9.179 -0.6011  0.1913 -0.2575
  701MOL0     C92434   2.514  10.341   9.279 -0.1058 -0.4105  0.7760
  701MOL0     O92435   2.421  10.261   9.328 -0.1663  0.2097 -0.4040
  701MOL0     C92436   2.455  10.127   9.352  0.4912  0.2496 -0.0243
  701MOL0     C92437   2.324  10.042   9.368 -0.5928  0.2370  0.5768
  701MOL0     C92438   2.217  10.106   9.462 -0.9672  0.0770  0.2068
  701MOL0     C92439   2.133   9.993   9.536 -0.5591 -0.0994  0.2322
  701MOL0     C92440   2.038  10.028   9.645  0.8257  0.2098  0.1041
  701MOL0     C92441   1.928  10.125   9.600 -0.3520  0.3718 -0.6494
  701MOL0     C92442   1.820  10.129   9.708 -0.5427  0.0033 -0.1842
  701MOL0     C92443   1.701  10.027   9.710  0.0490 -0.1990 -0.5190
  701MOL0    Cl92444   1.729   9.866   9.796  0.2286  0.4771 -0.7217
  701MOL0     C92445   2.653  10.326   9.301  0.2651 -0.8644 -0.1706
  701MOL0     C92446   2.743  10.416   9.243  0.0304  0.1505 -0.2797
  701MOL0     O92447   2.953  10.620   9.228  0.3702  0.6022 -0.1846
  701MOL0     C92448   2.937  10.725   8.881  0.3561  0.5781 -0.3591
  701MOL0     C92449   2.986  10.823   8.793 -0.0673 -1.5111  0.2015
  701MOL0     N92450   3.573  11.407   8.590  0.2121  0.2965  0.5516
  701MOL0     N92451   3.701  11.384   8.585  0.2377  0.2913  0.5307
  701MOL0     C92452   3.350  10.588   9.219 -0.0119 -0.3255  0.5334
  701MOL0     C92453   3.323  10.445   9.230 -0.1923  0.5172 -1.1256
  701MOL0     C92454   3.417   9.984   9.124 -0.8664 -0.1042 -0.8435
  701MOL0     C92455   3.294   9.956   9.060  0.3165 -0.5468 -0.1015
  701MOL0     C92456   3.251   9.834   9.018  0.4020  0.1594 -0.1723
  701MOL0     C92457   3.328   9.729   9.044 -0.2043  0.8967 -0.7968
  701MOL0     O92458   3.285   9.604   9.000  0.6130  0.2845 -0.9666
  701MOL0     C92459   3.143   9.581   8.994  0.2444  0.5191  0.0919
  701MOL0     C92460   3.126   9.430   8.990  0.9172 -0.0327  0.8386
  701MOL0     C92461   2.981   9.388   8.952  1.2860 -0.4069  0.2094
  701MOL0     C92462   2.890   9.353   9.077 -0.7969  0.0909  0.3374
  701MOL0     C92463   2.834   9.461   9.162  0.5050 -0.4387 -0.1400
  701MOL0     C92464   2.769   9.542   9.230 -1.4570  0.0040  0.5385
  701MOL0     C92465   3.455   9.737   9.114  0.8757 -0.0191 -0.2100
  701MOL0     C92466   3.498   9.870   9.152 -0.3893 -0.3711  0.0046
  701MOL0     H92467   3.554  10.330   9.012  2.4750  1.7939  0.6256
  701MOL0     H92468   3.600  10.564   8.986 -0.4617  1.1961 -0.7831
  701MOL0     H92469   3.680  10.724   9.066 -1.4800 -0.6326 -2.0080
  701MOL0     H92470   3.656  10.882   9.130  2.1017 -1.8971  1.5123
  701MOL0     H92471   3.469  10.858   8.896  0.4313 -1.7122  0.5857
  701MOL0     H92472   3.611  10.766   8.859 -2.1848 -0.4482 -0.4974
  701MOL0     H92473   3.660  11.035   8.974  3.4000  0.2800  0.7082
  701MOL0     H92474   3.629  11.021   8.793  2.3819  3.2407  0.7217
  701MOL0     H92475   3.849  10.867   8.932  0.3234 -0.2762  0.7079
  701MOL0     H92476   3.817  10.880   8.759  1.2949 -2.8461  0.7284
  701MOL0     H92477   4.000  11.017   8.839  0.1539 -2.0847  3.0283
  701MOL0     H92478   3.891  11.105   8.952  1.7255  0.9626 -0.5667
  701MOL0     H92479   3.926  11.246   8.759  1.0465 -1.7524 -1.7904
  701MOL0     H92480   3.761  11.182   8.759  0.6097  2.1294  0.1765
  701MOL0     H92481   3.997  11.089   8.585 -0.8360 -2.3799  2.8662
  701MOL0     H92482   3.840  11.022   8.575 -0.3987 -0.3960  3.0468
  701MOL0     H92483   3.848  11.166   8.376  0.6181  0.2989 -0.1372
  701MOL0     H92484   3.918  11.292   8.475 -0.2061  0.7532  1.4558
  701MOL0     H92485   3.567  11.128   8.425 -0.2712  1.9747 -3.1637
  701MOL0     H92486   3.315  11.302   8.413 -0.3219  2.4049 -0.0672
  701MOL0     H92487   3.298  11.395   8.561 -1.6598  1.8170 -4.2073
  701MOL0     H92488   3.328  11.166   8.693 -1.4852  0.2786  0.4386
  701MOL0     H92489   3.338  11.083   8.535 -1.9777 -0.4336 -0.4895
  701MOL0     H92490   3.106  11.243   8.662 -2.2148  0.4130 -2.1668
  701MOL0     H92491   3.112  11.190   8.493  0.4640 -1.1178 -0.2859
  701MOL0     H92492   3.148  10.958   8.575 -1.9724 -1.5391 -0.8056
  701MOL0     H92493   3.002  11.040   8.649 -0.1600  1.4083  1.9727
  701MOL0     H92494   3.224  10.944   8.994  0.7160  0.9536 -2.6728
  701MOL0     H92495   3.121  10.765   9.148 -2.4933  0.5143  2.1317
  701MOL0     H92496   2.552  10.620   9.057  1.4252  1.5090  1.1176
  701MOL0     H92497   2.369  10.442   9.146 -0.7659 -2.9390  0.0546
  701MOL0     H92498   2.517  10.119   9.441 -1.5073 -1.7556  1.2956
  701MOL0     H92499   2.500  10.071   9.270  1.9171  0.7620  0.3816
  701MOL0     H92500   2.347   9.937   9.391  2.7748  0.0923 -2.6127
  701MOL0     H92501   2.279  10.025   9.270  0.8859  0.3083 -0.1367
  701MOL0     H92502   2.145  10.169   9.410 -0.4016  0.2831 -0.3354
  701MOL0     H92503   2.271  10.162   9.540 -2.1583 -0.6818  1.6380
  701MOL0     H92504   2.071   9.942   9.462  0.7175 -0.0940 -0.8736
  701MOL0     H92505   2.202   9.915   9.570 -1.2689 -0.9020 -0.1435
  701MOL0     H92506   2.086  10.070   9.734 -1.5427  1.9025  0.6924
  701MOL0     H92507   1.988   9.934   9.671 -0.2577  0.3539 -1.3298
  701MOL0     H92508   1.892  10.104   9.498  1.8420 -1.4792 -1.1199
  701MOL0     H92509   1.982  10.220   9.593  0.3775 -0.0438 -0.7627
  701MOL0     H92510   1.875  10.136   9.803 -2.0202 -1.7955  0.8818
  701MOL0     H92511   1.762  10.222   9.702 -0.0598  0.3170 -0.0249
  701MOL0     H92512   1.675  10.007   9.605  1.9907 -2.0876 -0.7145
  701MOL0     H92513   1.617  10.071   9.764  0.1588 -2.6254  1.8756
  701MOL0     H92514   2.691  10.253   9.372  0.7174 -0.2152  0.2620
  701MOL0     H92515   2.851  10.406   9.251  0.0895 -0.5135 -1.5831
  701MOL0     H92516   2.854  10.665   8.846 -1.6873  3.8914 -1.6723
  701MOL0     H92517   2.948  10.825   8.691  0.5934  4.6003 -0.2902
  701MOL0     H92518   3.312  10.663   9.289  1.1033  0.3753  0.4076
  701MOL0     H92519   3.250  10.400   9.297  0.5308 -1.7666 -1.7826
  701MOL0     H92520   3.223  10.037   9.049 -1.7442 -2.5093 -2.1411
  701MOL0     H92521   3.159   9.837   8.960 -0.9218  2.9152  1.8200
  701MOL0     H92522   3.107   9.627   8.902 -1.3864 -1.1329 -0.1763
  701MOL0     H92523   3.090   9.632   9.075  0.8361 -1.4142  1.8029
  701MOL0     H92524   3.186   9.383   8.912 -0.0006  1.4547 -0.8276
  701MOL0     H92525   3.160   9.399   9.089  0.5265  0.1218  1.0238
  701MOL0     H92526   2.976   9.290   8.903  0.6837  0.0738 -0.7066
  701MOL0     H92527   2.931   9.456   8.883 -2.9152 -1.7492  1.5850
  701MOL0     H92528   2.801   9.302   9.039 -0.6693  0.2635 -0.2032
  701MOL0     H92529   2.946   9.284   9.141 -1.1508 -1.9989 -1.4651
  701MOL0     H92530   2.706   9.602   9.292 -2.8715 -3.0271  2.2606
  701MOL0     H92531   3.515   9.648   9.125  3.0568  1.4345  0.2162
  701MOL0     H92532   3.599   9.880   9.190 -0.1215  0.3058 -0.8531
  702MOL0     O92533   0.490  10.684   2.027 -0.3899 -0.2227 -0.2202
  702MOL0     C92534   0.535  10.656   1.918 -0.8824  0.1988 -0.3903
  702MOL0     O92535   0.475  10.588   1.817  0.3612 -0.8226  0.7806
  702MOL0     C92536   0.351  10.544   1.842  0.4389  0.7651 -0.3178
  702MOL0     C92537   0.251  10.629   1.891 -0.1689 -0.9444 -0.2319
  702MOL0     C92538   0.123  10.580   1.929  0.9120 -0.1276 -0.6570
  702MOL0     C92539   0.090  10.448   1.910  1.1564  0.3369 -0.0861
  702MOL0     O92540  -0.044  10.404   1.931 -0.1180 -0.4818 -0.2753
  702MOL0     C92541  -0.147  10.487   1.978  0.9418  0.6005 -1.4772
  702MOL0     C92542  -0.290  10.425   1.977  0.1065  0.3606  1.2214
  702MOL0     C92543  -0.405  10.530   2.010  0.4564 -0.0028 -0.1824
  702MOL0     C92544  -0.548  10.480   2.049 -0.9033 -0.2065 -0.3878
  702MOL0     C92545  -0.632  10.590   2.088  0.4133  0.0413 -0.3069
  702MOL0     C92546  -0.766  10.525   2.135 -0.0700  0.1031  0.1691
  702MOL0     C92547  -0.781  10.424   2.260 -0.0817  0.0023 -0.3625
  702MOL0     C92548  -0.698  10.457   2.383 -0.2503  0.4277 -0.5904
  702MOL0     N92549  -0.741  10.570   2.463 -0.0050 -0.4550  0.2159
  702MOL0     C92550  -0.727  10.709   2.436 -0.1183  0.1882 -0.1849
  702MOL0     C92551  -0.778  10.768   2.545 -0.3574 -0.1098  0.3145
  702MOL0     C92552  -0.793  10.921   2.555 -0.6652  0.4601  0.3181
  702MOL0     C92553  -0.918  10.975   2.501  0.4409 -0.5262  0.0884
  702MOL0     C92554  -1.050  10.944   2.578 -0.8701  0.5022 -0.0464
  702MOL0     C92555  -1.150  11.056   2.559 -0.8181  0.1528  0.0476
  702MOL0     O92556  -1.256  11.010   2.647  0.2375  0.5737  0.0138
  702MOL0     C92557  -1.376  11.072   2.626 -0.6177  0.4913 -0.6364
  702MOL0     C92558  -1.491  10.996   2.634  0.0886  0.1532  1.4952
  702MOL0     C92559  -1.611  11.058   2.609  0.7778  0.3842 -0.5478
  702MOL0     C92560  -1.619  11.194   2.591  0.2263 -0.2002  0.1905
  702MOL0     C92561  -1.754  11.266   2.591 -0.6302  0.1500 -0.2522
  702MOL0     O92562  -1.742  11.403   2.578  0.2293 -0.5989 -0.3043
  702MOL0     C92563  -1.852  11.488   2.592  0.2019  0.4723  0.0331
  702MOL0     C92564  -1.855  11.596   2.685 -0.4225 -0.4827  0.0777
  702MOL0     C92565  -1.966  11.687   2.704  0.3389  1.1312 -0.6070
  702MOL0     C92566  -2.085  11.674   2.633  0.2657  0.6650  0.7094
  702MOL0     O92567  -2.200  11.740   2.642 -0.4435  0.3981  0.1743
  702MOL0     C92568  -2.206  11.875   2.701  0.1748 -0.4843  0.1412
  702MOL0     C92569  -2.360  11.897   2.708  0.4060  1.0467 -0.3418
  702MOL0     C92570  -2.412  11.951   2.574  0.4562 -1.2092  0.1959
  702MOL0     C92571  -2.569  11.953   2.566 -0.3356 -0.8108  0.5485
  702MOL0     C92572  -2.629  12.033   2.449 -0.5632 -0.5797 -0.0996
  702MOL0     C92573  -2.595  12.174   2.457  0.3377  0.0763 -0.3377
  702MOL0     C92574  -2.661  12.255   2.353 -0.2616 -0.2099 -0.1764
  702MOL0     C92575  -2.613  12.410   2.369 -0.3612  0.5323 -0.0935
  702MOL0    Cl92576  -2.683  12.517   2.245 -0.1779 -0.3548 -0.5262
  702MOL0     C92577  -2.076  11.574   2.531  0.5216 -0.1699  0.6050
  702MOL0     C92578  -1.972  11.481   2.514 -0.6473  0.0235 -0.2030
  702MOL0     O92579  -1.853  11.207   2.617  0.1696 -0.0496  0.1082
  702MOL0     C92580  -1.504  11.274   2.571  0.0422  0.3358  0.2422
  702MOL0     C92581  -1.385  11.209   2.587 -0.3817  0.7374 -0.1732
  702MOL0     N92582  -0.816  10.673   2.643  0.3797 -0.1922  0.3275
  702MOL0     N92583  -0.788  10.559   2.597  0.0307 -0.4848  0.2372
  702MOL0     C92584   0.191  10.371   1.853 -0.7026  0.3950 -0.4729
  702MOL0     C92585   0.315  10.409   1.818  0.2767 -0.5994 -0.4643
  702MOL0     C92586   0.683  10.680   1.914 -0.0367  0.5751 -0.3001
  702MOL0     C92587   0.747  10.635   1.803  0.5302 -0.1774  0.3644
  702MOL0     C92588   0.879  10.644   1.794  0.0164  0.2487 -0.6979
  702MOL0     C92589   0.955  10.701   1.890  0.3512  0.2128 -0.3899
  702MOL0     O92590   1.092  10.718   1.904  0.6755 -0.8346  0.5496
  702MOL0     C92591   1.175  10.642   1.814 -0.4545  0.4988  0.3170
  702MOL0     C92592   1.323  10.650   1.848  0.3843 -0.2059  0.2175
  702MOL0     C92593   1.353  10.789   1.896 -0.1562  0.1184  0.4585
  702MOL0     C92594   1.495  10.842   1.878 -0.1881 -0.7025 -0.3596
  702MOL0     C92595   1.596  10.789   1.972 -0.5161 -0.3249  0.4714
  702MOL0     C92596   1.693  10.746   2.034  0.2227 -1.0723  0.8349
  702MOL0     C92597   0.894  10.758   2.006  0.1400 -0.7781 -0.4710
  702MOL0     C92598   0.757  10.745   2.019  0.8878  0.6197 -0.0351
  702MOL0     H92599   0.270  10.734   1.908  2.0833 -1.2343 -0.6085
  702MOL0     H92600   0.039  10.642   1.956 -0.1890 -1.3372 -1.1708
  702MOL0     H92601  -0.153  10.561   1.898 -1.4174  0.6227 -1.3603
  702MOL0     H92602  -0.132  10.535   2.075 -1.6121  2.2887 -1.8026
  702MOL0     H92603  -0.302  10.338   2.041 -0.7719 -1.1004 -0.8123
  702MOL0     H92604  -0.311  10.381   1.879  0.4347  0.8119  0.9434
  702MOL0     H92605  -0.409  10.588   1.917 -1.0456  0.2345  0.0042
  702MOL0     H92606  -0.375  10.608   2.080 -1.5738  1.6942 -1.0878
  702MOL0     H92607  -0.590  10.423   1.965  3.6163 -5.0144  0.0810
  702MOL0     H92608  -0.523  10.410   2.129  0.0512  0.3372 -0.1965
  702MOL0     H92609  -0.662  10.654   2.005 -0.8393 -2.1288 -1.6334
  702MOL0     H92610  -0.585  10.657   2.161  0.1665  1.0900 -1.0895
  702MOL0     H92611  -0.809  10.468   2.053  0.2734 -1.7291  1.2098
  702MOL0     H92612  -0.833  10.609   2.154 -1.2213 -0.5066 -1.0798
  702MOL0     H92613  -0.885  10.404   2.287  0.6277 -1.6039  1.4095
  702MOL0     H92614  -0.748  10.325   2.228 -1.7587 -1.0365  0.9550
  702MOL0     H92615  -0.593  10.465   2.353  0.8804 -2.9910  1.8568
  702MOL0     H92616  -0.709  10.364   2.440  1.1436 -0.2553 -1.3688
  702MOL0     H92617  -0.694  10.747   2.340 -1.1313  1.3941 -0.0795
  702MOL0     H92618  -0.711  10.967   2.500 -1.2190  0.7695 -0.2641
  702MOL0     H92619  -0.784  10.946   2.661 -1.8452  2.4202  0.0055
  702MOL0     H92620  -0.925  10.951   2.394  0.5143  1.1882 -0.3305
  702MOL0     H92621  -0.907  11.083   2.513 -0.8160 -0.3572 -0.1956
  702MOL0     H92622  -1.091  10.847   2.546 -0.3764  0.6953 -1.3256
  702MOL0     H92623  -1.022  10.926   2.682 -2.3656 -2.0180  0.0126
  702MOL0     H92624  -1.167  11.060   2.451  3.2099 -1.1407 -0.8212
  702MOL0     H92625  -1.114  11.154   2.589  1.5763 -0.1179 -1.6512
  702MOL0     H92626  -1.485  10.888   2.644  1.9532  0.3882  3.6144
  702MOL0     H92627  -1.710  11.014   2.606 -0.9387  3.8515 -3.4850
  702MOL0     H92628  -1.765  11.623   2.740  0.2290 -0.8602 -0.7887
  702MOL0     H92629  -1.952  11.764   2.778  4.2800  1.6465 -1.6237
  702MOL0     H92630  -2.165  11.958   2.643 -1.4811 -0.8255 -1.6484
  702MOL0     H92631  -2.160  11.879   2.800  0.3462 -1.2632  0.0940
  702MOL0     H92632  -2.386  11.977   2.777 -2.0450 -0.9123  1.1773
  702MOL0     H92633  -2.408  11.802   2.732  2.1126  0.7084  2.1966
  702MOL0     H92634  -2.391  11.883   2.492 -1.5665 -1.4665 -0.1603
  702MOL0     H92635  -2.367  12.049   2.552  0.5762 -1.4429 -0.6127
  702MOL0     H92636  -2.605  11.855   2.535  1.6814 -1.2355 -0.6425
  702MOL0     H92637  -2.606  11.991   2.661 -0.0175  1.5046 -0.1875
  702MOL0     H92638  -2.738  12.023   2.445 -0.7517  1.2655 -0.2810
  702MOL0     H92639  -2.597  11.997   2.351  1.6653  0.6466  0.1187
  702MOL0     H92640  -2.487  12.191   2.455  0.2151  0.9710 -2.6171
  702MOL0     H92641  -2.645  12.202   2.551 -1.4572 -0.8923 -0.9551
  702MOL0     H92642  -2.618  12.220   2.259  0.6032  0.9873 -0.2567
  702MOL0     H92643  -2.770  12.262   2.352 -0.2095  0.7796 -1.3561
  702MOL0     H92644  -2.505  12.419   2.374 -0.5897  5.1528  1.3831
  702MOL0     H92645  -2.635  12.459   2.464  2.2316  1.5008  0.0913
  702MOL0     H92646  -2.165  11.572   2.469  1.2007  1.3176 -0.4551
  702MOL0     H92647  -1.990  11.406   2.437  0.3471 -0.0165 -0.4009
  702MOL0     H92648  -1.503  11.381   2.557  2.2309  0.2757 -0.3946
  702MOL0     H92649  -1.293  11.262   2.564 -0.3970  0.9124  0.1722
  702MOL0     H92650   0.170  10.267   1.832  0.3793 -0.1486  0.9754
  702MOL0     H92651   0.381  10.345   1.760 -0.2368 -0.6612 -0.9844
  702MOL0     H92652   0.688  10.606   1.717  2.9908  0.8247 -1.7890
  702MOL0     H92653   0.931  10.607   1.707  0.7381  0.7374 -0.4826
  702MOL0     H92654   1.174  10.667   1.707  1.4660 -0.3086  0.0731
  702MOL0     H92655   1.140  10.538   1.818 -1.8113  0.9856  1.9865
  702MOL0     H92656   1.342  10.584   1.933  0.4943 -1.2420 -0.5881
  702MOL0     H92657   1.375  10.628   1.754 -0.2189  1.5881 -0.5963
  702MOL0     H92658   1.329  10.802   2.002  0.5490 -1.4544  0.8386
  702MOL0     H92659   1.285  10.847   1.832 -1.1048  1.7495  2.8123
  702MOL0     H92660   1.531  10.794   1.786  1.5505 -0.7628  0.3035
  702MOL0     H92661   1.514  10.949   1.865  2.0599 -1.1389 -1.2746
  702MOL0     H92662   1.779  10.699   2.077 -0.2443 -1.2946  1.5422
  702MOL0     H92663   0.951  10.802   2.087 -0.9559  1.3315 -0.7599
  702MOL0     H92664   0.705  10.789   2.104 -1.7855 -1.7908 -0.2759
  703MOL0     O92665   0.800   5.514   7.674  0.6238  0.0659  0.0494
  703MOL0     C92666   0.796   5.408   7.607  0.5171 -0.2742  0.4913
  703MOL0     O92667   0.803   5.295   7.668 -0.4084  0.3213 -0.0846
  703MOL0     C92668   0.843   5.174   7.612 -0.7857 -0.0418  0.0589
  703MOL0     C92669   0.950   5.175   7.506  0.4006 -0.3132 -1.6792
  703MOL0     C92670   0.966   5.042   7.453 -0.1084 -0.5344 -0.4961
  703MOL0     C92671   0.899   4.925   7.489  0.5599 -0.9161  0.0172
  703MOL0     O92672   0.914   4.808   7.425 -0.3901  0.6094  0.2287
  703MOL0     C92673   1.041   4.754   7.415 -0.1976 -0.1476  0.0906
  703MOL0     C92674   1.076   4.753   7.272 -0.6045 -0.3788 -0.5860
  703MOL0     C92675   1.211   4.684   7.253 -0.6954  0.3250  0.9967
  703MOL0     C92676   1.275   4.717   7.100 -0.1908  0.8659 -0.1407
  703MOL0     C92677   1.418   4.656   7.105  0.6372  0.1409  0.3057
  703MOL0     C92678   1.415   4.504   7.065 -0.4146 -0.8729  0.4125
  703MOL0     C92679   1.527   4.416   7.089 -0.1779 -0.0612  0.2664
  703MOL0     C92680   1.606   4.450   7.214 -0.3135 -0.1641  0.7512
  703MOL0     N92681   1.701   4.344   7.248 -0.1743  0.1526 -0.3304
  703MOL0     C92682   1.801   4.307   7.173 -0.2082 -0.5793 -0.1140
  703MOL0     C92683   1.857   4.221   7.257  0.1075  0.6391 -0.0523
  703MOL0     C92684   1.991   4.160   7.216  0.7239  0.5644 -0.6389
  703MOL0     C92685   2.118   4.211   7.282  0.2137 -0.2084  0.3548
  703MOL0     C92686   2.234   4.108   7.260  0.8601  0.0232 -0.4625
  703MOL0     C92687   2.368   4.183   7.268  0.5856 -0.6286 -0.8242
  703MOL0     O92688   2.371   4.288   7.170 -0.1240  0.5589  0.3586
  703MOL0     C92689   2.491   4.351   7.160  0.5814  0.4826 -1.5757
  703MOL0     C92690   2.611   4.336   7.236 -0.6288  0.0596 -0.0707
  703MOL0     C92691   2.721   4.420   7.211 -0.2362  0.3121  0.1397
  703MOL0     C92692   2.717   4.511   7.103 -0.0199  0.1478 -0.1552
  703MOL0     C92693   2.839   4.587   7.067  0.2585 -0.1093 -0.2414
  703MOL0     O92694   2.846   4.626   6.934 -0.1870 -0.2777  0.4868
  703MOL0     C92695   2.954   4.694   6.883 -0.1795 -0.8307  0.0760
  703MOL0     C92696   2.968   4.837   6.892  0.9104  0.0523  0.4697
  703MOL0     C92697   3.093   4.893   6.850 -0.7919  0.6445 -0.2343
  703MOL0     C92698   3.208   4.810   6.804  0.9047 -0.2726 -0.3279
  703MOL0     O92699   3.332   4.859   6.776  0.1512 -0.4816  0.9146
  703MOL0     C92700   3.336   4.985   6.703 -0.3035 -0.4133  0.7251
  703MOL0     C92701   3.492   5.012   6.698  0.8059  0.0572 -0.3252
  703MOL0     C92702   3.556   4.928   6.586 -0.5350  1.3016 -0.4659
  703MOL0     C92703   3.703   4.950   6.584  0.3839 -0.4965 -0.6068
  703MOL0     C92704   3.786   4.908   6.459 -0.0624  0.5777  0.5602
  703MOL0     C92705   3.750   4.767   6.409 -0.6595 -0.5283  1.0713
  703MOL0     C92706   3.840   4.737   6.285  0.3511 -0.3624 -0.0109
  703MOL0     C92707   3.990   4.722   6.311 -0.0099  0.1563 -0.3872
  703MOL0    Cl92708   4.086   4.674   6.171 -0.1591 -0.2605  0.2536
  703MOL0     C92709   3.174   4.674   6.787  0.7116 -0.2638  0.0664
  703MOL0     C92710   3.055   4.618   6.832 -0.0761  0.7355  0.2238
  703MOL0     O92711   2.912   4.624   7.155 -0.0964 -0.6334  0.4124
  703MOL0     C92712   2.600   4.525   7.034  0.3953 -0.4766 -1.1280
  703MOL0     C92713   2.486   4.457   7.073 -0.0578 -0.7733  0.3531
  703MOL0     N92714   1.787   4.182   7.365 -0.0359 -0.1417  0.4866
  703MOL0     N92715   1.689   4.269   7.367 -0.7927 -0.5797 -0.0082
  703MOL0     C92716   0.811   4.935   7.597  0.0231  0.1540  0.2288
  703MOL0     C92717   0.777   5.053   7.652  0.0975 -0.4460 -0.6112
  703MOL0     C92718   0.745   5.430   7.465 -0.2666 -0.1307  1.1964
  703MOL0     C92719   0.674   5.332   7.385 -0.0567  0.6362 -0.8516
  703MOL0     C92720   0.645   5.349   7.251 -0.2163  1.3522 -0.0224
  703MOL0     C92721   0.675   5.461   7.183 -0.3542  0.0987 -0.6514
  703MOL0     O92722   0.640   5.475   7.051 -0.3162  1.1365  0.5955
  703MOL0     C92723   0.519   5.404   7.008 -0.1128  0.3923  0.5815
  703MOL0     C92724   0.428   5.510   6.942  0.2201  0.9524 -0.1752
  703MOL0     C92725   0.499   5.622   6.872 -0.7399  0.2766  0.0648
  703MOL0     C92726   0.572   5.593   6.743 -0.4950  0.2326 -0.2999
  703MOL0     C92727   0.475   5.588   6.636 -0.7564 -0.8742  0.8417
  703MOL0     C92728   0.390   5.601   6.546  0.1997  0.1253 -0.5968
  703MOL0     C92729   0.743   5.565   7.254 -1.0294  0.0707  0.7452
  703MOL0     C92730   0.780   5.541   7.386 -0.1055 -0.6750  0.2446
  703MOL0     H92731   1.016   5.251   7.466  1.0916 -1.2555 -2.3543
  703MOL0     H92732   1.041   5.047   7.374  1.7838 -0.9432  1.1947
  703MOL0     H92733   1.030   4.653   7.455 -3.0687  0.2502  0.5102
  703MOL0     H92734   1.118   4.799   7.478 -0.0941  0.6412 -0.5760
  703MOL0     H92735   1.085   4.859   7.244  0.9155 -0.2812  0.1632
  703MOL0     H92736   1.002   4.710   7.204 -0.8821 -0.4867 -0.2174
  703MOL0     H92737   1.205   4.576   7.269 -2.9758 -0.3722 -3.0240
  703MOL0     H92738   1.279   4.729   7.326 -0.5348 -0.8138  1.5721
  703MOL0     H92739   1.223   4.669   7.017  0.3889 -0.3778  0.1884
  703MOL0     H92740   1.261   4.823   7.078 -1.8008  0.3112 -1.9894
  703MOL0     H92741   1.461   4.670   7.205 -1.2244  0.6896  1.0761
  703MOL0     H92742   1.464   4.720   7.030 -2.9229  0.8680 -1.4579
  703MOL0     H92743   1.390   4.514   6.959 -1.7719  1.3601  0.8658
  703MOL0     H92744   1.325   4.452   7.099 -1.1535  0.3363  0.3769
  703MOL0     H92745   1.490   4.314   7.080  0.8599 -0.4038 -0.1794
  703MOL0     H92746   1.602   4.437   7.013  1.4449 -3.5481  0.7344
  703MOL0     H92747   1.544   4.468   7.303  2.0643  1.3689  2.2266
  703MOL0     H92748   1.651   4.549   7.199  0.4099 -0.6155 -0.1706
  703MOL0     H92749   1.841   4.362   7.088  4.1207 -1.0270  1.4103
  703MOL0     H92750   2.002   4.155   7.108 -0.3196  1.2126 -0.7871
  703MOL0     H92751   1.985   4.055   7.248  2.1555  1.0887  1.5812
  703MOL0     H92752   2.106   4.219   7.391  1.4397  1.4461  0.4035
  703MOL0     H92753   2.140   4.310   7.243  1.7164 -0.8674 -0.5538
  703MOL0     H92754   2.246   4.031   7.336  4.0817  0.6218 -0.2258
  703MOL0     H92755   2.222   4.056   7.164  2.1372  1.2061 -1.2993
  703MOL0     H92756   2.447   4.108   7.256  1.9370  0.8046 -1.0799
  703MOL0     H92757   2.394   4.222   7.367 -2.3483 -0.7950  0.1045
  703MOL0     H92758   2.612   4.269   7.321 -0.3944 -0.5729 -0.5701
  703MOL0     H92759   2.811   4.397   7.266  0.3214 -2.2754 -1.6834
  703MOL0     H92760   2.891   4.904   6.930 -0.5932 -0.4101 -1.5255
  703MOL0     H92761   3.103   4.998   6.874 -1.2491  0.1902  2.2659
  703MOL0     H92762   3.296   5.069   6.759  1.1751  2.9101 -2.7481
  703MOL0     H92763   3.297   4.981   6.600 -2.5127 -0.4668  1.5088
  703MOL0     H92764   3.536   4.979   6.793  0.5348  2.1695  0.5794
  703MOL0     H92765   3.508   5.120   6.689 -1.5679  0.8390  2.8520
  703MOL0     H92766   3.504   4.956   6.493 -3.5929  0.5010  0.8831
  703MOL0     H92767   3.540   4.822   6.609  4.6703  0.3710 -0.0435
  703MOL0     H92768   3.717   5.056   6.608  0.2451 -0.5809 -0.1359
  703MOL0     H92769   3.741   4.887   6.665 -0.1696 -1.3743 -1.0162
  703MOL0     H92770   3.891   4.926   6.481  0.1767  2.1739 -1.5927
  703MOL0     H92771   3.771   4.978   6.376  1.7936  0.2090 -0.1202
  703MOL0     H92772   3.650   4.769   6.365  0.3516 -1.4774 -1.4643
  703MOL0     H92773   3.758   4.699   6.495 -1.5816 -0.5208  1.1738
  703MOL0     H92774   3.807   4.642   6.240 -1.2910 -0.0347  0.4382
  703MOL0     H92775   3.816   4.812   6.209  0.8633 -2.3115 -2.2525
  703MOL0     H92776   4.004   4.649   6.391 -1.6842 -0.0389 -0.2512
  703MOL0     H92777   4.027   4.821   6.339 -2.1560  0.8300  0.1998
  703MOL0     H92778   3.253   4.609   6.749  1.8260  0.2164  1.4430
  703MOL0     H92779   3.026   4.515   6.812 -0.5681  0.5904  1.5568
  703MOL0     H92780   2.592   4.605   6.961 -2.2756  0.2298 -0.2046
  703MOL0     H92781   2.386   4.482   7.037 -0.4270  1.0975  2.4814
  703MOL0     H92782   0.764   4.845   7.633  1.2167 -0.5739  0.0210
  703MOL0     H92783   0.702   5.062   7.731  0.9297  2.7106 -0.0298
  703MOL0     H92784   0.645   5.248   7.448  1.1703  1.7380  1.3029
  703MOL0     H92785   0.592   5.271   7.197  2.4091  0.3783 -1.3609
  703MOL0     H92786   0.463   5.344   7.080 -0.4320 -1.6213 -1.2082
  703MOL0     H92787   0.550   5.328   6.935 -1.4846 -0.2125  0.5944
  703MOL0     H92788   0.362   5.444   6.885  0.6536 -1.9321  2.3879
  703MOL0     H92789   0.375   5.569   7.017  1.9975 -1.1593  2.9810
  703MOL0     H92790   0.575   5.671   6.934  0.6646 -0.1663 -1.2415
  703MOL0     H92791   0.420   5.695   6.854 -0.5201  0.0543 -2.2355
  703MOL0     H92792   0.637   5.678   6.723  1.0479 -0.8387  0.0184
  703MOL0     H92793   0.632   5.505   6.767  1.0615  1.4360  0.3731
  703MOL0     H92794   0.318   5.596   6.467 -0.1220 -1.3881 -0.2399
  703MOL0     H92795   0.783   5.661   7.223  3.5505 -1.0012  2.5335
  703MOL0     H92796   0.846   5.614   7.432  0.1546  0.2484 -1.5170
  704MOL0     O92797   5.071  10.824   7.219  0.7703 -0.5769 -0.6001
  704MOL0     C92798   5.178  10.814   7.274 -0.9585  0.0355  1.0694
  704MOL0     O92799   5.219  10.861   7.391 -0.0969 -0.0569 -0.8455
  704MOL0     C92800   5.141  10.932   7.472  0.3287 -0.2980 -0.2198
  704MOL0     C92801   5.005  10.888   7.504 -0.1923  0.1264 -0.1572
  704MOL0     C92802   4.935  10.960   7.608  0.3544  0.2910  0.2751
  704MOL0     C92803   5.000  11.067   7.676 -0.3228 -0.0220 -0.4478
  704MOL0     O92804   4.934  11.130   7.782 -0.0313 -0.6662  0.1714
  704MOL0     C92805   4.796  11.155   7.761 -0.0701 -0.1279  0.5943
  704MOL0     C92806   4.719  11.115   7.885 -0.3890 -0.0419  0.1004
  704MOL0     C92807   4.732  11.211   8.009  0.5814 -0.1909 -0.2933
  704MOL0     C92808   4.651  11.164   8.124  0.2447  0.7958 -0.3101
  704MOL0     C92809   4.632  11.279   8.210  0.6345 -0.1823  0.3981
  704MOL0     C92810   4.512  11.258   8.301 -0.3543  1.2602  0.6549
  704MOL0     C92811   4.379  11.295   8.227 -0.2709 -0.1193 -0.3982
  704MOL0     C92812   4.254  11.266   8.329 -0.6837  0.5687  0.0854
  704MOL0     N92813   4.127  11.325   8.285 -0.4388  0.0319 -0.9267
  704MOL0     C92814   4.104  11.460   8.297 -0.5398 -0.3238  0.9155
  704MOL0     C92815   3.983  11.482   8.242 -0.1978 -0.6369 -0.8442
  704MOL0     C92816   3.899  11.613   8.247  0.4926  0.5235  0.8307
  704MOL0     C92817   3.763  11.591   8.324 -0.4827  1.0164 -0.0922
  704MOL0     C92818   3.689  11.719   8.309 -0.1301  0.2201 -0.1311
  704MOL0     C92819   3.564  11.740   8.393  0.8571  0.4889 -0.0906
  704MOL0     O92820   3.448  11.679   8.326 -0.6849  0.3493 -0.3041
  704MOL0     C92821   3.335  11.680   8.402  0.6727 -0.6996  0.0369
  704MOL0     C92822   3.328  11.680   8.546 -0.4826 -0.0572 -0.6595
  704MOL0     C92823   3.214  11.677   8.613 -0.0842 -0.1108 -0.6715
  704MOL0     C92824   3.092  11.660   8.541 -0.1643 -0.1603  0.4830
  704MOL0     C92825   2.962  11.655   8.617 -0.6298  0.6746  0.5799
  704MOL0     O92826   2.854  11.686   8.542 -0.2497  0.1691 -0.2680
  704MOL0     C92827   2.726  11.689   8.591 -0.4292 -0.2712 -1.6475
  704MOL0     C92828   2.681  11.686   8.719 -1.2027 -0.1047 -0.1683
  704MOL0     C92829   2.547  11.676   8.750  0.2630  0.5526 -0.7728
  704MOL0     C92830   2.448  11.672   8.655 -0.2601  0.3928  0.7546
  704MOL0     O92831   2.313  11.660   8.705  0.7535 -0.5319 -0.8123
  704MOL0     C92832   2.207  11.686   8.614  0.0269 -0.4191 -0.5077
  704MOL0     C92833   2.070  11.682   8.686 -0.8483 -0.1502 -0.6910
  704MOL0     C92834   1.951  11.657   8.592  0.7090 -0.5574  0.5389
  704MOL0     C92835   1.953  11.750   8.474 -0.4018 -0.0665  0.2892
  704MOL0     C92836   1.821  11.771   8.414  1.0958 -0.2089 -0.4741
  704MOL0     C92837   1.814  11.868   8.303  0.5634 -0.2943 -0.1972
  704MOL0     C92838   1.673  11.903   8.260 -0.3270 -1.3227  0.3269
  704MOL0     C92839   1.615  11.803   8.157 -0.6032 -0.7190  0.5883
  704MOL0    Cl92840   1.717  11.765   8.024 -0.0578 -0.2256  0.1929
  704MOL0     C92841   2.490  11.680   8.522 -0.3032 -0.5921 -0.1796
  704MOL0     C92842   2.629  11.689   8.493  0.4886 -0.4792 -0.4985
  704MOL0     O92843   2.967  11.632   8.739  0.0622  0.8967 -0.2605
  704MOL0     C92844   3.090  11.667   8.403  0.3901 -0.5812  0.6669
  704MOL0     C92845   3.212  11.666   8.329 -0.0212  0.8172 -0.1868
  704MOL0     N92846   3.939  11.362   8.180  0.5522  1.0134 -0.4706
  704MOL0     N92847   4.018  11.271   8.216  0.0453 -0.4609 -0.0258
  704MOL0     C92848   5.132  11.098   7.642  0.4140 -0.6352  0.0785
  704MOL0     C92849   5.200  11.043   7.544 -0.1508  0.3192  0.2684
  704MOL0     C92850   5.287  10.753   7.185 -0.7606 -0.0784  1.0014
  704MOL0     C92851   5.423  10.764   7.217 -0.2058 -0.0153  0.3896
  704MOL0     C92852   5.520  10.709   7.134  0.6158  0.7305  0.5223
  704MOL0     C92853   5.490  10.627   7.030 -0.8087 -0.0915 -0.2569
  704MOL0     O92854   5.584  10.561   6.964 -0.2969  0.2558  0.6654
  704MOL0     C92855   5.708  10.513   7.032 -0.0825  0.0158 -0.4902
  704MOL0     C92856   5.727  10.365   7.005  0.1855 -0.0017  0.2460
  704MOL0     C92857   5.848  10.338   6.918  0.4436 -0.2640 -0.0679
  704MOL0     C92858   5.832  10.380   6.769 -0.0790  0.6809  0.0142
  704MOL0     C92859   5.956  10.327   6.697  0.9454 -0.2328  0.3946
  704MOL0     C92860   6.060  10.273   6.654  0.5356 -1.2190 -0.2248
  704MOL0     C92861   5.355  10.613   6.995 -0.5635  0.1390  0.2553
  704MOL0     C92862   5.252  10.657   7.079  0.1301  0.2129  0.7440
  704MOL0     H92863   4.958  10.804   7.453 -0.8585 -1.3288  2.6817
  704MOL0     H92864   4.835  10.933   7.641  0.5189 -0.8986 -0.1558
  704MOL0     H92865   4.752  11.105   7.675 -1.1119  0.8315  0.5359
  704MOL0     H92866   4.785  11.264   7.752 -3.2088 -0.3892  0.2553
  704MOL0     H92867   4.745  11.015   7.919 -0.0303  0.1552  0.4167
  704MOL0     H92868   4.615  11.113   7.854 -1.5496 -3.1418  3.5569
  704MOL0     H92869   4.697  11.303   7.962 -1.6683 -1.0309 -0.3626
  704MOL0     H92870   4.833  11.227   8.048  0.3239  5.2888 -1.2043
  704MOL0     H92871   4.554  11.120   8.098 -0.1184 -0.4102  2.7265
  704MOL0     H92872   4.694  11.089   8.191 -0.5546  0.1325 -0.5238
  704MOL0     H92873   4.621  11.362   8.139  0.0783 -3.3023 -3.4759
  704MOL0     H92874   4.726  11.290   8.264  0.8481 -2.0213  0.4635
  704MOL0     H92875   4.534  11.321   8.388  5.8206  0.9009 -0.1662
  704MOL0     H92876   4.506  11.157   8.341  0.7160  1.1374  0.5372
  704MOL0     H92877   4.376  11.403   8.210  1.0447  0.0436  0.2753
  704MOL0     H92878   4.373  11.240   8.132  3.1533 -2.1759  0.3965
  704MOL0     H92879   4.282  11.308   8.426  1.2195 -1.2926  0.4233
  704MOL0     H92880   4.233  11.160   8.346  4.4184 -0.4041  2.5088
  704MOL0     H92881   4.173  11.529   8.344 -0.1586 -0.3183  0.3539
  704MOL0     H92882   3.881  11.651   8.147  1.2953  1.2902  0.9752
  704MOL0     H92883   3.956  11.686   8.305  2.1193 -0.5293  0.6109
  704MOL0     H92884   3.781  11.565   8.428  3.2377  1.9423 -0.3925
  704MOL0     H92885   3.698  11.519   8.273 -1.3245  2.2602 -0.8403
  704MOL0     H92886   3.748  11.804   8.344 -2.8693  2.2563 -0.1417
  704MOL0     H92887   3.672  11.736   8.202  0.4062  0.0249 -0.2486
  704MOL0     H92888   3.551  11.847   8.407  1.0015  0.6689 -1.2210
  704MOL0     H92889   3.598  11.687   8.483  2.6999  0.5175 -0.7084
  704MOL0     H92890   3.419  11.665   8.603 -0.2487 -3.5218 -1.7019
  704MOL0     H92891   3.214  11.680   8.722  0.4365 -0.1858 -0.6632
  704MOL0     H92892   2.751  11.678   8.802  2.9026  2.4310 -3.0572
  704MOL0     H92893   2.525  11.668   8.856  0.3410 -0.5043 -0.8349
  704MOL0     H92894   2.221  11.597   8.551  1.4782 -0.1118 -0.6675
  704MOL0     H92895   2.226  11.779   8.561  1.1416 -0.8476 -0.8880
  704MOL0     H92896   2.065  11.771   8.749 -0.3220 -0.1583 -0.6393
  704MOL0     H92897   2.081  11.598   8.756  3.1732  0.7900  0.0231
  704MOL0     H92898   1.856  11.671   8.643 -1.3872 -2.3819 -2.4963
  704MOL0     H92899   1.946  11.552   8.561 -1.0663 -0.3979  0.1570
  704MOL0     H92900   1.992  11.848   8.504  0.0539 -1.0417  3.2285
  704MOL0     H92901   2.009  11.711   8.389 -2.0652  0.1601 -0.9738
  704MOL0     H92902   1.751  11.810   8.488 -0.6864 -0.1961 -2.0908
  704MOL0     H92903   1.784  11.677   8.374  1.5912 -1.2660  1.4250
  704MOL0     H92904   1.873  11.834   8.217 -3.7128 -1.0230 -3.2043
  704MOL0     H92905   1.873  11.957   8.323 -1.1428  0.4732  1.8720
  704MOL0     H92906   1.604  11.916   8.344 -0.3521  2.8095 -0.1121
  704MOL0     H92907   1.686  11.999   8.210  1.4320 -0.7460  1.7938
  704MOL0     H92908   1.520  11.838   8.116 -0.0814 -0.8062 -0.7309
  704MOL0     H92909   1.596  11.702   8.196  1.5841 -1.5148 -0.2521
  704MOL0     H92910   2.421  11.663   8.441 -2.5542 -1.0060  1.7171
  704MOL0     H92911   2.660  11.692   8.389 -2.3091  0.1086 -1.4093
  704MOL0     H92912   2.993  11.653   8.356 -0.6606 -0.1313  2.5933
  704MOL0     H92913   3.203  11.656   8.222 -3.4020  0.5500  0.0203
  704MOL0     H92914   5.184  11.175   7.698  1.2581 -2.1891  1.5283
  704MOL0     H92915   5.303  11.066   7.517 -0.3623  0.8007 -0.1551
  704MOL0     H92916   5.453  10.832   7.297 -0.8651 -0.5656  1.1158
  704MOL0     H92917   5.625  10.726   7.155  1.0081 -1.6623  0.7384
  704MOL0     H92918   5.706  10.525   7.141  0.4828  2.7436 -0.6983
  704MOL0     H92919   5.801  10.558   6.995  0.3734 -1.5797 -1.3762
  704MOL0     H92920   5.741  10.323   7.105  0.7890 -1.5508 -0.4541
  704MOL0     H92921   5.644  10.306   6.966  0.6360 -1.5174  1.4880
  704MOL0     H92922   5.870  10.231   6.928  0.3792 -0.1096  2.2876
  704MOL0     H92923   5.932  10.389   6.966  0.0306 -1.8619  2.5379
  704MOL0     H92924   5.741  10.332   6.730 -0.5942  0.6408  1.2362
  704MOL0     H92925   5.830  10.489   6.764 -0.8034  0.7525  1.3314
  704MOL0     H92926   6.158  10.241   6.626  2.7832  2.2661  2.6689
  704MOL0     H92927   5.331  10.543   6.915 -0.7912  0.3421  0.1437
  704MOL0     H92928   5.149  10.635   7.054  0.9155 -0.3794 -2.3163
  705MOL0     O92929   7.164  10.562   6.286 -0.0253  0.5866  0.2788
  705MOL0     C92930   7.080  10.494   6.343  0.0639  1.2191 -0.5342
  705MOL0     O92931   6.949  10.524   6.357  0.3257 -0.1032 -0.1836
  705MOL0     C92932   6.907  10.644   6.303 -0.5730 -0.0275 -0.3184
  705MOL0     C92933   6.787  10.641   6.234  0.2783  0.2388  0.0216
  705MOL0     C92934   6.731  10.754   6.183  0.4525  0.1874  0.1153
  705MOL0     C92935   6.797  10.881   6.195 -0.6611 -0.8839  1.1656
  705MOL0     O92936   6.750  11.005   6.152  0.1019 -0.2599  0.3841
  705MOL0     C92937   6.622  11.012   6.085  0.1615  0.1635  0.2887
  705MOL0     C92938   6.589  11.157   6.076 -0.5965 -0.3443  0.5718
  705MOL0     C92939   6.446  11.169   6.024  0.1651 -0.3582 -0.2790
  705MOL0     C92940   6.385  11.307   6.033 -0.0661 -0.1548  0.2991
  705MOL0     C92941   6.248  11.319   5.970 -0.4370  0.9391  0.4422
  705MOL0     C92942   6.179  11.450   6.007  0.0656 -0.4931  0.4528
  705MOL0     C92943   6.035  11.467   5.950  0.0109  0.6358 -1.1307
  705MOL0     C92944   5.968  11.600   5.959 -0.8432  0.5555 -0.9374
  705MOL0     N92945   5.823  11.592   5.933 -0.2535  0.5784  0.5068
  705MOL0     C92946   5.752  11.554   5.823  0.4960  0.4099 -0.5963
  705MOL0     C92947   5.624  11.580   5.852  0.5455  0.8363  1.0512
  705MOL0     C92948   5.500  11.574   5.754  0.3338 -0.0485  0.2880
  705MOL0     C92949   5.428  11.710   5.747 -0.0233  0.8547 -1.2295
  705MOL0     C92950   5.310  11.707   5.851 -0.4955 -0.5610 -0.0886
  705MOL0     C92951   5.218  11.833   5.811 -0.0841  0.4068 -0.2654
  705MOL0     O92952   5.167  11.919   5.913 -0.3753  0.0513 -0.6090
  705MOL0     C92953   5.093  11.843   5.999  0.6102 -0.2661 -0.2117
  705MOL0     C92954   5.132  11.800   6.130 -0.2440  0.5832 -0.5405
  705MOL0     C92955   5.059  11.710   6.210  0.6233  0.1535  0.0688
  705MOL0     C92956   4.935  11.671   6.171 -0.1200  0.7507  1.2061
  705MOL0     C92957   4.854  11.585   6.261 -0.0975  0.7367 -0.2755
  705MOL0     O92958   4.771  11.500   6.197 -1.1115 -0.1313  0.2961
  705MOL0     C92959   4.692  11.405   6.271 -0.8458 -0.1415  0.8618
  705MOL0     C92960   4.749  11.317   6.365 -0.3864  0.0228 -0.4529
  705MOL0     C92961   4.669  11.223   6.432  0.6522 -0.0279  0.0905
  705MOL0     C92962   4.530  11.213   6.403 -0.2499  0.1624  0.3433
  705MOL0     O92963   4.447  11.121   6.450 -0.1257 -0.2470  0.2807
  705MOL0     C92964   4.504  11.007   6.513  0.1863  0.1311 -0.5563
  705MOL0     C92965   4.408  10.889   6.547  0.7165 -0.4064 -0.4186
  705MOL0     C92966   4.349  10.849   6.410  0.1237  0.0283 -0.5630
  705MOL0     C92967   4.241  10.753   6.451 -0.0553 -0.3165  0.6044
  705MOL0     C92968   4.111  10.757   6.369  0.3805 -0.3217 -0.5852
  705MOL0     C92969   4.039  10.896   6.364  0.1098  0.6200  0.0798
  705MOL0     C92970   4.025  10.949   6.508 -0.0067 -0.2112 -0.3938
  705MOL0     C92971   3.905  11.041   6.521 -0.2909  0.7451 -0.2724
  705MOL0    Cl92972   3.912  11.154   6.382  0.3491  0.5731  0.4727
  705MOL0     C92973   4.474  11.291   6.304  0.7653 -0.4369  0.1114
  705MOL0     C92974   4.555  11.387   6.242  0.4522  0.5449  0.6571
  705MOL0     O92975   4.875  11.587   6.382  0.4222  0.3751 -0.4034
  705MOL0     C92976   4.894  11.705   6.041 -0.5320 -0.2717  0.1682
  705MOL0     C92977   4.970  11.788   5.960  0.0427  0.2075 -0.6256
  705MOL0     N92978   5.622  11.596   5.990  0.4357 -0.4855  0.4951
  705MOL0     N92979   5.741  11.601   6.036  0.6855  0.6548  0.6247
  705MOL0     C92980   6.914  10.884   6.263 -0.2500 -0.6805  0.7088
  705MOL0     C92981   6.971  10.771   6.308 -0.4831 -0.0227  0.1245
  705MOL0     C92982   7.123  10.360   6.400 -0.8755  0.3343  0.2226
  705MOL0     C92983   7.251  10.340   6.428 -1.7735 -0.0575 -0.5417
  705MOL0     C92984   7.290  10.217   6.492 -0.1388 -0.1677  0.4861
  705MOL0     C92985   7.187  10.128   6.538  0.5146  0.5524 -0.7167
  705MOL0     O92986   7.232  10.023   6.613  0.5433  0.9499 -0.7350
  705MOL0     C92987   7.242   9.904   6.538 -0.3743  0.4465  0.1768
  705MOL0     C92988   7.369   9.828   6.590  0.1627 -0.6690  0.6951
  705MOL0     C92989   7.357   9.756   6.726 -0.7387 -0.7900 -0.0254
  705MOL0     C92990   7.361   9.840   6.853  0.1738 -0.6198  0.1032
  705MOL0     C92991   7.500   9.863   6.899  0.2457 -0.2730 -0.3091
  705MOL0     C92992   7.619   9.880   6.933  0.0219 -0.3265  0.4397
  705MOL0     C92993   7.056  10.138   6.497  0.5018 -0.3316  0.4030
  705MOL0     C92994   7.026  10.259   6.428 -0.8028 -0.2614  0.5509
  705MOL0     H92995   6.743  10.543   6.215  1.0673 -1.0165  3.7000
  705MOL0     H92996   6.633  10.735   6.139  0.9509 -3.1678  0.2143
  705MOL0     H92997   6.545  10.964   6.145 -0.9938  0.1358 -1.1713
  705MOL0     H92998   6.610  10.958   5.990 -1.2642 -0.0560  0.5780
  705MOL0     H92999   6.660  11.220   6.023 -1.8549  1.8823  1.3905
  705MOL0     H93000   6.586  11.189   6.180 -1.2400 -1.8682  1.0483
  705MOL0     H93001   6.380  11.106   6.084 -4.1185 -1.8220 -5.6175
  705MOL0     H93002   6.450  11.124   5.924  6.2511 -0.1245 -0.5108
  705MOL0     H93003   6.371  11.321   6.140 -1.3583  0.8641  0.0211
  705MOL0     H93004   6.453  11.385   5.999  0.4729 -0.6235  0.2784
  705MOL0     H93005   6.191  11.237   6.015  0.0861  0.6098  0.5139
  705MOL0     H93006   6.247  11.299   5.862  1.9676  0.1856  0.4824
  705MOL0     H93007   6.242  11.531   5.969 -2.1299  2.2164  2.2448
  705MOL0     H93008   6.176  11.461   6.116  2.0894 -1.1476  0.6191
  705MOL0     H93009   6.031  11.434   5.845  0.1377  1.6788 -1.4757
  705MOL0     H93010   5.971  11.397   6.004  0.2621  0.9300 -0.4512
  705MOL0     H93011   6.018  11.663   5.886  1.9739 -2.4276 -1.8193
  705MOL0     H93012   5.987  11.633   6.062 -0.9050 -1.7412 -0.1126
  705MOL0     H93013   5.801  11.530   5.729  2.5518 -1.4054  0.8235
  705MOL0     H93014   5.421  11.502   5.774 -0.2758 -0.2703 -2.5729
  705MOL0     H93015   5.528  11.545   5.653 -0.4556  0.1166  0.0153
  705MOL0     H93016   5.391  11.721   5.645  1.5685  2.6475 -1.6580
  705MOL0     H93017   5.509  11.782   5.760  0.3243  0.4632 -1.1878
  705MOL0     H93018   5.245  11.620   5.864 -3.3256  1.0072 -2.3495
  705MOL0     H93019   5.360  11.726   5.946 -1.2665 -1.8060  0.6034
  705MOL0     H93020   5.134  11.796   5.751  0.3610  1.7688 -1.8114
  705MOL0     H93021   5.272  11.898   5.740  1.5402 -0.3673  0.2093
  705MOL0     H93022   5.222  11.841   6.174 -1.2165  1.1725  0.9767
  705MOL0     H93023   5.107  11.685   6.304  1.1220  3.1502  0.6873
  705MOL0     H93024   4.856  11.319   6.384 -0.7607  0.7744  1.9550
  705MOL0     H93025   4.712  11.158   6.508  0.1924  3.1861  3.4067
  705MOL0     H93026   4.543  11.040   6.610  0.4321  1.4428 -1.0946
  705MOL0     H93027   4.587  10.969   6.452  1.6120  0.8717  0.8584
  705MOL0     H93028   4.333  10.936   6.612  1.8156 -1.0281  1.3597
  705MOL0     H93029   4.459  10.806   6.597 -1.3108 -0.5802  1.5344
  705MOL0     H93030   4.430  10.804   6.351  1.5325  0.2292  1.1039
  705MOL0     H93031   4.299  10.924   6.349 -1.5609 -2.0835 -1.9194
  705MOL0     H93032   4.296  10.658   6.449  2.7346  1.0769  3.2488
  705MOL0     H93033   4.201  10.767   6.552 -6.7779  0.1909 -1.6745
  705MOL0     H93034   4.051  10.676   6.412 -0.0039 -1.4606 -3.0901
  705MOL0     H93035   4.132  10.743   6.263 -0.9542  0.4470 -0.9648
  705MOL0     H93036   3.943  10.877   6.316  0.5217  0.3664 -0.6676
  705MOL0     H93037   4.092  10.969   6.301  2.1417 -0.6108  0.2609
  705MOL0     H93038   4.019  10.865   6.578  0.7021  0.6789  0.7592
  705MOL0     H93039   4.118  11.002   6.526 -0.6520  1.1518 -0.9504
  705MOL0     H93040   3.923  11.101   6.611 -0.2937  1.2127 -0.5774
  705MOL0     H93041   3.816  10.978   6.526  0.5798 -0.6158 -1.2094
  705MOL0     H93042   4.373  11.266   6.272  1.1823 -1.5551 -0.3751
  705MOL0     H93043   4.509  11.431   6.154  1.5246 -0.0174 -0.2199
  705MOL0     H93044   4.799  11.679   5.996 -0.8983  0.5686  0.4303
  705MOL0     H93045   4.923  11.824   5.869  2.1043  0.6141 -1.5887
  705MOL0     H93046   6.962  10.979   6.286 -1.8309  0.3829 -0.2110
  705MOL0     H93047   7.076  10.774   6.335 -0.5852 -5.0270  1.9934
  705MOL0     H93048   7.324  10.415   6.400 -1.1034 -0.8292 -0.9222
  705MOL0     H93049   7.391  10.204   6.529  0.5300  1.4239 -0.6312
  705MOL0     H93050   7.255   9.925   6.431 -0.2754 -0.1293  0.0730
  705MOL0     H93051   7.148   9.851   6.552 -2.4750  3.9714  0.8301
  705MOL0     H93052   7.393   9.763   6.504  1.0123  1.0084 -0.3839
  705MOL0     H93053   7.446   9.905   6.596 -1.3203  1.0771 -1.2625
  705MOL0     H93054   7.437   9.682   6.741 -0.8485 -0.9095 -0.0321
  705MOL0     H93055   7.262   9.702   6.725 -0.3131 -1.6259  1.4236
  705MOL0     H93056   7.316   9.938   6.833  2.2218 -0.5334 -6.1291
  705MOL0     H93057   7.313   9.791   6.938  0.6431  2.5080  2.3387
  705MOL0     H93058   7.720   9.878   6.970 -0.0302  0.6270  0.6404
  705MOL0     H93059   6.985  10.060   6.526 -3.1172  0.2459 -5.1844
  705MOL0     H93060   6.920  10.261   6.406 -1.1356  1.9564  2.0427
  706MOL0     O93061   8.375   8.027   2.157 -0.1534  0.0520 -0.6164
  706MOL0     C93062   8.394   7.986   2.047  0.2348 -0.8801 -0.4383
  706MOL0     O93063   8.306   7.932   1.961  0.3537  1.0516 -0.1654
  706MOL0     C93064   8.181   7.901   2.002 -0.8939  0.5804 -0.6377
  706MOL0     C93065   8.094   7.990   2.068  0.3047 -0.5958  0.2052
  706MOL0     C93066   7.963   7.965   2.097  0.0595 -0.4696 -0.5035
  706MOL0     C93067   7.911   7.833   2.073  0.4908 -0.6213 -0.3557
  706MOL0     O93068   7.787   7.778   2.109  0.0855 -0.8404  0.1663
  706MOL0     C93069   7.690   7.865   2.172  0.0745 -0.0277  0.2025
  706MOL0     C93070   7.572   7.768   2.213 -0.7478 -0.0449 -0.3670
  706MOL0     C93071   7.450   7.845   2.256 -0.5108  0.2548  0.4361
  706MOL0     C93072   7.339   7.749   2.296  0.3058  0.5736 -0.2699
  706MOL0     C93073   7.198   7.812   2.293 -0.3200 -0.7064  0.1602
  706MOL0     C93074   7.171   7.918   2.403 -0.3758 -1.5083 -0.3137
  706MOL0     C93075   7.031   7.999   2.387 -0.6374 -0.3945 -0.9994
  706MOL0     C93076   6.905   7.916   2.427  0.2180 -0.4442  0.2254
  706MOL0     N93077   6.893   7.905   2.573  0.4202  0.6595  0.6800
  706MOL0     C93078   6.818   7.996   2.648  0.6939  0.4628 -0.8498
  706MOL0     C93079   6.817   7.934   2.768  0.4304 -0.8033 -0.2262
  706MOL0     C93080   6.764   7.974   2.908 -0.5672 -0.8451  0.2253
  706MOL0     C93081   6.650   8.080   2.880  0.0475 -0.3616 -0.6330
  706MOL0     C93082   6.596   8.127   3.018 -0.1526  0.2439 -1.0142
  706MOL0     C93083   6.497   8.239   2.997  0.5013  0.0962 -0.5310
  706MOL0     O93084   6.434   8.278   3.130 -1.6557  0.1438  0.1391
  706MOL0     C93085   6.306   8.315   3.135  0.7949  1.0103 -0.9893
  706MOL0     C93086   6.239   8.353   3.022  0.2747 -0.8334  0.3465
  706MOL0     C93087   6.096   8.377   3.019  0.0111  0.2285  0.1935
  706MOL0     C93088   6.029   8.354   3.136 -0.4691 -1.0672 -0.3257
  706MOL0     C93089   5.885   8.384   3.133  0.3529 -0.1570 -0.3794
  706MOL0     O93090   5.831   8.421   3.019 -0.7063  0.7341  0.6259
  706MOL0     C93091   5.747   8.523   3.026 -0.0351  0.4429  0.1434
  706MOL0     C93092   5.802   8.643   3.021 -0.6463 -0.3272 -0.3051
  706MOL0     C93093   5.714   8.754   3.026 -0.3838 -0.3270  0.1419
  706MOL0     C93094   5.575   8.741   3.028  0.7419  0.4806 -0.2604
  706MOL0     O93095   5.472   8.831   3.037  0.4433  0.9331 -0.2470
  706MOL0     C93096   5.509   8.954   3.104 -1.0389  0.5894  0.1682
  706MOL0     C93097   5.386   9.004   3.178  0.8935  0.3902 -1.0641
  706MOL0     C93098   5.270   9.052   3.095  0.3928 -0.4610  0.0838
  706MOL0     C93099   5.158   9.081   3.193  0.7971 -1.2936  0.4577
  706MOL0     C93100   5.022   9.126   3.122 -0.2554  0.1906 -0.0876
  706MOL0     C93101   4.964   9.016   3.036 -0.2030  0.6667  0.1829
  706MOL0     C93102   4.847   9.067   2.950 -0.3085  0.4165  0.0928
  706MOL0     C93103   4.717   9.080   3.025 -0.1251  0.1236  0.3139
  706MOL0    Cl93104   4.600   9.156   2.928  0.1544 -0.1505  0.0889
  706MOL0     C93105   5.521   8.609   3.021  0.0869  0.0458 -0.6476
  706MOL0     C93106   5.607   8.499   3.019 -0.3349  1.4298 -1.1902
  706MOL0     O93107   5.821   8.363   3.236 -0.3096 -0.5829 -0.0089
  706MOL0     C93108   6.095   8.327   3.259 -0.2000  0.1935  0.1937
  706MOL0     C93109   6.233   8.311   3.261 -0.3521 -0.7442  0.9698
  706MOL0     N93110   6.878   7.814   2.759 -0.4092  0.5940 -0.2030
  706MOL0     N93111   6.920   7.791   2.641 -1.4785 -0.6984 -0.1635
  706MOL0     C93112   7.999   7.745   2.015 -0.1393  0.6526  0.4046
  706MOL0     C93113   8.125   7.779   1.962  0.9057  1.4689 -1.0328
  706MOL0     C93114   8.530   7.974   2.006 -0.1177  0.5554 -1.5093
  706MOL0     C93115   8.624   8.067   2.055 -0.2588  0.6074 -0.4118
  706MOL0     C93116   8.755   8.059   2.008  0.3061 -0.2427  0.7283
  706MOL0     C93117   8.790   7.946   1.920  0.3209 -0.4709 -0.5677
  706MOL0     O93118   8.918   7.924   1.879 -0.1548  0.4242  0.4022
  706MOL0     C93119   9.014   8.020   1.922  0.0692 -1.7133  1.0375
  706MOL0     C93120   9.147   7.965   1.861 -0.7493  0.0338  0.0338
  706MOL0     C93121   9.267   8.038   1.923 -0.1372  0.6317 -0.3204
  706MOL0     C93122   9.392   7.987   1.857  0.2826  0.3201  0.5912
  706MOL0     C93123   9.504   8.070   1.907  0.4894  0.7534 -0.0603
  706MOL0     C93124   9.605   8.121   1.945 -0.1671 -0.5732 -0.1017
  706MOL0     C93125   8.689   7.858   1.869 -0.6456  0.4548 -0.4590
  706MOL0     C93126   8.566   7.872   1.917  0.1974  0.2992 -0.9973
  706MOL0     H93127   8.127   8.085   2.108  3.0088 -0.8456 -1.2439
  706MOL0     H93128   7.900   8.044   2.137  0.5904 -0.9996  1.4940
  706MOL0     H93129   7.656   7.933   2.093  1.2585  0.8511  0.4321
  706MOL0     H93130   7.733   7.918   2.257 -2.5463 -2.2437  3.1092
  706MOL0     H93131   7.612   7.712   2.298  1.2935  1.8742  0.0263
  706MOL0     H93132   7.552   7.688   2.140  3.4065 -0.7578 -1.0005
  706MOL0     H93133   7.410   7.894   2.166 -2.3988 -1.7266  0.1111
  706MOL0     H93134   7.460   7.912   2.342 -1.5703  0.1002  0.6949
  706MOL0     H93135   7.340   7.661   2.231 -1.1858  1.3542 -1.4208
  706MOL0     H93136   7.360   7.719   2.399  3.7152  3.7087  0.1317
  706MOL0     H93137   7.131   7.726   2.295 -1.7215  0.3347 -0.5465
  706MOL0     H93138   7.177   7.860   2.197 -0.5168 -0.6561  0.2267
  706MOL0     H93139   7.254   7.989   2.404 -2.5750  1.2700  0.7429
  706MOL0     H93140   7.171   7.871   2.502  1.5738 -0.5351  0.2047
  706MOL0     H93141   7.040   8.076   2.464  1.7300 -2.5306  1.0540
  706MOL0     H93142   7.032   8.039   2.285 -0.5313  0.3808 -0.7003
  706MOL0     H93143   6.911   7.818   2.379 -2.9772  0.3978 -2.2545
  706MOL0     H93144   6.814   7.954   2.381  1.4661 -0.1904 -2.1443
  706MOL0     H93145   6.772   8.091   2.621 -0.4613 -0.1113 -0.9612
  706MOL0     H93146   6.851   8.020   2.955 -0.1889  1.4701 -2.4679
  706MOL0     H93147   6.738   7.890   2.973  2.8115 -0.2627  2.5589
  706MOL0     H93148   6.564   8.030   2.834 -0.9077  2.4644 -2.1104
  706MOL0     H93149   6.686   8.163   2.819  1.9388  1.1682  2.3082
  706MOL0     H93150   6.543   8.048   3.073  2.7497 -1.3942 -0.3490
  706MOL0     H93151   6.679   8.162   3.080  0.7339  2.1893 -3.1570
  706MOL0     H93152   6.416   8.190   2.943 -0.0733 -1.5919  1.6898
  706MOL0     H93153   6.538   8.326   2.946  0.2498 -0.5825 -1.9385
  706MOL0     H93154   6.297   8.373   2.933 -0.5819  3.0683  0.5011
  706MOL0     H93155   6.043   8.412   2.931  0.8450 -1.3236 -0.9725
  706MOL0     H93156   5.903   8.666   2.992 -0.7286 -0.2586 -0.5352
  706MOL0     H93157   5.764   8.850   3.017  0.0655 -0.6322 -0.7294
  706MOL0     H93158   5.549   9.026   3.032  4.6050  0.5360  2.6641
  706MOL0     H93159   5.594   8.940   3.172  3.5963  1.9076 -4.6535
  706MOL0     H93160   5.407   9.073   3.260 -0.8174 -1.2229  0.8321
  706MOL0     H93161   5.352   8.923   3.243  6.7015 -2.3899 -0.8731
  706MOL0     H93162   5.241   8.976   3.021  0.5675 -0.1920 -0.2609
  706MOL0     H93163   5.280   9.143   3.036 -0.4427  1.1860  2.3411
  706MOL0     H93164   5.137   8.991   3.252  2.5480 -2.5894 -0.8036
  706MOL0     H93165   5.186   9.157   3.267 -2.7892  0.0634  0.6329
  706MOL0     H93166   5.042   9.216   3.063  0.6715  0.7243  0.9969
  706MOL0     H93167   4.944   9.154   3.193 -0.0265  1.5806 -0.3500
  706MOL0     H93168   4.934   8.935   3.103  1.0334 -0.6271 -0.7727
  706MOL0     H93169   5.047   8.981   2.974  1.7156  0.9636  2.4543
  706MOL0     H93170   4.880   9.159   2.901  0.2254  0.6115  0.7932
  706MOL0     H93171   4.834   8.998   2.866  1.2342  0.3319 -0.1015
  706MOL0     H93172   4.729   9.128   3.123 -1.2794 -0.8775  0.9833
  706MOL0     H93173   4.678   8.983   3.057  0.4442  1.0105  4.1995
  706MOL0     H93174   5.417   8.587   3.001  0.3449 -2.4629  0.4121
  706MOL0     H93175   5.566   8.399   3.007 -0.7459  1.5823 -1.0524
  706MOL0     H93176   6.043   8.331   3.355 -0.0484 -1.1321  0.3474
  706MOL0     H93177   6.280   8.294   3.358 -1.6727  0.3359  1.8477
  706MOL0     H93178   7.971   7.643   1.992 -1.6935  1.1392  0.0056
  706MOL0     H93179   8.170   7.699   1.903 -0.9065 -3.5303  3.5243
  706MOL0     H93180   8.595   8.144   2.125  2.5364  2.9035 -1.5704
  706MOL0     H93181   8.822   8.134   2.049 -0.2831  0.7924 -0.1500
  706MOL0     H93182   9.009   8.040   2.029  0.2607  1.1216  0.6123
  706MOL0     H93183   8.998   8.113   1.866 -2.0337 -2.7280 -0.1517
  706MOL0     H93184   9.155   7.857   1.877 -3.1013 -0.3990 -1.2920
  706MOL0     H93185   9.143   7.974   1.753 -2.0948 -1.6809 -0.1194
  706MOL0     H93186   9.256   8.019   2.030 -4.6393 -1.3162 -0.8865
  706MOL0     H93187   9.252   8.143   1.897 -2.9090  0.3371 -0.2331
  706MOL0     H93188   9.411   7.880   1.865  2.1431  0.1163 -3.7556
  706MOL0     H93189   9.390   8.011   1.750  0.8104  0.1720  0.5450
  706MOL0     H93190   9.691   8.169   1.986  0.6728 -0.4129 -1.9511
  706MOL0     H93191   8.723   7.781   1.800 -2.8320 -0.1653 -0.9196
  706MOL0     H93192   8.483   7.813   1.881  0.1651  0.6621 -1.5308
  707MOL0     O93193   1.841   3.934  10.519 -1.1308  1.5503 -0.2536
  707MOL0     C93194   1.876   3.836  10.447 -0.5790  0.2950 -0.4899
  707MOL0     O93195   1.802   3.721  10.422 -0.0993 -0.0384 -0.0155
  707MOL0     C93196   1.665   3.734  10.431 -0.9456  1.1139 -0.3259
  707MOL0     C93197   1.593   3.708  10.318 -0.3865 -0.2360 -0.1695
  707MOL0     C93198   1.457   3.732  10.315 -0.8008  0.6274 -0.7988
  707MOL0     C93199   1.387   3.770  10.426 -0.1564 -0.2688  0.9570
  707MOL0     O93200   1.247   3.794  10.430 -0.1352  0.4987  0.1537
  707MOL0     C93201   1.166   3.810  10.315  0.5041 -0.6741 -0.0063
  707MOL0     C93202   1.199   3.942  10.245  0.4078  0.6011 -0.0696
  707MOL0     C93203   1.165   4.057  10.344 -0.5631 -0.1619  0.2502
  707MOL0     C93204   1.142   4.187  10.269 -0.0229  0.3711  0.4357
  707MOL0     C93205   1.126   4.310  10.357  0.9517  0.0700 -0.6655
  707MOL0     C93206   0.983   4.303  10.423 -0.4828 -0.4246 -0.6877
  707MOL0     C93207   0.954   4.420  10.516 -0.5856 -0.4062  0.0565
  707MOL0     C93208   1.016   4.403  10.655 -0.2045 -0.8785  0.3750
  707MOL0     N93209   0.979   4.510  10.733  0.2782 -0.2360 -0.0742
  707MOL0     C93210   0.859   4.535  10.794 -0.7694  0.1967 -0.3848
  707MOL0     C93211   0.889   4.619  10.900  0.7196  0.5921  0.4506
  707MOL0     C93212   0.773   4.676  10.962  0.4256 -0.9811 -0.1311
  707MOL0     C93213   0.696   4.563  11.037 -0.1160 -0.0203 -0.5449
  707MOL0     C93214   0.580   4.611  11.123  0.6937 -0.9712  0.1868
  707MOL0     C93215   0.462   4.674  11.048  0.6795 -0.0643 -0.9684
  707MOL0     O93216   0.350   4.688  11.137  0.0722 -0.7250  0.5336
  707MOL0     C93217   0.228   4.736  11.084 -0.2719  0.2319  0.5564
  707MOL0     C93218   0.202   4.749  10.947  0.8505 -0.0387  0.1358
  707MOL0     C93219   0.073   4.766  10.897 -0.5826  0.4882 -0.7932
  707MOL0     C93220  -0.039   4.776  10.978 -0.2334 -0.1723  0.2389
  707MOL0     C93221  -0.167   4.784  10.918 -0.2327 -0.3205  0.0055
  707MOL0     O93222  -0.265   4.766  11.018 -0.1478 -1.1611  0.6147
  707MOL0     C93223  -0.391   4.779  10.973  1.0853 -0.6067 -0.3760
  707MOL0     C93224  -0.475   4.893  10.994  0.1175 -0.0427 -0.6861
  707MOL0     C93225  -0.611   4.889  10.952 -1.1482 -0.7731 -0.6759
  707MOL0     C93226  -0.660   4.779  10.890  0.2183  0.1017 -1.0283
  707MOL0     O93227  -0.787   4.791  10.838 -0.7163  0.0179  0.4625
  707MOL0     C93228  -0.779   4.854  10.704 -0.3319  0.1841  0.2527
  707MOL0     C93229  -0.927   4.861  10.645 -0.8509 -0.3247  0.0321
  707MOL0     C93230  -0.962   4.727  10.579  0.5132  0.5591  0.2020
  707MOL0     C93231  -0.928   4.722  10.422 -0.0011 -0.8304 -0.7064
  707MOL0     C93232  -0.994   4.609  10.347 -0.2205  0.5142 -0.3545
  707MOL0     C93233  -0.966   4.608  10.199 -0.8034 -0.1137  0.6075
  707MOL0     C93234  -1.033   4.508  10.113  0.5614 -0.1630 -0.5406
  707MOL0     C93235  -0.952   4.378  10.093  0.4735  0.8266  0.1088
  707MOL0    Cl93236  -0.819   4.391   9.978 -0.2946 -0.0040 -0.0415
  707MOL0     C93237  -0.585   4.661  10.883 -0.6019  1.0115  0.2387
  707MOL0     C93238  -0.452   4.658  10.924  0.0002 -0.3317 -0.2713
  707MOL0     O93239  -0.181   4.798  10.797 -1.8949 -0.0302  0.0584
  707MOL0     C93240  -0.010   4.794  11.119 -0.0251  0.1039  0.2696
  707MOL0     C93241   0.113   4.759  11.162 -1.0263  0.6616 -0.0581
  707MOL0     N93242   1.023   4.643  10.903  0.3137 -0.0430  0.1393
  707MOL0     N93243   1.080   4.586  10.801  0.0559  0.0586  0.2470
  707MOL0     C93244   1.464   3.797  10.546  1.1288 -0.0820 -0.0642
  707MOL0     C93245   1.601   3.780  10.546 -0.3630 -0.9899  0.3820
  707MOL0     C93246   2.013   3.841  10.397 -0.2992 -0.1658 -0.3009
  707MOL0     C93247   2.083   3.966  10.389  0.2049 -0.0803  0.4989
  707MOL0     C93248   2.226   3.971  10.362  0.5455  0.5092  0.5200
  707MOL0     C93249   2.294   3.843  10.330  0.1525 -0.1798 -0.8451
  707MOL0     O93250   2.423   3.830  10.297  0.6765  0.4248 -0.1612
  707MOL0     C93251   2.522   3.901  10.370 -0.1673  0.6498  0.3424
  707MOL0     C93252   2.575   4.014  10.277 -0.4419 -0.5625  0.1333
  707MOL0     C93253   2.644   3.960  10.147  0.8022 -0.2368 -0.0665
  707MOL0     C93254   2.683   4.077  10.057  0.3257 -0.5990 -0.3685
  707MOL0     C93255   2.787   4.162  10.118  0.5963 -0.9884  0.9768
  707MOL0     C93256   2.865   4.233  10.160  0.6152 -0.5846 -0.8032
  707MOL0     C93257   2.217   3.725  10.324  0.0486  0.0188 -0.0250
  707MOL0     C93258   2.083   3.727  10.353  0.9738  0.8192  0.4576
  707MOL0     H93259   1.641   3.686  10.224  1.6744 -2.4490  1.2843
  707MOL0     H93260   1.407   3.706  10.222  0.7373  1.8962 -2.0370
  707MOL0     H93261   1.057   3.806  10.331  0.5584 -1.6389  0.1918
  707MOL0     H93262   1.189   3.724  10.252 -0.1542 -0.1805 -0.9572
  707MOL0     H93263   1.131   3.956  10.161 -4.5667  2.0072  3.6510
  707MOL0     H93264   1.304   3.946  10.216  0.5260  1.8569  0.4756
  707MOL0     H93265   1.237   4.066  10.426 -1.3414  0.0394  0.9211
  707MOL0     H93266   1.071   4.036  10.397 -0.4035 -0.4526  0.4257
  707MOL0     H93267   1.227   4.190  10.200 -0.7642  0.4850 -0.4914
  707MOL0     H93268   1.054   4.170  10.206  0.6124 -0.8431 -0.1646
  707MOL0     H93269   1.132   4.401  10.298  0.3343  1.9117  1.9225
  707MOL0     H93270   1.200   4.307  10.438 -1.0314 -1.2537  1.2442
  707MOL0     H93271   0.967   4.216  10.487  1.6253 -0.5353 -0.2319
  707MOL0     H93272   0.907   4.314  10.345 -0.6685  1.1694 -0.3308
  707MOL0     H93273   0.984   4.515  10.468 -1.4800  0.2093  0.6796
  707MOL0     H93274   0.850   4.452  10.525 -0.3024  0.7292 -0.4097
  707MOL0     H93275   1.124   4.390  10.646 -0.0950  0.3154 -0.2842
  707MOL0     H93276   0.977   4.316  10.709  0.6833 -2.1136 -0.9052
  707MOL0     H93277   0.764   4.500  10.755 -0.3302 -0.1600 -1.1696
  707MOL0     H93278   0.703   4.716  10.888 -0.9472 -2.1479  0.4939
  707MOL0     H93279   0.812   4.751  11.032 -2.7154  0.6976 -0.0034
  707MOL0     H93280   0.763   4.496  11.089  0.9958  1.9363  0.6554
  707MOL0     H93281   0.653   4.502  10.957 -1.1689 -0.1444  0.0863
  707MOL0     H93282   0.535   4.524  11.171 -4.0656  0.3425 -1.3197
  707MOL0     H93283   0.617   4.689  11.191  1.3885 -0.8601 -0.3046
  707MOL0     H93284   0.436   4.613  10.961 -0.5635  0.6913 -1.1506
  707MOL0     H93285   0.496   4.774  11.020  2.6741 -0.4675 -0.1409
  707MOL0     H93286   0.288   4.748  10.880  0.7312 -0.9040 -0.0270
  707MOL0     H93287   0.053   4.783  10.792 -3.4131  1.8612 -0.1153
  707MOL0     H93288  -0.421   4.975  11.039  0.0357 -1.2543  1.7673
  707MOL0     H93289  -0.663   4.984  10.964  0.4928  0.0905 -0.1261
  707MOL0     H93290  -0.710   4.800  10.639 -2.1115 -1.3493 -0.4261
  707MOL0     H93291  -0.747   4.957  10.724 -1.3665  0.4235  0.7329
  707MOL0     H93292  -0.921   4.940  10.571 -2.1575 -0.1550  0.0915
  707MOL0     H93293  -0.997   4.889  10.725 -0.2278  0.9506  0.1476
  707MOL0     H93294  -1.069   4.710  10.595  0.7230 -0.5952  0.4657
  707MOL0     H93295  -0.910   4.650  10.637 -5.3806 -1.9953  2.8848
  707MOL0     H93296  -0.969   4.816  10.384 -1.6750 -1.3470 -0.2435
  707MOL0     H93297  -0.819   4.726  10.407  0.4522 -0.3616  2.0249
  707MOL0     H93298  -1.099   4.616  10.377 -0.1302  0.6111 -0.0611
  707MOL0     H93299  -0.963   4.515  10.393 -0.3628 -0.0344 -1.3511
  707MOL0     H93300  -0.859   4.592  10.186 -1.2375 -1.1821 -2.1318
  707MOL0     H93301  -0.994   4.704  10.156  1.5447 -0.0727 -1.0130
  707MOL0     H93302  -1.127   4.480  10.161 -1.7167  2.6831 -2.9852
  707MOL0     H93303  -1.065   4.545  10.015  0.1161 -0.7118 -0.6079
  707MOL0     H93304  -1.005   4.288  10.062 -0.0417  1.3034 -0.4255
  707MOL0     H93305  -0.919   4.347  10.193 -1.4635 -3.6938 -0.4251
  707MOL0     H93306  -0.622   4.566  10.846 -0.7499  0.7206  1.1244
  707MOL0     H93307  -0.396   4.566  10.921  0.6667 -0.1709  3.2251
  707MOL0     H93308  -0.085   4.829  11.189 -0.9192  3.2023 -2.0461
  707MOL0     H93309   0.136   4.760  11.269  1.4660  5.7616 -0.3097
  707MOL0     H93310   1.406   3.827  10.633  0.2893 -1.3622 -0.1489
  707MOL0     H93311   1.652   3.793  10.641 -3.1999 -0.1005  1.8905
  707MOL0     H93312   2.032   4.060  10.403 -0.1403  0.1456 -1.8755
  707MOL0     H93313   2.280   4.066  10.369  2.5622 -0.4926 -0.4015
  707MOL0     H93314   2.605   3.832  10.388 -0.7355 -0.1827 -0.1575
  707MOL0     H93315   2.492   3.947  10.465  1.9035  0.5757  1.0887
  707MOL0     H93316   2.496   4.081  10.240 -0.1418 -0.9106 -1.2054
  707MOL0     H93317   2.648   4.066  10.340  0.7700 -0.6069 -1.1812
  707MOL0     H93318   2.567   3.905  10.092  1.3098 -0.7948 -0.2217
  707MOL0     H93319   2.720   3.883  10.161  1.8504  1.0683  1.8403
  707MOL0     H93320   2.712   4.025   9.965  1.1590  1.8337 -1.5858
  707MOL0     H93321   2.592   4.136  10.040  0.8113  0.0197 -0.9401
  707MOL0     H93322   2.934   4.308  10.192  2.3525 -2.8461  1.0796
  707MOL0     H93323   2.256   3.626  10.303  0.9680  0.7757 -2.1398
  707MOL0     H93324   2.034   3.631  10.347  2.0428  0.1246  2.2430
  708MOL0     O93325   5.376  10.371   6.529  1.1884 -0.5125  0.1693
  708MOL0     C93326   5.326  10.278   6.466 -0.0018 -0.6265  0.3611
  708MOL0     O93327   5.200  10.227   6.463 -0.2811 -0.1523 -0.1088
  708MOL0     C93328   5.100  10.273   6.548  0.0510 -0.1812  0.2993
  708MOL0     C93329   4.965  10.265   6.506 -0.4076  0.7585  0.6761
  708MOL0     C93330   4.858  10.289   6.589  0.0823  0.5050  0.3603
  708MOL0     C93331   4.890  10.321   6.724  0.1372 -0.3909  0.3480
  708MOL0     O93332   4.775  10.348   6.794 -0.4487 -0.1931 -0.3597
  708MOL0     C93333   4.788  10.339   6.936  0.1571 -0.7124  0.2808
  708MOL0     C93334   4.656  10.309   7.005  0.0165  0.5414  1.2078
  708MOL0     C93335   4.570  10.428   7.048 -0.3405  0.7494  0.5713
  708MOL0     C93336   4.420  10.407   7.078 -0.1801 -0.1505  0.9014
  708MOL0     C93337   4.372  10.531   7.143 -0.2307 -0.3893 -0.5675
  708MOL0     C93338   4.219  10.545   7.134  0.4959  0.1586  0.1737
  708MOL0     C93339   4.176  10.670   7.210  0.2387  0.1396 -0.2152
  708MOL0     C93340   4.034  10.690   7.236  0.0889  0.2681  0.1759
  708MOL0     N93341   3.978  10.596   7.333 -0.8080 -0.0529  0.3454
  708MOL0     C93342   3.940  10.634   7.452  0.3996  0.2022 -0.4105
  708MOL0     C93343   3.893  10.518   7.515  0.0634  0.6529  0.5268
  708MOL0     C93344   3.818  10.513   7.643  1.0630  0.5262  0.0680
  708MOL0     C93345   3.716  10.398   7.648 -0.8842  0.2270 -0.3421
  708MOL0     C93346   3.594  10.421   7.559  1.2758 -0.5874 -0.5653
  708MOL0     C93347   3.512  10.548   7.597 -1.1193 -0.6892 -0.0330
  708MOL0     O93348   3.405  10.600   7.515  0.5645  0.7570 -0.0029
  708MOL0     C93349   3.443  10.630   7.386 -0.4496  1.7041  0.0832
  708MOL0     C93350   3.347  10.614   7.291  0.9042 -0.3128  0.1562
  708MOL0     C93351   3.366  10.623   7.154 -0.0231 -0.1148  0.6152
  708MOL0     C93352   3.493  10.640   7.101 -0.9740 -0.1367  0.0982
  708MOL0     C93353   3.527  10.619   6.960 -0.1605 -0.1882 -0.1773
  708MOL0     O93354   3.657  10.625   6.919 -0.5446  0.2453  0.0056
  708MOL0     C93355   3.700  10.622   6.784  0.8939 -0.0603  0.2242
  708MOL0     C93356   3.825  10.579   6.760 -0.3593 -0.2732  0.1084
  708MOL0     C93357   3.869  10.560   6.628 -0.1031 -0.5190  0.0120
  708MOL0     C93358   3.775  10.562   6.516 -0.1399 -0.0352  0.7363
  708MOL0     O93359   3.815  10.520   6.394  0.1701 -0.1963  0.0013
  708MOL0     C93360   3.712  10.491   6.292  0.7046 -0.1653 -0.3946
  708MOL0     C93361   3.668  10.626   6.215 -0.2260 -0.1542 -0.2862
  708MOL0     C93362   3.574  10.611   6.093  0.2513 -0.6928 -0.4900
  708MOL0     C93363   3.447  10.551   6.142  0.5824  0.3753  0.2863
  708MOL0     C93364   3.356  10.499   6.041 -0.2763 -0.8436  0.0966
  708MOL0     C93365   3.243  10.404   6.103 -0.6899 -0.3060  0.3555
  708MOL0     C93366   3.147  10.477   6.204  0.0533 -0.3082  0.4077
  708MOL0     C93367   3.024  10.400   6.222  0.1892  0.0567  0.3471
  708MOL0    Cl93368   2.912  10.494   6.337  0.4981  0.2086 -0.3568
  708MOL0     C93369   3.654  10.613   6.539  0.0161  0.6746 -0.0831
  708MOL0     C93370   3.618  10.657   6.679 -0.6397  0.2271  0.8731
  708MOL0     O93371   3.427  10.589   6.888 -0.0830  0.4501  0.3358
  708MOL0     C93372   3.601  10.665   7.190  0.5561 -0.0441  0.7018
  708MOL0     C93373   3.566  10.667   7.331 -0.2883  0.6471 -0.0671
  708MOL0     N93374   3.902  10.412   7.425 -0.2265  0.3183  0.1731
  708MOL0     N93375   3.953  10.460   7.320 -0.2603  0.6698 -0.0384
  708MOL0     C93376   5.020  10.341   6.770  0.2732  0.5101 -0.8349
  708MOL0     C93377   5.126  10.311   6.682  0.3577 -0.3027  0.0798
  708MOL0     C93378   5.425  10.229   6.364 -0.6875 -0.6778 -0.6227
  708MOL0     C93379   5.416  10.098   6.320 -0.5668 -0.8800 -0.5954
  708MOL0     C93380   5.509  10.034   6.243 -0.3109 -0.7375 -0.5517
  708MOL0     C93381   5.628  10.104   6.205 -0.0525  0.3129  0.2107
  708MOL0     O93382   5.727  10.029   6.145 -0.2221 -0.1824  0.0726
  708MOL0     C93383   5.794  10.076   6.024  0.7436  0.8581 -1.1033
  708MOL0     C93384   5.711  10.058   5.899  0.6342  0.2238 -0.0936
  708MOL0     C93385   5.731   9.923   5.866  0.1462  0.5603  0.0745
  708MOL0     C93386   5.651   9.883   5.738 -0.6826  0.4083 -0.7128
  708MOL0     C93387   5.505   9.866   5.761 -0.3638  0.0155 -0.7235
  708MOL0     C93388   5.386   9.849   5.772 -0.3967 -0.1048 -0.4370
  708MOL0     C93389   5.637  10.244   6.237 -0.0117 -0.3876 -0.2368
  708MOL0     C93390   5.534  10.304   6.311 -1.9269 -0.1185  0.4011
  708MOL0     H93391   4.964  10.237   6.401  0.5251  3.6527 -0.2075
  708MOL0     H93392   4.756  10.273   6.555 -0.2849 -1.0354  1.9661
  708MOL0     H93393   4.834  10.432   6.970  0.8084 -1.8540  2.7008
  708MOL0     H93394   4.862  10.262   6.958  2.1232  1.0540  0.1546
  708MOL0     H93395   4.665  10.238   7.088 -2.4844 -0.9697  0.2811
  708MOL0     H93396   4.588  10.257   6.938 -2.5358  1.0464  3.2686
  708MOL0     H93397   4.585  10.503   6.969  0.2648  0.4865  0.4263
  708MOL0     H93398   4.613  10.461   7.143 -0.3102  3.0571 -0.1857
  708MOL0     H93399   4.368  10.393   6.983 -0.9749 -0.0615  1.3170
  708MOL0     H93400   4.402  10.321   7.143 -1.5432 -0.3773  0.2455
  708MOL0     H93401   4.421  10.621   7.105  1.8937 -1.4586 -0.5171
  708MOL0     H93402   4.403  10.525   7.248 -0.0501 -1.8744 -0.6815
  708MOL0     H93403   4.169  10.465   7.188 -0.3798 -0.5189 -1.5555
  708MOL0     H93404   4.184  10.545   7.030 -0.9807  0.2356  0.6623
  708MOL0     H93405   4.233  10.678   7.303  2.9231  2.0114 -1.8975
  708MOL0     H93406   4.218  10.752   7.150 -0.2538  1.6355  1.3932
  708MOL0     H93407   3.978  10.670   7.143  0.3472 -0.2550  0.1273
  708MOL0     H93408   4.015  10.796   7.254  0.6634  0.6261 -1.1798
  708MOL0     H93409   3.944  10.730   7.502 -0.9383  1.0747 -1.8930
  708MOL0     H93410   3.761  10.602   7.670 -1.5114 -0.6344 -1.1608
  708MOL0     H93411   3.893  10.507   7.722 -0.3196  2.2442  1.5909
  708MOL0     H93412   3.686  10.395   7.753 -0.4681 -1.8937 -0.2474
  708MOL0     H93413   3.769  10.307   7.618  2.0336  1.5001  0.5504
  708MOL0     H93414   3.631  10.427   7.457 -0.9346  0.5912 -1.3640
  708MOL0     H93415   3.527  10.335   7.557  1.5831 -0.8425 -0.0597
  708MOL0     H93416   3.576  10.636   7.610  0.9107 -2.2535  1.4169
  708MOL0     H93417   3.465  10.516   7.690 -2.1920  1.1437  0.0941
  708MOL0     H93418   3.243  10.616   7.321  0.5612  1.6991 -1.0344
  708MOL0     H93419   3.289  10.606   7.079  0.8791 -2.5722  0.1526
  708MOL0     H93420   3.907  10.586   6.830  2.2655 -1.5300 -2.6255
  708MOL0     H93421   3.972  10.534   6.604 -0.1284 -1.1472  0.5794
  708MOL0     H93422   3.629  10.441   6.342 -0.4920 -0.5448 -2.6382
  708MOL0     H93423   3.746  10.422   6.215  1.0943  1.6465 -1.9097
  708MOL0     H93424   3.759  10.668   6.170 -0.2821 -0.7301 -0.9493
  708MOL0     H93425   3.636  10.699   6.291  2.0957 -2.1948  2.9318
  708MOL0     H93426   3.615  10.550   6.013 -0.9714 -2.5614  0.2289
  708MOL0     H93427   3.559  10.707   6.042 -1.2913 -2.0763 -2.8138
  708MOL0     H93428   3.475  10.459   6.194 -0.1132  0.9088  1.6426
  708MOL0     H93429   3.392  10.618   6.208  3.0206  1.7802  0.9941
  708MOL0     H93430   3.425  10.442   5.978  2.0740  1.2262  0.6252
  708MOL0     H93431   3.309  10.585   5.993  1.1580  0.1466  0.4119
  708MOL0     H93432   3.283  10.323   6.164  2.2865  2.8568  2.9988
  708MOL0     H93433   3.183  10.374   6.016 -2.0472  0.6965  0.9053
  708MOL0     H93434   3.199  10.485   6.300  0.1381 -2.8110  0.6529
  708MOL0     H93435   3.133  10.575   6.158  1.2039 -0.2370  0.1778
  708MOL0     H93436   3.031  10.303   6.271  1.1884 -0.1656 -0.2143
  708MOL0     H93437   2.973  10.396   6.125 -2.0135  0.0109  1.4583
  708MOL0     H93438   3.578  10.638   6.466  1.0176  0.5051 -1.2113
  708MOL0     H93439   3.515  10.688   6.688 -1.9448 -3.0195 -1.2574
  708MOL0     H93440   3.705  10.688   7.168  1.3828 -2.7269  1.4450
  708MOL0     H93441   3.651  10.685   7.396  0.4686  3.1592 -1.5952
  708MOL0     H93442   5.037  10.392   6.863 -0.7518 -2.1169  0.9184
  708MOL0     H93443   5.223  10.323   6.730 -1.1794  2.3826  2.8785
  708MOL0     H93444   5.331  10.036   6.347  0.4916 -1.8805  0.5120
  708MOL0     H93445   5.488   9.932   6.212 -0.2179  0.0921 -3.6131
  708MOL0     H93446   5.893  10.032   6.016  0.3718 -0.1786 -0.2612
  708MOL0     H93447   5.825  10.180   6.037  0.4491  0.9410 -1.0626
  708MOL0     H93448   5.605  10.085   5.902  0.8316  1.1304 -0.6635
  708MOL0     H93449   5.749  10.123   5.819  0.6155 -0.4845 -0.6866
  708MOL0     H93450   5.703   9.854   5.945 -0.2785  0.8832  0.2134
  708MOL0     H93451   5.838   9.903   5.850  0.2236  2.7738 -3.2073
  708MOL0     H93452   5.662   9.956   5.657 -2.1579  1.0826 -0.3369
  708MOL0     H93453   5.677   9.784   5.702 -2.7604  0.1855 -1.7402
  708MOL0     H93454   5.289   9.811   5.797 -0.6201 -0.7620 -2.1461
  708MOL0     H93455   5.723  10.300   6.203  0.0577  0.1214  0.7267
  708MOL0     H93456   5.529  10.412   6.320 -0.4302 -0.1678  2.3822
  709MOL0     O93457   4.144   7.087   7.176  0.0159  0.3437 -0.0951
  709MOL0     C93458   4.130   7.206   7.187  0.6892 -0.7204  0.8098
  709MOL0     O93459   4.209   7.306   7.136 -0.1211  0.4029 -0.5154
  709MOL0     C93460   4.320   7.262   7.072 -0.8316  0.8867 -0.8797
  709MOL0     C93461   4.321   7.245   6.937 -0.2740  0.4743 -1.0823
  709MOL0     C93462   4.443   7.195   6.877 -0.9501  0.3654 -0.5583
  709MOL0     C93463   4.554   7.167   6.952 -0.0213  0.5671  0.2840
  709MOL0     O93464   4.669   7.111   6.902 -0.2796 -0.0902 -1.1339
  709MOL0     C93465   4.677   7.090   6.766  0.1035  0.5825  0.4547
  709MOL0     C93466   4.717   7.226   6.704  0.3468 -0.2775 -0.2149
  709MOL0     C93467   4.714   7.202   6.550 -0.2676 -0.4438  0.8359
  709MOL0     C93468   4.839   7.260   6.487  0.0421 -0.8836 -0.0255
  709MOL0     C93469   4.825   7.257   6.334 -0.2616 -0.4776  0.4520
  709MOL0     C93470   4.924   7.343   6.260 -0.0399  0.7459 -0.3662
  709MOL0     C93471   4.883   7.379   6.116 -0.5015  0.8219  0.3204
  709MOL0     C93472   4.972   7.311   6.004 -0.3046  0.0144 -0.0490
  709MOL0     N93473   4.942   7.168   6.004  0.6935  0.0097 -0.5022
  709MOL0     C93474   4.853   7.099   5.917  0.2601 -0.6948 -0.4994
  709MOL0     C93475   4.866   6.969   5.955  0.2203  0.0808 -0.3864
  709MOL0     C93476   4.791   6.866   5.880  0.1931 -0.5275  0.1615
  709MOL0     C93477   4.875   6.821   5.766 -0.0619  0.5338  0.2032
  709MOL0     C93478   4.787   6.758   5.657  0.4157 -0.4545  0.4966
  709MOL0     C93479   4.707   6.639   5.708 -0.4696  0.3028  0.4304
  709MOL0     O93480   4.656   6.571   5.595  0.0655  0.0903  0.1927
  709MOL0     C93481   4.608   6.443   5.594 -0.7735  0.2705  0.5933
  709MOL0     C93482   4.652   6.344   5.692 -0.4208  0.5472 -0.1658
  709MOL0     C93483   4.611   6.208   5.678  0.5118  0.4275 -0.0273
  709MOL0     C93484   4.523   6.174   5.576  0.1942 -0.0745  0.0594
  709MOL0     C93485   4.489   6.034   5.546  0.0378 -0.4070 -0.8793
  709MOL0     O93486   4.390   6.013   5.455 -0.7848  0.4336 -0.0067
  709MOL0     C93487   4.358   5.900   5.392 -0.4434 -0.1192  0.4419
  709MOL0     C93488   4.226   5.873   5.371  0.8316 -0.0651  0.1325
  709MOL0     C93489   4.187   5.755   5.307  0.1815  0.7314  0.0099
  709MOL0     C93490   4.280   5.667   5.257  0.4114 -1.0912 -0.1427
  709MOL0     O93491   4.246   5.553   5.193  0.1074  0.5785 -0.7128
  709MOL0     C93492   4.203   5.569   5.053 -0.8628  0.5365 -0.4535
  709MOL0     C93493   4.180   5.431   5.002  0.1224 -0.8940  0.7890
  709MOL0     C93494   4.117   5.432   4.864 -0.9458 -0.0229 -0.2100
  709MOL0     C93495   4.129   5.296   4.796  0.2828 -0.3812 -0.7716
  709MOL0     C93496   4.166   5.295   4.652  0.2470 -0.8354  0.6951
  709MOL0     C93497   4.081   5.382   4.572 -0.1621  0.3105  0.2211
  709MOL0     C93498   4.074   5.357   4.416 -0.1876 -0.7740 -0.9205
  709MOL0     C93499   4.020   5.479   4.346 -0.5687  0.2835  0.1078
  709MOL0    Cl93500   3.847   5.519   4.391 -0.0632  0.1787 -0.0916
  709MOL0     C93501   4.407   5.691   5.270  0.2362  0.0933  0.2270
  709MOL0     C93502   4.447   5.807   5.342  0.2252 -0.1289 -0.0207
  709MOL0     O93503   4.555   5.951   5.614 -0.5395 -0.7886  0.1483
  709MOL0     C93504   4.477   6.268   5.481  0.1570 -1.1374 -0.1656
  709MOL0     C93505   4.513   6.408   5.494  0.1744  0.4645  0.5795
  709MOL0     N93506   4.970   6.959   6.047  0.4810  0.0143  0.5778
  709MOL0     N93507   5.012   7.071   6.070  0.3133  0.2564 -0.6182
  709MOL0     C93508   4.548   7.184   7.086 -0.3034  0.5079  0.1827
  709MOL0     C93509   4.429   7.225   7.147 -0.1696 -0.9757  0.4155
  709MOL0     C93510   4.005   7.262   7.250  1.2086 -0.2942 -0.3988
  709MOL0     C93511   3.918   7.168   7.315 -0.1359  0.4877 -0.2004
  709MOL0     C93512   3.799   7.213   7.384  0.0674  0.1244  0.3020
  709MOL0     C93513   3.768   7.345   7.390 -0.7069 -0.4973  0.5519
  709MOL0     O93514   3.653   7.383   7.457  0.5376 -0.3207 -0.3472
  709MOL0     C93515   3.648   7.387   7.603  0.1580  0.2727  0.0184
  709MOL0     C93516   3.542   7.487   7.653  0.0393  0.1361  0.2815
  709MOL0     C93517   3.488   7.460   7.789  0.8913  0.2622 -1.3886
  709MOL0     C93518   3.432   7.583   7.861  0.1170 -1.3613  0.2653
  709MOL0     C93519   3.306   7.633   7.800 -0.0540  0.2656  0.5931
  709MOL0     C93520   3.220   7.687   7.735 -0.3656 -0.1271 -0.0504
  709MOL0     C93521   3.842   7.437   7.320  0.2212  0.1136 -0.5073
  709MOL0     C93522   3.949   7.389   7.240 -0.1592 -0.7791 -0.9018
  709MOL0     H93523   4.236   7.266   6.874 -0.3709 -0.4604 -1.2738
  709MOL0     H93524   4.437   7.186   6.769 -0.1899 -0.3647 -0.5552
  709MOL0     H93525   4.584   7.055   6.721 -1.2467 -0.0269  3.4546
  709MOL0     H93526   4.746   7.008   6.742  1.0035  1.0723  1.2852
  709MOL0     H93527   4.822   7.250   6.725  0.4580  1.6120 -2.5768
  709MOL0     H93528   4.654   7.310   6.732 -0.0805 -0.2067 -1.3383
  709MOL0     H93529   4.629   7.262   6.515 -0.9717 -0.5699  2.2749
  709MOL0     H93530   4.693   7.098   6.521  0.2986 -1.1932  2.9646
  709MOL0     H93531   4.853   7.362   6.523 -0.4456  0.2757 -2.8654
  709MOL0     H93532   4.919   7.190   6.512  0.5895 -0.3838 -0.3563
  709MOL0     H93533   4.730   7.306   6.314 -1.6645 -3.6293 -1.3678
  709MOL0     H93534   4.824   7.157   6.289  2.4604  0.5965 -2.4181
  709MOL0     H93535   5.025   7.300   6.261 -0.4125 -0.1414 -0.6170
  709MOL0     H93536   4.939   7.443   6.303  2.8070  2.1028 -3.8990
  709MOL0     H93537   4.782   7.342   6.102  0.0266 -0.4021 -0.4060
  709MOL0     H93538   4.886   7.488   6.102  2.4259  0.9684  1.2813
  709MOL0     H93539   5.074   7.339   6.031 -0.4447 -1.1266  1.7843
  709MOL0     H93540   4.926   7.359   5.917 -4.0661 -2.4506  0.3509
  709MOL0     H93541   4.780   7.143   5.849  3.0287  0.5989 -2.8952
  709MOL0     H93542   4.697   6.911   5.847 -0.3739 -0.8939  1.2348
  709MOL0     H93543   4.776   6.777   5.941  2.8256 -0.5000  0.9875
  709MOL0     H93544   4.950   6.749   5.799  1.2782  2.3002  1.2201
  709MOL0     H93545   4.924   6.912   5.730 -0.9980  0.7389 -0.5954
  709MOL0     H93546   4.719   6.836   5.622 -0.4315 -0.3876  2.2118
  709MOL0     H93547   4.853   6.731   5.575 -0.3362 -2.7164  0.5590
  709MOL0     H93548   4.625   6.676   5.770 -1.1165  1.6756 -1.1920
  709MOL0     H93549   4.769   6.574   5.771 -2.9465 -1.6379  1.0615
  709MOL0     H93550   4.726   6.361   5.769 -0.1595 -3.0663  0.5233
  709MOL0     H93551   4.666   6.139   5.741  3.5456  2.1649 -0.5190
  709MOL0     H93552   4.152   5.941   5.412  1.3574 -0.4075  1.6832
  709MOL0     H93553   4.083   5.734   5.287  0.3708  0.2809 -0.5212
  709MOL0     H93554   4.286   5.608   4.993 -0.2101 -5.3871 -4.1820
  709MOL0     H93555   4.119   5.640   5.055  0.4835  2.1867 -0.1617
  709MOL0     H93556   4.118   5.371   5.069 -0.1469 -0.9557  0.4927
  709MOL0     H93557   4.277   5.382   4.992  1.1095  1.1208 -0.2448
  709MOL0     H93558   4.173   5.503   4.802  3.6610 -1.5386  1.7923
  709MOL0     H93559   4.010   5.456   4.867 -1.1597 -0.8584 -0.9131
  709MOL0     H93560   4.212   5.242   4.842 -0.5279  0.6609  2.1107
  709MOL0     H93561   4.029   5.252   4.806 -0.1566  0.4409 -1.3722
  709MOL0     H93562   4.160   5.192   4.613 -0.1379 -0.4081 -0.4116
  709MOL0     H93563   4.269   5.330   4.639  0.5308 -2.5099 -2.6554
  709MOL0     H93564   4.114   5.482   4.601 -0.6266  0.1559  1.3714
  709MOL0     H93565   3.974   5.376   4.598 -0.0258  2.1482  1.3834
  709MOL0     H93566   4.175   5.347   4.376 -1.0263 -0.3620 -3.2876
  709MOL0     H93567   4.009   5.273   4.395 -3.1780  0.0311  3.7008
  709MOL0     H93568   4.037   5.481   4.238 -2.2974  0.0917 -0.2012
  709MOL0     H93569   4.079   5.567   4.375 -0.3609  0.3133 -0.3897
  709MOL0     H93570   4.485   5.622   5.240 -0.8572 -0.6169 -1.0804
  709MOL0     H93571   4.553   5.822   5.363 -0.4785  2.5406  2.1575
  709MOL0     H93572   4.426   6.237   5.391  1.9526  2.0166 -2.4617
  709MOL0     H93573   4.478   6.483   5.424  1.5132  0.9630  0.4141
  709MOL0     H93574   4.622   7.157   7.160 -1.9524 -1.0172  1.3763
  709MOL0     H93575   4.424   7.245   7.254  0.4690  0.9098  0.1368
  709MOL0     H93576   3.941   7.062   7.328 -2.2406  0.0561  0.4610
  709MOL0     H93577   3.737   7.145   7.442 -1.0614  1.5670  0.8538
  709MOL0     H93578   3.740   7.421   7.653  0.2096  0.2497 -0.0603
  709MOL0     H93579   3.637   7.280   7.625  1.3168 -0.4103 -2.4242
  709MOL0     H93580   3.591   7.585   7.657  0.2048  0.0149  1.7252
  709MOL0     H93581   3.467   7.486   7.574  0.5987 -1.2560 -0.2541
  709MOL0     H93582   3.573   7.434   7.853  1.1271  4.3397  0.3215
  709MOL0     H93583   3.415   7.379   7.793  0.3855  0.7587  1.2042
  709MOL0     H93584   3.407   7.553   7.963  0.4405  0.8294  1.0454
  709MOL0     H93585   3.499   7.669   7.865 -0.3628 -0.8646 -1.5220
  709MOL0     H93586   3.143   7.737   7.680 -0.1016 -0.2287 -0.5218
  709MOL0     H93587   3.815   7.542   7.314 -0.9476 -0.2261 -1.6537
  709MOL0     H93588   4.007   7.469   7.194  0.3904 -0.6044  0.0765
  710MOL0     O93589   8.227   0.974   7.128  0.0672 -0.4734  0.1448
  710MOL0     C93590   8.204   1.037   7.029 -0.5069 -0.3105  0.2228
  710MOL0     O93591   8.296   1.119   6.973 -0.5871  0.2387 -0.2496
  710MOL0     C93592   8.433   1.098   6.976 -0.1917 -0.4098 -0.0884
  710MOL0     C93593   8.509   1.154   6.878 -0.2593 -1.0325 -0.0072
  710MOL0     C93594   8.646   1.139   6.852 -1.1873 -0.5867  0.1205
  710MOL0     C93595   8.720   1.051   6.937 -0.7547 -0.0465  0.5886
  710MOL0     O93596   8.856   1.051   6.949  0.3554 -0.0609  0.0833
  710MOL0     C93597   8.931   1.094   6.837  1.2377  0.0090  0.1474
  710MOL0     C93598   9.077   1.094   6.866 -0.4151 -0.5399 -0.1384
  710MOL0     C93599   9.144   0.950   6.859  0.6831 -1.0588  0.0502
  710MOL0     C93600   9.259   0.941   6.954 -0.1487  0.5796 -0.3785
  710MOL0     C93601   9.400   0.961   6.890 -0.7878 -0.0507 -0.1025
  710MOL0     C93602   9.515   0.986   6.988  0.4321 -0.6965 -0.6348
  710MOL0     C93603   9.661   1.029   6.933  0.6897  0.2230  0.1305
  710MOL0     C93604   9.749   1.107   7.023 -0.8024 -0.0551  0.1650
  710MOL0     N93605   9.890   1.128   6.985 -0.6832  0.2001 -0.1948
  710MOL0     C93606   9.945   1.238   6.932  1.1071 -0.5804 -0.1529
  710MOL0     C93607  10.068   1.196   6.899 -0.2627  0.8216  0.2906
  710MOL0     C93608  10.198   1.267   6.867 -0.0345 -0.5291  0.1079
  710MOL0     C93609  10.181   1.386   6.765 -0.1070  1.0850 -0.6270
  710MOL0     C93610  10.140   1.509   6.851  0.7166 -0.7797  0.6317
  710MOL0     C93611  10.164   1.638   6.771  0.0120 -0.1526  0.6187
  710MOL0     O93612  10.137   1.759   6.844  0.0284 -0.3290 -0.1635
  710MOL0     C93613  10.224   1.820   6.935  0.1634  0.5952 -1.1245
  710MOL0     C93614  10.344   1.768   6.985 -0.0305 -0.7494  0.1660
  710MOL0     C93615  10.424   1.838   7.079 -0.2593  0.1644 -0.0384
  710MOL0     C93616  10.400   1.969   7.123  0.1800  0.1039 -0.2565
  710MOL0     C93617  10.497   2.043   7.215 -0.3118 -0.3986  0.2259
  710MOL0     O93618  10.440   2.158   7.249  0.2391  0.5342 -0.1773
  710MOL0     C93619  10.508   2.251   7.327  0.3347 -0.2026 -0.1665
  710MOL0     C93620  10.643   2.264   7.340 -0.3306 -0.7286 -0.5711
  710MOL0     C93621  10.708   2.353   7.430 -0.0048  0.2628 -0.2597
  710MOL0     C93622  10.633   2.438   7.510 -0.5790  0.3626 -0.7092
  710MOL0     O93623  10.702   2.531   7.592  0.5850 -0.4159  0.9607
  710MOL0     C93624  10.628   2.604   7.685  0.0187  0.2238  0.3756
  710MOL0     C93625  10.706   2.707   7.763  0.2054 -0.5751  0.2104
  710MOL0     C93626  10.609   2.795   7.844  0.0551  0.6687 -0.8831
  710MOL0     C93627  10.683   2.891   7.948 -0.0579  0.2230 -0.0789
  710MOL0     C93628  10.718   3.020   7.883  0.8182  0.4318 -0.7206
  710MOL0     C93629  10.775   3.118   7.981  0.0224 -0.2592 -1.3189
  710MOL0     C93630  10.843   3.246   7.916 -0.7442  0.2577  0.9944
  710MOL0     C93631  10.913   3.339   8.025 -0.4986  0.2902  0.4629
  710MOL0    Cl93632  10.802   3.365   8.166  0.2502  0.4795 -0.2329
  710MOL0     C93633  10.498   2.427   7.496  0.5957  0.6421  0.5008
  710MOL0     C93634  10.434   2.334   7.408  0.0844 -0.8354  0.8127
  710MOL0     O93635  10.600   1.994   7.262  0.5215 -1.0042 -0.5337
  710MOL0     C93636  10.267   2.021   7.085  0.3834 -0.1348 -0.4965
  710MOL0     C93637  10.186   1.943   7.001  0.1135 -0.4968 -0.0674
  710MOL0     N93638  10.073   1.058   6.916 -0.1689 -0.5049 -0.2253
  710MOL0     N93639   9.963   1.014   6.961  0.4261 -1.0310  0.3277
  710MOL0     C93640   8.648   0.982   7.032 -0.0968 -0.3767 -0.0086
  710MOL0     C93641   8.512   1.008   7.053 -0.0296 -0.2448  0.0953
  710MOL0     C93642   8.068   1.033   6.965 -0.3052 -0.5685 -0.1594
  710MOL0     C93643   7.971   0.939   7.009 -0.3310 -0.9119  0.3488
  710MOL0     C93644   7.839   0.956   6.966 -1.1410  0.1415 -0.2437
  710MOL0     C93645   7.798   1.053   6.875  0.8378  0.3267 -0.7789
  710MOL0     O93646   7.671   1.062   6.823  0.1776 -0.1464  0.3215
  710MOL0     C93647   7.571   1.003   6.910  0.5322 -0.1747 -0.0367
  710MOL0     C93648   7.454   1.094   6.884 -0.7671 -0.3323  0.5383
  710MOL0     C93649   7.334   1.020   6.945 -0.0950 -0.3189 -0.2300
  710MOL0     C93650   7.280   0.893   6.877  0.1125 -0.3111  0.1683
  710MOL0     C93651   7.251   0.920   6.735  0.3021  0.0120  0.2570
  710MOL0     C93652   7.237   0.951   6.616  0.5133 -0.1010  0.1803
  710MOL0     C93653   7.901   1.138   6.824 -0.1848 -0.5085 -0.4666
  710MOL0     C93654   8.027   1.133   6.872  0.1716  0.0363  0.1113
  710MOL0     H93655   8.459   1.235   6.826  1.0303  0.9482  1.7083
  710MOL0     H93656   8.703   1.201   6.784  0.8722 -3.1291 -0.6201
  710MOL0     H93657   8.901   1.195   6.808  3.8331  1.4691  2.2094
  710MOL0     H93658   8.916   1.029   6.749  1.0260  1.2090 -0.7299
  710MOL0     H93659   9.086   1.143   6.963 -0.6315  0.5894 -0.6756
  710MOL0     H93660   9.134   1.151   6.792  0.4098 -1.4687 -0.2390
  710MOL0     H93661   9.170   0.940   6.754  1.9172  0.6827  0.1438
  710MOL0     H93662   9.074   0.868   6.881 -0.3318  0.4400  3.0331
  710MOL0     H93663   9.234   1.003   7.041 -2.3270  0.4703 -0.8924
  710MOL0     H93664   9.257   0.837   6.987 -1.7936  0.5192 -0.6093
  710MOL0     H93665   9.397   1.048   6.823  1.4914 -0.7918 -1.2695
  710MOL0     H93666   9.436   0.879   6.828 -0.4889  0.2974 -0.3960
  710MOL0     H93667   9.529   0.894   7.045  1.2769  0.3633  0.9180
  710MOL0     H93668   9.482   1.057   7.064 -0.1166 -2.1969  0.5980
  710MOL0     H93669   9.724   0.943   6.907  0.1937  0.2817 -1.3820
  710MOL0     H93670   9.645   1.092   6.845  1.9124  0.4547  0.0635
  710MOL0     H93671   9.735   1.062   7.122  1.4642 -2.9089 -0.6717
  710MOL0     H93672   9.709   1.207   7.043  1.0663  0.2117  3.2020
  710MOL0     H93673   9.910   1.340   6.937  0.4930 -0.7968  0.1108
  710MOL0     H93674  10.263   1.190   6.824  0.1675 -0.7556  0.8052
  710MOL0     H93675  10.236   1.298   6.965  3.5857 -0.9896 -0.9870
  710MOL0     H93676  10.118   1.361   6.679 -3.7243 -1.4473  2.4264
  710MOL0     H93677  10.279   1.402   6.719 -0.3642 -0.0225 -1.6265
  710MOL0     H93678  10.032   1.504   6.866  0.7476 -1.2017  0.7222
  710MOL0     H93679  10.190   1.517   6.948  3.1312  0.1201 -0.5931
  710MOL0     H93680  10.112   1.618   6.677 -0.6469  2.0427  0.4722
  710MOL0     H93681  10.265   1.649   6.730 -0.4863 -0.7342 -0.8187
  710MOL0     H93682  10.367   1.665   6.962 -1.8017 -1.1777  0.2390
  710MOL0     H93683  10.513   1.785   7.110 -0.5419  0.5914  1.6167
  710MOL0     H93684  10.717   2.195   7.299  1.5754 -0.9397  2.8389
  710MOL0     H93685  10.816   2.348   7.440 -0.0490 -1.0254 -0.2688
  710MOL0     H93686  10.584   2.534   7.756 -0.0635 -0.7012 -0.5700
  710MOL0     H93687  10.546   2.659   7.636  0.3996  0.6178  0.1747
  710MOL0     H93688  10.767   2.767   7.695  1.3733 -2.0476 -0.0866
  710MOL0     H93689  10.786   2.659   7.819  0.4938 -2.2120 -1.5250
  710MOL0     H93690  10.537   2.728   7.891  4.4970 -3.4196  0.9137
  710MOL0     H93691  10.548   2.854   7.775 -1.2238  0.3529 -0.0651
  710MOL0     H93692  10.616   2.899   8.035  3.3886  0.1887  2.8129
  710MOL0     H93693  10.774   2.851   7.993 -0.7833 -0.3868  0.9016
  710MOL0     H93694  10.631   3.066   7.833 -0.6429  0.3867  1.6065
  710MOL0     H93695  10.787   2.999   7.802  2.0909  1.3589  0.0893
  710MOL0     H93696  10.836   3.067   8.056 -2.9318 -2.1847 -0.0077
  710MOL0     H93697  10.692   3.165   8.035  0.0978  0.3369 -1.7116
  710MOL0     H93698  10.913   3.224   7.835  1.0317 -1.5127  2.8883
  710MOL0     H93699  10.763   3.310   7.878 -0.8403 -1.3507 -1.7612
  710MOL0     H93700  10.924   3.433   7.970 -1.2341 -0.0894 -0.3636
  710MOL0     H93701  11.015   3.311   8.054 -0.2925  0.3419 -0.1833
  710MOL0     H93702  10.433   2.494   7.551 -0.4808  1.3394 -1.5507
  710MOL0     H93703  10.326   2.333   7.416  0.1155 -0.1613  1.3081
  710MOL0     H93704  10.229   2.117   7.120 -0.3447 -1.2115  1.8217
  710MOL0     H93705  10.096   1.996   6.971 -0.0701 -0.9021 -0.2411
  710MOL0     H93706   8.701   0.920   7.104 -0.0980  0.5852  0.8457
  710MOL0     H93707   8.464   0.950   7.130 -1.0293  0.2254 -0.1558
  710MOL0     H93708   8.011   0.869   7.082  1.9995  0.0975  0.1345
  710MOL0     H93709   7.775   0.872   6.992  1.2563 -1.2294  1.7361
  710MOL0     H93710   7.602   1.006   7.015  1.0215 -3.2661 -0.0100
  710MOL0     H93711   7.544   0.899   6.889  1.9030 -0.0954 -2.6830
  710MOL0     H93712   7.481   1.188   6.932  0.8479  1.9181 -4.1101
  710MOL0     H93713   7.453   1.113   6.776 -2.1118 -0.2921  0.5374
  710MOL0     H93714   7.259   1.098   6.933  1.3069  1.0343 -0.6262
  710MOL0     H93715   7.340   0.998   7.052 -2.9641 -1.2005 -0.1851
  710MOL0     H93716   7.355   0.815   6.892 -0.1095 -0.2244  1.9238
  710MOL0     H93717   7.184   0.863   6.922 -1.9600  1.6971 -2.5808
  710MOL0     H93718   7.218   0.995   6.521 -2.0389  0.5182  0.8728
  710MOL0     H93719   7.873   1.206   6.744 -0.0444 -1.1784 -1.1003
  710MOL0     H93720   8.090   1.206   6.822 -1.7697  1.3278 -0.6112
  711MOL0     O93721   4.093   7.124   6.684  0.8051 -0.6972  0.1580
  711MOL0     C93722   4.027   7.072   6.770  0.3276  0.4788  0.5335
  711MOL0     O93723   4.055   6.960   6.833  0.3468  0.2857  0.2336
  711MOL0     C93724   4.174   6.905   6.799 -0.3661  0.8110 -0.6985
  711MOL0     C93725   4.279   6.910   6.886  0.3033 -0.5858  0.0023
  711MOL0     C93726   4.406   6.849   6.855  0.2597 -0.6445  1.1300
  711MOL0     C93727   4.424   6.777   6.732 -0.5586 -0.6427  0.0852
  711MOL0     O93728   4.542   6.713   6.692 -0.1172  0.1518  0.0136
  711MOL0     C93729   4.632   6.663   6.797  0.0777 -0.5747 -0.7354
  711MOL0     C93730   4.566   6.537   6.849  0.1052  0.1006  0.0151
  711MOL0     C93731   4.666   6.455   6.947  0.4033  1.3626  0.3427
  711MOL0     C93732   4.723   6.518   7.069  0.5296  0.1790 -0.5189
  711MOL0     C93733   4.823   6.429   7.142 -0.0487 -0.4778 -0.3987
  711MOL0     C93734   4.951   6.380   7.077  0.5257 -0.0534  0.5667
  711MOL0     C93735   5.049   6.306   7.170  1.1572  0.4511  0.2793
  711MOL0     C93736   5.175   6.261   7.097 -0.2512  0.2897 -0.8384
  711MOL0     N93737   5.266   6.370   7.078  0.6183  0.0159  0.2219
  711MOL0     C93738   5.347   6.433   7.167  0.6243 -0.2635  0.1774
  711MOL0     C93739   5.417   6.525   7.092  1.2570 -0.1638  0.0104
  711MOL0     C93740   5.520   6.632   7.119 -0.3034 -0.0030 -0.3084
  711MOL0     C93741   5.642   6.551   7.141 -0.6581  0.0078  0.4370
  711MOL0     C93742   5.772   6.623   7.119 -0.7492 -0.5071 -0.7341
  711MOL0     C93743   5.800   6.709   7.240 -0.3257  0.6684 -0.3780
  711MOL0     O93744   5.786   6.852   7.210  0.7804  0.3822  0.2234
  711MOL0     C93745   5.741   6.934   7.309  0.2207  0.0733  0.4585
  711MOL0     C93746   5.616   6.992   7.298 -0.2265 -0.2749  0.0895
  711MOL0     C93747   5.574   7.080   7.395 -1.0110 -0.4262 -0.0544
  711MOL0     C93748   5.650   7.111   7.505 -0.0884  0.3704 -1.1744
  711MOL0     C93749   5.605   7.216   7.598 -0.1724 -0.9638 -0.2502
  711MOL0     O93750   5.540   7.316   7.540 -1.2255 -0.3945  0.5326
  711MOL0     C93751   5.467   7.397   7.620  0.9000  0.5294  0.9406
  711MOL0     C93752   5.443   7.528   7.581 -0.3623 -0.2030  0.2184
  711MOL0     C93753   5.347   7.608   7.652 -1.1732  0.7616 -0.6060
  711MOL0     C93754   5.281   7.557   7.766 -0.1636 -0.3344  0.0544
  711MOL0     O93755   5.192   7.636   7.842 -0.1303  0.4403 -0.1974
  711MOL0     C93756   5.188   7.783   7.818  0.2112 -0.6221 -1.6777
  711MOL0     C93757   5.120   7.859   7.938 -0.2019 -0.1891  0.0066
  711MOL0     C93758   4.962   7.834   7.938  0.0937  0.5080 -0.2751
  711MOL0     C93759   4.898   7.872   8.074 -0.5631  0.5612 -0.1256
  711MOL0     C93760   4.754   7.908   8.067  0.0932  0.1795  0.4269
  711MOL0     C93761   4.705   8.007   7.953  0.4492  0.0278  0.2378
  711MOL0     C93762   4.778   8.135   7.964 -0.4373 -0.3439 -0.6269
  711MOL0     C93763   4.774   8.213   8.103  0.3816  0.0648 -0.2006
  711MOL0    Cl93764   4.600   8.233   8.157  0.0402  0.2656 -0.2068
  711MOL0     C93765   5.294   7.419   7.795  0.1176 -0.7709 -0.1627
  711MOL0     C93766   5.385   7.343   7.722  0.9389 -0.3807 -0.6518
  711MOL0     O93767   5.636   7.205   7.719 -0.2860  0.2886 -0.3428
  711MOL0     C93768   5.771   7.052   7.522 -0.5426 -0.0816  0.8021
  711MOL0     C93769   5.822   6.958   7.421 -1.4055 -0.2536  0.1344
  711MOL0     N93770   5.366   6.506   6.958 -1.1068  0.1734  0.0898
  711MOL0     N93771   5.278   6.419   6.951  0.6588  0.5897 -0.2777
  711MOL0     C93772   4.312   6.772   6.644 -0.1356 -0.2676  0.0618
  711MOL0     C93773   4.195   6.838   6.682 -0.4054 -0.6460  0.3816
  711MOL0     C93774   3.908   7.142   6.818  1.1431 -0.0704  0.5862
  711MOL0     C93775   3.860   7.117   6.945 -0.8456 -0.6950 -0.6964
  711MOL0     C93776   3.747   7.177   6.998 -0.2385  0.0199 -0.6374
  711MOL0     C93777   3.675   7.265   6.920  0.3210 -0.2106  0.1541
  711MOL0     O93778   3.565   7.331   6.971 -1.1341 -0.2879  0.4195
  711MOL0     C93779   3.474   7.244   7.038  1.1861 -0.9672 -0.3517
  711MOL0     C93780   3.357   7.317   7.117  0.3870  0.5549 -1.2832
  711MOL0     C93781   3.411   7.355   7.259  0.6218 -0.4854  0.7964
  711MOL0     C93782   3.305   7.447   7.325  0.4254  0.0206  0.5492
  711MOL0     C93783   3.184   7.378   7.366  0.5052 -0.8800 -0.1891
  711MOL0     C93784   3.079   7.321   7.407  0.8392 -0.4572 -0.7684
  711MOL0     C93785   3.717   7.290   6.790  0.0143  0.2882  0.7344
  711MOL0     C93786   3.831   7.230   6.736  0.0486 -0.1493 -1.4150
  711MOL0     H93787   4.262   6.962   6.979  2.7136  0.9156 -0.3163
  711MOL0     H93788   4.484   6.848   6.931  1.4599 -2.7911 -0.0175
  711MOL0     H93789   4.640   6.730   6.883 -2.9362 -1.6219  0.4844
  711MOL0     H93790   4.736   6.639   6.770 -1.0564 -2.1936 -4.1643
  711MOL0     H93791   4.539   6.477   6.761  0.3085  0.3707 -0.2346
  711MOL0     H93792   4.474   6.563   6.902 -1.2434  0.7003 -2.4457
  711MOL0     H93793   4.743   6.416   6.879  0.6692  0.7802  0.9716
  711MOL0     H93794   4.621   6.365   6.991  0.6752  1.3985  0.6958
  711MOL0     H93795   4.776   6.609   7.039 -0.7036  0.4295 -2.0628
  711MOL0     H93796   4.651   6.549   7.146  1.5868 -0.6978  0.8733
  711MOL0     H93797   4.768   6.340   7.174 -0.2728  0.1228  0.9596
  711MOL0     H93798   4.854   6.486   7.231 -1.2359 -0.8769  0.2898
  711MOL0     H93799   4.998   6.466   7.029 -2.9224  1.3510 -0.6558
  711MOL0     H93800   4.918   6.312   6.998  2.6700 -2.4236  1.5560
  711MOL0     H93801   5.075   6.365   7.258 -0.5396  0.1827  1.0101
  711MOL0     H93802   4.989   6.223   7.211  0.5552  2.0584  2.9150
  711MOL0     H93803   5.148   6.210   7.003 -0.2590  0.1663 -0.7691
  711MOL0     H93804   5.218   6.176   7.151 -0.6245 -0.7831 -2.1582
  711MOL0     H93805   5.366   6.410   7.272  0.5574  1.9579  0.7241
  711MOL0     H93806   5.494   6.704   7.198  0.4927  0.6741 -0.6552
  711MOL0     H93807   5.536   6.694   7.031 -0.3908  0.1579 -0.2113
  711MOL0     H93808   5.641   6.474   7.064 -1.7315  2.8891 -2.6663
  711MOL0     H93809   5.639   6.499   7.237  1.7870  1.1943  1.2318
  711MOL0     H93810   5.850   6.547   7.107  1.2390  1.3142  0.1199
  711MOL0     H93811   5.769   6.682   7.027  1.8534  0.2282 -0.4314
  711MOL0     H93812   5.905   6.686   7.260 -0.1743  0.0426 -1.7705
  711MOL0     H93813   5.742   6.683   7.329  0.3333 -0.6191 -0.3058
  711MOL0     H93814   5.556   6.969   7.211  1.4730 -1.1283 -0.9057
  711MOL0     H93815   5.472   7.117   7.386 -0.3672  2.0547  1.8065
  711MOL0     H93816   5.500   7.578   7.504  2.6443 -1.1517  1.6500
  711MOL0     H93817   5.344   7.711   7.617  0.0979  0.6025 -1.2469
  711MOL0     H93818   5.120   7.801   7.735 -0.9716  1.8991 -0.2520
  711MOL0     H93819   5.288   7.814   7.786  0.8367 -1.3811 -0.5544
  711MOL0     H93820   5.139   7.966   7.932 -0.3188 -0.2103 -0.8598
  711MOL0     H93821   5.160   7.826   8.034 -2.8641  1.8875  1.9929
  711MOL0     H93822   4.947   7.725   7.936  1.4045  0.3109  0.1596
  711MOL0     H93823   4.912   7.875   7.850 -0.6995 -1.7430 -0.9592
  711MOL0     H93824   4.912   7.798   8.153 -0.1847  0.8750  0.1032
  711MOL0     H93825   4.944   7.964   8.112 -0.5137  0.4503  0.0866
  711MOL0     H93826   4.723   7.942   8.166  4.9603  2.3229  1.5100
  711MOL0     H93827   4.700   7.814   8.052 -2.1236  1.5036 -0.2434
  711MOL0     H93828   4.596   8.019   7.956 -0.2636 -3.1800 -3.6332
  711MOL0     H93829   4.729   7.967   7.855 -2.7073 -0.3012 -0.5134
  711MOL0     H93830   4.883   8.107   7.950 -0.1142 -0.0382  1.0342
  711MOL0     H93831   4.737   8.202   7.889 -2.7459 -0.5804  0.3608
  711MOL0     H93832   4.808   8.315   8.087 -0.4719  0.3061 -0.5093
  711MOL0     H93833   4.829   8.174   8.190  0.3143 -0.0132 -0.1933
  711MOL0     H93834   5.222   7.371   7.861 -0.3903 -0.9116 -0.8090
  711MOL0     H93835   5.385   7.238   7.748  2.6882 -0.7133 -1.8209
  711MOL0     H93836   5.825   7.071   7.615  2.6024 -0.6287 -0.7740
  711MOL0     H93837   5.918   6.907   7.413 -0.2841  1.6411  0.6921
  711MOL0     H93838   4.321   6.720   6.549  0.2519  2.5738 -1.6044
  711MOL0     H93839   4.112   6.854   6.613 -0.7919  0.8362  1.1444
  711MOL0     H93840   3.912   7.046   7.008 -1.3452 -0.7452 -0.3385
  711MOL0     H93841   3.712   7.159   7.099  1.6440 -1.5814 -0.2064
  711MOL0     H93842   3.519   7.171   7.106  0.8273 -0.4049  0.4996
  711MOL0     H93843   3.433   7.185   6.955  2.3573 -1.6109 -0.4914
  711MOL0     H93844   3.328   7.401   7.054 -0.3555 -0.4049 -2.2638
  711MOL0     H93845   3.271   7.249   7.123 -2.1985  3.6711 -0.2613
  711MOL0     H93846   3.506   7.408   7.255  3.0438 -4.4253  0.4037
  711MOL0     H93847   3.422   7.263   7.318 -1.2150 -1.0559  0.3076
  711MOL0     H93848   3.362   7.498   7.403 -2.3870  1.9410  1.5362
  711MOL0     H93849   3.254   7.524   7.267  0.9695 -0.2721 -0.3246
  711MOL0     H93850   2.994   7.281   7.458  2.3511 -1.7494  0.8887
  711MOL0     H93851   3.646   7.349   6.732 -1.0572 -0.0579  1.6731
  711MOL0     H93852   3.840   7.256   6.631 -0.9957  2.4099 -0.9511
  712MOL0     O93853   0.860   0.409   5.649 -0.1830 -0.3148 -0.1842
  712MOL0     C93854   0.879   0.290   5.680 -0.5205 -0.4416  0.6574
  712MOL0     O93855   0.779   0.191   5.685  0.1064 -0.4555 -0.0757
  712MOL0     C93856   0.648   0.224   5.699  0.4883  0.3173 -0.3446
  712MOL0     C93857   0.561   0.133   5.635  0.0949 -0.2066 -0.7806
  712MOL0     C93858   0.425   0.154   5.631  0.5411 -0.7351 -0.6171
  712MOL0     C93859   0.368   0.278   5.687 -0.7314 -0.9504  0.1058
  712MOL0     O93860   0.240   0.314   5.698  0.0307  0.7152 -0.5638
  712MOL0     C93861   0.151   0.226   5.631 -0.1682 -0.4727 -0.2556
  712MOL0     C93862   0.012   0.296   5.644  0.2325  1.0093  0.5917
  712MOL0     C93863  -0.085   0.195   5.583 -0.2580  0.3247  0.2607
  712MOL0     C93864  -0.234   0.232   5.605 -0.2169 -1.0131 -0.1906
  712MOL0     C93865  -0.319   0.105   5.567  0.8309  0.6402 -0.2487
  712MOL0     C93866  -0.471   0.121   5.577 -0.3258  0.1100 -0.3779
  712MOL0     C93867  -0.517   0.131   5.723 -0.3259 -1.0683 -0.2096
  712MOL0     C93868  -0.668   0.114   5.733 -0.2600 -0.1016 -0.8484
  712MOL0     N93869  -0.700  -0.019   5.678  0.4603 -0.4656 -0.1755
  712MOL0     C93870  -0.765  -0.057   5.562 -0.8005 -0.1554 -0.3240
  712MOL0     C93871  -0.793  -0.193   5.580 -0.4593 -0.2456 -0.2516
  712MOL0     C93872  -0.852  -0.270   5.465 -0.2476 -0.2294  0.0033
  712MOL0     C93873  -0.828  -0.427   5.484  0.1495  0.0047  0.3395
  712MOL0     C93874  -0.906  -0.482   5.609 -0.6660 -0.4472  0.7213
  712MOL0     C93875  -0.892  -0.636   5.594 -0.2750 -0.6020 -0.3082
  712MOL0     O93876  -0.943  -0.706   5.710  0.0046  0.4932  0.6519
  712MOL0     C93877  -1.080  -0.735   5.714 -0.6414  0.3519  0.3489
  712MOL0     C93878  -1.116  -0.801   5.826  0.4776  0.0850 -0.2516
  712MOL0     C93879  -1.256  -0.841   5.847 -0.2595  0.2322 -0.5682
  712MOL0     C93880  -1.349  -0.799   5.750 -0.1059 -0.2718  1.0233
  712MOL0     C93881  -1.493  -0.839   5.752  0.3301 -0.9959 -0.8030
  712MOL0     O93882  -1.527  -0.944   5.840 -0.3504  0.5036 -0.2564
  712MOL0     C93883  -1.658  -0.951   5.881 -0.0592  1.0506 -0.5236
  712MOL0     C93884  -1.687  -0.950   6.023  1.0029 -0.0770  0.1039
  712MOL0     C93885  -1.822  -0.987   6.064 -0.1733 -0.4385 -0.3830
  712MOL0     C93886  -1.922  -1.007   5.963  0.7066 -1.1153 -0.8640
  712MOL0     O93887  -2.051  -1.029   6.003 -0.3250  0.2275 -0.0275
  712MOL0     C93888  -2.123  -1.129   5.932 -0.2985 -0.1560 -0.2129
  712MOL0     C93889  -2.227  -1.054   5.851  0.9302 -0.2867 -0.0460
  712MOL0     C93890  -2.322  -1.169   5.810 -0.3285 -0.2822  0.1634
  712MOL0     C93891  -2.432  -1.112   5.712  0.0725  1.3703 -0.2544
  712MOL0     C93892  -2.541  -1.217   5.692  0.2324 -0.1758 -0.0674
  712MOL0     C93893  -2.677  -1.152   5.632  0.1681 -0.3302  0.3987
  712MOL0     C93894  -2.750  -1.076   5.736  0.3013  0.4209  0.0427
  712MOL0     C93895  -2.902  -1.058   5.718 -1.6324  0.9388  0.1923
  712MOL0    Cl93896  -2.956  -0.958   5.853 -0.2936 -0.0526  0.4284
  712MOL0     C93897  -1.892  -0.997   5.831 -0.8261 -0.1590 -0.3173
  712MOL0     C93898  -1.761  -0.992   5.793  0.1319 -1.2858 -0.6694
  712MOL0     O93899  -1.578  -0.770   5.695  0.3312 -0.6903  0.6687
  712MOL0     C93900  -1.304  -0.733   5.634  0.3343  0.6167  0.1873
  712MOL0     C93901  -1.172  -0.704   5.614 -0.0399 -0.2578  0.5693
  712MOL0     N93902  -0.731  -0.229   5.695 -0.1734 -0.4634 -0.5035
  712MOL0     N93903  -0.688  -0.131   5.755 -0.3776  0.4549  0.3343
  712MOL0     C93904   0.458   0.369   5.740 -0.4650  0.0944 -0.0429
  712MOL0     C93905   0.594   0.346   5.742  0.9080  0.5986 -0.7873
  712MOL0     C93906   1.010   0.243   5.727 -0.5627  0.8049 -0.1572
  712MOL0     C93907   1.114   0.334   5.777  0.5080  0.7453  1.3968
  712MOL0     C93908   1.237   0.277   5.842  0.7358  0.5573 -0.1828
  712MOL0     C93909   1.264   0.145   5.854  0.4065  0.1690  0.6529
  712MOL0     O93910   1.377   0.107   5.926  0.2407 -1.0178  0.0687
  712MOL0     C93911   1.504   0.148   5.865  0.8486  1.1387  0.1592
  712MOL0     C93912   1.621   0.160   5.961 -0.9416 -0.1161 -0.0674
  712MOL0     C93913   1.612   0.279   6.047  0.0273  0.3293 -0.1571
  712MOL0     C93914   1.726   0.303   6.147 -0.1869 -0.1661 -0.3542
  712MOL0     C93915   1.695   0.231   6.272 -0.4746  0.4168 -0.9265
  712MOL0     C93916   1.661   0.162   6.371 -0.4040 -0.2753 -0.0741
  712MOL0     C93917   1.171   0.054   5.793 -0.0701 -0.3753  0.4473
  712MOL0     C93918   1.044   0.103   5.744  0.1842  0.9098  0.1338
  712MOL0     H93919   0.612   0.052   5.584  0.6490  2.3783 -4.7781
  712MOL0     H93920   0.360   0.069   5.614 -0.0693 -0.9330  2.2438
  712MOL0     H93921   0.147   0.127   5.676 -1.5782  1.0777  3.4516
  712MOL0     H93922   0.178   0.221   5.525 -2.0902 -2.6839 -0.7274
  712MOL0     H93923   0.013   0.393   5.594  0.6105  1.2405  1.0446
  712MOL0     H93924  -0.019   0.307   5.748  1.7416  0.3990  1.1318
  712MOL0     H93925  -0.074   0.094   5.623  1.7047 -0.7733 -2.7293
  712MOL0     H93926  -0.075   0.196   5.474 -0.0060 -1.8932  0.2049
  712MOL0     H93927  -0.259   0.256   5.709 -4.1905 -4.3167 -0.1033
  712MOL0     H93928  -0.260   0.317   5.542 -1.9494 -1.5148 -0.2156
  712MOL0     H93929  -0.292   0.015   5.621  0.1481  0.2930 -0.4668
  712MOL0     H93930  -0.291   0.089   5.462 -0.2982 -3.9050 -0.0781
  712MOL0     H93931  -0.522   0.039   5.526 -0.9113 -0.4206  1.0340
  712MOL0     H93932  -0.491   0.215   5.524  1.8241 -0.6732 -2.7834
  712MOL0     H93933  -0.462   0.054   5.779 -1.6435 -3.1282 -1.5983
  712MOL0     H93934  -0.482   0.222   5.771  1.3616 -0.4061 -2.5458
  712MOL0     H93935  -0.713   0.200   5.683 -1.0036  0.6026  0.9413
  712MOL0     H93936  -0.702   0.122   5.836  1.4588  2.0207 -0.3853
  712MOL0     H93937  -0.789   0.008   5.479  3.1314  4.6416  1.7523
  712MOL0     H93938  -0.800  -0.236   5.375 -3.3728 -0.0726 -1.9255
  712MOL0     H93939  -0.959  -0.249   5.454 -0.5194 -0.3644  2.0696
  712MOL0     H93940  -0.722  -0.451   5.498  0.4386  1.4755  0.9166
  712MOL0     H93941  -0.854  -0.467   5.386  1.0011  3.1363 -1.3316
  712MOL0     H93942  -0.852  -0.453   5.700 -0.9468  0.5751  0.5684
  712MOL0     H93943  -1.012  -0.459   5.599 -0.6779 -0.7747  0.0251
  712MOL0     H93944  -0.788  -0.672   5.585 -0.7933 -2.7780  1.4428
  712MOL0     H93945  -0.943  -0.666   5.502 -0.5287  1.3515 -0.8573
  712MOL0     H93946  -1.046  -0.829   5.904 -2.1573 -0.9905  1.9015
  712MOL0     H93947  -1.289  -0.893   5.936 -0.6341 -0.3834 -1.0571
  712MOL0     H93948  -1.609  -0.925   6.094  0.7431 -0.2522  0.4537
  712MOL0     H93949  -1.852  -0.973   6.167  0.4729 -2.4862  0.1431
  712MOL0     H93950  -2.177  -1.185   6.009 -0.3345  1.3012  0.8653
  712MOL0     H93951  -2.059  -1.197   5.875  0.5367  0.8445 -0.5056
  712MOL0     H93952  -2.197  -1.006   5.757 -2.8692  0.1313 -1.2060
  712MOL0     H93953  -2.271  -0.976   5.915 -1.1856 -1.9323  0.6045
  712MOL0     H93954  -2.369  -1.199   5.904  2.0671 -1.1796  1.1721
  712MOL0     H93955  -2.267  -1.251   5.762 -1.1713 -2.1811  2.2564
  712MOL0     H93956  -2.469  -1.032   5.775 -2.2521  0.0291  0.2166
  712MOL0     H93957  -2.381  -1.068   5.625  3.0884 -0.0406  0.6445
  712MOL0     H93958  -2.550  -1.278   5.782  2.0096  0.6485  0.7238
  712MOL0     H93959  -2.502  -1.281   5.612  0.3170  0.9306 -0.9517
  712MOL0     H93960  -2.751  -1.225   5.597 -0.6881 -0.1930  1.8133
  712MOL0     H93961  -2.645  -1.080   5.556 -2.5536  2.1658  1.4084
  712MOL0     H93962  -2.735  -1.130   5.830 -1.5356 -0.7309 -0.2675
  712MOL0     H93963  -2.700  -0.980   5.746 -2.2660  1.6430  2.5154
  712MOL0     H93964  -2.958  -1.151   5.720 -1.6216  0.8460 -1.8874
  712MOL0     H93965  -2.933  -1.007   5.627  0.4611  2.4425  0.2476
  712MOL0     H93966  -1.967  -1.011   5.754 -1.0810 -0.5583  0.0012
  712MOL0     H93967  -1.725  -1.010   5.692  1.5057 -1.0309 -0.2474
  712MOL0     H93968  -1.381  -0.712   5.560  1.0262  0.7008 -0.5168
  712MOL0     H93969  -1.150  -0.653   5.520 -0.8120 -1.8301 -0.5066
  712MOL0     H93970   0.421   0.467   5.769  1.0173  1.6174 -2.8161
  712MOL0     H93971   0.655   0.428   5.779  1.2161  1.3904 -2.8978
  712MOL0     H93972   1.099   0.441   5.768 -1.7010  0.3449 -0.5455
  712MOL0     H93973   1.305   0.350   5.884 -0.4527 -0.2618  3.6328
  712MOL0     H93974   1.493   0.246   5.816  3.0030 -0.2794 -3.6630
  712MOL0     H93975   1.537   0.071   5.794  3.0200  2.2162 -0.1192
  712MOL0     H93976   1.625   0.077   6.032  2.9485  2.4628  3.1974
  712MOL0     H93977   1.715   0.156   5.906 -0.3020  3.1746  0.5647
  712MOL0     H93978   1.519   0.283   6.105  0.5308 -1.5440  0.8500
  712MOL0     H93979   1.609   0.368   5.983 -3.1252  1.8364  1.8339
  712MOL0     H93980   1.819   0.265   6.106 -0.0979  0.6549 -0.9438
  712MOL0     H93981   1.728   0.411   6.163  0.6162  0.0160 -1.6034
  712MOL0     H93982   1.621   0.094   6.443 -1.2011 -0.1041 -0.3430
  712MOL0     H93983   1.183  -0.053   5.798 -1.3812 -0.6185 -0.7731
  712MOL0     H93984   0.961   0.034   5.732 -0.0543  1.2667 -0.3224
  713MOL0     O93985   9.764   4.285   6.342 -0.7558  1.0665  0.1776
  713MOL0     C93986   9.877   4.331   6.319  0.6055 -0.3682 -0.4386
  713MOL0     O93987   9.971   4.374   6.412  0.2809  0.6668 -0.0729
  713MOL0     C93988   9.928   4.369   6.537  0.7824  0.1586  0.3530
  713MOL0     C93989  10.009   4.287   6.618  0.3595 -1.0038 -0.2265
  713MOL0     C93990   9.988   4.274   6.756 -0.0353 -1.1619  0.0680
  713MOL0     C93991   9.898   4.365   6.820  0.5013  0.2804 -0.2535
  713MOL0     O93992   9.891   4.380   6.953  0.0681  0.6126 -0.4755
  713MOL0     C93993   9.915   4.518   6.997  0.1559 -0.0908 -0.2279
  713MOL0     C93994   9.921   4.507   7.145  0.7488  0.4431  0.3971
  713MOL0     C93995  10.025   4.414   7.197 -0.8473  0.3120 -0.6231
  713MOL0     C93996   9.960   4.320   7.302  0.3816  0.0723  0.3381
  713MOL0     C93997  10.046   4.189   7.330 -0.3272 -0.7499  0.1655
  713MOL0     C93998  10.001   4.112   7.459  0.6426 -0.5804  0.5835
  713MOL0     C93999   9.851   4.083   7.456 -0.2541 -0.4165 -0.3576
  713MOL0     C94000   9.791   4.000   7.577  0.7299  0.1421 -0.3211
  713MOL0     N94001   9.646   3.982   7.550 -0.6589 -0.8083 -0.0461
  713MOL0     C94002   9.579   3.859   7.532 -0.7151  0.0826  1.3842
  713MOL0     C94003   9.464   3.896   7.467  0.1167 -1.1959 -0.0456
  713MOL0     C94004   9.378   3.808   7.379  0.1808  0.3984 -0.1573
  713MOL0     C94005   9.231   3.800   7.421 -0.9654  0.0727 -0.2464
  713MOL0     C94006   9.166   3.706   7.325 -0.3929 -0.3193  0.6566
  713MOL0     C94007   9.020   3.692   7.375  0.1086 -0.3394  0.3405
  713MOL0     O94008   8.950   3.606   7.290 -0.3358 -0.1136  0.1299
  713MOL0     C94009   8.812   3.589   7.299  1.5459 -0.0198  0.9088
  713MOL0     C94010   8.753   3.533   7.180  0.2456 -1.0408 -0.2696
  713MOL0     C94011   8.614   3.497   7.179 -0.4266  0.1928  1.0320
  713MOL0     C94012   8.537   3.517   7.292  0.7819 -0.5011 -0.4338
  713MOL0     C94013   8.388   3.476   7.294  0.0837 -0.1301 -0.3225
  713MOL0     O94014   8.341   3.406   7.185  0.0850  0.5435  0.3811
  713MOL0     C94015   8.236   3.319   7.196  0.2068 -0.0930  0.1738
  713MOL0     C94016   8.241   3.193   7.141  1.0326 -0.5584  0.4305
  713MOL0     C94017   8.125   3.108   7.132 -0.8890  0.0275 -0.1122
  713MOL0     C94018   8.001   3.159   7.184  0.4879  0.0951 -0.3464
  713MOL0     O94019   7.874   3.101   7.195 -0.7313  1.3398  0.8148
  713MOL0     C94020   7.858   3.014   7.082  0.4595  0.9377 -0.4807
  713MOL0     C94021   7.874   3.084   6.941 -0.1756  0.7301 -0.3291
  713MOL0     C94022   7.776   3.016   6.843  0.3132  0.0486  0.6703
  713MOL0     C94023   7.841   2.889   6.780  0.3053  1.0910  0.1753
  713MOL0     C94024   7.804   2.894   6.632 -0.7800 -0.1903 -0.1127
  713MOL0     C94025   7.676   2.811   6.620 -0.3797  0.3287 -0.8942
  713MOL0     C94026   7.643   2.792   6.473 -0.3222 -0.0494 -1.3708
  713MOL0     C94027   7.501   2.743   6.458 -0.8227  0.5727 -0.7614
  713MOL0    Cl94028   7.436   2.772   6.302 -0.2147 -0.2702  0.5378
  713MOL0     C94029   8.015   3.277   7.266  0.5212  0.8722 -0.5057
  713MOL0     C94030   8.116   3.362   7.258  0.0186 -0.2008  1.0286
  713MOL0     O94031   8.324   3.526   7.383  0.5445  0.4041 -0.5049
  713MOL0     C94032   8.592   3.559   7.411 -1.0812 -0.0314  0.1316
  713MOL0     C94033   8.729   3.601   7.409  0.3205  0.4856  0.4247
  713MOL0     N94034   9.456   4.036   7.471  0.2969 -0.1317  0.0301
  713MOL0     N94035   9.555   4.085   7.529 -0.8272  0.1510 -0.2189
  713MOL0     C94036   9.816   4.444   6.733  0.2190  0.4308  0.6817
  713MOL0     C94037   9.825   4.447   6.590 -1.2697  0.2029 -0.8467
  713MOL0     C94038   9.920   4.345   6.178 -1.8139  0.0012  0.4300
  713MOL0     C94039  10.060   4.354   6.146  0.6515 -1.0914 -0.9937
  713MOL0     C94040  10.106   4.384   6.017 -0.2943  1.0258 -0.7999
  713MOL0     C94041  10.010   4.393   5.913 -0.3052 -0.3978 -0.3081
  713MOL0     O94042  10.055   4.391   5.780 -0.3546  0.6610 -0.3437
  713MOL0     C94043  10.174   4.462   5.726  0.2424 -0.6040 -0.3656
  713MOL0     C94044  10.145   4.539   5.597  0.6464 -0.3997  0.0106
  713MOL0     C94045  10.177   4.455   5.475 -0.2917 -0.0007 -0.4753
  713MOL0     C94046  10.179   4.541   5.341  0.0326 -0.3412 -0.3801
  713MOL0     C94047  10.230   4.459   5.233 -0.2026  0.2106 -1.0351
  713MOL0     C94048  10.254   4.374   5.154  0.2073 -0.2752 -0.3400
  713MOL0     C94049   9.877   4.381   5.938  0.1246  0.1399  0.5906
  713MOL0     C94050   9.834   4.362   6.068  0.2900  0.7672 -0.5984
  713MOL0     H94051  10.085   4.226   6.570 -0.4042 -1.8614 -0.3831
  713MOL0     H94052  10.042   4.222   6.834 -3.1690  0.0617  3.3656
  713MOL0     H94053   9.838   4.588   6.963 -1.5065  0.7720  4.5428
  713MOL0     H94054  10.015   4.558   6.976  0.5393 -0.1888  1.3135
  713MOL0     H94055   9.819   4.484   7.178  0.0060  1.1025 -1.3467
  713MOL0     H94056   9.945   4.607   7.184  2.3587  0.3531 -0.2927
  713MOL0     H94057  10.103   4.467   7.252 -0.5924  0.2276 -0.8963
  713MOL0     H94058  10.090   4.357   7.129  1.3233 -4.7818  4.8507
  713MOL0     H94059   9.945   4.377   7.394 -1.6216  0.1719  0.0096
  713MOL0     H94060   9.858   4.312   7.263 -0.1693  0.1474  1.7205
  713MOL0     H94061  10.154   4.207   7.331 -0.1686 -0.9342  4.7712
  713MOL0     H94062  10.021   4.117   7.251  0.4879  1.7133 -2.4716
  713MOL0     H94063  10.021   4.163   7.554 -0.3810  1.6500 -0.3084
  713MOL0     H94064  10.057   4.018   7.457 -2.0577 -2.3328  1.5916
  713MOL0     H94065   9.791   4.173   7.448  0.0956 -0.2415 -1.1036
  713MOL0     H94066   9.819   4.028   7.368  0.4318 -2.8649  0.8071
  713MOL0     H94067   9.802   4.053   7.672 -1.9684  0.3076 -0.0115
  713MOL0     H94068   9.823   3.896   7.584  0.4059  0.0649  0.0522
  713MOL0     H94069   9.630   3.763   7.534  0.6892  0.5488 -2.3583
  713MOL0     H94070   9.419   3.707   7.377 -3.6859 -1.4088  1.3945
  713MOL0     H94071   9.383   3.854   7.279  1.2062 -0.0977 -0.3460
  713MOL0     H94072   9.185   3.900   7.424 -1.2333 -0.0550  0.0751
  713MOL0     H94073   9.225   3.768   7.526  1.1399 -0.8326 -0.3629
  713MOL0     H94074   9.178   3.737   7.221  1.1634  2.4284  1.5565
  713MOL0     H94075   9.225   3.614   7.324  0.4674  0.1066 -3.3465
  713MOL0     H94076   8.959   3.783   7.380 -1.0514 -0.8954 -2.0990
  713MOL0     H94077   9.032   3.659   7.478  0.1929  1.6422  1.0092
  713MOL0     H94078   8.803   3.502   7.088 -0.4219 -2.8940 -0.0479
  713MOL0     H94079   8.589   3.450   7.085  1.9922 -2.8286  1.7223
  713MOL0     H94080   8.337   3.162   7.099  0.7261 -0.0254 -0.7133
  713MOL0     H94081   8.142   3.013   7.081 -1.2182  1.0542 -2.2310
  713MOL0     H94082   7.758   2.971   7.094  2.0781 -3.6000 -1.3732
  713MOL0     H94083   7.924   2.927   7.094  0.3851  0.8610 -0.6231
  713MOL0     H94084   7.973   3.110   6.903  0.5282  1.1568  1.7192
  713MOL0     H94085   7.826   3.183   6.938 -0.3198  0.6488 -0.7752
  713MOL0     H94086   7.761   3.089   6.763  3.0943 -0.7325 -0.7002
  713MOL0     H94087   7.683   2.982   6.890  0.7354 -1.0845  0.7106
  713MOL0     H94088   7.950   2.893   6.788  0.4899 -2.2563  0.8133
  713MOL0     H94089   7.808   2.794   6.822  0.7494  0.4347 -0.9353
  713MOL0     H94090   7.883   2.844   6.575 -0.4548 -1.6195  1.5213
  713MOL0     H94091   7.796   2.998   6.599  3.3900  1.6808  3.8164
  713MOL0     H94092   7.590   2.850   6.676 -0.0968 -2.1898  1.5468
  713MOL0     H94093   7.692   2.713   6.666 -0.7319  1.0726  0.8996
  713MOL0     H94094   7.663   2.891   6.431 -0.0243 -0.0566 -1.2500
  713MOL0     H94095   7.706   2.722   6.418 -0.2277 -0.8648 -0.2532
  713MOL0     H94096   7.434   2.792   6.529  0.3464  0.1194  0.7102
  713MOL0     H94097   7.512   2.636   6.479  1.2107  1.1146  1.2253
  713MOL0     H94098   7.932   3.315   7.325 -1.7094 -4.2615  0.2216
  713MOL0     H94099   8.106   3.460   7.302 -0.7161  0.9275 -1.4840
  713MOL0     H94100   8.536   3.569   7.503 -0.3677  2.0561  0.4103
  713MOL0     H94101   8.773   3.638   7.501  1.6962  0.6695 -0.2849
  713MOL0     H94102   9.746   4.514   6.777  0.6326  1.5670 -0.4106
  713MOL0     H94103   9.752   4.502   6.531 -2.9801 -1.5322 -0.4647
  713MOL0     H94104  10.131   4.339   6.226 -3.2603 -1.1706  2.8191
  713MOL0     H94105  10.212   4.389   5.994 -0.0891  1.3125  0.1779
  713MOL0     H94106  10.265   4.401   5.722  1.7980  1.5875 -0.5364
  713MOL0     H94107  10.210   4.532   5.802 -1.9155 -0.1008  0.2652
  713MOL0     H94108  10.035   4.539   5.589  0.7606 -1.2744 -4.0376
  713MOL0     H94109  10.179   4.643   5.596 -2.4675  0.7444  0.6791
  713MOL0     H94110  10.099   4.379   5.468  0.4573 -0.9527  0.8815
  713MOL0     H94111  10.271   4.403   5.497 -0.2292  0.0133 -0.7070
  713MOL0     H94112  10.080   4.582   5.321  0.5883  1.1670 -0.1616
  713MOL0     H94113  10.251   4.623   5.346 -2.8688  2.3088  2.3882
  713MOL0     H94114  10.278   4.302   5.078  1.2690  2.2346 -2.5327
  713MOL0     H94115   9.803   4.386   5.858 -2.0636 -0.5786  2.4627
  713MOL0     H94116   9.725   4.360   6.076  0.2734  0.1105 -0.8871
  714MOL0     O94117   5.046   6.177   3.533  0.0693  0.2891 -0.7325
  714MOL0     C94118   5.071   6.196   3.652 -0.2339  0.3248 -0.1746
  714MOL0     O94119   5.162   6.133   3.721 -0.3896  0.2748 -0.6721
  714MOL0     C94120   5.244   6.027   3.676  0.3737  0.0611 -0.2490
  714MOL0     C94121   5.215   5.946   3.568  0.5754  0.0367 -0.0071
  714MOL0     C94122   5.314   5.857   3.519 -0.0136 -0.8242 -0.1028
  714MOL0     C94123   5.433   5.836   3.592 -0.5278  0.2183 -0.8828
  714MOL0     O94124   5.514   5.739   3.554  0.1003 -0.1643 -0.3473
  714MOL0     C94125   5.599   5.673   3.649  0.1162 -0.0624  0.0632
  714MOL0     C94126   5.632   5.536   3.578  0.4701 -1.1640 -0.3513
  714MOL0     C94127   5.688   5.440   3.685 -0.1848  0.5859  0.2150
  714MOL0     C94128   5.764   5.325   3.626  0.1205 -0.0481  0.1257
  714MOL0     C94129   5.811   5.213   3.719 -0.1505 -0.5901 -0.5257
  714MOL0     C94130   5.898   5.113   3.644  0.1409 -0.0991  0.5966
  714MOL0     C94131   5.987   5.016   3.725 -0.1271 -0.1290 -0.0312
  714MOL0     C94132   6.108   5.093   3.790 -1.2658 -0.1657  0.1252
  714MOL0     N94133   6.215   5.005   3.846 -0.0203  0.1471  0.1038
  714MOL0     C94134   6.352   5.028   3.860  0.5897 -0.0200  0.0398
  714MOL0     C94135   6.402   4.906   3.894 -0.1739 -0.1703  0.9671
  714MOL0     C94136   6.544   4.869   3.929 -0.5680 -0.2222  0.7932
  714MOL0     C94137   6.610   4.762   3.834  0.1909  0.3360 -0.4574
  714MOL0     C94138   6.636   4.804   3.683 -0.3972  0.4504  0.1397
  714MOL0     C94139   6.513   4.800   3.595  0.3057  0.0140  0.3266
  714MOL0     O94140   6.534   4.784   3.455 -1.5723 -0.2330  0.0610
  714MOL0     C94141   6.419   4.794   3.382  0.2440  0.6096  0.1910
  714MOL0     C94142   6.303   4.869   3.423  0.4005  0.7792  0.4727
  714MOL0     C94143   6.190   4.879   3.347  0.1761 -0.4580  1.0932
  714MOL0     C94144   6.188   4.828   3.213 -0.1272  0.2128 -0.3501
  714MOL0     C94145   6.064   4.841   3.135  0.4668 -0.4437  0.2763
  714MOL0     O94146   6.056   4.768   3.033  0.2955  0.6399  1.2260
  714MOL0     C94147   5.935   4.777   2.959  0.7915  0.5400  0.4912
  714MOL0     C94148   5.890   4.906   2.913  0.5740 -0.2688 -0.2154
  714MOL0     C94149   5.758   4.928   2.871 -0.1575  0.8301 -1.3188
  714MOL0     C94150   5.678   4.818   2.854  0.5596  0.2456 -0.5011
  714MOL0     O94151   5.544   4.813   2.806 -0.8336 -0.2416 -0.6479
  714MOL0     C94152   5.476   4.941   2.823  0.0379 -0.2015  0.3082
  714MOL0     C94153   5.334   4.941   2.774  0.0959 -0.4841 -0.5283
  714MOL0     C94154   5.231   4.882   2.872  0.6141  0.3229  0.0254
  714MOL0     C94155   5.263   4.746   2.935 -0.2859 -0.0501 -0.8398
  714MOL0     C94156   5.158   4.693   3.023  0.5197  0.1114  0.3926
  714MOL0     C94157   5.164   4.719   3.172 -0.0672  0.1679 -0.1982
  714MOL0     C94158   5.079   4.841   3.212 -0.3077  0.4049  0.0887
  714MOL0     C94159   5.073   4.865   3.367  0.1226  0.0255 -0.1605
  714MOL0    Cl94160   4.994   5.021   3.399 -0.4478  0.1455 -0.7048
  714MOL0     C94161   5.729   4.697   2.885 -0.2344  0.0678  0.3410
  714MOL0     C94162   5.851   4.671   2.940 -0.0700  1.0974  0.0874
  714MOL0     O94163   5.976   4.923   3.176  0.0627 -0.1218  0.3487
  714MOL0     C94164   6.300   4.751   3.165  0.0424  0.3747 -0.4002
  714MOL0     C94165   6.414   4.750   3.252  0.3559 -0.0421  0.1484
  714MOL0     N94166   6.300   4.811   3.894 -0.2922  0.5044 -0.9384
  714MOL0     N94167   6.191   4.872   3.867  1.4015  0.1127  1.4843
  714MOL0     C94168   5.462   5.913   3.710  0.3973  0.6402 -0.5822
  714MOL0     C94169   5.369   6.010   3.742 -0.4915 -0.3483 -0.1133
  714MOL0     C94170   4.999   6.295   3.722  0.3768 -0.9210  0.2083
  714MOL0     C94171   5.010   6.316   3.863 -0.0214  0.2081 -0.3540
  714MOL0     C94172   4.943   6.423   3.934  0.3657  0.4087  0.2681
  714MOL0     C94173   4.875   6.519   3.855  0.3224 -0.9636 -0.0877
  714MOL0     O94174   4.804   6.627   3.909 -0.7079  0.1770  0.8097
  714MOL0     C94175   4.841   6.664   4.043  0.4365 -0.2074 -0.3931
  714MOL0     C94176   4.809   6.813   4.060 -0.3780  0.2619  0.0153
  714MOL0     C94177   4.832   6.857   4.204  0.2289 -0.4692 -0.0780
  714MOL0     C94178   4.795   7.003   4.229  0.0219  0.1595 -0.1951
  714MOL0     C94179   4.650   7.024   4.198  1.0145 -0.1776 -0.0726
  714MOL0     C94180   4.537   7.036   4.143 -0.8807 -0.0950  0.2353
  714MOL0     C94181   4.878   6.510   3.708 -0.9270  0.3424 -0.2191
  714MOL0     C94182   4.946   6.404   3.652  0.4139 -1.3917  0.1464
  714MOL0     H94183   5.124   5.953   3.509  0.6254  1.5505  0.0520
  714MOL0     H94184   5.307   5.786   3.437  0.7105 -1.8742  0.7225
  714MOL0     H94185   5.539   5.652   3.738  0.0150 -0.8115 -0.1721
  714MOL0     H94186   5.686   5.730   3.681  0.7064  1.4943 -3.7698
  714MOL0     H94187   5.696   5.553   3.490  0.2630 -0.8783 -0.4472
  714MOL0     H94188   5.541   5.503   3.527 -1.5770  1.0037  1.6781
  714MOL0     H94189   5.603   5.403   3.742 -0.2609 -0.2045 -0.3934
  714MOL0     H94190   5.756   5.486   3.758 -2.4758  0.3453  2.6460
  714MOL0     H94191   5.695   5.287   3.550 -1.0212  3.2837 -0.6604
  714MOL0     H94192   5.850   5.358   3.567 -0.2283  1.0314  0.2139
  714MOL0     H94193   5.731   5.161   3.772  0.4533 -0.1771  0.8323
  714MOL0     H94194   5.871   5.259   3.798  0.2747 -0.7267 -0.7679
  714MOL0     H94195   5.967   5.167   3.578  1.4197  1.0873  2.7734
  714MOL0     H94196   5.836   5.055   3.575  1.9145 -2.5621  0.9390
  714MOL0     H94197   5.929   4.969   3.805  1.9270 -0.8469  1.1103
  714MOL0     H94198   6.024   4.936   3.660 -0.7475 -0.8839  0.5234
  714MOL0     H94199   6.068   5.157   3.870  0.4959  0.7103  0.3457
  714MOL0     H94200   6.161   5.158   3.720  2.3502 -1.1435  1.6981
  714MOL0     H94201   6.401   5.124   3.843  2.1910 -0.7932  0.1107
  714MOL0     H94202   6.551   4.842   4.035  0.3068 -1.1815  0.5110
  714MOL0     H94203   6.613   4.954   3.921  0.2741 -0.6520  2.8630
  714MOL0     H94204   6.535   4.683   3.842  1.6338 -0.8594  3.2013
  714MOL0     H94205   6.700   4.738   3.890 -0.2171 -0.5009 -0.1403
  714MOL0     H94206   6.697   4.894   3.670  2.1214 -1.3978 -1.9810
  714MOL0     H94207   6.699   4.725   3.642 -0.8962  0.3506 -0.4449
  714MOL0     H94208   6.455   4.888   3.623 -1.0515 -0.8467  0.3327
  714MOL0     H94209   6.448   4.718   3.629  1.7816 -0.8755  1.1363
  714MOL0     H94210   6.295   4.885   3.530  1.4348 -4.5383  1.6545
  714MOL0     H94211   6.099   4.920   3.390  1.0415  0.6966  1.8787
  714MOL0     H94212   5.957   4.991   2.925 -0.8062  1.0129 -1.2839
  714MOL0     H94213   5.729   5.029   2.844 -1.8184  0.3314 -1.4929
  714MOL0     H94214   5.519   5.014   2.755 -2.3485 -0.5412 -1.7287
  714MOL0     H94215   5.472   4.970   2.928  0.7883 -1.4830  0.7200
  714MOL0     H94216   5.344   4.898   2.674  2.1240 -0.5095 -0.3548
  714MOL0     H94217   5.314   5.048   2.762  1.3529 -0.3827 -2.0942
  714MOL0     H94218   5.142   4.866   2.810  0.6406 -1.4037  0.4033
  714MOL0     H94219   5.200   4.960   2.943  0.4270  0.9767 -0.7452
  714MOL0     H94220   5.306   4.684   2.855  2.8960  2.0488 -0.9490
  714MOL0     H94221   5.350   4.768   2.999  0.6187 -0.2620 -1.9614
  714MOL0     H94222   5.157   4.583   3.020 -0.6440  0.0825  1.1043
  714MOL0     H94223   5.059   4.716   2.983  0.3662  1.1246  1.3150
  714MOL0     H94224   5.266   4.732   3.208 -0.1528  0.9931 -0.2292
  714MOL0     H94225   5.111   4.632   3.211 -0.1928  0.7775  1.0504
  714MOL0     H94226   5.120   4.930   3.163  0.3723  1.6962  2.8193
  714MOL0     H94227   4.976   4.823   3.179 -0.1918  0.7322 -0.4631
  714MOL0     H94228   5.176   4.885   3.400  0.1660  0.9494 -0.8096
  714MOL0     H94229   5.028   4.781   3.420  1.1971 -0.7505 -0.4436
  714MOL0     H94230   5.653   4.619   2.888 -1.5439  1.2421 -1.0905
  714MOL0     H94231   5.881   4.571   2.969 -0.3280  1.1847  0.6791
  714MOL0     H94232   6.299   4.708   3.065 -3.5918  0.2847 -0.4794
  714MOL0     H94233   6.502   4.695   3.221 -0.5427 -1.7986  0.5816
  714MOL0     H94234   5.559   5.893   3.755  0.5988 -0.1309 -1.3412
  714MOL0     H94235   5.396   6.073   3.826  2.0683  0.8567 -1.7162
  714MOL0     H94236   5.059   6.236   3.917 -1.8679  0.0913  1.2504
  714MOL0     H94237   4.932   6.428   4.042  2.5104  2.5435  0.4732
  714MOL0     H94238   4.949   6.655   4.058  0.4703 -0.5203 -0.8000
  714MOL0     H94239   4.783   6.611   4.119  0.4597 -2.4330 -1.8321
  714MOL0     H94240   4.870   6.873   3.992  0.1606  0.6559  0.8284
  714MOL0     H94241   4.704   6.829   4.030 -1.8796  2.2800  5.1724
  714MOL0     H94242   4.938   6.853   4.232  0.0079  0.8915  1.0517
  714MOL0     H94243   4.771   6.792   4.267 -2.3646 -0.3315 -2.2421
  714MOL0     H94244   4.813   7.027   4.335  2.3505  0.5128 -0.6142
  714MOL0     H94245   4.852   7.074   4.169 -2.4014  2.1830 -0.2878
  714MOL0     H94246   4.437   7.049   4.107 -0.4961 -3.9341 -2.8719
  714MOL0     H94247   4.842   6.594   3.650  0.7812  1.6501  0.5128
  714MOL0     H94248   4.950   6.417   3.544 -2.2172 -1.3772 -0.0119
  715MOL0     O94249   1.045   5.960   4.178 -0.5081  0.3751  0.2412
  715MOL0     C94250   1.043   6.087   4.167 -0.3904  0.8102  0.1292
  715MOL0     O94251   0.968   6.150   4.070 -0.9023 -0.7399  1.1497
  715MOL0     C94252   0.899   6.066   3.994 -0.2182 -0.0566 -0.4037
  715MOL0     C94253   0.777   6.011   4.040  1.0278  0.0214 -0.1473
  715MOL0     C94254   0.693   5.931   3.958  0.1080 -0.0618 -0.5765
  715MOL0     C94255   0.743   5.892   3.833 -0.3965  0.1985  0.0554
  715MOL0     O94256   0.680   5.812   3.745 -0.5853  0.0609  0.1920
  715MOL0     C94257   0.550   5.778   3.761  0.4870 -0.1003 -0.1936
  715MOL0     C94258   0.502   5.700   3.639  0.3020  0.6779  0.5001
  715MOL0     C94259   0.581   5.569   3.626 -0.8928 -0.7439 -0.6871
  715MOL0     C94260   0.525   5.482   3.519 -0.5850  0.0504 -0.6402
  715MOL0     C94261   0.396   5.414   3.561 -0.5352 -1.0772  0.3521
  715MOL0     C94262   0.421   5.276   3.624  0.8856  0.1268  0.2417
  715MOL0     C94263   0.288   5.189   3.642 -0.0790  0.2734 -0.2400
  715MOL0     C94264   0.239   5.151   3.503  0.2368 -0.2599  0.7322
  715MOL0     N94265   0.136   5.049   3.507  0.7089  0.0215  0.3631
  715MOL0     C94266   0.162   4.919   3.535  0.0035 -0.0290  0.0472
  715MOL0     C94267   0.066   4.869   3.456 -0.4705  0.2083  0.1655
  715MOL0     C94268   0.060   4.719   3.430  0.9717 -1.1037  0.0655
  715MOL0     C94269   0.125   4.679   3.308 -0.4865 -0.5344  0.0934
  715MOL0     C94270   0.181   4.540   3.303 -0.5194 -0.7575 -0.6686
  715MOL0     C94271   0.075   4.432   3.281  0.6116 -0.6979 -0.0922
  715MOL0     O94272   0.008   4.391   3.402 -0.2416 -0.1633 -0.5854
  715MOL0     C94273  -0.108   4.318   3.394 -0.0431  0.4638 -0.4297
  715MOL0     C94274  -0.172   4.293   3.516  0.1985 -0.4296 -0.7009
  715MOL0     C94275  -0.305   4.241   3.511 -0.2910  0.2168 -0.2862
  715MOL0     C94276  -0.369   4.219   3.392 -0.2595  0.3263  0.7004
  715MOL0     C94277  -0.514   4.163   3.404 -0.0569 -0.5004  1.4227
  715MOL0     O94278  -0.550   4.098   3.513  0.6399 -0.7499 -0.6712
  715MOL0     C94279  -0.674   4.040   3.511  0.5636  0.0599 -0.1278
  715MOL0     C94280  -0.758   4.070   3.609  0.3781 -0.3253 -0.6814
  715MOL0     C94281  -0.888   4.016   3.605  0.2256  0.3585 -1.0062
  715MOL0     C94282  -0.942   3.933   3.506  0.6334  0.4521 -0.0283
  715MOL0     O94283  -1.064   3.875   3.506 -0.2670  0.9531 -0.6264
  715MOL0     C94284  -1.149   3.885   3.619  0.1352  0.0832 -0.0851
  715MOL0     C94285  -1.292   3.832   3.580  0.1256  0.1643 -0.1422
  715MOL0     C94286  -1.397   3.838   3.685  0.3340 -0.0853 -0.1690
  715MOL0     C94287  -1.534   3.777   3.643  0.0746 -0.7798 -0.2220
  715MOL0     C94288  -1.636   3.786   3.746 -0.4612  0.3084  0.2850
  715MOL0     C94289  -1.762   3.709   3.710  0.1998 -0.4936 -0.8609
  715MOL0     C94290  -1.874   3.743   3.822 -1.4532 -0.3260  0.4881
  715MOL0     C94291  -2.012   3.701   3.785 -0.0116  0.2939 -0.1297
  715MOL0    Cl94292  -2.024   3.539   3.720 -0.2949 -0.3870 -0.2201
  715MOL0     C94293  -0.852   3.894   3.412 -0.1135 -0.2452 -0.4520
  715MOL0     C94294  -0.717   3.946   3.409 -0.0126 -0.4545 -0.0347
  715MOL0     O94295  -0.590   4.177   3.304 -0.4284 -0.4223  0.1149
  715MOL0     C94296  -0.301   4.256   3.272  0.4395  0.1239  0.1986
  715MOL0     C94297  -0.170   4.294   3.271 -0.1295  0.6888 -0.6171
  715MOL0     N94298  -0.028   4.961   3.404 -0.3572 -0.0153  0.0874
  715MOL0     N94299   0.020   5.071   3.432  0.4239  0.1952 -0.1939
  715MOL0     C94300   0.864   5.935   3.797 -0.5795  1.2079 -0.6818
  715MOL0     C94301   0.942   6.023   3.875 -0.6261  0.1454  0.0374
  715MOL0     C94302   1.131   6.165   4.265 -0.5109  0.5141 -0.3624
  715MOL0     C94303   1.132   6.301   4.269  0.7194  0.5779 -0.0952
  715MOL0     C94304   1.212   6.377   4.365  0.1001  0.4712  0.6271
  715MOL0     C94305   1.281   6.311   4.465  0.0518  0.7560  0.2431
  715MOL0     O94306   1.337   6.361   4.572  0.1208 -0.4539 -0.6282
  715MOL0     C94307   1.402   6.491   4.558 -0.4992  0.1063 -0.4013
  715MOL0     C94308   1.553   6.478   4.596  0.2400 -0.6856  0.4109
  715MOL0     C94309   1.635   6.603   4.562 -0.6223 -0.1944  0.0077
  715MOL0     C94310   1.778   6.611   4.634 -0.7535  0.6554  0.2174
  715MOL0     C94311   1.876   6.541   4.546 -0.8473 -0.4007 -0.8750
  715MOL0     C94312   1.955   6.468   4.487  0.1461 -0.4731  0.5588
  715MOL0     C94313   1.275   6.171   4.476  1.0863  1.0985  0.9736
  715MOL0     C94314   1.201   6.099   4.369 -0.3069  0.0603 -0.5631
  715MOL0     H94315   0.737   6.060   4.128  0.3911  1.6197 -1.2715
  715MOL0     H94316   0.605   5.892   4.008  0.8058 -0.9645 -0.0062
  715MOL0     H94317   0.493   5.871   3.769  0.6961  0.2333 -2.1905
  715MOL0     H94318   0.535   5.710   3.845  1.4029 -1.3302 -1.0025
  715MOL0     H94319   0.513   5.769   3.555  2.1774  0.7286  0.7400
  715MOL0     H94320   0.395   5.684   3.656  0.0388  2.3823  0.6106
  715MOL0     H94321   0.570   5.513   3.719  0.8575 -2.1224 -1.2667
  715MOL0     H94322   0.684   5.595   3.602 -2.0355  3.7538 -1.7859
  715MOL0     H94323   0.508   5.542   3.429  0.5140 -2.3184 -2.5468
  715MOL0     H94324   0.600   5.406   3.494 -1.2152 -0.8029 -0.0025
  715MOL0     H94325   0.340   5.418   3.467  1.8069  0.7755 -1.0915
  715MOL0     H94326   0.345   5.481   3.631  1.3436  1.6953 -0.7544
  715MOL0     H94327   0.465   5.301   3.720  0.4405  0.3879  0.3773
  715MOL0     H94328   0.497   5.223   3.566 -1.0830  2.0202 -4.6192
  715MOL0     H94329   0.318   5.105   3.705 -2.2535  1.2114  2.2345
  715MOL0     H94330   0.212   5.236   3.704  1.7257  0.5753  1.8765
  715MOL0     H94331   0.315   5.095   3.449 -1.2077 -1.8121  0.2032
  715MOL0     H94332   0.192   5.237   3.454 -0.0836 -1.5209 -1.3058
  715MOL0     H94333   0.226   4.876   3.611 -1.6253 -2.1026  0.3281
  715MOL0     H94334  -0.042   4.678   3.429  0.5655 -0.0816 -1.0214
  715MOL0     H94335   0.114   4.682   3.518 -1.1398  0.7150  2.2765
  715MOL0     H94336   0.206   4.744   3.275 -0.5912 -0.0343  0.7929
  715MOL0     H94337   0.057   4.695   3.225 -0.4994  0.8366  0.3465
  715MOL0     H94338   0.253   4.541   3.221  2.0287  0.4117  1.4300
  715MOL0     H94339   0.229   4.518   3.399 -1.2817  3.6920  1.0108
  715MOL0     H94340   0.125   4.344   3.239 -0.3257 -0.4258 -1.8999
  715MOL0     H94341  -0.004   4.467   3.214 -2.7654 -4.3983  1.5200
  715MOL0     H94342  -0.119   4.323   3.606 -5.1637 -1.2332  3.1873
  715MOL0     H94343  -0.353   4.207   3.603  1.6784  1.7592  1.4287
  715MOL0     H94344  -0.725   4.111   3.703 -3.1599 -2.1542  1.5748
  715MOL0     H94345  -0.947   4.037   3.694  1.4677 -2.7042  0.7225
  715MOL0     H94346  -1.157   3.983   3.667  0.2067 -0.6193  1.4236
  715MOL0     H94347  -1.113   3.816   3.696 -2.0158 -1.4334 -0.3577
  715MOL0     H94348  -1.287   3.730   3.541 -0.6321  1.0678 -2.8460
  715MOL0     H94349  -1.324   3.896   3.497  2.1712  0.5296 -0.7134
  715MOL0     H94350  -1.410   3.944   3.711  4.2189  0.1888  1.2925
  715MOL0     H94351  -1.361   3.796   3.779 -1.4474 -1.2912  0.0201
  715MOL0     H94352  -1.575   3.812   3.548 -0.6484  1.2033  0.7748
  715MOL0     H94353  -1.505   3.675   3.615  2.2805 -0.4644  0.6705
  715MOL0     H94354  -1.671   3.890   3.744  1.7604  1.1107  0.0901
  715MOL0     H94355  -1.597   3.755   3.843  3.3291  0.9978 -0.8618
  715MOL0     H94356  -1.742   3.602   3.699  1.0017 -0.3749 -0.6135
  715MOL0     H94357  -1.814   3.747   3.622 -1.9581 -2.2272 -0.4205
  715MOL0     H94358  -1.836   3.698   3.914  3.0038 -1.8734 -1.8188
  715MOL0     H94359  -1.879   3.850   3.844  1.0809  0.2211 -1.1977
  715MOL0     H94360  -2.042   3.762   3.699  2.6448 -1.7567 -2.7030
  715MOL0     H94361  -2.075   3.712   3.874 -1.0483  1.0594 -0.9193
  715MOL0     H94362  -0.886   3.814   3.347  1.0056 -0.9020 -0.2685
  715MOL0     H94363  -0.658   3.911   3.325  0.0557  1.3548 -0.7858
  715MOL0     H94364  -0.365   4.252   3.184 -0.2446  1.1468  0.6301
  715MOL0     H94365  -0.136   4.320   3.171 -2.0117  1.5178 -1.0976
  715MOL0     H94366   0.896   5.903   3.699  0.3156  0.6218 -0.2115
  715MOL0     H94367   1.039   6.057   3.840 -2.3799  4.0608 -1.5819
  715MOL0     H94368   1.070   6.355   4.199 -2.8260 -2.8051  0.1062
  715MOL0     H94369   1.191   6.483   4.360  2.3514  1.0454  1.9672
  715MOL0     H94370   1.350   6.563   4.623 -0.6491  0.6760 -1.1438
  715MOL0     H94371   1.401   6.516   4.452  2.0804 -0.6997 -0.6710
  715MOL0     H94372   1.572   6.454   4.701 -0.6570  3.1390  1.5852
  715MOL0     H94373   1.604   6.399   4.539  2.3290  1.2042 -0.4764
  715MOL0     H94374   1.586   6.700   4.565  1.6344  1.0182  0.0479
  715MOL0     H94375   1.651   6.596   4.454 -1.2794 -1.7259 -0.0183
  715MOL0     H94376   1.795   6.717   4.655 -1.1961  0.9577 -0.8696
  715MOL0     H94377   1.761   6.569   4.733 -4.2108  2.6847  0.6626
  715MOL0     H94378   2.011   6.412   4.415 -0.5471 -0.1782 -0.2225
  715MOL0     H94379   1.310   6.111   4.559  0.0133  0.0180  0.6692
  715MOL0     H94380   1.191   5.992   4.383  0.6191  0.3289  3.4266
  716MOL0     O94381   4.499   4.637   0.045 -0.0854 -0.2792 -0.0571
  716MOL0     C94382   4.440   4.567  -0.033  0.2449  0.8184  0.5973
  716MOL0     O94383   4.445   4.568  -0.166 -0.1612 -0.0464 -0.4193
  716MOL0     C94384   4.535   4.644  -0.229  0.1865  0.2596 -0.2388
  716MOL0     C94385   4.501   4.768  -0.267 -0.0346 -0.5518  0.4944
  716MOL0     C94386   4.577   4.838  -0.360  0.3961 -0.5217 -0.0797
  716MOL0     C94387   4.701   4.787  -0.404  0.5259 -0.6732 -0.3357
  716MOL0     O94388   4.802   4.861  -0.467  0.3534  0.1362 -0.4736
  716MOL0     C94389   4.799   4.994  -0.432 -0.2502 -0.3989 -0.0715
  716MOL0     C94390   4.940   5.047  -0.480  0.2982  0.4075 -0.3576
  716MOL0     C94391   4.911   5.152  -0.589 -0.5175  1.3423  0.7079
  716MOL0     C94392   4.859   5.091  -0.726 -0.3267  0.4870 -0.1667
  716MOL0     C94393   4.784   5.196  -0.811  0.1382  0.6820 -0.5704
  716MOL0     C94394   4.655   5.241  -0.748 -0.6412 -0.2006  0.8667
  716MOL0     C94395   4.567   5.306  -0.859  0.1332 -0.0474 -0.2293
  716MOL0     C94396   4.433   5.367  -0.818  0.0031  0.2685  1.5695
  716MOL0     N94397   4.355   5.271  -0.732  0.8702  0.2264 -0.4198
  716MOL0     C94398   4.281   5.167  -0.769  0.1692  0.8287 -0.1738
  716MOL0     C94399   4.243   5.104  -0.656  0.4037 -0.1673  0.7117
  716MOL0     C94400   4.172   4.966  -0.647  0.1144 -0.3723  0.5840
  716MOL0     C94401   4.051   4.968  -0.546 -0.2397  0.7058  0.1587
  716MOL0     C94402   3.947   4.856  -0.581 -0.2258  0.4248 -0.2402
  716MOL0     C94403   3.859   4.839  -0.462  0.3705 -0.7353 -0.1605
  716MOL0     O94404   3.770   4.954  -0.474 -0.0925 -0.0586 -0.0607
  716MOL0     C94405   3.657   4.962  -0.395 -0.8000  0.2505 -0.3539
  716MOL0     C94406   3.577   5.071  -0.431 -1.2707  0.4289 -0.8444
  716MOL0     C94407   3.446   5.065  -0.365 -0.1423  0.4085 -0.2457
  716MOL0     C94408   3.416   4.969  -0.263  0.0823  0.5646 -0.3451
  716MOL0     C94409   3.286   4.991  -0.183 -0.7252 -0.4195  0.9269
  716MOL0     O94410   3.292   4.943  -0.063  0.4473  0.0657 -0.5218
  716MOL0     C94411   3.174   4.935   0.003  0.6393  0.2302 -0.2557
  716MOL0     C94412   3.160   4.986   0.128 -0.2105 -0.6140 -1.1282
  716MOL0     C94413   3.048   4.958   0.205  0.5069 -0.6083 -0.2097
  716MOL0     C94414   2.945   4.881   0.156  0.9371  0.0629  0.0089
  716MOL0     O94415   2.844   4.866   0.236  0.7955 -0.5466 -0.5359
  716MOL0     C94416   2.752   4.756   0.212 -0.3651 -0.8398  0.2628
  716MOL0     C94417   2.672   4.743   0.338 -0.3371 -0.1861  0.4551
  716MOL0     C94418   2.580   4.618   0.335  0.6227 -0.3437  0.6248
  716MOL0     C94419   2.503   4.616   0.462 -0.3063  0.7675 -0.8499
  716MOL0     C94420   2.393   4.518   0.459  0.3957  0.2425  0.3967
  716MOL0     C94421   2.322   4.514   0.598  0.8474 -0.0474  0.3617
  716MOL0     C94422   2.205   4.423   0.590  0.6137  0.2013 -0.2019
  716MOL0     C94423   2.163   4.397   0.740  0.4053 -0.7146 -0.0456
  716MOL0    Cl94424   2.025   4.300   0.766 -0.1864  0.5280  0.3066
  716MOL0     C94425   2.940   4.834   0.027  0.6619  0.3329 -0.2727
  716MOL0     C94426   3.068   4.854  -0.045 -0.0114 -0.0551 -0.4258
  716MOL0     O94427   3.193   5.047  -0.242  0.6802 -0.4939  0.6086
  716MOL0     C94428   3.502   4.866  -0.230 -0.5696 -0.0599 -0.5911
  716MOL0     C94429   3.624   4.868  -0.294  0.5684 -0.2515  0.0176
  716MOL0     N94430   4.274   5.186  -0.553 -0.1244 -0.4385  0.4516
  716MOL0     N94431   4.347   5.276  -0.595 -1.0134 -0.0916 -0.6624
  716MOL0     C94432   4.743   4.659  -0.351  0.3437  0.2374 -0.4527
  716MOL0     C94433   4.655   4.587  -0.272 -0.4067  0.0071 -0.8181
  716MOL0     C94434   4.333   4.482   0.025  1.5423  0.6984  0.4702
  716MOL0     C94435   4.337   4.454   0.162  0.6638 -1.1609 -0.2048
  716MOL0     C94436   4.243   4.369   0.229  0.7124 -0.6201 -0.0569
  716MOL0     C94437   4.150   4.301   0.152 -0.3351 -0.8409 -0.4769
  716MOL0     O94438   4.058   4.230   0.222  0.7065 -0.0573  0.0430
  716MOL0     C94439   4.014   4.107   0.153 -0.0148  0.5421  0.0646
  716MOL0     C94440   4.145   4.012   0.140  1.0215 -0.3019  0.5965
  716MOL0     C94441   4.103   3.864   0.154  1.1530  0.2354  0.3326
  716MOL0     C94442   4.193   3.771   0.068  0.1729 -0.1217 -0.1775
  716MOL0     C94443   4.202   3.627   0.106 -0.0542 -0.9273  0.0354
  716MOL0     C94444   4.206   3.516   0.155  0.2234 -0.4817 -1.8006
  716MOL0     C94445   4.135   4.328   0.011 -0.5005 -0.3961  0.6219
  716MOL0     C94446   4.226   4.420  -0.046  0.3690  0.8349  0.1128
  716MOL0     H94447   4.403   4.809  -0.247 -0.1851 -1.0943  0.8777
  716MOL0     H94448   4.529   4.934  -0.380  0.2896 -0.6618 -0.4897
  716MOL0     H94449   4.781   5.011  -0.325  0.8980  0.8856 -0.0398
  716MOL0     H94450   4.723   5.050  -0.486  0.5273  0.7834  0.0093
  716MOL0     H94451   5.000   4.960  -0.509 -2.3404 -1.5634 -0.3187
  716MOL0     H94452   4.992   5.084  -0.392 -0.6717 -0.1104  0.4531
  716MOL0     H94453   5.005   5.207  -0.601  0.7111 -0.7482  0.1564
  716MOL0     H94454   4.842   5.227  -0.553 -0.0366  2.1379  0.0160
  716MOL0     H94455   4.942   5.054  -0.788  2.4047  2.0385  2.2799
  716MOL0     H94456   4.794   5.006  -0.705 -1.8214  1.2877 -1.3365
  716MOL0     H94457   4.761   5.164  -0.913 -2.0092  0.3111 -0.0169
  716MOL0     H94458   4.855   5.279  -0.819  0.9195 -0.0748 -1.7535
  716MOL0     H94459   4.684   5.307  -0.666  1.6952 -2.9516  2.4753
  716MOL0     H94460   4.609   5.150  -0.709 -1.3149 -1.4412 -2.5119
  716MOL0     H94461   4.630   5.380  -0.909 -0.9528  0.5746 -0.7114
  716MOL0     H94462   4.535   5.235  -0.935  2.0669 -0.8973 -0.2979
  716MOL0     H94463   4.381   5.381  -0.914 -0.7703 -0.2159  1.9052
  716MOL0     H94464   4.442   5.464  -0.768  0.7901 -0.6143  3.2091
  716MOL0     H94465   4.280   5.118  -0.865 -0.1520  1.9714 -0.7716
  716MOL0     H94466   4.247   4.896  -0.610  1.5512  0.9618  0.2674
  716MOL0     H94467   4.135   4.929  -0.743  0.4553 -1.0681  0.7157
  716MOL0     H94468   4.004   5.066  -0.553 -0.2908  0.6431 -0.4079
  716MOL0     H94469   4.091   4.948  -0.446  1.7863 -3.2038 -1.1975
  716MOL0     H94470   3.882   4.891  -0.662  2.9168  3.7325 -1.5830
  716MOL0     H94471   3.989   4.759  -0.611  0.8622  1.9545 -4.4100
  716MOL0     H94472   3.911   4.844  -0.366  1.6280  1.1409 -0.8853
  716MOL0     H94473   3.797   4.749  -0.471 -0.8122  0.2001 -1.7642
  716MOL0     H94474   3.604   5.141  -0.509  0.3920 -0.3456 -0.9899
  716MOL0     H94475   3.374   5.141  -0.396 -0.4970  0.4032  0.5427
  716MOL0     H94476   3.237   5.049   0.169 -1.2820  1.7927 -2.5844
  716MOL0     H94477   3.044   5.001   0.305 -3.1920 -1.5559  0.1596
  716MOL0     H94478   2.808   4.662   0.204  0.5021 -0.4324  1.3693
  716MOL0     H94479   2.682   4.780   0.131  0.6953  1.8977  0.0462
  716MOL0     H94480   2.611   4.833   0.347  2.2586  1.8532 -1.0195
  716MOL0     H94481   2.729   4.737   0.431 -2.9383  2.3897  2.4266
  716MOL0     H94482   2.641   4.527   0.329 -1.3354 -1.7058  0.3432
  716MOL0     H94483   2.502   4.623   0.258  1.1825 -1.8195 -0.0974
  716MOL0     H94484   2.582   4.589   0.533  0.0725 -0.7945 -1.8125
  716MOL0     H94485   2.462   4.710   0.501 -0.0822 -0.9404  4.2234
  716MOL0     H94486   2.430   4.421   0.424 -0.2872  0.2852 -0.4698
  716MOL0     H94487   2.327   4.538   0.375  0.9482 -1.1664 -0.4134
  716MOL0     H94488   2.287   4.616   0.617  4.3093  1.4631 -0.5925
  716MOL0     H94489   2.387   4.481   0.680  1.4235  0.3364  0.0622
  716MOL0     H94490   2.118   4.469   0.541  1.6141  2.8190  0.3158
  716MOL0     H94491   2.231   4.330   0.539  0.2912  0.5123 -0.9462
  716MOL0     H94492   2.146   4.496   0.784  1.2606 -0.7546  0.3976
  716MOL0     H94493   2.247   4.363   0.802  2.1712  0.3862 -1.7224
  716MOL0     H94494   2.861   4.774  -0.017  0.0076 -0.0858  1.4030
  716MOL0     H94495   3.073   4.799  -0.139 -2.0048 -1.1860  0.0740
  716MOL0     H94496   3.488   4.779  -0.166  2.0402 -1.0865 -1.2691
  716MOL0     H94497   3.690   4.783  -0.281 -0.1175 -0.8867 -0.5928
  716MOL0     H94498   4.830   4.600  -0.377 -0.6240 -2.4269  1.7983
  716MOL0     H94499   4.674   4.481  -0.263  1.8189  0.5140  1.7306
  716MOL0     H94500   4.404   4.512   0.226  0.6009 -0.3296 -0.8775
  716MOL0     H94501   4.241   4.365   0.338 -2.1437  0.3693  0.0029
  716MOL0     H94502   3.964   4.126   0.058  0.0892 -0.8512 -0.2772
  716MOL0     H94503   3.944   4.056   0.219  0.9645 -2.8200 -1.2911
  716MOL0     H94504   4.193   4.029   0.043  1.5543  0.5289  0.9880
  716MOL0     H94505   4.221   4.028   0.218 -0.7004  0.0765  2.2792
  716MOL0     H94506   3.998   3.849   0.128  0.6562 -0.0539  2.3304
  716MOL0     H94507   4.114   3.831   0.258 -3.1796  1.1374  1.2723
  716MOL0     H94508   4.163   3.770  -0.038  0.1617  0.3890 -0.1826
  716MOL0     H94509   4.295   3.809   0.069 -0.2067  1.2157 -2.7242
  716MOL0     H94510   4.207   3.416   0.192 -2.4140 -1.2761 -3.5924
  716MOL0     H94511   4.047   4.292  -0.041 -2.3880  3.6840  0.5876
  716MOL0     H94512   4.203   4.440  -0.151 -3.5354  0.0192  0.6492
  717MOL0     O94513   1.453   3.152   5.365 -1.0314 -0.2053  0.7768
  717MOL0     C94514   1.549   3.125   5.290  1.1188  0.3472 -0.7569
  717MOL0     O94515   1.543   3.067   5.163 -0.0070 -0.1019  0.4544
  717MOL0     C94516   1.425   3.027   5.114  0.8227  0.4658 -1.2319
  717MOL0     C94517   1.300   3.072   5.149  0.3935 -1.1029 -0.8078
  717MOL0     C94518   1.185   3.016   5.104 -0.0517 -0.0591  0.1743
  717MOL0     C94519   1.191   2.904   5.016 -1.1482  0.0333 -0.7656
  717MOL0     O94520   1.079   2.842   4.969 -0.2631 -0.0195 -0.6695
  717MOL0     C94521   0.979   2.812   5.069  0.1829  1.0420 -0.0959
  717MOL0     C94522   0.852   2.885   5.019 -0.0009  0.7585 -0.0512
  717MOL0     C94523   0.727   2.805   5.075 -0.4429  0.4216  0.2164
  717MOL0     C94524   0.599   2.888   5.051 -0.2636  0.4644  0.3340
  717MOL0     C94525   0.482   2.785   5.007 -0.0404 -0.6640 -0.4598
  717MOL0     C94526   0.354   2.875   4.998 -0.3482 -0.0673  0.1763
  717MOL0     C94527   0.227   2.799   4.963  0.2318 -0.1040  0.2467
  717MOL0     C94528   0.092   2.881   4.952 -0.3311 -0.2853  0.4247
  717MOL0     N94529  -0.033   2.812   4.927 -0.6505 -0.1721 -0.0790
  717MOL0     C94530  -0.110   2.742   5.018 -0.2764 -0.1750 -0.1394
  717MOL0     C94531  -0.203   2.678   4.946  0.3835  1.4001  0.3528
  717MOL0     C94532  -0.314   2.574   4.991 -0.1231 -0.7034  0.8490
  717MOL0     C94533  -0.412   2.645   5.081  0.1529  0.3669  0.2298
  717MOL0     C94534  -0.521   2.537   5.113  0.4004  0.2117  0.1220
  717MOL0     C94535  -0.595   2.582   5.247  0.1551  0.4174 -0.4886
  717MOL0     O94536  -0.664   2.701   5.219 -0.6969 -0.6056  0.2093
  717MOL0     C94537  -0.768   2.727   5.296 -0.1235 -0.0186 -0.8915
  717MOL0     C94538  -0.768   2.818   5.400 -0.2409  0.5909 -0.4543
  717MOL0     C94539  -0.881   2.853   5.469  0.5223  0.3571  0.3217
  717MOL0     C94540  -1.003   2.781   5.442 -0.4883  0.3979  0.1489
  717MOL0     C94541  -1.123   2.826   5.500 -1.2970 -0.2567 -1.2066
  717MOL0     O94542  -1.115   2.940   5.584  0.4668 -0.0657  0.1908
  717MOL0     C94543  -1.240   2.992   5.619 -0.4460  0.7502  0.9432
  717MOL0     C94544  -1.330   2.926   5.708 -0.1742  0.0699 -0.0767
  717MOL0     C94545  -1.448   2.976   5.746  0.4186  0.7255 -0.0769
  717MOL0     C94546  -1.491   3.094   5.697 -0.0216 -0.0871  0.9891
  717MOL0     O94547  -1.617   3.142   5.722 -0.7689 -0.2951 -0.9065
  717MOL0     C94548  -1.653   3.282   5.695  0.1181 -0.3819 -0.0873
  717MOL0     C94549  -1.761   3.309   5.804 -0.4765 -0.0347  0.8605
  717MOL0     C94550  -1.889   3.224   5.793 -0.7182 -0.2988 -0.3030
  717MOL0     C94551  -2.011   3.316   5.820 -0.2898  0.0810 -0.4837
  717MOL0     C94552  -2.134   3.227   5.787 -0.9138 -0.3171 -0.4036
  717MOL0     C94553  -2.158   3.096   5.867 -0.1819  0.0240  0.3411
  717MOL0     C94554  -2.196   3.130   6.005 -1.0311  0.4011  0.2067
  717MOL0     C94555  -2.231   3.007   6.079  0.3560 -0.0842 -0.2332
  717MOL0    Cl94556  -2.092   2.892   6.100 -0.1610  0.1238 -0.0862
  717MOL0     C94557  -1.410   3.170   5.605 -1.0631  0.5746  0.1565
  717MOL0     C94558  -1.288   3.113   5.563 -1.2956 -0.1517  0.3696
  717MOL0     O94559  -1.216   2.761   5.478  0.1002  0.1189  0.1748
  717MOL0     C94560  -1.007   2.687   5.334 -0.2649  0.3760 -0.2234
  717MOL0     C94561  -0.884   2.649   5.275 -0.0843 -0.1546 -0.0426
  717MOL0     N94562  -0.176   2.719   4.810 -0.3403 -0.1027 -0.5375
  717MOL0     N94563  -0.087   2.804   4.808 -0.7419 -0.0816 -0.4534
  717MOL0     C94564   1.318   2.842   4.987  0.3036  0.0446 -0.1673
  717MOL0     C94565   1.434   2.904   5.039 -0.1789  0.7595 -0.9956
  717MOL0     C94566   1.681   3.162   5.345 -2.1269  0.0463 -0.0257
  717MOL0     C94567   1.791   3.133   5.263  0.3038 -0.4971  0.0017
  717MOL0     C94568   1.919   3.162   5.311 -0.4543  0.1427 -0.3004
  717MOL0     C94569   1.939   3.197   5.447  0.5320  0.4105 -0.8846
  717MOL0     O94570   2.063   3.224   5.501  0.1068 -0.4060 -0.9076
  717MOL0     C94571   2.179   3.167   5.437  0.7635  0.2542 -0.3048
  717MOL0     C94572   2.289   3.195   5.539 -0.6923 -0.0329 -0.5613
  717MOL0     C94573   2.413   3.104   5.513  0.3999  0.1026 -0.1937
  717MOL0     C94574   2.478   3.100   5.374 -0.2118 -0.2744  0.1792
  717MOL0     C94575   2.573   2.986   5.375 -0.0249 -1.1584  0.0745
  717MOL0     C94576   2.655   2.896   5.379  0.2430 -0.3754 -0.3116
  717MOL0     C94577   1.833   3.213   5.525 -0.2849  0.6080 -0.0693
  717MOL0     C94578   1.702   3.206   5.475 -0.4592  0.7691 -0.3617
  717MOL0     H94579   1.292   3.165   5.203  2.2437 -1.1435 -0.3972
  717MOL0     H94580   1.093   3.064   5.137  0.1552  0.1590  0.4366
  717MOL0     H94581   1.008   2.845   5.169  2.7653 -1.8155  0.2144
  717MOL0     H94582   0.958   2.706   5.055 -0.0322  1.1622 -0.7292
  717MOL0     H94583   0.855   2.891   4.909 -1.9198 -1.7592 -0.3210
  717MOL0     H94584   0.851   2.986   5.060  0.5340  0.4908  0.6381
  717MOL0     H94585   0.734   2.797   5.184 -0.3397 -0.5402  0.1408
  717MOL0     H94586   0.735   2.703   5.037  1.7002  1.2267 -1.7648
  717MOL0     H94587   0.574   2.943   5.142 -2.2482  1.1562 -0.5642
  717MOL0     H94588   0.614   2.960   4.970  0.3470 -1.7602 -1.6627
  717MOL0     H94589   0.472   2.717   5.092  0.4275  0.5122  0.5725
  717MOL0     H94590   0.500   2.734   4.912  1.0141 -1.7578  0.3040
  717MOL0     H94591   0.383   2.949   4.922  0.5150 -0.9867 -0.4097
  717MOL0     H94592   0.335   2.931   5.090 -1.9076 -0.2582  0.0022
  717MOL0     H94593   0.241   2.739   4.872 -2.2484 -1.1252  0.4662
  717MOL0     H94594   0.211   2.724   5.041  0.2282 -0.1824  0.1714
  717MOL0     H94595   0.097   2.951   4.868 -1.7119  0.1380  0.6677
  717MOL0     H94596   0.086   2.949   5.038  1.2182  1.0063 -0.4237
  717MOL0     H94597  -0.085   2.713   5.120 -0.9535 -2.4685 -0.5586
  717MOL0     H94598  -0.275   2.483   5.038  0.6905 -0.5005  0.5852
  717MOL0     H94599  -0.362   2.546   4.897  2.8490  0.5477 -1.2262
  717MOL0     H94600  -0.455   2.735   5.037  2.7312  0.1329 -3.2879
  717MOL0     H94601  -0.357   2.666   5.173  1.0941 -1.5416  0.1602
  717MOL0     H94602  -0.591   2.533   5.029  0.2569 -3.7856  0.2146
  717MOL0     H94603  -0.484   2.434   5.121 -0.5071 -0.2887 -1.5821
  717MOL0     H94604  -0.525   2.603   5.329  1.9642 -0.1329 -1.8415
  717MOL0     H94605  -0.658   2.495   5.268  0.1640  0.4487 -0.3297
  717MOL0     H94606  -0.680   2.877   5.420  0.1587 -0.3137  0.5388
  717MOL0     H94607  -0.876   2.930   5.545  3.0184 -0.9558  1.6169
  717MOL0     H94608  -1.291   2.833   5.749  1.5694  1.6154  1.9679
  717MOL0     H94609  -1.498   2.922   5.826 -2.0669 -1.1710 -2.6998
  717MOL0     H94610  -1.689   3.296   5.593  2.0759 -0.8144 -0.8869
  717MOL0     H94611  -1.569   3.352   5.708 -3.4946  3.8867  3.8637
  717MOL0     H94612  -1.780   3.417   5.808 -0.9816 -0.0394 -0.6162
  717MOL0     H94613  -1.710   3.284   5.897  0.1962  2.7842  1.3303
  717MOL0     H94614  -1.879   3.139   5.861  2.4301  0.5013  0.3786
  717MOL0     H94615  -1.895   3.183   5.691  1.1007  0.2558 -0.6729
  717MOL0     H94616  -2.002   3.344   5.925  2.6783  0.1377 -0.6902
  717MOL0     H94617  -2.021   3.403   5.755 -1.6049  0.8453  0.6817
  717MOL0     H94618  -2.133   3.212   5.678 -1.4441  1.2218 -0.6430
  717MOL0     H94619  -2.224   3.287   5.803  0.4901  1.1907  2.5863
  717MOL0     H94620  -2.067   3.035   5.869  0.9936  1.5538 -2.2205
  717MOL0     H94621  -2.235   3.039   5.814  0.1329  0.4965 -0.6449
  717MOL0     H94622  -2.110   3.184   6.045 -0.4329 -1.6248  1.8401
  717MOL0     H94623  -2.275   3.205   6.005  1.9751  3.8652 -0.1417
  717MOL0     H94624  -2.312   2.955   6.027  0.1650  1.3528 -1.4124
  717MOL0     H94625  -2.276   3.036   6.175  2.2937  3.8717 -0.3365
  717MOL0     H94626  -1.435   3.265   5.558 -2.9122 -0.2025 -0.5265
  717MOL0     H94627  -1.232   3.173   5.492 -2.1939  0.6398  0.3180
  717MOL0     H94628  -1.105   2.649   5.310 -0.5413  1.1444 -0.3246
  717MOL0     H94629  -0.888   2.573   5.198 -2.4838  0.4408 -0.5612
  717MOL0     H94630   1.316   2.753   4.925 -3.9279  0.6741 -1.2410
  717MOL0     H94631   1.530   2.854   5.028 -1.7237 -2.1790 -1.8318
  717MOL0     H94632   1.772   3.099   5.161 -0.0679 -0.7137  0.1417
  717MOL0     H94633   1.999   3.166   5.237  2.7843  0.9129  2.9920
  717MOL0     H94634   2.205   3.200   5.336 -1.5532  2.4233 -0.3076
  717MOL0     H94635   2.160   3.059   5.433 -0.5730  0.2854  2.4658
  717MOL0     H94636   2.316   3.301   5.532 -0.0403 -0.3109 -3.0160
  717MOL0     H94637   2.258   3.176   5.642  0.4226 -0.9478 -0.3823
  717MOL0     H94638   2.396   3.002   5.548  0.0595 -1.8210 -5.1909
  717MOL0     H94639   2.490   3.149   5.576  1.9899 -1.0219 -1.2688
  717MOL0     H94640   2.401   3.078   5.300  0.2799 -2.1094  0.1741
  717MOL0     H94641   2.524   3.197   5.355 -1.4070 -0.1165 -2.3024
  717MOL0     H94642   2.729   2.819   5.372 -0.5311 -1.1611  0.0957
  717MOL0     H94643   1.841   3.243   5.629 -2.1520  2.2131 -0.3336
  717MOL0     H94644   1.626   3.215   5.552  0.4957  0.5560  0.6307
  718MOL0     O94645   6.833   6.116   0.884  0.0950  0.7367  0.0688
  718MOL0     C94646   6.889   6.164   0.786 -0.9373 -0.2334 -0.7001
  718MOL0     O94647   6.860   6.141   0.655  0.2067  0.2783  0.4977
  718MOL0     C94648   6.778   6.037   0.629  1.2257 -0.6908  0.3332
  718MOL0     C94649   6.659   6.072   0.570  0.6554 -0.8998 -0.4798
  718MOL0     C94650   6.572   5.971   0.531 -0.6930 -0.1985  1.2969
  718MOL0     C94651   6.609   5.832   0.556  0.5660 -0.4409 -0.4723
  718MOL0     O94652   6.529   5.727   0.530  0.6784 -0.3666 -0.0153
  718MOL0     C94653   6.393   5.736   0.477 -0.9873  0.5628 -0.3995
  718MOL0     C94654   6.331   5.595   0.504  0.2299 -1.4051  1.0970
  718MOL0     C94655   6.179   5.607   0.495  0.2224 -0.0413 -0.2463
  718MOL0     C94656   6.108   5.488   0.562 -0.1775 -0.7366  0.4838
  718MOL0     C94657   5.954   5.505   0.559  0.1049  0.3508 -0.7916
  718MOL0     C94658   5.913   5.607   0.665 -0.0482  0.2725 -0.4612
  718MOL0     C94659   5.768   5.584   0.697 -0.3544  0.0830 -0.2781
  718MOL0     C94660   5.717   5.678   0.798  0.8574  0.3315 -0.3669
  718MOL0     N94661   5.788   5.694   0.931  0.7597  0.1601  0.3696
  718MOL0     C94662   5.758   5.623   1.043  0.3695 -0.1791  0.3882
  718MOL0     C94663   5.841   5.665   1.140 -0.5099  0.2861 -0.0337
  718MOL0     C94664   5.859   5.619   1.281 -0.2043 -0.2798 -0.2329
  718MOL0     C94665   5.833   5.467   1.295  0.2479  0.3658 -0.0948
  718MOL0     C94666   5.686   5.438   1.315 -0.2104  0.2454  0.6098
  718MOL0     C94667   5.660   5.299   1.391  0.2875 -0.6588  0.6421
  718MOL0     O94668   5.527   5.283   1.438  0.4154 -0.7062  0.3493
  718MOL0     C94669   5.425   5.239   1.355 -0.2017  0.2119  0.4527
  718MOL0     C94670   5.411   5.261   1.215  0.2098  0.1797  1.2540
  718MOL0     C94671   5.294   5.235   1.139 -0.1446  0.1862 -0.2225
  718MOL0     C94672   5.173   5.192   1.204  0.2016 -0.5715 -0.1578
  718MOL0     C94673   5.041   5.187   1.133 -0.0848  0.0014  0.1204
  718MOL0     O94674   4.931   5.141   1.205  0.3672 -0.3453 -0.0974
  718MOL0     C94675   4.797   5.160   1.171 -0.7090  0.4418 -0.3730
  718MOL0     C94676   4.758   5.232   1.055 -0.4221 -0.1334 -0.6869
  718MOL0     C94677   4.625   5.255   1.037  0.5957 -0.5958 -0.6042
  718MOL0     C94678   4.520   5.215   1.135 -0.2102 -0.7207  0.8072
  718MOL0     O94679   4.379   5.244   1.129 -0.6749 -0.0079 -0.6017
  718MOL0     C94680   4.323   5.278   1.000 -0.7170 -0.6970 -0.0320
  718MOL0     C94681   4.177   5.235   0.985  0.2870  0.1796  0.5891
  718MOL0     C94682   4.076   5.343   1.041  0.0630  0.5149 -0.0731
  718MOL0     C94683   3.934   5.296   1.013 -0.1603 -0.0596  0.2274
  718MOL0     C94684   3.825   5.404   1.027  0.5274 -0.5049 -0.3040
  718MOL0     C94685   3.688   5.349   1.065  0.4317  0.1054 -0.2504
  718MOL0     C94686   3.631   5.231   0.988 -0.4851 -0.2111  0.2041
  718MOL0     C94687   3.495   5.185   1.036 -0.1276 -0.0123  0.9473
  718MOL0    Cl94688   3.522   5.077   1.167  0.4020  0.3578  0.6962
  718MOL0     C94689   4.568   5.145   1.249  0.0113 -0.4755  0.2217
  718MOL0     C94690   4.705   5.117   1.265  0.3037  0.6855 -1.2869
  718MOL0     O94691   5.046   5.212   1.008 -0.3637 -0.5346 -0.7730
  718MOL0     C94692   5.193   5.163   1.343  0.5304 -0.1034  0.9344
  718MOL0     C94693   5.312   5.191   1.412  0.8276 -0.2520 -0.0470
  718MOL0     N94694   5.933   5.753   1.079 -1.3217 -0.2218  0.1185
  718MOL0     N94695   5.895   5.772   0.958  0.2709 -0.4667  0.9383
  718MOL0     C94696   6.734   5.800   0.607 -0.0231 -0.3197  0.2006
  718MOL0     C94697   6.814   5.906   0.653 -0.7555  0.0168  1.0401
  718MOL0     C94698   6.986   6.267   0.817 -0.5507 -0.0402 -0.7889
  718MOL0     C94699   7.016   6.318   0.943  0.3402 -0.1649 -0.0958
  718MOL0     C94700   7.103   6.429   0.961 -0.7546 -0.9360 -0.4414
  718MOL0     C94701   7.177   6.477   0.849 -0.1230 -0.2966 -0.0228
  718MOL0     O94702   7.281   6.561   0.888 -0.1893  0.1061  0.0296
  718MOL0     C94703   7.377   6.594   0.787  0.2883  0.2047 -1.2179
  718MOL0     C94704   7.489   6.687   0.853  0.5015  0.1596 -0.2817
  718MOL0     C94705   7.588   6.627   0.960  0.0340  0.3062  0.1930
  718MOL0     C94706   7.530   6.509   1.030 -0.2368 -0.8524  0.1715
  718MOL0     C94707   7.634   6.468   1.124 -0.5297 -0.2633 -0.1751
  718MOL0     C94708   7.729   6.437   1.191  0.9723 -0.7757  0.0283
  718MOL0     C94709   7.153   6.418   0.728  0.1727 -0.0627 -0.5431
  718MOL0     C94710   7.057   6.318   0.709  0.9815  0.3638 -0.3786
  718MOL0     H94711   6.640   6.176   0.547 -1.5555 -1.4040 -1.1383
  718MOL0     H94712   6.480   5.999   0.480 -0.5331  0.6457  1.4528
  718MOL0     H94713   6.385   5.758   0.370  0.3447  2.6220 -0.1445
  718MOL0     H94714   6.337   5.815   0.528  1.0874  0.6194  2.0016
  718MOL0     H94715   6.359   5.573   0.608  1.9546 -1.4568  0.6351
  718MOL0     H94716   6.375   5.526   0.432  3.8231  0.4452  1.3249
  718MOL0     H94717   6.147   5.617   0.390  2.6162  0.3829 -1.0151
  718MOL0     H94718   6.160   5.700   0.549  3.2736  0.2584  0.5410
  718MOL0     H94719   6.141   5.393   0.518 -0.9376 -0.2676 -1.2032
  718MOL0     H94720   6.137   5.468   0.665 -3.0718 -1.5863  1.2239
  718MOL0     H94721   5.907   5.407   0.573  0.3861  0.0332 -1.9401
  718MOL0     H94722   5.928   5.540   0.458  3.9465  2.5808 -1.2347
  718MOL0     H94723   5.933   5.708   0.627  0.6610 -0.1037 -1.1013
  718MOL0     H94724   5.975   5.589   0.753 -0.1957 -2.0726 -0.7789
  718MOL0     H94725   5.713   5.593   0.603  1.9995 -0.3476 -1.7700
  718MOL0     H94726   5.749   5.482   0.733 -0.7957 -0.4525 -1.9309
  718MOL0     H94727   5.622   5.629   0.822  0.1519 -0.3294 -3.8917
  718MOL0     H94728   5.695   5.776   0.754  1.9046 -0.5901 -3.2159
  718MOL0     H94729   5.678   5.551   1.059  0.9606 -1.1005 -0.7018
  718MOL0     H94730   5.791   5.673   1.348 -0.3059 -0.4243 -0.2190
  718MOL0     H94731   5.963   5.647   1.297  0.7683 -3.0767 -1.2030
  718MOL0     H94732   5.901   5.440   1.376  0.9099 -1.3300 -1.1568
  718MOL0     H94733   5.870   5.414   1.207  0.8259 -1.5295  1.2310
  718MOL0     H94734   5.642   5.523   1.370 -0.4124  0.7305 -0.2809
  718MOL0     H94735   5.628   5.441   1.222  0.3450 -3.6162  0.0001
  718MOL0     H94736   5.708   5.287   1.488 -3.0140 -2.4911  2.2053
  718MOL0     H94737   5.698   5.217   1.329 -1.0718  0.3953 -1.7075
  718MOL0     H94738   5.491   5.296   1.150 -0.8852 -1.1856 -0.9580
  718MOL0     H94739   5.308   5.233   1.031  4.3549 -0.1512  0.1442
  718MOL0     H94740   4.821   5.271   0.975  1.8680  0.3772  1.2540
  718MOL0     H94741   4.597   5.311   0.948 -1.7416  2.9653  2.0752
  718MOL0     H94742   4.383   5.217   0.931 -3.0369 -1.2661 -1.6608
  718MOL0     H94743   4.331   5.386   0.986 -2.5850 -0.2019  2.1371
  718MOL0     H94744   4.148   5.140   1.031 -4.5231  0.6515 -0.8966
  718MOL0     H94745   4.152   5.221   0.879 -0.9512 -0.5314  0.9577
  718MOL0     H94746   4.089   5.436   0.985 -1.2985  0.9190  0.2343
  718MOL0     H94747   4.084   5.353   1.149 -4.6616  2.6136  0.3171
  718MOL0     H94748   3.921   5.255   0.913  2.8331 -1.9315  0.4897
  718MOL0     H94749   3.906   5.219   1.086  0.1305 -0.8465 -0.4833
  718MOL0     H94750   3.817   5.462   0.934  0.3601  0.8857  0.5410
  718MOL0     H94751   3.852   5.475   1.107  0.7125 -1.4213  0.4617
  718MOL0     H94752   3.615   5.431   1.064 -0.1740 -0.4081  0.5010
  718MOL0     H94753   3.704   5.319   1.169  2.4966  3.6291  0.6420
  718MOL0     H94754   3.611   5.267   0.886 -2.4309  1.1086  0.9960
  718MOL0     H94755   3.713   5.159   0.983  1.7468  2.2721 -1.7514
  718MOL0     H94756   3.460   5.120   0.955 -1.7822  0.9797  0.8095
  718MOL0     H94757   3.431   5.272   1.053 -1.6456 -0.6224 -1.2411
  718MOL0     H94758   4.509   5.120   1.337 -4.3425  1.9345 -1.6775
  718MOL0     H94759   4.744   5.057   1.347  0.1270  3.4485  1.0158
  718MOL0     H94760   5.103   5.118   1.386 -0.3951  0.9790  0.2044
  718MOL0     H94761   5.318   5.183   1.520 -2.3450  0.6794  0.3077
  718MOL0     H94762   6.769   5.699   0.621 -2.7715 -1.2585  0.9962
  718MOL0     H94763   6.915   5.903   0.692  0.0931 -1.1587 -1.0559
  718MOL0     H94764   6.979   6.264   1.030  2.2557 -0.9135  0.3191
  718MOL0     H94765   7.122   6.469   1.060  0.9264  0.0691 -1.1177
  718MOL0     H94766   7.325   6.652   0.709 -0.4180  2.9768  1.1398
  718MOL0     H94767   7.409   6.494   0.756 -1.4762 -1.7794  2.6745
  718MOL0     H94768   7.541   6.744   0.775 -1.6878  0.6626 -1.4593
  718MOL0     H94769   7.431   6.759   0.911  2.1264 -0.4579  2.2616
  718MOL0     H94770   7.612   6.707   1.031 -0.5336  0.6390  0.0198
  718MOL0     H94771   7.677   6.597   0.904 -1.6172 -1.8517 -1.4524
  718MOL0     H94772   7.432   6.536   1.070 -0.8522  2.0861 -2.8661
  718MOL0     H94773   7.507   6.430   0.958  0.5894 -1.7467  0.8688
  718MOL0     H94774   7.804   6.383   1.245  0.5106  1.0368  2.6291
  718MOL0     H94775   7.222   6.454   0.653 -2.0025  0.0812 -2.5973
  718MOL0     H94776   7.039   6.286   0.607  0.0917  1.2571 -0.5296
  719MOL0     O94777   0.540   8.253   8.615  0.1499  0.8213 -0.5394
  719MOL0     C94778   0.573   8.369   8.635  0.4413  0.2885 -0.2314
  719MOL0     O94779   0.489   8.475   8.642  0.2989 -0.4623  0.1085
  719MOL0     C94780   0.346   8.471   8.612 -0.1655 -0.9498 -0.0415
  719MOL0     C94781   0.265   8.362   8.568  0.7146 -0.7983  0.5524
  719MOL0     C94782   0.133   8.388   8.528 -0.4009  0.8012  0.1775
  719MOL0     C94783   0.076   8.515   8.527 -0.4123  0.8821 -0.0930
  719MOL0     O94784  -0.061   8.517   8.492  0.0929 -0.0201 -0.6010
  719MOL0     C94785  -0.120   8.643   8.476  0.8477  0.4566 -0.2173
  719MOL0     C94786  -0.275   8.615   8.474 -1.1037 -0.7850  1.3076
  719MOL0     C94787  -0.360   8.737   8.451 -0.3563 -0.5895 -0.0123
  719MOL0     C94788  -0.509   8.700   8.471  0.3089  0.2006 -0.4611
  719MOL0     C94789  -0.575   8.841   8.507  0.0331  0.8554  0.3071
  719MOL0     C94790  -0.724   8.838   8.492  1.0165  0.1531  0.5332
  719MOL0     C94791  -0.768   8.980   8.522 -0.1038  0.1151  0.6542
  719MOL0     C94792  -0.921   9.018   8.493  0.6073 -0.1674 -0.2911
  719MOL0     N94793  -1.020   8.965   8.588 -0.6752 -0.5488 -0.3589
  719MOL0     C94794  -1.005   8.979   8.724  0.4473 -0.9556  0.1842
  719MOL0     C94795  -1.135   8.960   8.771  0.1872  0.3415  0.4601
  719MOL0     C94796  -1.188   8.975   8.911 -0.4011  0.2459 -1.1097
  719MOL0     C94797  -1.171   8.852   9.009 -0.8624 -0.9723  0.0476
  719MOL0     C94798  -1.245   8.727   8.977 -0.8609 -0.0785  0.3490
  719MOL0     C94799  -1.183   8.604   9.033 -0.3714 -0.7787 -0.0782
  719MOL0     O94800  -1.261   8.543   9.134  0.1833  0.5179 -0.8611
  719MOL0     C94801  -1.288   8.408   9.123 -0.0380 -0.0654 -0.0948
  719MOL0     C94802  -1.191   8.311   9.102  1.2456 -0.5825  0.6109
  719MOL0     C94803  -1.218   8.178   9.093  0.1829 -0.8309 -0.0475
  719MOL0     C94804  -1.334   8.133   9.158 -0.1496 -0.2653  0.4844
  719MOL0     C94805  -1.357   7.988   9.158 -0.3352 -0.1368 -0.2684
  719MOL0     O94806  -1.438   7.941   9.260 -0.7718  0.3063 -0.0470
  719MOL0     C94807  -1.454   7.807   9.287 -0.3736 -0.3512 -0.6305
  719MOL0     C94808  -1.519   7.793   9.402  1.2938  0.9447  0.1294
  719MOL0     C94809  -1.561   7.665   9.446 -0.3650 -0.0541 -0.3970
  719MOL0     C94810  -1.509   7.548   9.388 -0.3319 -0.0657 -0.1856
  719MOL0     O94811  -1.531   7.425   9.438 -0.7181  0.2193 -0.2948
  719MOL0     C94812  -1.406   7.343   9.465  0.5362  0.0176 -0.0056
  719MOL0     C94813  -1.449   7.223   9.545  0.6610 -0.5795  0.2911
  719MOL0     C94814  -1.326   7.136   9.574  0.7371  0.0968  0.1568
  719MOL0     C94815  -1.369   6.997   9.623  0.5065 -0.2637 -1.4558
  719MOL0     C94816  -1.255   6.901   9.633 -1.3977  0.0515  0.4013
  719MOL0     C94817  -1.173   6.890   9.506 -0.0874 -0.6664 -0.4660
  719MOL0     C94818  -1.128   6.748   9.495  0.4773  0.0415  0.5766
  719MOL0     C94819  -1.044   6.689   9.607  0.0840  0.6472  0.3838
  719MOL0    Cl94820  -0.968   6.531   9.562 -0.2709  0.2349 -0.0040
  719MOL0     C94821  -1.424   7.568   9.283  0.0884 -0.3939  0.3484
  719MOL0     C94822  -1.403   7.695   9.224  0.2482 -1.4250  0.1431
  719MOL0     O94823  -1.303   7.919   9.067 -0.4624  0.2380  0.2650
  719MOL0     C94824  -1.432   8.227   9.199 -0.3133 -0.2695 -0.5207
  719MOL0     C94825  -1.399   8.359   9.181  0.7751 -0.1876 -0.1446
  719MOL0     N94826  -1.220   8.910   8.670 -0.3497 -0.9645  0.4053
  719MOL0     N94827  -1.147   8.915   8.561  0.1146 -0.4920 -0.0957
  719MOL0     C94828   0.157   8.621   8.567 -1.2490  0.4072  0.9200
  719MOL0     C94829   0.286   8.601   8.621  0.3841  0.6927  0.3430
  719MOL0     C94830   0.720   8.396   8.660 -0.0430  1.4200  0.4804
  719MOL0     C94831   0.769   8.519   8.700  0.6824  0.1506  0.7268
  719MOL0     C94832   0.897   8.530   8.755 -0.2627 -0.3261  0.1643
  719MOL0     C94833   0.993   8.433   8.740  0.0558  0.4616  1.0875
  719MOL0     O94834   1.125   8.445   8.775  0.2566  0.1247 -0.5516
  719MOL0     C94835   1.173   8.550   8.858  0.1175 -0.7082 -0.1015
  719MOL0     C94836   1.289   8.506   8.936  0.1778  0.0175 -0.5157
  719MOL0     C94837   1.265   8.462   9.085  0.5126  0.1641  0.6641
  719MOL0     C94838   1.184   8.330   9.082 -0.0575 -1.2746 -1.2204
  719MOL0     C94839   1.227   8.276   9.212  0.2137  0.0959  0.2564
  719MOL0     C94840   1.281   8.228   9.315  0.0591  0.1127  0.3713
  719MOL0     C94841   0.949   8.310   8.681 -0.1156 -0.3123 -0.1316
  719MOL0     C94842   0.813   8.293   8.649  0.3988  0.0719 -0.6158
  719MOL0     H94843   0.303   8.261   8.575  1.9658 -0.2668  2.3046
  719MOL0     H94844   0.066   8.302   8.522 -0.7565  1.0879  0.0198
  719MOL0     H94845  -0.089   8.694   8.385 -2.1376  1.6898 -0.6625
  719MOL0     H94846  -0.103   8.710   8.561  0.6837 -0.0771  0.2477
  719MOL0     H94847  -0.297   8.566   8.570  1.5180  0.2465  2.5332
  719MOL0     H94848  -0.298   8.539   8.399 -1.7976 -1.1576  1.8858
  719MOL0     H94849  -0.323   8.777   8.357  1.2897 -1.5347  0.1886
  719MOL0     H94850  -0.321   8.811   8.521 -0.4792 -3.6408  3.6312
  719MOL0     H94851  -0.547   8.652   8.380 -0.2275  0.4566 -0.3802
  719MOL0     H94852  -0.525   8.630   8.553 -0.5651  0.2573 -0.5718
  719MOL0     H94853  -0.532   8.910   8.434 -0.0607 -0.4568 -1.0445
  719MOL0     H94854  -0.557   8.881   8.607 -1.2152  3.0422 -0.2827
  719MOL0     H94855  -0.778   8.774   8.563 -0.5166  0.2954 -0.4541
  719MOL0     H94856  -0.739   8.812   8.387  2.2133 -2.7721  0.9828
  719MOL0     H94857  -0.741   8.994   8.627  4.7557 -1.2812 -0.1682
  719MOL0     H94858  -0.706   9.055   8.473 -2.2378 -0.7977 -4.0352
  719MOL0     H94859  -0.954   8.989   8.393  0.9918 -4.0892  0.5892
  719MOL0     H94860  -0.920   9.128   8.489 -1.3312 -0.1152  0.0282
  719MOL0     H94861  -0.924   9.019   8.784  0.3990  0.3860 -0.5964
  719MOL0     H94862  -1.295   8.989   8.897 -0.5007  1.8657  0.8381
  719MOL0     H94863  -1.153   9.071   8.948 -3.1705  0.6279  0.8325
  719MOL0     H94864  -1.203   8.897   9.103  0.5630  2.8639 -1.0776
  719MOL0     H94865  -1.065   8.825   9.015 -0.7163 -0.9819 -1.9467
  719MOL0     H94866  -1.339   8.750   9.027 -0.8758  2.0134 -0.5021
  719MOL0     H94867  -1.270   8.708   8.872 -2.6645 -1.3477  0.9703
  719MOL0     H94868  -1.081   8.622   9.068  0.1545 -0.9468 -1.4518
  719MOL0     H94869  -1.172   8.542   8.944  0.1583  3.4455 -3.2438
  719MOL0     H94870  -1.099   8.345   9.055 -0.2407  2.4368 -0.3389
  719MOL0     H94871  -1.148   8.111   9.044  0.8676  0.0113 -0.2215
  719MOL0     H94872  -1.573   7.876   9.446 -2.2244 -1.0338 -0.0805
  719MOL0     H94873  -1.637   7.665   9.523 -2.3757  0.1119 -2.2823
  719MOL0     H94874  -1.341   7.394   9.536  0.2102  0.2433  0.1353
  719MOL0     H94875  -1.354   7.312   9.375 -0.5365 -3.8635  0.5067
  719MOL0     H94876  -1.524   7.172   9.484  0.4627 -1.1426  0.9913
  719MOL0     H94877  -1.502   7.249   9.637  0.4256 -1.5563  0.4355
  719MOL0     H94878  -1.275   7.192   9.653 -0.7989  2.8630 -0.6593
  719MOL0     H94879  -1.260   7.127   9.487  0.0559 -1.3476 -0.2322
  719MOL0     H94880  -1.428   6.990   9.714  2.4913 -0.2612 -0.1044
  719MOL0     H94881  -1.426   6.963   9.536  1.5696  0.8952 -2.6654
  719MOL0     H94882  -1.293   6.801   9.655 -0.2951 -0.2693  0.9240
  719MOL0     H94883  -1.195   6.941   9.715 -2.6861  2.0735  0.4105
  719MOL0     H94884  -1.087   6.958   9.504  1.0990 -2.0101  1.1249
  719MOL0     H94885  -1.239   6.915   9.423 -2.0805 -3.7034  0.0270
  719MOL0     H94886  -1.214   6.680   9.492  1.1029 -0.7671  0.6320
  719MOL0     H94887  -1.071   6.739   9.403 -2.0373 -1.1025 -0.9987
  719MOL0     H94888  -1.097   6.693   9.702 -0.2344  3.6126  0.1758
  719MOL0     H94889  -0.966   6.765   9.615  1.0461  0.1361 -2.6893
  719MOL0     H94890  -1.363   7.488   9.243  1.6620  0.8690  0.1091
  719MOL0     H94891  -1.338   7.718   9.140  0.0732  4.7898  1.2441
  719MOL0     H94892  -1.516   8.203   9.263  1.2492  2.5015  2.8889
  719MOL0     H94893  -1.460   8.439   9.221 -1.1496 -1.9077  0.5686
  719MOL0     H94894   0.111   8.720   8.570  0.1458  1.0790  1.1001
  719MOL0     H94895   0.350   8.682   8.653  1.3801 -0.3037  0.9634
  719MOL0     H94896   0.705   8.607   8.702  0.9391  0.3358  0.7613
  719MOL0     H94897   0.935   8.626   8.789  0.9288 -0.4840 -0.6485
  719MOL0     H94898   1.091   8.597   8.913 -1.4958  0.4767 -3.2596
  719MOL0     H94899   1.212   8.621   8.784 -0.8881  0.1034  0.1221
  719MOL0     H94900   1.336   8.423   8.884  0.3998 -1.1280  1.4332
  719MOL0     H94901   1.365   8.584   8.951  0.0485 -0.5221  4.2620
  719MOL0     H94902   1.223   8.537   9.152  2.6174  0.5740  1.6139
  719MOL0     H94903   1.365   8.438   9.122 -0.2926 -2.4353  1.3529
  719MOL0     H94904   1.077   8.353   9.078  0.4993  3.0988  2.1055
  719MOL0     H94905   1.214   8.273   8.993  2.3415  1.1030 -2.0885
  719MOL0     H94906   1.315   8.174   9.401  1.3564  0.7072  0.2616
  719MOL0     H94907   1.007   8.220   8.664 -0.1745 -0.0204 -2.0448
  719MOL0     H94908   0.785   8.195   8.612  1.7344 -0.5979  0.0529
  720MOL0     O94909   8.378   0.481   6.421  0.3940 -0.1610 -0.4080
  720MOL0     C94910   8.367   0.408   6.322 -0.3129  0.7026  0.3170
  720MOL0     O94911   8.450   0.416   6.210  0.1915 -0.4489  0.2043
  720MOL0     C94912   8.560   0.506   6.203  0.1436 -0.1476  0.0240
  720MOL0     C94913   8.640   0.544   6.313  0.1844 -1.0225  0.3485
  720MOL0     C94914   8.735   0.644   6.281  0.2077  0.5888 -0.1686
  720MOL0     C94915   8.765   0.690   6.145  0.1580 -0.9672 -0.4899
  720MOL0     O94916   8.870   0.769   6.109  0.5616  0.6006 -0.2258
  720MOL0     C94917   8.996   0.708   6.134  0.6673 -0.2920 -0.3891
  720MOL0     C94918   9.081   0.701   6.002  0.0940  0.5974  0.1720
  720MOL0     C94919   9.232   0.696   6.021 -0.5711 -0.2389 -0.8352
  720MOL0     C94920   9.286   0.834   5.988 -0.4490 -0.8226  0.4490
  720MOL0     C94921   9.441   0.851   6.008  0.2544  0.7823  0.8403
  720MOL0     C94922   9.472   0.992   5.960  0.0150 -0.8762  0.8979
  720MOL0     C94923   9.598   1.052   6.018  0.2273 -0.6898  0.4598
  720MOL0     C94924   9.726   0.980   5.966 -0.7666 -0.2806 -0.5897
  720MOL0     N94925   9.858   1.049   5.994 -0.5244 -0.0042  0.3477
  720MOL0     C94926   9.883   1.174   5.936  0.2793  0.8264  0.3485
  720MOL0     C94927  10.020   1.187   5.930  0.0290 -0.0738  0.4226
  720MOL0     C94928  10.102   1.302   5.872  0.6513  1.4031  0.0976
  720MOL0     C94929  10.158   1.392   5.978  0.2489 -0.9948 -0.6651
  720MOL0     C94930  10.059   1.469   6.065  1.2538 -0.0574 -0.4680
  720MOL0     C94931  10.132   1.552   6.178  0.7866  0.3815 -0.0258
  720MOL0     O94932  10.237   1.633   6.131  0.5229  0.2534 -0.2222
  720MOL0     C94933  10.347   1.660   6.214  0.5281  0.0816 -0.7016
  720MOL0     C94934  10.357   1.625   6.350 -0.2599 -0.2992 -0.0814
  720MOL0     C94935  10.464   1.669   6.428  0.2625 -0.0743 -0.1999
  720MOL0     C94936  10.557   1.757   6.381 -0.3863  0.0076  1.2883
  720MOL0     C94937  10.662   1.822   6.466  0.2053  0.2737 -0.0780
  720MOL0     O94938  10.754   1.897   6.407 -0.4526  0.2939  0.0654
  720MOL0     C94939  10.847   1.955   6.490  1.2749 -0.1329  0.2403
  720MOL0     C94940  10.811   2.058   6.573  0.4126 -0.3002 -0.3739
  720MOL0     C94941  10.901   2.122   6.663  1.0391 -0.3081  0.3155
  720MOL0     C94942  11.039   2.085   6.666  0.6738 -0.4097 -0.4587
  720MOL0     O94943  11.133   2.141   6.759  0.7114 -0.8193  0.1004
  720MOL0     C94944  11.076   2.197   6.884  0.0079 -0.3581  0.0981
  720MOL0     C94945  11.184   2.264   6.971 -0.0884  0.2439  0.5132
  720MOL0     C94946  11.110   2.337   7.093  0.1528 -0.5036 -0.1696
  720MOL0     C94947  11.214   2.388   7.196  0.8536  0.5683 -0.1492
  720MOL0     C94948  11.156   2.442   7.322  0.1946 -0.2115 -0.0453
  720MOL0     C94949  11.259   2.482   7.430 -0.0435  0.3018 -0.2188
  720MOL0     C94950  11.191   2.560   7.549 -0.2703  0.9348  1.3569
  720MOL0     C94951  11.264   2.560   7.690  0.7104 -0.3838  1.0436
  720MOL0    Cl94952  11.411   2.649   7.663  0.3726  0.3399  0.3023
  720MOL0     C94953  11.074   1.988   6.575 -0.3236 -0.2658 -0.1587
  720MOL0     C94954  10.985   1.926   6.491 -1.3390 -0.3897  0.6211
  720MOL0     O94955  10.650   1.791   6.581  0.2125 -0.0703  0.0832
  720MOL0     C94956  10.546   1.798   6.243 -1.0209 -0.2201 -0.7550
  720MOL0     C94957  10.444   1.745   6.164  0.2196 -0.0561  0.4466
  720MOL0     N94958  10.076   1.068   5.986  0.0855 -0.1308  0.9929
  720MOL0     N94959   9.977   0.996   6.018  0.5014  0.3821  0.6088
  720MOL0     C94960   8.676   0.641   6.043 -0.5650  0.9305  0.2608
  720MOL0     C94961   8.575   0.551   6.072  0.0652  0.1800  0.0751
  720MOL0     C94962   8.260   0.305   6.326  0.8519 -0.3413 -0.5370
  720MOL0     C94963   8.270   0.183   6.245 -0.5889  0.0150  0.6099
  720MOL0     C94964   8.175   0.088   6.257 -0.1019 -0.0062 -0.9595
  720MOL0     C94965   8.070   0.095   6.342  0.2139  0.5305 -0.4474
  720MOL0     O94966   7.982  -0.019   6.350 -0.2781 -0.5596  0.5435
  720MOL0     C94967   7.855   0.005   6.407  0.8985  0.3813  0.3316
  720MOL0     C94968   7.766  -0.116   6.400 -0.1402 -0.1809  0.2266
  720MOL0     C94969   7.829  -0.233   6.471  0.7030 -0.0649 -0.7410
  720MOL0     C94970   7.863  -0.215   6.619 -1.1614  0.2669  0.1242
  720MOL0     C94971   8.003  -0.193   6.640  0.0542  0.4094  1.0337
  720MOL0     C94972   8.109  -0.186   6.685 -0.2776  0.2657 -0.2293
  720MOL0     C94973   8.050   0.220   6.413 -0.4022  0.4784 -0.5226
  720MOL0     C94974   8.143   0.318   6.408  0.8886  0.1553 -0.0639
  720MOL0     H94975   8.630   0.495   6.410 -1.1280  0.8373  1.2172
  720MOL0     H94976   8.798   0.681   6.361  0.8018 -0.7888  0.0383
  720MOL0     H94977   8.977   0.606   6.169  1.2455 -0.6583 -1.1025
  720MOL0     H94978   9.040   0.772   6.211 -1.3916  1.4049 -0.5431
  720MOL0     H94979   9.058   0.792   5.946 -0.3272  0.7228  0.5441
  720MOL0     H94980   9.065   0.608   5.947  0.8194 -0.5949  1.8713
  720MOL0     H94981   9.271   0.609   5.967 -0.7116 -1.7862  1.3969
  720MOL0     H94982   9.253   0.679   6.127  2.8984 -0.4571 -1.4401
  720MOL0     H94983   9.264   0.841   5.881  0.6206 -1.4579  0.1755
  720MOL0     H94984   9.224   0.908   6.039 -4.4545 -2.1083 -2.0416
  720MOL0     H94985   9.500   0.781   5.948 -3.8001  0.2443 -3.0376
  720MOL0     H94986   9.481   0.829   6.108  0.3164 -2.1234  0.2526
  720MOL0     H94987   9.391   1.059   5.991  2.1323  1.2611  2.0991
  720MOL0     H94988   9.474   0.995   5.851 -0.0204 -2.4932  0.8300
  720MOL0     H94989   9.612   1.158   5.992  1.2026 -0.8436  0.3222
  720MOL0     H94990   9.592   1.043   6.126  0.4444  0.5555  0.5929
  720MOL0     H94991   9.719   0.976   5.857 -2.4609 -0.2254 -0.5179
  720MOL0     H94992   9.732   0.882   6.015  2.1623  0.7679  1.3925
  720MOL0     H94993   9.814   1.238   5.882 -3.0341 -1.7907  1.1236
  720MOL0     H94994  10.034   1.365   5.813 -0.1208 -1.4222 -2.3116
  720MOL0     H94995  10.186   1.262   5.815  0.7067  1.3907  0.1883
  720MOL0     H94996  10.221   1.461   5.921  1.7888 -0.8405  1.1638
  720MOL0     H94997  10.226   1.333   6.039 -1.4237 -0.3256  2.0279
  720MOL0     H94998   9.992   1.531   6.004 -0.9842 -0.0229  1.8688
  720MOL0     H94999   9.994   1.406   6.125 -0.2237  2.4041  0.6594
  720MOL0     H95000  10.172   1.478   6.249 -1.9328 -0.8179  0.4132
  720MOL0     H95001  10.057   1.606   6.237 -1.0540 -3.0836  1.1115
  720MOL0     H95002  10.281   1.572   6.407 -0.6370 -0.1039 -0.4039
  720MOL0     H95003  10.471   1.625   6.527  1.1806  0.0566 -0.2012
  720MOL0     H95004  10.712   2.101   6.558  0.7629  0.5319 -0.3796
  720MOL0     H95005  10.863   2.206   6.721  0.2418 -0.9198  0.6947
  720MOL0     H95006  11.029   2.110   6.930 -1.1786  0.0914 -0.2165
  720MOL0     H95007  10.995   2.270   6.871  1.4671  1.6708  1.6416
  720MOL0     H95008  11.260   2.324   6.920  1.6038 -0.0048  2.6249
  720MOL0     H95009  11.238   2.177   7.009  1.1305 -0.1905 -1.9885
  720MOL0     H95010  11.039   2.271   7.144 -3.9419  5.3257  2.8170
  720MOL0     H95011  11.053   2.425   7.063 -1.9512 -1.4630  0.8217
  720MOL0     H95012  11.280   2.306   7.225 -0.6901 -0.6065  0.1909
  720MOL0     H95013  11.279   2.459   7.143  2.3536 -2.9099 -3.3824
  720MOL0     H95014  11.079   2.373   7.358  0.5166 -1.8640 -2.3131
  720MOL0     H95015  11.110   2.532   7.280 -0.4010 -2.2111 -4.2431
  720MOL0     H95016  11.343   2.540   7.391 -0.8507  0.5875 -1.6015
  720MOL0     H95017  11.305   2.391   7.471  0.2046 -0.0516 -1.2521
  720MOL0     H95018  11.174   2.664   7.520  0.3543  0.5239 -0.6060
  720MOL0     H95019  11.093   2.512   7.559  0.3120 -0.3787  0.9427
  720MOL0     H95020  11.269   2.457   7.727 -1.8560 -0.4677  1.3135
  720MOL0     H95021  11.197   2.604   7.763 -1.3960  2.7426 -2.4335
  720MOL0     H95022  11.178   1.958   6.572 -0.3563 -0.5292  0.8610
  720MOL0     H95023  11.019   1.850   6.421 -0.1146  0.3000  0.4416
  720MOL0     H95024  10.616   1.872   6.204 -1.1218  0.5050  0.3881
  720MOL0     H95025  10.435   1.780   6.062 -0.9536 -1.2832  0.1020
  720MOL0     H95026   8.693   0.671   5.940 -0.6578 -0.8578 -0.3227
  720MOL0     H95027   8.502   0.527   5.996 -0.8821 -2.2483  1.6348
  720MOL0     H95028   8.355   0.159   6.182 -0.6721 -0.8780  0.8253
  720MOL0     H95029   8.190  -0.005   6.204  0.6971 -1.3030  1.3797
  720MOL0     H95030   7.798   0.091   6.371  0.6897  0.0577 -0.1117
  720MOL0     H95031   7.874   0.025   6.513 -1.6718 -0.3951  1.0097
  720MOL0     H95032   7.667  -0.090   6.438 -0.4920 -1.8232  0.4793
  720MOL0     H95033   7.768  -0.158   6.299  1.7088  1.8159 -0.6731
  720MOL0     H95034   7.918  -0.275   6.424  2.5142  1.1097  1.4277
  720MOL0     H95035   7.754  -0.312   6.469 -0.2294  0.7578  0.2209
  720MOL0     H95036   7.791  -0.150   6.670 -0.3570 -1.3860  3.7101
  720MOL0     H95037   7.850  -0.315   6.662  2.9525 -0.3337  0.3517
  720MOL0     H95038   8.209  -0.190   6.724 -0.0915 -0.4472 -0.7708
  720MOL0     H95039   7.971   0.228   6.487  2.7299  4.7835  2.8339
  720MOL0     H95040   8.123   0.410   6.462  1.9381  0.7434 -0.6435
  721MOL0     O95041  10.374   1.931  10.410 -0.4986  0.5698 -0.8523
  721MOL0     C95042  10.285   1.978  10.339 -0.8890 -0.1482 -0.3005
  721MOL0     O95043  10.294   2.028  10.213 -0.0411  0.3926 -0.2225
  721MOL0     C95044  10.410   2.005  10.145 -0.5569 -0.3752 -1.0255
  721MOL0     C95045  10.445   1.883  10.099  0.0162  0.4588  0.4175
  721MOL0     C95046  10.563   1.864  10.025 -0.8747  0.0018  0.3054
  721MOL0     C95047  10.638   1.974   9.987  0.1679  0.4921 -0.4232
  721MOL0     O95048  10.741   1.939   9.899  0.2576 -0.2144  0.0876
  721MOL0     C95049  10.854   2.021   9.900 -0.0013  0.2964  0.8307
  721MOL0     C95050  10.895   2.062   9.756 -0.0654 -0.3656 -0.7841
  721MOL0     C95051  10.802   2.168   9.709 -0.3508  0.7423  0.3910
  721MOL0     C95052  10.812   2.213   9.571 -0.1090  0.8355 -0.3028
  721MOL0     C95053  10.901   2.337   9.545  0.2913 -0.5164  0.0030
  721MOL0     C95054  10.892   2.389   9.394 -0.0052  0.3827 -0.0602
  721MOL0     C95055  10.764   2.466   9.351 -0.1833  0.3671 -0.0840
  721MOL0     C95056  10.771   2.531   9.216 -0.4195  0.8259  0.6753
  721MOL0     N95057  10.644   2.564   9.165  0.2076  0.3890 -0.4999
  721MOL0     C95058  10.583   2.492   9.068 -0.4081 -0.2121  0.6492
  721MOL0     C95059  10.459   2.539   9.066  0.8374 -0.0649  0.0112
  721MOL0     C95060  10.360   2.504   8.961 -0.1990  0.8270 -0.6392
  721MOL0     C95061  10.316   2.360   8.975 -0.3321 -1.1856  0.4489
  721MOL0     C95062  10.209   2.331   8.863  1.0531  0.7615  0.0946
  721MOL0     C95063  10.145   2.199   8.889  0.8162 -0.0366  0.1790
  721MOL0     O95064  10.101   2.142   8.766  0.3198  0.2244  0.2024
  721MOL0     C95065   9.967   2.142   8.745 -0.3855 -0.0750 -0.7476
  721MOL0     C95066   9.870   2.201   8.823 -0.1834  0.3629 -1.0390
  721MOL0     C95067   9.732   2.207   8.783 -0.6964  1.2709  0.3608
  721MOL0     C95068   9.686   2.128   8.678 -0.3536  0.2125 -0.5052
  721MOL0     C95069   9.542   2.118   8.662  0.2156 -0.2802  0.1945
  721MOL0     O95070   9.464   2.223   8.703  0.1053  0.2381  0.4682
  721MOL0     C95071   9.325   2.231   8.678  0.7289  0.0619 -0.2685
  721MOL0     C95072   9.224   2.126   8.670  0.0549  0.0197  0.7989
  721MOL0     C95073   9.088   2.142   8.628 -0.0561 -0.3165 -0.6348
  721MOL0     C95074   9.038   2.270   8.617 -0.2571 -0.0474  0.3610
  721MOL0     O95075   8.903   2.293   8.587 -0.5677 -0.2477  0.4026
  721MOL0     C95076   8.844   2.210   8.483  0.0556 -0.5487  0.1359
  721MOL0     C95077   8.692   2.222   8.489  0.4597  0.5235  0.5586
  721MOL0     C95078   8.632   2.203   8.626  0.3451  0.2760 -0.3165
  721MOL0     C95079   8.667   2.070   8.695  0.5170 -0.7988  0.2301
  721MOL0     C95080   8.654   1.941   8.603 -0.3054 -0.0376 -0.8224
  721MOL0     C95081   8.672   1.815   8.693  0.8138  0.2400  0.3066
  721MOL0     C95082   8.812   1.803   8.751 -0.3479 -0.2357 -0.1101
  721MOL0     C95083   8.834   1.654   8.796  0.1931  0.1509 -0.6446
  721MOL0    Cl95084   8.791   1.512   8.688 -0.9783  0.5612  0.1664
  721MOL0     C95085   9.129   2.380   8.643  0.6592  0.3716 -0.5826
  721MOL0     C95086   9.267   2.362   8.672 -1.2527  0.5439  0.4485
  721MOL0     O95087   9.508   2.011   8.609 -0.0544 -0.2746  0.7003
  721MOL0     C95088   9.786   2.053   8.606 -0.2714  0.7763  1.1641
  721MOL0     C95089   9.919   2.063   8.640 -0.5074  0.3385 -0.4017
  721MOL0     N95090  10.443   2.642   9.162 -0.7061  0.2740  0.3519
  721MOL0     N95091  10.563   2.660   9.221 -0.2740 -0.1656 -0.0726
  721MOL0     C95092  10.599   2.099  10.029 -0.1752 -0.3521 -0.4813
  721MOL0     C95093  10.491   2.113  10.114 -0.0842 -0.8657 -0.3989
  721MOL0     C95094  10.147   1.963  10.394 -0.6849 -0.4966  0.2007
  721MOL0     C95095  10.030   1.971  10.316  0.5407  0.4551 -0.1172
  721MOL0     C95096   9.899   1.946  10.361  0.3102 -0.2176  0.3787
  721MOL0     C95097   9.884   1.917  10.498 -0.7514 -0.5203 -0.2628
  721MOL0     O95098   9.761   1.931  10.558  0.2924 -0.5386 -0.7375
  721MOL0     C95099   9.651   1.873  10.485 -1.1276 -0.3767 -0.2715
  721MOL0     C95100   9.531   1.882  10.584 -1.4255 -0.9553  0.3630
  721MOL0     C95101   9.548   1.790  10.703 -0.2802  0.4395 -0.0496
  721MOL0     C95102   9.424   1.783  10.801  0.2363 -0.0141 -0.3300
  721MOL0     C95103   9.464   1.714  10.922 -0.4047  0.5624 -0.9318
  721MOL0     C95104   9.481   1.651  11.031 -0.8540 -0.2303 -0.0244
  721MOL0     C95105   9.998   1.889  10.572  0.2647 -1.3358 -0.4096
  721MOL0     C95106  10.129   1.906  10.528  0.1896  0.4915 -0.2126
  721MOL0     H95107  10.383   1.803  10.137  1.0804  0.3848  2.0921
  721MOL0     H95108  10.593   1.761  10.007 -0.5438  0.5374 -2.9796
  721MOL0     H95109  10.937   1.955   9.929 -1.0294 -0.5930  1.8650
  721MOL0     H95110  10.842   2.111   9.961 -1.5716  0.1237  0.8167
  721MOL0     H95111  10.870   1.976   9.693  0.4208 -0.6023 -0.6603
  721MOL0     H95112  10.996   2.104   9.750  0.6099 -1.7995 -0.0198
  721MOL0     H95113  10.834   2.259   9.761  1.3163  1.1556 -1.2636
  721MOL0     H95114  10.698   2.144   9.731 -1.4674  2.3226 -2.6427
  721MOL0     H95115  10.851   2.128   9.514 -1.4332 -0.5738  0.7954
  721MOL0     H95116  10.715   2.254   9.542 -1.6719  0.1471  3.3564
  721MOL0     H95117  11.009   2.324   9.559  0.4951 -1.2887 -1.8998
  721MOL0     H95118  10.879   2.425   9.606 -1.5423 -0.1924 -1.0695
  721MOL0     H95119  10.900   2.303   9.327 -3.1898  0.4567 -0.6772
  721MOL0     H95120  10.976   2.458   9.385  0.8302 -0.5906  0.0756
  721MOL0     H95121  10.683   2.392   9.355  1.7698 -1.8249  2.0946
  721MOL0     H95122  10.735   2.526   9.438 -2.2361 -1.3201  0.4880
  721MOL0     H95123  10.807   2.439   9.168 -3.6825 -0.5759  0.6501
  721MOL0     H95124  10.840   2.616   9.215  1.6785 -0.7349 -2.1529
  721MOL0     H95125  10.635   2.426   9.000  0.6245  1.2663 -0.0390
  721MOL0     H95126  10.393   2.526   8.859 -1.7852  1.6476 -1.0083
  721MOL0     H95127  10.280   2.579   8.965  0.0754  1.3352 -3.1191
  721MOL0     H95128  10.260   2.345   9.068 -0.1434 -1.3795  0.5294
  721MOL0     H95129  10.406   2.302   8.955  1.3502 -0.0281  3.9013
  721MOL0     H95130  10.128   2.405   8.868 -0.3897 -0.8687  3.5568
  721MOL0     H95131  10.249   2.332   8.761 -0.8031 -2.7838 -0.8269
  721MOL0     H95132  10.066   2.200   8.965 -0.4225 -2.1827 -0.9782
  721MOL0     H95133  10.222   2.140   8.940  0.9791 -0.9853 -1.1083
  721MOL0     H95134   9.890   2.257   8.914  0.7606 -2.5975  0.7111
  721MOL0     H95135   9.662   2.255   8.851 -1.3676 -2.1747  2.3659
  721MOL0     H95136   9.270   2.029   8.686  1.9494  0.6321 -0.5838
  721MOL0     H95137   9.042   2.045   8.615 -2.3821 -0.5317  5.8203
  721MOL0     H95138   8.861   2.103   8.502  2.5923  0.0409  1.5420
  721MOL0     H95139   8.882   2.231   8.383  2.9357 -1.9985  0.8328
  721MOL0     H95140   8.645   2.147   8.425 -0.1480  1.8373 -0.5968
  721MOL0     H95141   8.665   2.322   8.454  0.2951  0.2666 -0.0656
  721MOL0     H95142   8.523   2.206   8.617  0.1892 -0.7774  0.8402
  721MOL0     H95143   8.658   2.289   8.687 -2.7710  2.2429 -1.5178
  721MOL0     H95144   8.770   2.073   8.729  0.0804  1.3659  1.5460
  721MOL0     H95145   8.605   2.045   8.782 -1.3177  0.2911 -0.7002
  721MOL0     H95146   8.712   1.938   8.511 -1.8380 -3.9283 -1.8635
  721MOL0     H95147   8.551   1.939   8.566  0.9179  1.4363 -4.7412
  721MOL0     H95148   8.654   1.734   8.622 -1.9028  0.8922  0.1475
  721MOL0     H95149   8.594   1.807   8.769 -0.0455  3.2215 -0.1414
  721MOL0     H95150   8.891   1.836   8.683  0.0306 -2.0637 -0.6168
  721MOL0     H95151   8.806   1.865   8.841  0.0101  3.2941 -2.3539
  721MOL0     H95152   8.753   1.652   8.869 -0.0667  0.9993 -0.8902
  721MOL0     H95153   8.926   1.645   8.854 -0.7232 -0.4639  0.7654
  721MOL0     H95154   9.089   2.481   8.648 -0.7728 -0.2049  0.5199
  721MOL0     H95155   9.333   2.444   8.698  0.2543  0.3131 -2.3307
  721MOL0     H95156   9.775   2.000   8.512  1.5801 -1.3864  2.0971
  721MOL0     H95157   9.996   2.007   8.588 -2.2583 -2.9974  0.2652
  721MOL0     H95158  10.656   2.181   9.986 -0.2580 -0.6387 -1.1515
  721MOL0     H95159  10.461   2.212  10.145 -0.0131 -1.4354  1.6171
  721MOL0     H95160  10.036   1.988  10.208  2.0482 -0.3699 -0.1801
  721MOL0     H95161   9.813   1.943  10.295  0.7939 -0.6316 -0.2329
  721MOL0     H95162   9.674   1.770  10.458  0.6128  0.2062 -1.1624
  721MOL0     H95163   9.632   1.921  10.388 -1.1803 -0.4304 -0.2872
  721MOL0     H95164   9.519   1.986  10.616  2.6254 -0.4385  0.7160
  721MOL0     H95165   9.441   1.864  10.525  0.5988 -1.4304 -2.8020
  721MOL0     H95166   9.630   1.833  10.762  1.2413  0.5845 -2.1631
  721MOL0     H95167   9.568   1.693  10.656  1.2873  0.2452  0.9228
  721MOL0     H95168   9.399   1.887  10.822  2.2159  0.4376  0.0785
  721MOL0     H95169   9.335   1.735  10.760 -0.4163 -0.5941  1.6830
  721MOL0     H95170   9.498   1.594  11.119  0.6133 -0.1284 -0.2106
  721MOL0     H95171   9.988   1.878  10.680  0.2796 -2.5879 -0.5125
  721MOL0     H95172  10.212   1.884  10.594 -0.2101 -0.2826  0.0491
  722MOL0     O95173   0.550  10.331   6.550  0.8710 -0.4509 -0.3331
  722MOL0     C95174   0.638  10.418   6.537 -0.2296  0.6388  0.5624
  722MOL0     O95175   0.612  10.547   6.558 -0.6795 -0.0758  0.1195
  722MOL0     C95176   0.482  10.585   6.562 -0.3068 -0.7696  0.1884
  722MOL0     C95177   0.437  10.670   6.670 -0.2940  0.5026  0.2428
  722MOL0     C95178   0.304  10.711   6.672  0.0244  0.2239 -0.2140
  722MOL0     C95179   0.212  10.680   6.569 -0.7072  0.7335 -0.1637
  722MOL0     O95180   0.079  10.720   6.569  0.3540 -0.1091  0.3430
  722MOL0     C95181   0.047  10.830   6.654 -0.4533 -0.0771  0.4918
  722MOL0     C95182  -0.101  10.843   6.642 -1.3178  0.0231 -0.2665
  722MOL0     C95183  -0.161  10.931   6.757 -0.1853  0.5359 -0.2642
  722MOL0     C95184  -0.309  10.918   6.767  0.1007 -0.0999  0.2564
  722MOL0     C95185  -0.372  10.787   6.799 -0.2270 -0.6236  0.0665
  722MOL0     C95186  -0.524  10.798   6.824 -0.1760  0.5647 -0.1029
  722MOL0     C95187  -0.608  10.672   6.794 -0.4989  0.1916 -0.5212
  722MOL0     C95188  -0.640  10.655   6.647 -0.4342  0.0185 -0.8579
  722MOL0     N95189  -0.748  10.546   6.646  0.0383  0.5908  0.0828
  722MOL0     C95190  -0.725  10.413   6.693  0.4801 -0.8630  0.9697
  722MOL0     C95191  -0.829  10.342   6.663 -1.5674  0.6292  0.4702
  722MOL0     C95192  -0.843  10.193   6.672 -1.0765  0.1448  0.0104
  722MOL0     C95193  -0.951  10.152   6.775 -0.0777  0.8959 -0.9353
  722MOL0     C95194  -0.974  10.009   6.760  0.7326  0.1308  1.3037
  722MOL0     C95195  -1.099   9.968   6.834 -0.4633  0.5108 -1.1533
  722MOL0     O95196  -1.200   9.895   6.768  0.2006 -0.2822 -0.1183
  722MOL0     C95197  -1.339   9.929   6.770 -0.4232 -0.4070 -0.3847
  722MOL0     C95198  -1.421   9.868   6.669 -0.2423  0.5119  0.8557
  722MOL0     C95199  -1.555   9.901   6.651  1.0814  0.1831 -0.1578
  722MOL0     C95200  -1.617   9.999   6.740 -0.1268  0.3664  0.1935
  722MOL0     C95201  -1.757  10.035   6.738  0.2680  0.0498 -0.0341
  722MOL0     O95202  -1.801  10.102   6.854 -0.3224  0.8019  0.3336
  722MOL0     C95203  -1.925  10.151   6.868  0.0027  0.0661  0.3761
  722MOL0     C95204  -2.081  10.120   6.718 -0.5117  0.8923 -0.2956
  722MOL0     C95205  -2.271  10.200   6.746  0.8609 -1.0233 -0.8758
  722MOL0     C95206  -2.318  10.306   6.924 -1.0494  0.7125  0.0493
  722MOL0     O95207  -2.432  10.367   6.929  0.3460  0.8871  0.1077
  722MOL0     C95208  -2.473  10.416   7.060 -0.2417  1.0005  0.0398
  722MOL0     C95209  -2.619  10.448   7.071  0.1221  0.4936  0.1500
  722MOL0     C95210  -2.703  10.330   7.020  0.2484 -0.5995  0.4426
  722MOL0     C95211  -2.846  10.360   7.078 -0.4106 -0.3865  0.8945
  722MOL0     C95212  -2.965  10.264   7.041 -0.3137  0.3357  0.4747
  722MOL0     C95213  -2.921  10.124   7.012 -1.1966  0.4607  1.0948
  722MOL0     C95214  -3.051  10.050   7.004  0.7737 -0.2574  0.1182
  722MOL0     C95215  -3.038   9.902   7.007  0.4185 -0.1232  0.2526
  722MOL0    Cl95216  -2.965   9.853   6.846  0.4423 -0.0085  0.4124
  722MOL0     C95217  -2.171  10.334   7.069 -0.0482 -0.3875 -1.1033
  722MOL0     C95218  -1.977  10.253   7.043 -1.0773  0.6334 -0.9748
  722MOL0     O95219  -1.822  10.003   6.638 -0.0092  0.3278 -0.3351
  722MOL0     C95220  -1.535  10.062   6.831 -0.3615 -0.4710 -0.1834
  722MOL0     C95221  -1.405  10.019   6.850  0.3296  0.2380 -0.1313
  722MOL0     N95222  -0.910  10.417   6.579 -1.1430 -0.5977  0.9774
  722MOL0     N95223  -0.861  10.542   6.571  0.1193  0.2077 -0.1071
  722MOL0     C95224   0.259  10.608   6.461 -1.1210  0.6190  0.0222
  722MOL0     C95225   0.396  10.552   6.461  0.4185 -0.1297 -0.6273
  722MOL0     C95226   0.783  10.366   6.532 -0.1900  0.5662 -1.0549
  722MOL0     C95227   0.828  10.246   6.480  0.2947  0.0902  0.6975
  722MOL0     C95228   0.965  10.219   6.462  0.2425 -0.5073 -0.1602
  722MOL0     C95229   1.064  10.309   6.513 -0.3350  0.0896  1.0724
  722MOL0     O95230   1.195  10.285   6.494  0.1151  0.4938  0.0586
  722MOL0     C95231   1.225  10.146   6.540 -0.9355  0.0661 -0.0994
  722MOL0     C95232   1.372  10.148   6.604 -0.1180  0.0450 -0.1101
  722MOL0     C95233   1.486  10.184   6.504  0.6145 -0.7869  0.4792
  722MOL0     C95234   1.623  10.170   6.556 -0.4464 -0.0849 -0.2044
  722MOL0     C95235   1.719  10.182   6.455 -0.0989  0.2464  0.0294
  722MOL0     C95236   1.799  10.193   6.364  0.2683 -0.0635 -0.4733
  722MOL0     C95237   1.018  10.426   6.574  0.2191 -0.3074  0.0944
  722MOL0     C95238   0.877  10.451   6.591 -0.9211  0.0916 -0.9237
  722MOL0     H95239   0.504  10.688   6.753  4.4800  1.0272 -3.3244
  722MOL0     H95240   0.268  10.750   6.766  2.9069  0.1300  1.0365
  722MOL0     H95241   0.107  10.914   6.617 -2.0423  0.6536 -0.5435
  722MOL0     H95242   0.070  10.805   6.758  1.6308 -0.9671 -0.1161
  722MOL0     H95243  -0.138  10.740   6.642  0.5555 -0.6891  0.3951
  722MOL0     H95244  -0.117  10.874   6.538  0.9907 -2.3112 -1.4544
  722MOL0     H95245  -0.139  11.037   6.740 -0.4075  0.8852  1.4555
  722MOL0     H95246  -0.111  10.897   6.849 -0.0905 -1.4531 -1.0098
  722MOL0     H95247  -0.339  10.990   6.844 -0.3703  1.5977 -1.4542
  722MOL0     H95248  -0.352  10.957   6.675  0.9445 -0.4370 -0.2902
  722MOL0     H95249  -0.326  10.741   6.888 -1.7295 -2.1551  0.1097
  722MOL0     H95250  -0.360  10.713   6.718 -1.7110 -0.3763 -0.4002
  722MOL0     H95251  -0.562  10.885   6.769  0.7034  0.2443 -1.2369
  722MOL0     H95252  -0.542  10.821   6.930 -1.5813 -4.0229  0.8939
  722MOL0     H95253  -0.562  10.584   6.840  2.0993  2.9066  2.4751
  722MOL0     H95254  -0.701  10.687   6.850  0.5736  1.8687  0.9134
  722MOL0     H95255  -0.554  10.613   6.593  0.4918  3.1489 -2.0791
  722MOL0     H95256  -0.671  10.742   6.588 -2.0026 -1.3523 -2.1702
  722MOL0     H95257  -0.636  10.377   6.743  2.3728 -1.2301 -2.3588
  722MOL0     H95258  -0.745  10.150   6.698 -0.8223 -1.0519 -2.6126
  722MOL0     H95259  -0.870  10.152   6.575  1.3044 -2.3743  0.2666
  722MOL0     H95260  -1.047  10.192   6.744 -0.6253 -1.1367 -2.0498
  722MOL0     H95261  -0.929  10.185   6.877 -1.5753 -1.0917  0.0907
  722MOL0     H95262  -0.982   9.992   6.652  1.9337  0.8418  1.0897
  722MOL0     H95263  -0.890   9.946   6.789 -0.2696 -2.1747 -0.4635
  722MOL0     H95264  -1.147  10.058   6.872 -2.0062  0.4069 -2.7086
  722MOL0     H95265  -1.077   9.914   6.926  0.5413  1.1842 -0.9951
  722MOL0     H95266  -1.368   9.794   6.609  2.5639  0.5723  3.0797
  722MOL0     H95267  -1.616   9.864   6.569  1.3238 -0.6047  0.0008
  722MOL0     H95268  -2.066  10.059   6.630 -0.6868 -3.0891  2.1501
  722MOL0     H95269  -2.349  10.188   6.672  0.6249  1.9042 -1.2271
  722MOL0     H95270  -2.428  10.513   7.085 -1.5697  1.6067  0.1756
  722MOL0     H95271  -2.448  10.347   7.140  2.2908 -0.7412 -2.0486
  722MOL0     H95272  -2.650  10.534   7.011 -3.8045 -0.3610  0.6618
  722MOL0     H95273  -2.652  10.464   7.174 -1.1954  2.1954 -0.4883
  722MOL0     H95274  -2.675  10.237   7.071 -3.0989 -2.3416 -0.6005
  722MOL0     H95275  -2.702  10.308   6.913  0.5688 -4.4095  1.1113
  722MOL0     H95276  -2.826  10.362   7.185  3.4845  3.7567  0.4061
  722MOL0     H95277  -2.885  10.454   7.038 -1.6265 -0.7214  1.2723
  722MOL0     H95278  -3.019  10.306   6.955  0.2279 -0.1469 -0.1031
  722MOL0     H95279  -3.038  10.268   7.123  0.1245  2.2502  0.8291
  722MOL0     H95280  -2.861  10.091   7.097  0.9988  4.0461  1.1450
  722MOL0     H95281  -2.863  10.126   6.919  3.1674  3.2098  3.4970
  722MOL0     H95282  -3.121  10.078   7.084 -1.1049 -0.4909 -1.3593
  722MOL0     H95283  -3.097  10.080   6.909  2.2455  0.1200 -0.4940
  722MOL0     H95284  -3.136   9.855   7.021  0.5015 -0.6439 -0.7793
  722MOL0     H95285  -2.964   9.873   7.082 -0.4547 -2.0035  0.4500
  722MOL0     H95286  -2.194  10.398   7.154 -0.2658 -2.4653  0.4952
  722MOL0     H95287  -1.901  10.265   7.120  1.0253 -1.4343 -2.5517
  722MOL0     H95288  -1.573  10.142   6.893 -2.3163  0.8050 -2.7949
  722MOL0     H95289  -1.358  10.066   6.935 -0.9611  1.4970 -0.0752
  722MOL0     H95290   0.197  10.591   6.374 -1.7469 -2.7863  1.0124
  722MOL0     H95291   0.423  10.492   6.374 -1.0159  3.6582 -3.9638
  722MOL0     H95292   0.755  10.174   6.444  0.2675  0.8595 -0.8623
  722MOL0     H95293   1.004  10.129   6.416  0.7937  0.0561 -0.8056
  722MOL0     H95294   1.230  10.079   6.454 -3.4671 -1.8702  1.1419
  722MOL0     H95295   1.158  10.096   6.611 -0.6538 -2.6829 -1.6135
  722MOL0     H95296   1.365  10.215   6.690 -3.1256 -1.7104  1.1813
  722MOL0     H95297   1.379  10.046   6.644 -1.2364  0.0016  0.0131
  722MOL0     H95298   1.474  10.287   6.467  2.1875 -0.8146 -0.2085
  722MOL0     H95299   1.465  10.121   6.418  0.2382  0.4483 -0.3648
  722MOL0     H95300   1.644  10.243   6.635  0.2930  1.4280 -1.7332
  722MOL0     H95301   1.642  10.070   6.596  0.7135  0.7011  1.2939
  722MOL0     H95302   1.875  10.212   6.290  1.4520 -1.4726  0.3147
  722MOL0     H95303   1.083  10.497   6.624 -1.7771  2.2260 -0.6698
  722MOL0     H95304   0.848  10.542   6.641 -0.5959 -0.9385  1.2568
  723MOL0     O95305   7.943   8.820  10.703  1.1119 -0.2721  0.5982
  723MOL0     C95306   7.990   8.904  10.623  0.3268  0.2024 -0.1820
  723MOL0     O95307   7.916   8.980  10.530 -1.0832  0.3182  0.2799
  723MOL0     C95308   7.792   9.025  10.546  0.0309 -0.2908  2.0163
  723MOL0     C95309   7.723   9.073  10.426 -0.5794  0.8273 -0.9135
  723MOL0     C95310   7.606   9.145  10.433 -0.0824  0.0257 -0.0424
  723MOL0     C95311   7.534   9.145  10.552 -0.0407 -0.1857  0.4028
  723MOL0     O95312   7.420   9.211  10.568  0.7082 -0.6025  0.6098
  723MOL0     C95313   7.306   9.168  10.487 -0.8626 -0.3167  1.0832
  723MOL0     C95314   7.228   9.061  10.561 -0.2776  0.0201  0.2737
  723MOL0     C95315   7.079   9.091  10.588  0.3871  0.3817  0.6221
  723MOL0     C95316   7.039   9.221  10.668 -0.1516  0.0765  0.3788
  723MOL0     C95317   6.904   9.204  10.739  0.1959 -0.7868  0.2897
  723MOL0     C95318   6.795   9.179  10.630  0.6178 -0.4039 -0.4438
  723MOL0     C95319   6.658   9.170  10.712 -0.4611 -0.8289 -0.4908
  723MOL0     C95320   6.536   9.138  10.627 -0.1550 -0.0387 -0.2075
  723MOL0     N95321   6.401   9.155  10.690  0.5043  0.1273  0.5501
  723MOL0     C95322   6.285   9.195  10.629  0.2107  0.2922 -0.3538
  723MOL0     C95323   6.195   9.215  10.725 -0.3097 -0.5362 -0.4201
  723MOL0     C95324   6.055   9.257  10.700  0.9954 -0.1856 -0.5857
  723MOL0     C95325   5.956   9.138  10.719 -0.1097 -0.3758  0.0822
  723MOL0     C95326   5.840   9.142  10.620  0.3639  0.1411  0.5308
  723MOL0     C95327   5.732   9.244  10.649  0.1629  0.1145  0.0767
  723MOL0     O95328   5.672   9.221  10.778 -0.8671 -0.2314 -0.0566
  723MOL0     C95329   5.574   9.134  10.779  0.0351  0.4549  0.8112
  723MOL0     C95330   5.590   8.996  10.798 -0.4315  0.6030 -0.9112
  723MOL0     C95331   5.498   8.899  10.813 -0.6043  1.0266 -0.4777
  723MOL0     C95332   5.361   8.938  10.802 -0.2090  0.0361  0.0443
  723MOL0     C95333   5.249   8.852  10.810 -0.5755  0.5166  0.1991
  723MOL0     O95334   5.123   8.898  10.845  0.1683  0.2272 -0.3949
  723MOL0     C95335   5.016   8.821  10.871  0.0941  0.1538  0.2696
  723MOL0     C95336   5.016   8.674  10.880  0.6531  1.1134  0.3466
  723MOL0     C95337   4.891   8.607  10.898  0.9631  0.3573 -0.3893
  723MOL0     C95338   4.768   8.665  10.875 -0.0118 -1.0007 -0.4973
  723MOL0     O95339   4.652   8.597  10.874  0.8609 -0.3708 -0.1362
  723MOL0     C95340   4.645   8.461  10.916 -0.9038 -0.2930  0.3434
  723MOL0     C95341   4.530   8.438  11.004 -0.0303  0.2630 -0.2779
  723MOL0     C95342   4.531   8.478  11.148 -0.4930 -0.9742  1.1079
  723MOL0     C95343   4.405   8.437  11.221 -0.2351 -0.4669  0.2040
  723MOL0     C95344   4.429   8.443  11.376 -0.3071  0.2208  0.8804
  723MOL0     C95345   4.457   8.576  11.425 -0.0748 -0.7853 -0.1060
  723MOL0     C95346   4.463   8.571  11.575  0.4808  0.4444 -0.4077
  723MOL0     C95347   4.521   8.688  11.645  0.0921  0.6379  0.8126
  723MOL0    Cl95348   4.435   8.843  11.571  0.1062 -0.1243  0.1145
  723MOL0     C95349   4.767   8.807  10.869  0.2500 -0.3720  0.2742
  723MOL0     C95350   4.890   8.878  10.871 -0.0114  0.8345  0.3165
  723MOL0     O95351   5.283   8.737  10.772  0.2950 -0.1169 -0.6490
  723MOL0     C95352   5.338   9.074  10.781  0.0476 -0.7024  0.3055
  723MOL0     C95353   5.439   9.177  10.763  0.6036 -0.4340  0.3208
  723MOL0     N95354   6.242   9.160  10.841 -0.4905 -0.2614  0.1133
  723MOL0     N95355   6.366   9.119  10.818 -0.2411 -0.0023 -0.1552
  723MOL0     C95356   7.594   9.087  10.661 -0.5665 -0.5103 -0.8853
  723MOL0     C95357   7.723   9.037  10.661 -0.5862  0.5434 -0.3869
  723MOL0     C95358   8.141   8.919  10.620 -0.3644 -0.1321 -1.0982
  723MOL0     C95359   8.197   9.019  10.547  0.3040  0.3408  0.5858
  723MOL0     C95360   8.333   9.040  10.566  0.1492  0.0222  1.0140
  723MOL0     C95361   8.418   8.970  10.652 -0.7619  0.1417  1.3717
  723MOL0     O95362   8.556   8.989  10.648  0.4541  0.0915  0.6146
  723MOL0     C95363   8.613   8.955  10.518 -0.2922 -0.4051  0.1213
  723MOL0     C95364   8.762   8.903  10.540  1.1685  0.6206 -0.0611
  723MOL0     C95365   8.837   8.867  10.414  0.4602 -0.8698 -1.0547
  723MOL0     C95366   8.988   8.833  10.423  0.6358  0.2796 -0.1208
  723MOL0     C95367   9.062   8.938  10.493 -0.1869 -0.5696  0.4870
  723MOL0     C95368   9.118   9.028  10.558  0.0238  0.8992 -0.0507
  723MOL0     C95369   8.357   8.879  10.738 -0.5907 -0.6995  0.4590
  723MOL0     C95370   8.218   8.852  10.727 -0.0892  0.5559 -0.9750
  723MOL0     H95371   7.790   9.072  10.340  0.7513  2.3867  0.0372
  723MOL0     H95372   7.564   9.193  10.345 -0.3736  1.6093  0.9192
  723MOL0     H95373   7.334   9.151  10.383  3.0077 -1.1862  2.1043
  723MOL0     H95374   7.237   9.253  10.484  2.0542  2.3225  2.7916
  723MOL0     H95375   7.282   9.046  10.655  2.3776 -0.4443 -1.2353
  723MOL0     H95376   7.245   8.970  10.502  1.4694 -1.5308  2.9232
  723MOL0     H95377   7.049   9.006  10.650  1.7365 -0.1563  0.5685
  723MOL0     H95378   7.025   9.084  10.493  1.4848  0.9293 -0.0571
  723MOL0     H95379   7.117   9.252  10.738 -1.7291  0.5161  2.0277
  723MOL0     H95380   7.037   9.296  10.588  3.7185 -2.0206 -2.0257
  723MOL0     H95381   6.879   9.286  10.808 -0.4749 -1.4752  0.8959
  723MOL0     H95382   6.920   9.121  10.809  1.5677  2.1957  3.8605
  723MOL0     H95383   6.828   9.082  10.591  2.7650 -0.9784  2.4316
  723MOL0     H95384   6.785   9.247  10.545 -0.1072 -3.1498 -2.7178
  723MOL0     H95385   6.686   9.089  10.780  1.7568  0.9708  0.9052
  723MOL0     H95386   6.645   9.265  10.765 -0.3574 -1.0680 -0.0305
  723MOL0     H95387   6.550   9.036  10.590 -3.8326 -0.0943 -1.9183
  723MOL0     H95388   6.546   9.200  10.538  0.0142 -1.1547 -0.9955
  723MOL0     H95389   6.257   9.191  10.524 -1.0915 -2.5251  0.0029
  723MOL0     H95390   6.036   9.298  10.600 -2.0082  1.6994  0.6147
  723MOL0     H95391   6.031   9.345  10.761  0.6136 -0.2928 -0.5785
  723MOL0     H95392   5.913   9.135  10.819 -1.2891 -0.9801 -0.4245
  723MOL0     H95393   6.017   9.049  10.699 -0.0798 -0.2432 -0.4205
  723MOL0     H95394   5.885   9.151  10.521  1.2252  1.4806  1.0188
  723MOL0     H95395   5.798   9.041  10.618  2.3077 -0.6998  0.1718
  723MOL0     H95396   5.653   9.232  10.575 -0.1473  0.8697  0.2813
  723MOL0     H95397   5.769   9.345  10.633 -0.4226  0.0611 -1.8400
  723MOL0     H95398   5.693   8.961  10.807 -1.1615 -1.3342  0.4984
  723MOL0     H95399   5.543   8.802  10.832  2.0018  2.0518 -0.9766
  723MOL0     H95400   5.114   8.631  10.864 -0.0671  0.2892 -2.6047
  723MOL0     H95401   4.898   8.499  10.900  1.9327  0.4227  1.0657
  723MOL0     H95402   4.734   8.420  10.965 -0.7216 -0.3964 -0.0692
  723MOL0     H95403   4.637   8.397  10.827  0.2609  2.6463 -2.0815
  723MOL0     H95404   4.519   8.329  11.001 -0.3249  0.3099 -2.3057
  723MOL0     H95405   4.438   8.477  10.959 -0.9826 -1.7515 -0.1685
  723MOL0     H95406   4.523   8.587  11.140  0.4699 -1.0261 -1.7767
  723MOL0     H95407   4.626   8.451  11.196 -0.2930 -0.0444  1.2576
  723MOL0     H95408   4.311   8.482  11.189  1.2380  2.3318 -0.4375
  723MOL0     H95409   4.379   8.333  11.198 -2.9822  0.4121 -1.0601
  723MOL0     H95410   4.518   8.381  11.392 -0.3138 -1.1160 -3.0360
  723MOL0     H95411   4.350   8.390  11.430 -1.0639 -1.3954 -1.6072
  723MOL0     H95412   4.379   8.647  11.399 -0.2667 -0.3080  1.6641
  723MOL0     H95413   4.544   8.615  11.371  0.7070 -2.4099 -0.1126
  723MOL0     H95414   4.361   8.562  11.612  1.1824  0.8110  1.7244
  723MOL0     H95415   4.518   8.482  11.608  0.0140  0.8130  1.4350
  723MOL0     H95416   4.624   8.676  11.611 -1.2126  0.2697 -3.5941
  723MOL0     H95417   4.491   8.673  11.749  3.5126 -0.8832  1.7122
  723MOL0     H95418   4.673   8.860  10.860  0.6515  0.0936 -1.5407
  723MOL0     H95419   4.890   8.986  10.863  3.7531  0.8704 -1.4933
  723MOL0     H95420   5.232   9.090  10.763 -0.0410 -0.2208  1.1850
  723MOL0     H95421   5.410   9.277  10.732  0.1014 -1.1515 -1.6583
  723MOL0     H95422   7.538   9.082  10.754 -1.6618 -0.5949 -1.5251
  723MOL0     H95423   7.764   9.000  10.754  2.5562  2.5453 -0.8274
  723MOL0     H95424   8.141   9.078  10.475 -1.0650 -0.4568  0.9661
  723MOL0     H95425   8.369   9.110  10.491 -0.3789 -2.7057 -2.0018
  723MOL0     H95426   8.607   9.031  10.440 -1.6390  0.6225  1.1569
  723MOL0     H95427   8.557   8.871  10.475 -2.2776  0.7072  0.3776
  723MOL0     H95428   8.813   8.982  10.597 -0.5425  1.9981 -0.3838
  723MOL0     H95429   8.761   8.817  10.608  1.7726  1.2353  0.7579
  723MOL0     H95430   8.834   8.948  10.340  0.1326 -0.0334 -0.1393
  723MOL0     H95431   8.792   8.784  10.358  4.7744 -1.8572 -3.5183
  723MOL0     H95432   9.008   8.734  10.466  0.4325 -0.3725 -1.4642
  723MOL0     H95433   9.039   8.813  10.328 -1.0384 -3.0014 -0.4681
  723MOL0     H95434   9.172   9.103  10.612  2.0295  0.6086 -1.5301
  723MOL0     H95435   8.417   8.823  10.808  0.6098 -0.1566 -0.1100
  723MOL0     H95436   8.167   8.788  10.797  1.6346 -1.5601 -1.5647
  724MOL0     O95437   0.495   2.411  10.922 -0.2544 -0.7509  0.4865
  724MOL0     C95438   0.526   2.446  10.810  0.3893  0.0484 -0.2200
  724MOL0     O95439   0.437   2.456  10.707 -0.8217 -0.9326 -0.1334
  724MOL0     C95440   0.308   2.446  10.727  0.5416 -0.7057 -0.0229
  724MOL0     C95441   0.250   2.315  10.726 -0.5600 -0.2868  0.4705
  724MOL0     C95442   0.114   2.300  10.753 -0.7132 -0.3346  1.0375
  724MOL0     C95443   0.033   2.418  10.769  0.2729 -0.4094  0.4465
  724MOL0     O95444  -0.107   2.421  10.780 -0.0103 -0.5982  0.6844
  724MOL0     C95445  -0.169   2.299  10.760  0.1441  0.6844  0.4356
  724MOL0     C95446  -0.321   2.319  10.714  0.6750 -0.3875 -0.4990
  724MOL0     C95447  -0.412   2.401  10.811 -0.3666 -0.3917 -0.1219
  724MOL0     C95448  -0.487   2.316  10.919  0.2784 -0.6009  0.3268
  724MOL0     C95449  -0.566   2.392  11.030 -0.2567 -0.9750  0.4461
  724MOL0     C95450  -0.673   2.314  11.120 -0.9195 -0.2452  0.6593
  724MOL0     C95451  -0.753   2.418  11.216 -0.1545  0.1454  0.6833
  724MOL0     C95452  -0.652   2.480  11.305  0.3174 -0.5987 -0.3536
  724MOL0     N95453  -0.719   2.578  11.396 -0.3390  0.0378  0.1603
  724MOL0     C95454  -0.735   2.717  11.367  0.6954 -0.0395  0.2796
  724MOL0     C95455  -0.798   2.758  11.478 -0.4917 -0.6548 -0.0883
  724MOL0     C95456  -0.837   2.905  11.491  0.7145 -0.3729 -1.0688
  724MOL0     C95457  -0.967   2.943  11.422  0.0559 -0.1675  0.2195
  724MOL0     C95458  -1.086   2.847  11.453  0.3688  0.2406 -0.8069
  724MOL0     C95459  -1.153   2.869  11.595 -0.4496 -0.3114  0.7109
  724MOL0     O95460  -1.231   2.984  11.614 -0.6671  0.0122  0.2892
  724MOL0     C95461  -1.320   3.013  11.519  0.2715  0.4461  0.1680
  724MOL0     C95462  -1.328   3.148  11.487 -0.2150  0.6055  0.1993
  724MOL0     C95463  -1.434   3.204  11.414 -0.0927 -0.5450 -0.2215
  724MOL0     C95464  -1.534   3.117  11.363  0.0214  0.0470 -0.0454
  724MOL0     C95465  -1.643   3.160  11.288 -0.1535 -0.1758  1.1066
  724MOL0     O95466  -1.683   3.290  11.311 -0.1404 -0.2220  0.2790
  724MOL0     C95467  -1.802   3.350  11.266 -0.7180  0.2192 -0.2637
  724MOL0     C95468  -1.859   3.450  11.347 -0.4017  0.6199 -0.1672
  724MOL0     C95469  -1.973   3.524  11.311  0.0894 -0.3586  0.0164
  724MOL0     C95470  -2.039   3.493  11.198 -0.3892  0.1313  0.1813
  724MOL0     O95471  -2.157   3.555  11.164 -0.1391  0.9158 -0.2615
  724MOL0     C95472  -2.159   3.661  11.067  0.3852  0.4809  0.5291
  724MOL0     C95473  -2.295   3.731  11.069 -0.2628 -0.2380  0.5708
  724MOL0     C95474  -2.326   3.789  11.210  0.0420  0.4366  0.7496
  724MOL0     C95475  -2.232   3.900  11.247  0.2944  0.2954  0.2362
  724MOL0     C95476  -2.286   3.973  11.367  0.0714 -0.1646  0.4402
  724MOL0     C95477  -2.317   3.871  11.481  0.1506  0.1277 -0.5017
  724MOL0     C95478  -2.326   3.942  11.615  0.0981 -0.5923 -0.0338
  724MOL0     C95479  -2.356   3.849  11.739 -0.3143  0.8140 -0.2457
  724MOL0    Cl95480  -2.340   3.935  11.893  0.2968  0.2085  0.0365
  724MOL0     C95481  -1.981   3.394  11.114 -0.0176  1.0270  0.0645
  724MOL0     C95482  -1.874   3.310  11.155  0.1920 -0.2934  0.6378
  724MOL0     O95483  -1.708   3.078  11.217 -0.9414 -0.6105 -0.3319
  724MOL0     C95484  -1.524   2.977  11.398  0.3423 -0.0141  0.2249
  724MOL0     C95485  -1.423   2.922  11.476 -0.6167 -0.2492  0.8286
  724MOL0     N95486  -0.814   2.663  11.575 -0.3764  0.8767  0.3293
  724MOL0     N95487  -0.768   2.554  11.525 -0.2628  0.3416 -0.0514
  724MOL0     C95488   0.094   2.542  10.776  0.2643 -0.5742 -0.4144
  724MOL0     C95489   0.229   2.556  10.757 -0.4676  0.1617  0.4706
  724MOL0     C95490   0.672   2.461  10.775 -0.1414 -0.2418  1.0421
  724MOL0     C95491   0.723   2.482  10.640  0.3035  0.0646  0.7463
  724MOL0     C95492   0.856   2.500  10.623  0.4219  0.0385 -0.7793
  724MOL0     C95493   0.945   2.509  10.725 -0.7459  0.0795 -0.6679
  724MOL0     O95494   1.086   2.504  10.704 -0.4070 -0.3096 -0.5242
  724MOL0     C95495   1.131   2.616  10.626  0.7694  0.5275 -0.3290
  724MOL0     C95496   1.172   2.734  10.717 -0.6513  1.1421 -1.2395
  724MOL0     C95497   1.277   2.693  10.816  0.7695 -0.1996  0.4126
  724MOL0     C95498   1.419   2.745  10.775 -0.3092 -0.5479  0.3420
  724MOL0     C95499   1.485   2.641  10.687 -0.0610 -0.1967 -0.0282
  724MOL0     C95500   1.538   2.549  10.626 -0.1383 -0.0405 -0.2384
  724MOL0     C95501   0.904   2.492  10.851  0.3165 -0.2833  0.3892
  724MOL0     C95502   0.772   2.462  10.878 -0.5352 -0.1964  0.8493
  724MOL0     H95503   0.311   2.226  10.715 -1.1248 -0.4862 -1.4057
  724MOL0     H95504   0.076   2.199  10.752 -0.4365 -0.4627 -0.9114
  724MOL0     H95505  -0.156   2.248  10.856  2.8886  0.1175 -0.1449
  724MOL0     H95506  -0.109   2.244  10.687  2.4549  1.8042  1.3827
  724MOL0     H95507  -0.365   2.223  10.687 -2.4814  0.9111 -0.4744
  724MOL0     H95508  -0.317   2.385  10.627 -0.6277  3.3145  1.9757
  724MOL0     H95509  -0.473   2.454  10.737  1.8403 -2.5513 -3.8085
  724MOL0     H95510  -0.356   2.477  10.867  0.5883 -0.8558 -0.4370
  724MOL0     H95511  -0.560   2.261  10.859  1.8559  0.1035 -2.3797
  724MOL0     H95512  -0.416   2.245  10.962  0.2775 -0.3634  0.7280
  724MOL0     H95513  -0.625   2.468  10.977  1.5752  0.1155 -0.1387
  724MOL0     H95514  -0.489   2.444  11.088  0.2183  0.9438 -1.7381
  724MOL0     H95515  -0.617   2.239  11.177 -1.0380 -0.2406  0.7816
  724MOL0     H95516  -0.751   2.259  11.066 -0.1271 -1.8230  1.0480
  724MOL0     H95517  -0.808   2.492  11.157 -1.4524  0.4786  2.2603
  724MOL0     H95518  -0.831   2.371  11.276 -1.9693  1.0637 -0.8444
  724MOL0     H95519  -0.583   2.539  11.245 -1.8162  2.0944 -0.3671
  724MOL0     H95520  -0.603   2.406  11.369 -0.1633 -0.6096  0.0030
  724MOL0     H95521  -0.708   2.776  11.279  1.9914 -1.1686 -0.1103
  724MOL0     H95522  -0.747   2.963  11.470  0.1700  0.8310 -0.1517
  724MOL0     H95523  -0.862   2.923  11.596  1.0910 -4.3821 -0.1245
  724MOL0     H95524  -0.946   2.947  11.314  2.7959  0.3320  0.6951
  724MOL0     H95525  -1.001   3.046  11.440 -0.6720 -0.6499  1.7193
  724MOL0     H95526  -1.159   2.855  11.372  1.2504  0.4292 -1.5942
  724MOL0     H95527  -1.051   2.744  11.446 -2.1093 -0.6305 -1.6846
  724MOL0     H95528  -1.083   2.851  11.677 -2.3608 -0.4350  2.3938
  724MOL0     H95529  -1.219   2.784  11.611  0.2522 -0.7626  1.2957
  724MOL0     H95530  -1.258   3.219  11.529 -0.8283  1.2507  0.1342
  724MOL0     H95531  -1.437   3.311  11.397  1.0484  0.0043  2.4505
  724MOL0     H95532  -1.824   3.467  11.448 -0.9603  2.2069 -0.2176
  724MOL0     H95533  -2.029   3.595  11.370 -2.1556 -1.9439 -0.1023
  724MOL0     H95534  -2.134   3.625  10.967  0.1584  0.4718  0.4765
  724MOL0     H95535  -2.086   3.741  11.079  2.9425 -1.9345  2.4223
  724MOL0     H95536  -2.370   3.653  11.051  0.2560 -0.4023 -1.0102
  724MOL0     H95537  -2.312   3.806  10.992  0.9957  0.1316  0.6393
  724MOL0     H95538  -2.324   3.700  11.273 -1.7815 -1.1181 -1.2166
  724MOL0     H95539  -2.430   3.823  11.203  0.2857  1.0115 -0.3376
  724MOL0     H95540  -2.139   3.850  11.278 -0.3051  0.6673  2.9176
  724MOL0     H95541  -2.221   3.968  11.163  0.4419  1.7483  1.3867
  724MOL0     H95542  -2.380   4.024  11.339 -0.4998 -0.7424  1.2763
  724MOL0     H95543  -2.221   4.052  11.405 -2.2054  2.2945 -0.4486
  724MOL0     H95544  -2.240   3.794  11.481  1.5106  1.4334  0.5936
  724MOL0     H95545  -2.417   3.835  11.453 -0.0422  0.4682 -0.2755
  724MOL0     H95546  -2.226   3.984  11.622  0.4564 -1.5932  1.2679
  724MOL0     H95547  -2.399   4.023  11.615 -0.8941 -1.4588  0.0308
  724MOL0     H95548  -2.279   3.772  11.736  0.8291  1.7017  2.5897
  724MOL0     H95549  -2.450   3.794  11.737 -0.0283  0.3261 -0.3486
  724MOL0     H95550  -2.048   3.360  11.036  1.8421 -2.9351 -0.1020
  724MOL0     H95551  -1.853   3.216  11.107 -3.3800 -1.1664  0.5036
  724MOL0     H95552  -1.603   2.907  11.371  1.3168 -0.7356 -0.8723
  724MOL0     H95553  -1.429   2.817  11.502 -0.3717 -1.0368 -1.8910
  724MOL0     H95554   0.029   2.629  10.784  1.4305  0.1080  3.8531
  724MOL0     H95555   0.275   2.654  10.755  2.1460 -0.8640 -3.9809
  724MOL0     H95556   0.652   2.473  10.558  2.0721  0.8885 -0.9437
  724MOL0     H95557   0.902   2.498  10.525  0.5438 -0.0280 -0.7199
  724MOL0     H95558   1.047   2.645  10.562 -0.1444  0.9703  1.0265
  724MOL0     H95559   1.217   2.578  10.571  1.3122 -0.4428  1.1260
  724MOL0     H95560   1.205   2.826  10.667  2.7369  1.1501  0.7293
  724MOL0     H95561   1.073   2.744  10.763 -1.5146 -1.5126 -2.3404
  724MOL0     H95562   1.298   2.586  10.822  2.4962  0.1759  2.0459
  724MOL0     H95563   1.243   2.731  10.912 -2.9755  2.4148 -1.6936
  724MOL0     H95564   1.405   2.841  10.723  3.5584  0.6193  1.1789
  724MOL0     H95565   1.489   2.770  10.854  0.7785  2.0272 -1.3018
  724MOL0     H95566   1.593   2.465  10.587 -1.3234 -1.0479  0.1902
  724MOL0     H95567   0.971   2.516  10.934  0.0674  1.2191  0.1910
  724MOL0     H95568   0.735   2.458  10.979 -0.0583 -0.0956  1.0322
  725MOL0     O95569   7.359   1.461   8.444  0.9184 -1.0822  0.1669
  725MOL0     C95570   7.382   1.423   8.562 -0.7131 -0.3568  0.2908
  725MOL0     O95571   7.287   1.384   8.650  0.3132 -0.8144 -0.5381
  725MOL0     C95572   7.155   1.396   8.615 -0.2334  0.3137  0.1534
  725MOL0     C95573   7.096   1.524   8.589  0.5677 -0.0163  0.8049
  725MOL0     C95574   6.959   1.537   8.553  0.7051 -0.2143  0.5378
  725MOL0     C95575   6.886   1.416   8.526 -0.5385  0.0711 -0.0135
  725MOL0     O95576   6.764   1.412   8.477 -0.6951 -0.1780  0.5371
  725MOL0     C95577   6.697   1.530   8.450  0.2030 -1.1424  0.1263
  725MOL0     C95578   6.561   1.493   8.387  0.5071  0.6990  0.2467
  725MOL0     C95579   6.516   1.600   8.300 -0.3335  0.4075  0.1274
  725MOL0     C95580   6.376   1.609   8.264  1.2394 -0.3461 -0.1236
  725MOL0     C95581   6.288   1.487   8.240 -0.5056 -0.0923  0.7695
  725MOL0     C95582   6.136   1.518   8.222 -0.0557 -0.3157  0.2044
  725MOL0     C95583   6.053   1.458   8.333  0.1245 -0.2558 -0.2072
  725MOL0     C95584   5.907   1.490   8.326  0.1493  0.1876  0.4951
  725MOL0     N95585   5.895   1.624   8.392 -0.5086  0.5399 -0.0426
  725MOL0     C95586   5.895   1.640   8.526  0.0344  0.4263 -0.0373
  725MOL0     C95587   5.860   1.774   8.538  0.1066 -0.4847  0.0742
  725MOL0     C95588   5.861   1.857   8.651  0.1254  0.7370 -0.6417
  725MOL0     C95589   6.007   1.894   8.678  0.1304 -0.2223 -0.5821
  725MOL0     C95590   6.086   1.992   8.576  0.4370  0.0257 -0.5482
  725MOL0     C95591   6.126   1.924   8.449  0.1469  0.5450 -0.2483
  725MOL0     O95592   6.247   1.988   8.404  0.3870  0.0012 -0.0575
  725MOL0     C95593   6.371   1.975   8.452 -0.4438 -0.2165  0.4139
  725MOL0     C95594   6.469   2.038   8.376 -0.8628 -0.0243 -0.5034
  725MOL0     C95595   6.605   2.044   8.404  0.4905 -0.7501  0.4204
  725MOL0     C95596   6.652   1.965   8.511 -0.3222  0.9466  0.5508
  725MOL0     C95597   6.797   1.957   8.538  0.5306  0.4482 -0.1033
  725MOL0     O95598   6.871   1.976   8.425 -0.1867  0.4599 -0.3897
  725MOL0     C95599   7.003   1.950   8.443  1.5027  1.0751  0.0849
  725MOL0     C95600   7.065   1.844   8.402 -0.3213  0.5393 -0.2019
  725MOL0     C95601   7.198   1.816   8.423 -0.0971  0.1143 -0.2319
  725MOL0     C95602   7.271   1.899   8.504  0.7247 -0.5801  0.2560
  725MOL0     O95603   7.398   1.886   8.556  0.6074  0.4711  0.0942
  725MOL0     C95604   7.467   1.761   8.532 -0.4439 -0.4260 -0.6034
  725MOL0     C95605   7.617   1.788   8.561 -0.5854  1.1191  0.3923
  725MOL0     C95606   7.653   1.817   8.703 -0.2182  0.1446  0.6437
  725MOL0     C95607   7.811   1.813   8.730 -0.1689  0.0271  0.1459
  725MOL0     C95608   7.856   1.797   8.875  0.9559  0.6738 -0.4176
  725MOL0     C95609   8.002   1.835   8.905  0.2140  0.3402  0.4301
  725MOL0     C95610   8.045   1.824   9.053 -0.4106  0.0064  0.1479
  725MOL0     C95611   8.195   1.819   9.063  0.6389 -0.7491 -0.3216
  725MOL0    Cl95612   8.231   1.855   9.232  0.0527  0.2320 -0.2477
  725MOL0     C95613   7.217   2.025   8.543  0.2259  0.5103  0.5420
  725MOL0     C95614   7.079   2.058   8.505 -0.0285  0.3804 -0.1432
  725MOL0     O95615   6.841   1.924   8.649 -0.1104 -0.0638  0.5872
  725MOL0     C95616   6.556   1.896   8.590  0.7649 -1.1677 -0.8642
  725MOL0     C95617   6.418   1.904   8.558 -0.3306 -0.0660 -0.3697
  725MOL0     N95618   5.823   1.822   8.416 -0.7735 -0.7232  0.4586
  725MOL0     N95619   5.849   1.739   8.328 -0.7782  0.4311  0.6784
  725MOL0     C95620   6.949   1.285   8.562 -0.0553  0.0429 -0.1586
  725MOL0     C95621   7.076   1.287   8.612 -0.0465 -0.6322  0.7508
  725MOL0     C95622   7.522   1.432   8.607  0.2284  0.4139  0.9335
  725MOL0     C95623   7.552   1.437   8.741  0.0913 -1.3338  0.1232
  725MOL0     C95624   7.685   1.440   8.787 -0.3756 -0.2991  0.5674
  725MOL0     C95625   7.794   1.446   8.705  0.5924 -0.6724  0.5639
  725MOL0     O95626   7.918   1.445   8.758 -0.2353 -0.0938 -0.0755
  725MOL0     C95627   8.033   1.459   8.675  0.3950  0.4906  0.5220
  725MOL0     C95628   8.158   1.483   8.750  0.9684 -0.4600  0.1009
  725MOL0     C95629   8.285   1.468   8.663 -0.0996 -0.8941 -0.2055
  725MOL0     C95630   8.332   1.589   8.584  0.1220  0.2695 -0.5407
  725MOL0     C95631   8.421   1.551   8.469  0.3839  0.3639  0.6868
  725MOL0     C95632   8.512   1.522   8.396 -0.7043 -0.2155 -0.3612
  725MOL0     C95633   7.765   1.435   8.565  0.3055 -0.6002 -1.1150
  725MOL0     C95634   7.633   1.426   8.517  0.9180  0.3967  0.5992
  725MOL0     H95635   7.137   1.620   8.618  2.2358  0.3734 -2.3290
  725MOL0     H95636   6.918   1.633   8.525 -0.2115 -1.1176 -1.3912
  725MOL0     H95637   6.744   1.593   8.375 -2.3724 -0.4016 -0.9739
  725MOL0     H95638   6.680   1.592   8.539 -0.5880 -1.0113 -0.1127
  725MOL0     H95639   6.485   1.474   8.464  0.3455 -1.1281 -0.3302
  725MOL0     H95640   6.584   1.403   8.330  0.8945  3.4232 -4.4935
  725MOL0     H95641   6.580   1.578   8.214  0.5484  1.9120  0.3466
  725MOL0     H95642   6.549   1.696   8.343 -3.4091  2.5755 -1.9474
  725MOL0     H95643   6.334   1.667   8.346 -0.5588 -2.1635  0.3178
  725MOL0     H95644   6.372   1.675   8.176 -0.8429  0.8249  0.7784
  725MOL0     H95645   6.312   1.416   8.320  3.2633  0.3629  0.1871
  725MOL0     H95646   6.312   1.447   8.141 -3.5903 -0.2521 -0.0363
  725MOL0     H95647   6.089   1.472   8.135 -1.5709 -0.7627  1.2152
  725MOL0     H95648   6.128   1.627   8.228  0.3715 -0.3355  1.7739
  725MOL0     H95649   6.069   1.350   8.324  1.9912 -0.0156 -0.2026
  725MOL0     H95650   6.086   1.502   8.428 -0.4994 -2.3623  1.0465
  725MOL0     H95651   5.857   1.411   8.383 -0.1091 -0.6434 -0.8283
  725MOL0     H95652   5.880   1.494   8.220  0.1361  1.3674  0.5398
  725MOL0     H95653   5.927   1.563   8.594 -1.4436 -2.6365 -2.5591
  725MOL0     H95654   5.831   1.788   8.730  0.7220 -0.3197 -1.3095
  725MOL0     H95655   5.791   1.940   8.650  1.1692  1.8409  2.8861
  725MOL0     H95656   6.067   1.803   8.685 -2.7575 -2.1141  1.9364
  725MOL0     H95657   6.009   1.942   8.776  1.3883 -0.5384 -0.4428
  725MOL0     H95658   6.039   2.089   8.559 -2.1212 -0.6264  1.8466
  725MOL0     H95659   6.171   2.010   8.642 -0.9956 -1.3076  1.8130
  725MOL0     H95660   6.043   1.925   8.378  0.3452 -2.1333 -0.6095
  725MOL0     H95661   6.157   1.821   8.469  1.3000  0.5288 -1.9119
  725MOL0     H95662   6.434   2.095   8.290 -2.4584  0.1029  0.1796
  725MOL0     H95663   6.676   2.099   8.344 -1.3628  2.9148  1.2446
  725MOL0     H95664   7.011   1.765   8.349  0.5847 -1.1974  1.3488
  725MOL0     H95665   7.244   1.726   8.382  0.4472  0.8484 -1.2844
  725MOL0     H95666   7.457   1.723   8.430 -1.7034  0.0216 -0.6540
  725MOL0     H95667   7.439   1.675   8.594  2.0526 -0.5221  0.5359
  725MOL0     H95668   7.661   1.871   8.506  0.7013 -0.1829 -0.6207
  725MOL0     H95669   7.668   1.696   8.531 -0.6554  0.8807  0.9704
  725MOL0     H95670   7.608   1.749   8.776  2.4405 -0.0030  2.2787
  725MOL0     H95671   7.621   1.916   8.736  1.2774  0.3931  1.4306
  725MOL0     H95672   7.864   1.733   8.678  3.0681  0.9720  1.7311
  725MOL0     H95673   7.844   1.908   8.687  0.8747 -0.4567 -0.1582
  725MOL0     H95674   7.857   1.691   8.901  0.1699  0.8623  0.4628
  725MOL0     H95675   7.786   1.836   8.949  0.5540  0.6558 -0.7828
  725MOL0     H95676   8.026   1.936   8.870 -2.0121  0.5784 -0.5771
  725MOL0     H95677   8.064   1.778   8.837 -0.1315  1.7356 -1.1222
  725MOL0     H95678   8.003   1.907   9.110 -1.7101 -3.1665  4.3078
  725MOL0     H95679   8.009   1.733   9.101 -0.1258  0.3593  1.0405
  725MOL0     H95680   8.231   1.906   9.008 -2.9821  1.9600  1.1324
  725MOL0     H95681   8.235   1.720   9.037  1.2439 -0.2619 -1.3137
  725MOL0     H95682   7.273   2.101   8.597  0.4238 -0.1210  1.2395
  725MOL0     H95683   7.021   2.147   8.525 -0.5166  0.3865 -1.4877
  725MOL0     H95684   6.589   1.846   8.680 -1.0104  1.3608  1.3676
  725MOL0     H95685   6.353   1.840   8.618 -1.6434 -0.2931 -1.9675
  725MOL0     H95686   6.891   1.195   8.544 -2.6345  0.9381  2.7612
  725MOL0     H95687   7.112   1.193   8.653  0.8641 -1.3502 -1.5263
  725MOL0     H95688   7.463   1.429   8.802 -0.9707 -0.5468 -1.2391
  725MOL0     H95689   7.700   1.430   8.895  0.8722 -0.4388  0.3960
  725MOL0     H95690   8.023   1.554   8.621  0.5049  0.7424  0.9375
  725MOL0     H95691   8.047   1.370   8.612  1.0284  0.9989 -0.0696
  725MOL0     H95692   8.143   1.586   8.783 -2.9636 -1.4544  2.0700
  725MOL0     H95693   8.170   1.426   8.843 -1.1968 -0.9751  0.1188
  725MOL0     H95694   8.275   1.393   8.585  1.0531  1.4827 -2.7954
  725MOL0     H95695   8.361   1.432   8.733  2.4725  1.5413 -1.5715
  725MOL0     H95696   8.238   1.631   8.547 -0.1652 -0.9558 -1.2613
  725MOL0     H95697   8.388   1.660   8.646 -0.6146 -2.0376  3.1041
  725MOL0     H95698   8.584   1.521   8.316 -2.2141 -0.5525 -1.7625
  725MOL0     H95699   7.845   1.424   8.492  1.3914  0.2364 -0.1037
  725MOL0     H95700   7.618   1.404   8.412 -2.7047 -2.0520  1.4141
  726MOL0     O95701   9.260   7.717  10.844  0.6191  0.5868 -0.1671
  726MOL0     C95702   9.284   7.758  10.957  0.6759  0.7921 -1.3167
  726MOL0     O95703   9.216   7.716  11.070 -0.2495 -0.0910 -0.3597
  726MOL0     C95704   9.100   7.649  11.067  0.0235  0.8208  0.3979
  726MOL0     C95705   9.111   7.510  11.038 -0.2332  0.0106  0.5666
  726MOL0     C95706   8.991   7.430  11.036  0.3601  0.7994  0.4774
  726MOL0     C95707   8.859   7.494  11.038  0.1742  0.1675 -0.7607
  726MOL0     O95708   8.749   7.420  11.017  0.8119 -0.9523 -0.4391
  726MOL0     C95709   8.739   7.298  11.094  0.3071 -0.3139 -0.0347
  726MOL0     C95710   8.592   7.237  11.099 -0.2361  0.3527 -0.9310
  726MOL0     C95711   8.524   7.215  10.969 -0.5468 -0.8323  0.5374
  726MOL0     C95712   8.602   7.156  10.852 -0.6789  0.1601 -0.2435
  726MOL0     C95713   8.522   7.125  10.725  0.0864 -0.0070 -0.1780
  726MOL0     C95714   8.441   7.224  10.646 -0.6885  0.6216 -0.3164
  726MOL0     C95715   8.390   7.163  10.518 -0.2820  0.4237  0.6600
  726MOL0     C95716   8.503   7.126  10.416 -0.4426  0.2335  0.9718
  726MOL0     N95717   8.465   7.161  10.278 -0.3454  0.9926  0.3798
  726MOL0     C95718   8.391   7.078  10.201 -0.0063 -0.4860  0.4927
  726MOL0     C95719   8.375   7.140  10.083  0.9498 -0.0509 -0.2075
  726MOL0     C95720   8.293   7.088   9.964  0.4716  0.5855  0.8344
  726MOL0     C95721   8.181   7.189   9.925 -0.1127 -0.0502 -0.6995
  726MOL0     C95722   8.096   7.140   9.808  0.2274  0.6220  0.8148
  726MOL0     C95723   7.955   7.103   9.851  0.2267 -0.5932  0.3846
  726MOL0     O95724   7.888   7.002   9.763  0.1688 -0.0576 -0.8836
  726MOL0     C95725   7.745   6.993   9.777  0.5078 -0.6184 -0.5452
  726MOL0     C95726   7.664   7.069   9.860 -0.0181  1.1444  0.6961
  726MOL0     C95727   7.527   7.047   9.858 -0.4730  0.1586  0.7758
  726MOL0     C95728   7.468   6.961   9.770 -0.8084 -0.1978  0.4621
  726MOL0     C95729   7.323   6.941   9.763 -0.0407 -0.7461  0.2090
  726MOL0     O95730   7.247   7.055   9.797  0.6211  0.4946  0.6378
  726MOL0     C95731   7.118   7.058   9.741  0.5433 -0.7601 -0.8510
  726MOL0     C95732   7.092   7.039   9.610 -0.1077  0.6546 -0.0077
  726MOL0     C95733   6.961   7.028   9.561  0.4844 -0.1033  0.3256
  726MOL0     C95734   6.851   7.043   9.646  0.0477 -1.1433  0.3033
  726MOL0     O95735   6.727   7.015   9.599  0.4899  0.8377  0.0867
  726MOL0     C95736   6.693   6.878   9.579 -0.8281  0.4732 -0.2428
  726MOL0     C95737   6.572   6.876   9.478  0.3521  0.1341 -0.3412
  726MOL0     C95738   6.601   6.957   9.349  0.1815 -0.3976 -0.2197
  726MOL0     C95739   6.525   6.917   9.220 -0.0595 -0.4002 -0.2696
  726MOL0     C95740   6.613   6.913   9.094  0.1717  0.2666  0.2085
  726MOL0     C95741   6.711   6.793   9.096  0.3997  0.0999 -0.0048
  726MOL0     C95742   6.642   6.664   9.059 -0.2095  0.1551  0.8947
  726MOL0     C95743   6.761   6.580   9.017 -0.4102  0.0411 -0.4485
  726MOL0    Cl95744   6.725   6.409   8.993 -0.2012 -0.3393  0.2015
  726MOL0     C95745   6.876   7.070   9.783  0.5979  1.0248  0.8215
  726MOL0     C95746   7.008   7.074   9.823  0.3328  0.4788 -0.0273
  726MOL0     O95747   7.275   6.839   9.725 -0.5494  0.3489  0.6746
  726MOL0     C95748   7.552   6.892   9.678  0.3051 -0.6857  0.8164
  726MOL0     C95749   7.687   6.900   9.690 -0.2293 -0.7294 -0.3640
  726MOL0     N95750   8.452   7.252  10.089  0.1530 -0.5608  0.1477
  726MOL0     N95751   8.484   7.272  10.208  0.2447  0.3245 -0.3626
  726MOL0     C95752   8.856   7.629  11.070  0.1232  0.2040 -0.0055
  726MOL0     C95753   8.974   7.703  11.081  0.6085  0.2565  0.4389
  726MOL0     C95754   9.396   7.852  10.968  0.2749 -0.3387 -0.6272
  726MOL0     C95755   9.493   7.848  10.869  0.2915 -0.2442  0.0852
  726MOL0     C95756   9.607   7.935  10.864  0.4442  0.6907 -0.4901
  726MOL0     C95757   9.629   8.024  10.959  0.9918 -0.3572  0.3765
  726MOL0     O95758   9.742   8.099  10.981 -0.6456  0.3347  0.4094
  726MOL0     C95759   9.841   8.078  10.879 -0.8076 -0.0596  0.1189
  726MOL0     C95760   9.964   8.165  10.921 -0.3791 -0.3957 -0.0810
  726MOL0     C95761  10.072   8.178  10.810  0.0250  0.0262 -0.4987
  726MOL0     C95762  10.145   8.055  10.791  0.2902  0.6899 -0.0074
  726MOL0     C95763  10.230   8.007  10.906  0.2766  0.0400  0.4439
  726MOL0     C95764  10.286   7.963  11.002 -0.0965 -0.2615 -0.1342
  726MOL0     C95765   9.532   8.023  11.067 -0.1227  0.3443  0.4452
  726MOL0     C95766   9.416   7.941  11.070 -0.2081  0.1775  0.0076
  726MOL0     H95767   9.201   7.458  11.007 -1.9551 -1.9041 -1.5052
  726MOL0     H95768   9.000   7.326  11.006 -1.6203 -0.5666  3.9578
  726MOL0     H95769   8.755   7.329  11.198  3.2976 -1.7576  0.0405
  726MOL0     H95770   8.818   7.226  11.073  1.6478  0.9276  0.5233
  726MOL0     H95771   8.515   7.288  11.158 -0.4318  0.8332 -1.5927
  726MOL0     H95772   8.595   7.142  11.153 -2.7766  0.7667  0.0960
  726MOL0     H95773   8.506   7.317  10.933  1.2501 -1.2221 -1.6978
  726MOL0     H95774   8.433   7.156  10.983 -0.5063 -0.6483  1.6857
  726MOL0     H95775   8.682   7.224  10.819 -0.8396  1.6392  2.1293
  726MOL0     H95776   8.643   7.064  10.894 -0.2657  0.8386  0.9145
  726MOL0     H95777   8.443   7.054  10.750 -1.8624  2.1802  0.2698
  726MOL0     H95778   8.590   7.067  10.662  1.8901  2.4019 -0.6023
  726MOL0     H95779   8.493   7.319  10.630 -2.7982  1.7193 -1.0940
  726MOL0     H95780   8.347   7.241  10.699 -1.3760 -1.6291 -0.7016
  726MOL0     H95781   8.327   7.075  10.534 -1.6140  1.3174  0.4985
  726MOL0     H95782   8.332   7.243  10.472 -2.2656  0.5755  3.2039
  726MOL0     H95783   8.522   7.018  10.424 -0.3465  0.2734  1.3136
  726MOL0     H95784   8.602   7.173  10.423  2.2283 -3.4724 -4.5956
  726MOL0     H95785   8.364   6.975  10.218  0.3811 -0.6447  0.1454
  726MOL0     H95786   8.236   6.999   9.995  0.2167 -0.6022 -2.5862
  726MOL0     H95787   8.356   7.064   9.879 -0.4257 -2.6412  0.9367
  726MOL0     H95788   8.236   7.277   9.893 -1.0968  0.7850 -0.1734
  726MOL0     H95789   8.118   7.221  10.009 -1.1660 -1.3579 -0.9435
  726MOL0     H95790   8.099   7.207   9.721 -3.8853 -0.4576 -0.3973
  726MOL0     H95791   8.145   7.048   9.774  0.0529  0.3584  1.2693
  726MOL0     H95792   7.899   7.197   9.845  1.8816  0.4072  0.0419
  726MOL0     H95793   7.958   7.075   9.956  1.2958  1.5031  0.9710
  726MOL0     H95794   7.698   7.140   9.934  1.4909  2.6701 -1.3606
  726MOL0     H95795   7.471   7.088   9.942  0.6112  1.6635  0.8018
  726MOL0     H95796   7.177   7.030   9.543 -1.1127  0.3751 -1.2873
  726MOL0     H95797   6.958   7.015   9.453  0.8403 -2.8701  0.5749
  726MOL0     H95798   6.665   6.837   9.677 -0.5517  2.8979  0.9353
  726MOL0     H95799   6.780   6.821   9.545 -0.1548  0.2643  1.7027
  726MOL0     H95800   6.486   6.927   9.522 -1.0620  1.0944 -3.8337
  726MOL0     H95801   6.543   6.773   9.453  0.6181  0.5539 -2.6237
  726MOL0     H95802   6.706   6.961   9.318 -0.4614  3.5444 -2.5008
  726MOL0     H95803   6.580   7.062   9.368  0.3463 -0.7590  2.2569
  726MOL0     H95804   6.477   6.823   9.248 -0.1322  0.0172  1.0586
  726MOL0     H95805   6.448   6.993   9.206 -0.7570 -0.3741  3.0626
  726MOL0     H95806   6.659   7.009   9.068  3.1307 -1.0909 -0.0130
  726MOL0     H95807   6.547   6.902   9.008  0.4514 -0.9809  0.1323
  726MOL0     H95808   6.749   6.779   9.198 -2.0467  1.1462  1.1411
  726MOL0     H95809   6.792   6.823   9.029 -1.7933  2.5246 -1.7892
  726MOL0     H95810   6.599   6.612   9.146  1.0896 -2.7420 -0.0807
  726MOL0     H95811   6.583   6.686   8.970  3.2573  1.4610 -1.2533
  726MOL0     H95812   6.845   6.596   9.085  2.4264  3.1315 -4.1672
  726MOL0     H95813   6.797   6.620   8.921 -1.1306  1.0731 -0.2996
  726MOL0     H95814   6.795   7.096   9.850  1.4214  0.8058  1.9352
  726MOL0     H95815   7.032   7.091   9.928  3.6212 -3.2565  0.0739
  726MOL0     H95816   7.513   6.825   9.601  1.2585 -2.3310  1.7091
  726MOL0     H95817   7.746   6.857   9.610  2.5148  1.1793  0.4640
  726MOL0     H95818   8.765   7.687  11.080 -0.3854 -0.4373 -0.8221
  726MOL0     H95819   8.964   7.810  11.097 -1.1092 -0.1236  2.2930
  726MOL0     H95820   9.479   7.786  10.781  0.2337  3.6854 -2.9876
  726MOL0     H95821   9.681   7.921  10.786 -1.7740  0.5039 -2.6550
  726MOL0     H95822   9.802   8.111  10.782 -1.6755 -0.0765  0.4551
  726MOL0     H95823   9.870   7.973  10.871 -2.8603 -0.6141 -0.5995
  726MOL0     H95824   9.916   8.261  10.940 -1.2409 -0.7394 -0.4895
  726MOL0     H95825  10.001   8.116  11.012  4.2784 -2.2267 -2.6315
  726MOL0     H95826  10.146   8.253  10.838  0.4013 -0.0425 -1.2960
  726MOL0     H95827  10.023   8.213  10.719  0.1113 -1.5591 -1.1962
  726MOL0     H95828  10.071   7.993  10.740  0.1827  1.7000 -1.1199
  726MOL0     H95829  10.219   8.075  10.712 -1.6190  1.8089 -1.6027
  726MOL0     H95830  10.324   7.924  11.095 -1.6693 -0.1691  0.5879
  726MOL0     H95831   9.568   8.089  11.146  1.9743  2.9339 -2.4312
  726MOL0     H95832   9.354   7.954  11.158 -1.7638  0.9305 -1.1530
  727MOL0     O95833   2.323   3.950   0.534  0.6072 -0.0541 -0.4322
  727MOL0     C95834   2.332   4.011   0.431 -0.4641 -0.0514  0.5160
  727MOL0     O95835   2.230   4.062   0.357  0.2346 -0.0378 -0.2356
  727MOL0     C95836   2.102   4.031   0.391  0.4545 -0.1904  0.0352
  727MOL0     C95837   2.046   4.052   0.520 -0.5505 -0.2152  0.5658
  727MOL0     C95838   1.910   4.036   0.552  0.7833 -0.2135  0.6334
  727MOL0     C95839   1.811   4.007   0.452 -0.1025 -0.5846  0.6418
  727MOL0     O95840   1.674   3.992   0.485 -0.5314 -0.6061  0.2605
  727MOL0     C95841   1.623   3.881   0.415 -0.0525  0.7274 -0.0164
  727MOL0     C95842   1.510   3.935   0.321 -0.2007  0.2409 -0.0124
  727MOL0     C95843   1.424   4.047   0.381 -0.5251  0.0376 -0.3678
  727MOL0     C95844   1.319   4.092   0.284  0.2846  0.6861 -0.3883
  727MOL0     C95845   1.202   4.155   0.358 -0.1712 -0.3576  0.7329
  727MOL0     C95846   1.216   4.293   0.425  0.0634  0.6359 -0.4807
  727MOL0     C95847   1.271   4.410   0.344 -0.0945 -0.4038 -0.0131
  727MOL0     C95848   1.305   4.534   0.429 -0.6184  0.9897  0.5375
  727MOL0     N95849   1.217   4.566   0.534  0.4671 -0.1855 -0.4770
  727MOL0     C95850   1.084   4.612   0.525  0.5256  0.0361 -0.1787
  727MOL0     C95851   1.029   4.575   0.642  0.1567 -0.0435 -0.2692
  727MOL0     C95852   0.886   4.586   0.688 -0.4842 -0.0789 -0.8196
  727MOL0     C95853   0.779   4.576   0.581  0.2047  0.1550 -0.9061
  727MOL0     C95854   0.748   4.710   0.517 -0.5611  0.0200 -0.2188
  727MOL0     C95855   0.633   4.714   0.418 -0.7956  0.4549  0.4454
  727MOL0     O95856   0.519   4.684   0.481  0.0456  0.4122  0.1331
  727MOL0     C95857   0.407   4.713   0.402  1.0990 -0.0401 -0.7649
  727MOL0     C95858   0.287   4.715   0.477  0.1485  0.3674  0.1809
  727MOL0     C95859   0.161   4.721   0.412  0.3821  0.5786  0.0682
  727MOL0     C95860   0.152   4.739   0.271 -0.4278 -0.1042 -0.0912
  727MOL0     C95861   0.017   4.774   0.211  0.4344  0.6709  0.5276
  727MOL0     O95862  -0.096   4.754   0.278  0.2411 -0.3386 -1.1003
  727MOL0     C95863  -0.218   4.773   0.222 -0.4736 -0.0195  0.1124
  727MOL0     C95864  -0.327   4.790   0.310 -0.6810  0.1985  0.0274
  727MOL0     C95865  -0.458   4.796   0.266  1.1337  0.4793 -0.5355
  727MOL0     C95866  -0.493   4.776   0.132  0.7179  0.0437 -0.1628
  727MOL0     O95867  -0.622   4.780   0.083 -0.6087  0.0408  0.5779
  727MOL0     C95868  -0.650   4.800  -0.058  0.2407  1.5222 -0.2334
  727MOL0     C95869  -0.804   4.789  -0.094 -0.3880  0.2864 -0.4989
  727MOL0     C95870  -0.913   4.849   0.005 -1.0016 -0.2161 -0.2454
  727MOL0     C95871  -0.962   4.978  -0.044  0.2283  0.3148 -0.2558
  727MOL0     C95872  -1.075   5.027   0.053  0.2082 -0.2355  0.3296
  727MOL0     C95873  -1.205   4.945   0.055  0.1784  0.2769 -0.6673
  727MOL0     C95874  -1.299   5.023   0.138  0.8928 -0.1094  0.2708
  727MOL0     C95875  -1.427   4.944   0.152  0.0995  0.2011  0.3277
  727MOL0    Cl95876  -1.547   5.034   0.265  0.0845  0.3228  0.4262
  727MOL0     C95877  -0.385   4.768   0.035 -0.2812 -0.5062 -0.4857
  727MOL0     C95878  -0.250   4.755   0.084  0.8074  0.9194  1.2253
  727MOL0     O95879   0.029   4.840   0.108  0.0385  0.1607  0.4682
  727MOL0     C95880   0.275   4.728   0.196 -0.6673 -0.9638  0.7688
  727MOL0     C95881   0.397   4.714   0.256  0.0662 -1.7349  0.7258
  727MOL0     N95882   1.131   4.525   0.718 -0.5747 -0.4446  0.8298
  727MOL0     N95883   1.238   4.510   0.654  0.5376 -0.3796  0.1082
  727MOL0     C95884   1.864   3.997   0.316 -0.7732  0.0909  0.9698
  727MOL0     C95885   2.006   4.007   0.288 -0.5982  0.0011  0.3347
  727MOL0     C95886   2.463   4.059   0.403  1.2870  0.1244  0.5372
  727MOL0     C95887   2.573   4.000   0.466  0.2318 -0.2025  0.5460
  727MOL0     C95888   2.704   4.039   0.441 -0.4296  0.4736 -0.4394
  727MOL0     C95889   2.735   4.137   0.355  0.8695 -0.4388 -0.2531
  727MOL0     O95890   2.870   4.162   0.339 -0.0123 -0.1859 -0.1821
  727MOL0     C95891   2.903   4.269   0.241  0.4276 -0.9224 -0.0071
  727MOL0     C95892   3.043   4.283   0.203 -0.4038  0.3543 -0.1204
  727MOL0     C95893   3.062   4.385   0.102 -0.7985 -0.9658  0.8848
  727MOL0     C95894   3.206   4.409   0.057  0.4528 -0.1971  0.8018
  727MOL0     C95895   3.210   4.511  -0.052 -0.3668 -0.0081 -0.0790
  727MOL0     C95896   3.224   4.589  -0.143 -0.7409  0.5617  0.2316
  727MOL0     C95897   2.632   4.200   0.292  1.1912  0.6392  0.1983
  727MOL0     C95898   2.496   4.160   0.311 -0.0368  0.9009  0.1688
  727MOL0     H95899   2.111   4.094   0.596  0.9234  1.7027 -1.6389
  727MOL0     H95900   1.867   4.051   0.651 -1.6389 -2.6720  0.0473
  727MOL0     H95901   1.590   3.811   0.491  1.4620  0.1997  0.1956
  727MOL0     H95902   1.692   3.820   0.356 -0.0553 -0.9082  1.5914
  727MOL0     H95903   1.447   3.865   0.264  2.0588 -0.4202 -1.8697
  727MOL0     H95904   1.571   3.979   0.241 -0.0395 -0.2117 -0.1416
  727MOL0     H95905   1.480   4.139   0.399  1.9559 -0.7777 -3.0681
  727MOL0     H95906   1.381   4.023   0.479  0.1446  1.2210  0.2427
  727MOL0     H95907   1.368   4.154   0.208 -2.5224  2.4546 -0.8595
  727MOL0     H95908   1.284   4.001   0.234  4.4562 -2.0227  1.0704
  727MOL0     H95909   1.175   4.091   0.443  0.5022 -0.0426  1.1896
  727MOL0     H95910   1.120   4.162   0.287  0.3190  1.7756  0.3284
  727MOL0     H95911   1.278   4.265   0.511 -1.6320 -1.1432  0.2535
  727MOL0     H95912   1.119   4.328   0.462 -0.0094  2.3172 -2.1229
  727MOL0     H95913   1.364   4.373   0.300 -1.1125 -2.2432 -0.7379
  727MOL0     H95914   1.187   4.432   0.277 -0.8048 -3.0193 -0.1080
  727MOL0     H95915   1.291   4.612   0.354 -2.2313 -0.4795 -0.7949
  727MOL0     H95916   1.402   4.531   0.478 -1.0815  1.2938  1.4839
  727MOL0     H95917   1.040   4.663   0.439 -0.5008  0.4260  0.5558
  727MOL0     H95918   0.876   4.685   0.733  1.3534  0.0639 -0.6471
  727MOL0     H95919   0.866   4.512   0.767 -0.5588 -0.6388 -1.3570
  727MOL0     H95920   0.687   4.552   0.635  2.2912 -0.1913  2.8205
  727MOL0     H95921   0.804   4.498   0.508 -1.6339 -0.0767 -1.3417
  727MOL0     H95922   0.744   4.788   0.593  2.1743  2.9095 -2.7699
  727MOL0     H95923   0.838   4.757   0.477 -1.3439  0.4869 -1.4708
  727MOL0     H95924   0.651   4.640   0.339  1.3152 -1.7582  2.8285
  727MOL0     H95925   0.631   4.813   0.371 -4.1592 -1.0140 -3.0654
  727MOL0     H95926   0.292   4.709   0.586  0.7690  1.1815  0.2076
  727MOL0     H95927   0.065   4.716   0.464 -0.4511 -0.6972 -1.4820
  727MOL0     H95928  -0.311   4.806   0.416  0.1072  2.7601 -0.4114
  727MOL0     H95929  -0.535   4.805   0.342  2.0624 -0.0178  0.5049
  727MOL0     H95930  -0.594   4.718  -0.104 -2.7826 -0.6540 -0.3177
  727MOL0     H95931  -0.612   4.892  -0.102  3.2999 -0.3172 -1.7368
  727MOL0     H95932  -0.835   4.684  -0.101 -2.6147  0.7322  1.3984
  727MOL0     H95933  -0.810   4.848  -0.186  5.0301 -0.0697 -1.3772
  727MOL0     H95934  -0.869   4.855   0.106  1.9720  0.6132 -1.4810
  727MOL0     H95935  -1.002   4.786   0.014 -2.0294  1.3143  0.8350
  727MOL0     H95936  -0.876   5.046  -0.042  1.2826 -0.9418  2.6091
  727MOL0     H95937  -0.982   4.979  -0.151 -1.0084 -0.6611 -0.0505
  727MOL0     H95938  -1.107   5.129   0.028 -3.4791 -0.7954  2.0934
  727MOL0     H95939  -1.017   5.031   0.145  0.8351  3.2596 -0.0856
  727MOL0     H95940  -1.194   4.852   0.110 -3.0328  1.6476  2.6896
  727MOL0     H95941  -1.238   4.914  -0.045 -0.2025  0.8917 -0.7425
  727MOL0     H95942  -1.267   5.056   0.237  0.9660 -1.7232  0.8127
  727MOL0     H95943  -1.329   5.114   0.087  3.0218  0.8637  0.6698
  727MOL0     H95944  -1.408   4.845   0.195  0.1096 -0.4181 -1.0655
  727MOL0     H95945  -1.462   4.936   0.049  0.3750  1.9997  0.0709
  727MOL0     H95946  -0.396   4.761  -0.073 -5.1233 -1.0018 -0.1898
  727MOL0     H95947  -0.172   4.736   0.011  1.0433  1.7463  1.2528
  727MOL0     H95948   0.262   4.713   0.089  1.3203 -3.2319  0.7675
  727MOL0     H95949   0.483   4.707   0.190 -0.3585  1.3942 -0.3234
  727MOL0     H95950   1.796   3.982   0.233  0.4774  0.7749 -0.2157
  727MOL0     H95951   2.027   3.997   0.182 -0.2400 -1.2981  0.5115
  727MOL0     H95952   2.564   3.913   0.530  0.0351 -1.6194 -1.3476
  727MOL0     H95953   2.784   3.985   0.491  0.0355  0.9387 -0.6778
  727MOL0     H95954   2.871   4.366   0.281  1.4793  0.6414 -2.6662
  727MOL0     H95955   2.841   4.246   0.154 -2.0267 -4.6728  2.4808
  727MOL0     H95956   3.091   4.310   0.298 -0.1438 -2.3704  0.5950
  727MOL0     H95957   3.074   4.186   0.164  1.2330 -0.4581  2.8761
  727MOL0     H95958   3.012   4.478   0.130  0.5168  0.5935 -1.5944
  727MOL0     H95959   3.020   4.350   0.007 -1.3949 -2.0157  1.5109
  727MOL0     H95960   3.259   4.461   0.137 -1.1211 -1.1871  2.5684
  727MOL0     H95961   3.253   4.314   0.029  1.4197  0.3122  0.6233
  727MOL0     H95962   3.235   4.652  -0.229  0.6543  2.6216  1.8128
  727MOL0     H95963   2.651   4.283   0.224  0.6715  1.3098  0.8565
  727MOL0     H95964   2.415   4.204   0.252 -0.4337 -0.3036 -0.2035
  728MOL0     O95965   2.899   8.318   0.141 -0.4674 -0.1774 -0.9624
  728MOL0     C95966   2.911   8.229   0.058  0.4775  0.4416  0.4535
  728MOL0     O95967   2.829   8.121   0.048 -0.0970 -0.4994  0.3869
  728MOL0     C95968   2.699   8.115   0.098  0.8358 -0.2972 -0.2973
  728MOL0     C95969   2.613   8.042   0.017  0.3191  0.5297  0.1622
  728MOL0     C95970   2.480   8.027   0.050 -0.3048  0.6732 -0.8466
  728MOL0     C95971   2.427   8.085   0.158  0.4022 -0.5098  0.4617
  728MOL0     O95972   2.292   8.072   0.181 -0.0418 -0.1050  0.4072
  728MOL0     C95973   2.234   7.947   0.147 -0.1609  0.6820  0.6889
  728MOL0     C95974   2.126   7.887   0.237  0.3722 -0.9694  0.1874
  728MOL0     C95975   2.155   7.904   0.391 -0.4526  0.9401 -0.6722
  728MOL0     C95976   2.039   7.841   0.464  0.1080 -0.4108  0.4211
  728MOL0     C95977   2.076   7.793   0.599  0.2073  0.2475 -1.7361
  728MOL0     C95978   1.961   7.707   0.652  0.1700 -0.0188  0.1044
  728MOL0     C95979   1.990   7.646   0.789  0.1169 -0.2546 -0.4999
  728MOL0     C95980   1.874   7.550   0.828  0.5231 -0.3857 -0.1290
  728MOL0     N95981   1.876   7.428   0.750  0.2980  0.8754  0.0691
  728MOL0     C95982   1.984   7.342   0.746  0.1331 -0.4969 -0.4987
  728MOL0     C95983   1.945   7.243   0.651 -0.9194 -0.2038 -0.5843
  728MOL0     C95984   2.022   7.115   0.594  0.1472 -0.3731 -0.7926
  728MOL0     C95985   2.088   7.143   0.473 -0.2814  0.2838  0.6246
  728MOL0     C95986   2.143   7.013   0.419  0.5944 -0.1341 -0.0268
  728MOL0     C95987   2.229   7.040   0.292  0.9826  0.7467 -0.1912
  728MOL0     O95988   2.144   7.100   0.200  0.3786  0.2647  0.3910
  728MOL0     C95989   2.195   7.208   0.136  0.0984  0.5097 -0.2500
  728MOL0     C95990   2.284   7.191   0.029  0.5799 -0.0954  1.0073
  728MOL0     C95991   2.343   7.300  -0.018  0.4956  0.6594 -0.1969
  728MOL0     C95992   2.316   7.426   0.025  0.2441 -1.0323 -0.6201
  728MOL0     C95993   2.381   7.545  -0.035  0.2007 -0.4530 -0.3433
  728MOL0     O95994   2.485   7.511  -0.120  0.5764  0.5693 -0.2339
  728MOL0     C95995   2.565   7.613  -0.162  0.4603  0.2883  0.0661
  728MOL0     C95996   2.544   7.649  -0.298 -1.1762  0.4339 -0.4491
  728MOL0     C95997   2.624   7.749  -0.351  0.4923 -0.7987  0.0053
  728MOL0     C95998   2.730   7.810  -0.282 -0.0665 -0.1192  0.1224
  728MOL0     O95999   2.800   7.912  -0.332 -1.0116 -0.2657  0.3186
  728MOL0     C96000   2.761   7.973  -0.460  0.3597 -0.0040  1.3057
  728MOL0     C96001   2.823   8.107  -0.469 -0.3229  0.0287  0.7718
  728MOL0     C96002   2.776   8.212  -0.361  0.4020  0.4543 -0.2162
  728MOL0     C96003   2.846   8.346  -0.359  0.8994 -0.2089  0.2474
  728MOL0     C96004   3.001   8.325  -0.374 -0.6050 -0.5293  0.0845
  728MOL0     C96005   3.079   8.451  -0.343 -0.6251  0.4870 -0.2038
  728MOL0     C96006   3.056   8.574  -0.442 -0.1639  0.6228  1.0339
  728MOL0     C96007   3.150   8.689  -0.411 -0.7191  0.0707  0.7605
  728MOL0    Cl96008   3.326   8.649  -0.454  0.3455 -0.0360 -0.0816
  728MOL0     C96009   2.752   7.767  -0.149 -0.4201  0.0729  0.4966
  728MOL0     C96010   2.666   7.674  -0.086  0.2619 -0.0697 -0.2363
  728MOL0     O96011   2.363   7.654   0.026 -0.0462 -0.5752 -0.1356
  728MOL0     C96012   2.228   7.439   0.131  0.0150 -0.3128  0.2746
  728MOL0     C96013   2.163   7.329   0.177  0.3900 -0.2159 -0.2273
  728MOL0     N96014   1.814   7.284   0.616  0.8384  0.0653  0.3506
  728MOL0     N96015   1.768   7.384   0.678 -0.4619 -0.1665  0.5090
  728MOL0     C96016   2.503   8.168   0.237  0.1577  0.7546 -0.0535
  728MOL0     C96017   2.642   8.175   0.208 -1.4461 -0.3337  0.1423
  728MOL0     C96018   3.042   8.218  -0.009 -0.3191 -0.0297 -0.3683
  728MOL0     C96019   3.130   8.326  -0.008  0.2450 -0.1011 -0.1058
  728MOL0     C96020   3.257   8.323  -0.074  0.3064 -0.7369 -0.2807
  728MOL0     C96021   3.296   8.208  -0.129 -0.1774  0.8056 -0.0205
  728MOL0     O96022   3.419   8.186  -0.177  0.6347 -0.8228  0.6848
  728MOL0     C96023   3.524   8.234  -0.094 -0.9931 -0.2371  0.3916
  728MOL0     C96024   3.611   8.297  -0.195 -0.3579  0.2781  0.7360
  728MOL0     C96025   3.737   8.346  -0.127  0.1854 -0.4090  0.1049
  728MOL0     C96026   3.842   8.375  -0.234 -0.8342 -0.6511 -0.8779
  728MOL0     C96027   3.952   8.453  -0.176  0.2351  0.0984  0.1294
  728MOL0     C96028   4.043   8.516  -0.125  0.4357 -0.3605  0.6675
  728MOL0     C96029   3.208   8.098  -0.133 -0.0468 -0.6126  0.2497
  728MOL0     C96030   3.083   8.104  -0.080  0.5554 -0.8269  0.5294
  728MOL0     H96031   2.652   8.008  -0.078  0.1043 -1.5281  0.7686
  728MOL0     H96032   2.410   7.968  -0.008 -1.7137 -1.4916  2.6758
  728MOL0     H96033   2.310   7.868   0.147 -1.5838 -1.0445 -3.6464
  728MOL0     H96034   2.186   7.963   0.050  1.0988 -1.8417 -0.4564
  728MOL0     H96035   2.104   7.784   0.208 -0.5712 -0.4040 -1.2437
  728MOL0     H96036   2.037   7.947   0.218  0.1402 -1.5735 -0.6773
  728MOL0     H96037   2.173   8.001   0.438  0.3409 -0.6927  2.7427
  728MOL0     H96038   2.244   7.841   0.404  0.7219  2.3101 -1.7454
  728MOL0     H96039   1.957   7.913   0.474  0.6748  0.0682  2.0042
  728MOL0     H96040   2.009   7.759   0.398  1.0023  1.8037 -2.9990
  728MOL0     H96041   2.088   7.880   0.665 -0.7565 -1.2344  0.5193
  728MOL0     H96042   2.172   7.742   0.606 -0.7374 -1.5808 -1.5701
  728MOL0     H96043   1.950   7.624   0.581  1.0626 -1.7066  1.8332
  728MOL0     H96044   1.878   7.778   0.648  1.7336  1.8484 -1.1571
  728MOL0     H96045   2.080   7.585   0.799  0.5954  0.2981 -1.2969
  728MOL0     H96046   2.004   7.735   0.851 -0.0839 -0.5973  0.0422
  728MOL0     H96047   1.777   7.598   0.812  0.5681 -0.2539 -0.0148
  728MOL0     H96048   1.877   7.527   0.935 -2.0552  1.4533  0.4303
  728MOL0     H96049   2.078   7.354   0.798  0.7168 -0.4282 -1.5314
  728MOL0     H96050   1.946   7.038   0.579 -1.5894  0.8576  1.0224
  728MOL0     H96051   2.104   7.083   0.659  1.2318  1.9487 -0.8890
  728MOL0     H96052   2.164   7.219   0.492 -1.1015  1.2202  0.2339
  728MOL0     H96053   2.016   7.185   0.402  0.4021  1.8904  0.8441
  728MOL0     H96054   2.204   6.963   0.495  1.9763 -1.9561 -2.2028
  728MOL0     H96055   2.068   6.945   0.378 -0.2472  0.6671  0.1643
  728MOL0     H96056   2.286   6.955   0.254  1.1801  0.7988 -0.0155
  728MOL0     H96057   2.300   7.116   0.326 -3.0827  4.2430  1.4637
  728MOL0     H96058   2.311   7.091  -0.005  4.9432  0.2413  2.8770
  728MOL0     H96059   2.417   7.281  -0.095  1.3495 -2.2064  1.1837
  728MOL0     H96060   2.478   7.605  -0.371  0.5915 -0.9538 -1.2969
  728MOL0     H96061   2.605   7.782  -0.453 -1.2918 -3.3508 -0.5943
  728MOL0     H96062   2.654   7.987  -0.476  0.3767 -2.6069 -2.3223
  728MOL0     H96063   2.797   7.905  -0.538 -1.5653 -0.9212  1.1702
  728MOL0     H96064   2.774   8.151  -0.557 -2.6788  1.5552  2.7076
  728MOL0     H96065   2.930   8.085  -0.470 -0.0638  1.1441 -0.7808
  728MOL0     H96066   2.788   8.177  -0.258  1.5991  2.5056  0.4104
  728MOL0     H96067   2.669   8.228  -0.377  0.0530  1.1687  2.2974
  728MOL0     H96068   2.811   8.410  -0.441 -0.8204 -0.0953  1.0272
  728MOL0     H96069   2.823   8.398  -0.266 -0.7394  2.8772 -1.7120
  728MOL0     H96070   3.029   8.299  -0.477  2.9940 -3.1812  1.5327
  728MOL0     H96071   3.043   8.256  -0.300 -1.7779 -0.2774  1.0199
  728MOL0     H96072   3.185   8.424  -0.338 -0.7182  0.1207  4.5071
  728MOL0     H96073   3.068   8.483  -0.239  1.6599 -0.2092  0.3061
  728MOL0     H96074   3.064   8.545  -0.547 -0.4021  0.1300  1.1514
  728MOL0     H96075   2.956   8.611  -0.420 -1.6475 -1.4841 -1.6177
  728MOL0     H96076   3.147   8.715  -0.305  1.3750 -1.5584  1.2856
  728MOL0     H96077   3.127   8.780  -0.467  0.9429  0.0852  0.0231
  728MOL0     H96078   2.828   7.825  -0.098  0.2965  1.6357 -2.1239
  728MOL0     H96079   2.679   7.636   0.015 -1.3606 -2.5620 -0.8706
  728MOL0     H96080   2.219   7.534   0.183 -0.2929 -1.2136  1.9415
  728MOL0     H96081   2.098   7.334   0.264  0.0177 -1.5067 -0.4031
  728MOL0     H96082   2.463   8.202   0.332 -3.2739  1.5195 -1.6169
  728MOL0     H96083   2.719   8.223   0.269 -2.0037 -1.0880  1.4874
  728MOL0     H96084   3.106   8.410   0.057  1.6465 -0.7934  1.3977
  728MOL0     H96085   3.314   8.415  -0.064  3.1579 -2.2690 -1.3070
  728MOL0     H96086   3.579   8.148  -0.055  1.0445  0.2008 -1.3332
  728MOL0     H96087   3.514   8.311  -0.017  3.5762  2.8055 -1.6419
  728MOL0     H96088   3.632   8.213  -0.261  1.5949  0.1192  1.4861
  728MOL0     H96089   3.567   8.384  -0.244  2.5421  1.1896 -0.4490
  728MOL0     H96090   3.785   8.268  -0.067 -0.7622 -0.6038  0.6454
  728MOL0     H96091   3.719   8.425  -0.054  1.4240  0.2632 -0.2972
  728MOL0     H96092   3.877   8.274  -0.260 -1.0803 -2.4554  4.4666
  728MOL0     H96093   3.808   8.438  -0.317  0.3504  3.0467  1.2217
  728MOL0     H96094   4.112   8.576  -0.069 -1.4115 -0.2073  2.9403
  728MOL0     H96095   3.229   8.003  -0.181  0.3591 -0.4099  0.0221
  728MOL0     H96096   3.029   8.012  -0.096  0.5378 -1.0908  2.0252
  729MOL0     O96097   8.674   7.365   2.714 -0.2467  0.0881 -0.1584
  729MOL0     C96098   8.747   7.326   2.796  0.0671 -0.2117  0.1433
  729MOL0     O96099   8.717   7.239   2.895 -0.1154 -0.3547 -0.4895
  729MOL0     C96100   8.589   7.206   2.923 -0.5952 -0.4437 -0.6142
  729MOL0     C96101   8.545   7.077   2.956  0.3902  0.5686 -0.8883
  729MOL0     C96102   8.415   7.046   3.001 -0.0444 -0.3409  0.5218
  729MOL0     C96103   8.324   7.149   3.021  0.4523 -0.1841 -0.4915
  729MOL0     O96104   8.196   7.117   3.051 -0.7815  0.4536  0.4216
  729MOL0     C96105   8.095   7.203   3.012 -0.3301 -1.0829 -0.0097
  729MOL0     C96106   8.076   7.228   2.861  0.1285 -0.5093  0.5255
  729MOL0     C96107   8.001   7.113   2.794 -0.4393 -0.1358 -0.0453
  729MOL0     C96108   7.854   7.136   2.803 -0.0895 -0.3500  0.1413
  729MOL0     C96109   7.768   7.016   2.754 -0.0869 -0.3595 -0.5389
  729MOL0     C96110   7.616   7.037   2.788  0.0796 -0.9421 -0.5131
  729MOL0     C96111   7.576   7.170   2.736  0.1601  0.3608 -0.0272
  729MOL0     C96112   7.430   7.184   2.708  0.1468  0.1834 -0.1880
  729MOL0     N96113   7.361   7.078   2.629 -0.5924 -0.7384  0.3135
  729MOL0     C96114   7.292   6.976   2.679  0.6636 -0.3215  0.0911
  729MOL0     C96115   7.211   6.940   2.577 -0.4299  0.0362 -0.3521
  729MOL0     C96116   7.110   6.829   2.601 -0.1082  0.7378  0.6866
  729MOL0     C96117   7.170   6.692   2.559  0.2867 -0.0804  0.5910
  729MOL0     C96118   7.251   6.614   2.665  1.0751  0.1009 -0.1493
  729MOL0     C96119   7.402   6.654   2.677 -0.0844 -0.0046 -0.3332
  729MOL0     O96120   7.451   6.592   2.798 -0.3704 -0.3445 -0.4399
  729MOL0     C96121   7.585   6.590   2.827  0.5556 -0.1398  0.2659
  729MOL0     C96122   7.625   6.509   2.931  0.0589  0.6391  0.0226
  729MOL0     C96123   7.763   6.479   2.958 -0.3858  0.4451  0.5274
  729MOL0     C96124   7.860   6.543   2.880 -0.0186 -0.2445 -1.0081
  729MOL0     C96125   8.001   6.509   2.918 -0.5947 -0.5093 -1.0900
  729MOL0     O96126   8.091   6.603   2.895  0.0635  0.2697 -0.6200
  729MOL0     C96127   8.228   6.594   2.901  0.9919 -0.6772 -0.0220
  729MOL0     C96128   8.304   6.490   2.954  0.6422  0.4254  0.0501
  729MOL0     C96129   8.441   6.488   2.921 -0.3150  0.1717  0.7216
  729MOL0     C96130   8.500   6.597   2.845  0.0248  0.6688  0.3980
  729MOL0     O96131   8.629   6.568   2.814  0.0754 -0.1011 -0.4840
  729MOL0     C96132   8.672   6.647   2.702  0.3015 -0.2452 -0.0147
  729MOL0     C96133   8.817   6.594   2.661 -0.5049  0.3084  0.3171
  729MOL0     C96134   8.929   6.639   2.758  1.3666 -0.1577 -0.2972
  729MOL0     C96135   9.070   6.594   2.714  0.1883 -0.0484 -0.6841
  729MOL0     C96136   9.123   6.656   2.583  0.1678 -0.2864 -0.0465
  729MOL0     C96137   9.271   6.630   2.563  1.0753 -0.3647  0.1364
  729MOL0     C96138   9.313   6.672   2.423  0.0387 -0.6404 -0.8144
  729MOL0     C96139   9.461   6.664   2.394 -0.9841  0.5217 -0.0847
  729MOL0    Cl96140   9.549   6.792   2.491 -0.3731 -0.1559  0.2975
  729MOL0     C96141   8.421   6.701   2.811  0.5965  0.0055  0.1417
  729MOL0     C96142   8.280   6.698   2.842 -0.4859 -0.1649  0.4042
  729MOL0     O96143   8.018   6.408   2.980  0.3686 -0.2141  0.1227
  729MOL0     C96144   7.818   6.620   2.769 -0.3090  0.0281  0.7583
  729MOL0     C96145   7.681   6.641   2.735 -0.2387  0.1684  0.0790
  729MOL0     N96146   7.258   6.994   2.460 -0.8305  0.1445 -0.4062
  729MOL0     N96147   7.348   7.080   2.495 -0.9619  0.2182  0.5889
  729MOL0     C96148   8.366   7.280   2.991  0.0430 -0.1266 -0.4942
  729MOL0     C96149   8.488   7.311   2.941  0.1772  0.5676 -0.5599
  729MOL0     C96150   8.880   7.376   2.787 -0.1310 -0.2851 -0.4654
  729MOL0     C96151   8.976   7.313   2.865 -0.6046 -0.6451 -0.7755
  729MOL0     C96152   9.106   7.336   2.833 -0.3948  0.1211 -0.2891
  729MOL0     C96153   9.151   7.437   2.748  0.6435  0.4279 -0.9116
  729MOL0     O96154   9.286   7.451   2.738 -0.0539 -0.4191  0.0612
  729MOL0     C96155   9.328   7.581   2.707 -0.3592 -0.1481  0.1425
  729MOL0     C96156   9.474   7.600   2.740  0.2550 -0.5714 -0.0843
  729MOL0     C96157   9.562   7.522   2.643 -0.2280  0.5473 -0.4566
  729MOL0     C96158   9.554   7.566   2.490  0.2087  0.4334  0.1372
  729MOL0     C96159   9.570   7.707   2.458 -0.3474 -1.1111 -0.1436
  729MOL0     C96160   9.564   7.826   2.421  0.0685  0.2151 -0.3932
  729MOL0     C96161   9.053   7.505   2.675  0.9141  0.1719 -0.1399
  729MOL0     C96162   8.918   7.481   2.700  0.4502  0.1833 -0.2677
  729MOL0     H96163   8.621   7.000   2.948  1.1655  0.7708  2.8441
  729MOL0     H96164   8.361   6.954   3.022 -4.8049  1.6382 -1.4689
  729MOL0     H96165   8.106   7.302   3.057 -2.8076  0.4401 -2.4539
  729MOL0     H96166   8.005   7.160   3.057 -1.6937 -1.1489 -2.6360
  729MOL0     H96167   8.173   7.250   2.815 -1.1381  1.6680 -1.3090
  729MOL0     H96168   8.024   7.322   2.838 -0.8958 -1.0749  0.4584
  729MOL0     H96169   8.036   7.022   2.842  2.5813  0.4077 -0.9619
  729MOL0     H96170   8.033   7.114   2.689 -1.9051 -0.0293 -0.5148
  729MOL0     H96171   7.819   7.154   2.905  0.5885 -0.0777  0.3271
  729MOL0     H96172   7.843   7.221   2.735  4.8120 -0.2680 -0.8911
  729MOL0     H96173   7.798   6.927   2.811  2.2706  0.1469 -0.8764
  729MOL0     H96174   7.782   6.999   2.647  1.9464 -0.8459 -0.2523
  729MOL0     H96175   7.599   7.043   2.896 -0.7282  0.2229 -0.6815
  729MOL0     H96176   7.554   6.955   2.751 -2.5051  1.1048 -1.0170
  729MOL0     H96177   7.601   7.258   2.796  1.0475  2.4815 -3.2551
  729MOL0     H96178   7.628   7.190   2.642 -3.6720  1.1341 -2.1879
  729MOL0     H96179   7.404   7.272   2.650 -0.8588 -2.0735 -3.4346
  729MOL0     H96180   7.380   7.184   2.805 -1.6399  1.8025 -1.0415
  729MOL0     H96181   7.280   6.941   2.781 -0.7107 -0.1587  0.0007
  729MOL0     H96182   7.023   6.858   2.541 -1.2278 -2.2514  0.6860
  729MOL0     H96183   7.081   6.828   2.706 -0.7875 -4.2085  0.7064
  729MOL0     H96184   7.240   6.686   2.475 -0.4746 -0.8694 -0.0075
  729MOL0     H96185   7.084   6.626   2.544  1.0274 -1.2847  1.4245
  729MOL0     H96186   7.213   6.637   2.765  0.0204  2.4813 -1.0302
  729MOL0     H96187   7.239   6.507   2.648 -0.5462  0.4306 -1.2915
  729MOL0     H96188   7.404   6.763   2.682 -0.4188  0.1833 -2.8623
  729MOL0     H96189   7.455   6.612   2.591  0.1538 -0.8260  0.2029
  729MOL0     H96190   7.558   6.450   2.991  1.3673 -1.5353 -0.5514
  729MOL0     H96191   7.785   6.405   3.034 -1.0629 -0.9960 -0.6412
  729MOL0     H96192   8.252   6.406   2.999 -2.9562  1.5854 -1.5852
  729MOL0     H96193   8.502   6.399   2.933  1.0155  0.8244 -0.8168
  729MOL0     H96194   8.665   6.751   2.735 -1.0384 -0.0110 -0.9903
  729MOL0     H96195   8.609   6.632   2.614 -1.3377  0.3616  1.0155
  729MOL0     H96196   8.836   6.637   2.562  0.1568  2.4129  1.2890
  729MOL0     H96197   8.824   6.485   2.654  0.4686  0.4268 -0.9873
  729MOL0     H96198   8.903   6.583   2.848 -0.7296  1.1889 -0.0031
  729MOL0     H96199   8.930   6.748   2.771  1.3434 -0.1941  0.0224
  729MOL0     H96200   9.153   6.605   2.785  2.4914 -0.5102 -3.1410
  729MOL0     H96201   9.062   6.487   2.698  0.1664 -0.2010  0.2748
  729MOL0     H96202   9.112   6.764   2.597 -0.7038 -0.4352  0.4943
  729MOL0     H96203   9.065   6.607   2.504  0.2641 -0.9181  0.2709
  729MOL0     H96204   9.279   6.522   2.575 -0.8826 -0.5923 -0.2443
  729MOL0     H96205   9.330   6.670   2.646  0.5893 -1.7645  1.2007
  729MOL0     H96206   9.263   6.614   2.345 -0.4613 -0.3112 -0.7431
  729MOL0     H96207   9.284   6.777   2.424  1.1192 -0.2433  2.7407
  729MOL0     H96208   9.488   6.677   2.289 -0.1412 -0.4937 -0.0098
  729MOL0     H96209   9.491   6.562   2.418 -0.9305  0.5642  0.0291
  729MOL0     H96210   8.462   6.784   2.756  0.2116 -0.3466 -0.6963
  729MOL0     H96211   8.231   6.786   2.801  1.7393  0.6124 -0.7213
  729MOL0     H96212   7.900   6.673   2.721  0.8164 -0.9329  1.5873
  729MOL0     H96213   7.663   6.691   2.641  0.4635 -0.5852 -0.4716
  729MOL0     H96214   8.303   7.366   3.014 -0.9995 -0.7432 -0.9989
  729MOL0     H96215   8.513   7.415   2.923  2.1843  0.0839 -0.8583
  729MOL0     H96216   8.957   7.236   2.938  1.9779  0.8163  1.6333
  729MOL0     H96217   9.183   7.272   2.874  0.3343  1.1707  0.0213
  729MOL0     H96218   9.276   7.655   2.769 -0.6885 -0.4062  0.1825
  729MOL0     H96219   9.307   7.606   2.603  3.1502  2.3295 -0.0995
  729MOL0     H96220   9.505   7.705   2.732  2.0106 -0.0303  7.0364
  729MOL0     H96221   9.499   7.579   2.845 -0.9790  3.3512  1.1680
  729MOL0     H96222   9.529   7.418   2.655 -1.6469  0.5934 -3.1214
  729MOL0     H96223   9.667   7.513   2.669 -0.4559 -3.8372 -0.3400
  729MOL0     H96224   9.631   7.509   2.439  0.6440  2.2188 -1.2854
  729MOL0     H96225   9.456   7.531   2.454 -0.0471 -2.5857  3.1778
  729MOL0     H96226   9.551   7.925   2.383  2.6884  1.1728  1.0064
  729MOL0     H96227   9.093   7.571   2.599  0.9611  0.8864  0.4914
  729MOL0     H96228   8.853   7.526   2.625  1.9291  1.3522 -0.8996
  730MOL0     O96229   5.274   9.195   7.532  0.9149 -0.6075  0.2769
  730MOL0     C96230   5.257   9.178   7.405 -0.5003 -0.2842 -0.2655
  730MOL0     O96231   5.342   9.194   7.299  0.3534 -0.3465 -0.5256
  730MOL0     C96232   5.476   9.211   7.307 -1.2141 -0.6127 -0.9481
  730MOL0     C96233   5.543   9.255   7.417  0.1932 -1.1904  0.3883
  730MOL0     C96234   5.673   9.309   7.406  1.0090 -0.1280  0.0500
  730MOL0     C96235   5.744   9.309   7.285  0.1069  0.0090  0.6234
  730MOL0     O96236   5.875   9.355   7.284 -0.0654 -0.0899 -0.9999
  730MOL0     C96237   5.964   9.299   7.181  0.0420  0.1500  0.8550
  730MOL0     C96238   6.112   9.336   7.212 -0.0519  0.1279 -0.0783
  730MOL0     C96239   6.144   9.488   7.210 -0.5313  0.0765  0.0437
  730MOL0     C96240   6.288   9.506   7.260 -1.0804 -0.5324  0.3377
  730MOL0     C96241   6.337   9.658   7.250 -0.9350 -0.3492 -0.7417
  730MOL0     C96242   6.255   9.760   7.343 -0.3885  0.3510 -0.2974
  730MOL0     C96243   6.296   9.899   7.310  0.0934  0.0119 -0.1158
  730MOL0     C96244   6.195  10.004   7.365  0.0595  0.0257  0.0286
  730MOL0     N96245   6.064  10.001   7.299 -0.8486  0.4271 -0.1348
  730MOL0     C96246   5.951   9.966   7.372  1.1982  0.1536 -0.2746
  730MOL0     C96247   5.849  10.012   7.301  0.9583  0.4828 -0.4377
  730MOL0     C96248   5.700  10.002   7.321 -1.2495  0.7764  0.1821
  730MOL0     C96249   5.662   9.859   7.304  0.3902  0.2326  0.6379
  730MOL0     C96250   5.514   9.829   7.291 -0.2701 -0.2680  0.6906
  730MOL0     C96251   5.431   9.921   7.377 -0.0586 -0.1999  0.6194
  730MOL0     O96252   5.297   9.868   7.390  0.2999 -0.7614 -0.4631
  730MOL0     C96253   5.204   9.943   7.464  0.2365 -0.6274 -0.4978
  730MOL0     C96254   5.215  10.077   7.510  0.7772 -0.0754  0.7518
  730MOL0     C96255   5.118  10.143   7.581  0.4290  0.2802  0.5893
  730MOL0     C96256   5.005  10.067   7.615  0.1680  0.2168 -0.8179
  730MOL0     C96257   4.918  10.123   7.722  1.1610 -0.1752  0.4776
  730MOL0     O96258   4.813  10.046   7.754  0.4253  0.3698  0.1684
  730MOL0     C96259   4.726  10.079   7.854 -0.1318  0.3558 -0.5443
  730MOL0     C96260   4.607  10.150   7.820 -0.9897  0.1044  0.7218
  730MOL0     C96261   4.531  10.209   7.916  1.2580 -0.3703 -0.1488
  730MOL0     C96262   4.540  10.171   8.044  1.3215 -1.1443  0.2234
  730MOL0     O96263   4.445  10.221   8.133 -0.2735 -0.0427  0.1157
  730MOL0     C96264   4.433  10.146   8.261  0.2515  0.7248  1.0289
  730MOL0     C96265   4.312  10.184   8.350 -0.0019 -0.6731  0.0565
  730MOL0     C96266   4.322  10.145   8.495  0.5761 -1.4132 -0.0587
  730MOL0     C96267   4.192  10.147   8.567  0.4496 -0.6182 -0.3130
  730MOL0     C96268   4.202  10.103   8.717 -0.5593 -1.2087  0.5975
  730MOL0     C96269   4.073  10.116   8.795 -0.5742 -0.6254  0.0108
  730MOL0     C96270   4.024  10.263   8.812 -0.2789 -0.5186 -0.7282
  730MOL0     C96271   3.938  10.274   8.943 -0.5143  0.0543 -0.6302
  730MOL0    Cl96272   3.895  10.448   8.966  0.4316  0.4224 -0.8324
  730MOL0     C96273   4.647  10.089   8.077  0.3187  0.3526 -0.4684
  730MOL0     C96274   4.745  10.049   7.986 -0.6904 -0.6757 -0.1333
  730MOL0     O96275   4.945  10.233   7.772 -0.0743 -0.2063 -0.0588
  730MOL0     C96276   4.993   9.937   7.569  0.2374  0.3066 -0.1837
  730MOL0     C96277   5.096   9.874   7.492  0.1249 -0.3262 -0.4496
  730MOL0     N96278   5.906  10.059   7.181  0.6565 -0.5421 -0.2248
  730MOL0     N96279   6.036  10.048   7.175  0.1729 -0.5330 -0.4064
  730MOL0     C96280   5.676   9.255   7.170  0.4809 -0.7362  0.5990
  730MOL0     C96281   5.543   9.206   7.189 -0.8767  0.3227 -0.2366
  730MOL0     C96282   5.124   9.123   7.367 -0.4930 -0.3182 -0.0071
  730MOL0     C96283   5.025   9.096   7.455 -0.9238  0.5307 -0.4617
  730MOL0     C96284   4.906   9.024   7.429  0.8038 -0.1200  1.0510
  730MOL0     C96285   4.876   9.000   7.289  0.0768 -0.1367 -0.5145
  730MOL0     O96286   4.763   8.937   7.239 -0.7387  1.0586 -0.1691
  730MOL0     C96287   4.639   9.003   7.268  0.1954  1.5884 -0.1630
  730MOL0     C96288   4.560   8.916   7.351  0.0069 -0.4436 -0.0899
  730MOL0     C96289   4.517   8.785   7.280 -0.0442 -0.3949 -0.0476
  730MOL0     C96290   4.603   8.672   7.331  0.4444  0.1393  0.0879
  730MOL0     C96291   4.582   8.558   7.238  0.6895  0.1892  0.0686
  730MOL0     C96292   4.586   8.468   7.158  0.1087 -0.2140  0.0151
  730MOL0     C96293   4.969   9.038   7.197  1.3142  0.0374  1.6260
  730MOL0     C96294   5.091   9.097   7.230 -0.2261 -0.0500  0.8855
  730MOL0     H96295   5.490   9.254   7.512  0.0766 -0.1387  0.3448
  730MOL0     H96296   5.725   9.355   7.489 -0.8614  1.0071  0.6713
  730MOL0     H96297   5.940   9.343   7.084  2.3422  0.7502  0.4930
  730MOL0     H96298   5.960   9.191   7.166  1.3415  0.3295 -1.2016
  730MOL0     H96299   6.177   9.279   7.145 -0.4068 -1.1857  0.6487
  730MOL0     H96300   6.148   9.299   7.309  0.4455 -3.3936 -1.4666
  730MOL0     H96301   6.065   9.543   7.263  0.6332  0.8696  1.0140
  730MOL0     H96302   6.140   9.510   7.103 -1.9354 -1.5758 -0.2969
  730MOL0     H96303   6.310   9.461   7.358  0.8106  0.1144  0.2483
  730MOL0     H96304   6.341   9.441   7.190  0.7761  1.7333 -0.4971
  730MOL0     H96305   6.337   9.683   7.143  2.0276 -0.0805 -0.7722
  730MOL0     H96306   6.440   9.656   7.286 -1.3024  1.3663  0.5124
  730MOL0     H96307   6.252   9.729   7.448 -1.2401 -1.8813 -0.9002
  730MOL0     H96308   6.147   9.752   7.327 -0.3945  1.7193 -1.0905
  730MOL0     H96309   6.389   9.904   7.368  0.2662 -2.2402 -0.1088
  730MOL0     H96310   6.306   9.919   7.203 -0.1916  0.6971 -0.0219
  730MOL0     H96311   6.245  10.099   7.342 -1.6929  1.1990  0.7669
  730MOL0     H96312   6.181  10.003   7.473 -1.5538  1.4641 -0.1054
  730MOL0     H96313   5.956   9.918   7.469  0.7678 -2.6121 -1.5268
  730MOL0     H96314   5.654  10.058   7.238 -1.0289 -0.1162 -0.5588
  730MOL0     H96315   5.672  10.037   7.420 -0.1145 -1.3784  1.3285
  730MOL0     H96316   5.695   9.812   7.397 -0.7723  1.1130  1.5195
  730MOL0     H96317   5.711   9.808   7.220  3.4448  0.5089  2.1271
  730MOL0     H96318   5.491   9.826   7.185  4.0868  0.5496 -0.5082
  730MOL0     H96319   5.495   9.727   7.324  0.9545 -1.8494 -2.9602
  730MOL0     H96320   5.441  10.019   7.330  1.9914 -1.3377 -1.5038
  730MOL0     H96321   5.479   9.913   7.474  1.2254  0.2665  0.0356
  730MOL0     H96322   5.300  10.126   7.463  0.8105  0.1145  1.0053
  730MOL0     H96323   5.120  10.251   7.595 -1.0574  0.4311 -0.0879
  730MOL0     H96324   4.594  10.155   7.712  2.4231 -1.2989  0.0888
  730MOL0     H96325   4.438  10.258   7.890  0.8035 -0.8353  0.5418
  730MOL0     H96326   4.528  10.173   8.309  1.8918 -0.5729 -1.2774
  730MOL0     H96327   4.420  10.038   8.244  0.3915  0.7170  0.9692
  730MOL0     H96328   4.225  10.131   8.311 -1.0444 -0.3957  1.9134
  730MOL0     H96329   4.290  10.291   8.346  2.2032 -0.1734 -0.1826
  730MOL0     H96330   4.387  10.217   8.545  0.1584 -0.1080 -1.3193
  730MOL0     H96331   4.363  10.044   8.503  1.9904 -0.7340  2.0371
  730MOL0     H96332   4.159  10.250   8.554  1.7541 -0.3378 -1.6125
  730MOL0     H96333   4.123  10.088   8.505 -0.5028 -1.1666  1.2141
  730MOL0     H96334   4.275  10.164   8.771 -2.0310  1.4459 -0.1907
  730MOL0     H96335   4.219   9.995   8.715  1.2122 -0.9937  1.8101
  730MOL0     H96336   4.098  10.080   8.895  0.8424  2.7498  0.9842
  730MOL0     H96337   4.001  10.052   8.743  2.3277 -2.4827 -2.0636
  730MOL0     H96338   4.110  10.330   8.819  0.3332 -1.1646 -1.8389
  730MOL0     H96339   3.965  10.302   8.729  1.9958  3.0592 -0.8801
  730MOL0     H96340   3.999  10.243   9.029 -0.4650  0.7730 -0.4054
  730MOL0     H96341   3.857  10.202   8.929  0.7421 -1.6019  0.1718
  730MOL0     H96342   4.660  10.042   8.173  3.5725 -0.9849 -1.4401
  730MOL0     H96343   4.833   9.994   8.018  1.5874  1.7262 -1.8924
  730MOL0     H96344   4.909   9.871   7.585  1.7336 -1.1877  2.1208
  730MOL0     H96345   5.108   9.777   7.444  1.6817  0.6963 -2.2470
  730MOL0     H96346   5.711   9.256   7.068 -1.0671  0.3319  0.0337
  730MOL0     H96347   5.491   9.165   7.103 -0.4907 -0.7132  0.0111
  730MOL0     H96348   5.042   9.118   7.560  3.3364 -2.5493 -0.2283
  730MOL0     H96349   4.825   9.003   7.498 -0.5914 -1.5235 -0.8902
  730MOL0     H96350   4.576   9.016   7.179  0.8271 -1.7829 -1.2199
  730MOL0     H96351   4.651   9.098   7.321 -1.1471  1.1765  0.9160
  730MOL0     H96352   4.609   8.908   7.448 -1.2243  0.1780  0.6119
  730MOL0     H96353   4.468   8.970   7.377 -0.2768 -0.9238 -0.0938
  730MOL0     H96354   4.520   8.799   7.171 -0.3614  0.6692  0.0783
  730MOL0     H96355   4.414   8.764   7.310 -0.0509 -0.3479 -0.0379
  730MOL0     H96356   4.706   8.710   7.338  0.6969 -0.3140 -1.0330
  730MOL0     H96357   4.566   8.646   7.431  2.6497  0.6171  1.1015
  730MOL0     H96358   4.560   8.384   7.097 -2.0924 -1.7542  2.7846
  730MOL0     H96359   4.940   9.037   7.093 -1.1320 -2.2620  2.2213
  730MOL0     H96360   5.154   9.122   7.146  3.3199  0.1039  3.3440
  731MOL0     O96361   7.424  10.535   0.676  0.0126  0.6932  0.6315
  731MOL0     C96362   7.420  10.554   0.555 -1.0977  0.1474 -0.4866
  731MOL0     O96363   7.528  10.546   0.473 -0.2986 -0.2888  0.2983
  731MOL0     C96364   7.646  10.510   0.533 -0.3328 -0.6302 -0.0205
  731MOL0     C96365   7.731  10.415   0.481 -1.2557  0.4286  0.1827
  731MOL0     C96366   7.864  10.403   0.530 -0.0876 -0.1935  0.2273
  731MOL0     C96367   7.914  10.476   0.635  1.0655 -0.0966 -1.2502
  731MOL0     O96368   8.044  10.464   0.688 -0.1744  0.2638  0.4890
  731MOL0     C96369   8.137  10.390   0.611 -0.6139 -0.2801 -0.3332
  731MOL0     C96370   8.275  10.361   0.680  0.5555 -0.7331 -0.7634
  731MOL0     C96371   8.376  10.466   0.656 -0.4019  0.4852 -0.5082
  731MOL0     C96372   8.512  10.442   0.723 -0.4830  0.8081  0.5121
  731MOL0     C96373   8.634  10.502   0.657  0.2274  0.1975  0.1083
  731MOL0     C96374   8.611  10.660   0.668  0.7219 -0.1719  0.3855
  731MOL0     C96375   8.749  10.731   0.653 -0.6685 -0.1341  0.0904
  731MOL0     C96376   8.724  10.882   0.661 -0.6626  0.2168 -0.0079
  731MOL0     N96377   8.844  10.958   0.617  0.0975  0.7051  0.3258
  731MOL0     C96378   8.980  10.919   0.626 -0.7153 -0.3103  0.0902
  731MOL0     C96379   9.048  11.037   0.592 -0.5171  0.7871  0.4415
  731MOL0     C96380   9.198  11.057   0.589 -0.2599  0.3056 -0.0573
  731MOL0     C96381   9.246  11.127   0.716  0.6741  1.3793 -0.2284
  731MOL0     C96382   9.398  11.144   0.719 -0.5536  0.9996 -0.2976
  731MOL0     C96383   9.434  11.236   0.835 -0.4897 -0.2950  0.9339
  731MOL0     O96384   9.569  11.224   0.853 -0.0027 -0.2124 -0.7564
  731MOL0     C96385   9.661  11.325   0.808  0.6162  0.7619  0.1522
  731MOL0     C96386   9.782  11.335   0.873 -0.3820 -0.4115  0.0170
  731MOL0     C96387   9.872  11.432   0.850 -0.3275  0.0924 -0.9992
  731MOL0     C96388   9.848  11.523   0.746 -0.8874 -0.7921 -0.0746
  731MOL0     C96389   9.936  11.637   0.719  0.2568 -0.1741 -0.4209
  731MOL0     O96390   9.909  11.730   0.621  0.1345 -0.5510  1.0732
  731MOL0     C96391   9.976  11.841   0.602  0.1651 -0.9378 -0.1232
  731MOL0     C96392  10.017  11.927   0.705  0.4945 -0.5301  0.2331
  731MOL0     C96393  10.074  12.049   0.670  0.4646  0.0905 -0.3650
  731MOL0     C96394  10.091  12.088   0.540 -0.1949 -0.6935 -0.6613
  731MOL0     O96395  10.150  12.199   0.492 -0.0166  0.3583  0.0815
  731MOL0     C96396  10.218  12.282   0.584 -0.1703 -0.1037 -0.1258
  731MOL0     C96397  10.250  12.416   0.507  0.1422 -0.4383 -0.6153
  731MOL0     C96398  10.291  12.518   0.606 -1.0842 -0.4226 -0.6775
  731MOL0     C96399  10.346  12.637   0.531 -0.0396 -1.0383  0.6181
  731MOL0     C96400  10.402  12.761   0.619  0.6989  1.1673 -1.1179
  731MOL0     C96401  10.295  12.851   0.687  0.5097 -0.5252 -0.1255
  731MOL0     C96402  10.341  12.964   0.762 -0.1028  0.3122 -0.4709
  731MOL0     C96403  10.275  13.097   0.739  0.3831  0.2313 -0.5776
  731MOL0    Cl96404  10.298  13.173   0.581 -0.1912 -0.1627 -0.2919
  731MOL0     C96405  10.048  12.006   0.440 -0.1479 -0.0630 -0.1335
  731MOL0     C96406   9.988  11.882   0.467 -0.4323  0.4629  0.0964
  731MOL0     O96407  10.029  11.644   0.799 -0.4089 -0.7777  0.2211
  731MOL0     C96408   9.742  11.501   0.658  0.3916  0.0726 -0.9678
  731MOL0     C96409   9.645  11.408   0.695  0.2189 -0.4662 -1.0515
  731MOL0     N96410   8.955  11.127   0.535 -0.8871 -0.0443 -0.4594
  731MOL0     N96411   8.837  11.072   0.543 -0.5712 -0.0808  0.3501
  731MOL0     C96412   7.823  10.569   0.690 -0.2463 -0.8104 -0.6474
  731MOL0     C96413   7.699  10.591   0.634  0.8370 -0.1312 -0.0782
  731MOL0     C96414   7.288  10.576   0.493  0.1935  0.5075  0.0277
  731MOL0     C96415   7.271  10.546   0.355 -0.8771 -0.2648  0.4348
  731MOL0     C96416   7.142  10.548   0.299  0.1225  0.4170 -0.3835
  731MOL0     C96417   7.032  10.587   0.384 -0.0873 -0.1340  0.7955
  731MOL0     O96418   6.900  10.593   0.335 -0.7563  0.7458  0.5216
  731MOL0     C96419   6.783  10.585   0.419  1.0394 -0.6307  0.0207
  731MOL0     C96420   6.653  10.567   0.345 -0.3786 -0.0779  0.0242
  731MOL0     C96421   6.631  10.659   0.224  0.2840 -0.1345  0.8596
  731MOL0     C96422   6.509  10.619   0.139 -0.0688  0.3136  0.1678
  731MOL0     C96423   6.529  10.686   0.007  0.6250  0.3992 -0.2977
  731MOL0     C96424   6.567  10.742  -0.089  0.7681 -0.8948  0.1281
  731MOL0     C96425   7.059  10.616   0.516 -0.6016 -0.1694  0.0684
  731MOL0     C96426   7.180  10.605   0.570 -0.6616 -0.7494  0.3040
  731MOL0     H96427   7.697  10.355   0.397 -0.4123 -3.1142  2.1484
  731MOL0     H96428   7.920  10.340   0.461  1.2641  1.7240 -0.5125
  731MOL0     H96429   8.160  10.439   0.516 -0.1023  1.0276  0.4368
  731MOL0     H96430   8.090  10.292   0.598  0.4871 -1.0269  1.0327
  731MOL0     H96431   8.306  10.265   0.639  0.2462 -0.4633 -1.6489
  731MOL0     H96432   8.274  10.349   0.789  1.1480  1.1272 -0.5032
  731MOL0     H96433   8.348  10.556   0.711  0.9918  0.1938  0.7732
  731MOL0     H96434   8.399  10.492   0.553 -0.1398  1.0313 -0.3164
  731MOL0     H96435   8.499  10.468   0.829 -2.9617  0.1742  0.4200
  731MOL0     H96436   8.526  10.333   0.730 -1.9087  0.6268  0.8268
  731MOL0     H96437   8.635  10.478   0.551 -4.5690  3.5716 -1.0422
  731MOL0     H96438   8.726  10.476   0.710  0.9428  5.3760  2.0414
  731MOL0     H96439   8.552  10.686   0.757  2.0556 -1.7672  1.8123
  731MOL0     H96440   8.562  10.686   0.574  2.3352 -2.0032 -1.0629
  731MOL0     H96441   8.820  10.689   0.726 -2.5637 -3.3507  0.2438
  731MOL0     H96442   8.790  10.711   0.554 -0.2948 -0.9197  0.3890
  731MOL0     H96443   8.704  10.911   0.765 -2.6916  2.0144 -0.8251
  731MOL0     H96444   8.629  10.902   0.610 -1.5346  2.4025  2.2453
  731MOL0     H96445   9.026  10.826   0.657  0.8992  0.7632  1.0478
  731MOL0     H96446   9.223  11.113   0.499  4.3460 -0.2024  0.6597
  731MOL0     H96447   9.252  10.962   0.583 -2.0282 -0.9079  1.7729
  731MOL0     H96448   9.213  11.064   0.799 -4.2285  0.3058 -2.6450
  731MOL0     H96449   9.200  11.226   0.721  2.7769  2.4400 -0.8261
  731MOL0     H96450   9.451  11.048   0.712  1.4032  1.8700  1.4124
  731MOL0     H96451   9.435  11.201   0.633 -0.6746  2.2500  0.4650
  731MOL0     H96452   9.401  11.197   0.932  0.0090 -0.4634  1.0438
  731MOL0     H96453   9.397  11.339   0.833  0.8999  0.2186  0.1009
  731MOL0     H96454   9.783  11.282   0.968 -0.1618 -1.6049 -0.6381
  731MOL0     H96455   9.964  11.437   0.906 -1.5210 -0.2446  1.0933
  731MOL0     H96456   9.993  11.904   0.808 -3.5504 -0.9773 -0.6573
  731MOL0     H96457  10.100  12.125   0.743  1.2010  0.9424 -1.4774
  731MOL0     H96458  10.316  12.241   0.610  0.5302 -0.1038 -2.4720
  731MOL0     H96459  10.154  12.304   0.669 -2.8672 -1.9167 -1.5299
  731MOL0     H96460  10.158  12.453   0.461  0.6062  1.3172 -0.2017
  731MOL0     H96461  10.326  12.400   0.430 -0.1839  0.1274 -1.0683
  731MOL0     H96462  10.370  12.483   0.672 -0.6170  0.1443 -0.9305
  731MOL0     H96463  10.205  12.545   0.669  0.3525 -1.0077  1.6557
  731MOL0     H96464  10.420  12.605   0.458 -0.1090  0.3132 -0.0735
  731MOL0     H96465  10.259  12.671   0.475 -0.1611 -0.2974  1.2264
  731MOL0     H96466  10.465  12.823   0.554  1.8576 -0.5787 -1.7430
  731MOL0     H96467  10.455  12.718   0.704  0.0226  1.2125 -0.6672
  731MOL0     H96468  10.239  12.778   0.746  2.7940 -3.0033 -0.8679
  731MOL0     H96469  10.222  12.894   0.617 -0.9611  0.2747  1.8002
  731MOL0     H96470  10.328  12.931   0.865 -0.7602 -0.8290 -0.9022
  731MOL0     H96471  10.449  12.967   0.746 -0.2303  0.9813 -1.2799
  731MOL0     H96472  10.327  13.159   0.813  0.1893 -2.6024  2.0975
  731MOL0     H96473  10.167  13.088   0.753  0.5118 -0.0283  0.2558
  731MOL0     H96474  10.051  12.044   0.338 -1.9372 -1.9074 -0.9232
  731MOL0     H96475   9.942  11.813   0.396  0.2634 -0.1640  0.2445
  731MOL0     H96476   9.713  11.563   0.574 -0.7502  1.4629  0.3968
  731MOL0     H96477   9.548  11.409   0.646  0.5705  1.2825 -1.7762
  731MOL0     H96478   7.852  10.633   0.773 -2.2475 -1.1415  0.3708
  731MOL0     H96479   7.647  10.680   0.667 -2.0124 -2.1897  1.4632
  731MOL0     H96480   7.361  10.512   0.304  1.4672  1.0646  3.3374
  731MOL0     H96481   7.119  10.502   0.203  4.0783 -2.1176 -0.3550
  731MOL0     H96482   6.770  10.675   0.480  2.0944  0.6049 -1.5043
  731MOL0     H96483   6.804  10.499   0.483  0.0037 -0.0161  1.2403
  731MOL0     H96484   6.664  10.465   0.307 -1.8841  0.2499 -1.4497
  731MOL0     H96485   6.566  10.569   0.412 -0.9422  0.4751 -0.7025
  731MOL0     H96486   6.718  10.667   0.158  0.1463 -0.7147  0.6067
  731MOL0     H96487   6.619  10.756   0.273  1.4695 -0.2700  1.4586
  731MOL0     H96488   6.512  10.511   0.124 -2.7160  0.5962 -4.2363
  731MOL0     H96489   6.414  10.647   0.183 -0.5708 -0.4233 -0.4239
  731MOL0     H96490   6.602  10.803  -0.170 -0.5567 -0.3229 -0.0391
  731MOL0     H96491   6.980  10.653   0.582 -0.7005 -1.0412  0.4525
  731MOL0     H96492   7.177  10.629   0.676  0.9750  1.2825 -0.0391
  732MOL0     O96493   9.337   7.084   5.463  0.2484 -0.2313 -0.3740
  732MOL0     C96494   9.421   7.007   5.421 -0.6903 -0.2405  0.2201
  732MOL0     O96495   9.388   6.895   5.352 -0.5097 -0.0705 -0.2857
  732MOL0     C96496   9.270   6.856   5.305 -0.3263  0.7414  0.6037
  732MOL0     C96497   9.171   6.946   5.262  0.0192 -0.0348 -0.0425
  732MOL0     C96498   9.041   6.910   5.223  0.3804 -0.3018  0.4238
  732MOL0     C96499   9.018   6.770   5.207  0.3303 -0.6204  0.4334
  732MOL0     O96500   8.892   6.729   5.165 -0.7218  0.4883 -0.3358
  732MOL0     C96501   8.834   6.629   5.244  0.3716 -0.8943 -0.5869
  732MOL0     C96502   8.697   6.667   5.303  0.3827 -0.3200  0.1704
  732MOL0     C96503   8.729   6.772   5.408  0.2873 -0.9278 -1.2474
  732MOL0     C96504   8.600   6.822   5.465  0.0332 -0.2735  0.1235
  732MOL0     C96505   8.612   6.936   5.565  0.2294 -0.0550 -0.0150
  732MOL0     C96506   8.488   7.012   5.581  0.3180  1.2422 -0.4176
  732MOL0     C96507   8.416   6.963   5.706 -0.6838  0.0829  0.1126
  732MOL0     C96508   8.279   7.036   5.720  0.3051 -0.0929 -0.7899
  732MOL0     N96509   8.194   6.945   5.790  0.5714  0.2116 -0.0450
  732MOL0     C96510   8.191   6.915   5.920 -0.5565 -0.2010  0.3759
  732MOL0     C96511   8.080   6.839   5.935 -0.7200 -0.0296  0.1924
  732MOL0     C96512   8.021   6.780   6.065 -0.3839 -0.1916 -0.7283
  732MOL0     C96513   7.968   6.894   6.159 -1.0798 -0.2765  0.0769
  732MOL0     C96514   7.873   6.977   6.084  0.0384  0.1648  0.5628
  732MOL0     C96515   7.752   7.021   6.158  0.1246 -0.1196 -0.3116
  732MOL0     O96516   7.782   7.119   6.258  0.1406 -0.1274  0.3449
  732MOL0     C96517   7.780   7.250   6.217  0.5021 -0.2498 -0.1669
  732MOL0     C96518   7.777   7.296   6.088  0.1455 -0.3067 -0.2773
  732MOL0     C96519   7.775   7.437   6.060  0.1018 -0.3360  0.2755
  732MOL0     C96520   7.783   7.535   6.158  0.2576 -0.5006 -0.8901
  732MOL0     C96521   7.814   7.678   6.126 -0.4566  0.1498 -0.1637
  732MOL0     O96522   7.854   7.761   6.230  0.1088  0.3715  0.0659
  732MOL0     C96523   7.786   7.877   6.249  0.3808  0.7917  0.0590
  732MOL0     C96524   7.647   7.913   6.201 -0.9022  1.1092  0.1102
  732MOL0     C96525   7.586   8.026   6.256 -0.3843 -0.1772 -0.0222
  732MOL0     C96526   7.651   8.112   6.349  0.1387 -0.0494  0.1868
  732MOL0     O96527   7.605   8.228   6.403  0.5260  0.0615  0.1636
  732MOL0     C96528   7.521   8.311   6.329  0.1732 -0.5312 -1.1734
  732MOL0     C96529   7.383   8.299   6.386 -0.5035  1.0222 -0.8184
  732MOL0     C96530   7.292   8.375   6.297  0.7096 -0.5403  0.1817
  732MOL0     C96531   7.297   8.532   6.321 -0.2347  0.1159  0.6943
  732MOL0     C96532   7.195   8.606   6.237  0.5047 -0.1978 -0.3592
  732MOL0     C96533   7.187   8.746   6.269  0.0561 -0.4764  0.2961
  732MOL0     C96534   7.071   8.812   6.189 -0.6092  0.3802  0.5867
  732MOL0     C96535   7.075   8.964   6.173 -0.6461  0.6463  0.3358
  732MOL0    Cl96536   6.912   9.033   6.138  0.0506 -0.3080  0.1409
  732MOL0     C96537   7.779   8.075   6.403 -0.3068  0.4116  1.1090
  732MOL0     C96538   7.840   7.959   6.350 -0.0738 -0.4288 -1.3505
  732MOL0     O96539   7.792   7.710   6.010  0.8701  0.1610  0.6964
  732MOL0     C96540   7.807   7.488   6.293 -0.0197  0.1385  0.4833
  732MOL0     C96541   7.801   7.345   6.316  0.2044 -0.2279  0.2957
  732MOL0     N96542   8.014   6.835   5.814  0.6483  0.5985 -0.2791
  732MOL0     N96543   8.080   6.890   5.728 -0.1107 -0.0781 -0.4648
  732MOL0     C96544   9.127   6.684   5.235  0.0466 -0.1941 -0.6578
  732MOL0     C96545   9.247   6.720   5.298  0.7359 -0.2169 -1.1194
  732MOL0     C96546   9.561   7.042   5.450 -0.6833  0.0901 -0.4234
  732MOL0     C96547   9.664   6.965   5.400  1.0736 -0.1197 -0.0362
  732MOL0     C96548   9.795   7.004   5.433  0.7204 -0.4400 -0.2155
  732MOL0     C96549   9.823   7.117   5.508  0.2197 -0.4765  0.7590
  732MOL0     O96550   9.947   7.168   5.529 -0.2715 -0.1364 -0.0902
  732MOL0     C96551  10.050   7.118   5.444  0.5236 -0.4001 -0.3437
  732MOL0     C96552  10.174   7.180   5.486 -0.0428 -0.2382 -0.0937
  732MOL0     C96553  10.294   7.134   5.411  0.8877  0.3110  1.0006
  732MOL0     C96554  10.415   7.171   5.491 -0.3789  0.5342 -0.3371
  732MOL0     C96555  10.529   7.088   5.451  0.2953 -0.7551 -0.2597
  732MOL0     C96556  10.607   7.016   5.406 -0.3943 -0.3813 -0.8153
  732MOL0     C96557   9.720   7.190   5.559  1.1812 -0.5815  0.1737
  732MOL0     C96558   9.587   7.154   5.534 -0.8675 -0.8724  0.2131
  732MOL0     H96559   9.197   7.051   5.256 -2.3439  0.5450 -1.1024
  732MOL0     H96560   8.972   6.987   5.189  0.0013 -1.2354 -0.9955
  732MOL0     H96561   8.896   6.605   5.331 -2.1528 -0.1683  1.5327
  732MOL0     H96562   8.816   6.538   5.186  0.1902 -1.3605  0.1802
  732MOL0     H96563   8.643   6.586   5.351  1.2995 -1.4858 -0.7066
  732MOL0     H96564   8.645   6.723   5.225  0.2513 -0.1926  0.3492
  732MOL0     H96565   8.796   6.847   5.366 -1.9107  1.2774 -1.0245
  732MOL0     H96566   8.788   6.737   5.494 -2.5082  0.0531  1.2489
  732MOL0     H96567   8.532   6.848   5.383 -0.9558  0.0389  1.0099
  732MOL0     H96568   8.541   6.744   5.514  0.1296 -0.9397 -0.8117
  732MOL0     H96569   8.700   6.994   5.534  0.0855  0.0921 -0.1505
  732MOL0     H96570   8.651   6.882   5.652  3.3932 -2.4861 -2.6777
  732MOL0     H96571   8.429   6.990   5.492  3.4920 -1.9539 -1.9923
  732MOL0     H96572   8.518   7.117   5.580  1.7616  0.8653 -1.7763
  732MOL0     H96573   8.410   6.855   5.692  1.5259  0.1265 -1.6982
  732MOL0     H96574   8.479   6.993   5.791  1.5371  0.3689 -1.5524
  732MOL0     H96575   8.244   7.058   5.619  0.7220 -2.4517 -1.5114
  732MOL0     H96576   8.292   7.123   5.785 -1.7217 -0.2150 -0.1600
  732MOL0     H96577   8.265   6.935   5.997 -1.8795 -0.4093  1.7525
  732MOL0     H96578   8.109   6.731   6.106  0.5552  2.5285  0.7548
  732MOL0     H96579   7.938   6.713   6.038 -0.5571 -0.0510 -0.5431
  732MOL0     H96580   8.057   6.947   6.193  1.3562 -0.7995 -4.6403
  732MOL0     H96581   7.920   6.843   6.243 -1.6717 -3.8371 -2.1958
  732MOL0     H96582   7.914   7.072   6.047 -1.4807  1.0799  1.1417
  732MOL0     H96583   7.823   6.921   6.004 -1.3025  1.3557  0.5307
  732MOL0     H96584   7.693   6.941   6.205  0.9348  0.3173  1.5447
  732MOL0     H96585   7.682   7.065   6.086 -1.1787 -0.3129  0.7981
  732MOL0     H96586   7.776   7.225   6.006  0.4328 -2.9455  1.8742
  732MOL0     H96587   7.768   7.469   5.957  1.8275 -2.3145 -0.5166
  732MOL0     H96588   7.589   7.858   6.128 -2.3493  0.6774  1.5241
  732MOL0     H96589   7.490   8.066   6.224  0.0963 -1.3388 -3.2769
  732MOL0     H96590   7.524   8.282   6.224 -1.2463 -2.9370 -0.6301
  732MOL0     H96591   7.559   8.413   6.332  2.7774 -1.4215 -1.4171
  732MOL0     H96592   7.369   8.333   6.489  0.0795  0.6592 -0.6147
  732MOL0     H96593   7.355   8.194   6.373 -1.0107  0.6691  2.3289
  732MOL0     H96594   7.187   8.349   6.315  0.3384  0.9290  0.2695
  732MOL0     H96595   7.315   8.355   6.192  5.0153  0.4508  0.7519
  732MOL0     H96596   7.274   8.547   6.427  2.6320 -3.4605  2.0203
  732MOL0     H96597   7.393   8.583   6.312  0.7508 -1.6734  0.6010
  732MOL0     H96598   7.093   8.567   6.248  0.5451 -0.4685 -0.9291
  732MOL0     H96599   7.228   8.603   6.133  0.2749  0.0335 -0.4423
  732MOL0     H96600   7.281   8.789   6.234  0.1600 -0.1128  1.0182
  732MOL0     H96601   7.190   8.763   6.377  3.5839  1.4494  0.0217
  732MOL0     H96602   7.060   8.762   6.093 -0.7955 -0.2341  0.9245
  732MOL0     H96603   6.976   8.788   6.238  0.3361 -0.3182  2.1484
  732MOL0     H96604   7.137   8.997   6.089 -0.3026 -1.9192 -0.5181
  732MOL0     H96605   7.107   9.000   6.271 -0.3000 -0.3186  0.5818
  732MOL0     H96606   7.829   8.142   6.471  3.9864  0.0230 -1.2602
  732MOL0     H96607   7.937   7.934   6.391 -1.7366 -1.1438  2.5565
  732MOL0     H96608   7.823   7.558   6.374  1.9121  1.1736 -0.7104
  732MOL0     H96609   7.807   7.311   6.419 -3.9610 -0.3672  0.6515
  732MOL0     H96610   9.115   6.578   5.218 -1.5597  0.3134 -3.4027
  732MOL0     H96611   9.316   6.651   5.345  1.3415  0.5591 -0.8379
  732MOL0     H96612   9.656   6.878   5.336  0.8876 -1.8976  2.2460
  732MOL0     H96613   9.876   6.940   5.400  0.2397 -2.6167  2.4765
  732MOL0     H96614  10.042   7.155   5.341  4.4695  2.4225  0.1201
  732MOL0     H96615  10.054   7.009   5.445  2.9839 -0.4132 -1.8143
  732MOL0     H96616  10.163   7.289   5.480 -0.8941 -0.2777  0.6175
  732MOL0     H96617  10.183   7.153   5.591 -0.3000 -0.2802 -0.0834
  732MOL0     H96618  10.280   7.175   5.310  1.5421 -3.2698 -0.7031
  732MOL0     H96619  10.297   7.026   5.394 -0.6525  0.3226  0.5749
  732MOL0     H96620  10.451   7.273   5.476  3.5806 -0.9305 -2.1180
  732MOL0     H96621  10.396   7.151   5.597 -0.6359  0.2985 -0.4264
  732MOL0     H96622  10.690   6.959   5.369  0.3632  1.4844 -2.1438
  732MOL0     H96623   9.754   7.269   5.625  0.1640  1.5464 -1.7332
  732MOL0     H96624   9.516   7.217   5.588 -0.5193  0.0903 -0.4216
  733MOL0     O96625   0.563  11.114   4.228  0.5660 -0.5042  0.3347
  733MOL0     C96626   0.618  11.164   4.128 -0.5060  0.5516 -0.2149
  733MOL0     O96627   0.577  11.178   4.001  0.3514 -0.0480 -0.2213
  733MOL0     C96628   0.445  11.159   3.971 -0.1759 -0.2608  0.2051
  733MOL0     C96629   0.396  11.072   3.869  0.6324 -0.3233  0.2110
  733MOL0     C96630   0.262  11.071   3.839 -0.1998  0.5936 -0.1195
  733MOL0     C96631   0.165  11.143   3.906  0.8454 -0.1926 -0.0438
  733MOL0     O96632   0.032  11.146   3.885 -0.3657  0.3580  0.8269
  733MOL0     C96633  -0.031  11.028   3.824 -0.3201 -0.4137 -0.0540
  733MOL0     C96634  -0.182  11.052   3.812  0.5008 -0.1107 -0.1202
  733MOL0     C96635  -0.237  11.041   3.953 -0.1911  0.1687 -0.0696
  733MOL0     C96636  -0.372  11.115   3.989 -1.2458 -0.2942 -0.1421
  733MOL0     C96637  -0.460  11.013   4.053 -0.1064 -0.4554 -0.3958
  733MOL0     C96638  -0.597  11.057   4.097  0.2417 -1.1110  0.0843
  733MOL0     C96639  -0.575  11.141   4.223  0.3174  0.3126  0.3003
  733MOL0     C96640  -0.708  11.180   4.287 -0.0683 -0.8478 -0.5716
  733MOL0     N96641  -0.687  11.249   4.418  0.4488  0.1941  0.4826
  733MOL0     C96642  -0.580  11.321   4.451 -0.3395  0.2735  0.0246
  733MOL0     C96643  -0.612  11.388   4.564 -0.0705 -0.3555 -0.1391
  733MOL0     C96644  -0.527  11.503   4.634 -0.5129  0.5968 -0.1606
  733MOL0     C96645  -0.375  11.472   4.634 -0.4395  0.0222 -0.1395
  733MOL0     C96646  -0.327  11.361   4.732  0.3008  0.7202 -0.3241
  733MOL0     C96647  -0.172  11.327   4.733  0.0116 -0.6086  0.4511
  733MOL0     O96648  -0.095  11.454   4.730  0.5234  0.4417 -0.2468
  733MOL0     C96649   0.030  11.452   4.778  0.6358  0.2729 -0.4780
  733MOL0     C96650   0.091  11.573   4.808 -0.5863 -0.0480  0.5235
  733MOL0     C96651   0.223  11.574   4.854 -0.3292  0.1072 -0.8934
  733MOL0     C96652   0.301  11.461   4.851  1.0889  0.0997 -0.0402
  733MOL0     C96653   0.443  11.461   4.900  0.5681  0.5359  0.7439
  733MOL0     O96654   0.517  11.348   4.868  0.6440 -0.2894 -0.0069
  733MOL0     C96655   0.654  11.356   4.847  0.2559  0.0182 -0.6616
  733MOL0     C96656   0.705  11.299   4.731  0.8300 -0.8444 -0.3607
  733MOL0     C96657   0.836  11.342   4.690  0.6632  0.5457 -0.7350
  733MOL0     C96658   0.930  11.405   4.772 -0.1503  0.9532 -0.3555
  733MOL0     O96659   1.046  11.432   4.711 -0.1646  0.1949 -0.7318
  733MOL0     C96660   1.140  11.503   4.788  0.2355  0.6526  0.4403
  733MOL0     C96661   1.274  11.496   4.723  0.2549 -0.3462  0.5785
  733MOL0     C96662   1.345  11.356   4.733  0.2743  0.3209  0.9842
  733MOL0     C96663   1.472  11.351   4.648  0.0184 -1.0104 -0.5017
  733MOL0     C96664   1.545  11.224   4.664 -0.4548  0.2102 -0.9718
  733MOL0     C96665   1.464  11.115   4.605  0.3448 -0.1136  0.0608
  733MOL0     C96666   1.540  10.979   4.612 -0.0146 -1.6113  0.1740
  733MOL0     C96667   1.503  10.874   4.512 -0.6773  0.3827  0.5106
  733MOL0    Cl96668   1.611  10.730   4.530 -0.1574  0.2140 -0.1916
  733MOL0     C96669   0.880  11.442   4.903  0.2797 -0.6335  0.5273
  733MOL0     C96670   0.745  11.423   4.940  0.4640  0.3921 -0.2333
  733MOL0     O96671   0.484  11.569   4.935 -0.1275  0.8905 -0.6311
  733MOL0     C96672   0.247  11.351   4.806  1.0940  1.0445 -0.3252
  733MOL0     C96673   0.111  11.338   4.769 -0.6761 -0.5090 -0.5832
  733MOL0     N96674  -0.732  11.334   4.607 -0.0946 -0.6281  0.5090
  733MOL0     N96675  -0.781  11.257   4.519  0.4675 -0.4933 -0.3094
  733MOL0     C96676   0.215  11.233   4.002  0.7976  0.0210 -0.1413
  733MOL0     C96677   0.347  11.234   4.038 -0.8076 -0.6792 -0.1326
  733MOL0     C96678   0.754  11.215   4.155 -0.5135 -0.1390 -0.1893
  733MOL0     C96679   0.799  11.247   4.288 -0.3201 -0.5753  0.6104
  733MOL0     C96680   0.927  11.298   4.308 -0.1780 -0.2041  0.0488
  733MOL0     C96681   1.015  11.319   4.197 -0.0126  0.4937  0.4400
  733MOL0     O96682   1.132  11.384   4.231 -0.4591 -0.3937  0.2515
  733MOL0     C96683   1.248  11.375   4.143 -0.4657  0.3672 -0.5814
  733MOL0     C96684   1.363  11.323   4.223  0.5455 -0.6010  0.7796
  733MOL0     C96685   1.497  11.383   4.186 -0.4234 -0.0715 -0.2273
  733MOL0     C96686   1.624  11.333   4.273 -0.4370  0.1972 -0.0984
  733MOL0     C96687   1.743  11.391   4.211 -0.3818  0.1041 -0.1253
  733MOL0     C96688   1.845  11.408   4.145  0.5544 -0.1034 -0.2712
  733MOL0     C96689   0.973  11.286   4.068 -1.7553 -0.1061 -0.6399
  733MOL0     C96690   0.847  11.238   4.057  0.4938  0.8091  0.8273
  733MOL0     H96691   0.462  10.999   3.823 -1.7490 -1.8861 -0.9651
  733MOL0     H96692   0.242  11.003   3.757  1.8983  0.5778 -0.6724
  733MOL0     H96693   0.003  10.933   3.866  1.8421 -0.7181 -2.2178
  733MOL0     H96694   0.008  11.027   3.721 -1.3529  0.5478 -0.4706
  733MOL0     H96695  -0.225  10.974   3.748  1.9294  0.0969 -1.3816
  733MOL0     H96696  -0.202  11.148   3.764 -2.8425 -0.8831 -0.5355
  733MOL0     H96697  -0.164  11.086   4.021 -0.1020 -2.1224  1.4474
  733MOL0     H96698  -0.242  10.937   3.985  1.4972  0.1918  0.3732
  733MOL0     H96699  -0.344  11.197   4.056 -0.9963  2.1863 -3.0336
  733MOL0     H96700  -0.433  11.152   3.906 -2.6291 -2.3742 -0.1225
  733MOL0     H96701  -0.418  10.974   4.146  1.8771 -0.6749 -1.3424
  733MOL0     H96702  -0.468  10.928   3.985  0.6403  0.6506 -1.9299
  733MOL0     H96703  -0.652  10.962   4.105  1.2101 -1.6261  0.8239
  733MOL0     H96704  -0.645  11.105   4.011 -0.5059 -1.3007  0.3808
  733MOL0     H96705  -0.524  11.076   4.294  1.0349  1.7526  1.1293
  733MOL0     H96706  -0.508  11.227   4.216 -1.5382  1.7375 -1.6579
  733MOL0     H96707  -0.764  11.087   4.300  0.7738 -1.5782 -1.9667
  733MOL0     H96708  -0.754  11.244   4.211 -2.0433 -1.2128  0.2479
  733MOL0     H96709  -0.496  11.350   4.388 -1.7584  2.2929 -1.0353
  733MOL0     H96710  -0.569  11.531   4.731  2.2909  0.9330  1.0593
  733MOL0     H96711  -0.536  11.594   4.573 -1.0517  0.5165 -0.2071
  733MOL0     H96712  -0.317  11.563   4.653 -1.6376  0.3710  2.2069
  733MOL0     H96713  -0.344  11.430   4.538 -0.3550  1.2824 -0.6860
  733MOL0     H96714  -0.348  11.384   4.837 -0.2460 -1.7121  0.1593
  733MOL0     H96715  -0.376  11.268   4.704  1.1488  0.3563 -0.6094
  733MOL0     H96716  -0.152  11.274   4.639 -3.1917  2.3282 -2.1798
  733MOL0     H96717  -0.153  11.263   4.819 -0.8443  0.2052  1.2597
  733MOL0     H96718   0.038  11.667   4.797  2.0555  1.2993 -2.3939
  733MOL0     H96719   0.243  11.670   4.900 -3.0042 -0.8911  2.8756
  733MOL0     H96720   0.637  11.245   4.667 -0.3805  0.5025 -0.2637
  733MOL0     H96721   0.869  11.301   4.595  1.7197 -1.1820  0.3128
  733MOL0     H96722   1.149  11.452   4.884 -2.9509  1.9491  1.5587
  733MOL0     H96723   1.100  11.603   4.810 -1.0530 -0.0160  1.2943
  733MOL0     H96724   1.342  11.563   4.775  2.0428 -3.3771  2.4367
  733MOL0     H96725   1.262  11.525   4.618 -0.4821 -0.8936  0.5006
  733MOL0     H96726   1.271  11.287   4.692  1.3982  0.5802 -1.6226
  733MOL0     H96727   1.364  11.353   4.841  1.3856  3.2537  0.9685
  733MOL0     H96728   1.443  11.366   4.543  1.7610 -0.9123 -1.0004
  733MOL0     H96729   1.534  11.436   4.679 -1.5393  0.1435 -0.4532
  733MOL0     H96730   1.573  11.202   4.768  2.7616  1.3052 -1.4852
  733MOL0     H96731   1.644  11.243   4.621  0.2576  2.3583  1.3728
  733MOL0     H96732   1.430  11.134   4.503  2.8814 -0.9965 -1.0570
  733MOL0     H96733   1.377  11.097   4.668  0.7992 -0.2942  0.6449
  733MOL0     H96734   1.645  10.997   4.590 -0.7016  0.0709 -2.0847
  733MOL0     H96735   1.538  10.934   4.712  2.8957 -3.0019 -0.2939
  733MOL0     H96736   1.523  10.922   4.416 -1.0712  0.5761  0.5221
  733MOL0     H96737   1.397  10.847   4.524 -0.5810  0.2295  1.0294
  733MOL0     H96738   0.942  11.495   4.975 -0.5777  0.7310  0.2866
  733MOL0     H96739   0.709  11.459   5.036  0.6240 -3.2928  1.3661
  733MOL0     H96740   0.314  11.266   4.816 -1.0279 -0.7277 -0.4943
  733MOL0     H96741   0.084  11.238   4.734 -1.2623 -0.4779 -0.2492
  733MOL0     H96742   0.136  11.283   4.056  0.5714 -1.0937  0.5817
  733MOL0     H96743   0.377  11.299   4.120  0.0609 -1.6869  0.3809
  733MOL0     H96744   0.719  11.239   4.361 -1.1330  3.2777  0.3484
  733MOL0     H96745   0.960  11.333   4.405  3.4355 -1.1757 -0.6769
  733MOL0     H96746   1.267  11.480   4.121 -1.9024  1.2453  1.9160
  733MOL0     H96747   1.244  11.323   4.046  2.4505  4.7425 -3.3857
  733MOL0     H96748   1.347  11.359   4.325 -0.8453 -2.4971  1.3097
  733MOL0     H96749   1.371  11.213   4.221 -0.9516 -0.7286 -1.2014
  733MOL0     H96750   1.495  11.493   4.189  6.2658  0.5650 -2.2286
  733MOL0     H96751   1.518  11.345   4.086 -0.9317  1.9476 -1.1647
  733MOL0     H96752   1.620  11.378   4.373 -0.0702 -0.5264  0.2517
  733MOL0     H96753   1.627  11.224   4.284 -5.2616 -0.0848  0.8961
  733MOL0     H96754   1.940  11.411   4.095  1.6415  1.0507  1.7379
  733MOL0     H96755   1.019  11.308   3.972  1.2813 -0.4341  0.6322
  733MOL0     H96756   0.809  11.219   3.957  0.8587  0.4183  0.7580
  734MOL0     O96757   6.610   9.512   5.354 -0.1313 -0.8249 -0.3863
  734MOL0     C96758   6.549   9.414   5.316  0.3772  0.1010 -0.2321
  734MOL0     O96759   6.421   9.392   5.352 -0.2404 -0.5738 -0.2342
  734MOL0     C96760   6.352   9.466   5.443  0.1219  0.7770  0.3342
  734MOL0     C96761   6.350   9.606   5.462 -0.8109  1.1527 -0.4117
  734MOL0     C96762   6.260   9.667   5.552  0.5183 -0.4395 -0.0622
  734MOL0     C96763   6.174   9.594   5.632 -0.1844 -0.5742 -0.3979
  734MOL0     O96764   6.088   9.664   5.708 -0.3466 -1.7149 -0.0750
  734MOL0     C96765   5.987   9.609   5.797 -0.0157  0.6667  0.4584
  734MOL0     C96766   6.053   9.587   5.934 -0.0793  0.1481  0.0028
  734MOL0     C96767   5.962   9.641   6.053 -0.2760  0.0456  0.1088
  734MOL0     C96768   6.019   9.596   6.194  0.3409  0.5505  0.5256
  734MOL0     C96769   5.907   9.580   6.297 -0.6470  1.0649 -0.4182
  734MOL0     C96770   5.836   9.700   6.338 -0.0088  0.5091 -0.0648
  734MOL0     C96771   5.732   9.660   6.448 -0.3785 -0.5318 -0.2273
  734MOL0     C96772   5.623   9.552   6.428  0.3817 -0.4870 -0.1131
  734MOL0     N96773   5.554   9.557   6.299 -0.6325  0.2992  0.0983
  734MOL0     C96774   5.556   9.462   6.197 -0.8225  0.5182  0.3046
  734MOL0     C96775   5.469   9.505   6.108  0.3414 -0.0701 -0.0968
  734MOL0     C96776   5.462   9.446   5.966 -0.4403 -0.5192 -0.1961
  734MOL0     C96777   5.585   9.504   5.893  0.1061  0.4666  0.5166
  734MOL0     C96778   5.586   9.505   5.741 -0.1587  0.6304  0.3026
  734MOL0     C96779   5.538   9.379   5.674 -0.4180  0.0677 -1.1072
  734MOL0     O96780   5.605   9.258   5.714 -0.3564 -0.1948 -0.6052
  734MOL0     C96781   5.709   9.221   5.647  0.1789  0.0166 -0.0877
  734MOL0     C96782   5.786   9.295   5.552  0.6839 -0.3377  0.5794
  734MOL0     C96783   5.909   9.254   5.508 -0.4408 -0.5086  0.1098
  734MOL0     C96784   5.949   9.127   5.537 -0.4820  0.7279 -0.8773
  734MOL0     C96785   6.072   9.071   5.475 -0.4905 -0.6192  0.3083
  734MOL0     O96786   6.144   8.972   5.530 -0.1956  0.8954 -0.2287
  734MOL0     C96787   6.229   8.908   5.447  0.0750  0.7211  0.7864
  734MOL0     C96788   6.340   8.973   5.392 -0.4002 -0.1445 -0.1250
  734MOL0     C96789   6.435   8.910   5.320  0.5144 -0.3819 -0.1935
  734MOL0     C96790   6.424   8.777   5.296  0.2498  0.3484 -0.7326
  734MOL0     O96791   6.517   8.731   5.212  0.2561 -0.1746  1.0142
  734MOL0     C96792   6.500   8.592   5.168  0.2788  0.6358 -0.0555
  734MOL0     C96793   6.611   8.581   5.046 -0.1153  0.7033 -0.9523
  734MOL0     C96794   6.642   8.435   5.012  0.1105 -0.7333 -0.0865
  734MOL0     C96795   6.785   8.421   4.965  0.6536  0.3231  0.0901
  734MOL0     C96796   6.820   8.282   4.914 -0.2093 -0.3516  0.0227
  734MOL0     C96797   6.798   8.177   5.021 -0.9983  0.0523  0.5570
  734MOL0     C96798   6.874   8.049   4.993  0.4288  0.4421 -1.2562
  734MOL0     C96799   6.838   7.954   5.111 -0.6512  0.2673 -0.6314
  734MOL0    Cl96800   6.915   7.792   5.101 -0.2212  0.1228  0.6741
  734MOL0     C96801   6.320   8.699   5.357 -0.3360 -0.9063 -0.1169
  734MOL0     C96802   6.225   8.771   5.437 -0.0450  0.4810  0.0741
  734MOL0     O96803   6.087   9.103   5.360  0.8596 -0.3692 -0.5406
  734MOL0     C96804   5.875   9.052   5.624  1.3966 -0.1333 -0.3380
  734MOL0     C96805   5.743   9.088   5.671 -0.6012 -0.4655 -0.4083
  734MOL0     N96806   5.420   9.629   6.146 -0.3034  0.8041 -0.0995
  734MOL0     N96807   5.459   9.651   6.273  0.1098  0.7809  0.7388
  734MOL0     C96808   6.177   9.455   5.609 -0.6956 -0.3732 -0.1261
  734MOL0     C96809   6.256   9.393   5.512 -0.0973 -0.3046  0.0396
  734MOL0     C96810   6.605   9.326   5.215  0.0859 -0.7529  0.2431
  734MOL0     C96811   6.728   9.351   5.154 -0.4205  0.0099  0.0262
  734MOL0     C96812   6.772   9.272   5.050 -0.1765  0.0768  0.7326
  734MOL0     C96813   6.702   9.161   4.998  0.6392 -0.2352  0.4868
  734MOL0     O96814   6.755   9.096   4.891 -0.3621 -0.2200 -0.5463
  734MOL0     C96815   6.706   8.969   4.853  1.1160 -0.1902  1.1929
  734MOL0     C96816   6.794   8.894   4.758 -0.3046  0.5423 -0.3327
  734MOL0     C96817   6.764   8.745   4.739 -0.2962 -0.2247  1.0075
  734MOL0     C96818   6.843   8.680   4.617  0.6127 -0.4929 -0.6125
  734MOL0     C96819   6.773   8.553   4.571  0.3733 -0.6667 -0.4443
  734MOL0     C96820   6.730   8.450   4.529  0.4912  0.3182 -0.2711
  734MOL0     C96821   6.583   9.125   5.061 -0.6642  0.2068  0.4710
  734MOL0     C96822   6.538   9.211   5.166  0.6205 -0.4354  1.0188
  734MOL0     H96823   6.420   9.667   5.407  1.2253 -0.8299 -0.1681
  734MOL0     H96824   6.247   9.775   5.561  0.4032 -0.3694 -0.9620
  734MOL0     H96825   5.941   9.516   5.763 -1.1427  0.5051  2.2747
  734MOL0     H96826   5.912   9.688   5.809 -0.2424  0.1469  3.0299
  734MOL0     H96827   6.156   9.624   5.935 -0.2927  0.8183  1.8859
  734MOL0     H96828   6.070   9.481   5.951  3.2542  0.5876  0.1767
  734MOL0     H96829   5.862   9.596   6.053 -1.1010  1.6673  2.6745
  734MOL0     H96830   5.961   9.750   6.054  2.3107  0.2727  4.4347
  734MOL0     H96831   6.058   9.495   6.179 -1.5546 -0.0759 -0.6147
  734MOL0     H96832   6.095   9.663   6.234  2.5787 -0.3668 -1.8771
  734MOL0     H96833   5.963   9.530   6.377 -0.0932  0.1472 -1.3487
  734MOL0     H96834   5.839   9.502   6.262 -0.8439  2.0158 -2.2110
  734MOL0     H96835   5.781   9.739   6.251 -0.8636  2.7047  1.3559
  734MOL0     H96836   5.913   9.768   6.374  0.4503  0.3327 -0.7108
  734MOL0     H96837   5.793   9.648   6.538  1.7282  2.5703 -1.0690
  734MOL0     H96838   5.678   9.755   6.461  0.0938 -0.0869 -1.3701
  734MOL0     H96839   5.553   9.567   6.510  0.2153 -1.5087 -0.0519
  734MOL0     H96840   5.658   9.450   6.447  0.3094 -0.6617 -0.8991
  734MOL0     H96841   5.608   9.367   6.190 -3.8021 -1.1105 -1.6300
  734MOL0     H96842   5.371   9.479   5.915 -1.4458 -0.6450  1.4620
  734MOL0     H96843   5.454   9.338   5.973  0.7004 -0.8605 -2.8140
  734MOL0     H96844   5.683   9.464   5.921  1.1480  3.7036  2.0636
  734MOL0     H96845   5.580   9.608   5.929 -1.0173 -0.5626  3.7227
  734MOL0     H96846   5.525   9.588   5.706 -0.3016  1.0989  1.5975
  734MOL0     H96847   5.690   9.518   5.711 -0.1548 -0.5888 -0.2968
  734MOL0     H96848   5.553   9.394   5.567  0.5444 -0.8017 -1.1141
  734MOL0     H96849   5.434   9.360   5.702  0.6640 -1.2767  2.7203
  734MOL0     H96850   5.766   9.400   5.534 -0.9877 -0.4357  1.5799
  734MOL0     H96851   5.960   9.310   5.431 -2.7210 -1.5641 -2.3030
  734MOL0     H96852   6.360   9.076   5.416  1.9817  0.1101 -2.7554
  734MOL0     H96853   6.523   8.961   5.281  1.1922 -1.0579  0.4224
  734MOL0     H96854   6.408   8.569   5.113  1.4830  0.1034 -1.9282
  734MOL0     H96855   6.519   8.520   5.248 -2.4061 -0.9385 -0.7220
  734MOL0     H96856   6.702   8.638   5.066  0.5158 -0.3427 -0.7232
  734MOL0     H96857   6.576   8.623   4.952 -2.1095 -0.5845 -0.8337
  734MOL0     H96858   6.568   8.408   4.936 -0.8228  0.6906  0.2632
  734MOL0     H96859   6.626   8.376   5.103 -1.0699 -0.7342 -0.2700
  734MOL0     H96860   6.788   8.486   4.877  0.7260  2.3197  1.5009
  734MOL0     H96861   6.859   8.452   5.041 -1.3593  1.6528  1.6258
  734MOL0     H96862   6.920   8.292   4.869  0.2797 -1.8993  0.7162
  734MOL0     H96863   6.753   8.266   4.829 -2.5475 -0.5612  1.8014
  734MOL0     H96864   6.691   8.151   5.022 -0.5273 -2.2132  2.8904
  734MOL0     H96865   6.840   8.213   5.115  0.9835 -0.1043 -0.2366
  734MOL0     H96866   6.841   8.011   4.895 -1.8482 -0.8305 -0.0807
  734MOL0     H96867   6.981   8.071   4.993  0.3470  0.8445 -0.9280
  734MOL0     H96868   6.731   7.940   5.128 -0.8105  3.3890  2.1668
  734MOL0     H96869   6.871   8.001   5.205 -1.2354 -1.9069  0.7400
  734MOL0     H96870   6.310   8.591   5.354 -1.9321 -0.7629 -1.4683
  734MOL0     H96871   6.145   8.707   5.473  0.2525 -0.8669 -1.5323
  734MOL0     H96872   5.910   8.953   5.651  1.0247  0.0948  1.0089
  734MOL0     H96873   5.683   9.023   5.733  2.2315 -1.1980  1.7653
  734MOL0     H96874   6.103   9.397   5.663 -0.0081  0.2076  1.5186
  734MOL0     H96875   6.249   9.285   5.517 -0.4862 -0.5289 -3.0779
  734MOL0     H96876   6.790   9.440   5.166 -1.0343  0.3753  0.5441
  734MOL0     H96877   6.855   9.316   4.996 -0.7452 -2.7543 -2.8762
  734MOL0     H96878   6.615   8.996   4.799  2.3846 -0.1408 -1.0118
  734MOL0     H96879   6.680   8.906   4.939 -1.8516 -1.2850 -0.3875
  734MOL0     H96880   6.801   8.962   4.673  0.9138 -0.5890 -1.1658
  734MOL0     H96881   6.898   8.897   4.790 -0.6320  0.7749  0.7669
  734MOL0     H96882   6.659   8.740   4.709 -0.2829  0.8574  0.7479
  734MOL0     H96883   6.776   8.685   4.830  3.3847 -1.5041 -0.1230
  734MOL0     H96884   6.833   8.753   4.536 -2.2065 -0.7540 -0.6212
  734MOL0     H96885   6.945   8.656   4.647 -0.0751 -1.4862  1.0463
  734MOL0     H96886   6.701   8.351   4.498 -2.2182  0.7157  0.6908
  734MOL0     H96887   6.534   9.031   5.038 -1.5993  0.4185  1.5161
  734MOL0     H96888   6.447   9.187   5.221  0.6468 -0.8840  0.8716
  735MOL0     O96889   2.314   2.188   9.724 -0.7060 -0.2995 -0.1481
  735MOL0     C96890   2.371   2.140   9.629  1.0534  0.0049  0.7078
  735MOL0     O96891   2.309   2.067   9.528 -0.6802 -0.2871  0.0447
  735MOL0     C96892   2.171   2.075   9.507  0.2382  0.3343 -0.4370
  735MOL0     C96893   2.111   2.198   9.487  0.4660 -0.0587 -0.4888
  735MOL0     C96894   1.976   2.202   9.451 -1.4340  0.0057  0.1020
  735MOL0     C96895   1.894   2.089   9.467 -0.3845 -0.0543  0.1644
  735MOL0     O96896   1.755   2.104   9.436  0.2071  0.1004 -0.2767
  735MOL0     C96897   1.670   2.012   9.491  0.7668 -0.8058 -0.0276
  735MOL0     C96898   1.524   2.064   9.480 -0.5493  0.2799  0.5527
  735MOL0     C96899   1.449   2.019   9.356 -0.1444  0.1614 -0.1257
  735MOL0     C96900   1.304   2.073   9.364 -0.0273  0.2501 -0.4406
  735MOL0     C96901   1.220   2.023   9.238 -0.1250 -0.1360  0.7429
  735MOL0     C96902   1.066   2.063   9.230 -0.1089 -0.3010 -0.3259
  735MOL0     C96903   0.984   2.033   9.351  0.2421  0.2911 -0.0233
  735MOL0     C96904   0.831   2.042   9.329 -0.2103  0.5145 -0.4645
  735MOL0     N96905   0.780   2.174   9.343  0.6027 -0.4649  0.4848
  735MOL0     C96906   0.772   2.279   9.244  0.2989  1.4874  0.5186
  735MOL0     C96907   0.669   2.354   9.289  0.1268 -0.7233 -0.2734
  735MOL0     C96908   0.604   2.451   9.203  0.9445 -0.2395  0.3496
  735MOL0     C96909   0.457   2.422   9.177 -1.0949  0.0635 -0.3145
  735MOL0     C96910   0.396   2.513   9.072  0.2148  0.4715  0.0175
  735MOL0     C96911   0.254   2.454   9.046 -0.6123  0.2700 -0.1935
  735MOL0     O96912   0.165   2.542   8.970 -0.2458  0.3327  0.8094
  735MOL0     C96913   0.028   2.534   8.966  0.9976 -0.9694 -0.2417
  735MOL0     C96914  -0.042   2.640   8.911  0.1690 -1.1525 -0.6729
  735MOL0     C96915  -0.180   2.623   8.886  0.0822  0.1096  0.9661
  735MOL0     C96916  -0.254   2.511   8.912 -0.4302 -0.0973 -0.6696
  735MOL0     C96917  -0.396   2.502   8.875 -0.2430  0.3069  0.0850
  735MOL0     O96918  -0.426   2.575   8.759  0.2559 -0.4360 -0.0199
  735MOL0     C96919  -0.555   2.573   8.708 -0.1467  0.4982  0.3719
  735MOL0     C96920  -0.635   2.689   8.714 -0.1502  0.5749 -0.2651
  735MOL0     C96921  -0.767   2.687   8.671 -0.8822 -0.9455 -0.4039
  735MOL0     C96922  -0.829   2.567   8.616  0.0676  0.1243 -0.3533
  735MOL0     O96923  -0.965   2.543   8.589 -0.3939 -0.3716 -0.2982
  735MOL0     C96924  -1.057   2.643   8.568 -0.0132 -0.0028 -0.5404
  735MOL0     C96925  -1.027   2.718   8.442 -0.5681 -0.0311 -0.5239
  735MOL0     C96926  -1.051   2.643   8.309  0.2908 -0.5348 -0.2710
  735MOL0     C96927  -1.204   2.646   8.271 -0.9480 -0.0995  0.4346
  735MOL0     C96928  -1.221   2.624   8.124  0.2340 -0.0074  0.1155
  735MOL0     C96929  -1.357   2.671   8.078 -0.5248 -0.0048  0.3564
  735MOL0     C96930  -1.370   2.824   8.033  0.0068 -0.0941  0.3839
  735MOL0     C96931  -1.394   2.921   8.153  0.0372 -0.7664  0.2923
  735MOL0    Cl96932  -1.449   3.088   8.107  0.2434 -0.2414  0.0253
  735MOL0     C96933  -0.744   2.452   8.606  0.0770 -0.5869 -0.2323
  735MOL0     C96934  -0.613   2.458   8.651  0.8156 -0.2839 -0.4956
  735MOL0     O96935  -0.480   2.434   8.937  0.3414 -0.0934 -0.0542
  735MOL0     C96936  -0.186   2.408   8.976  0.4594  0.7028 -0.4593
  735MOL0     C96937  -0.051   2.417   9.001  0.5784 -0.5245  0.8796
  735MOL0     N96938   0.637   2.310   9.422  0.0866 -0.5084 -0.0312
  735MOL0     N96939   0.698   2.203   9.440 -0.3061  0.0604 -1.0475
  735MOL0     C96940   1.955   1.965   9.479  0.5286  0.4645  0.1571
  735MOL0     C96941   2.093   1.965   9.505  0.8013  0.0610  0.4634
  735MOL0     C96942   2.522   2.160   9.621 -0.1016 -0.0921 -0.3933
  735MOL0     C96943   2.588   2.227   9.724 -1.0824 -0.3547  1.2821
  735MOL0     C96944   2.722   2.239   9.708 -0.4927  0.4349  0.5107
  735MOL0     C96945   2.799   2.202   9.601  0.7439  0.4096  0.1211
  735MOL0     O96946   2.931   2.223   9.600  0.3469  0.0337  0.7629
  735MOL0     C96947   3.008   2.197   9.483 -0.7514  0.8535  1.0801
  735MOL0     C96948   3.164   2.192   9.511 -0.3586 -0.4916  0.6177
  735MOL0     C96949   3.222   2.157   9.368  0.9153  0.1477 -0.2867
  735MOL0     C96950   3.374   2.137   9.361  0.2919  0.0865 -0.1630
  735MOL0     C96951   3.417   2.039   9.457 -0.1110 -0.7177 -0.0315
  735MOL0     C96952   3.446   1.948   9.536  0.6110 -1.2796 -1.1017
  735MOL0     C96953   2.732   2.144   9.499  0.0769  0.4905 -0.9832
  735MOL0     C96954   2.591   2.130   9.507  0.1087 -0.2093  0.7443
  735MOL0     H96955   2.180   2.281   9.488 -0.1395  0.4912  1.9179
  735MOL0     H96956   1.940   2.295   9.409  0.0575  0.4236 -0.3057
  735MOL0     H96957   1.696   1.992   9.595  2.4360 -0.0733 -0.2652
  735MOL0     H96958   1.688   1.918   9.438  2.1238 -2.3982  2.9768
  735MOL0     H96959   1.528   2.173   9.491 -4.6224  0.5113  1.4107
  735MOL0     H96960   1.470   2.025   9.566 -0.3891  1.1552  1.0592
  735MOL0     H96961   1.451   1.910   9.349 -0.3226  0.1148  0.4729
  735MOL0     H96962   1.499   2.054   9.265  1.1256  3.0137  1.5533
  735MOL0     H96963   1.255   2.034   9.453  0.6779 -0.0612 -0.1774
  735MOL0     H96964   1.319   2.181   9.373  2.7647 -0.0766 -0.2428
  735MOL0     H96965   1.226   1.915   9.250  0.0125 -0.4160 -1.5090
  735MOL0     H96966   1.259   2.051   9.140  0.9352 -0.3589  1.0818
  735MOL0     H96967   1.034   1.997   9.149 -0.4261 -0.3398 -0.1707
  735MOL0     H96968   1.067   2.169   9.206 -0.4788  0.4135  2.4905
  735MOL0     H96969   1.006   1.931   9.382 -0.4888  0.0727 -0.2119
  735MOL0     H96970   1.015   2.104   9.428  3.0480 -3.0367  2.2406
  735MOL0     H96971   0.786   1.964   9.391  0.6977  0.4487  0.1192
  735MOL0     H96972   0.804   2.007   9.228 -1.6813 -0.5559  0.2588
  735MOL0     H96973   0.830   2.270   9.153  3.1918 -1.3731  2.4110
  735MOL0     H96974   0.656   2.455   9.107 -1.0178  0.2171 -0.7521
  735MOL0     H96975   0.622   2.545   9.256 -1.7541  1.3627 -1.3251
  735MOL0     H96976   0.393   2.435   9.265 -0.5337  3.0824 -0.2456
  735MOL0     H96977   0.459   2.318   9.143  2.2869  1.1050 -4.0622
  735MOL0     H96978   0.380   2.608   9.124 -1.1506  0.7966 -0.9419
  735MOL0     H96979   0.450   2.525   8.978 -0.4066 -1.0717 -0.5770
  735MOL0     H96980   0.194   2.442   9.137 -0.2469  0.8017  0.1236
  735MOL0     H96981   0.271   2.369   8.979  2.1938  2.5692 -2.6671
  735MOL0     H96982  -0.010   2.729   8.858 -4.5918 -0.8635 -3.6956
  735MOL0     H96983  -0.215   2.708   8.828 -0.6139 -0.0308  1.1731
  735MOL0     H96984  -0.595   2.785   8.747  0.0468  0.7543 -1.0031
  735MOL0     H96985  -0.824   2.779   8.672  0.2399 -0.2053  1.6060
  735MOL0     H96986  -1.054   2.695   8.664 -1.6054  1.5452 -1.2692
  735MOL0     H96987  -1.151   2.591   8.548 -0.5924  0.1462  1.5742
  735MOL0     H96988  -0.923   2.750   8.452 -0.8322 -0.0276  4.7238
  735MOL0     H96989  -1.088   2.808   8.438 -0.3761  0.3219  2.5028
  735MOL0     H96990  -1.013   2.541   8.306  2.2767  0.1596 -0.6071
  735MOL0     H96991  -0.993   2.691   8.229 -1.2186  0.1135 -1.0342
  735MOL0     H96992  -1.260   2.573   8.329 -1.7665  1.4888  1.7159
  735MOL0     H96993  -1.240   2.747   8.290 -0.8747 -0.2020  1.1218
  735MOL0     H96994  -1.208   2.517   8.105  0.7069  0.2351 -1.0303
  735MOL0     H96995  -1.141   2.667   8.062  0.6411  0.0952  0.7024
  735MOL0     H96996  -1.437   2.649   8.150 -1.0504 -0.3379 -0.3220
  735MOL0     H96997  -1.380   2.605   7.994 -1.4122  0.9863 -0.2181
  735MOL0     H96998  -1.282   2.870   7.987  1.5335  0.7001  3.8159
  735MOL0     H96999  -1.450   2.824   7.958 -2.5770 -1.1681  2.9544
  735MOL0     H97000  -1.304   2.941   8.212  0.2417  3.2661 -1.0593
  735MOL0     H97001  -1.476   2.885   8.216  0.4693 -2.4232 -0.0391
  735MOL0     H97002  -0.779   2.353   8.576  0.0429  0.0229 -2.3802
  735MOL0     H97003  -0.559   2.364   8.652 -0.0994 -1.0217  4.0761
  735MOL0     H97004  -0.249   2.320   8.987  1.6157  0.0819  1.6468
  735MOL0     H97005   0.003   2.327   9.031 -0.3906 -0.7883  1.8781
  735MOL0     H97006   1.891   1.879   9.488  0.8739  0.1574 -0.2696
  735MOL0     H97007   2.145   1.873   9.529  1.8860  0.0703 -1.5520
  735MOL0     H97008   2.544   2.273   9.812  1.3227  1.8649  1.4490
  735MOL0     H97009   2.769   2.276   9.799 -0.5863  0.6841  0.4590
  735MOL0     H97010   2.989   2.279   9.414  1.4060  0.5682  0.0585
  735MOL0     H97011   2.979   2.104   9.433  1.1570  1.0432 -0.4810
  735MOL0     H97012   3.205   2.287   9.546  2.2933 -1.6827  0.9370
  735MOL0     H97013   3.191   2.107   9.573  0.0431 -0.8747 -0.0755
  735MOL0     H97014   3.204   2.231   9.289  1.8878  0.7285  0.0219
  735MOL0     H97015   3.175   2.071   9.321  0.4859  1.4490 -2.3592
  735MOL0     H97016   3.405   2.111   9.260  3.3028  4.9464 -0.8110
  735MOL0     H97017   3.420   2.233   9.387 -0.0321 -0.3214  2.1208
  735MOL0     H97018   3.480   1.857   9.582  1.8734 -0.1696  0.2583
  735MOL0     H97019   2.781   2.120   9.405  0.9549 -0.6638 -0.2462
  735MOL0     H97020   2.537   2.088   9.423 -1.6516  3.3088 -0.0493
  736MOL0     O97021   4.774   9.399   4.851  0.6720  0.2039 -0.4814
  736MOL0     C97022   4.770   9.436   4.970 -0.2623  0.5011 -0.1527
  736MOL0     O97023   4.866   9.511   5.033 -0.0166 -0.8337  0.4761
  736MOL0     C97024   4.992   9.542   4.972  0.3481  0.1147  0.5836
  736MOL0     C97025   5.037   9.673   4.971  0.0126 -0.3472  0.1850
  736MOL0     C97026   5.168   9.704   4.931 -0.6615  0.6676  0.7406
  736MOL0     C97027   5.256   9.603   4.875  0.5017  0.0622 -0.3984
  736MOL0     O97028   5.375   9.653   4.817  0.1611  0.0756 -0.2451
  736MOL0     C97029   5.474   9.550   4.783  1.5569 -0.1477 -0.4173
  736MOL0     C97030   5.605   9.619   4.755  0.6853 -0.6570  0.3203
  736MOL0     C97031   5.690   9.536   4.668  1.0135  0.7372 -0.2097
  736MOL0     C97032   5.825   9.541   4.727 -0.4424  1.1317  0.5216
  736MOL0     C97033   5.916   9.427   4.676 -0.8750  0.4181 -0.8767
  736MOL0     C97034   5.951   9.429   4.526 -0.5691 -1.1202  1.2023
  736MOL0     C97035   6.056   9.325   4.486  1.2272 -0.3989  0.1875
  736MOL0     C97036   6.084   9.344   4.337  0.5829 -0.4000  0.1718
  736MOL0     N97037   6.185   9.248   4.287 -0.2780  0.3879  0.1459
  736MOL0     C97038   6.275   9.266   4.187  0.5056  0.6582 -0.0766
  736MOL0     C97039   6.343   9.150   4.178 -0.0864 -0.8358 -0.0112
  736MOL0     C97040   6.442   9.098   4.076  1.0627 -0.4747 -0.3508
  736MOL0     C97041   6.431   9.172   3.930 -0.5303 -0.4945 -0.0024
  736MOL0     C97042   6.294   9.142   3.887  0.8665  0.0847 -0.8839
  736MOL0     C97043   6.259   9.220   3.763  0.2070  0.2861  0.1233
  736MOL0     O97044   6.147   9.159   3.699 -0.0053 -0.0402 -0.0469
  736MOL0     C97045   6.028   9.185   3.757 -0.1651  0.3459 -0.0106
  736MOL0     C97046   6.003   9.281   3.861 -0.5607 -0.4765  1.2340
  736MOL0     C97047   5.879   9.306   3.914 -0.5636 -0.3145 -0.5783
  736MOL0     C97048   5.767   9.236   3.865 -0.5312  0.1112 -0.1024
  736MOL0     C97049   5.632   9.274   3.910  0.3286  0.0985 -0.2652
  736MOL0     O97050   5.538   9.178   3.895  0.3628  0.2129 -0.6600
  736MOL0     C97051   5.424   9.163   3.968  0.0660 -0.2151  0.7919
  736MOL0     C97052   5.400   9.032   4.016  0.9007 -0.3656  0.9633
  736MOL0     C97053   5.275   8.993   4.060 -1.2589  0.0067 -0.4957
  736MOL0     C97054   5.178   9.091   4.078  1.3423  0.3853 -0.1084
  736MOL0     O97055   5.049   9.043   4.104  0.8059  0.2087  0.1098
  736MOL0     C97056   4.940   9.129   4.152 -0.1295  0.7269 -0.0485
  736MOL0     C97057   4.807   9.064   4.131 -0.6294  0.2106  0.3981
  736MOL0     C97058   4.755   9.058   3.988  0.2035  0.6204  1.3189
  736MOL0     C97059   4.623   8.959   3.974 -0.9037 -0.1528  0.0586
  736MOL0     C97060   4.669   8.816   3.987  0.5033  0.6760  0.7083
  736MOL0     C97061   4.582   8.713   3.917 -0.3398  0.1099  0.1464
  736MOL0     C97062   4.434   8.730   3.927  0.5879  0.2417  0.1135
  736MOL0     C97063   4.374   8.593   3.908  0.6846 -0.0263 -0.2342
  736MOL0    Cl97064   4.195   8.590   3.934 -0.1113 -0.1472 -0.1681
  736MOL0     C97065   5.201   9.228   4.035  0.3353  0.3584 -0.5148
  736MOL0     C97066   5.327   9.267   3.979  0.6565 -0.2674  0.2503
  736MOL0     O97067   5.620   9.369   3.986  0.2976  0.5071  0.5121
  736MOL0     C97068   5.796   9.139   3.766 -0.1650  0.8807  0.1138
  736MOL0     C97069   5.922   9.112   3.712 -0.0922  1.0056  0.4745
  736MOL0     N97070   6.291   9.055   4.266 -0.0244 -1.5566 -0.7770
  736MOL0     N97071   6.195   9.118   4.330 -0.3779 -0.5675  0.1639
  736MOL0     C97072   5.200   9.474   4.864  0.7272 -1.0477 -0.2019
  736MOL0     C97073   5.073   9.445   4.912  1.2528  0.5667 -0.0367
  736MOL0     C97074   4.638   9.420   5.042 -0.3183  0.3435 -0.0010
  736MOL0     C97075   4.617   9.475   5.167 -0.4557  0.0646 -0.2192
  736MOL0     C97076   4.492   9.457   5.237  0.0668 -0.5130  1.1123
  736MOL0     C97077   4.384   9.385   5.169 -1.2284 -0.0878 -0.9880
  736MOL0     O97078   4.266   9.366   5.225  0.9249  0.0001  0.5437
  736MOL0     C97079   4.240   9.434   5.357  0.1932 -0.0300 -0.1396
  736MOL0     C97080   4.091   9.456   5.381 -0.8133  0.8087  0.5431
  736MOL0     C97081   4.023   9.551   5.270 -0.5825 -0.5809  0.2515
  736MOL0     C97082   3.869   9.568   5.298  0.7045  0.0999  0.0986
  736MOL0     C97083   3.835   9.700   5.342  0.1377  0.2944 -0.6024
  736MOL0     C97084   3.823   9.816   5.375 -0.9387 -0.8691  0.9459
  736MOL0     C97085   4.412   9.320   5.050  0.1435  0.2294  0.1601
  736MOL0     C97086   4.537   9.336   4.987 -0.6243 -0.4570 -0.5267
  736MOL0     H97087   4.987   9.760   5.011  0.1715  0.2546 -0.8719
  736MOL0     H97088   5.209   9.804   4.938  0.5739  0.2977 -0.4962
  736MOL0     H97089   5.442   9.496   4.693 -0.5798  2.0630 -1.0941
  736MOL0     H97090   5.480   9.479   4.866  1.1697  3.2526  2.7764
  736MOL0     H97091   5.643   9.635   4.856 -0.8170 -2.6045  1.2503
  736MOL0     H97092   5.584   9.711   4.698 -3.5167 -1.8101 -0.3426
  736MOL0     H97093   5.695   9.575   4.566  3.2357  4.7844  1.1934
  736MOL0     H97094   5.654   9.433   4.658 -5.1178  2.1489  2.4819
  736MOL0     H97095   5.869   9.637   4.698  3.1481 -0.4230  0.2554
  736MOL0     H97096   5.822   9.524   4.835  2.8271 -0.9319  0.4423
  736MOL0     H97097   5.879   9.330   4.709  1.1651 -0.5521 -1.2927
  736MOL0     H97098   6.018   9.428   4.716 -0.2684 -2.4430 -2.0909
  736MOL0     H97099   5.988   9.529   4.504  1.8028 -2.5274 -1.9425
  736MOL0     H97100   5.858   9.411   4.471  0.5324 -0.6156 -0.9231
  736MOL0     H97101   6.143   9.321   4.551  2.7992  0.9963 -1.7181
  736MOL0     H97102   6.004   9.230   4.504 -0.1472  0.5422  1.3647
  736MOL0     H97103   6.111   9.447   4.316 -0.3327 -0.2252 -0.2063
  736MOL0     H97104   5.996   9.328   4.273 -1.1388 -0.7767  2.4834
  736MOL0     H97105   6.275   9.355   4.126  1.5397  0.6764 -0.0588
  736MOL0     H97106   6.407   8.995   4.065 -2.5414  0.8264 -3.2306
  736MOL0     H97107   6.545   9.111   4.110  2.2722  0.3955 -3.9552
  736MOL0     H97108   6.508   9.133   3.864 -0.2996  0.1519 -0.1196
  736MOL0     H97109   6.431   9.281   3.941 -4.2372 -0.2314 -1.2898
  736MOL0     H97110   6.299   9.035   3.866 -0.8239 -0.7971  2.4328
  736MOL0     H97111   6.219   9.141   3.967  1.6246  1.9299 -0.0984
  736MOL0     H97112   6.344   9.221   3.694  0.1235  0.1804  0.0189
  736MOL0     H97113   6.245   9.326   3.785  2.4607  0.6117  0.2396
  736MOL0     H97114   6.082   9.324   3.921 -0.4755 -0.0240  0.8048
  736MOL0     H97115   5.878   9.378   3.995  2.6620 -0.4333 -0.3121
  736MOL0     H97116   5.465   8.947   3.998 -2.5547 -4.3292  4.7278
  736MOL0     H97117   5.258   8.886   4.052 -4.1338  0.4734 -2.6036
  736MOL0     H97118   4.943   9.223   4.096 -0.2473  0.5077 -0.4174
  736MOL0     H97119   4.944   9.150   4.260 -0.5352 -4.0352  1.1123
  736MOL0     H97120   4.728   9.112   4.189  0.7368  0.5986  2.0122
  736MOL0     H97121   4.805   8.962   4.170 -1.6406  0.1839  0.3061
  736MOL0     H97122   4.833   9.016   3.923 -0.7484 -1.8845  1.6776
  736MOL0     H97123   4.731   9.159   3.953 -2.5916 -1.3936 -3.6749
  736MOL0     H97124   4.548   8.975   4.053 -0.8233  1.2420 -0.1292
  736MOL0     H97125   4.582   8.975   3.874 -0.2594 -1.5600 -0.4496
  736MOL0     H97126   4.664   8.800   4.095 -2.5991  0.0597  0.5879
  736MOL0     H97127   4.771   8.800   3.952 -0.5886 -1.2352 -1.9307
  736MOL0     H97128   4.620   8.627   3.973  1.7146 -0.6403 -2.1818
  736MOL0     H97129   4.621   8.712   3.815  0.8803  2.7216  0.5205
  736MOL0     H97130   4.405   8.762   4.028 -1.7401  0.9613 -0.7038
  736MOL0     H97131   4.400   8.804   3.853 -1.0032 -0.9982 -0.4518
  736MOL0     H97132   4.402   8.541   4.000 -0.6922 -0.9923 -0.3279
  736MOL0     H97133   4.419   8.540   3.823 -0.6322  1.5954 -2.0267
  736MOL0     H97134   5.119   9.299   4.037 -0.6323 -0.7274 -0.2123
  736MOL0     H97135   5.342   9.364   3.932 -0.7281 -0.3599 -0.4433
  736MOL0     H97136   5.718   9.076   3.725  0.6222  0.1754 -0.3211
  736MOL0     H97137   5.926   9.042   3.629  2.0724  3.4461 -1.6731
  736MOL0     H97138   5.246   9.387   4.817  0.1989 -1.4508  0.0223
  736MOL0     H97139   5.034   9.344   4.905  0.2164  0.9137  0.5042
  736MOL0     H97140   4.698   9.532   5.212  2.8096 -4.2562 -0.0215
  736MOL0     H97141   4.472   9.511   5.329 -0.6476 -1.7839  1.7263
  736MOL0     H97142   4.287   9.531   5.375  2.2464 -0.8436 -0.7936
  736MOL0     H97143   4.284   9.366   5.430  1.6967  0.3684 -0.6281
  736MOL0     H97144   4.047   9.357   5.369  1.5249 -0.3638  1.1114
  736MOL0     H97145   4.064   9.491   5.481  0.3025  2.9713  0.1594
  736MOL0     H97146   4.020   9.499   5.174  0.2219 -0.7322  0.3048
  736MOL0     H97147   4.069   9.647   5.242 -0.3214 -1.1176 -1.2775
  736MOL0     H97148   3.806   9.544   5.213 -1.7969 -1.0068  2.1460
  736MOL0     H97149   3.832   9.497   5.373  0.6511  0.3770  0.3393
  736MOL0     H97150   3.801   9.918   5.400 -1.4116 -0.6096 -0.4232
  736MOL0     H97151   4.336   9.258   5.002 -0.2813  0.9734 -0.1514
  736MOL0     H97152   4.554   9.274   4.899  0.8009  0.6629 -1.0684
  737MOL0     O97153   6.543   1.415   6.659  0.1547  0.5372  0.0784
  737MOL0     C97154   6.628   1.330   6.676  0.4586 -0.3855 -0.3305
  737MOL0     O97155   6.606   1.191   6.692  0.3990  0.0084 -0.0854
  737MOL0     C97156   6.473   1.145   6.683 -0.6252  0.0433 -0.4916
  737MOL0     C97157   6.428   1.060   6.787  0.8408  0.6336 -0.1310
  737MOL0     C97158   6.304   0.999   6.777  0.8362 -0.6140 -0.3541
  737MOL0     C97159   6.230   1.019   6.665  0.5790 -0.5665 -0.2100
  737MOL0     O97160   6.108   0.956   6.653  0.2059  0.5331  0.1440
  737MOL0     C97161   6.034   0.946   6.522  0.4327  0.7624  0.5756
  737MOL0     C97162   5.907   0.862   6.520 -1.0056  0.6033 -0.1774
  737MOL0     C97163   5.792   0.926   6.583  0.0488 -0.1769  1.0410
  737MOL0     C97164   5.672   0.832   6.623 -1.0462  0.7044  0.7574
  737MOL0     C97165   5.613   0.746   6.513  0.4987  0.7315  0.3633
  737MOL0     C97166   5.474   0.695   6.552  0.7670  0.3156 -0.0500
  737MOL0     C97167   5.419   0.592   6.458  0.5706 -0.3628 -0.1520
  737MOL0     C97168   5.502   0.466   6.475  0.1413  0.3299 -1.4128
  737MOL0     N97169   5.425   0.383   6.560  0.1043  0.0476  1.0477
  737MOL0     C97170   5.323   0.304   6.514  0.8904  0.2041 -0.1649
  737MOL0     C97171   5.289   0.212   6.605 -0.6194  0.0270 -0.9031
  737MOL0     C97172   5.199   0.093   6.601 -0.4809  0.3369  0.3141
  737MOL0     C97173   5.207  -0.002   6.731  0.0089  1.0001 -0.2482
  737MOL0     C97174   5.136  -0.142   6.708 -0.3064  0.2433 -0.2912
  737MOL0     C97175   4.984  -0.125   6.680 -0.7173 -0.0549  0.4117
  737MOL0     O97176   4.935  -0.037   6.776  0.8391 -0.7458 -0.4855
  737MOL0     C97177   4.805  -0.001   6.760  0.0282  0.0829 -0.4148
  737MOL0     C97178   4.767   0.117   6.693 -0.0461  0.2466 -0.3937
  737MOL0     C97179   4.628   0.138   6.664  0.0574 -1.0772 -0.5687
  737MOL0     C97180   4.528   0.052   6.722 -0.3761  0.6166  0.3131
  737MOL0     C97181   4.380   0.068   6.702  0.1501 -1.3128  0.2425
  737MOL0     O97182   4.293   0.045   6.803  0.5158 -0.7933 -0.0899
  737MOL0     C97183   4.158   0.069   6.782  0.0796  0.2142  0.4323
  737MOL0     C97184   4.099   0.010   6.669 -0.3754 -0.1439 -0.5202
  737MOL0     C97185   3.949   0.017   6.648 -0.8335  1.3022 -0.2389
  737MOL0     C97186   3.866   0.084   6.744 -0.6429  0.4339 -0.8156
  737MOL0     O97187   3.728   0.096   6.714 -0.6537 -0.2658  0.1003
  737MOL0     C97188   3.634   0.103   6.819  0.4033  0.1775 -0.2999
  737MOL0     C97189   3.494   0.053   6.778 -0.2821  0.4298 -0.7336
  737MOL0     C97190   3.375   0.108   6.851  0.2355  0.7222  0.1139
  737MOL0     C97191   3.247   0.022   6.818 -0.2597 -0.4983 -0.7030
  737MOL0     C97192   3.146   0.082   6.914  0.6169 -1.2926 -0.3502
  737MOL0     C97193   3.002   0.014   6.910 -0.2942  0.0848  0.2566
  737MOL0     C97194   2.941   0.036   7.047  0.3309  0.5040  0.3816
  737MOL0     C97195   2.788   0.011   7.044 -0.4183  0.3862  0.8278
  737MOL0    Cl97196   2.736  -0.154   6.994 -0.1260 -0.6931  0.3636
  737MOL0     C97197   3.927   0.129   6.855  1.3345 -0.4979 -0.3734
  737MOL0     C97198   4.069   0.123   6.875 -0.0633  0.4535  0.4386
  737MOL0     O97199   4.349   0.124   6.596  0.4392 -0.2312  0.0534
  737MOL0     C97200   4.572  -0.058   6.797 -0.1789 -0.6233 -0.9763
  737MOL0     C97201   4.705  -0.091   6.803 -0.9498  0.2181  0.6429
  737MOL0     N97202   5.379   0.243   6.706 -0.1583 -0.0820  0.3725
  737MOL0     N97203   5.464   0.338   6.682 -0.8653  0.5521 -0.3571
  737MOL0     C97204   6.272   1.109   6.570  0.4900  0.6589 -0.0902
  737MOL0     C97205   6.395   1.173   6.584  1.0230 -0.3114  0.2804
  737MOL0     C97206   6.767   1.372   6.692  0.0890  0.2639 -1.0081
  737MOL0     C97207   6.801   1.502   6.666 -0.9775 -0.7597 -0.3516
  737MOL0     C97208   6.938   1.534   6.679  0.1043 -0.1489 -0.1049
  737MOL0     C97209   7.033   1.453   6.736 -0.4453  0.0892  0.7754
  737MOL0     O97210   7.157   1.505   6.751  0.1388 -0.7777  0.0943
  737MOL0     C97211   7.262   1.418   6.716 -0.8426  0.2303 -0.4204
  737MOL0     C97212   7.394   1.485   6.697 -0.4372 -0.2416  0.4395
  737MOL0     C97213   7.511   1.383   6.673 -0.2801 -0.1372 -0.8841
  737MOL0     C97214   7.637   1.459   6.628 -0.0202 -0.4719 -0.2227
  737MOL0     C97215   7.672   1.555   6.733 -0.5323  0.1384  0.0922
  737MOL0     C97216   7.709   1.627   6.828  0.3127  0.0378  1.0192
  737MOL0     C97217   6.998   1.318   6.758  0.2492 -0.3305 -0.6641
  737MOL0     C97218   6.863   1.280   6.733  0.1783  0.2171  0.5798
  737MOL0     H97219   6.497   1.042   6.869  3.5370  2.4245 -1.8124
  737MOL0     H97220   6.256   0.932   6.848  1.3591  0.7393  1.3354
  737MOL0     H97221   6.108   0.903   6.455 -0.5254  0.1615 -0.1210
  737MOL0     H97222   5.999   1.046   6.495 -0.4015  0.7283  1.4503
  737MOL0     H97223   5.921   0.763   6.564 -2.1205  0.7405  0.5222
  737MOL0     H97224   5.883   0.837   6.417  3.4557  0.5677 -1.4106
  737MOL0     H97225   5.756   1.011   6.525  2.2148  0.7023  0.9086
  737MOL0     H97226   5.826   0.964   6.680 -0.2412  0.2969  0.9590
  737MOL0     H97227   5.699   0.762   6.703 -0.8625  0.7768  0.7597
  737MOL0     H97228   5.606   0.913   6.655 -1.1639 -0.1427  2.8358
  737MOL0     H97229   5.688   0.667   6.498 -0.4291 -0.0977 -0.0078
  737MOL0     H97230   5.606   0.802   6.419  1.4964  0.1473 -0.0766
  737MOL0     H97231   5.413   0.786   6.546  0.8435  0.2832 -1.6742
  737MOL0     H97232   5.463   0.666   6.657 -1.9246  1.0601 -0.0413
  737MOL0     H97233   5.310   0.593   6.471  0.5584  0.7598 -0.2119
  737MOL0     H97234   5.437   0.628   6.356  0.5050  3.6995  1.1184
  737MOL0     H97235   5.605   0.481   6.509  0.0197 -1.6650  0.0201
  737MOL0     H97236   5.496   0.417   6.378  0.2840  0.7525 -1.6419
  737MOL0     H97237   5.278   0.291   6.417 -0.3979 -0.7026  0.5317
  737MOL0     H97238   5.231   0.028   6.520 -1.7620  0.3054 -0.2023
  737MOL0     H97239   5.095   0.126   6.591 -0.4794 -0.3649 -3.9443
  737MOL0     H97240   5.155   0.040   6.817 -2.8286 -0.6677 -0.9910
  737MOL0     H97241   5.309  -0.029   6.760 -1.3814 -1.1048  3.2836
  737MOL0     H97242   5.168  -0.199   6.621 -4.9721 -1.6078 -1.0704
  737MOL0     H97243   5.146  -0.205   6.797  0.0772  0.5114 -0.1383
  737MOL0     H97244   4.932  -0.221   6.670 -1.1515  0.0273  1.6721
  737MOL0     H97245   4.972  -0.074   6.584  0.4371 -2.6988 -1.2224
  737MOL0     H97246   4.847   0.176   6.648 -0.8188  1.5605 -0.0880
  737MOL0     H97247   4.587   0.219   6.605 -1.8481 -0.2705  1.7018
  737MOL0     H97248   4.156  -0.043   6.593  1.2108 -0.5212  0.8779
  737MOL0     H97249   3.914  -0.014   6.550 -1.2937  0.6067  0.1355
  737MOL0     H97250   3.622   0.206   6.855 -0.3326 -0.1222  0.3243
  737MOL0     H97251   3.659   0.039   6.904 -0.6036  1.8728  1.3411
  737MOL0     H97252   3.495  -0.057   6.784  1.3546  0.5148  2.2952
  737MOL0     H97253   3.478   0.075   6.672  1.1697 -0.1827 -1.1055
  737MOL0     H97254   3.358   0.213   6.827 -0.9274  0.8267  1.2947
  737MOL0     H97255   3.392   0.097   6.959  0.4530 -1.2657 -0.0841
  737MOL0     H97256   3.228   0.032   6.711 -0.2457 -0.1249 -0.6725
  737MOL0     H97257   3.256  -0.085   6.841 -1.2857 -0.4689 -0.1243
  737MOL0     H97258   3.144   0.190   6.901 -1.5954 -0.9956  1.7120
  737MOL0     H97259   3.199   0.064   7.008  1.2448  1.7442 -0.0330
  737MOL0     H97260   3.016  -0.091   6.884 -0.9410 -0.1748  0.9366
  737MOL0     H97261   2.937   0.060   6.836  0.1319  1.6979  0.8314
  737MOL0     H97262   2.983  -0.036   7.119 -2.7334 -0.9169  0.8978
  737MOL0     H97263   2.956   0.138   7.082  1.0360 -0.3464  2.7661
  737MOL0     H97264   2.740   0.070   6.965 -1.2271 -0.4447  0.6871
  737MOL0     H97265   2.747   0.041   7.140  1.6767  2.0254  1.2866
  737MOL0     H97266   3.861   0.163   6.934 -2.3784 -1.4635 -2.7695
  737MOL0     H97267   4.111   0.161   6.967  1.3375  0.3141 -0.1255
  737MOL0     H97268   4.496  -0.116   6.848  0.5240 -0.5416  0.2061
  737MOL0     H97269   4.722  -0.191   6.841  3.7000  0.1249 -1.1337
  737MOL0     H97270   6.210   1.125   6.482  0.4480  0.3729 -0.1140
  737MOL0     H97271   6.436   1.239   6.508  1.7019  0.5966  1.3946
  737MOL0     H97272   6.735   1.583   6.638 -0.4151 -0.2229 -0.1658
  737MOL0     H97273   6.973   1.636   6.661  1.9103 -0.6547  0.3268
  737MOL0     H97274   7.239   1.344   6.639  5.3045 -1.2915 -1.3273
  737MOL0     H97275   7.291   1.364   6.806 -0.6045 -2.1120 -1.8228
  737MOL0     H97276   7.377   1.552   6.611 -1.8747 -0.9572  0.1348
  737MOL0     H97277   7.415   1.548   6.783 -2.9636  1.3894 -0.0273
  737MOL0     H97278   7.484   1.312   6.595 -0.2087  1.1317 -2.0889
  737MOL0     H97279   7.533   1.324   6.763  1.5250 -0.4698 -1.5109
  737MOL0     H97280   7.716   1.387   6.606  1.5003  0.7298  1.0794
  737MOL0     H97281   7.622   1.513   6.534 -1.9422 -0.6394 -0.0499
  737MOL0     H97282   7.753   1.689   6.903  4.7006 -1.0880 -0.2985
  737MOL0     H97283   7.066   1.238   6.785 -0.5230 -0.6916  0.3115
  737MOL0     H97284   6.829   1.177   6.750 -1.6315  0.2858 -2.0427
  738MOL0     O97285   7.974   9.037   0.942  0.9369 -0.5021 -0.9094
  738MOL0     C97286   8.009   9.136   0.874  0.3821  0.0192  0.2829
  738MOL0     O97287   7.921   9.236   0.839 -0.3465  0.3436  0.2472
  738MOL0     C97288   7.786   9.216   0.841 -0.0930  0.3351 -0.3946
  738MOL0     C97289   7.710   9.239   0.726 -0.4022 -0.4157  0.3242
  738MOL0     C97290   7.573   9.230   0.738  0.7960  0.2275 -0.2619
  738MOL0     C97291   7.507   9.199   0.863 -0.0812  0.4481  0.0518
  738MOL0     O97292   7.373   9.192   0.855 -0.7104 -0.2865 -0.3171
  738MOL0     C97293   7.299   9.184   0.976  0.3357 -0.7268  0.0724
  738MOL0     C97294   7.155   9.176   0.932  1.0319 -0.6106 -0.0291
  738MOL0     C97295   7.107   9.285   0.832 -0.7773  0.5120 -0.3833
  738MOL0     C97296   6.955   9.274   0.811  0.3235 -0.0463  0.5444
  738MOL0     C97297   6.930   9.377   0.699  0.2841  1.2659  0.4592
  738MOL0     C97298   6.904   9.520   0.752  0.0180  0.5889  0.4633
  738MOL0     C97299   6.867   9.606   0.629 -0.0990 -0.6411  0.4678
  738MOL0     C97300   6.845   9.752   0.691 -0.0000 -0.1955 -0.6548
  738MOL0     N97301   6.788   9.847   0.596  0.0869  0.2904  0.4447
  738MOL0     C97302   6.659   9.834   0.539 -0.5741  0.2575 -0.8242
  738MOL0     C97303   6.648   9.940   0.457 -0.4138  0.1959 -1.2013
  738MOL0     C97304   6.534   9.974   0.373 -0.7238 -0.3629  1.6514
  738MOL0     C97305   6.467  10.109   0.411  0.1275  0.6422  0.1269
  738MOL0     C97306   6.389  10.156   0.287 -0.7184 -0.5424  0.4096
  738MOL0     C97307   6.337  10.300   0.302  0.7818  0.6392  0.3354
  738MOL0     O97308   6.310  10.339   0.432 -0.4835  0.4352  0.4494
  738MOL0     C97309   6.194  10.407   0.452 -0.0549  0.4349  0.3573
  738MOL0     C97310   6.070  10.333   0.447  0.5582 -0.2478 -1.0002
  738MOL0     C97311   5.942  10.403   0.449 -0.6637 -0.4533 -0.1727
  738MOL0     C97312   5.942  10.537   0.491  0.1661 -0.0256  0.5764
  738MOL0     C97313   5.813  10.611   0.526  0.4838  0.5794  0.2922
  738MOL0     O97314   5.693  10.531   0.544 -0.1181  0.4669 -0.0960
  738MOL0     C97315   5.572  10.573   0.554  1.6889  0.0342 -0.6389
  738MOL0     C97316   5.529  10.699   0.530  0.0448  0.6292 -1.0141
  738MOL0     C97317   5.392  10.729   0.538 -0.5871 -0.2969  0.3067
  738MOL0     C97318   5.293  10.633   0.569  0.0392  0.0818  0.1227
  738MOL0     O97319   5.161  10.666   0.557  0.0507  1.2934 -0.4240
  738MOL0     C97320   5.095  10.553   0.488 -0.3617  0.6781  0.4948
  738MOL0     C97321   4.971  10.600   0.401 -0.0929 -0.9988 -0.1491
  738MOL0     C97322   4.852  10.648   0.485  0.5513  0.1385  0.7931
  738MOL0     C97323   4.785  10.567   0.596 -0.8822  0.1573  0.7115
  738MOL0     C97324   4.675  10.644   0.658  0.5833 -0.2718 -0.1058
  738MOL0     C97325   4.645  10.583   0.791 -0.1837 -0.1330 -0.2185
  738MOL0     C97326   4.497  10.607   0.847 -1.1165 -0.7989  1.0343
  738MOL0     C97327   4.390  10.560   0.743 -0.8442 -0.2232  0.1565
  738MOL0    Cl97328   4.229  10.603   0.806  0.5560  0.4986 -0.0186
  738MOL0     C97329   5.343  10.502   0.605 -0.6452  0.7232  0.1844
  738MOL0     C97330   5.481  10.474   0.598 -0.2038 -0.1768 -0.1237
  738MOL0     O97331   5.819  10.729   0.552  0.0656 -0.4904 -0.8940
  738MOL0     C97332   6.068  10.607   0.506 -0.7333  0.1648 -0.5082
  738MOL0     C97333   6.193  10.543   0.489  1.2346  0.6816  0.3606
  738MOL0     N97334   6.768  10.011   0.459  0.6306 -0.3535 -1.0928
  738MOL0     N97335   6.850   9.960   0.543  0.3635  0.2539  0.2183
  738MOL0     C97336   7.587   9.161   0.972  0.1219  0.4389  0.4247
  738MOL0     C97337   7.720   9.175   0.956  0.0487  0.3401 -0.7556
  738MOL0     C97338   8.153   9.142   0.833  0.4301 -0.2424 -0.0252
  738MOL0     C97339   8.246   9.045   0.883  0.7142 -0.2759 -0.1602
  738MOL0     C97340   8.378   9.045   0.846 -0.3099  0.1968 -0.5690
  738MOL0     C97341   8.423   9.134   0.745  0.9509  0.2573 -0.4099
  738MOL0     O97342   8.551   9.137   0.715 -0.0875  0.1123  0.0926
  738MOL0     C97343   8.606   9.026   0.645 -0.6785 -0.6376  0.5395
  738MOL0     C97344   8.720   9.065   0.565 -0.2721 -0.3341  0.8294
  738MOL0     C97345   8.711   9.201   0.492 -0.8646 -0.4314  0.9052
  738MOL0     C97346   8.617   9.201   0.373 -0.3999 -0.6517 -0.5198
  738MOL0     C97347   8.649   9.103   0.268 -0.0282 -0.4116  0.3344
  738MOL0     C97348   8.673   9.022   0.179  0.5168  0.4565 -0.0650
  738MOL0     C97349   8.335   9.224   0.688  0.1127  0.5424 -0.9540
  738MOL0     C97350   8.199   9.224   0.726 -0.4722 -0.2269  0.2056
  738MOL0     H97351   7.755   9.249   0.628  1.3639 -3.3118  0.7104
  738MOL0     H97352   7.502   9.246   0.657 -2.1364  0.8559  2.2350
  738MOL0     H97353   7.324   9.268   1.042  0.8391  0.4437 -1.5532
  738MOL0     H97354   7.324   9.096   1.036  0.5569 -1.0891 -0.5520
  738MOL0     H97355   7.093   9.182   1.022  0.1806 -1.9884 -0.4915
  738MOL0     H97356   7.140   9.075   0.892 -3.7853  0.5223 -1.7156
  738MOL0     H97357   7.164   9.269   0.740  2.2991  1.9127  1.1303
  738MOL0     H97358   7.132   9.381   0.877  0.9240  0.0210 -0.2149
  738MOL0     H97359   6.933   9.170   0.789  2.2686 -0.7808  1.7726
  738MOL0     H97360   6.907   9.319   0.899 -0.8698  0.4206 -0.3280
  738MOL0     H97361   6.847   9.340   0.638 -0.5236  1.7719  1.2187
  738MOL0     H97362   7.010   9.385   0.624 -0.2503  0.7869 -0.1769
  738MOL0     H97363   6.987   9.560   0.811 -1.5535  2.8113  1.3215
  738MOL0     H97364   6.814   9.510   0.814 -0.8044  3.7680 -0.0267
  738MOL0     H97365   6.953   9.617   0.562 -0.0781  0.6544  0.6849
  738MOL0     H97366   6.783   9.574   0.568  0.2674 -0.6092 -0.0609
  738MOL0     H97367   6.943   9.784   0.726 -0.2026  0.4767 -0.6949
  738MOL0     H97368   6.782   9.749   0.781  1.3695 -0.2545  0.3241
  738MOL0     H97369   6.573   9.770   0.559  0.0537 -1.0766 -2.1859
  738MOL0     H97370   6.469   9.887   0.379  1.2135 -2.1006 -0.6527
  738MOL0     H97371   6.570   9.978   0.270 -1.0604  1.2606  1.5781
  738MOL0     H97372   6.542  10.182   0.440 -0.1152  0.7151  0.5741
  738MOL0     H97373   6.389  10.096   0.487 -2.1444 -1.2207 -2.3126
  738MOL0     H97374   6.441  10.149   0.191 -2.3477 -2.6791 -0.4255
  738MOL0     H97375   6.303  10.090   0.273 -0.9869 -0.4325  1.4729
  738MOL0     H97376   6.242  10.305   0.250  0.2190 -1.4813  1.0476
  738MOL0     H97377   6.409  10.362   0.248  0.3770  0.0094 -0.9537
  738MOL0     H97378   6.061  10.228   0.420  2.4565 -0.3117 -1.5650
  738MOL0     H97379   5.846  10.355   0.433 -0.5844 -0.8877  0.6006
  738MOL0     H97380   5.595  10.783   0.510  0.0736  1.1373  0.9790
  738MOL0     H97381   5.361  10.831   0.515 -1.9681 -0.4608  1.2726
  738MOL0     H97382   5.056  10.477   0.556 -1.4601 -1.2565 -2.1112
  738MOL0     H97383   5.160  10.512   0.410  1.6993  3.4949  0.5707
  738MOL0     H97384   4.944  10.523   0.328 -1.7946  0.1276 -0.7458
  738MOL0     H97385   5.009  10.684   0.344 -1.1639 -1.3256 -1.3900
  738MOL0     H97386   4.769  10.668   0.416  1.4665  2.3341  0.2445
  738MOL0     H97387   4.885  10.741   0.532  0.0454  0.1553  1.1291
  738MOL0     H97388   4.744  10.477   0.550 -1.8829  1.6624 -1.5100
  738MOL0     H97389   4.857  10.535   0.672  2.4791 -1.7541 -2.9144
  738MOL0     H97390   4.590  10.645   0.589  2.2821 -4.6203 -2.6764
  738MOL0     H97391   4.700  10.751   0.663 -1.8928  0.4512 -1.5347
  738MOL0     H97392   4.731  10.611   0.852  0.8021 -3.1872 -0.0336
  738MOL0     H97393   4.658  10.475   0.792 -1.0764 -0.2586  1.0069
  738MOL0     H97394   4.488  10.559   0.945 -0.2493 -2.8523  0.1628
  738MOL0     H97395   4.488  10.713   0.871  0.7281 -0.8026  1.8678
  738MOL0     H97396   4.399  10.451   0.737 -0.4033 -0.3347  2.2995
  738MOL0     H97397   4.386  10.599   0.640 -1.2100 -0.8357 -0.0659
  738MOL0     H97398   5.277  10.417   0.620 -0.5515  0.8607  1.5084
  738MOL0     H97399   5.532  10.383   0.628  1.0288  1.5166  3.4847
  738MOL0     H97400   6.058  10.705   0.552 -0.6818  0.5334 -1.2683
  738MOL0     H97401   6.287  10.590   0.518  0.9521  0.8388  1.0478
  738MOL0     H97402   7.549   9.122   1.066 -0.4156 -3.5466 -1.2311
  738MOL0     H97403   7.780   9.161   1.045 -0.1193 -0.3756 -0.7532
  738MOL0     H97404   8.208   8.982   0.963 -4.5391  2.8580  0.3144
  738MOL0     H97405   8.446   8.966   0.877 -2.2612 -2.8280 -3.3081
  738MOL0     H97406   8.538   8.965   0.584 -1.2993 -0.8557  1.4351
  738MOL0     H97407   8.636   8.956   0.723  0.8726  1.3180  1.7770
  738MOL0     H97408   8.810   9.076   0.626 -0.6541  4.6577  0.9180
  738MOL0     H97409   8.738   8.987   0.491 -0.7692  0.3903 -0.0789
  738MOL0     H97410   8.806   9.226   0.444 -0.9021 -2.5553 -0.3933
  738MOL0     H97411   8.677   9.285   0.553 -2.8600  0.3159 -1.1303
  738MOL0     H97412   8.518   9.176   0.412 -0.0410  0.3236  1.1384
  738MOL0     H97413   8.597   9.303   0.339  2.0580  0.1697  0.3019
  738MOL0     H97414   8.699   8.949   0.105 -2.6139  0.9143 -1.8071
  738MOL0     H97415   8.368   9.298   0.615 -0.6226  2.4077  0.5104
  738MOL0     H97416   8.126   9.278   0.666  0.3929 -1.5703 -2.1562
  739MOL0     O97417   2.683   0.914   1.862  0.4962 -0.1423 -0.8867
  739MOL0     C97418   2.673   0.942   1.742 -0.0850  0.2872 -0.3849
  739MOL0     O97419   2.764   0.892   1.646  0.0010 -0.6063 -0.1313
  739MOL0     C97420   2.881   0.837   1.706  1.0350  0.5593  0.2782
  739MOL0     C97421   2.989   0.919   1.743  0.7652  0.6564  0.3835
  739MOL0     C97422   3.091   0.871   1.823 -0.2541 -0.4972 -0.8705
  739MOL0     C97423   3.098   0.732   1.847  0.2331  0.6038 -0.4389
  739MOL0     O97424   3.204   0.699   1.934 -0.0152 -0.1827 -0.4545
  739MOL0     C97425   3.250   0.571   1.947 -0.0038 -0.6561  0.3253
  739MOL0     C97426   3.368   0.567   2.043 -0.0760 -0.5374 -0.1282
  739MOL0     C97427   3.468   0.674   2.006 -0.5241 -0.0116 -0.0203
  739MOL0     C97428   3.585   0.665   2.109  0.1343  0.8958  0.2016
  739MOL0     C97429   3.688   0.545   2.097 -0.1111  0.5165  0.1353
  739MOL0     C97430   3.724   0.495   1.959  0.8611  0.5456  0.4280
  739MOL0     C97431   3.847   0.407   1.946  0.0798  0.1162  0.0930
  739MOL0     C97432   3.857   0.344   1.811  0.2461 -0.2126 -0.2504
  739MOL0     N97433   3.981   0.277   1.765  0.7257  1.1396  0.3979
  739MOL0     C97434   4.104   0.327   1.737 -0.4826 -0.0008  0.2540
  739MOL0     C97435   4.190   0.226   1.736  0.1488  0.2064 -1.2573
  739MOL0     C97436   4.329   0.235   1.741 -0.5438 -0.3294  0.9547
  739MOL0     C97437   4.396   0.096   1.737 -0.5488  0.6910  0.1408
  739MOL0     C97438   4.547   0.115   1.761  1.0135 -0.1432  0.0253
  739MOL0     C97439   4.624  -0.021   1.771 -0.4380 -0.6680  0.6507
  739MOL0     O97440   4.760  -0.006   1.803  0.5293  0.2684 -0.8347
  739MOL0     C97441   4.850   0.067   1.726  0.2320  0.5472  0.1809
  739MOL0     C97442   4.965   0.109   1.785 -0.2665 -0.5427 -0.0072
  739MOL0     C97443   5.051   0.181   1.715 -0.6661 -0.1372 -0.3223
  739MOL0     C97444   5.042   0.210   1.579  0.3898 -0.3786 -0.1904
  739MOL0     C97445   5.148   0.274   1.497 -0.3731 -0.4805 -0.5794
  739MOL0     O97446   5.106   0.336   1.382 -0.8899  0.5203 -0.1285
  739MOL0     C97447   5.203   0.384   1.291 -0.0292 -0.4903 -0.5165
  739MOL0     C97448   5.316   0.458   1.327  0.1822 -0.4780  0.7755
  739MOL0     C97449   5.417   0.482   1.231  0.7853 -0.3671  0.8103
  739MOL0     C97450   5.409   0.442   1.100  0.2741  0.4855 -0.0653
  739MOL0     O97451   5.497   0.462   0.993 -0.1129 -0.1596  0.6940
  739MOL0     C97452   5.541   0.597   0.971 -0.1176  0.5519 -0.1364
  739MOL0     C97453   5.684   0.599   0.930 -0.9809 -0.2231 -0.0954
  739MOL0     C97454   5.709   0.535   0.795 -0.0360 -0.3010 -0.0321
  739MOL0     C97455   5.858   0.561   0.765  0.0486 -1.0191  0.1684
  739MOL0     C97456   5.897   0.486   0.645  0.4998 -0.3295 -0.6022
  739MOL0     C97457   6.039   0.528   0.600 -0.5110  0.1307  0.1037
  739MOL0     C97458   6.074   0.449   0.473 -0.6351 -0.1337 -0.1298
  739MOL0     C97459   6.221   0.480   0.441  0.1291  0.1443 -0.7743
  739MOL0    Cl97460   6.238   0.648   0.379  0.0175 -0.4376  0.0068
  739MOL0     C97461   5.285   0.391   1.061 -0.3468  0.0604  0.4477
  739MOL0     C97462   5.183   0.356   1.152 -0.3366 -0.1312  0.2447
  739MOL0     O97463   5.265   0.266   1.542  0.1037  0.8806  0.1917
  739MOL0     C97464   4.919   0.175   1.527  0.6822  0.2622  0.7577
  739MOL0     C97465   4.815   0.113   1.594 -1.2331  0.2916 -0.5442
  739MOL0     N97466   4.105   0.109   1.740 -0.2966 -0.2127 -0.0177
  739MOL0     N97467   3.982   0.138   1.772 -1.1532 -0.0099  0.3182
  739MOL0     C97468   2.999   0.641   1.807 -0.3828 -0.0441  0.7510
  739MOL0     C97469   2.894   0.697   1.734 -0.5458  0.0091 -0.0651
  739MOL0     C97470   2.561   1.027   1.707  0.7649  0.2165  0.6492
  739MOL0     C97471   2.537   1.061   1.580 -0.4727 -0.4526  0.3755
  739MOL0     C97472   2.431   1.133   1.551 -0.0046  0.2070 -0.2364
  739MOL0     C97473   2.333   1.171   1.641  0.1559  0.2314 -0.6852
  739MOL0     O97474   2.232   1.248   1.601 -0.0895  0.1868  0.0610
  739MOL0     C97475   2.100   1.224   1.659 -0.5203 -0.6754 -0.1723
  739MOL0     C97476   1.994   1.305   1.592  0.0921 -0.4873 -0.2197
  739MOL0     C97477   1.856   1.306   1.656  0.3971 -0.2453  0.4382
  739MOL0     C97478   1.869   1.357   1.799 -0.2336  0.3201  0.3680
  739MOL0     C97479   1.744   1.420   1.843  0.4329 -0.0211 -0.2229
  739MOL0     C97480   1.639   1.468   1.867  0.5299  0.8247 -0.8595
  739MOL0     C97481   2.352   1.127   1.773 -0.2694  0.2215  0.5801
  739MOL0     C97482   2.464   1.063   1.802 -0.9293 -0.6406 -1.1570
  739MOL0     H97483   2.983   1.027   1.731 -0.4320  0.5946  0.2956
  739MOL0     H97484   3.181   0.921   1.857 -1.4338  1.7318 -0.8050
  739MOL0     H97485   3.280   0.532   1.849 -1.3010 -0.9591  0.0386
  739MOL0     H97486   3.166   0.520   1.994  1.1231  0.7335  4.3079
  739MOL0     H97487   3.410   0.466   2.049  0.0936 -0.4850 -0.4107
  739MOL0     H97488   3.329   0.589   2.143 -1.1119 -0.5436 -0.5191
  739MOL0     H97489   3.441   0.779   2.019 -0.4474 -0.2696  3.1601
  739MOL0     H97490   3.498   0.670   1.901  1.4168  3.0407  0.2981
  739MOL0     H97491   3.628   0.766   2.104  1.6527  0.2488 -0.3478
  739MOL0     H97492   3.540   0.682   2.207  1.1822  2.7305  0.4172
  739MOL0     H97493   3.645   0.460   2.152 -0.0453  1.4878  1.7635
  739MOL0     H97494   3.781   0.578   2.143  0.7524  1.7898 -2.3298
  739MOL0     H97495   3.750   0.580   1.894  1.8864  0.9476  1.3409
  739MOL0     H97496   3.634   0.443   1.924  1.1621 -0.8223  1.6220
  739MOL0     H97497   3.937   0.468   1.958 -0.1480  0.2790  1.1212
  739MOL0     H97498   3.847   0.340   2.033  2.8121  1.4676  1.2759
  739MOL0     H97499   3.847   0.424   1.738  1.3916 -0.6586 -0.9280
  739MOL0     H97500   3.777   0.271   1.799 -0.0112  0.1557 -0.7554
  739MOL0     H97501   4.129   0.432   1.733 -1.0093  0.1769  1.1241
  739MOL0     H97502   4.369   0.267   1.838  0.5987 -0.1438  0.4242
  739MOL0     H97503   4.369   0.290   1.656  2.9967 -2.6734  0.8781
  739MOL0     H97504   4.386   0.037   1.646 -3.5096  0.8994  0.2138
  739MOL0     H97505   4.361   0.046   1.828  2.0406  2.8299  2.5383
  739MOL0     H97506   4.577   0.186   1.684 -0.1289  0.2898 -0.0436
  739MOL0     H97507   4.565   0.164   1.857  0.7220  0.9392 -0.4597
  739MOL0     H97508   4.631  -0.065   1.671 -1.8365  0.3920  0.0413
  739MOL0     H97509   4.571  -0.089   1.840 -0.7031 -1.4925 -0.3390
  739MOL0     H97510   4.983   0.080   1.888  0.3860  1.0035  0.3352
  739MOL0     H97511   5.140   0.202   1.774 -1.7725 -0.6976  1.6678
  739MOL0     H97512   5.342   0.479   1.431  0.7708  0.1213  0.5176
  739MOL0     H97513   5.500   0.536   1.276  0.3132  1.6964 -0.6851
  739MOL0     H97514   5.519   0.666   1.052  1.9567  2.2085 -0.8849
  739MOL0     H97515   5.481   0.632   0.886 -4.1308 -2.2084  1.2468
  739MOL0     H97516   5.748   0.549   1.003  1.2130 -1.8687 -2.9376
  739MOL0     H97517   5.699   0.708   0.929 -1.2798 -0.1132  2.0584
  739MOL0     H97518   5.642   0.575   0.719  1.9488  1.4837 -0.9377
  739MOL0     H97519   5.689   0.428   0.806  3.9336 -1.4014 -1.4978
  739MOL0     H97520   5.866   0.668   0.742 -2.4514 -0.8232 -0.0199
  739MOL0     H97521   5.924   0.538   0.850  0.1046 -1.0977  0.1043
  739MOL0     H97522   5.823   0.513   0.569 -0.7423  2.6047  1.4595
  739MOL0     H97523   5.895   0.378   0.664  1.5851 -0.5030 -1.3501
  739MOL0     H97524   6.122   0.510   0.668 -0.2897 -3.1759 -0.8597
  739MOL0     H97525   6.033   0.636   0.584  3.1228  0.3861 -0.2658
  739MOL0     H97526   6.053   0.345   0.497  1.7711 -0.7297 -0.2912
  739MOL0     H97527   6.010   0.475   0.389 -0.1292 -2.4285 -1.3217
  739MOL0     H97528   6.265   0.415   0.365 -0.4358 -0.0207 -0.9708
  739MOL0     H97529   6.279   0.470   0.533 -0.9611  1.4007  0.0783
  739MOL0     H97530   5.255   0.363   0.961  0.6983 -0.4344  0.2625
  739MOL0     H97531   5.090   0.312   1.119  0.1276  1.0379 -3.0360
  739MOL0     H97532   4.896   0.215   1.428 -1.1725 -1.1326  0.5751
  739MOL0     H97533   4.718   0.106   1.548 -0.4446 -0.4003 -2.1572
  739MOL0     H97534   3.005   0.534   1.820 -6.0714 -0.5471  1.4833
  739MOL0     H97535   2.809   0.631   1.719  0.4391 -1.8443  2.0153
  739MOL0     H97536   2.619   1.044   1.510 -0.3112  0.4308  0.3393
  739MOL0     H97537   2.395   1.166   1.454 -1.0638 -2.1166 -0.7218
  739MOL0     H97538   2.103   1.262   1.762  1.3947  0.6089 -0.6467
  739MOL0     H97539   2.073   1.118   1.658  0.1641 -0.8791  1.0204
  739MOL0     H97540   2.034   1.407   1.594 -1.1885  0.3043 -4.4463
  739MOL0     H97541   1.987   1.271   1.488 -2.5062 -0.0867 -0.2300
  739MOL0     H97542   1.825   1.202   1.651  1.9468 -0.6692 -1.8852
  739MOL0     H97543   1.797   1.366   1.586  0.6777 -1.3927 -0.8353
  739MOL0     H97544   1.900   1.272   1.862 -0.1920 -0.9165 -1.2502
  739MOL0     H97545   1.948   1.432   1.808  1.8857 -1.3782 -2.3459
  739MOL0     H97546   1.536   1.497   1.875 -0.4105 -2.1735 -0.8773
  739MOL0     H97547   2.277   1.155   1.846  1.0941  2.3370  1.2973
  739MOL0     H97548   2.465   1.044   1.909 -1.4771  2.9930 -0.4003
  740MOL0     O97549   2.384   9.939   1.151 -0.1864 -0.0416 -0.1111
  740MOL0     C97550   2.482   9.864   1.130 -0.7388  1.3981  0.1822
  740MOL0     O97551   2.477   9.740   1.074 -0.2625 -0.1310  0.9377
  740MOL0     C97552   2.353   9.685   1.038 -0.6742 -0.5035  0.6868
  740MOL0     C97553   2.248   9.677   1.128 -0.1275 -0.5129 -0.2873
  740MOL0     C97554   2.124   9.619   1.102  0.3992 -0.1414 -0.7401
  740MOL0     C97555   2.096   9.575   0.971  0.8118  0.2668  0.8291
  740MOL0     O97556   1.968   9.530   0.955 -0.4986 -0.3541 -0.0157
  740MOL0     C97557   1.928   9.493   0.823 -0.1290 -0.2382  0.0890
  740MOL0     C97558   1.796   9.417   0.832  0.2456  1.3380 -0.7016
  740MOL0     C97559   1.749   9.367   0.694  0.0445  0.1572 -0.2912
  740MOL0     C97560   1.638   9.253   0.691  0.1755 -0.2134 -1.1146
  740MOL0     C97561   1.503   9.322   0.655  1.0904 -0.8171  0.1136
  740MOL0     C97562   1.447   9.427   0.758  0.2029 -0.4452  0.7366
  740MOL0     C97563   1.326   9.503   0.693 -0.1757  0.3069  0.0344
  740MOL0     C97564   1.374   9.606   0.580  0.9614  0.0475  0.0324
  740MOL0     N97565   1.479   9.698   0.631  0.3251  0.2036 -0.6670
  740MOL0     C97566   1.481   9.797   0.727 -0.0396 -0.0556 -0.9917
  740MOL0     C97567   1.582   9.885   0.695  0.0964 -0.5615  0.6405
  740MOL0     C97568   1.623  10.016   0.765  0.9255  0.4804  0.2835
  740MOL0     C97569   1.526  10.047   0.881  0.0474 -0.2823 -0.2459
  740MOL0     C97570   1.545  10.193   0.931 -0.2405  0.9060 -0.1281
  740MOL0     C97571   1.485  10.207   1.065  0.1943 -0.2862  0.3097
  740MOL0     O97572   1.340  10.214   1.044 -0.5776  0.3383  0.0728
  740MOL0     C97573   1.260  10.283   1.121 -1.4961  0.7672 -0.1404
  740MOL0     C97574   1.296  10.326   1.241  0.0992 -0.1441  0.7317
  740MOL0     C97575   1.216  10.408   1.324 -0.9098  0.4444  0.6109
  740MOL0     C97576   1.086  10.441   1.275  0.0574 -0.6670 -0.0769
  740MOL0     C97577   0.986  10.518   1.349 -0.7444  0.0301  0.3135
  740MOL0     O97578   0.873  10.560   1.284 -0.0531 -0.1218  0.3430
  740MOL0     C97579   0.758  10.607   1.344  0.1023  0.9096 -0.6385
  740MOL0     C97580   0.752  10.711   1.436  0.0909 -0.5214 -0.2336
  740MOL0     C97581   0.623  10.756   1.476  0.4622 -1.0283  0.0717
  740MOL0     C97582   0.507  10.704   1.423  0.5681  0.4592 -0.5615
  740MOL0     O97583   0.388  10.758   1.466  0.3967 -0.9022  0.6600
  740MOL0     C97584   0.372  10.858   1.577  0.1175 -0.2511  0.1562
  740MOL0     C97585   0.220  10.871   1.604 -0.5178 -0.2807  0.7494
  740MOL0     C97586   0.188  10.998   1.678  0.4475  0.4534 -0.8938
  740MOL0     C97587   0.041  10.995   1.716  0.3139 -0.6695  0.3717
  740MOL0     C97588   0.021  11.097   1.833 -0.3602  0.6293  0.6378
  740MOL0     C97589   0.089  11.232   1.797 -0.1336  0.8976 -0.9728
  740MOL0     C97590   0.043  11.353   1.884 -0.3555 -0.1960  0.6411
  740MOL0     C97591   0.129  11.478   1.856 -0.4099 -0.2054 -0.0614
  740MOL0    Cl97592   0.304  11.447   1.894  0.1138 -0.1272 -0.0152
  740MOL0     C97593   0.512  10.600   1.340 -0.2891  0.3039  0.0919
  740MOL0     C97594   0.636  10.543   1.307  0.4107  0.3726 -0.2525
  740MOL0     O97595   1.016  10.552   1.464  0.0945  0.4475 -0.5453
  740MOL0     C97596   1.056  10.411   1.144 -0.0242  0.2089  0.3700
  740MOL0     C97597   1.143  10.328   1.070  0.5097  0.2317  1.0628
  740MOL0     N97598   1.656   9.823   0.592  0.2233  0.0715  0.1617
  740MOL0     N97599   1.592   9.715   0.551  0.5454 -0.3486 -0.4885
  740MOL0     C97600   2.201   9.579   0.878 -0.3061  0.3454 -0.4369
  740MOL0     C97601   2.325   9.633   0.915  0.7883 -0.2020  0.5147
  740MOL0     C97602   2.612   9.895   1.177 -0.4697 -1.6745  0.0091
  740MOL0     C97603   2.647  10.027   1.206  0.4506 -0.2283  0.3269
  740MOL0     C97604   2.777  10.064   1.223 -1.5284 -0.7948 -0.5263
  740MOL0     C97605   2.883   9.973   1.237 -0.0589 -0.0050 -0.2139
  740MOL0     O97606   3.020  10.003   1.253 -0.6886 -0.2122 -0.1051
  740MOL0     C97607   3.056  10.136   1.298 -0.2608  0.8789 -0.0577
  740MOL0     C97608   3.084  10.222   1.173  0.0946 -0.8608 -0.3532
  740MOL0     C97609   3.085  10.370   1.230  0.7123  0.1560  0.2601
  740MOL0     C97610   3.174  10.408   1.361 -0.1342 -0.8633  0.8425
  740MOL0     C97611   3.310  10.367   1.350 -0.5325  1.4573 -0.0928
  740MOL0     C97612   3.423  10.323   1.342  0.3976 -1.6937  0.4422
  740MOL0     C97613   2.846   9.839   1.213  0.0026 -0.6975  0.1195
  740MOL0     C97614   2.718   9.804   1.181 -0.5599 -0.5599  0.0932
  740MOL0     H97615   2.279   9.721   1.222  2.4437  1.7905 -2.0948
  740MOL0     H97616   2.052   9.632   1.182  0.5165 -0.8029 -0.5203
  740MOL0     H97617   2.007   9.440   0.770  0.5978  0.3405  0.5801
  740MOL0     H97618   1.908   9.577   0.755  0.7260 -1.4204 -1.7162
  740MOL0     H97619   1.723   9.480   0.884  0.7902  1.2947  0.1274
  740MOL0     H97620   1.810   9.331   0.898 -3.2173  1.4494  0.3973
  740MOL0     H97621   1.838   9.319   0.652  1.4609  1.8542  0.6280
  740MOL0     H97622   1.712   9.460   0.649 -0.0944  1.3144  2.0603
  740MOL0     H97623   1.660   9.189   0.605  2.4309  3.0686 -3.2506
  740MOL0     H97624   1.636   9.188   0.778 -0.1274 -1.7837 -2.2448
  740MOL0     H97625   1.423   9.251   0.634  0.9651 -0.5795 -0.2106
  740MOL0     H97626   1.532   9.366   0.559  2.6199  1.5285  1.5409
  740MOL0     H97627   1.523   9.499   0.789  0.8453 -1.4632  1.6117
  740MOL0     H97628   1.422   9.359   0.840  1.6227 -2.1598 -0.1737
  740MOL0     H97629   1.256   9.436   0.643 -0.7302 -0.6065  1.9475
  740MOL0     H97630   1.274   9.562   0.769  2.2374  4.6193 -1.3417
  740MOL0     H97631   1.296   9.675   0.546  0.6687 -1.0331 -1.5934
  740MOL0     H97632   1.414   9.554   0.493  1.1921 -0.0112  0.1724
  740MOL0     H97633   1.414   9.811   0.811  1.7722  1.5359  0.2732
  740MOL0     H97634   1.609  10.099   0.695  0.6589  0.8870  0.8098
  740MOL0     H97635   1.723  10.012   0.809  0.5968 -0.7382  0.9474
  740MOL0     H97636   1.537   9.974   0.962  0.4113 -2.0975 -1.8543
  740MOL0     H97637   1.426  10.039   0.837  1.1065 -1.6004 -2.5874
  740MOL0     H97638   1.652  10.206   0.947 -0.4793  2.2402  0.4488
  740MOL0     H97639   1.497  10.268   0.867 -2.3312 -0.5874 -0.4334
  740MOL0     H97640   1.522  10.298   1.113 -1.4103  1.1249 -0.9867
  740MOL0     H97641   1.491  10.123   1.134 -2.2528  0.3652  1.3992
  740MOL0     H97642   1.396  10.302   1.276  0.0583 -1.9610 -0.2638
  740MOL0     H97643   1.256  10.466   1.406 -0.8221  1.0339  0.1524
  740MOL0     H97644   0.838  10.764   1.476  0.0963  0.5914 -1.6623
  740MOL0     H97645   0.621  10.848   1.533 -0.9662 -0.2643 -1.1258
  740MOL0     H97646   0.418  10.954   1.553  0.4775 -0.8000 -1.4320
  740MOL0     H97647   0.397  10.815   1.675 -3.9855 -0.2545  1.4096
  740MOL0     H97648   0.197  10.792   1.677 -0.2413  2.1462  3.6530
  740MOL0     H97649   0.152  10.861   1.519 -1.5848 -0.4727  1.6069
  740MOL0     H97650   0.198  11.082   1.608 -0.5596 -0.6174 -2.3794
  740MOL0     H97651   0.262  11.000   1.759  0.2364 -1.0439 -0.6401
  740MOL0     H97652  -0.021  11.013   1.628  0.5497 -1.1283  0.1059
  740MOL0     H97653   0.009  10.897   1.754 -1.5052  0.5124  2.0436
  740MOL0     H97654   0.069  11.059   1.924 -0.8080  4.4010  2.6667
  740MOL0     H97655  -0.085  11.103   1.860 -0.2368 -1.1793  1.6508
  740MOL0     H97656   0.066  11.254   1.693 -0.8478  1.4710 -0.7051
  740MOL0     H97657   0.197  11.226   1.814 -0.4472  1.7592  1.8145
  740MOL0     H97658  -0.061  11.371   1.855 -0.0685  0.4526 -0.0094
  740MOL0     H97659   0.054  11.333   1.991  1.2887  2.0019  0.9506
  740MOL0     H97660   0.107  11.569   1.912  3.5854  2.4515 -2.3029
  740MOL0     H97661   0.127  11.506   1.751 -1.1470 -0.6434 -0.1643
  740MOL0     H97662   0.417  10.569   1.296 -0.2988 -0.7625  0.8272
  740MOL0     H97663   0.645  10.460   1.237 -0.2465 -0.3539  0.5039
  740MOL0     H97664   0.967  10.445   1.092 -0.5141 -2.2248 -0.5053
  740MOL0     H97665   1.117  10.318   0.965  0.8368 -2.1902  1.1441
  740MOL0     H97666   2.195   9.540   0.778  2.2873 -0.0503 -0.4988
  740MOL0     H97667   2.406   9.643   0.843  0.0015 -1.6012 -0.6258
  740MOL0     H97668   2.573  10.105   1.224  0.8345 -0.0906  1.4295
  740MOL0     H97669   2.795  10.171   1.235  2.4185 -0.8892 -3.6410
  740MOL0     H97670   3.151  10.111   1.347 -0.4908 -2.3301 -0.9905
  740MOL0     H97671   2.985  10.182   1.368  1.8473  1.7593  1.6211
  740MOL0     H97672   3.178  10.188   1.128  0.2845  1.5158 -1.9092
  740MOL0     H97673   3.014  10.215   1.090 -1.0037 -0.9697  0.5631
  740MOL0     H97674   2.981  10.390   1.257  0.2724 -1.2339 -0.2637
  740MOL0     H97675   3.112  10.443   1.153 -3.8931  2.2574  0.2993
  740MOL0     H97676   3.161  10.516   1.372  2.1276 -0.4315 -0.1331
  740MOL0     H97677   3.121  10.358   1.443  0.7142 -1.7890  0.8459
  740MOL0     H97678   3.526  10.294   1.339  1.0138  0.3281  0.3572
  740MOL0     H97679   2.920   9.761   1.197 -0.0675 -0.5183 -1.2320
  740MOL0     H97680   2.700   9.698   1.172 -2.1406 -0.3326  0.2202
  741MOL0     O97681   3.448   9.970  10.106 -0.4216  0.3490  0.5290
  741MOL0     C97682   3.492   9.875  10.046 -0.1231  1.4252  0.0254
  741MOL0     O97683   3.428   9.774   9.983  0.2864  0.3887 -0.4893
  741MOL0     C97684   3.293   9.777   9.968  0.3738  0.2749 -0.2043
  741MOL0     C97685   3.212   9.668   9.991 -0.0813  0.1188  0.7624
  741MOL0     C97686   3.076   9.669   9.956 -0.2924  0.1759 -0.3800
  741MOL0     C97687   3.017   9.792   9.916  0.6367  0.7827  1.2713
  741MOL0     O97688   2.878   9.811   9.910  0.5002 -0.1776 -0.3508
  741MOL0     C97689   2.790   9.727   9.989  1.1641  0.7955  0.0354
  741MOL0     C97690   2.646   9.750   9.940  0.0565  0.6929 -0.0209
  741MOL0     C97691   2.586   9.874  10.005  1.1061  0.2493 -0.8165
  741MOL0     C97692   2.662  10.001   9.971 -0.0246 -0.7288  0.1387
  741MOL0     C97693   2.588  10.128  10.009 -0.2587  0.0900  0.3152
  741MOL0     C97694   2.491  10.160   9.890  0.3456 -0.3284 -0.6713
  741MOL0     C97695   2.379  10.265   9.936  0.2161  0.8668 -0.2668
  741MOL0     C97696   2.313  10.336   9.813 -0.0279 -0.0760  0.0584
  741MOL0     N97697   2.191  10.406   9.862 -0.4056  0.3983 -0.0572
  741MOL0     C97698   2.175  10.503   9.960 -0.9307  0.2882  0.4366
  741MOL0     C97699   2.044  10.509   9.981 -0.0914  0.5331 -0.1498
  741MOL0     C97700   1.976  10.609  10.063  0.9916  0.5952 -0.1013
  741MOL0     C97701   1.882  10.696   9.980 -0.2945 -0.3953 -0.5648
  741MOL0     C97702   1.860  10.830  10.060  0.0503  0.4073  0.0615
  741MOL0     C97703   1.745  10.914   9.997 -0.4521 -0.7512  0.6941
  741MOL0     O97704   1.621  10.839   9.986 -0.1300  0.0455  0.3618
  741MOL0     C97705   1.525  10.895   9.909  0.0943 -0.7474  0.7278
  741MOL0     C97706   1.523  11.033   9.868 -0.8234  0.2347  0.2004
  741MOL0     C97707   1.419  11.082   9.785 -0.7096  0.6176 -0.8766
  741MOL0     C97708   1.320  11.003   9.746  0.1577 -0.3798  0.4954
  741MOL0     C97709   1.215  11.069   9.663  0.4382  1.2158  0.5738
  741MOL0     O97710   1.223  11.202   9.645 -0.0462  0.5141 -0.2515
  741MOL0     C97711   1.108  11.263   9.599  0.1896  0.2462 -0.3192
  741MOL0     C97712   1.033  11.335   9.681  0.1389  0.4947  0.3681
  741MOL0     C97713   0.929  11.406   9.626  0.2030 -1.0135 -0.0181
  741MOL0     C97714   0.907  11.420   9.489 -0.7301  0.5635 -1.2612
  741MOL0     O97715   0.810  11.488   9.426 -0.6757 -0.1756  0.0961
  741MOL0     C97716   0.693  11.525   9.505 -0.3472  0.0219  0.1811
  741MOL0     C97717   0.610  11.593   9.403 -0.1894 -1.1731  0.5498
  741MOL0     C97718   0.472  11.630   9.449  0.8851 -0.3682 -0.9880
  741MOL0     C97719   0.466  11.747   9.554 -1.1125  0.2848  0.2090
  741MOL0     C97720   0.329  11.799   9.545 -0.2207  0.1161 -0.4219
  741MOL0     C97721   0.234  11.725   9.636  0.4025 -0.2578  0.9156
  741MOL0     C97722   0.097  11.748   9.570 -0.0123 -0.2938  0.7464
  741MOL0     C97723  -0.016  11.655   9.631  0.1240 -0.2521  0.4102
  741MOL0    Cl97724  -0.187  11.701   9.613 -0.2945 -0.2290  0.2222
  741MOL0     C97725   0.989  11.343   9.406  0.6912 -0.5901 -0.4447
  741MOL0     C97726   1.092  11.265   9.461  1.2685  0.1728  1.5478
  741MOL0     O97727   1.124  11.001   9.616 -0.5303  0.0956  0.1504
  741MOL0     C97728   1.309  10.869   9.798 -0.7586  0.1743  0.2095
  741MOL0     C97729   1.416  10.811   9.872 -0.0251 -0.1924 -0.1795
  741MOL0     N97730   1.981  10.407   9.906 -0.0480  0.0187  0.6735
  741MOL0     N97731   2.066  10.354   9.835 -0.5729 -0.2746  0.0204
  741MOL0     C97732   3.098   9.899   9.893 -1.4138  0.2177  0.7803
  741MOL0     C97733   3.229   9.894   9.919 -0.1714  0.1932  0.4254
  741MOL0     C97734   3.640   9.862  10.034 -0.3242 -0.5280 -0.2261
  741MOL0     C97735   3.700   9.743   9.994 -0.2408 -0.2989  0.1182
  741MOL0     C97736   3.842   9.739   9.977 -0.1857 -0.2010 -0.0779
  741MOL0     C97737   3.920   9.853  10.006 -1.6651  0.3864 -0.9128
  741MOL0     O97738   4.056   9.864   9.996 -0.3130  0.0151 -0.2084
  741MOL0     C97739   4.131   9.737  10.004 -0.0787 -0.1475 -0.5971
  741MOL0     C97740   4.170   9.680   9.865  0.6486  0.5180  0.3020
  741MOL0     C97741   4.221   9.788   9.764 -0.0867  0.7598 -0.2781
  741MOL0     C97742   4.347   9.875   9.814  0.0488 -0.0550  1.0189
  741MOL0     C97743   4.477   9.808   9.828  0.2543 -0.5540 -0.1315
  741MOL0     C97744   4.589   9.749   9.831  1.4884  0.3256 -0.1614
  741MOL0     C97745   3.855   9.965  10.055 -0.0540 -0.1497 -0.3867
  741MOL0     C97746   3.716   9.974  10.067  0.1744  0.0367  0.4279
  741MOL0     H97747   3.273   9.582  10.017 -1.6269 -1.3297 -0.1675
  741MOL0     H97748   3.013   9.586   9.987 -0.0924  0.0035 -0.4366
  741MOL0     H97749   2.789   9.736  10.098 -0.9531  0.4190  0.0746
  741MOL0     H97750   2.805   9.621   9.965 -1.7539  0.6622 -1.6608
  741MOL0     H97751   2.582   9.667   9.970 -0.1427  0.8689  0.0438
  741MOL0     H97752   2.652   9.747   9.831  1.2902  0.9254  0.0287
  741MOL0     H97753   2.584   9.850  10.112  1.5153 -1.6223 -1.1978
  741MOL0     H97754   2.483   9.901   9.980  1.2825  3.5338  1.3299
  741MOL0     H97755   2.757  10.006  10.024  1.1520  1.2862 -1.9589
  741MOL0     H97756   2.688   9.999   9.864  1.7524  0.8033  0.5059
  741MOL0     H97757   2.660  10.207  10.031 -1.4506  1.5051 -0.6660
  741MOL0     H97758   2.527  10.113  10.099  3.6662  0.2450  3.2752
  741MOL0     H97759   2.433  10.077   9.848 -1.7700 -0.7963  2.8069
  741MOL0     H97760   2.539  10.193   9.798  0.9651  0.3766 -0.1016
  741MOL0     H97761   2.306  10.204   9.990 -1.0844  0.6600 -2.1806
  741MOL0     H97762   2.420  10.334  10.011 -1.0581 -1.4973  2.8252
  741MOL0     H97763   2.298  10.255   9.740 -0.2328 -0.6976  0.7715
  741MOL0     H97764   2.375  10.407   9.758 -0.6261  0.3229 -0.1097
  741MOL0     H97765   2.260  10.553  10.004 -0.1469  0.2050 -0.9400
  741MOL0     H97766   2.051  10.673  10.110  2.5673 -0.4007 -1.1700
  741MOL0     H97767   1.913  10.567  10.142 -0.1145  2.7450  0.2257
  741MOL0     H97768   1.786  10.645   9.966  0.1417 -1.0654 -1.1858
  741MOL0     H97769   1.924  10.719   9.882 -0.0142 -1.1782 -0.6299
  741MOL0     H97770   1.841  10.810  10.165  3.2213 -1.2677  0.4405
  741MOL0     H97771   1.958  10.878  10.054 -0.2821  1.0281 -0.7017
  741MOL0     H97772   1.775  10.944   9.896  0.5228 -0.5006  1.0526
  741MOL0     H97773   1.736  11.004  10.058  1.6399  2.1485 -2.8852
  741MOL0     H97774   1.600  11.104   9.898  0.4843 -0.6757 -0.8703
  741MOL0     H97775   1.432  11.182   9.745 -0.8140  0.7508 -0.5793
  741MOL0     H97776   1.046  11.343   9.788 -2.0644  1.7986  0.6098
  741MOL0     H97777   0.874  11.468   9.697  1.0303 -1.8122  1.3684
  741MOL0     H97778   0.727  11.592   9.584 -1.6836 -0.5655  1.2953
  741MOL0     H97779   0.632  11.447   9.552  0.6943 -0.5368  0.6363
  741MOL0     H97780   0.594  11.525   9.318 -0.7311 -0.4277  0.0473
  741MOL0     H97781   0.664  11.685   9.378  0.0761 -0.7663  2.4483
  741MOL0     H97782   0.426  11.539   9.488  0.0443  0.5539  0.2713
  741MOL0     H97783   0.423  11.660   9.357 -0.3083 -1.4078 -0.7172
  741MOL0     H97784   0.496  11.718   9.655 -1.1939 -0.6202 -0.0121
  741MOL0     H97785   0.525  11.831   9.516 -0.0150 -1.8135 -3.2304
  741MOL0     H97786   0.288  11.804   9.444 -5.3908  1.0837  1.3630
  741MOL0     H97787   0.319  11.902   9.581 -1.1089 -0.7827  2.1834
  741MOL0     H97788   0.249  11.768   9.735  1.5214  0.4703  0.4499
  741MOL0     H97789   0.249  11.616   9.638  1.7793 -0.1606 -0.9202
  741MOL0     H97790   0.071  11.853   9.586  1.1335  0.6474 -2.6958
  741MOL0     H97791   0.101  11.726   9.462  0.8581  1.2478  0.4342
  741MOL0     H97792  -0.014  11.665   9.740  1.4833 -0.7105  0.4462
  741MOL0     H97793  -0.007  11.551   9.598 -6.0323 -0.6004 -1.3992
  741MOL0     H97794   0.964  11.346   9.300 -1.6165  3.2690  0.0336
  741MOL0     H97795   1.160  11.209   9.399 -0.2130  0.3484 -0.3121
  741MOL0     H97796   1.228  10.805   9.766  1.4597 -2.0829 -1.3189
  741MOL0     H97797   1.427  10.714   9.918  1.2856 -0.4811 -1.0438
  741MOL0     H97798   3.051   9.991   9.860  1.1742  2.2719  2.4466
  741MOL0     H97799   3.297   9.969   9.883  0.6241 -0.0936  1.2836
  741MOL0     H97800   3.641   9.656   9.969 -1.2696  0.4074  0.0052
  741MOL0     H97801   3.889   9.648   9.941 -2.1262 -0.9528 -0.8669
  741MOL0     H97802   4.087   9.655  10.061  1.9993 -0.5566  0.5205
  741MOL0     H97803   4.226   9.753  10.057 -1.6530  1.4481  1.9284
  741MOL0     H97804   4.230   9.592   9.891  0.6598  0.7871  1.2131
  741MOL0     H97805   4.079   9.636   9.826  2.4983 -2.6946 -0.7477
  741MOL0     H97806   4.136   9.855   9.753 -1.3785 -0.0362  3.4105
  741MOL0     H97807   4.238   9.739   9.668 -2.4444  0.3051 -0.5184
  741MOL0     H97808   4.357   9.961   9.747 -1.1391  0.6620  1.7334
  741MOL0     H97809   4.319   9.922   9.909  2.4196  0.8195  1.3758
  741MOL0     H97810   4.692   9.718   9.826  1.6491  0.6947  0.7396
  741MOL0     H97811   3.910  10.055  10.076 -0.6526  1.0142 -3.2829
  741MOL0     H97812   3.675  10.066  10.108  2.1607  0.3723  1.8200
  742MOL0     O97813   4.948   0.107   8.084 -0.0159 -0.8275  0.0481
  742MOL0     C97814   5.032   0.182   8.139 -0.0769  0.5828  1.3647
  742MOL0     O97815   5.008   0.267   8.242  0.5886 -0.2067  0.1619
  742MOL0     C97816   4.899   0.262   8.323 -0.0354  0.2088 -0.4511
  742MOL0     C97817   4.878   0.159   8.419 -0.0341 -0.0224 -0.1161
  742MOL0     C97818   4.755   0.162   8.495  0.7294  0.5919  0.7249
  742MOL0     C97819   4.659   0.261   8.470 -1.2975  1.0429 -0.3061
  742MOL0     O97820   4.540   0.262   8.535 -0.1749 -0.7566  0.7393
  742MOL0     C97821   4.525   0.193   8.663 -0.0622  0.3127  0.6209
  742MOL0     C97822   4.397   0.240   8.738 -0.2338 -1.3130 -0.0424
  742MOL0     C97823   4.269   0.252   8.652 -1.0141  0.0856  1.1618
  742MOL0     C97824   4.149   0.308   8.721 -0.8752 -0.1026 -0.6474
  742MOL0     C97825   4.015   0.308   8.631 -0.3427 -0.8030  0.3797
  742MOL0     C97826   3.891   0.363   8.696  0.1526 -0.8134 -0.4786
  742MOL0     C97827   3.835   0.267   8.810  0.7573 -0.4559  0.1840
  742MOL0     C97828   3.705   0.339   8.871  0.5796 -0.0422 -0.7208
  742MOL0     N97829   3.647   0.251   8.976 -0.0369  0.6818  0.3893
  742MOL0     C97830   3.600   0.122   8.952  0.2462 -0.5743 -0.0463
  742MOL0     C97831   3.564   0.081   9.081  0.1248 -0.3093  0.4789
  742MOL0     C97832   3.470  -0.035   9.112 -0.3914 -0.2407 -0.1912
  742MOL0     C97833   3.315   0.010   9.102  0.0319  0.4694  0.5931
  742MOL0     C97834   3.261   0.001   8.965  0.6671 -0.3458  0.5830
  742MOL0     C97835   3.127   0.075   8.937  0.0856 -0.3256 -0.1107
  742MOL0     O97836   3.026   0.082   9.042  0.1558  0.0564  0.1321
  742MOL0     C97837   2.941  -0.028   9.021  0.3896  0.1721 -0.3305
  742MOL0     C97838   2.939  -0.136   9.109  0.2607 -0.2192 -0.2540
  742MOL0     C97839   2.853  -0.243   9.080 -0.0932 -0.4682  0.0272
  742MOL0     C97840   2.793  -0.257   8.955  0.0219 -0.2242  0.6770
  742MOL0     C97841   2.700  -0.370   8.925 -0.4517  0.2456  1.0601
  742MOL0     O97842   2.665  -0.390   8.791  0.1694  0.2399 -0.7497
  742MOL0     C97843   2.554  -0.464   8.755  0.1215 -0.1987 -0.3853
  742MOL0     C97844   2.554  -0.527   8.631 -0.5531 -0.4332  0.1832
  742MOL0     C97845   2.441  -0.589   8.582 -0.3214 -0.1123  0.0711
  742MOL0     C97846   2.312  -0.576   8.640 -0.0715 -0.2151 -0.4763
  742MOL0     O97847   2.213  -0.650   8.580 -0.4891 -0.1779 -0.2637
  742MOL0     C97848   2.083  -0.641   8.637 -0.2651  0.2060 -0.0107
  742MOL0     C97849   1.994  -0.520   8.631  0.2048 -0.2189 -0.3747
  742MOL0     C97850   1.868  -0.519   8.726 -0.2480 -0.3721  0.1556
  742MOL0     C97851   1.778  -0.626   8.677 -0.5283 -0.0667  0.1809
  742MOL0     C97852   1.645  -0.620   8.756  0.0093 -0.2693  0.1734
  742MOL0     C97853   1.557  -0.491   8.719 -0.0016 -1.2685 -0.5026
  742MOL0     C97854   1.422  -0.509   8.781  0.5582 -0.5998 -0.2373
  742MOL0     C97855   1.327  -0.612   8.722 -0.2938 -0.2050  0.5934
  742MOL0    Cl97856   1.169  -0.595   8.803 -0.0200  0.4819 -0.3353
  742MOL0     C97857   2.309  -0.511   8.764  0.4668  0.3800 -0.5552
  742MOL0     C97858   2.420  -0.447   8.823  0.1589 -0.2956  0.6642
  742MOL0     O97859   2.666  -0.440   9.021 -0.0060  0.2398 -0.8056
  742MOL0     C97860   2.793  -0.151   8.861 -0.5853 -0.4961  0.1009
  742MOL0     C97861   2.856  -0.031   8.905  0.2514  0.7439 -0.5050
  742MOL0     N97862   3.593   0.182   9.168  0.2532  0.3723 -0.0925
  742MOL0     N97863   3.656   0.280   9.107 -0.3936  0.4618 -0.0647
  742MOL0     C97864   4.681   0.355   8.369  0.3680  0.7420  0.7508
  742MOL0     C97865   4.792   0.349   8.288  0.6483  0.0758  0.2077
  742MOL0     C97866   5.171   0.200   8.083 -0.8739 -0.0246 -1.2812
  742MOL0     C97867   5.219   0.116   7.981  0.6891 -0.0874 -1.0542
  742MOL0     C97868   5.351   0.134   7.941  0.2251 -0.7118 -0.0194
  742MOL0     C97869   5.444   0.229   7.991  0.1228 -0.0765  0.6038
  742MOL0     O97870   5.568   0.238   7.928  0.1791  0.4137 -0.5650
  742MOL0     C97871   5.644   0.355   7.957  0.0430 -0.2691 -0.1871
  742MOL0     C97872   5.775   0.362   7.880  0.4720  0.2803  0.2709
  742MOL0     C97873   5.768   0.363   7.731 -0.5120  0.7151  0.0853
  742MOL0     C97874   5.903   0.369   7.664  0.2667  0.1749 -0.2565
  742MOL0     C97875   5.995   0.262   7.694 -0.3980  0.0994  0.4284
  742MOL0     C97876   6.064   0.181   7.740 -0.6531  0.2426  0.1450
  742MOL0     C97877   5.389   0.319   8.085  0.5402 -0.2211  0.6706
  742MOL0     C97878   5.263   0.292   8.143 -0.1838  0.3124 -0.2741
  742MOL0     H97879   4.961   0.094   8.444  2.1999  3.1580  1.5252
  742MOL0     H97880   4.731   0.089   8.571 -1.0943 -0.2913 -0.6161
  742MOL0     H97881   4.616   0.213   8.722  1.4586 -2.1200 -0.7293
  742MOL0     H97882   4.523   0.086   8.642 -0.8921  0.4360  0.0379
  742MOL0     H97883   4.427   0.330   8.792 -3.0658  0.0542 -0.6036
  742MOL0     H97884   4.379   0.169   8.820 -0.0939  0.4965  1.6279
  742MOL0     H97885   4.231   0.161   8.605 -2.9925  0.8418  1.1832
  742MOL0     H97886   4.292   0.308   8.561  0.9136 -5.0444 -1.9335
  742MOL0     H97887   4.140   0.249   8.813 -1.0853  1.5403  0.4306
  742MOL0     H97888   4.180   0.409   8.751  0.0514 -1.4063  3.3774
  742MOL0     H97889   3.995   0.206   8.597 -0.2524 -0.5949 -0.3153
  742MOL0     H97890   4.032   0.366   8.540 -2.4799 -1.6060 -0.5743
  742MOL0     H97891   3.818   0.363   8.614 -0.6693  0.6115  0.2201
  742MOL0     H97892   3.909   0.467   8.724  1.1609 -1.0281 -0.2951
  742MOL0     H97893   3.797   0.177   8.762 -0.0851  1.4295 -3.0272
  742MOL0     H97894   3.907   0.258   8.891  0.6490  1.9172  0.6218
  742MOL0     H97895   3.626   0.341   8.796 -0.3698 -0.5028  0.2446
  742MOL0     H97896   3.727   0.436   8.917  2.5734 -0.6713 -0.2413
  742MOL0     H97897   3.586   0.057   8.866 -0.7387  0.2578 -0.5244
  742MOL0     H97898   3.482  -0.070   9.215  5.2198 -0.7743 -0.7267
  742MOL0     H97899   3.493  -0.122   9.050  0.6188  1.0755 -1.7466
  742MOL0     H97900   3.301   0.112   9.138 -0.5114  0.4448  0.4692
  742MOL0     H97901   3.251  -0.054   9.163  0.2269 -1.4334 -1.0970
  742MOL0     H97902   3.339   0.033   8.895  1.2960 -0.4853  1.2060
  742MOL0     H97903   3.248  -0.105   8.942  0.3805 -0.3536  0.7844
  742MOL0     H97904   3.091   0.034   8.843 -1.0039 -2.0341  0.9949
  742MOL0     H97905   3.141   0.177   8.901 -3.9983 -0.5277 -2.8943
  742MOL0     H97906   2.991  -0.132   9.204 -1.3958 -2.3179  0.8204
  742MOL0     H97907   2.840  -0.320   9.156  1.3057  0.4099  1.1988
  742MOL0     H97908   2.652  -0.539   8.586 -0.2172  0.4383  0.6644
  742MOL0     H97909   2.448  -0.654   8.495 -1.5282 -0.0681 -0.0886
  742MOL0     H97910   2.080  -0.661   8.745  0.4701 -3.8240 -0.5488
  742MOL0     H97911   2.026  -0.724   8.593 -0.3769 -0.4848  1.3877
  742MOL0     H97912   1.959  -0.509   8.528 -3.5157  0.3125  0.7747
  742MOL0     H97913   2.054  -0.432   8.656  2.6649 -1.5147 -1.4119
  742MOL0     H97914   1.814  -0.424   8.715  1.8932  0.6877 -2.6619
  742MOL0     H97915   1.913  -0.511   8.826  1.3494  2.8123 -0.6661
  742MOL0     H97916   1.755  -0.624   8.570 -0.8192  1.7113  0.2573
  742MOL0     H97917   1.831  -0.718   8.704 -3.7776 -1.1995  3.6421
  742MOL0     H97918   1.664  -0.614   8.864 -1.2493  0.1004  0.3965
  742MOL0     H97919   1.588  -0.710   8.732 -1.6051  1.2888 -2.2241
  742MOL0     H97920   1.557  -0.472   8.611  1.5722 -1.2946 -0.5375
  742MOL0     H97921   1.596  -0.397   8.759 -0.1523 -0.6432 -1.7570
  742MOL0     H97922   1.430  -0.524   8.889  0.8749 -4.0742 -0.6171
  742MOL0     H97923   1.373  -0.413   8.766  2.5662  1.0102  2.4652
  742MOL0     H97924   1.362  -0.714   8.739 -0.1327 -0.5093 -1.3444
  742MOL0     H97925   1.324  -0.594   8.614  2.7272  3.1224  0.8906
  742MOL0     H97926   2.208  -0.495   8.799 -0.3701 -0.8764 -2.2400
  742MOL0     H97927   2.424  -0.396   8.919 -1.0644  0.8270  0.1505
  742MOL0     H97928   2.754  -0.165   8.760 -1.8792  1.9339  0.1764
  742MOL0     H97929   2.865   0.051   8.835  1.2692  1.0061 -0.0791
  742MOL0     H97930   4.616   0.441   8.355 -0.0652  0.7470  2.5255
  742MOL0     H97931   4.810   0.420   8.208  1.1458  1.9636  1.9071
  742MOL0     H97932   5.151   0.044   7.936 -0.2314 -0.1989  0.4204
  742MOL0     H97933   5.390   0.080   7.856 -0.8510 -0.1459 -0.8975
  742MOL0     H97934   5.661   0.362   8.065 -1.1215 -1.4908  0.1032
  742MOL0     H97935   5.581   0.442   7.934 -2.0886 -0.8105  2.9614
  742MOL0     H97936   5.811   0.462   7.905 -1.0757  1.2982 -1.2757
  742MOL0     H97937   5.839   0.277   7.906 -0.0497 -0.1796  0.0852
  742MOL0     H97938   5.699   0.436   7.689  1.1515  0.2705 -3.8230
  742MOL0     H97939   5.718   0.270   7.702 -0.8094  1.0629 -0.5232
  742MOL0     H97940   5.878   0.360   7.558  2.3189 -2.9482 -0.6270
  742MOL0     H97941   5.942   0.471   7.676 -0.9750  0.5714  0.6044
  742MOL0     H97942   6.126   0.119   7.800 -0.2574 -1.4586 -1.8932
  742MOL0     H97943   5.451   0.397   8.128 -1.5180  2.1918 -0.5284
  742MOL0     H97944   5.227   0.349   8.228  0.2995  0.2772 -0.0396
  743MOL0     O97945   7.540   5.109   0.929  0.0838  0.1395  0.1027
  743MOL0     C97946   7.536   5.126   0.816 -0.1968  0.8831  0.6913
  743MOL0     O97947   7.636   5.200   0.748  0.3839  0.6826  0.6072
  743MOL0     C97948   7.746   5.249   0.809 -0.0726  0.5055 -0.6884
  743MOL0     C97949   7.788   5.251   0.945 -0.6585 -0.2365 -0.5465
  743MOL0     C97950   7.903   5.323   0.992 -0.0689 -0.0891 -0.0777
  743MOL0     C97951   7.977   5.401   0.902 -0.9971  0.3975 -0.0160
  743MOL0     O97952   8.082   5.468   0.959 -0.0649  0.3814  0.5422
  743MOL0     C97953   8.174   5.538   0.876  0.2032  0.0467 -0.0341
  743MOL0     C97954   8.294   5.592   0.963  0.1861 -0.0042 -0.5491
  743MOL0     C97955   8.248   5.645   1.096 -0.0089 -0.9610 -0.3838
  743MOL0     C97956   8.274   5.558   1.216 -0.3163 -0.2737  0.0730
  743MOL0     C97957   8.236   5.618   1.358 -0.1444  0.5537 -0.1923
  743MOL0     C97958   8.335   5.719   1.405 -0.1529  0.8191  0.1446
  743MOL0     C97959   8.370   5.721   1.553  1.4309  0.4357 -0.5989
  743MOL0     C97960   8.482   5.631   1.582  0.5424 -0.3850 -0.5207
  743MOL0     N97961   8.448   5.490   1.576  0.8973 -0.6733 -1.6210
  743MOL0     C97962   8.370   5.421   1.673 -0.9358  0.3344  0.4004
  743MOL0     C97963   8.370   5.298   1.617  0.7973  0.7986  0.0360
  743MOL0     C97964   8.300   5.175   1.674 -0.0102 -0.1370  0.6424
  743MOL0     C97965   8.405   5.078   1.714  0.1692  0.1185  0.8388
  743MOL0     C97966   8.379   4.999   1.842 -0.3122  0.8497 -0.2585
  743MOL0     C97967   8.242   4.923   1.837 -0.4973  0.2382  0.0361
  743MOL0     O97968   8.232   4.823   1.732 -0.0953 -0.0334  0.1025
  743MOL0     C97969   8.115   4.752   1.729 -0.8009 -0.7021  0.1273
  743MOL0     C97970   8.100   4.654   1.631  0.0917 -0.0387 -0.4732
  743MOL0     C97971   7.987   4.568   1.621 -0.1060  0.2530 -0.6501
  743MOL0     C97972   7.883   4.586   1.702 -0.4008 -0.1237 -0.1189
  743MOL0     C97973   7.759   4.502   1.688 -0.2004 -0.3729  0.5212
  743MOL0     O97974   7.772   4.394   1.603 -0.5840 -0.7032  0.3266
  743MOL0     C97975   7.666   4.332   1.561  0.5589  0.6531 -0.2574
  743MOL0     C97976   7.633   4.345   1.430  0.1089 -0.0117  1.0573
  743MOL0     C97977   7.511   4.307   1.380  0.8488 -0.0900  0.3231
  743MOL0     C97978   7.412   4.229   1.461 -0.4343 -0.1379  0.2897
  743MOL0     O97979   7.290   4.186   1.420 -0.0279 -0.1738  0.5436
  743MOL0     C97980   7.228   4.270   1.323 -0.1088 -0.3528  0.8273
  743MOL0     C97981   7.081   4.237   1.316 -0.1491 -0.5354 -0.3894
  743MOL0     C97982   7.004   4.299   1.200 -0.7313 -0.5354 -0.1495
  743MOL0     C97983   6.849   4.279   1.205 -0.1471 -0.1302 -0.4491
  743MOL0     C97984   6.777   4.312   1.078  0.4708 -0.2339 -0.2290
  743MOL0     C97985   6.830   4.257   0.948 -0.7219  0.9735 -0.3896
  743MOL0     C97986   6.746   4.274   0.827  0.3432 -0.5478 -0.6570
  743MOL0     C97987   6.657   4.150   0.809 -0.4299 -0.0366 -0.5000
  743MOL0    Cl97988   6.542   4.187   0.679  0.1835 -0.0414 -0.0708
  743MOL0     C97989   7.450   4.223   1.595 -0.5602 -0.1649 -0.2665
  743MOL0     C97990   7.572   4.272   1.646 -0.2581 -0.1210  0.0803
  743MOL0     O97991   7.657   4.543   1.729  0.1310 -0.3378 -0.0927
  743MOL0     C97992   7.891   4.685   1.808  0.3530 -0.8567 -0.1349
  743MOL0     C97993   8.003   4.777   1.813 -0.5812  0.3829 -0.4956
  743MOL0     N97994   8.428   5.305   1.494  0.3125  0.4277 -0.3924
  743MOL0     N97995   8.476   5.417   1.465  0.4189  0.5836 -1.1047
  743MOL0     C97996   7.944   5.396   0.767 -1.3773 -0.2815 -0.2104
  743MOL0     C97997   7.831   5.317   0.727 -0.0727 -1.4280  0.4252
  743MOL0     C97998   7.421   5.071   0.734  0.9527 -0.3317  0.2461
  743MOL0     C97999   7.315   5.005   0.797  0.3635 -1.3348 -0.2169
  743MOL0     C98000   7.209   4.952   0.719  0.0974 -0.5718 -0.6311
  743MOL0     C98001   7.193   4.965   0.576 -0.6065  0.0996 -0.2823
  743MOL0     O98002   7.085   4.920   0.507  0.4659  0.5412 -0.0482
  743MOL0     C98003   6.962   4.881   0.569  0.4624 -0.0686  0.4009
  743MOL0     C98004   6.879   4.985   0.622 -0.6428 -0.2994 -0.4714
  743MOL0     C98005   6.813   5.081   0.520 -0.1441 -0.3294  0.6420
  743MOL0     C98006   6.769   5.210   0.600  0.7656  0.0060  0.3610
  743MOL0     C98007   6.720   5.303   0.502 -0.7442 -0.4230 -0.2839
  743MOL0     C98008   6.674   5.395   0.436  0.5362 -0.4621  0.4747
  743MOL0     C98009   7.300   5.026   0.518 -0.0228 -0.5954  0.2412
  743MOL0     C98010   7.413   5.080   0.589  0.4327  0.1542  0.1518
  743MOL0     H98011   7.749   5.194   1.029  3.0957 -0.5708  1.1781
  743MOL0     H98012   7.937   5.316   1.095 -0.3129 -0.1818 -0.0032
  743MOL0     H98013   8.115   5.623   0.841  0.6482  1.7824  2.9962
  743MOL0     H98014   8.221   5.487   0.792  1.5014  0.2814  0.5241
  743MOL0     H98015   8.350   5.666   0.905  1.0081  1.2211  1.6691
  743MOL0     H98016   8.369   5.513   0.971  0.5185  0.1822 -1.6564
  743MOL0     H98017   8.143   5.676   1.106  0.5264  0.7563  0.3778
  743MOL0     H98018   8.308   5.737   1.097  0.7291 -1.4256  1.5856
  743MOL0     H98019   8.210   5.473   1.193  3.2878 -2.9099 -1.2999
  743MOL0     H98020   8.377   5.521   1.211  0.3644  1.4356  0.4962
  743MOL0     H98021   8.214   5.536   1.427 -1.6191 -0.2954 -1.5998
  743MOL0     H98022   8.140   5.667   1.337  0.6475  2.3566  0.2086
  743MOL0     H98023   8.287   5.816   1.387 -2.4461 -0.1317  0.8237
  743MOL0     H98024   8.428   5.710   1.347  1.2298 -3.1090  2.6409
  743MOL0     H98025   8.384   5.825   1.585 -1.0118  0.1486  1.7373
  743MOL0     H98026   8.280   5.695   1.608  0.4817  1.8684 -1.4045
  743MOL0     H98027   8.507   5.661   1.684  0.7249  1.7614 -1.1573
  743MOL0     H98028   8.570   5.649   1.519 -1.2897  1.2967 -2.7556
  743MOL0     H98029   8.340   5.455   1.771 -0.7620 -2.0434  1.3497
  743MOL0     H98030   8.231   5.137   1.598 -0.2510  1.5620 -0.0386
  743MOL0     H98031   8.236   5.216   1.752  2.9014  3.7146  1.3050
  743MOL0     H98032   8.492   5.140   1.738 -1.5746  1.5714  4.1023
  743MOL0     H98033   8.420   5.019   1.623 -1.8796  1.7226 -0.6418
  743MOL0     H98034   8.460   4.930   1.865 -1.4564 -0.5206 -0.2441
  743MOL0     H98035   8.379   5.074   1.922  0.9361  2.9454 -2.0803
  743MOL0     H98036   8.160   4.996   1.841 -0.0799  0.9248 -2.4953
  743MOL0     H98037   8.239   4.869   1.932 -0.5101 -0.5928 -0.4279
  743MOL0     H98038   8.186   4.647   1.565 -0.0440 -1.7825 -0.5238
  743MOL0     H98039   7.975   4.501   1.537  2.4041 -1.6314  0.3980
  743MOL0     H98040   7.700   4.387   1.356 -0.2325  0.3142  0.9284
  743MOL0     H98041   7.491   4.317   1.274 -2.8701 -2.7427  0.5648
  743MOL0     H98042   7.268   4.252   1.223  1.2684  1.3870  1.0297
  743MOL0     H98043   7.245   4.376   1.342  0.9308 -0.2181 -0.6866
  743MOL0     H98044   7.039   4.271   1.411 -0.0197  0.7962 -0.7841
  743MOL0     H98045   7.065   4.129   1.306 -0.9265 -0.3476 -1.4607
  743MOL0     H98046   7.048   4.270   1.104  2.2788  0.5975  0.7531
  743MOL0     H98047   7.023   4.407   1.208  0.0170 -0.5323 -1.5800
  743MOL0     H98048   6.835   4.172   1.219  2.8322 -0.9886 -2.9923
  743MOL0     H98049   6.809   4.342   1.286 -0.0899  0.7755 -1.1135
  743MOL0     H98050   6.771   4.421   1.062 -0.5532 -0.5777 -2.7472
  743MOL0     H98051   6.672   4.286   1.098 -0.0725  1.8386 -0.0819
  743MOL0     H98052   6.868   4.156   0.966  2.7078  1.9856 -1.1196
  743MOL0     H98053   6.919   4.319   0.932  1.0344 -1.3202  0.0633
  743MOL0     H98054   6.666   4.347   0.833 -1.2389 -2.2203 -0.6208
  743MOL0     H98055   6.804   4.301   0.738  0.4681 -0.5179 -0.5682
  743MOL0     H98056   6.598   4.125   0.897 -2.1777  3.1495 -0.5947
  743MOL0     H98057   6.716   4.061   0.783  1.0063 -0.1673  2.7470
  743MOL0     H98058   7.386   4.187   1.675  0.4335  0.8746  1.0371
  743MOL0     H98059   7.600   4.292   1.749  1.8323 -0.2797 -0.4080
  743MOL0     H98060   7.809   4.708   1.875  1.6054 -0.8179  1.4423
  743MOL0     H98061   7.999   4.858   1.886  2.1803  1.6897 -1.6781
  743MOL0     H98062   7.984   5.461   0.689 -1.6475 -0.1518 -0.2427
  743MOL0     H98063   7.795   5.313   0.625 -1.5767 -1.3303  0.9197
  743MOL0     H98064   7.319   5.004   0.905  2.3991 -0.7517 -0.2584
  743MOL0     H98065   7.147   4.893   0.786 -0.5312  1.1764  0.3940
  743MOL0     H98066   6.985   4.798   0.636  5.2115 -0.8394 -1.7870
  743MOL0     H98067   6.900   4.842   0.488 -1.0587  1.2336  0.8805
  743MOL0     H98068   6.793   4.946   0.676  0.7041 -0.0449  1.9816
  743MOL0     H98069   6.940   5.038   0.696 -2.3969 -0.3957  1.1092
  743MOL0     H98070   6.728   5.033   0.470  1.6839 -0.6305 -2.4112
  743MOL0     H98071   6.884   5.106   0.441  1.6494  1.2409  2.6236
  743MOL0     H98072   6.692   5.190   0.674 -1.1244 -1.2564 -1.8201
  743MOL0     H98073   6.847   5.271   0.647 -0.2671  0.2623  1.7897
  743MOL0     H98074   6.627   5.469   0.373 -1.1410  1.7916  4.0518
  743MOL0     H98075   7.312   5.022   0.410  1.0828 -1.4916  0.3772
  743MOL0     H98076   7.496   5.127   0.536  0.8868 -0.1347  0.5916
  744MOL0     O98077   9.463  11.332   9.131  0.1001  0.8368 -0.1865
  744MOL0     C98078   9.421  11.377   9.239  0.3307  0.6084 -0.1051
  744MOL0     O98079   9.500  11.409   9.346 -0.0115 -0.2308  0.3058
  744MOL0     C98080   9.638  11.403   9.326 -0.7291  0.6137 -0.1616
  744MOL0     C98081   9.713  11.522   9.315 -0.3241 -0.2932 -0.5086
  744MOL0     C98082   9.858  11.519   9.316  0.4557  0.6051  0.1054
  744MOL0     C98083   9.921  11.399   9.312 -0.7572  0.0583  1.3707
  744MOL0     O98084  10.061  11.381   9.304  0.0424  0.2856 -0.3841
  744MOL0     C98085  10.150  11.465   9.383  1.4376  0.3212 -0.0043
  744MOL0     C98086  10.255  11.493   9.283  0.3922 -0.5764 -0.1350
  744MOL0     C98087  10.370  11.570   9.347 -0.6718  0.4360  0.2294
  744MOL0     C98088  10.471  11.577   9.240 -0.3326 -0.1460 -0.1890
  744MOL0     C98089  10.560  11.696   9.246 -0.4273  1.2010  0.3381
  744MOL0     C98090  10.643  11.721   9.375  0.3261  1.0147  0.5244
  744MOL0     C98091  10.766  11.803   9.347 -1.1749  0.4900 -0.1172
  744MOL0     C98092  10.835  11.846   9.484 -0.1556  1.1944 -0.3601
  744MOL0     N98093  10.744  11.907   9.577  0.8497 -0.2713 -0.1537
  744MOL0     C98094  10.676  12.019   9.541  0.6769 -0.7162  0.7676
  744MOL0     C98095  10.582  12.029   9.637 -1.3848  1.5703  0.4953
  744MOL0     C98096  10.476  12.125   9.633 -0.9013 -0.1686  0.1073
  744MOL0     C98097  10.364  12.098   9.526  0.4492 -0.0031  0.0298
  744MOL0     C98098  10.266  11.977   9.573 -0.6418 -1.0400 -0.1950
  744MOL0     C98099  10.166  11.947   9.473  0.3588  0.6768 -1.4447
  744MOL0     O98100  10.115  11.818   9.501 -0.8422 -0.1121  0.0270
  744MOL0     C98101   9.974  11.815   9.505  1.1693  0.5291 -0.7179
  744MOL0     C98102   9.917  11.758   9.619  0.3935 -0.8463  0.5030
  744MOL0     C98103   9.776  11.783   9.639  0.0026  1.2527  0.2046
  744MOL0     C98104   9.687  11.837   9.546 -0.2020 -0.6271  0.7350
  744MOL0     C98105   9.543  11.854   9.575 -0.3926 -0.1660 -0.4225
  744MOL0     O98106   9.477  11.915   9.481  1.0594 -1.2386  0.3132
  744MOL0     C98107   9.344  11.902   9.496  0.4066  0.3100  0.5514
  744MOL0     C98108   9.274  12.011   9.549 -0.4776  0.4797  0.2492
  744MOL0     C98109   9.140  12.005   9.578 -0.0002  0.1388  0.1234
  744MOL0     C98110   9.059  11.897   9.544 -0.6486 -0.8247 -0.2404
  744MOL0     O98111   8.925  11.907   9.568 -0.6882  0.6538 -0.6127
  744MOL0     C98112   8.834  11.811   9.513 -0.0150 -0.1096 -0.1147
  744MOL0     C98113   8.695  11.868   9.513  0.5649 -0.1006  0.4807
  744MOL0     C98114   8.609  11.785   9.422  0.0089 -0.4137 -0.6987
  744MOL0     C98115   8.464  11.840   9.412 -0.1843  0.1138  0.2068
  744MOL0     C98116   8.382  11.756   9.316 -0.1989  0.3979 -0.0083
  744MOL0     C98117   8.241  11.794   9.312 -0.4146  0.1043 -0.3678
  744MOL0     C98118   8.171  11.818   9.446 -0.4893  0.4353 -0.2864
  744MOL0     C98119   8.039  11.880   9.416  0.6406 -0.4070  0.4956
  744MOL0    Cl98120   8.049  12.046   9.324  0.3404 -0.4267 -0.4934
  744MOL0     C98121   9.123  11.793   9.475  0.6288  0.5703 -0.5886
  744MOL0     C98122   9.260  11.783   9.459 -0.6900 -0.4065 -0.3834
  744MOL0     O98123   9.504  11.819   9.687 -0.2233  0.6146  0.0290
  744MOL0     C98124   9.750  11.876   9.424  0.9764 -0.3289 -0.2867
  744MOL0     C98125   9.889  11.875   9.405  0.8630 -0.3673  0.6422
  744MOL0     N98126  10.604  11.932   9.733 -0.2057  0.1552 -0.3866
  744MOL0     N98127  10.710  11.859   9.703  0.1322 -0.9067 -0.3552
  744MOL0     C98128   9.850  11.283   9.322  0.6189  0.2830 -0.4661
  744MOL0     C98129   9.706  11.279   9.331  0.7975 -0.9837  0.5460
  744MOL0     C98130   9.279  11.393   9.260  0.0368 -0.9401  0.2386
  744MOL0     C98131   9.226  11.420   9.384  0.3380  0.4745  0.0333
  744MOL0     C98132   9.088  11.445   9.414 -0.1932 -0.4965  0.3085
  744MOL0     C98133   8.999  11.445   9.310  0.2049 -0.2368  0.0918
  744MOL0     O98134   8.867  11.480   9.340  0.0470  0.1242  0.3260
  744MOL0     C98135   8.765  11.481   9.242 -0.3846  0.4539  0.6852
  744MOL0     C98136   8.703  11.344   9.205  0.0055 -0.3008  0.2821
  744MOL0     C98137   8.598  11.314   9.303 -0.1410 -0.4647 -0.4240
  744MOL0     C98138   8.520  11.187   9.270 -0.7573 -0.7489 -0.2098
  744MOL0     C98139   8.410  11.165   9.365 -0.2220  0.0762 -0.1550
  744MOL0     C98140   8.311  11.164   9.437 -0.1881  0.5165 -0.3832
  744MOL0     C98141   9.047  11.419   9.176  0.5318  0.5952 -0.1667
  744MOL0     C98142   9.181  11.393   9.156 -0.0841 -0.2039  0.8694
  744MOL0     H98143   9.666  11.619   9.307  2.0546  1.2794  2.5780
  744MOL0     H98144   9.916  11.611   9.313  1.9267 -0.3052 -1.6081
  744MOL0     H98145  10.196  11.415   9.469  1.3017  2.6799  1.5291
  744MOL0     H98146  10.108  11.554   9.429 -0.0773 -0.3053 -0.1316
  744MOL0     H98147  10.217  11.550   9.198  5.3862 -0.0219 -2.3471
  744MOL0     H98148  10.286  11.394   9.248  1.1484 -0.3258 -0.2056
  744MOL0     H98149  10.414  11.527   9.437 -0.2440 -0.9941 -0.6287
  744MOL0     H98150  10.340  11.674   9.363 -0.1236  1.0002 -2.1149
  744MOL0     H98151  10.528  11.484   9.246  1.0968  0.7889  1.9219
  744MOL0     H98152  10.419  11.577   9.144 -1.7348 -1.0841  0.5544
  744MOL0     H98153  10.503  11.787   9.224  1.8602  2.3170 -1.3732
  744MOL0     H98154  10.629  11.679   9.163  0.4564 -0.2544  1.3131
  744MOL0     H98155  10.675  11.622   9.407  0.9590  0.1004 -2.6161
  744MOL0     H98156  10.574  11.762   9.450 -0.4181 -1.7256  1.4567
  744MOL0     H98157  10.843  11.764   9.280 -0.5839 -1.1734  1.4602
  744MOL0     H98158  10.729  11.897   9.305  0.1882  0.7878 -0.7153
  744MOL0     H98159  10.921  11.910   9.466  1.1298 -0.7562 -1.5491
  744MOL0     H98160  10.869  11.748   9.518  2.7226  2.1505 -0.2201
  744MOL0     H98161  10.687  12.085   9.456 -0.5236  1.4619  2.1750
  744MOL0     H98162  10.516  12.223   9.606 -0.4356  0.0799  1.5754
  744MOL0     H98163  10.443  12.128   9.738  1.7284 -0.3949  1.0175
  744MOL0     H98164  10.406  12.085   9.425  0.0896 -0.0920 -0.1110
  744MOL0     H98165  10.302  12.187   9.540  2.6488  1.1518  3.9586
  744MOL0     H98166  10.333  11.890   9.578 -1.0877 -1.6142 -2.6643
  744MOL0     H98167  10.226  12.008   9.670 -1.2166  1.4928 -1.1794
  744MOL0     H98168  10.208  11.934   9.373  1.8038 -3.5745 -0.4786
  744MOL0     H98169  10.092  12.027   9.487 -1.0221 -0.7442 -0.3289
  744MOL0     H98170   9.977  11.711   9.696  1.1474  0.3093  0.6413
  744MOL0     H98171   9.726  11.760   9.732 -2.9455  3.2344 -0.7217
  744MOL0     H98172   9.323  12.103   9.580 -2.1618  2.3273 -2.2118
  744MOL0     H98173   9.091  12.078   9.641 -0.2899 -1.2349  1.5462
  744MOL0     H98174   8.849  11.711   9.553 -0.7728 -1.0118 -1.9360
  744MOL0     H98175   8.875  11.809   9.412  1.1337 -0.2826  0.3494
  744MOL0     H98176   8.700  11.963   9.459  0.3115  0.3039  1.1558
  744MOL0     H98177   8.661  11.897   9.613  1.9520  0.5660  0.7862
  744MOL0     H98178   8.594  11.692   9.478 -1.9230 -0.8516 -1.8721
  744MOL0     H98179   8.656  11.762   9.326 -0.9582  1.7943 -1.7824
  744MOL0     H98180   8.416  11.834   9.510  1.2770  1.4136  1.0555
  744MOL0     H98181   8.459  11.946   9.385 -0.8660 -0.2444 -1.1566
  744MOL0     H98182   8.402  11.656   9.355  5.0287  1.7229  1.4812
  744MOL0     H98183   8.425  11.734   9.218 -3.2992 -3.5293 -0.7500
  744MOL0     H98184   8.191  11.707   9.267  0.8729 -0.2266 -1.1976
  744MOL0     H98185   8.228  11.883   9.250 -2.3908  0.5955  0.6560
  744MOL0     H98186   8.156  11.725   9.502 -2.9679 -0.2505 -1.9458
  744MOL0     H98187   8.233  11.885   9.507  1.6607  0.4348 -2.3108
  744MOL0     H98188   7.981  11.882   9.510  1.8318  2.9699  1.2985
  744MOL0     H98189   7.980  11.817   9.349 -2.0442 -0.0211  2.2965
  744MOL0     H98190   9.070  11.703   9.447  1.3534 -0.3961  0.9561
  744MOL0     H98191   9.314  11.697   9.420  1.7781  0.6687  0.4473
  744MOL0     H98192   9.682  11.910   9.346  0.2561 -2.3271 -0.5861
  744MOL0     H98193   9.919  11.916   9.309  2.3123  1.1356  1.6941
  744MOL0     H98194   9.915  11.197   9.336  0.9481  0.4196 -1.1222
  744MOL0     H98195   9.639  11.195   9.341  0.7407 -1.0226 -0.1173
  744MOL0     H98196   9.296  11.438   9.465 -0.0352  4.9343 -0.3463
  744MOL0     H98197   9.056  11.464   9.516 -0.0111  0.2733  0.2259
  744MOL0     H98198   8.787  11.532   9.148 -0.3093  1.3774  1.1880
  744MOL0     H98199   8.684  11.545   9.279  1.6923  3.4123  0.4919
  744MOL0     H98200   8.663  11.370   9.107  1.4806 -1.6696 -0.7423
  744MOL0     H98201   8.776  11.264   9.192 -1.6589 -1.8760  0.2141
  744MOL0     H98202   8.528  11.398   9.309  0.7907  0.2628  0.6067
  744MOL0     H98203   8.640  11.307   9.404 -0.2799  1.6246 -0.1790
  744MOL0     H98204   8.482  11.208   9.170  1.3694  1.4542 -0.6470
  744MOL0     H98205   8.586  11.100   9.279 -2.1520 -1.6321  2.8659
  744MOL0     H98206   8.217  11.145   9.484 -1.1807 -0.6479 -2.7361
  744MOL0     H98207   8.978  11.427   9.092  1.9482  1.7244 -1.2709
  744MOL0     H98208   9.213  11.366   9.056 -2.5879  1.6291 -0.5314
  745MOL0     O98209   1.480  10.584   2.471 -0.1357  0.9365  0.3123
  745MOL0     C98210   1.561  10.633   2.392 -0.3481 -0.0244 -0.2926
  745MOL0     O98211   1.561  10.608   2.263 -0.0504  0.3683  0.1335
  745MOL0     C98212   1.451  10.545   2.205  0.2739 -0.1482  0.0794
  745MOL0     C98213   1.327  10.601   2.189  0.4603  0.5849  0.2961
  745MOL0     C98214   1.220  10.526   2.141 -0.0438 -0.9330  0.2059
  745MOL0     C98215   1.235  10.391   2.092 -0.5163 -0.1172  0.4546
  745MOL0     O98216   1.132  10.323   2.022 -0.7748  0.2344  0.5540
  745MOL0     C98217   1.030  10.266   2.110  0.6164  0.3867  0.6161
  745MOL0     C98218   0.903  10.217   2.044  0.5549  0.4408  1.2529
  745MOL0     C98219   0.851  10.321   1.931 -0.1057  0.8253  0.1303
  745MOL0     C98220   0.742  10.240   1.848 -0.5709  0.3518  0.3706
  745MOL0     C98221   0.689  10.319   1.732  0.7961  1.9091 -0.4584
  745MOL0     C98222   0.613  10.215   1.643  1.0693 -0.3332  0.2122
  745MOL0     C98223   0.556  10.288   1.521 -0.8036 -0.6986  0.7915
  745MOL0     C98224   0.464  10.203   1.425 -0.1205 -0.3524  0.2884
  745MOL0     N98225   0.328  10.200   1.486  0.9491  0.2475  0.9068
  745MOL0     C98226   0.214  10.269   1.449 -0.0630 -0.4486 -0.2292
  745MOL0     C98227   0.118  10.212   1.515  0.0825 -0.1025  0.6886
  745MOL0     C98228  -0.024  10.270   1.516  0.1054  0.1023 -0.6846
  745MOL0     C98229  -0.141  10.162   1.506 -1.0179  0.3707 -0.7251
  745MOL0     C98230  -0.148  10.044   1.606  0.5519  0.6609 -0.9221
  745MOL0     C98231  -0.269   9.968   1.591 -0.3908  0.3027 -0.5414
  745MOL0     O98232  -0.269   9.853   1.676  0.1247 -0.0609 -0.3654
  745MOL0     C98233  -0.371   9.773   1.641 -0.4508 -0.6303  1.3280
  745MOL0     C98234  -0.346   9.666   1.553 -0.5961 -0.1058 -0.2906
  745MOL0     C98235  -0.455   9.599   1.505 -0.7108  0.3027 -0.9843
  745MOL0     C98236  -0.581   9.617   1.566  1.3450 -0.0795 -0.0923
  745MOL0     C98237  -0.696   9.540   1.506  0.3320 -0.3405  1.2159
  745MOL0     O98238  -0.811   9.523   1.581  0.0708 -0.1959  0.5860
  745MOL0     C98239  -0.935   9.509   1.523 -0.6364  0.3932  0.4762
  745MOL0     C98240  -1.034   9.508   1.627 -0.1780 -0.2625  0.9992
  745MOL0     C98241  -1.168   9.496   1.599 -0.4286 -0.0125 -0.0916
  745MOL0     C98242  -1.207   9.471   1.463 -0.1754 -0.0050  0.5426
  745MOL0     O98243  -1.339   9.487   1.422  0.0262  0.1282 -0.3628
  745MOL0     C98244  -1.435   9.394   1.476  0.3645 -0.3944  0.4951
  745MOL0     C98245  -1.578   9.447   1.436  0.1767  0.2585 -0.4841
  745MOL0     C98246  -1.633   9.411   1.297 -0.2399  0.0692 -0.2188
  745MOL0     C98247  -1.782   9.432   1.277  0.3225  0.1748 -0.5019
  745MOL0     C98248  -1.805   9.424   1.123 -0.0885 -0.5569  0.7079
  745MOL0     C98249  -1.954   9.401   1.088  0.2820 -0.4539  0.3469
  745MOL0     C98250  -2.033   9.536   1.092  0.0193 -0.3209  0.7232
  745MOL0     C98251  -2.169   9.508   1.123  0.0930  0.3848  0.2497
  745MOL0    Cl98252  -2.281   9.647   1.079 -0.2485  0.1810 -0.3071
  745MOL0     C98253  -1.111   9.470   1.364  0.4836  0.0235 -0.5742
  745MOL0     C98254  -0.979   9.486   1.387  0.1267  0.1036 -1.0142
  745MOL0     O98255  -0.683   9.502   1.391 -0.0591 -0.9074 -0.6546
  745MOL0     C98256  -0.599   9.710   1.666 -0.1009  0.1142 -0.3137
  745MOL0     C98257  -0.499   9.794   1.693 -0.5860  0.1889 -0.3863
  745MOL0     N98258   0.161  10.115   1.599 -0.3217  0.0772 -0.4433
  745MOL0     N98259   0.288  10.110   1.582 -0.5580  0.3564  0.2710
  745MOL0     C98260   1.361  10.343   2.098  0.6178  0.0385  0.6104
  745MOL0     C98261   1.466  10.415   2.162 -0.0642 -0.4614  0.0198
  745MOL0     C98262   1.676  10.700   2.448  0.1394  0.4390 -0.3478
  745MOL0     C98263   1.722  10.659   2.572  0.6870 -0.3155  0.4077
  745MOL0     C98264   1.826  10.732   2.642 -0.0485 -0.6122  0.4651
  745MOL0     C98265   1.903  10.838   2.583 -0.5174  1.4205 -0.1032
  745MOL0     O98266   2.012  10.900   2.642  0.6011  0.0330 -0.3511
  745MOL0     C98267   2.037  10.873   2.789  0.6587 -0.4384  0.1769
  745MOL0     C98268   1.936  10.941   2.877 -0.1359 -0.5247 -0.4651
  745MOL0     C98269   1.974  11.073   2.923 -0.1503  0.1351  0.5891
  745MOL0     C98270   1.867  11.140   3.009  1.1139  0.2549 -0.2713
  745MOL0     C98271   1.851  11.284   3.022 -0.3248  1.1858  0.9555
  745MOL0     C98272   1.856  11.402   3.026  0.5571  0.2760 -1.0039
  745MOL0     C98273   1.862  10.866   2.450  0.6652  0.4611 -0.0245
  745MOL0     C98274   1.753  10.805   2.384  1.3184 -0.5016 -0.3736
  745MOL0     H98275   1.300  10.702   2.218 -1.3616 -0.1499  1.3278
  745MOL0     H98276   1.120  10.568   2.135  0.6977  0.7080 -2.4935
  745MOL0     H98277   0.994  10.343   2.178  2.1731  0.8016  1.0040
  745MOL0     H98278   1.068  10.181   2.167  0.4523 -1.5461 -1.9238
  745MOL0     H98279   0.830  10.197   2.123  0.8302 -4.1825  0.6556
  745MOL0     H98280   0.928  10.122   1.995 -0.8394  0.2741  0.8380
  745MOL0     H98281   0.935  10.355   1.871 -1.3725 -0.1052 -2.2944
  745MOL0     H98282   0.806  10.410   1.976  0.7848  0.8446  1.0155
  745MOL0     H98283   0.796  10.155   1.807 -3.8641 -2.0705  0.6456
  745MOL0     H98284   0.657  10.201   1.904 -2.0171 -0.0756 -1.9757
  745MOL0     H98285   0.776  10.371   1.691  0.8294  2.1887 -0.0444
  745MOL0     H98286   0.620  10.394   1.772  1.6100  2.3749  0.1077
  745MOL0     H98287   0.530  10.176   1.702  1.5651 -2.1493 -0.2091
  745MOL0     H98288   0.672  10.132   1.603  2.5055  0.5331  0.4809
  745MOL0     H98289   0.490  10.366   1.560  0.7087  2.0467 -1.7177
  745MOL0     H98290   0.632  10.344   1.466 -1.6335  2.6051  2.7524
  745MOL0     H98291   0.486  10.097   1.407 -2.2045 -0.2808 -3.6790
  745MOL0     H98292   0.456  10.255   1.329  0.1777 -2.2438 -0.8112
  745MOL0     H98293   0.210  10.353   1.381 -0.2415 -0.8819 -0.7600
  745MOL0     H98294  -0.029  10.348   1.440 -0.1322  1.3870  0.5965
  745MOL0     H98295  -0.035  10.302   1.620  2.5630 -2.0686  0.3451
  745MOL0     H98296  -0.144  10.112   1.409  2.2971 -0.9234 -0.2904
  745MOL0     H98297  -0.236  10.216   1.511 -1.3045 -0.0961 -1.0981
  745MOL0     H98298  -0.060   9.982   1.587  0.5830  0.3586  0.1060
  745MOL0     H98299  -0.141  10.078   1.710 -1.0507 -2.7595  0.4865
  745MOL0     H98300  -0.290   9.940   1.488 -0.9891 -1.7626  0.0737
  745MOL0     H98301  -0.349  10.035   1.626  0.2334  1.6086 -1.5637
  745MOL0     H98302  -0.247   9.641   1.516 -0.8238  0.5282 -1.3651
  745MOL0     H98303  -0.435   9.514   1.441  3.0785 -1.1142  1.7233
  745MOL0     H98304  -1.000   9.518   1.730  2.3386  2.8885  0.0012
  745MOL0     H98305  -1.242   9.494   1.677 -2.2971  1.0778 -1.7326
  745MOL0     H98306  -1.430   9.392   1.585 -0.7900  2.5567  0.6770
  745MOL0     H98307  -1.418   9.294   1.434 -1.4988  0.1563 -1.8073
  745MOL0     H98308  -1.565   9.555   1.446  1.7331  0.4235 -3.4040
  745MOL0     H98309  -1.638   9.396   1.512  2.1492  1.3364  1.9367
  745MOL0     H98310  -1.616   9.308   1.266  0.6535  0.2798 -0.4333
  745MOL0     H98311  -1.582   9.478   1.227 -0.5636 -0.6859 -1.2004
  745MOL0     H98312  -1.844   9.358   1.328  1.3827  1.1476  2.4338
  745MOL0     H98313  -1.822   9.524   1.322  0.5560  1.7797 -3.3575
  745MOL0     H98314  -1.751   9.338   1.081  0.1930 -0.5780  1.1089
  745MOL0     H98315  -1.783   9.520   1.076 -0.7353 -0.9470 -0.4292
  745MOL0     H98316  -2.000   9.322   1.148 -1.6911  0.3217 -0.0741
  745MOL0     H98317  -1.966   9.362   0.986  0.8554  1.5875 -0.5414
  745MOL0     H98318  -1.999   9.608   1.166  1.4852  0.4549 -0.6308
  745MOL0     H98319  -2.030   9.581   0.992 -2.2096 -2.0573 -0.2212
  745MOL0     H98320  -2.182   9.498   1.231 -0.6659 -2.2349 -0.0328
  745MOL0     H98321  -2.195   9.413   1.076  1.6880  0.1174 -0.1524
  745MOL0     H98322  -1.135   9.434   1.265  1.2851 -2.2069 -0.0035
  745MOL0     H98323  -0.917   9.490   1.298 -0.7968  0.8497 -1.6415
  745MOL0     H98324  -0.693   9.732   1.715  0.9127 -0.7099  2.2055
  745MOL0     H98325  -0.519   9.879   1.758  1.6643  1.1164 -0.8047
  745MOL0     H98326   1.388  10.251   2.046  0.7690  1.1868 -1.4212
  745MOL0     H98327   1.570  10.384   2.170  0.9214  2.4213 -0.5729
  745MOL0     H98328   1.670  10.580   2.626 -4.0463 -0.9648 -4.3572
  745MOL0     H98329   1.831  10.692   2.743 -0.4660  0.0611  0.7570
  745MOL0     H98330   2.133  10.916   2.820 -0.8266  2.0565  1.6415
  745MOL0     H98331   2.048  10.764   2.797  1.9279 -0.5770 -2.5627
  745MOL0     H98332   1.839  10.929   2.828 -0.0029 -0.5028 -0.7362
  745MOL0     H98333   1.936  10.884   2.970 -2.3131 -1.3971 -0.9436
  745MOL0     H98334   1.998  11.130   2.833  0.7686 -1.9827 -0.5730
  745MOL0     H98335   2.061  11.086   2.988 -1.6250  0.5314  2.5935
  745MOL0     H98336   1.771  11.101   2.973  0.6861 -0.8198  1.8560
  745MOL0     H98337   1.880  11.096   3.109  1.4025 -0.1700 -0.4931
  745MOL0     H98338   1.863  11.506   3.053  1.2341  0.1352 -0.6088
  745MOL0     H98339   1.918  10.938   2.392  1.0908 -0.2519 -0.5222
  745MOL0     H98340   1.717  10.839   2.287 -0.9377 -2.3889 -0.2758
  746MOL0     O98341   4.290   2.091   6.687 -0.1532 -0.0162  0.1128
  746MOL0     C98342   4.353   2.196   6.715 -0.0983  0.7359  0.0673
  746MOL0     O98343   4.315   2.320   6.669 -0.0398  0.5096  0.5991
  746MOL0     C98344   4.198   2.336   6.610  0.6423  0.1186  0.3921
  746MOL0     C98345   4.085   2.390   6.673 -0.9557 -0.0245  0.1541
  746MOL0     C98346   3.966   2.413   6.601  0.0133  0.7106 -0.1555
  746MOL0     C98347   3.954   2.372   6.467 -0.2252 -1.0261 -0.5048
  746MOL0     O98348   3.848   2.410   6.389  0.0215 -0.4259  0.4139
  746MOL0     C98349   3.729   2.330   6.407 -0.9518 -0.4364 -0.2038
  746MOL0     C98350   3.634   2.384   6.524  1.2193  0.2432 -0.6173
  746MOL0     C98351   3.539   2.493   6.483 -0.1086 -0.6004  0.4786
  746MOL0     C98352   3.429   2.521   6.590  0.0298  0.2493  0.0951
  746MOL0     C98353   3.335   2.629   6.548  0.1192  0.1296  0.5970
  746MOL0     C98354   3.267   2.701   6.664  0.0113  0.0925  0.4826
  746MOL0     C98355   3.145   2.785   6.609 -0.1124  0.4758  0.3523
  746MOL0     C98356   3.178   2.919   6.541 -0.8428  0.3396 -0.5604
  746MOL0     N98357   3.062   3.012   6.530 -0.8522 -0.5192 -0.3761
  746MOL0     C98358   3.025   3.107   6.619  0.4039  0.1830 -0.5335
  746MOL0     C98359   2.926   3.168   6.551  0.3162 -0.1991 -0.2678
  746MOL0     C98360   2.871   3.305   6.561 -0.2858  0.2596 -0.2950
  746MOL0     C98361   2.724   3.306   6.567  0.1796 -0.2395 -0.2804
  746MOL0     C98362   2.679   3.451   6.586 -0.1089  0.2230  0.3238
  746MOL0     C98363   2.534   3.459   6.563  0.3469 -0.1971  0.4805
  746MOL0     O98364   2.491   3.597   6.577 -0.3928  0.0246  0.3688
  746MOL0     C98365   2.354   3.613   6.583  0.5003 -0.3970 -0.1114
  746MOL0     C98366   2.307   3.721   6.657  0.4225 -0.6162 -0.6009
  746MOL0     C98367   2.175   3.757   6.663 -0.2384 -0.0794  0.9925
  746MOL0     C98368   2.071   3.690   6.593  1.0790  0.0349  0.4664
  746MOL0     C98369   1.934   3.745   6.580 -0.5276  0.1457  0.8842
  746MOL0     O98370   1.855   3.709   6.466 -0.3174 -0.3222  0.1347
  746MOL0     C98371   1.719   3.738   6.456 -0.7168  0.9678 -1.5277
  746MOL0     C98372   1.667   3.866   6.485 -0.4322 -0.0111  0.7596
  746MOL0     C98373   1.541   3.907   6.465  0.2905  0.4015 -0.2616
  746MOL0     C98374   1.448   3.810   6.414 -0.9217 -0.1683 -0.1191
  746MOL0     O98375   1.320   3.831   6.385  0.0547 -0.4339 -0.1094
  746MOL0     C98376   1.251   3.936   6.459  0.3079 -0.5180 -0.0921
  746MOL0     C98377   1.112   3.943   6.392  0.1422 -0.0139  0.0277
  746MOL0     C98378   1.041   4.076   6.431  0.1620 -0.0896 -0.0161
  746MOL0     C98379   0.894   4.080   6.405  0.7960  0.2920 -0.1632
  746MOL0     C98380   0.832   4.217   6.433  0.7222 -0.0944  0.4771
  746MOL0     C98381   0.686   4.244   6.370 -0.1857  0.1090 -0.2683
  746MOL0     C98382   0.681   4.270   6.220  0.2173  1.2046  0.9641
  746MOL0     C98383   0.547   4.263   6.156 -0.4713  0.2267 -0.5970
  746MOL0    Cl98384   0.451   4.120   6.196 -0.0591  0.6944  0.7153
  746MOL0     C98385   1.490   3.677   6.391 -0.1993 -1.3037 -0.1216
  746MOL0     C98386   1.628   3.647   6.412  0.5077  0.0067 -0.3817
  746MOL0     O98387   1.885   3.815   6.667  0.6011  1.0984  0.4781
  746MOL0     C98388   2.109   3.574   6.522  0.5476 -0.7639 -1.1938
  746MOL0     C98389   2.248   3.534   6.518 -0.4536 -0.2998 -0.2813
  746MOL0     N98390   2.879   3.088   6.453  0.4487 -0.4570 -0.6928
  746MOL0     N98391   2.970   2.998   6.433 -0.1768  0.5558  0.2579
  746MOL0     C98392   4.065   2.317   6.406  0.3237 -0.1212 -0.1136
  746MOL0     C98393   4.180   2.301   6.474  0.0072 -1.1158  0.0611
  746MOL0     C98394   4.486   2.175   6.783 -0.4402 -0.8589 -0.0957
  746MOL0     C98395   4.516   2.060   6.864  0.0798 -0.1001  0.1502
  746MOL0     C98396   4.642   2.046   6.926 -0.3785 -0.1337 -0.5741
  746MOL0     C98397   4.727   2.161   6.924  0.2768 -0.4729  0.6097
  746MOL0     O98398   4.852   2.160   6.982 -0.7605  0.1193  0.4094
  746MOL0     C98399   4.899   2.037   7.043  0.0461 -0.0738 -0.1735
  746MOL0     C98400   5.032   2.053   7.096  0.0811  0.0058  0.4459
  746MOL0     C98401   5.084   1.930   7.175 -0.1320  0.2576 -0.2325
  746MOL0     C98402   5.159   1.982   7.300 -0.1542 -0.1943  0.4535
  746MOL0     C98403   5.065   2.016   7.398  0.2017  0.7528 -0.6208
  746MOL0     C98404   4.991   2.019   7.493 -0.1025 -0.7935 -0.5649
  746MOL0     C98405   4.699   2.277   6.840 -0.1193 -0.3224 -0.9273
  746MOL0     C98406   4.582   2.277   6.780  1.1157 -0.6703  0.1435
  746MOL0     H98407   4.103   2.416   6.777 -1.6926  2.2860 -0.2393
  746MOL0     H98408   3.886   2.470   6.648  0.8724  0.6286  1.4782
  746MOL0     H98409   3.761   2.232   6.445  3.0316  1.5076  2.1064
  746MOL0     H98410   3.673   2.333   6.313  0.6793  0.6598 -1.1774
  746MOL0     H98411   3.687   2.420   6.613  2.0147 -2.9743  0.3605
  746MOL0     H98412   3.569   2.301   6.555 -3.3034  4.2715  2.1179
  746MOL0     H98413   3.486   2.463   6.393 -1.2768 -1.0052  1.2793
  746MOL0     H98414   3.608   2.577   6.469 -0.5633 -0.5051 -1.4159
  746MOL0     H98415   3.366   2.431   6.590 -0.6684  0.6317 -2.7312
  746MOL0     H98416   3.480   2.546   6.682  0.8577 -1.0746  0.0202
  746MOL0     H98417   3.259   2.593   6.478  0.9206  0.9354 -0.7417
  746MOL0     H98418   3.383   2.713   6.497 -1.0777 -1.3797 -3.3804
  746MOL0     H98419   3.335   2.769   6.716  0.0280 -1.7341  3.0516
  746MOL0     H98420   3.235   2.633   6.744  2.9990 -0.5934  1.1973
  746MOL0     H98421   3.089   2.723   6.539 -0.1408 -2.0810  2.4674
  746MOL0     H98422   3.081   2.810   6.695  1.5926  1.6653  1.3522
  746MOL0     H98423   3.216   2.891   6.442  2.6665  1.4499  0.3517
  746MOL0     H98424   3.257   2.971   6.597 -1.0166  0.3624 -0.3344
  746MOL0     H98425   3.084   3.157   6.695  0.8407  2.7935 -2.4404
  746MOL0     H98426   2.915   3.378   6.493  1.6588 -2.2058 -1.8574
  746MOL0     H98427   2.901   3.344   6.659 -0.4750 -4.0603  1.6931
  746MOL0     H98428   2.686   3.253   6.655  1.1868  1.8227  1.5249
  746MOL0     H98429   2.685   3.271   6.471  0.4912  0.6808 -0.7604
  746MOL0     H98430   2.704   3.487   6.687 -0.0015 -1.9934  1.1424
  746MOL0     H98431   2.717   3.527   6.517 -0.3170  2.4522  2.5215
  746MOL0     H98432   2.483   3.403   6.642 -0.9376  0.4292  0.1309
  746MOL0     H98433   2.499   3.415   6.469  0.5875  0.5236  0.0393
  746MOL0     H98434   2.377   3.783   6.713 -2.1827  1.0243  1.1037
  746MOL0     H98435   2.143   3.842   6.722  1.3505 -0.2051  2.0934
  746MOL0     H98436   1.748   3.937   6.499  0.0272  0.0961 -1.8473
  746MOL0     H98437   1.515   4.008   6.494 -1.0490 -0.2787  1.0584
  746MOL0     H98438   1.307   4.029   6.462  2.1595 -1.5927  0.1701
  746MOL0     H98439   1.245   3.908   6.564 -1.8559  0.2309  0.0361
  746MOL0     H98440   1.062   3.857   6.438  1.3892 -0.6131  0.2972
  746MOL0     H98441   1.120   3.927   6.284 -1.0451  2.5112 -0.5161
  746MOL0     H98442   1.087   4.160   6.378 -0.5423  0.6639  0.5390
  746MOL0     H98443   1.056   4.099   6.537 -0.9128  0.7352 -0.0322
  746MOL0     H98444   0.875   4.051   6.301 -0.2258  2.3318 -0.6107
  746MOL0     H98445   0.838   4.018   6.475  0.9073  2.7988  2.3329
  746MOL0     H98446   0.898   4.298   6.399 -1.1726  2.2449  1.9728
  746MOL0     H98447   0.829   4.237   6.540 -1.8814  0.0175  0.4592
  746MOL0     H98448   0.652   4.329   6.428 -0.8570 -0.8896  0.8416
  746MOL0     H98449   0.637   4.151   6.401  0.3168 -0.7720 -1.9493
  746MOL0     H98450   0.729   4.365   6.195  0.6405  0.8803  0.5131
  746MOL0     H98451   0.746   4.193   6.177  1.3224  2.1118  0.9536
  746MOL0     H98452   0.567   4.275   6.050 -0.6432  2.3297 -0.4333
  746MOL0     H98453   0.496   4.355   6.187  0.1214  0.8046 -1.2974
  746MOL0     H98454   1.423   3.604   6.346 -0.5418 -0.8693 -0.3126
  746MOL0     H98455   1.651   3.546   6.380 -0.2262 -0.4878  0.6307
  746MOL0     H98456   2.025   3.519   6.481 -0.1553 -0.6446  0.0514
  746MOL0     H98457   2.273   3.449   6.455 -2.3951 -0.6525 -0.6229
  746MOL0     H98458   4.060   2.292   6.300  1.6569  1.5507 -0.6149
  746MOL0     H98459   4.266   2.251   6.432 -0.3307 -1.5711 -0.0921
  746MOL0     H98460   4.446   1.977   6.875 -0.9037  0.8043  0.8749
  746MOL0     H98461   4.669   1.951   6.971 -1.3618 -1.6370 -2.9621
  746MOL0     H98462   4.908   1.958   6.968 -2.3252  2.1099 -3.0328
  746MOL0     H98463   4.831   2.006   7.123 -3.1772 -1.1068 -3.0649
  746MOL0     H98464   5.096   2.054   7.007 -0.4670 -0.1578  0.0470
  746MOL0     H98465   5.047   2.149   7.146  0.6190 -0.8015  1.9136
  746MOL0     H98466   5.150   1.870   7.112  2.0528  0.2004  1.9565
  746MOL0     H98467   5.001   1.862   7.198 -0.8373  0.8223 -1.0702
  746MOL0     H98468   5.206   1.895   7.347 -0.4558  0.5144  2.1393
  746MOL0     H98469   5.241   2.053   7.281 -0.2374 -0.4162 -0.8434
  746MOL0     H98470   4.941   2.019   7.588 -0.1422 -0.5268 -0.5844
  746MOL0     H98471   4.769   2.360   6.840 -0.0664 -0.2205  2.3080
  746MOL0     H98472   4.554   2.371   6.735 -0.3786 -0.1657  2.0106
  747MOL0     O98473   0.661   2.139  10.302 -0.1465 -0.2893 -0.4225
  747MOL0     C98474   0.699   2.243  10.248  0.5919  0.5139 -0.6667
  747MOL0     O98475   0.615   2.347  10.206 -0.3097 -0.1320 -0.7380
  747MOL0     C98476   0.471   2.338  10.231 -0.4964 -0.2000  0.1612
  747MOL0     C98477   0.388   2.365  10.116 -0.5853 -0.7899  0.0188
  747MOL0     C98478   0.249   2.350  10.124 -0.4345 -1.5636  0.2358
  747MOL0     C98479   0.193   2.314  10.247 -0.4387 -0.3702 -1.0482
  747MOL0     O98480   0.057   2.325  10.257 -0.5179  0.4921  0.8189
  747MOL0     C98481  -0.001   2.281  10.377  0.4067 -0.2407  0.1447
  747MOL0     C98482  -0.143   2.229  10.347  1.2045 -0.3681 -0.0268
  747MOL0     C98483  -0.230   2.332  10.275  0.8066 -0.1238  0.1655
  747MOL0     C98484  -0.375   2.285  10.233 -0.0725 -0.1033 -0.0427
  747MOL0     C98485  -0.462   2.256  10.355 -0.6982  0.4251  0.0939
  747MOL0     C98486  -0.596   2.189  10.327  0.1382 -0.2093  0.7889
  747MOL0     C98487  -0.671   2.181  10.454 -0.2445  0.2937 -0.1536
  747MOL0     C98488  -0.774   2.289  10.468 -0.7209 -0.0083 -0.3987
  747MOL0     N98489  -0.833   2.301  10.603 -0.2042  0.1215  0.4381
  747MOL0     C98490  -0.927   2.214  10.657 -0.0895  0.4242  0.0284
  747MOL0     C98491  -0.964   2.259  10.776  0.1060  0.6960 -0.3191
  747MOL0     C98492  -1.067   2.193  10.865 -0.1893 -1.1161  0.7449
  747MOL0     C98493  -1.211   2.242  10.822  1.1044 -0.1243 -0.2181
  747MOL0     C98494  -1.230   2.391  10.864 -0.4730 -0.3104 -0.0515
  747MOL0     C98495  -1.357   2.462  10.818 -0.4989  0.3013 -1.1034
  747MOL0     O98496  -1.372   2.599  10.867 -0.3744 -0.7161  0.3593
  747MOL0     C98497  -1.493   2.661  10.867 -0.2909 -0.2639 -0.6205
  747MOL0     C98498  -1.500   2.774  10.945  0.2556 -0.0285  0.3511
  747MOL0     C98499  -1.613   2.858  10.946 -0.2869  0.0056  0.0990
  747MOL0     C98500  -1.721   2.832  10.862  0.0543  0.1528  0.6062
  747MOL0     C98501  -1.838   2.925  10.867 -0.5717 -0.3937 -0.0061
  747MOL0     O98502  -1.966   2.886  10.816 -0.2939 -0.3483 -0.3166
  747MOL0     C98503  -2.080   2.955  10.842 -1.0661  0.2962 -0.0744
  747MOL0     C98504  -2.204   2.881  10.833  0.4945  0.4547  0.1972
  747MOL0     C98505  -2.332   2.943  10.841 -0.0750 -0.6956 -0.3410
  747MOL0     C98506  -2.342   3.080  10.871 -0.1092  0.3279  0.5490
  747MOL0     O98507  -2.464   3.155  10.874 -0.3174  0.5290  0.2167
  747MOL0     C98508  -2.589   3.080  10.852 -0.2184 -0.9104 -0.1518
  747MOL0     C98509  -2.708   3.163  10.890  0.3203  0.2654 -0.6671
  747MOL0     C98510  -2.838   3.074  10.870 -0.7542  0.1868  0.8059
  747MOL0     C98511  -2.955   3.155  10.896  0.2489  0.9147 -0.4408
  747MOL0     C98512  -3.081   3.065  10.855  0.2847 -0.0535  0.2693
  747MOL0     C98513  -3.209   3.117  10.909  0.5581 -0.2848  0.2709
  747MOL0     C98514  -3.319   3.019  10.885 -0.0277 -0.6164  0.3199
  747MOL0     C98515  -3.467   3.072  10.897 -1.6502 -0.1823  0.6000
  747MOL0    Cl98516  -3.507   3.195  10.761  0.2207 -0.2878  0.1179
  747MOL0     C98517  -2.218   3.145  10.894 -0.0240  1.0322 -0.4297
  747MOL0     C98518  -2.089   3.085  10.883 -0.7670 -0.8736  0.2811
  747MOL0     O98519  -1.812   3.038  10.918  0.0513 -0.1156  0.2009
  747MOL0     C98520  -1.719   2.717  10.773  0.4205  0.2489  0.0640
  747MOL0     C98521  -1.607   2.633  10.780  0.3230  0.7373 -0.3994
  747MOL0     N98522  -0.887   2.368  10.798  0.3283 -0.4090  0.1912
  747MOL0     N98523  -0.815   2.397  10.695  0.3891 -0.7746  0.3433
  747MOL0     C98524   0.270   2.293  10.360  1.0206 -0.4657  0.9656
  747MOL0     C98525   0.406   2.314  10.354  0.4925  0.4670  0.8049
  747MOL0     C98526   0.844   2.280  10.238  0.3915 -0.1136 -0.3500
  747MOL0     C98527   0.887   2.364  10.123  0.4957  0.4123 -0.9931
  747MOL0     C98528   1.017   2.383  10.100 -1.1541  0.4388 -0.1825
  747MOL0     C98529   1.116   2.333  10.178  0.3102  0.1419  0.4021
  747MOL0     O98530   1.242   2.360  10.123 -0.2324  0.2107 -0.7598
  747MOL0     C98531   1.350   2.296  10.179 -0.3453 -0.0816  0.4036
  747MOL0     C98532   1.469   2.383  10.145  0.0882  0.7657 -0.5351
  747MOL0     C98533   1.587   2.355  10.243 -0.1285  1.0930  0.0151
  747MOL0     C98534   1.708   2.451  10.217  0.4349  0.1735  0.2991
  747MOL0     C98535   1.827   2.421  10.295 -0.3759 -0.6685  1.1221
  747MOL0     C98536   1.932   2.399  10.353  0.3422 -0.1260 -1.1543
  747MOL0     C98537   1.078   2.252  10.286 -0.9283  0.9770  0.3167
  747MOL0     C98538   0.947   2.225  10.320  0.1719  0.1389 -0.4681
  747MOL0     H98539   0.438   2.394  10.024  2.4374 -1.1171  1.4374
  747MOL0     H98540   0.184   2.381  10.043  0.4430 -1.9020 -0.6202
  747MOL0     H98541   0.000   2.365  10.447 -4.3190  3.0687 -3.1399
  747MOL0     H98542   0.046   2.192  10.420 -0.2280  0.9721  3.7249
  747MOL0     H98543  -0.176   2.201  10.447 -0.4941  1.4990 -0.0033
  747MOL0     H98544  -0.135   2.152  10.270  1.4219 -0.1242 -0.2536
  747MOL0     H98545  -0.179   2.353  10.181  0.5762  3.4574  0.7150
  747MOL0     H98546  -0.231   2.428  10.328 -1.3672 -1.3755  2.6201
  747MOL0     H98547  -0.428   2.360  10.175 -0.2152 -0.9608 -1.0533
  747MOL0     H98548  -0.361   2.194  10.174 -1.1130 -0.7474  0.6655
  747MOL0     H98549  -0.478   2.349  10.411  0.9743  0.9208 -0.2072
  747MOL0     H98550  -0.400   2.191  10.418  0.9262  0.8500 -1.0379
  747MOL0     H98551  -0.581   2.086  10.293  1.7386  0.5094 -0.8493
  747MOL0     H98552  -0.648   2.258  10.260 -0.9188  0.1063  1.8981
  747MOL0     H98553  -0.715   2.081  10.456  1.1385 -0.3211  0.6340
  747MOL0     H98554  -0.603   2.205  10.537 -0.2769  2.6396 -0.7143
  747MOL0     H98555  -0.859   2.253  10.409 -2.0464  0.2578  1.2504
  747MOL0     H98556  -0.730   2.378  10.422  4.7934 -2.4659 -0.6532
  747MOL0     H98557  -0.965   2.128  10.603 -3.0077  0.1631  2.2320
  747MOL0     H98558  -1.060   2.208  10.973  1.7117 -0.4549  0.5655
  747MOL0     H98559  -1.063   2.083  10.867  0.3370 -1.0827  1.7622
  747MOL0     H98560  -1.287   2.176  10.864  2.2008 -3.2120 -2.6295
  747MOL0     H98561  -1.241   2.232  10.717 -3.4983 -1.6844  1.0175
  747MOL0     H98562  -1.210   2.403  10.971  2.4630 -0.8057 -0.4448
  747MOL0     H98563  -1.139   2.445  10.833  1.0819 -2.4180  0.5893
  747MOL0     H98564  -1.443   2.405  10.856  0.1462  1.0743  1.7851
  747MOL0     H98565  -1.371   2.455  10.710 -1.4109  1.0028 -1.0481
  747MOL0     H98566  -1.416   2.813  11.002 -0.0381 -0.1761  0.8897
  747MOL0     H98567  -1.611   2.948  11.005 -2.7845  1.1585 -1.4141
  747MOL0     H98568  -2.211   2.781  10.792 -2.0143  1.5097 -2.3354
  747MOL0     H98569  -2.420   2.885  10.815 -0.7474  0.5622 -0.9836
  747MOL0     H98570  -2.587   2.998  10.923  0.5656 -2.1907 -1.6010
  747MOL0     H98571  -2.584   3.034  10.753  1.4729 -0.7021 -0.1975
  747MOL0     H98572  -2.718   3.258  10.838  0.1314 -0.3049 -1.7043
  747MOL0     H98573  -2.698   3.185  10.996  1.1166 -1.7651 -0.2767
  747MOL0     H98574  -2.828   2.993  10.943  0.4670 -0.3544  0.0779
  747MOL0     H98575  -2.829   3.030  10.770  2.4570  1.0098  0.6234
  747MOL0     H98576  -2.958   3.172  11.004  1.1816 -1.4420  0.0182
  747MOL0     H98577  -2.947   3.245  10.834 -4.1472  0.7420 -1.6001
  747MOL0     H98578  -3.064   2.971  10.908 -0.3960  0.4629  1.4452
  747MOL0     H98579  -3.080   3.048  10.747 -0.4049 -0.2033  0.2800
  747MOL0     H98580  -3.235   3.209  10.856  3.9954  1.0847  0.7628
  747MOL0     H98581  -3.204   3.124  11.018 -1.2128 -0.3045  0.3956
  747MOL0     H98582  -3.304   2.963  10.793 -1.1547 -2.2760  1.0924
  747MOL0     H98583  -3.306   2.946  10.966  1.5432  0.5292  1.1545
  747MOL0     H98584  -3.489   3.125  10.991  0.5901  1.6644  0.1762
  747MOL0     H98585  -3.535   2.990  10.876  0.6738 -1.7511 -1.3348
  747MOL0     H98586  -2.225   3.245  10.935  1.7525  0.8671  0.3621
  747MOL0     H98587  -2.005   3.147  10.915 -2.9901  1.0336  2.9970
  747MOL0     H98588  -1.793   2.684  10.701  0.3672 -5.2117  2.1678
  747MOL0     H98589  -1.604   2.539  10.725  1.0392 -1.5627  3.2179
  747MOL0     H98590   0.225   2.269  10.456 -4.2703  2.5654 -0.3836
  747MOL0     H98591   0.467   2.286  10.440  1.0126 -4.0651 -0.7330
  747MOL0     H98592   0.816   2.393  10.047  2.0839  1.0822 -2.2882
  747MOL0     H98593   1.045   2.450  10.019  1.2111  4.1566  3.2683
  747MOL0     H98594   1.356   2.193  10.143 -0.7594  0.4612 -1.3074
  747MOL0     H98595   1.358   2.304  10.288  2.7408  0.5188  0.2367
  747MOL0     H98596   1.504   2.365  10.043 -1.4651 -3.1841 -0.5331
  747MOL0     H98597   1.444   2.490  10.150  1.3787  1.1200 -1.1588
  747MOL0     H98598   1.627   2.254  10.234  1.3404  1.7264 -0.8371
  747MOL0     H98599   1.554   2.371  10.347 -1.3233 -0.6774 -0.0507
  747MOL0     H98600   1.737   2.440  10.112 -0.3777 -0.5360  0.1422
  747MOL0     H98601   1.672   2.551  10.243  0.2067  0.2762 -0.3745
  747MOL0     H98602   2.026   2.402  10.405 -1.2537 -3.1220  2.2677
  747MOL0     H98603   1.154   2.207  10.349 -2.1973  4.9465  5.3465
  747MOL0     H98604   0.920   2.151  10.394 -1.0205 -0.1502 -1.1710
  748MOL0     O98605   9.041  10.309   9.522 -0.0694 -0.8870  0.4142
  748MOL0     C98606   9.156  10.316   9.559  0.3389 -0.3153  1.0586
  748MOL0     O98607   9.210  10.242   9.658  0.0236 -0.3939 -0.2103
  748MOL0     C98608   9.124  10.147   9.716  0.5325 -0.3975 -0.1824
  748MOL0     C98609   9.177  10.013   9.729 -0.6283  0.1019  1.1751
  748MOL0     C98610   9.107   9.908   9.796 -0.7041 -1.2636 -0.1456
  748MOL0     C98611   8.980   9.928   9.847  0.9720  0.6466 -1.0293
  748MOL0     O98612   8.928   9.813   9.904  0.0654  0.1120 -0.1860
  748MOL0     C98613   8.832   9.825  10.003  0.4044 -0.0631 -0.8539
  748MOL0     C98614   8.808   9.696  10.076 -0.7460  0.4304  0.9085
  748MOL0     C98615   8.733   9.592   9.999 -0.3662  0.7617 -0.1448
  748MOL0     C98616   8.694   9.456  10.059  0.7709  0.9540  0.3659
  748MOL0     C98617   8.611   9.464  10.187 -0.3115  0.6766  0.0257
  748MOL0     C98618   8.478   9.542  10.162  0.3090  1.2963  0.7720
  748MOL0     C98619   8.414   9.598  10.284  0.4333  0.3287 -0.3265
  748MOL0     C98620   8.261   9.579  10.277  0.6903 -0.1647  1.1222
  748MOL0     N98621   8.192   9.455  10.244 -0.6177 -0.0985 -0.2499
  748MOL0     C98622   8.159   9.402  10.120  0.5620 -0.0043  0.7578
  748MOL0     C98623   8.142   9.276  10.134  0.0065  0.1720 -0.3688
  748MOL0     C98624   8.109   9.170  10.041 -0.1639  0.6417 -0.6761
  748MOL0     C98625   7.954   9.160  10.026 -0.1705  0.2301 -0.2776
  748MOL0     C98626   7.906   9.060   9.925 -0.1580  0.5466 -0.2088
  748MOL0     C98627   7.758   9.067   9.919 -0.6327 -0.5914  0.0446
  748MOL0     O98628   7.703   9.048  10.054 -0.0256  0.2794 -0.0276
  748MOL0     C98629   7.570   9.075  10.078  0.4124 -0.2782 -0.8728
  748MOL0     C98630   7.480   8.971  10.087 -0.7364  0.0495 -0.1826
  748MOL0     C98631   7.348   8.988  10.124 -0.1793  0.0939 -0.8110
  748MOL0     C98632   7.295   9.113  10.131 -0.8513 -0.3534 -0.5207
  748MOL0     C98633   7.155   9.143  10.133  0.3665  0.2006  0.5362
  748MOL0     O98634   7.075   9.053  10.190 -0.7191 -0.5302  0.0102
  748MOL0     C98635   6.943   9.082  10.182  0.2136  0.1773 -0.2538
  748MOL0     C98636   6.867   8.987  10.115  0.2604  0.1392  0.5859
  748MOL0     C98637   6.725   9.007  10.092  0.6124  1.0515  0.1794
  748MOL0     C98638   6.660   9.110  10.150 -0.2173  0.7587 -0.6351
  748MOL0     O98639   6.529   9.130  10.141 -0.5154 -0.0841 -0.0034
  748MOL0     C98640   6.502   9.202  10.018  0.4423  0.1412 -0.2369
  748MOL0     C98641   6.361   9.259  10.027 -0.1166 -0.5889  0.6620
  748MOL0     C98642   6.315   9.344   9.901  0.4046 -0.8354 -0.4217
  748MOL0     C98643   6.305   9.259   9.768 -0.1005 -0.8474 -0.0078
  748MOL0     C98644   6.213   9.348   9.670 -0.0974  1.0339 -0.0931
  748MOL0     C98645   6.221   9.299   9.528  0.0401 -0.2262 -0.1518
  748MOL0     C98646   6.132   9.174   9.487 -0.6537 -0.6742 -0.0537
  748MOL0     C98647   6.135   9.169   9.329  0.8217  0.1735  0.5450
  748MOL0    Cl98648   6.027   9.040   9.282  0.2392  0.0476  0.1374
  748MOL0     C98649   6.736   9.194  10.235 -0.3599  0.1854 -0.6014
  748MOL0     C98650   6.874   9.179  10.253 -0.5327 -0.3350  0.3765
  748MOL0     O98651   7.123   9.251  10.083 -0.1824 -0.2682 -0.8672
  748MOL0     C98652   7.387   9.221  10.125 -0.5533 -0.0108 -0.6692
  748MOL0     C98653   7.526   9.200  10.092  0.3776 -0.0701 -0.2352
  748MOL0     N98654   8.157   9.247  10.272 -0.3891  0.8055  0.2305
  748MOL0     N98655   8.182   9.350  10.334  0.0982 -0.8949 -0.4986
  748MOL0     C98656   8.931  10.060   9.851 -0.1460  0.6657  0.6980
  748MOL0     C98657   8.998  10.172   9.782 -1.1007 -0.0591 -0.1467
  748MOL0     C98658   9.243  10.419   9.484 -0.1148 -0.2935 -0.5834
  748MOL0     C98659   9.177  10.514   9.401 -0.6247 -0.4301  0.4064
  748MOL0     C98660   9.252  10.604   9.323  0.3453  0.0119 -0.1962
  748MOL0     C98661   9.392  10.602   9.336  0.2107 -0.0270  0.4899
  748MOL0     O98662   9.463  10.681   9.255 -0.1078 -0.4804  0.4014
  748MOL0     C98663   9.563  10.757   9.316  0.0850 -0.6975 -0.4822
  748MOL0     C98664   9.594  10.893   9.235  0.0364 -0.0418  0.2049
  748MOL0     C98665   9.641  10.859   9.099  0.1885  0.0975  0.1325
  748MOL0     C98666   9.771  10.927   9.048 -0.1473  0.3001  0.3101
  748MOL0     C98667   9.894  10.873   9.103  0.7211  0.3780 -0.1527
  748MOL0     C98668  10.009  10.843   9.126 -0.2952 -0.0446  0.8126
  748MOL0     C98669   9.453  10.507   9.418  0.1120  0.1532  0.2309
  748MOL0     C98670   9.382  10.416   9.500  0.4103  0.2829 -0.3161
  748MOL0     H98671   9.264   9.997   9.667 -0.1507  1.8484  1.3387
  748MOL0     H98672   9.161   9.813   9.796  2.3066  0.3244 -0.0256
  748MOL0     H98673   8.739   9.873   9.971  0.4832  2.9964  2.7148
  748MOL0     H98674   8.871   9.893  10.080  2.1686 -2.6857  0.7474
  748MOL0     H98675   8.762   9.710  10.174 -0.3336  1.4977  0.9554
  748MOL0     H98676   8.903   9.655  10.114 -1.2169 -0.0082  1.6459
  748MOL0     H98677   8.793   9.557   9.915  0.2728  0.7261  0.3215
  748MOL0     H98678   8.641   9.636   9.959 -0.5840  1.1000  0.7030
  748MOL0     H98679   8.630   9.405   9.987  0.9503  0.4948  0.5304
  748MOL0     H98680   8.779   9.391  10.080  0.1372  0.5465  1.7552
  748MOL0     H98681   8.666   9.492  10.278 -1.7314 -5.7138  3.4373
  748MOL0     H98682   8.594   9.358  10.207  3.4081 -0.0106  0.1486
  748MOL0     H98683   8.409   9.481  10.104  0.4532  0.6352  1.2694
  748MOL0     H98684   8.496   9.627  10.097  1.1635 -0.5067 -1.4860
  748MOL0     H98685   8.464   9.553  10.370  0.7479 -0.7515 -1.0596
  748MOL0     H98686   8.438   9.705  10.287  1.8331  0.2418 -3.9072
  748MOL0     H98687   8.225   9.638  10.191 -1.8837 -0.2505  2.0739
  748MOL0     H98688   8.225   9.614  10.374  2.3828  2.7825  0.8175
  748MOL0     H98689   8.159   9.446  10.021 -1.2958 -3.0096 -0.7339
  748MOL0     H98690   8.150   9.085  10.095 -0.4814 -1.5423 -3.5909
  748MOL0     H98691   8.174   9.188   9.954  1.9189  0.4276  0.7778
  748MOL0     H98692   7.936   9.259   9.984  0.3199  0.3980 -0.1003
  748MOL0     H98693   7.904   9.146  10.122 -1.1744 -5.9481 -1.2360
  748MOL0     H98694   7.948   9.084   9.826  0.8965 -0.0589  0.0732
  748MOL0     H98695   7.930   8.958   9.954 -2.9521  0.8116  3.8076
  748MOL0     H98696   7.714   8.997   9.847  0.1854 -2.0441  0.9035
  748MOL0     H98697   7.735   9.170   9.891  2.0689  1.1961  3.6704
  748MOL0     H98698   7.526   8.876  10.060  0.4789  0.4477  0.4219
  748MOL0     H98699   7.295   8.895  10.140  1.6676 -1.6243 -3.8075
  748MOL0     H98700   6.909   8.906  10.057 -2.1065  0.2808 -1.4822
  748MOL0     H98701   6.675   8.935  10.028  0.3941  1.8617 -0.5737
  748MOL0     H98702   6.516   9.134   9.933  3.0226 -1.5174  1.3812
  748MOL0     H98703   6.575   9.284  10.014 -0.5614  0.9991 -2.0655
  748MOL0     H98704   6.343   9.320  10.116 -0.8422 -1.2654  1.0001
  748MOL0     H98705   6.285   9.182  10.046 -0.4105 -0.9429 -1.6428
  748MOL0     H98706   6.386   9.428   9.894 -0.0540 -0.3045  1.0834
  748MOL0     H98707   6.218   9.379   9.936  0.0553 -1.5968 -0.6191
  748MOL0     H98708   6.409   9.256   9.733 -1.2996 -1.4514 -3.9825
  748MOL0     H98709   6.270   9.159   9.795  0.8648 -0.4082  3.2393
  748MOL0     H98710   6.246   9.452   9.673 -2.4801  1.8685 -0.4405
  748MOL0     H98711   6.109   9.348   9.703 -0.2888 -2.1937 -0.3439
  748MOL0     H98712   6.326   9.293   9.496  1.1724 -0.5391  3.2822
  748MOL0     H98713   6.169   9.378   9.474  0.1527  0.1342  0.2641
  748MOL0     H98714   6.171   9.081   9.528 -1.0614 -0.4912  0.7721
  748MOL0     H98715   6.032   9.201   9.523 -0.7488  2.4947 -2.2774
  748MOL0     H98716   6.230   9.143   9.283  0.4053  0.1247 -0.3115
  748MOL0     H98717   6.082   9.261   9.302 -2.1817 -1.7196 -0.6883
  748MOL0     H98718   6.667   9.265  10.279  0.6262 -0.8908  3.0644
  748MOL0     H98719   6.932   9.251  10.309  2.4720 -1.0345 -1.6190
  748MOL0     H98720   7.358   9.325  10.138 -1.4650 -0.3139 -0.1881
  748MOL0     H98721   7.601   9.277  10.083  0.1733  0.4541  1.9775
  748MOL0     H98722   8.842  10.069   9.913  1.3199 -0.7381  3.1887
  748MOL0     H98723   8.975  10.277   9.797  2.5884  0.8765 -0.1901
  748MOL0     H98724   9.070  10.517   9.386 -0.2660 -1.0713 -2.7974
  748MOL0     H98725   9.199  10.682   9.269 -2.7886 -0.9886  1.1712
  748MOL0     H98726   9.655  10.703   9.340  1.7670  2.3181  0.4162
  748MOL0     H98727   9.524  10.807   9.405  0.8191  4.4111 -2.6519
  748MOL0     H98728   9.517  10.971   9.233  0.2626  0.1825 -2.0393
  748MOL0     H98729   9.682  10.927   9.291 -0.1997 -0.2778  0.7259
  748MOL0     H98730   9.561  10.898   9.035 -0.1572 -2.3788 -1.1123
  748MOL0     H98731   9.653  10.751   9.084 -0.9857  0.1450 -1.4739
  748MOL0     H98732   9.772  10.924   8.939  0.0986 -2.8345  0.3278
  748MOL0     H98733   9.769  11.036   9.058 -2.0349  0.6527 -2.7439
  748MOL0     H98734  10.111  10.821   9.151 -0.5567  1.7965  3.8759
  748MOL0     H98735   9.561  10.500   9.418  0.3395  2.7183 -0.9455
  748MOL0     H98736   9.432  10.340   9.560 -1.6165  0.0163  1.1184
  749MOL0     O98737   5.676   9.218  11.140  0.0712 -0.1487 -0.5759
  749MOL0     C98738   5.674   9.252  11.255  0.4615  0.2447 -0.2060
  749MOL0     O98739   5.571   9.222  11.339 -0.1039  0.7472  0.1073
  749MOL0     C98740   5.453   9.164  11.297 -0.0432 -0.3372  0.1991
  749MOL0     C98741   5.382   9.066  11.371 -0.1430  0.5612  0.4160
  749MOL0     C98742   5.252   9.015  11.340  0.3259 -0.7388 -0.1726
  749MOL0     C98743   5.189   9.050  11.219  0.0246  0.0748 -0.1086
  749MOL0     O98744   5.064   9.010  11.166 -0.5943 -0.1349  0.0810
  749MOL0     C98745   4.962   9.016  11.270 -0.5539 -0.3219 -0.3305
  749MOL0     C98746   4.837   8.962  11.190  0.9372  0.0937 -0.5308
  749MOL0     C98747   4.703   9.011  11.266  0.5095 -0.6388  0.0237
  749MOL0     C98748   4.593   9.002  11.157  0.4310 -0.6704  0.3646
  749MOL0     C98749   4.461   9.087  11.192  0.0087  0.1962  0.5633
  749MOL0     C98750   4.333   9.007  11.153 -0.5426  0.2018  0.2914
  749MOL0     C98751   4.206   9.060  11.209  1.1629  0.4787  0.8082
  749MOL0     C98752   4.159   9.194  11.153  0.1225  0.0445  0.0447
  749MOL0     N98753   4.016   9.205  11.144 -0.3216  0.0247  0.0569
  749MOL0     C98754   3.928   9.247  11.236  0.6732 -0.1787 -0.1309
  749MOL0     C98755   3.813   9.246  11.173 -0.5766  0.0025  0.3344
  749MOL0     C98756   3.699   9.329  11.223  1.0139  0.3239  0.0548
  749MOL0     C98757   3.568   9.242  11.244 -0.0447 -0.1362 -0.4570
  749MOL0     C98758   3.548   9.129  11.142 -0.0143  0.3651  0.0769
  749MOL0     C98759   3.433   9.038  11.169  0.5111  0.1573  0.0147
  749MOL0     O98760   3.318   9.102  11.103  0.0947 -0.2276  0.3320
  749MOL0     C98761   3.208   9.126  11.175  0.8387 -0.1686 -0.3051
  749MOL0     C98762   3.190   9.233  11.270 -0.9997  1.4663  0.5353
  749MOL0     C98763   3.064   9.238  11.338 -0.9810  0.2016  0.2567
  749MOL0     C98764   2.961   9.153  11.304  0.0640  0.1100 -0.7009
  749MOL0     C98765   2.838   9.159  11.380  0.4597  0.1133  0.9846
  749MOL0     O98766   2.732   9.139  11.306  0.0104  0.2444  0.3914
  749MOL0     C98767   2.613   9.131  11.369  0.8737  0.5942  0.7984
  749MOL0     C98768   2.572   9.016  11.418 -0.5210 -0.0247  0.6426
  749MOL0     C98769   2.442   8.995  11.461 -0.1586  1.1596  0.7494
  749MOL0     C98770   2.348   9.098  11.444  0.1111  0.2171 -1.4676
  749MOL0     O98771   2.217   9.081  11.470 -0.4098  0.0797  0.1517
  749MOL0     C98772   2.130   9.028  11.374  0.3044 -0.0051 -0.0381
  749MOL0     C98773   2.106   9.124  11.261 -0.9457  0.1464  1.0623
  749MOL0     C98774   2.040   9.040  11.144  0.3701 -0.2438  0.0466
  749MOL0     C98775   1.993   9.139  11.029  0.1473 -0.5679 -0.0428
  749MOL0     C98776   1.969   9.051  10.908  0.3384  0.1550  0.3775
  749MOL0     C98777   1.861   8.945  10.927 -0.7377 -0.4023 -0.2082
  749MOL0     C98778   1.715   8.989  10.926 -0.2769  0.1306  0.5101
  749MOL0     C98779   1.626   8.871  10.866 -0.2716 -0.4666  0.0388
  749MOL0    Cl98780   1.444   8.913  10.874  0.3462  0.3491 -0.0868
  749MOL0     C98781   2.403   9.230  11.415 -0.5888  0.2869  0.3050
  749MOL0     C98782   2.529   9.240  11.367 -0.7985  0.3920 -0.0582
  749MOL0     O98783   2.837   9.194  11.503 -0.1203 -0.2867  0.3536
  749MOL0     C98784   2.985   9.046  11.209  0.6598  0.0011  0.4808
  749MOL0     C98785   3.108   9.027  11.151 -1.3207 -0.6078  0.4527
  749MOL0     N98786   3.827   9.176  11.057 -0.6705  0.6534 -0.4168
  749MOL0     N98787   3.949   9.161  11.032 -0.3926  0.8379 -1.0347
  749MOL0     C98788   5.269   9.144  11.143  1.0838  0.2339  0.5310
  749MOL0     C98789   5.381   9.206  11.180  0.0708 -0.6697  0.1018
  749MOL0     C98790   5.784   9.314  11.324  0.0705 -0.0333 -0.0513
  749MOL0     C98791   5.781   9.355  11.460  0.0863 -1.4047  0.0692
  749MOL0     C98792   5.890   9.436  11.515  0.0445  0.6659 -0.3608
  749MOL0     C98793   5.989   9.486  11.431  0.1186 -0.3481 -0.1745
  749MOL0     O98794   6.078   9.571  11.481  0.1687  0.3359 -0.8302
  749MOL0     C98795   6.111   9.679  11.391  0.7582 -0.6993  0.5335
  749MOL0     C98796   6.246   9.662  11.317  0.0077 -0.1612 -0.7052
  749MOL0     C98797   6.358   9.715  11.410  0.1277 -0.7568 -0.0746
  749MOL0     C98798   6.471   9.606  11.416 -0.1700 -0.2616 -0.1932
  749MOL0     C98799   6.597   9.661  11.460  0.5985  0.6034 -0.8594
  749MOL0     C98800   6.702   9.702  11.501 -0.4170 -0.4151 -0.0928
  749MOL0     C98801   5.997   9.432  11.294 -0.1752  0.0192 -0.4990
  749MOL0     C98802   5.901   9.348  11.242 -0.0353  0.6907 -0.3534
  749MOL0     H98803   5.434   9.028  11.459  0.0150  1.9429  0.9609
  749MOL0     H98804   5.216   8.947  11.416  1.9586  0.5867  1.9022
  749MOL0     H98805   4.958   9.118  11.307  0.7611  0.9466 -3.3208
  749MOL0     H98806   4.987   8.958  11.359 -0.0045 -1.3076 -1.0921
  749MOL0     H98807   4.841   8.853  11.192 -1.2196 -0.0214  0.1124
  749MOL0     H98808   4.845   9.005  11.089  1.1755  1.6717  0.1309
  749MOL0     H98809   4.709   9.117  11.290 -4.0604 -0.1102 -0.3051
  749MOL0     H98810   4.698   8.945  11.353 -0.3397  1.0916  1.3504
  749MOL0     H98811   4.630   9.030  11.058  0.2211  1.4758  0.8546
  749MOL0     H98812   4.566   8.896  11.154  1.1328 -0.8292 -0.4799
  749MOL0     H98813   4.463   9.187  11.148  0.6417 -0.1264 -0.1720
  749MOL0     H98814   4.476   9.097  11.299  5.2157 -2.5700  0.4090
  749MOL0     H98815   4.341   8.902  11.186 -0.9242 -0.1361 -0.6537
  749MOL0     H98816   4.319   9.009  11.045 -2.9116 -0.9478  0.5201
  749MOL0     H98817   4.129   8.990  11.175 -1.4438  2.9332  1.2870
  749MOL0     H98818   4.194   9.056  11.318 -4.7742  2.5891  0.6167
  749MOL0     H98819   4.197   9.204  11.051  0.4224  0.2726  0.1776
  749MOL0     H98820   4.190   9.280  11.212  1.9320 -0.2217 -0.4562
  749MOL0     H98821   3.944   9.299  11.331  0.0042  0.4514 -0.3483
  749MOL0     H98822   3.676   9.395  11.139  0.2499 -1.3161 -1.0796
  749MOL0     H98823   3.721   9.372  11.321 -0.9241  1.5685  0.0020
  749MOL0     H98824   3.483   9.311  11.253  3.0436  3.7612  3.0567
  749MOL0     H98825   3.576   9.195  11.343  2.3751 -0.7056 -0.8686
  749MOL0     H98826   3.543   9.173  11.042 -2.5116 -2.9524 -1.4671
  749MOL0     H98827   3.639   9.070  11.160 -0.2192 -0.0508 -0.2096
  749MOL0     H98828   3.411   9.040  11.276 -0.1353  0.6345 -0.1172
  749MOL0     H98829   3.441   8.942  11.118  0.1939 -0.1228  0.4912
  749MOL0     H98830   3.275   9.293  11.304 -1.5316  2.6126 -0.0918
  749MOL0     H98831   3.053   9.292  11.431 -1.4372 -0.9288  0.8834
  749MOL0     H98832   2.641   8.937  11.446 -0.7141  0.2667  2.0030
  749MOL0     H98833   2.422   8.897  11.502  2.3378  0.4501  0.4112
  749MOL0     H98834   2.033   9.016  11.424 -0.5471 -1.6619 -1.9252
  749MOL0     H98835   2.153   8.926  11.342 -0.1092 -0.3681  0.7847
  749MOL0     H98836   2.200   9.171  11.229 -1.9808  1.2853 -0.4229
  749MOL0     H98837   2.027   9.191  11.295 -1.1997  0.0322  0.7020
  749MOL0     H98838   1.951   8.993  11.188 -2.1038  2.3353 -1.8173
  749MOL0     H98839   2.103   8.960  11.106 -0.2924 -1.3954  1.2718
  749MOL0     H98840   1.902   9.194  11.057  0.3429  1.1879 -2.5410
  749MOL0     H98841   2.068   9.215  11.006  1.0708 -0.8053  1.9468
  749MOL0     H98842   2.063   9.009  10.871  0.1959  1.1926 -1.2524
  749MOL0     H98843   1.946   9.119  10.826  2.2714  0.9752  0.4774
  749MOL0     H98844   1.877   8.882  11.014  1.9469 -0.6128 -0.7747
  749MOL0     H98845   1.870   8.880  10.839 -2.7516 -0.7741 -0.1784
  749MOL0     H98846   1.679   9.021  11.024 -0.4217 -1.7417  1.1194
  749MOL0     H98847   1.696   9.079  10.867 -0.6425  0.3188  0.9105
  749MOL0     H98848   1.638   8.775  10.917 -2.8959 -1.0136 -0.2305
  749MOL0     H98849   1.661   8.852  10.764  4.3051  3.0801  0.6531
  749MOL0     H98850   2.349   9.324  11.416  0.6311  1.0151  1.1563
  749MOL0     H98851   2.585   9.322  11.321 -1.7641  0.9600 -0.2405
  749MOL0     H98852   2.905   8.976  11.186 -0.4886  1.2185  0.6213
  749MOL0     H98853   3.114   8.942  11.084 -4.3375 -1.6189  1.3144
  749MOL0     H98854   5.236   9.168  11.043 -0.2136  0.7601  1.0609
  749MOL0     H98855   5.425   9.285  11.121  0.5607  0.1419  1.5056
  749MOL0     H98856   5.704   9.319  11.527 -2.2899  2.5423 -0.2905
  749MOL0     H98857   5.890   9.479  11.614  0.4128  1.3834 -0.6638
  749MOL0     H98858   6.120   9.777  11.440 -1.2427 -0.2990  0.1620
  749MOL0     H98859   6.034   9.695  11.315  1.1100  0.3800  0.3852
  749MOL0     H98860   6.260   9.554  11.307  0.2964 -0.2259  0.3206
  749MOL0     H98861   6.245   9.717  11.222 -0.6922 -1.5377 -1.5272
  749MOL0     H98862   6.318   9.727  11.512 -0.4304  3.5018 -0.6307
  749MOL0     H98863   6.390   9.813  11.374 -2.7904  0.0701 -0.6971
  749MOL0     H98864   6.466   9.519  11.483  0.3782  1.1607  1.7986
  749MOL0     H98865   6.475   9.564  11.316  1.1729 -0.8536  0.0852
  749MOL0     H98866   6.781   9.761  11.544 -0.1552 -0.5115 -0.4340
  749MOL0     H98867   6.077   9.468  11.231 -0.0912  1.4084  0.3359
  749MOL0     H98868   5.905   9.322  11.137  1.7500  1.1402 -0.4220
  750MOL0     O98869   1.998   4.218   5.920  0.2141  1.0750  0.5724
  750MOL0     C98870   2.066   4.139   5.848 -0.8423  0.2081  0.5967
  750MOL0     O98871   2.026   4.074   5.732  0.1224  0.0630 -0.5991
  750MOL0     C98872   1.907   4.109   5.688 -0.2874 -0.0026 -0.7484
  750MOL0     C98873   1.876   4.203   5.585  0.1553 -0.9648  0.9539
  750MOL0     C98874   1.750   4.243   5.562  0.8193  0.5203  0.4845
  750MOL0     C98875   1.644   4.180   5.630  0.3180 -0.3698  0.0483
  750MOL0     O98876   1.517   4.219   5.573 -0.5329  0.6855  0.0308
  750MOL0     C98877   1.439   4.114   5.508 -0.0063 -0.3722  0.0298
  750MOL0     C98878   1.286   4.124   5.539  0.3699 -0.7619  0.3167
  750MOL0     C98879   1.202   4.072   5.427 -1.1103 -0.2548 -0.0078
  750MOL0     C98880   1.053   4.124   5.442  0.6461 -0.1429  0.2810
  750MOL0     C98881   0.939   4.079   5.351 -0.4031 -0.4411  0.0107
  750MOL0     C98882   0.797   4.117   5.412  0.3936  0.1108 -0.0920
  750MOL0     C98883   0.690   4.109   5.304 -0.1211 -0.2312  0.4206
  750MOL0     C98884   0.552   4.127   5.365 -0.2368 -0.6115  0.9690
  750MOL0     N98885   0.438   4.100   5.281 -0.1711  0.2797 -0.1242
  750MOL0     C98886   0.357   4.195   5.230  0.1205 -0.0317 -0.7607
  750MOL0     C98887   0.239   4.135   5.219 -0.3953 -0.3800 -0.0805
  750MOL0     C98888   0.118   4.189   5.178  0.4686 -0.6228 -1.3934
  750MOL0     C98889   0.126   4.305   5.087  0.3040  0.5908  0.5226
  750MOL0     C98890  -0.005   4.335   4.998 -0.3048 -0.3785  0.2690
  750MOL0     C98891  -0.129   4.328   5.085  0.1654 -0.4427  1.1071
  750MOL0     O98892  -0.128   4.453   5.167 -0.6377  0.5269  0.6762
  750MOL0     C98893  -0.235   4.458   5.255 -0.2015  0.4130 -0.8020
  750MOL0     C98894  -0.342   4.369   5.268  0.4760  0.3466 -0.4007
  750MOL0     C98895  -0.430   4.380   5.372  0.2166  0.4863 -1.0067
  750MOL0     C98896  -0.423   4.487   5.467 -0.6513 -0.0504  0.5314
  750MOL0     C98897  -0.512   4.508   5.584  1.0047  0.0584  1.1087
  750MOL0     O98898  -0.623   4.428   5.596 -0.4409 -0.1082 -0.4689
  750MOL0     C98899  -0.672   4.405   5.721  0.4806 -0.4320  1.0394
  750MOL0     C98900  -0.790   4.459   5.765  0.3542  0.5889 -0.1424
  750MOL0     C98901  -0.841   4.433   5.895  0.2246 -0.1000 -0.0772
  750MOL0     C98902  -0.768   4.356   5.984 -0.0223  0.3907 -0.2994
  750MOL0     O98903  -0.812   4.357   6.110  0.4424 -0.4302 -0.1535
  750MOL0     C98904  -0.742   4.293   6.226 -0.8733  1.1159  0.3026
  750MOL0     C98905  -0.846   4.256   6.334  0.2720 -0.1339 -0.8057
  750MOL0     C98906  -0.772   4.195   6.460  0.1129 -0.0732  0.0327
  750MOL0     C98907  -0.854   4.154   6.579 -0.1108  0.8512  0.8362
  750MOL0     C98908  -0.954   4.043   6.547 -0.2973  0.2386 -0.4331
  750MOL0     C98909  -1.034   4.007   6.672 -0.2017 -0.9407  0.0170
  750MOL0     C98910  -1.094   3.867   6.681 -0.6141  0.9128 -1.0488
  750MOL0     C98911  -1.193   3.832   6.797  0.3792  0.7792 -0.2288
  750MOL0    Cl98912  -1.273   3.678   6.755  0.4869  0.3172  0.4969
  750MOL0     C98913  -0.656   4.294   5.941 -0.8842 -0.2611 -0.6097
  750MOL0     C98914  -0.607   4.322   5.808  0.2219  0.7495  0.0150
  750MOL0     O98915  -0.483   4.591   5.667  0.2440 -0.8280 -0.1182
  750MOL0     C98916  -0.324   4.587   5.444  0.0395  0.7468 -0.2691
  750MOL0     C98917  -0.239   4.573   5.334  0.7043  0.6733  0.5808
  750MOL0     N98918   0.255   3.999   5.247 -1.0023  1.6526  0.3701
  750MOL0     N98919   0.381   3.977   5.284 -0.5289 -0.6413 -0.1793
  750MOL0     C98920   1.662   4.082   5.726 -0.3228  0.5325  0.2548
  750MOL0     C98921   1.799   4.050   5.757  0.0478 -0.6440 -0.4685
  750MOL0     C98922   2.204   4.104   5.893 -0.1194 -0.5803  0.0910
  750MOL0     C98923   2.270   4.181   5.999  0.1302  0.8158 -1.4743
  750MOL0     C98924   2.402   4.149   6.024  0.7365 -0.4462  0.5536
  750MOL0     C98925   2.472   4.045   5.959  0.0087  0.6094  0.2582
  750MOL0     O98926   2.607   4.033   5.984  0.0788  0.3765  0.0228
  750MOL0     C98927   2.673   3.919   5.930 -0.1825 -0.0791  0.5051
  750MOL0     C98928   2.806   3.900   6.005 -0.2456  0.3002  0.7189
  750MOL0     C98929   2.887   4.020   5.999  0.1244  0.1439 -0.4249
  750MOL0     C98930   3.013   4.025   6.081 -0.1403 -0.5119  0.4720
  750MOL0     C98931   3.112   3.921   6.040 -0.0658  1.4765  0.0042
  750MOL0     C98932   3.194   3.841   6.000  0.5567  0.7574 -0.7525
  750MOL0     C98933   2.400   3.965   5.870  0.6970 -1.0595  0.3712
  750MOL0     C98934   2.271   4.002   5.830  0.5189 -0.1665 -0.7840
  750MOL0     H98935   1.955   4.246   5.523 -1.6358  0.2496 -0.5722
  750MOL0     H98936   1.725   4.322   5.492  2.5669  0.8274  0.1739
  750MOL0     H98937   1.476   4.016   5.541 -1.5219 -0.2496  2.2798
  750MOL0     H98938   1.458   4.131   5.402  1.4879 -1.3708  0.1023
  750MOL0     H98939   1.259   4.226   5.566 -0.1442 -1.2420  1.7013
  750MOL0     H98940   1.254   4.075   5.631 -3.5954 -1.3444 -1.1834
  750MOL0     H98941   1.207   3.964   5.441  2.0577 -0.0320  1.3219
  750MOL0     H98942   1.241   4.107   5.330 -0.9363 -1.2226 -0.2956
  750MOL0     H98943   1.020   4.092   5.542 -1.4940 -1.3063 -0.7415
  750MOL0     H98944   1.042   4.232   5.451 -1.2633 -0.2875  0.0817
  750MOL0     H98945   0.945   3.970   5.341  2.8963 -0.4067  0.4297
  750MOL0     H98946   0.946   4.109   5.247 -2.4510 -2.3766 -0.7788
  750MOL0     H98947   0.796   4.224   5.436  2.6994 -0.2343  1.9469
  750MOL0     H98948   0.772   4.065   5.505 -0.7575  0.0337 -0.4337
  750MOL0     H98949   0.720   4.186   5.232 -2.6203 -1.5169 -2.1817
  750MOL0     H98950   0.685   4.005   5.270 -1.6141 -0.5979  1.6733
  750MOL0     H98951   0.549   4.227   5.409  2.8355 -0.2637  0.5743
  750MOL0     H98952   0.560   4.061   5.452  3.3645 -2.8755 -0.8354
  750MOL0     H98953   0.372   4.301   5.241  0.2037 -0.3130  3.3812
  750MOL0     H98954   0.065   4.221   5.268  0.0876 -0.2774 -1.7348
  750MOL0     H98955   0.053   4.109   5.140  0.8813 -1.2168 -0.8603
  750MOL0     H98956   0.211   4.282   5.021  0.1035 -0.4596  0.6240
  750MOL0     H98957   0.168   4.393   5.138 -0.0285 -0.5083  2.7953
  750MOL0     H98958   0.011   4.434   4.954 -2.0686 -0.9923 -1.9466
  750MOL0     H98959  -0.026   4.274   4.910 -3.0692  1.1098 -0.2251
  750MOL0     H98960  -0.135   4.238   5.147  1.5526 -0.9683  0.5224
  750MOL0     H98961  -0.218   4.342   5.024  2.4379  2.3002 -1.9669
  750MOL0     H98962  -0.376   4.284   5.210  1.1475 -1.2725  1.4501
  750MOL0     H98963  -0.511   4.309   5.386 -1.8352  2.5652 -1.8304
  750MOL0     H98964  -0.843   4.517   5.690 -4.2761 -1.9075  0.8024
  750MOL0     H98965  -0.930   4.483   5.933  0.2721 -0.1921  0.1649
  750MOL0     H98966  -0.668   4.358   6.273 -2.0309  1.8586  1.1716
  750MOL0     H98967  -0.697   4.199   6.194 -0.6003  2.3468 -3.3230
  750MOL0     H98968  -0.910   4.181   6.286 -0.7587 -0.1901  0.5989
  750MOL0     H98969  -0.904   4.343   6.366 -2.1083 -0.9623 -2.6123
  750MOL0     H98970  -0.701   4.264   6.506 -1.0545  0.0042  1.8063
  750MOL0     H98971  -0.728   4.105   6.417 -0.4163 -0.5029  0.3738
  750MOL0     H98972  -0.789   4.136   6.665 -0.5796 -1.6730  0.7321
  750MOL0     H98973  -0.907   4.246   6.607 -0.2544  1.0447 -0.0173
  750MOL0     H98974  -0.907   3.950   6.513  1.0077  0.0506  1.7475
  750MOL0     H98975  -1.028   4.075   6.472 -0.3306 -0.2203 -0.6001
  750MOL0     H98976  -1.117   4.079   6.667  0.2706 -0.3365  0.6644
  750MOL0     H98977  -0.979   4.038   6.761 -2.9963 -1.4962  2.1053
  750MOL0     H98978  -1.140   3.850   6.583  1.2895  0.4585 -1.9175
  750MOL0     H98979  -1.006   3.803   6.678  0.7117  2.3488  2.5381
  750MOL0     H98980  -1.256   3.920   6.809 -2.4808 -1.0041 -1.1754
  750MOL0     H98981  -1.140   3.818   6.892 -1.8891 -0.3905  0.9597
  750MOL0     H98982  -0.598   4.240   6.015  0.7903  2.8434  0.5340
  750MOL0     H98983  -0.512   4.279   5.778  0.0924  1.6254 -1.7695
  750MOL0     H98984  -0.318   4.675   5.507  1.6412  0.3993  0.1150
  750MOL0     H98985  -0.165   4.650   5.317  1.6243 -0.0810  1.0294
  750MOL0     H98986   1.590   4.028   5.786  0.6938 -1.4850 -0.2551
  750MOL0     H98987   1.821   3.974   5.831 -0.3630 -0.7477 -0.4496
  750MOL0     H98988   2.222   4.259   6.058 -0.8912 -0.4481 -0.5805
  750MOL0     H98989   2.462   4.216   6.085  0.3172  2.2096 -1.7542
  750MOL0     H98990   2.686   3.942   5.824  1.1312  3.1041  1.2392
  750MOL0     H98991   2.609   3.832   5.947  0.5728 -1.0122 -1.2312
  750MOL0     H98992   2.787   3.872   6.109 -2.5956  1.5831  0.6901
  750MOL0     H98993   2.861   3.817   5.958  1.1064 -0.3903  3.3363
  750MOL0     H98994   2.825   4.107   6.023 -0.4239 -0.7404  1.5960
  750MOL0     H98995   2.913   4.028   5.893 -0.6969 -0.5285 -0.6904
  750MOL0     H98996   3.061   4.120   6.056 -1.6088  0.3627  0.8662
  750MOL0     H98997   2.992   4.020   6.188  1.5245 -1.6138  0.7859
  750MOL0     H98998   3.271   3.779   5.959 -0.0155 -2.4538  2.5098
  750MOL0     H98999   2.456   3.888   5.817  1.1766 -1.6191  1.6437
  750MOL0     H99000   2.216   3.931   5.769  0.1527  0.3634 -1.0779
  751MOL0     O99001   8.761   1.615   0.017 -0.4325  0.0710  0.2253
  751MOL0     C99002   8.799   1.727   0.011  0.7064 -0.1744 -0.5340
  751MOL0     O99003   8.734   1.833  -0.046  0.4284  0.2339 -0.3563
  751MOL0     C99004   8.597   1.827  -0.068  0.1783 -0.4048 -0.6229
  751MOL0     C99005   8.561   1.920  -0.160  0.2482  0.6342  0.0115
  751MOL0     C99006   8.423   1.942  -0.190 -0.5204  1.2683  0.3919
  751MOL0     C99007   8.320   1.873  -0.125  0.4159  0.0424  0.1399
  751MOL0     O99008   8.188   1.885  -0.161  0.4696  0.0145  0.2945
  751MOL0     C99009   8.089   1.874  -0.067  0.7253 -1.4248 -0.2401
  751MOL0     C99010   7.995   1.762  -0.096 -0.4905  0.1251  0.0422
  751MOL0     C99011   7.884   1.805  -0.198  0.4807  0.6502 -0.2928
  751MOL0     C99012   7.788   1.681  -0.214  0.4744  0.2419  0.2050
  751MOL0     C99013   7.657   1.729  -0.276 -0.3210  1.1583 -1.3824
  751MOL0     C99014   7.688   1.752  -0.422  0.8213  0.3379  1.8319
  751MOL0     C99015   7.564   1.784  -0.511  1.1395  0.8221  0.6025
  751MOL0     C99016   7.596   1.852  -0.649  0.0583  0.5725  0.1514
  751MOL0     N99017   7.485   1.920  -0.715  0.0190  0.4663  0.5891
  751MOL0     C99018   7.359   1.867  -0.714  0.1877 -0.3654 -0.0832
  751MOL0     C99019   7.282   1.943  -0.798  0.9481 -0.2133 -0.1182
  751MOL0     C99020   7.138   1.931  -0.846 -0.8507  0.1111 -0.2506
  751MOL0     C99021   7.043   1.912  -0.725  0.7078  0.0061 -0.3025
  751MOL0     C99022   6.892   1.937  -0.761  0.3241  0.2836  0.8803
  751MOL0     C99023   6.833   1.810  -0.839  1.2443  0.1296  0.5212
  751MOL0     O99024   6.698   1.841  -0.885 -0.7368  0.5605 -0.5364
  751MOL0     C99025   6.598   1.802  -0.799 -0.7463  0.5080  0.3390
  751MOL0     C99026   6.478   1.858  -0.833  0.3327  0.0051 -1.4376
  751MOL0     C99027   6.371   1.831  -0.749  0.0355 -0.0246 -0.9756
  751MOL0     C99028   6.372   1.745  -0.643  0.2889  0.3663 -0.5666
  751MOL0     C99029   6.253   1.716  -0.545  0.2341 -0.5859  0.1173
  751MOL0     O99030   6.134   1.749  -0.601  0.1144  0.2808  0.8655
  751MOL0     C99031   6.015   1.710  -0.538  0.2979 -0.6372 -0.5978
  751MOL0     C99032   5.992   1.742  -0.408  0.0469  0.2902 -0.5329
  751MOL0     C99033   5.855   1.735  -0.360  0.6465 -0.3745 -0.5213
  751MOL0     C99034   5.744   1.689  -0.447 -0.1475 -0.4524  0.5829
  751MOL0     O99035   5.615   1.706  -0.411 -0.3002  0.8242  0.0399
  751MOL0     C99036   5.531   1.594  -0.439  0.0524 -0.2613 -0.6686
  751MOL0     C99037   5.518   1.511  -0.306 -0.1014  0.7176  0.7303
  751MOL0     C99038   5.438   1.379  -0.335  0.7138 -0.4927 -0.7115
  751MOL0     C99039   5.459   1.282  -0.216 -0.0054  0.6721 -0.4369
  751MOL0     C99040   5.390   1.326  -0.086  0.2218 -0.3941 -0.0078
  751MOL0     C99041   5.241   1.383  -0.094 -1.3125 -0.0286  0.5894
  751MOL0     C99042   5.177   1.354   0.047 -0.2990  0.6308 -0.4359
  751MOL0     C99043   5.037   1.412   0.045  0.5898  0.7202  0.7220
  751MOL0    Cl99044   4.951   1.394  -0.112  0.2928  0.0556  0.1054
  751MOL0     C99045   5.776   1.658  -0.576 -0.2207 -0.5475 -0.1692
  751MOL0     C99046   5.912   1.661  -0.613  0.0932 -0.3052 -0.1861
  751MOL0     O99047   6.268   1.662  -0.438  0.4121 -0.4154 -0.0752
  751MOL0     C99048   6.490   1.677  -0.621  0.4769 -0.7555  0.0401
  751MOL0     C99049   6.604   1.710  -0.687 -0.3143  0.3455 -0.2874
  751MOL0     N99050   7.362   2.040  -0.851 -0.6133 -0.1025 -0.4012
  751MOL0     N99051   7.485   2.028  -0.798 -0.0055  0.0453 -0.9115
  751MOL0     C99052   8.362   1.782  -0.029 -0.8046  0.8994  0.0194
  751MOL0     C99053   8.497   1.757  -0.003  0.0288  0.2168 -0.0525
  751MOL0     C99054   8.930   1.761   0.062 -0.2881  0.8438 -0.2276
  751MOL0     C99055   8.957   1.910   0.083 -0.1498 -0.1419 -0.5909
  751MOL0     C99056   9.089   1.948   0.129 -1.0758  0.0374 -0.0869
  751MOL0     C99057   9.181   1.849   0.166  0.4854  0.4919  0.4136
  751MOL0     O99058   9.298   1.895   0.222  0.2568 -0.4982 -0.2796
  751MOL0     C99059   9.407   1.809   0.266  0.3821  0.1302 -0.5386
  751MOL0     C99060   9.478   1.734   0.163 -0.4580  0.3830  0.4760
  751MOL0     C99061   9.596   1.657   0.220 -0.1751 -0.1806  0.0010
  751MOL0     C99062   9.558   1.539   0.311  0.0230  0.1788  0.0704
  751MOL0     C99063   9.486   1.425   0.239 -1.1764  0.8570 -0.2247
  751MOL0     C99064   9.429   1.332   0.182  0.3891 -0.2103  0.4582
  751MOL0     C99065   9.152   1.712   0.146  0.1032 -0.1011 -0.0815
  751MOL0     C99066   9.036   1.666   0.088  0.6160  0.0390  0.0904
  751MOL0     H99067   8.634   1.973  -0.220 -0.5560  1.6829 -0.0643
  751MOL0     H99068   8.410   2.004  -0.278 -0.3711 -0.1056 -0.6147
  751MOL0     H99069   8.033   1.968  -0.066  2.0345 -0.5929 -1.3213
  751MOL0     H99070   8.129   1.864   0.035  1.1801 -2.1937 -0.4859
  751MOL0     H99071   7.949   1.727  -0.003 -1.3431  1.4667  0.1364
  751MOL0     H99072   8.054   1.678  -0.135 -1.9265  0.1666 -2.4117
  751MOL0     H99073   7.924   1.830  -0.297 -1.6067  0.9165 -1.1247
  751MOL0     H99074   7.826   1.883  -0.149  2.9347  0.9498  2.4296
  751MOL0     H99075   7.833   1.604  -0.278  0.6108  0.0283  0.5558
  751MOL0     H99076   7.763   1.633  -0.119 -0.6659  0.9295  0.2565
  751MOL0     H99077   7.623   1.817  -0.222  0.5203  1.3874 -1.2152
  751MOL0     H99078   7.584   1.652  -0.250 -0.8210  2.3367  0.9165
  751MOL0     H99079   7.734   1.665  -0.469 -1.4809 -0.9832  1.8361
  751MOL0     H99080   7.759   1.835  -0.423  0.2854  0.9212 -1.8896
  751MOL0     H99081   7.513   1.690  -0.534  0.5632  1.4686 -0.9238
  751MOL0     H99082   7.497   1.850  -0.455 -3.2246 -2.4881 -0.1668
  751MOL0     H99083   7.637   1.773  -0.712  1.4023  2.4043 -1.3801
  751MOL0     H99084   7.678   1.922  -0.635 -1.6253  2.7656 -0.4018
  751MOL0     H99085   7.326   1.778  -0.661 -2.8124 -0.1863 -1.4502
  751MOL0     H99086   7.134   1.839  -0.905 -2.1751 -0.4822  0.7061
  751MOL0     H99087   7.112   2.020  -0.902 -0.3091  2.0806  2.4023
  751MOL0     H99088   7.072   1.990  -0.654 -1.5564  1.4353 -0.8481
  751MOL0     H99089   7.058   1.813  -0.681  0.9595 -0.8477 -2.2023
  751MOL0     H99090   6.835   1.966  -0.673 -1.2604 -0.8969  0.2865
  751MOL0     H99091   6.873   2.022  -0.827  0.7227 -0.9385 -0.9086
  751MOL0     H99092   6.842   1.724  -0.772 -2.2457 -0.5432  0.2785
  751MOL0     H99093   6.902   1.800  -0.924  0.8861 -0.8200  0.3278
  751MOL0     H99094   6.464   1.906  -0.930 -2.7051  3.8864  0.6338
  751MOL0     H99095   6.276   1.880  -0.769  0.2071  0.5168 -0.4817
  751MOL0     H99096   6.077   1.772  -0.347 -1.0593 -1.1745  1.8500
  751MOL0     H99097   5.831   1.783  -0.266  2.1160  1.9999 -1.2632
  751MOL0     H99098   5.578   1.522  -0.507  0.0802 -1.3360  0.4485
  751MOL0     H99099   5.430   1.625  -0.468  0.2432  1.4144  0.3650
  751MOL0     H99100   5.463   1.565  -0.228 -1.1512 -0.6368  0.9708
  751MOL0     H99101   5.615   1.478  -0.266  0.0838  0.7706  0.3303
  751MOL0     H99102   5.463   1.336  -0.432 -3.0028 -1.0628 -1.5807
  751MOL0     H99103   5.333   1.411  -0.340 -1.0069 -4.8666  2.1442
  751MOL0     H99104   5.418   1.186  -0.249 -1.2892  0.2593  2.0782
  751MOL0     H99105   5.559   1.255  -0.182 -0.7742 -4.1833 -1.2673
  751MOL0     H99106   5.455   1.389  -0.023  1.3211 -1.3311 -0.1796
  751MOL0     H99107   5.386   1.235  -0.025  3.3540  1.0492  2.6911
  751MOL0     H99108   5.195   1.335  -0.180  1.4042 -1.6898 -0.0461
  751MOL0     H99109   5.252   1.487  -0.127 -3.9309 -0.1620 -1.0370
  751MOL0     H99110   5.173   1.247   0.069  3.0559  0.2246 -1.2646
  751MOL0     H99111   5.238   1.409   0.119 -0.5638  0.3397  0.0122
  751MOL0     H99112   5.041   1.517   0.073  2.5429  0.8389  0.0919
  751MOL0     H99113   4.974   1.368   0.123 -0.0734 -1.4836 -0.9400
  751MOL0     H99114   5.704   1.628  -0.651 -0.5960 -0.0360 -0.0186
  751MOL0     H99115   5.915   1.658  -0.722  0.8479  1.3158 -0.2461
  751MOL0     H99116   6.501   1.602  -0.543  1.0537  2.2030  3.0635
  751MOL0     H99117   6.694   1.654  -0.666 -1.9736 -2.5298 -0.3138
  751MOL0     H99118   8.294   1.718   0.026 -1.9187 -0.2488 -2.5120
  751MOL0     H99119   8.518   1.679   0.069  1.2848  1.3419  0.8479
  751MOL0     H99120   8.886   1.988   0.058  1.8419  1.9033 -0.2707
  751MOL0     H99121   9.113   2.053   0.143 -4.2424  0.6444  1.8851
  751MOL0     H99122   9.368   1.734   0.335 -0.9656  1.3653  0.1050
  751MOL0     H99123   9.478   1.878   0.313 -0.7982  0.8131  0.2900
  751MOL0     H99124   9.412   1.665   0.108 -2.3525  0.6431  2.2882
  751MOL0     H99125   9.521   1.795   0.083 -1.2370 -1.8107 -1.7514
  751MOL0     H99126   9.663   1.726   0.272  0.0504 -0.2906 -0.1402
  751MOL0     H99127   9.653   1.618   0.135  0.9838  1.3496  0.0362
  751MOL0     H99128   9.649   1.489   0.346  0.2350 -0.9074 -1.9085
  751MOL0     H99129   9.505   1.574   0.400  0.3962 -0.7732  0.6850
  751MOL0     H99130   9.399   1.245   0.126  1.2781 -0.6590  0.6672
  751MOL0     H99131   9.225   1.640   0.181  1.0501  0.4967 -0.7745
  751MOL0     H99132   9.037   1.557   0.082  1.2744  0.0978 -1.1158
  752MOL0     O99133   3.393   3.723   6.357  0.9628 -0.7823  0.1553
  752MOL0     C99134   3.401   3.643   6.446  0.4492  0.6149 -0.5534
  752MOL0     O99135   3.302   3.608   6.543  0.4198 -0.5176 -0.0522
  752MOL0     C99136   3.180   3.676   6.533  0.0540 -0.2047  0.2318
  752MOL0     C99137   3.150   3.799   6.602 -0.3883 -0.6422 -1.4136
  752MOL0     C99138   3.024   3.851   6.591  0.0724 -0.1658  0.8964
  752MOL0     C99139   2.922   3.791   6.511  0.1261  0.1002 -0.4176
  752MOL0     O99140   2.800   3.854   6.516 -0.0606 -0.1271  0.7883
  752MOL0     C99141   2.712   3.805   6.410 -0.0366 -0.4651 -0.3101
  752MOL0     C99142   2.595   3.899   6.398 -0.1471 -0.6101 -0.9212
  752MOL0     C99143   2.488   3.842   6.300 -0.4645  0.5289  0.1645
  752MOL0     C99144   2.357   3.923   6.311 -0.7154  0.2789  0.1951
  752MOL0     C99145   2.239   3.846   6.250 -0.0698 -0.0376  0.4394
  752MOL0     C99146   2.123   3.943   6.259  0.8182 -0.1438  0.2398
  752MOL0     C99147   2.010   3.854   6.206  0.0272 -0.5105  0.2524
  752MOL0     C99148   1.892   3.936   6.158  0.4494  0.0631 -0.0334
  752MOL0     N99149   1.793   3.840   6.101  0.4036 -0.3368 -0.0851
  752MOL0     C99150   1.655   3.861   6.105  0.6070 -0.7090  0.0724
  752MOL0     C99151   1.606   3.787   6.005 -0.0178 -0.7786 -0.4694
  752MOL0     C99152   1.461   3.772   5.974  0.1907  0.0822  0.2202
  752MOL0     C99153   1.414   3.767   5.825 -0.1297  0.2980  0.0734
  752MOL0     C99154   1.268   3.707   5.822 -1.1049 -0.8071  0.2565
  752MOL0     C99155   1.168   3.777   5.911 -0.0061  0.5068  0.7711
  752MOL0     O99156   1.179   3.714   6.039 -0.0100 -0.1946 -0.0651
  752MOL0     C99157   1.065   3.704   6.122  1.0630 -0.8197  0.4504
  752MOL0     C99158   0.938   3.764   6.097  0.8210 -0.4457 -0.1131
  752MOL0     C99159   0.834   3.759   6.194 -0.3029 -0.2407  0.3260
  752MOL0     C99160   0.851   3.693   6.314 -0.6912 -0.2081 -0.2253
  752MOL0     C99161   0.735   3.664   6.400  0.2269  0.8309 -0.1397
  752MOL0     O99162   0.634   3.760   6.395  0.2286  0.2086  1.0964
  752MOL0     C99163   0.522   3.738   6.475 -0.7389 -0.5742  1.1422
  752MOL0     C99164   0.417   3.671   6.416 -0.0856  0.1382  0.5758
  752MOL0     C99165   0.289   3.650   6.473  0.5255 -0.3273 -0.3597
  752MOL0     C99166   0.271   3.706   6.603  0.2630  0.7013 -0.2142
  752MOL0     O99167   0.145   3.698   6.647 -0.0236  0.2924 -0.9760
  752MOL0     C99168   0.123   3.748   6.780 -0.0574 -0.0897 -0.0555
  752MOL0     C99169  -0.033   3.754   6.792 -0.6983  0.3826  0.4082
  752MOL0     C99170  -0.093   3.851   6.898 -0.1331 -0.2104  0.5930
  752MOL0     C99171  -0.243   3.844   6.904 -0.0579 -0.3567  0.0357
  752MOL0     C99172  -0.304   3.870   7.051  0.2560  0.5939 -0.5012
  752MOL0     C99173  -0.322   4.028   7.080 -0.3574 -0.1411  0.5233
  752MOL0     C99174  -0.388   4.050   7.214 -0.7168  0.4696 -0.1474
  752MOL0     C99175  -0.382   4.195   7.248  0.3121 -0.4694  0.8324
  752MOL0    Cl99176  -0.202   4.256   7.250  0.1249 -0.2608 -0.0551
  752MOL0     C99177   0.385   3.774   6.669  0.8050 -0.3780 -0.3103
  752MOL0     C99178   0.509   3.790   6.602 -0.6939  0.8659 -0.5131
  752MOL0     O99179   0.733   3.557   6.466 -0.9433 -0.1328 -0.3426
  752MOL0     C99180   0.974   3.633   6.340 -0.4883 -0.0960  0.3637
  752MOL0     C99181   1.077   3.645   6.249  0.6458 -0.4191  0.0528
  752MOL0     N99182   1.712   3.720   5.950  0.1052 -0.4459 -0.4306
  752MOL0     N99183   1.825   3.743   6.010  0.4662 -0.0525 -0.8387
  752MOL0     C99184   2.960   3.671   6.443  1.2995  0.3606  0.2675
  752MOL0     C99185   3.085   3.615   6.452  0.2556 -0.0841  0.3679
  752MOL0     C99186   3.537   3.581   6.474 -0.5542  0.2163  0.0899
  752MOL0     C99187   3.622   3.562   6.366 -0.4898 -0.3720  0.2057
  752MOL0     C99188   3.750   3.510   6.388 -0.6878  0.4154 -0.5490
  752MOL0     C99189   3.804   3.491   6.514  0.3012 -0.1201 -0.9936
  752MOL0     O99190   3.929   3.435   6.522  0.0924  0.3609 -0.6845
  752MOL0     C99191   4.029   3.495   6.441 -0.3950 -0.3115  0.6236
  752MOL0     C99192   4.162   3.469   6.505  1.0674 -0.3970 -0.3961
  752MOL0     C99193   4.177   3.557   6.632  0.4681 -0.5373 -1.1233
  752MOL0     C99194   4.325   3.586   6.659 -0.1858  0.2584  0.4716
  752MOL0     C99195   4.367   3.709   6.601 -0.6879  0.0993  0.6688
  752MOL0     C99196   4.409   3.817   6.579 -0.6469 -0.5636  0.0589
  752MOL0     C99197   3.717   3.499   6.624  0.7975 -0.2006  0.2395
  752MOL0     C99198   3.584   3.554   6.607  0.5690 -0.0680 -0.1730
  752MOL0     H99199   3.222   3.856   6.660 -0.9652 -0.2442 -1.0778
  752MOL0     H99200   2.998   3.941   6.645  2.2062  2.5753 -2.2293
  752MOL0     H99201   2.667   3.712   6.447 -2.9483  1.7527  2.1959
  752MOL0     H99202   2.764   3.787   6.315  2.1427  1.5340  0.4017
  752MOL0     H99203   2.627   4.001   6.375 -1.3673  0.0569  0.2437
  752MOL0     H99204   2.554   3.906   6.499 -0.1242  0.0341 -0.9495
  752MOL0     H99205   2.462   3.744   6.343 -1.5182  0.4888 -0.5190
  752MOL0     H99206   2.522   3.835   6.196  1.3045  4.8749  0.2630
  752MOL0     H99207   2.336   3.945   6.416 -4.3728 -0.7472 -0.1813
  752MOL0     H99208   2.357   4.021   6.262 -1.7481  1.6233  2.7172
  752MOL0     H99209   2.233   3.754   6.309  2.2804 -2.0846 -2.2584
  752MOL0     H99210   2.258   3.814   6.148  0.9525 -0.4745  0.7526
  752MOL0     H99211   2.143   4.034   6.202  4.0433  0.8300  2.6377
  752MOL0     H99212   2.108   3.957   6.366 -3.7140 -3.0182  0.2662
  752MOL0     H99213   2.050   3.795   6.123 -1.3348 -2.3501  0.8444
  752MOL0     H99214   1.986   3.791   6.292  2.9911 -0.8055  1.0053
  752MOL0     H99215   1.901   4.017   6.084 -2.9673  0.5446 -0.1198
  752MOL0     H99216   1.832   3.966   6.244  1.1908 -1.8583  1.2036
  752MOL0     H99217   1.606   3.932   6.171 -0.2934 -1.9342  0.7763
  752MOL0     H99218   1.414   3.859   6.021  2.1848  2.6569 -2.2156
  752MOL0     H99219   1.440   3.675   6.019  4.8459  0.0845  2.9421
  752MOL0     H99220   1.491   3.710   5.771  2.5778  2.6229  1.2184
  752MOL0     H99221   1.417   3.872   5.795  2.2954  0.2489 -0.1135
  752MOL0     H99222   1.236   3.710   5.717  1.8776 -1.0892 -0.7625
  752MOL0     H99223   1.262   3.599   5.838 -1.1640 -0.9925 -0.8952
  752MOL0     H99224   1.070   3.757   5.866  0.5881 -1.9270  0.4200
  752MOL0     H99225   1.177   3.885   5.926  0.2214  0.4246  1.2635
  752MOL0     H99226   0.917   3.807   6.000 -1.7281 -1.5685 -0.1324
  752MOL0     H99227   0.749   3.826   6.191 -2.1005 -2.4187 -1.7140
  752MOL0     H99228   0.426   3.649   6.310 -1.7608  0.8670  0.2539
  752MOL0     H99229   0.208   3.613   6.412 -2.6724 -0.1741  3.4326
  752MOL0     H99230   0.175   3.844   6.793 -2.0051  0.6719  3.3754
  752MOL0     H99231   0.171   3.692   6.861  3.4783  2.2694 -0.2887
  752MOL0     H99232  -0.064   3.652   6.816 -0.0097 -0.4052 -1.8592
  752MOL0     H99233  -0.076   3.773   6.694 -1.1337 -0.8181  0.3538
  752MOL0     H99234  -0.060   3.955   6.882  0.7351 -0.9668 -4.3614
  752MOL0     H99235  -0.058   3.818   6.996  2.0489  1.2406  0.3829
  752MOL0     H99236  -0.291   3.915   6.837 -0.7433 -0.7696  0.0676
  752MOL0     H99237  -0.274   3.743   6.874 -0.6100 -0.8377  2.0212
  752MOL0     H99238  -0.234   3.830   7.125  1.3826  0.2740 -1.7069
  752MOL0     H99239  -0.405   3.830   7.063  1.3530 -1.5554  3.3714
  752MOL0     H99240  -0.390   4.061   7.002  1.1290  1.2234 -0.2610
  752MOL0     H99241  -0.237   4.094   7.058 -2.0635  1.3755 -1.9198
  752MOL0     H99242  -0.493   4.021   7.227 -0.4936  0.2870  1.4684
  752MOL0     H99243  -0.334   3.991   7.288  2.6557  0.8754 -2.0703
  752MOL0     H99244  -0.438   4.228   7.335 -2.2513  0.0126 -0.9060
  752MOL0     H99245  -0.434   4.254   7.172  0.5940  0.7551  1.5688
  752MOL0     H99246   0.372   3.815   6.768  0.6657  0.6818 -0.7586
  752MOL0     H99247   0.596   3.824   6.656 -1.2617  0.7480  0.5084
  752MOL0     H99248   0.987   3.569   6.427 -1.1487 -0.3866  0.2599
  752MOL0     H99249   1.166   3.584   6.263 -0.7775 -2.5689  0.3149
  752MOL0     H99250   2.897   3.626   6.367  1.2279  3.2279 -1.5083
  752MOL0     H99251   3.123   3.531   6.395  1.3645  0.8014 -0.2176
  752MOL0     H99252   3.581   3.589   6.270 -2.1829  2.3828  1.5968
  752MOL0     H99253   3.822   3.512   6.306 -1.1862 -0.0365 -1.0066
  752MOL0     H99254   4.010   3.601   6.421  0.5946 -0.7315 -3.6040
  752MOL0     H99255   4.022   3.451   6.341 -1.7775  0.9247  0.1364
  752MOL0     H99256   4.172   3.368   6.544  5.1341  0.4096  1.2147
  752MOL0     H99257   4.243   3.480   6.432  0.6907  2.4696 -0.5297
  752MOL0     H99258   4.119   3.527   6.720  0.1062  0.2252 -1.0966
  752MOL0     H99259   4.135   3.656   6.612  0.2744 -0.6890 -1.4770
  752MOL0     H99260   4.355   3.587   6.764  4.2711 -3.2268 -0.4394
  752MOL0     H99261   4.378   3.501   6.614 -2.0673 -0.3113 -0.8097
  752MOL0     H99262   4.449   3.913   6.555 -3.6714  0.4038 -1.6237
  752MOL0     H99263   3.763   3.473   6.719 -0.7745 -0.9839  0.8243
  752MOL0     H99264   3.523   3.581   6.692 -2.4320 -0.6478 -1.9914
  753MOL0     O99265   2.242  11.181   0.482 -0.1690 -0.2656 -0.4461
  753MOL0     C99266   2.253  11.264   0.577  0.5598  0.5218  0.0971
  753MOL0     O99267   2.186  11.380   0.580  0.6222 -0.1479 -0.3763
  753MOL0     C99268   2.051  11.386   0.546 -0.2525 -0.4067 -0.6109
  753MOL0     C99269   1.956  11.435   0.646  0.5170  0.0682  0.1849
  753MOL0     C99270   1.828  11.460   0.606  0.1746  0.1896  0.6328
  753MOL0     C99271   1.783  11.447   0.471  0.4691  0.9584  0.7045
  753MOL0     O99272   1.662  11.491   0.433  0.4114  0.1043 -0.0613
  753MOL0     C99273   1.601  11.414   0.323  0.2570 -0.1107 -0.4903
  753MOL0     C99274   1.445  11.446   0.333  0.7927 -0.5178 -0.6684
  753MOL0     C99275   1.375  11.377   0.218  0.8266  0.3120  0.1859
  753MOL0     C99276   1.222  11.407   0.203 -0.1352 -0.1313 -0.2382
  753MOL0     C99277   1.137  11.281   0.171  0.3786  0.3160  0.1657
  753MOL0     C99278   1.002  11.329   0.149  0.0980  0.7619  0.7121
  753MOL0     C99279   0.916  11.203   0.143  0.3823  0.3960 -0.0558
  753MOL0     C99280   0.770  11.252   0.142  0.2395  0.2964 -0.7643
  753MOL0     N99281   0.667  11.141   0.126 -0.5843 -0.0577  0.2726
  753MOL0     C99282   0.613  11.082   0.237 -0.2645  0.0156  0.5468
  753MOL0     C99283   0.578  10.964   0.189 -0.1300 -0.1150  0.0425
  753MOL0     C99284   0.491  10.857   0.262 -0.0052 -0.1342  0.5551
  753MOL0     C99285   0.406  10.797   0.148  0.0324  0.0145  0.4933
  753MOL0     C99286   0.294  10.707   0.205 -0.3795  0.1905 -0.5427
  753MOL0     C99287   0.158  10.715   0.134  0.3772 -0.0910  0.3539
  753MOL0     O99288   0.081  10.593   0.160  0.4916 -0.3668  0.7936
  753MOL0     C99289  -0.046  10.568   0.105 -0.2080 -0.5855  0.2732
  753MOL0     C99290  -0.138  10.672   0.068 -0.1194 -0.1992  0.0294
  753MOL0     C99291  -0.271  10.641   0.022 -0.3406 -0.1269 -0.7143
  753MOL0     C99292  -0.306  10.505   0.019  0.2993 -0.2594 -0.0365
  753MOL0     C99293  -0.446  10.477  -0.015  0.3865  0.1471  0.6885
  753MOL0     O99294  -0.465  10.343  -0.052  0.0145 -0.1883 -0.0264
  753MOL0     C99295  -0.582  10.281  -0.070 -0.1761  0.5760 -0.6269
  753MOL0     C99296  -0.576  10.168  -0.139 -0.1221 -0.6533 -0.1405
  753MOL0     C99297  -0.685  10.089  -0.166  0.7242  0.0571  0.3169
  753MOL0     C99298  -0.814  10.134  -0.127  0.2604  0.3833  0.1939
  753MOL0     O99299  -0.930  10.060  -0.135 -0.1323  0.1900  0.1160
  753MOL0     C99300  -0.923   9.940  -0.213  0.1358 -0.0776  0.4381
  753MOL0     C99301  -0.908   9.810  -0.141 -0.1229 -0.6794  0.0944
  753MOL0     C99302  -0.964   9.814   0.008 -0.0693  0.0639  0.6882
  753MOL0     C99303  -1.111   9.837   0.000 -0.2736  1.1570  0.0559
  753MOL0     C99304  -1.171   9.846   0.135  0.7983 -1.1006  0.1284
  753MOL0     C99305  -1.150   9.988   0.188 -0.1007 -0.5054  0.9268
  753MOL0     C99306  -1.206   9.989   0.336 -0.4951  0.2565 -0.3083
  753MOL0     C99307  -1.246  10.127   0.375  0.0611  0.5050 -0.3698
  753MOL0    Cl99308  -1.300  10.142   0.551  0.5538  0.1439  0.5539
  753MOL0     C99309  -0.828  10.244  -0.055  0.3849  0.1706  0.3720
  753MOL0     C99310  -0.706  10.314  -0.020  0.0030  0.7196  0.5791
  753MOL0     O99311  -0.526  10.570  -0.030 -0.0350  0.0785  0.1260
  753MOL0     C99312  -0.215  10.401   0.048 -0.7106  0.2899 -0.2576
  753MOL0     C99313  -0.088  10.437   0.098 -0.7096  0.6423  0.2652
  753MOL0     N99314   0.611  10.959   0.051  0.7902 -0.5798  0.0981
  753MOL0     N99315   0.677  11.066   0.017  0.4808 -0.4336  0.2747
  753MOL0     C99316   1.876  11.418   0.373  0.6026  0.0983 -0.3638
  753MOL0     C99317   2.008  11.380   0.413  0.3195  0.3479  0.8060
  753MOL0     C99318   2.356  11.241   0.684 -0.2138 -0.2083  0.2983
  753MOL0     C99319   2.439  11.120   0.675  0.2846 -0.4870 -0.8935
  753MOL0     C99320   2.551  11.114   0.758  0.5352 -0.7519 -0.4723
  753MOL0     C99321   2.586  11.229   0.842  0.9507  0.2830 -0.0022
  753MOL0     O99322   2.703  11.258   0.910  0.7132  0.1873 -0.7657
  753MOL0     C99323   2.818  11.256   0.823  0.2323  0.2393  1.6495
  753MOL0     C99324   2.909  11.388   0.853  1.3900 -0.1133 -0.9053
  753MOL0     C99325   3.049  11.366   0.799 -0.1957  0.2869 -0.9242
  753MOL0     C99326   3.145  11.473   0.833  0.7364 -0.1505  0.3325
  753MOL0     C99327   3.270  11.405   0.818 -0.2060 -0.1363  0.3064
  753MOL0     C99328   3.371  11.349   0.775  0.0541  0.9375  0.3029
  753MOL0     C99329   2.491  11.331   0.857  0.0651  0.3601  0.4439
  753MOL0     C99330   2.378  11.333   0.773  1.0571 -0.0208  0.9194
  753MOL0     H99331   1.979  11.464   0.748 -1.9817  3.2409  0.0289
  753MOL0     H99332   1.749  11.478   0.678 -0.0244 -2.0336  1.0515
  753MOL0     H99333   1.613  11.305   0.331  1.2060  0.0478  0.3766
  753MOL0     H99334   1.630  11.440   0.221  1.5967  1.4305  0.2478
  753MOL0     H99335   1.426  11.554   0.333  4.7974  0.3493  0.2438
  753MOL0     H99336   1.404  11.401   0.423  1.2117  1.1076  0.3785
  753MOL0     H99337   1.381  11.268   0.222  0.9872  0.2791 -0.7225
  753MOL0     H99338   1.429  11.411   0.130 -0.8566 -0.0072 -1.0157
  753MOL0     H99339   1.188  11.442   0.301  0.7846 -2.0785  0.8224
  753MOL0     H99340   1.201  11.488   0.132  0.1637 -0.4518 -0.6974
  753MOL0     H99341   1.147  11.213   0.256  0.3813 -1.1633 -0.9721
  753MOL0     H99342   1.176  11.230   0.083 -0.7460  0.4444 -0.4222
  753MOL0     H99343   0.980  11.365   0.049 -1.5655 -4.1798 -0.9692
  753MOL0     H99344   0.973  11.388   0.236  0.1870  0.6576  0.8135
  753MOL0     H99345   0.942  11.163   0.045 -0.0489  1.3211 -0.5585
  753MOL0     H99346   0.940  11.129   0.221  3.2298 -0.2440 -1.4261
  753MOL0     H99347   0.757  11.336   0.072  4.7197  2.8698  1.0856
  753MOL0     H99348   0.755  11.301   0.238  4.0485  2.6186 -1.1492
  753MOL0     H99349   0.589  11.125   0.334  2.6031  0.4535  1.1541
  753MOL0     H99350   0.425  10.919   0.323  0.0609  1.7819 -1.2269
  753MOL0     H99351   0.543  10.784   0.326  2.3715  0.7818 -0.2129
  753MOL0     H99352   0.463  10.737   0.077 -1.2687  2.2759 -2.6911
  753MOL0     H99353   0.359  10.876   0.089  3.5156  2.2019  0.3987
  753MOL0     H99354   0.337  10.607   0.209 -1.3803 -0.2295  0.2606
  753MOL0     H99355   0.275  10.735   0.310 -3.5682 -0.2691 -0.8867
  753MOL0     H99356   0.164  10.719   0.025 -0.3378 -0.0365  0.3128
  753MOL0     H99357   0.101  10.803   0.166 -0.0423 -0.2436  0.0286
  753MOL0     H99358  -0.107  10.776   0.075  1.0591 -0.6126  1.7590
  753MOL0     H99359  -0.340  10.722  -0.002 -1.2171  0.5340  3.3072
  753MOL0     H99360  -0.482  10.126  -0.171 -0.1749 -0.5024 -0.5010
  753MOL0     H99361  -0.666  10.000  -0.225  2.6096 -1.3516  2.8283
  753MOL0     H99362  -0.848   9.941  -0.293 -2.1834 -0.2493 -1.8961
  753MOL0     H99363  -1.016   9.935  -0.271  0.3938 -0.9377  0.0784
  753MOL0     H99364  -0.799   9.802  -0.134  0.1440 -1.0693 -3.1161
  753MOL0     H99365  -0.930   9.724  -0.205 -1.9133 -0.1165 -0.1045
  753MOL0     H99366  -0.920   9.889   0.074 -0.8713 -1.8491  3.6056
  753MOL0     H99367  -0.955   9.718   0.058 -1.0447  0.4090  1.5744
  753MOL0     H99368  -1.137   9.911  -0.076 -1.6720  0.5247 -0.1079
  753MOL0     H99369  -1.152   9.748  -0.048  1.7669  1.2657 -2.0979
  753MOL0     H99370  -1.135   9.772   0.207 -0.3337  0.5358  2.5233
  753MOL0     H99371  -1.278   9.835   0.116  0.4863 -0.9880  1.6848
  753MOL0     H99372  -1.206  10.052   0.119  0.9180 -1.5398 -0.9399
  753MOL0     H99373  -1.047  10.023   0.197  0.0815 -0.9948  0.7633
  753MOL0     H99374  -1.294   9.924   0.339 -1.8989  2.0643 -0.3069
  753MOL0     H99375  -1.128   9.951   0.402 -1.2463 -1.1509 -0.1939
  753MOL0     H99376  -1.334  10.171   0.327 -0.4737  0.9147  0.9346
  753MOL0     H99377  -1.170  10.205   0.366  0.2264  0.6199  1.5263
  753MOL0     H99378  -0.926  10.284  -0.030  1.0759  0.3706  3.0670
  753MOL0     H99379  -0.716  10.410   0.030  1.2577  1.2192 -0.0959
  753MOL0     H99380  -0.241  10.295   0.041  2.7988 -0.6294 -1.1288
  753MOL0     H99381  -0.017  10.366   0.139  0.0343  0.1805 -1.7378
  753MOL0     H99382   1.843  11.418   0.270  1.2377  0.4544 -0.5692
  753MOL0     H99383   2.061  11.323   0.336 -1.1036  1.6067 -1.1966
  753MOL0     H99384   2.411  11.039   0.609 -1.6056 -0.7662  0.1686
  753MOL0     H99385   2.628  11.037   0.758  2.4397  1.0312  1.0079
  753MOL0     H99386   2.791  11.255   0.717  2.6371 -0.4470  0.9759
  753MOL0     H99387   2.871  11.164   0.847  1.8390  0.7002  0.0801
  753MOL0     H99388   2.860  11.461   0.788 -0.6879  1.1286  1.8567
  753MOL0     H99389   2.904  11.423   0.957 -0.6545  2.0560 -1.6605
  753MOL0     H99390   3.050  11.341   0.692  2.4016  0.9846 -1.1385
  753MOL0     H99391   3.081  11.270   0.840  1.0612 -1.0872 -4.6509
  753MOL0     H99392   3.131  11.553   0.761 -4.2060 -2.1243 -1.3015
  753MOL0     H99393   3.133  11.511   0.935  1.1121 -0.1421  0.3762
  753MOL0     H99394   3.469  11.313   0.750  0.3953  0.7506  1.7963
  753MOL0     H99395   2.508  11.403   0.936 -0.8338  0.2935  0.7103
  753MOL0     H99396   2.304  11.411   0.785  1.1299  0.7896 -2.7880
  754MOL0     O99397  10.212   6.290   1.412 -0.6324 -0.1993 -0.3828
  754MOL0     C99398  10.294   6.380   1.402 -0.8660 -0.0941 -0.9922
  754MOL0     O99399  10.264   6.511   1.384 -0.4542 -0.0501 -0.4929
  754MOL0     C99400  10.141   6.573   1.387  0.2259  0.3032  0.7319
  754MOL0     C99401  10.015   6.515   1.433  0.6430  0.0432  0.4427
  754MOL0     C99402   9.894   6.578   1.433 -0.1373  0.1874 -0.8604
  754MOL0     C99403   9.885   6.701   1.369 -0.6535 -0.0090 -0.2419
  754MOL0     O99404   9.768   6.768   1.368  0.4284  0.3701  0.7026
  754MOL0     C99405   9.670   6.763   1.479 -0.5483  0.0234 -0.2125
  754MOL0     C99406   9.574   6.877   1.468  1.7001 -0.0375  0.3836
  754MOL0     C99407   9.484   6.867   1.342 -0.4848  0.6266 -0.6348
  754MOL0     C99408   9.384   6.982   1.320  0.2177 -0.4060  0.5139
  754MOL0     C99409   9.347   6.995   1.169 -0.5048  0.1331 -0.1265
  754MOL0     C99410   9.201   7.059   1.159 -1.0931 -0.7270  0.2935
  754MOL0     C99411   9.157   7.076   1.014  0.8059 -0.5086 -0.0499
  754MOL0     C99412   9.010   7.047   0.988 -0.5800  0.5596 -0.2341
  754MOL0     N99413   8.941   7.155   1.050  0.0799 -0.8556 -0.6431
  754MOL0     C99414   8.899   7.275   0.994 -0.1630 -0.0074 -1.0113
  754MOL0     C99415   8.848   7.355   1.097  0.2302 -0.5297  0.4611
  754MOL0     C99416   8.800   7.497   1.099 -0.3143 -0.3849  0.3794
  754MOL0     C99417   8.652   7.505   1.120 -0.0799  0.7393 -0.4183
  754MOL0     C99418   8.586   7.647   1.112  0.0590 -0.6391 -0.1448
  754MOL0     C99419   8.433   7.625   1.138 -0.4209 -0.0340 -0.0890
  754MOL0     O99420   8.371   7.536   1.042  0.4495 -0.1674  0.3645
  754MOL0     C99421   8.237   7.501   1.068 -0.6527 -0.2573 -0.4622
  754MOL0     C99422   8.194   7.378   1.019  0.2237  0.2851 -0.0157
  754MOL0     C99423   8.068   7.314   1.060  0.3385 -0.6510 -0.6000
  754MOL0     C99424   7.977   7.379   1.146 -1.1232  0.1487 -0.4836
  754MOL0     C99425   7.862   7.316   1.208 -0.3178  0.1626 -0.3096
  754MOL0     O99426   7.805   7.222   1.128 -0.9270  0.4212 -0.5477
  754MOL0     C99427   7.699   7.146   1.171 -0.1913 -0.4974  0.6649
  754MOL0     C99428   7.684   7.088   1.300  0.1358  0.2383 -0.0237
  754MOL0     C99429   7.575   7.006   1.329 -0.2185 -0.7916  0.2541
  754MOL0     C99430   7.481   6.984   1.227  0.2283 -0.1757  0.5305
  754MOL0     O99431   7.367   6.918   1.270  0.6844  0.8764 -0.0373
  754MOL0     C99432   7.266   6.880   1.175  0.0047  0.7492 -0.4214
  754MOL0     C99433   7.160   6.811   1.258  0.5062  0.7919  0.1072
  754MOL0     C99434   7.045   6.751   1.178 -0.2448  0.0739 -0.5184
  754MOL0     C99435   6.972   6.859   1.097 -0.2551  1.4496 -0.2687
  754MOL0     C99436   6.823   6.814   1.048 -0.3082  0.4932  0.0804
  754MOL0     C99437   6.849   6.715   0.934  0.4562 -0.4533  0.1517
  754MOL0     C99438   6.717   6.674   0.863 -0.5121  0.1968  0.1163
  754MOL0     C99439   6.765   6.617   0.733  0.4385  0.5401 -0.0632
  754MOL0    Cl99440   6.621   6.538   0.646 -0.1049 -0.0147  0.1867
  754MOL0     C99441   7.493   7.040   1.101 -0.0498  1.4647  0.4611
  754MOL0     C99442   7.604   7.121   1.070  0.9726 -0.1392  1.0056
  754MOL0     O99443   7.827   7.349   1.324 -0.1453  0.0040  0.9307
  754MOL0     C99444   8.021   7.502   1.190 -0.1288 -0.4773 -0.3363
  754MOL0     C99445   8.150   7.564   1.154  0.7542  0.2096  0.3449
  754MOL0     N99446   8.861   7.285   1.216 -0.4442  0.1568  1.0852
  754MOL0     N99447   8.899   7.160   1.184 -0.4936  0.0637 -0.0325
  754MOL0     C99448  10.004   6.764   1.318  0.5603  0.2563  0.6261
  754MOL0     C99449  10.130   6.704   1.335  0.1016 -0.7479  0.4642
  754MOL0     C99450  10.440   6.341   1.404 -0.1351  0.3113  0.0223
  754MOL0     C99451  10.484   6.208   1.435 -1.3821 -0.4255 -0.2673
  754MOL0     C99452  10.620   6.189   1.465 -0.2820  1.1989  0.0903
  754MOL0     C99453  10.716   6.282   1.430 -0.5961 -0.2966  0.2029
  754MOL0     O99454  10.848   6.244   1.444 -0.6443 -0.2190  0.1822
  754MOL0     C99455  10.948   6.340   1.386  0.6079  0.0322  0.2642
  754MOL0     C99456  11.072   6.252   1.358 -0.6209  0.1857  0.6669
  754MOL0     C99457  11.040   6.157   1.252  0.4600 -0.1942  0.1623
  754MOL0     C99458  11.141   6.035   1.244 -0.0921  0.2221 -0.8781
  754MOL0     C99459  11.276   6.062   1.206 -0.7817 -0.6289 -0.4655
  754MOL0     C99460  11.392   6.099   1.179  0.2057  0.4350  0.6113
  754MOL0     C99461  10.668   6.412   1.401  0.1228  1.1551 -0.6441
  754MOL0     C99462  10.536   6.438   1.400  0.3876  0.3990 -0.5426
  754MOL0     H99463   9.997   6.421   1.486  0.3908  0.0184  0.3135
  754MOL0     H99464   9.803   6.538   1.479  0.9942  0.8158  2.1188
  754MOL0     H99465   9.720   6.777   1.575  0.2517  0.8629 -0.7374
  754MOL0     H99466   9.619   6.667   1.491  0.4012 -0.7469 -2.0024
  754MOL0     H99467   9.621   6.975   1.478 -2.3233  2.4752 -2.2986
  754MOL0     H99468   9.507   6.868   1.554  0.8889  0.7576 -0.1429
  754MOL0     H99469   9.442   6.769   1.364  2.0220 -0.6173 -1.0271
  754MOL0     H99470   9.554   6.863   1.258  1.4151 -1.4575  0.9275
  754MOL0     H99471   9.291   6.957   1.372 -1.4580  1.1586 -1.5562
  754MOL0     H99472   9.424   7.072   1.367  1.8778 -1.0574  0.4553
  754MOL0     H99473   9.353   6.900   1.115  0.3670  1.8965 -3.4155
  754MOL0     H99474   9.417   7.058   1.113  0.4988 -0.2268  0.7005
  754MOL0     H99475   9.199   7.152   1.216  0.0403 -0.8619  0.5740
  754MOL0     H99476   9.139   6.992   1.219 -0.6589  1.3307  3.2608
  754MOL0     H99477   9.183   7.176   0.978 -1.7414  0.3273  0.2632
  754MOL0     H99478   9.207   7.003   0.949  1.3557 -2.0864  2.0429
  754MOL0     H99479   8.973   6.949   1.021  0.9495 -1.0206 -2.8420
  754MOL0     H99480   8.984   7.041   0.882  0.5696  1.6403 -0.6077
  754MOL0     H99481   8.887   7.303   0.890  0.8765  1.9780 -0.6499
  754MOL0     H99482   8.833   7.554   1.012  0.7512  3.7923  3.2190
  754MOL0     H99483   8.852   7.543   1.184  0.7344 -2.0248  0.6638
  754MOL0     H99484   8.615   7.443   1.203  2.9293 -0.9333 -0.1645
  754MOL0     H99485   8.618   7.457   1.028  0.9566  2.9113 -2.0127
  754MOL0     H99486   8.629   7.714   1.187  2.4579 -0.0671 -1.9188
  754MOL0     H99487   8.603   7.692   1.013  1.4238 -1.3958 -0.2786
  754MOL0     H99488   8.393   7.727   1.133 -0.5520 -0.0073  1.1687
  754MOL0     H99489   8.417   7.585   1.238 -2.5747  1.4773  0.2447
  754MOL0     H99490   8.260   7.320   0.956  2.4762  1.4230  1.1927
  754MOL0     H99491   8.052   7.217   1.014  1.8626 -2.3847  2.1887
  754MOL0     H99492   7.743   7.127   1.382  0.3728  0.7458 -0.4294
  754MOL0     H99493   7.565   6.981   1.434  0.6238  0.3126  0.6125
  754MOL0     H99494   7.304   6.809   1.101 -0.4924 -0.3876  0.3835
  754MOL0     H99495   7.223   6.970   1.129 -1.3013 -0.4041 -1.5855
  754MOL0     H99496   7.127   6.887   1.329  0.5827  1.8785 -0.9768
  754MOL0     H99497   7.203   6.727   1.314  0.5544  0.4661 -0.3999
  754MOL0     H99498   6.981   6.698   1.250 -2.1293  2.1339 -0.5829
  754MOL0     H99499   7.095   6.680   1.112  0.7281 -0.3811  0.6695
  754MOL0     H99500   6.950   6.937   1.171 -1.2561  0.5456  0.4272
  754MOL0     H99501   7.036   6.899   1.019 -0.4346  1.2665 -0.5121
  754MOL0     H99502   6.763   6.893   1.003  1.2701  0.4057 -2.3489
  754MOL0     H99503   6.761   6.773   1.128  0.0802  2.2738  1.3493
  754MOL0     H99504   6.896   6.632   0.988  2.2385  1.2065  1.2783
  754MOL0     H99505   6.921   6.761   0.866  0.3178  1.6910  1.3645
  754MOL0     H99506   6.669   6.594   0.921  1.1092 -0.5157  0.5437
  754MOL0     H99507   6.650   6.758   0.844  0.9289  0.7158 -3.2466
  754MOL0     H99508   6.843   6.544   0.756 -1.9001 -2.1396 -0.1517
  754MOL0     H99509   6.800   6.688   0.658  0.5397  1.1053  0.5124
  754MOL0     H99510   7.430   7.007   1.019 -0.4107  1.0638  0.8927
  754MOL0     H99511   7.615   7.152   0.967  3.1880  2.0125  1.7925
  754MOL0     H99512   7.963   7.566   1.257  2.7126  1.1491  0.7772
  754MOL0     H99513   8.175   7.655   1.209 -0.8045  1.0068 -0.2062
  754MOL0     H99514   9.986   6.855   1.262 -1.3319 -1.5584 -1.9526
  754MOL0     H99515  10.218   6.761   1.306 -0.8072 -0.1854 -1.3983
  754MOL0     H99516  10.413   6.126   1.444 -2.0370 -0.1363 -2.2504
  754MOL0     H99517  10.667   6.097   1.496 -1.3526  0.9329  1.0109
  754MOL0     H99518  10.972   6.425   1.450 -0.1309  0.5494 -0.1265
  754MOL0     H99519  10.924   6.388   1.290 -0.3719  3.2044  1.9468
  754MOL0     H99520  11.154   6.318   1.328 -2.0994  1.0569 -1.6978
  754MOL0     H99521  11.094   6.206   1.455 -0.1597  0.3562  0.6449
  754MOL0     H99522  11.046   6.218   1.162  0.0416  0.7107  0.7337
  754MOL0     H99523  10.939   6.119   1.269  1.0875 -1.3016  1.7270
  754MOL0     H99524  11.145   5.988   1.342 -1.7766 -1.6704 -1.6504
  754MOL0     H99525  11.088   5.960   1.185 -2.9138  0.7395  0.8402
  754MOL0     H99526  11.494   6.126   1.161  0.0111  1.1654  0.5886
  754MOL0     H99527  10.729   6.497   1.371  1.2156  0.7366  0.3022
  754MOL0     H99528  10.518   6.543   1.382  2.1756  0.6393 -1.1500
  755MOL0     O99529   6.368   3.465   9.532  0.6094 -0.0448 -0.9657
  755MOL0     C99530   6.404   3.356   9.580 -0.1214  0.2042  0.4082
  755MOL0     O99531   6.326   3.246   9.597 -0.0918 -0.5226 -0.0574
  755MOL0     C99532   6.190   3.238   9.582 -0.7286 -1.7699  0.4544
  755MOL0     C99533   6.110   3.345   9.566 -0.9322 -0.4991 -0.1742
  755MOL0     C99534   5.971   3.330   9.556 -0.0931 -0.4629  0.3215
  755MOL0     C99535   5.915   3.199   9.563 -0.8574 -0.3286  0.0104
  755MOL0     O99536   5.783   3.170   9.521 -0.6805 -0.0924 -1.2161
  755MOL0     C99537   5.714   3.073   9.610  0.3472 -0.3996 -0.5375
  755MOL0     C99538   5.557   3.094   9.602 -0.4198 -0.4152 -0.3998
  755MOL0     C99539   5.498   3.084   9.461  0.1310  0.6043  0.8667
  755MOL0     C99540   5.345   3.100   9.458 -1.6756  0.0703  0.1581
  755MOL0     C99541   5.284   3.104   9.322 -0.3165 -0.2367  0.1891
  755MOL0     C99542   5.135   3.118   9.311 -0.4819  0.2734 -0.4738
  755MOL0     C99543   5.061   3.239   9.376 -1.0499 -0.0805 -0.5262
  755MOL0     C99544   5.069   3.366   9.282  0.2512  0.1805 -0.1027
  755MOL0     N99545   5.017   3.484   9.351 -0.5735 -0.0493  0.3923
  755MOL0     C99546   5.091   3.541   9.451  0.9820  0.0710 -0.1656
  755MOL0     C99547   5.009   3.643   9.491 -0.0725  0.4828 -1.4979
  755MOL0     C99548   5.043   3.727   9.609 -0.3233  1.1986  0.0317
  755MOL0     C99549   4.900   3.756   9.676 -0.8804  0.8914  0.0620
  755MOL0     C99550   4.927   3.845   9.794  0.0283  0.3045  0.9456
  755MOL0     C99551   4.793   3.880   9.859 -0.1767 -1.0241 -0.7785
  755MOL0     O99552   4.741   3.981   9.771 -0.6976  0.1966  0.1613
  755MOL0     C99553   4.616   4.039   9.802  0.4306 -0.0716 -0.3910
  755MOL0     C99554   4.528   3.981   9.889  0.8503 -0.3834 -0.2887
  755MOL0     C99555   4.409   4.046   9.929 -0.5574  0.7106 -0.0359
  755MOL0     C99556   4.379   4.170   9.888  0.5723 -0.5011 -0.0773
  755MOL0     C99557   4.243   4.224   9.936 -0.3517 -0.0262 -0.2222
  755MOL0     O99558   4.168   4.143  10.023  0.4063  0.1597 -0.7031
  755MOL0     C99559   4.044   4.180  10.056 -0.3288 -0.0823  0.6234
  755MOL0     C99560   3.945   4.197   9.958 -0.0982 -0.2751  0.2843
  755MOL0     C99561   3.812   4.212   9.992  0.0605 -0.3280 -1.0429
  755MOL0     C99562   3.775   4.198  10.130  0.7298 -0.3199  0.0577
  755MOL0     O99563   3.655   4.199  10.196 -0.2392 -0.4278  0.6306
  755MOL0     C99564   3.559   4.285  10.134  0.5465 -0.3970 -0.9059
  755MOL0     C99565   3.423   4.293  10.216  0.5427  0.7665  0.8379
  755MOL0     C99566   3.382   4.160  10.286 -0.5408  0.9543  0.0638
  755MOL0     C99567   3.256   4.153  10.363 -0.2876 -0.5288  0.0757
  755MOL0     C99568   3.183   4.013  10.355  0.8652 -0.9272 -0.5126
  755MOL0     C99569   3.057   4.009  10.457 -0.6198 -0.2253  0.7306
  755MOL0     C99570   2.955   3.894  10.443  1.4813  0.8273  0.3070
  755MOL0     C99571   3.016   3.748  10.460  0.1228 -0.0710 -0.5290
  755MOL0    Cl99572   3.076   3.727  10.626  0.4888  0.6533 -0.0542
  755MOL0     C99573   3.873   4.166  10.218  0.0490  0.1163 -0.5014
  755MOL0     C99574   4.006   4.169  10.194  0.0062  1.4843  0.5730
  755MOL0     O99575   4.209   4.339   9.893 -0.1837  0.3148 -0.6330
  755MOL0     C99576   4.456   4.232   9.798  0.2206 -0.7414  0.5729
  755MOL0     C99577   4.577   4.171   9.757 -0.4576 -0.0562 -0.0364
  755MOL0     N99578   4.892   3.650   9.424  0.0101  0.2992 -0.7280
  755MOL0     N99579   4.901   3.553   9.338 -0.0495  0.1754 -0.0802
  755MOL0     C99580   6.013   3.093   9.562  0.1873  1.0409 -0.1165
  755MOL0     C99581   6.142   3.107   9.576 -0.3421  0.6507 -0.3977
  755MOL0     C99582   6.551   3.329   9.596 -0.3962 -0.0585 -0.5910
  755MOL0     C99583   6.603   3.197   9.602  0.1492  0.1144 -0.0840
  755MOL0     C99584   6.738   3.171   9.605  0.2874 -0.1260 -0.1676
  755MOL0     C99585   6.828   3.282   9.596  0.4494 -0.1311 -1.1461
  755MOL0     O99586   6.958   3.250   9.604 -0.0087  0.1295 -0.3287
  755MOL0     C99587   7.033   3.329   9.692  0.0081  0.2997 -0.4091
  755MOL0     C99588   7.136   3.419   9.641 -0.0476 -0.1333  0.4056
  755MOL0     C99589   7.256   3.330   9.593  0.1229 -0.2753  0.2485
  755MOL0     C99590   7.376   3.401   9.534  0.1399 -0.1713  0.2428
  755MOL0     C99591   7.489   3.302   9.516  1.1355  0.4391 -0.1002
  755MOL0     C99592   7.594   3.238   9.516 -0.7555 -0.5322 -1.1061
  755MOL0     C99593   6.779   3.410   9.599 -1.0228 -0.4002 -0.3796
  755MOL0     C99594   6.649   3.438   9.598  1.1793 -0.2471 -0.9193
  755MOL0     H99595   6.149   3.446   9.571  0.2332 -0.9752  0.6395
  755MOL0     H99596   5.907   3.411   9.523  2.6530  1.5702 -0.3947
  755MOL0     H99597   5.743   3.090   9.714  0.9425  3.4119 -1.1751
  755MOL0     H99598   5.729   2.976   9.561 -2.4342  0.6189 -3.8390
  755MOL0     H99599   5.529   3.193   9.638 -0.7570 -0.4911 -0.4512
  755MOL0     H99600   5.509   3.024   9.672 -2.9018  0.0214 -1.5527
  755MOL0     H99601   5.518   2.988   9.414  3.4818  1.6689 -0.1890
  755MOL0     H99602   5.541   3.166   9.402  0.6174 -0.9575 -1.0206
  755MOL0     H99603   5.303   3.014   9.511 -1.3353  0.6232  1.3519
  755MOL0     H99604   5.321   3.188   9.518  0.4239 -0.1363  1.4215
  755MOL0     H99605   5.308   3.016   9.262 -0.6738  0.4530 -0.9877
  755MOL0     H99606   5.329   3.189   9.271 -2.4266 -0.5604 -2.4395
  755MOL0     H99607   5.089   3.026   9.347 -2.4228  1.2861 -0.2561
  755MOL0     H99608   5.119   3.121   9.203 -0.8168 -2.5420 -0.5700
  755MOL0     H99609   4.955   3.214   9.388 -0.7647 -0.1522  2.8808
  755MOL0     H99610   5.113   3.265   9.469  0.8960  1.2828 -1.9017
  755MOL0     H99611   5.000   3.337   9.203  1.0550 -0.6568 -0.5106
  755MOL0     H99612   5.166   3.385   9.236  0.1803 -1.5143 -0.9933
  755MOL0     H99613   5.183   3.518   9.505  0.7466  1.7594  1.0087
  755MOL0     H99614   5.107   3.811   9.579  3.5057 -2.3531 -2.9136
  755MOL0     H99615   5.098   3.657   9.672 -1.6085 -0.8046 -0.9522
  755MOL0     H99616   4.865   3.664   9.722 -1.7221  0.0032 -2.1824
  755MOL0     H99617   4.819   3.789   9.610  1.0305 -1.0976 -3.6188
  755MOL0     H99618   4.978   3.784   9.869 -2.3315 -4.4032 -0.9060
  755MOL0     H99619   4.986   3.933   9.766 -1.9628  0.8725 -1.8296
  755MOL0     H99620   4.802   3.922   9.959  3.0988 -2.7275 -0.2485
  755MOL0     H99621   4.728   3.792   9.861 -1.7600  0.0995 -0.6079
  755MOL0     H99622   4.558   3.885   9.930  1.1190 -0.1992 -0.0526
  755MOL0     H99623   4.347   3.985   9.993  2.2819 -2.8570 -0.3632
  755MOL0     H99624   3.974   4.202   9.854  1.7347  3.0523  0.8097
  755MOL0     H99625   3.727   4.216   9.924 -0.5272  2.1290 -0.2786
  755MOL0     H99626   3.522   4.233  10.044 -0.8289 -1.9703  0.4938
  755MOL0     H99627   3.600   4.384  10.114  3.3508 -0.6769  2.4709
  755MOL0     H99628   3.349   4.330  10.144  0.5475 -0.4722  0.1640
  755MOL0     H99629   3.427   4.372  10.291 -3.4827  2.1118 -0.1276
  755MOL0     H99630   3.464   4.143  10.356  0.1048  1.2231 -0.6187
  755MOL0     H99631   3.378   4.084  10.207 -0.4711 -0.9833  1.8528
  755MOL0     H99632   3.278   4.168  10.469  1.3057 -0.1924 -0.2782
  755MOL0     H99633   3.181   4.225  10.330  0.7833 -0.0498 -1.4094
  755MOL0     H99634   3.257   3.940  10.387  3.1959  1.5967  0.3076
  755MOL0     H99635   3.152   3.994  10.252 -1.4421 -0.5486  0.0546
  755MOL0     H99636   3.003   4.102  10.437  0.8256  0.5774  0.4866
  755MOL0     H99637   3.101   4.005  10.557  0.9373 -0.3853  0.0697
  755MOL0     H99638   2.889   3.912  10.528  2.3850 -0.0569  1.2403
  755MOL0     H99639   2.905   3.900  10.346 -1.2233 -1.5075  1.4303
  755MOL0     H99640   3.098   3.718  10.394  0.6191 -0.0974  0.0878
  755MOL0     H99641   2.950   3.665  10.439 -0.2694  0.6224 -2.1478
  755MOL0     H99642   3.851   4.145  10.322  2.5042  0.4031  0.1257
  755MOL0     H99643   4.067   4.153  10.282 -0.0013  1.6282  0.6045
  755MOL0     H99644   4.418   4.331   9.777 -1.6355 -1.0513  2.1325
  755MOL0     H99645   4.647   4.201   9.679 -0.1972 -0.6134 -0.0223
  755MOL0     H99646   5.978   2.994   9.535 -2.0149  2.1672 -1.7667
  755MOL0     H99647   6.209   3.022   9.570  0.5308  1.4152 -3.7110
  755MOL0     H99648   6.540   3.108   9.603  2.0849 -1.3934 -2.1497
  755MOL0     H99649   6.776   3.071   9.623  3.1449  1.1141  1.2321
  755MOL0     H99650   7.076   3.259   9.764  1.1253  0.0415 -1.3001
  755MOL0     H99651   6.967   3.398   9.745  0.7276  0.2097  0.6439
  755MOL0     H99652   7.095   3.488   9.566 -0.2932  0.0263  0.6863
  755MOL0     H99653   7.169   3.478   9.726 -1.1628  1.3806 -0.1675
  755MOL0     H99654   7.230   3.240   9.536  4.1085 -2.6390  1.7594
  755MOL0     H99655   7.301   3.289   9.684  0.6500 -0.2769 -0.0099
  755MOL0     H99656   7.351   3.458   9.445  3.4595  2.1717  0.5927
  755MOL0     H99657   7.406   3.484   9.599 -0.6294  1.8499 -1.8822
  755MOL0     H99658   7.689   3.189   9.501 -1.7133 -1.6250 -4.8202
  755MOL0     H99659   6.838   3.501   9.595 -1.3368 -0.1169  0.8641
  755MOL0     H99660   6.622   3.543   9.607 -0.5211 -0.8322  2.1671
  756MOL0     O99661   3.972   0.961   2.837 -0.1666  0.4877  0.0667
  756MOL0     C99662   3.947   0.841   2.837  0.0570  0.3890  0.3715
  756MOL0     O99663   3.817   0.787   2.853 -0.0467 -0.1911  1.5593
  756MOL0     C99664   3.713   0.866   2.899 -0.6688  0.4602  0.3374
  756MOL0     C99665   3.680   0.890   3.031 -0.1278  0.1001 -0.0518
  756MOL0     C99666   3.570   0.975   3.071 -0.0744  0.1134 -0.1303
  756MOL0     C99667   3.508   1.052   2.970 -0.3257 -0.5560  0.3160
  756MOL0     O99668   3.419   1.148   2.998  0.3245  0.3674 -0.1701
  756MOL0     C99669   3.285   1.103   3.020  0.2606 -0.9982  0.3953
  756MOL0     C99670   3.183   1.214   3.042 -0.5742 -0.0731  0.3901
  756MOL0     C99671   3.039   1.140   3.065 -0.6276 -0.6227 -0.0392
  756MOL0     C99672   2.935   1.261   3.077  0.1024 -0.0788  0.8290
  756MOL0     C99673   2.793   1.213   3.095 -0.3575 -0.3304 -0.2824
  756MOL0     C99674   2.698   1.335   3.122  0.2485  0.2729 -0.7676
  756MOL0     C99675   2.564   1.294   3.183 -0.5165 -0.1535  1.1087
  756MOL0     C99676   2.458   1.396   3.146  0.3059 -0.3739  0.0584
  756MOL0     N99677   2.499   1.530   3.190  0.1870  0.0863 -0.0492
  756MOL0     C99678   2.530   1.628   3.099 -0.1237  0.5473 -0.4251
  756MOL0     C99679   2.513   1.745   3.166 -0.8678  0.2686 -0.9835
  756MOL0     C99680   2.536   1.880   3.104 -0.2194  0.6778  0.3772
  756MOL0     C99681   2.404   1.936   3.042  0.7614 -0.2828 -0.3737
  756MOL0     C99682   2.298   1.991   3.137 -0.4467  0.7274 -0.4540
  756MOL0     C99683   2.197   2.087   3.070 -0.4021 -0.3720 -0.6513
  756MOL0     O99684   2.125   2.014   2.974 -0.1322  0.4313  0.4151
  756MOL0     C99685   1.984   2.009   2.977  0.6503  0.6433  0.1101
  756MOL0     C99686   1.926   1.890   2.928  0.2150 -0.1813 -0.6312
  756MOL0     C99687   1.786   1.890   2.924 -0.2475 -0.3712 -0.0784
  756MOL0     C99688   1.701   2.003   2.950  0.6568 -0.0507 -0.0988
  756MOL0     C99689   1.558   2.003   2.953 -0.4143 -0.0311 -0.9221
  756MOL0     O99690   1.483   2.122   2.961 -1.0205  0.5483 -0.1020
  756MOL0     C99691   1.347   2.106   2.963 -0.4483  0.1004  0.1645
  756MOL0     C99692   1.276   2.080   2.844 -0.0923 -0.5024  0.4483
  756MOL0     C99693   1.136   2.067   2.840  0.3871  0.0569  0.0990
  756MOL0     C99694   1.073   2.078   2.964 -0.0949 -0.4343 -0.0795
  756MOL0     O99695   0.946   2.070   2.953  0.4875  0.4291 -0.2750
  756MOL0     C99696   0.903   1.948   3.017 -0.1855  0.3288 -0.7360
  756MOL0     C99697   0.769   1.910   2.955 -0.4105 -0.0042 -0.3604
  756MOL0     C99698   0.664   2.011   3.014 -0.2648  0.2567  1.2165
  756MOL0     C99699   0.516   1.973   2.990 -0.3174  0.4720 -0.3485
  756MOL0     C99700   0.472   1.847   3.067 -0.3554 -1.0899  0.6250
  756MOL0     C99701   0.340   1.810   3.008  0.1271  0.0311  0.2307
  756MOL0     C99702   0.281   1.694   3.079  1.1285 -0.4762  0.1266
  756MOL0     C99703   0.136   1.665   3.035 -0.9039 -0.0517  0.3666
  756MOL0    Cl99704   0.032   1.810   3.055  0.0780 -0.2098 -0.9482
  756MOL0     C99705   1.138   2.107   3.085 -0.8071 -0.4895  0.1621
  756MOL0     C99706   1.276   2.132   3.076 -0.2039 -0.3848  0.4944
  756MOL0     O99707   1.504   1.891   2.940  0.3520 -0.2544  0.1117
  756MOL0     C99708   1.767   2.124   2.984 -0.4411  0.0337 -1.0476
  756MOL0     C99709   1.906   2.121   3.010  0.4630  0.7052  0.9440
  756MOL0     N99710   2.482   1.715   3.305 -0.0834 -0.1105 -0.4124
  756MOL0     N99711   2.470   1.585   3.313 -0.2112  0.4928 -0.1950
  756MOL0     C99712   3.538   1.029   2.834  0.6812 -0.5491  0.0762
  756MOL0     C99713   3.642   0.934   2.803 -0.0787 -0.7664 -0.2773
  756MOL0     C99714   4.060   0.754   2.793 -0.6353  0.2453 -0.1247
  756MOL0     C99715   4.183   0.802   2.743 -1.7154  0.0311 -0.0731
  756MOL0     C99716   4.286   0.714   2.698 -0.1515  0.2615  0.2203
  756MOL0     C99717   4.273   0.577   2.713 -0.2707 -0.0145  0.8904
  756MOL0     O99718   4.366   0.480   2.692 -0.1594  0.3351  0.2348
  756MOL0     C99719   4.504   0.510   2.671 -0.0482  0.1846 -0.1542
  756MOL0     C99720   4.577   0.440   2.562  0.5319 -0.2034  0.1389
  756MOL0     C99721   4.717   0.504   2.552 -0.0639  0.6317 -0.3473
  756MOL0     C99722   4.811   0.458   2.439 -0.3382 -0.0122  0.2007
  756MOL0     C99723   4.845   0.317   2.441 -0.0431 -0.8397 -0.1162
  756MOL0     C99724   4.874   0.194   2.438  0.3687 -0.0652  0.0098
  756MOL0     C99725   4.155   0.534   2.762  0.0877 -0.1636 -0.4931
  756MOL0     C99726   4.050   0.614   2.794 -0.9286 -0.5656 -1.4421
  756MOL0     H99727   3.739   0.855   3.115 -1.8543  1.2704  1.7459
  756MOL0     H99728   3.556   0.984   3.178  1.7191  1.2202  0.0736
  756MOL0     H99729   3.288   1.040   3.110 -1.5215 -3.6287 -1.2258
  756MOL0     H99730   3.255   1.039   2.937  0.3144  1.9915 -2.0860
  756MOL0     H99731   3.172   1.281   2.956 -2.4954  0.3903  0.9367
  756MOL0     H99732   3.208   1.269   3.133 -0.4497 -2.5268  1.9463
  756MOL0     H99733   3.043   1.089   3.162 -3.4360 -1.0437 -0.0644
  756MOL0     H99734   3.022   1.061   2.991 -0.6567  0.8368 -1.6380
  756MOL0     H99735   2.971   1.328   3.156  0.5433  0.7633 -0.0726
  756MOL0     H99736   2.929   1.324   2.988 -1.6974  0.8925  1.5842
  756MOL0     H99737   2.780   1.136   3.172  1.0558  0.5027  0.8242
  756MOL0     H99738   2.756   1.170   3.002 -2.0229  0.1219  0.1315
  756MOL0     H99739   2.678   1.387   3.029  1.5568 -1.4289 -2.0768
  756MOL0     H99740   2.740   1.404   3.196 -1.9572  0.7012  0.1375
  756MOL0     H99741   2.535   1.201   3.133  0.1549 -0.8117  1.9122
  756MOL0     H99742   2.568   1.277   3.291  1.0366 -3.9641  0.5915
  756MOL0     H99743   2.376   1.374   3.215  2.3093  0.1391  2.7822
  756MOL0     H99744   2.432   1.388   3.041 -0.6073 -2.3825  0.4069
  756MOL0     H99745   2.564   1.610   2.997 -0.3190 -0.9065 -0.2547
  756MOL0     H99746   2.598   1.849   3.020  1.3145 -0.3050  1.8060
  756MOL0     H99747   2.571   1.945   3.186  0.8536 -2.4164  2.5576
  756MOL0     H99748   2.348   1.867   2.978  2.4677 -1.2612 -0.8618
  756MOL0     H99749   2.429   2.022   2.978 -1.9722 -0.4278 -1.8129
  756MOL0     H99750   2.237   1.908   3.175  0.0803  0.2139 -0.7075
  756MOL0     H99751   2.337   2.036   3.228 -2.9116  0.8692  0.6010
  756MOL0     H99752   2.237   2.175   3.020 -0.3282  0.0828  0.1972
  756MOL0     H99753   2.146   2.109   3.164  0.9919 -3.2175  0.9063
  756MOL0     H99754   1.980   1.797   2.912 -1.8911 -2.3902  3.3966
  756MOL0     H99755   1.732   1.802   2.892 -0.3928 -0.6207  0.8106
  756MOL0     H99756   1.352   2.066   2.767  0.5817  1.5432  0.6931
  756MOL0     H99757   1.068   2.056   2.756 -2.0014  1.6993  1.6797
  756MOL0     H99758   0.891   1.959   3.125 -0.6210 -0.5705 -0.6863
  756MOL0     H99759   0.970   1.865   2.990  1.6883  0.0131  4.0016
  756MOL0     H99760   0.743   1.806   2.975 -0.2610 -0.3400 -1.8368
  756MOL0     H99761   0.773   1.928   2.848 -0.5214  0.1479 -0.3391
  756MOL0     H99762   0.694   2.108   2.973  3.6499 -0.3211  2.3348
  756MOL0     H99763   0.669   2.011   3.123 -1.9729  0.4405  1.3284
  756MOL0     H99764   0.466   2.064   3.024  2.1618  1.1271  1.8961
  756MOL0     H99765   0.496   1.947   2.886 -5.1160 -1.7455  0.8395
  756MOL0     H99766   0.447   1.859   3.173 -2.3176 -2.5117  0.3888
  756MOL0     H99767   0.544   1.768   3.045  0.9109  0.7082 -2.2716
  756MOL0     H99768   0.355   1.773   2.907  2.1409  0.5136  0.3189
  756MOL0     H99769   0.274   1.898   3.004  2.6633  2.1070  1.1044
  756MOL0     H99770   0.345   1.608   3.057  2.5127  0.8744 -1.3480
  756MOL0     H99771   0.271   1.707   3.187 -2.5900 -0.9073 -0.0618
  756MOL0     H99772   0.102   1.578   3.092  0.3333 -1.5593 -1.1160
  756MOL0     H99773   0.142   1.633   2.931  0.7373  0.8196  0.1636
  756MOL0     H99774   1.087   2.124   3.179 -1.0945 -0.6424  0.0335
  756MOL0     H99775   1.336   2.143   3.166  2.0986  1.3755 -1.1440
  756MOL0     H99776   1.716   2.211   3.025  3.1622  0.1617  4.1028
  756MOL0     H99777   1.959   2.211   3.040  0.5120  1.1942 -0.5300
  756MOL0     H99778   3.475   1.080   2.762  0.6430 -2.9162 -1.6774
  756MOL0     H99779   3.645   0.897   2.701  1.0197 -2.0059  0.1811
  756MOL0     H99780   4.215   0.905   2.734  1.5091 -1.0513 -2.9714
  756MOL0     H99781   4.378   0.763   2.666  1.2393 -2.3758 -0.0682
  756MOL0     H99782   4.562   0.484   2.760  1.2018  0.4442 -0.8711
  756MOL0     H99783   4.512   0.616   2.646 -1.1155  0.0574 -1.1095
  756MOL0     H99784   4.587   0.332   2.572 -0.5924 -0.7660 -3.4428
  756MOL0     H99785   4.531   0.445   2.463  1.5235 -0.5478 -0.3531
  756MOL0     H99786   4.765   0.470   2.645 -1.3859  1.2772  0.6002
  756MOL0     H99787   4.707   0.613   2.554  2.0305  1.1175 -4.6249
  756MOL0     H99788   4.765   0.466   2.340 -4.0496  3.4799  1.9069
  756MOL0     H99789   4.900   0.522   2.444  1.4170 -2.3999  1.2602
  756MOL0     H99790   4.888   0.090   2.418  2.2544  0.7955 -4.4546
  756MOL0     H99791   4.141   0.428   2.781  0.6018 -0.2437 -0.5484
  756MOL0     H99792   3.956   0.576   2.833 -0.6428 -1.2870 -1.4453
  757MOL0     O99793  10.524   4.325   2.895 -0.3129  0.4419  0.6275
  757MOL0     C99794  10.545   4.342   3.018 -0.1451 -0.1033 -0.2134
  757MOL0     O99795  10.465   4.295   3.123  0.3681  0.2555  1.0283
  757MOL0     C99796  10.347   4.224   3.100 -0.3688  0.4426 -0.8810
  757MOL0     C99797  10.319   4.118   3.189 -0.6302 -0.5682 -0.6826
  757MOL0     C99798  10.207   4.040   3.182 -0.3135 -0.3545 -0.9073
  757MOL0     C99799  10.116   4.064   3.078  0.0962  0.6214  0.1807
  757MOL0     O99800   9.996   4.004   3.054  0.3260 -0.0669 -0.4123
  757MOL0     C99801   9.965   3.881   3.115 -0.1096  0.3855  0.8835
  757MOL0     C99802   9.858   3.801   3.036  0.1079 -0.2299 -0.1759
  757MOL0     C99803   9.774   3.693   3.114 -0.7869 -0.1638  0.4297
  757MOL0     C99804   9.749   3.736   3.258  0.9002  1.5687 -0.0887
  757MOL0     C99805   9.638   3.660   3.328  0.3635 -0.1107 -1.0560
  757MOL0     C99806   9.502   3.667   3.268 -0.1734 -0.8598 -0.5419
  757MOL0     C99807   9.385   3.607   3.344 -0.3593 -0.7251  0.0499
  757MOL0     C99808   9.252   3.599   3.265 -0.0047 -0.1610  0.7765
  757MOL0     N99809   9.152   3.613   3.364  0.2925 -0.4930 -0.6512
  757MOL0     C99810   9.111   3.520   3.458  0.6572 -0.1414 -0.6462
  757MOL0     C99811   9.027   3.586   3.542  0.2863  0.2898  0.3766
  757MOL0     C99812   8.961   3.536   3.669  0.0185  0.3084  1.0022
  757MOL0     C99813   8.871   3.411   3.649  1.3693  0.3473  0.9732
  757MOL0     C99814   8.738   3.464   3.595  1.0738 -0.3440  0.5415
  757MOL0     C99815   8.619   3.362   3.610  0.9255  0.6073 -0.6510
  757MOL0     O99816   8.497   3.438   3.599  0.6113  0.0098  0.0953
  757MOL0     C99817   8.386   3.389   3.658 -0.0882  0.2538 -0.3547
  757MOL0     C99818   8.368   3.250   3.690  0.3561 -0.1277  0.4426
  757MOL0     C99819   8.249   3.205   3.746  0.2603 -0.2641 -0.2981
  757MOL0     C99820   8.147   3.301   3.785 -1.5338 -0.2640  0.1175
  757MOL0     C99821   8.021   3.240   3.809 -1.2348  0.0110 -0.1312
  757MOL0     O99822   7.911   3.303   3.759  0.6019  0.5063  0.0210
  757MOL0     C99823   7.791   3.261   3.821  0.4059 -2.2287  0.2752
  757MOL0     C99824   7.730   3.145   3.797 -0.5888  1.2551  0.1136
  757MOL0     C99825   7.610   3.107   3.867  0.6711 -0.6117  0.5255
  757MOL0     C99826   7.557   3.196   3.964 -0.0371 -0.5551 -0.8070
  757MOL0     O99827   7.439   3.161   4.030 -0.1645 -0.0315 -0.5182
  757MOL0     C99828   7.398   3.232   4.146  0.1965 -0.1379  0.5963
  757MOL0     C99829   7.478   3.190   4.272 -0.6065 -0.4574  0.0031
  757MOL0     C99830   7.433   3.294   4.384  0.5680  0.5424 -0.7648
  757MOL0     C99831   7.474   3.252   4.520  0.1532 -0.3700 -0.7569
  757MOL0     C99832   7.392   3.317   4.625  0.0375 -0.0675  0.0964
  757MOL0     C99833   7.400   3.246   4.762 -0.0702 -0.9842 -1.0129
  757MOL0     C99834   7.534   3.262   4.837  0.9421 -0.8887  0.0571
  757MOL0     C99835   7.525   3.286   4.985 -0.5373  0.1434  0.3232
  757MOL0    Cl99836   7.445   3.148   5.066  0.1124  0.4554  0.2314
  757MOL0     C99837   7.612   3.326   3.985  1.1638 -0.0500 -0.5584
  757MOL0     C99838   7.728   3.356   3.909  0.6455  0.0562 -0.0882
  757MOL0     O99839   8.020   3.126   3.859 -0.0946 -1.6951 -0.5146
  757MOL0     C99840   8.166   3.437   3.756 -0.0001  0.0721  1.0121
  757MOL0     C99841   8.285   3.481   3.683  0.8124 -0.4926 -0.0470
  757MOL0     N99842   9.005   3.710   3.495 -0.5127 -0.2277 -0.3128
  757MOL0     N99843   9.075   3.726   3.390  0.4728  0.0031  0.2865
  757MOL0     C99844  10.141   4.173   2.992  0.1394  0.3185  0.2479
  757MOL0     C99845  10.254   4.253   2.999  0.2152  0.5163  0.4393
  757MOL0     C99846  10.657   4.433   3.050 -0.3710  0.7389  0.3950
  757MOL0     C99847  10.726   4.519   2.952  0.5625  0.1167 -0.2854
  757MOL0     C99848  10.844   4.587   2.996 -0.7583 -0.4276  0.7814
  757MOL0     C99849  10.888   4.601   3.124 -0.8627 -0.2128 -0.5736
  757MOL0     O99850  10.995   4.683   3.138 -0.1491 -0.3909  0.2003
  757MOL0     C99851  11.028   4.745   3.263 -0.5534 -0.8269  0.1544
  757MOL0     C99852  10.947   4.869   3.287  0.6916  0.2250 -0.1396
  757MOL0     C99853  10.978   4.953   3.407  0.9649 -0.3763 -0.5732
  757MOL0     C99854  10.950   5.109   3.404  0.4636 -0.7768  0.9954
  757MOL0     C99855  10.814   5.130   3.346  0.2597 -0.1363  0.5537
  757MOL0     C99856  10.710   5.157   3.287 -0.1829  0.6781  0.0575
  757MOL0     C99857  10.822   4.528   3.219  0.2538 -1.0754  0.9037
  757MOL0     C99858  10.709   4.449   3.184  0.6235  0.0365  0.0611
  757MOL0     H99859  10.391   4.087   3.264 -0.4471 -2.3916 -1.5519
  757MOL0     H99860  10.181   3.960   3.251 -2.2986 -0.0341 -1.2234
  757MOL0     H99861   9.920   3.901   3.212 -1.1534  2.5751  0.0034
  757MOL0     H99862  10.051   3.815   3.134 -0.3843 -0.4414 -0.5839
  757MOL0     H99863   9.897   3.771   2.939 -1.3186  0.6444 -1.0540
  757MOL0     H99864   9.792   3.886   3.015  1.6496  1.2862  0.8510
  757MOL0     H99865   9.836   3.603   3.120  2.0420  1.7433  1.7709
  757MOL0     H99866   9.690   3.657   3.054 -0.7594 -1.8757  1.3449
  757MOL0     H99867   9.841   3.736   3.317  1.5405 -0.3003 -0.9995
  757MOL0     H99868   9.717   3.839   3.238  2.4098  1.5186 -3.6408
  757MOL0     H99869   9.630   3.703   3.429  0.2814  0.4464 -1.2932
  757MOL0     H99870   9.665   3.555   3.343 -4.1670 -1.0639  2.9451
  757MOL0     H99871   9.507   3.615   3.172 -0.8735 -1.4706 -0.2506
  757MOL0     H99872   9.479   3.773   3.253  2.4192 -0.1409  0.0972
  757MOL0     H99873   9.414   3.516   3.398  2.9305 -0.0569 -0.3985
  757MOL0     H99874   9.367   3.672   3.430  1.1128  1.4576 -1.2045
  757MOL0     H99875   9.233   3.504   3.213  1.6148 -0.5918  0.9047
  757MOL0     H99876   9.251   3.681   3.192  2.5546  0.5380  1.4126
  757MOL0     H99877   9.148   3.419   3.474 -1.6139 -0.6205  2.6134
  757MOL0     H99878   8.908   3.622   3.711 -1.5974  0.3025 -0.8798
  757MOL0     H99879   9.035   3.509   3.745 -0.9792 -1.4255  1.4189
  757MOL0     H99880   8.864   3.364   3.748 -1.7630 -1.3932  0.0550
  757MOL0     H99881   8.918   3.345   3.576  0.4873 -1.4536  1.9604
  757MOL0     H99882   8.706   3.553   3.650  0.1453 -1.1196  1.2894
  757MOL0     H99883   8.750   3.494   3.490 -2.8787 -1.7215 -0.4951
  757MOL0     H99884   8.620   3.308   3.705 -6.0877 -0.3720 -0.6406
  757MOL0     H99885   8.617   3.277   3.542  0.7966 -2.3404  2.7533
  757MOL0     H99886   8.431   3.165   3.665 -0.4427 -0.2023 -1.5366
  757MOL0     H99887   8.232   3.100   3.764  2.6679 -0.8576 -1.0971
  757MOL0     H99888   7.770   3.077   3.722  0.5900 -0.8593  2.4762
  757MOL0     H99889   7.560   3.013   3.848  1.5383 -0.9631 -0.0937
  757MOL0     H99890   7.292   3.217   4.167 -0.5955 -1.6502 -3.4844
  757MOL0     H99891   7.408   3.340   4.132  0.9416 -0.5670 -3.4254
  757MOL0     H99892   7.584   3.206   4.252 -0.0912  0.1682  2.8197
  757MOL0     H99893   7.452   3.089   4.303 -0.1310 -0.7988 -0.6851
  757MOL0     H99894   7.325   3.299   4.375  0.2691  1.4499  2.2590
  757MOL0     H99895   7.473   3.394   4.367 -2.5861  1.6767 -2.1084
  757MOL0     H99896   7.465   3.144   4.529  5.5111 -1.0628 -0.5035
  757MOL0     H99897   7.579   3.279   4.538  0.0011  1.9362 -2.7479
  757MOL0     H99898   7.287   3.316   4.596 -0.2351 -3.0418  0.8902
  757MOL0     H99899   7.411   3.425   4.630 -2.3777  0.3535  2.4256
  757MOL0     H99900   7.378   3.139   4.753 -1.6079 -0.9641  1.4225
  757MOL0     H99901   7.317   3.284   4.823 -0.1867 -1.7005 -0.7127
  757MOL0     H99902   7.599   3.177   4.814  1.2927 -0.7113  0.3675
  757MOL0     H99903   7.588   3.348   4.795 -2.7452  2.0131  0.8113
  757MOL0     H99904   7.459   3.372   4.997 -0.3094  0.5017 -0.8332
  757MOL0     H99905   7.628   3.308   5.015  0.7626 -0.4269 -3.1544
  757MOL0     H99906   7.577   3.404   4.052 -0.1082 -3.0629  2.5674
  757MOL0     H99907   7.778   3.452   3.916 -0.5791  0.9666 -2.5209
  757MOL0     H99908   8.090   3.512   3.771  0.5545  0.9530 -0.3936
  757MOL0     H99909   8.307   3.579   3.643  3.0241 -0.8157  0.2708
  757MOL0     H99910  10.071   4.189   2.911  0.0898  0.0241  0.2321
  757MOL0     H99911  10.287   4.327   2.927  1.6953 -3.0386 -2.9082
  757MOL0     H99912  10.697   4.523   2.848 -2.8456 -2.7479  0.3337
  757MOL0     H99913  10.905   4.631   2.918 -0.2471  0.7061  1.7949
  757MOL0     H99914  11.135   4.767   3.268 -0.3646 -1.7141  0.1012
  757MOL0     H99915  11.026   4.668   3.340  1.1338 -0.9906  0.0693
  757MOL0     H99916  10.949   4.934   3.198  1.7462 -0.4907 -0.6608
  757MOL0     H99917  10.849   4.824   3.298  1.0293 -0.2816  0.9176
  757MOL0     H99918  11.086   4.956   3.419  1.0039 -0.6439 -0.8470
  757MOL0     H99919  10.926   4.908   3.492 -2.9039  0.7361 -2.1008
  757MOL0     H99920  10.952   5.156   3.503  1.0013 -0.1372  0.6919
  757MOL0     H99921  11.024   5.158   3.340 -2.6025  2.3455 -0.4486
  757MOL0     H99922  10.629   5.185   3.224 -1.2474  3.5762  2.5121
  757MOL0     H99923  10.871   4.518   3.315  2.0832 -0.6208  0.0477
  757MOL0     H99924  10.665   4.385   3.260  1.8486  0.9277  1.5752
  758MOL0     O99925   6.269   1.806   2.394  0.2984 -0.4458  0.1749
  758MOL0     C99926   6.247   1.840   2.277 -0.4715 -0.6660 -0.1447
  758MOL0     O99927   6.181   1.954   2.245  0.0279 -0.0574  0.1536
  758MOL0     C99928   6.109   2.031   2.329  0.3848  0.1466  0.1655
  758MOL0     C99929   6.059   1.992   2.452 -0.4356 -0.4076 -0.8315
  758MOL0     C99930   5.991   2.084   2.535  0.3585  0.1619  0.1318
  758MOL0     C99931   5.967   2.214   2.489  0.3322  0.4373  0.4118
  758MOL0     O99932   5.905   2.310   2.570 -1.3936  0.2587 -0.2837
  758MOL0     C99933   5.976   2.432   2.590 -0.0994 -0.1273  0.0971
  758MOL0     C99934   5.979   2.468   2.734 -0.8470 -0.1263 -0.0382
  758MOL0     C99935   5.845   2.469   2.803 -0.2191 -0.2016 -0.5470
  758MOL0     C99936   5.778   2.602   2.810  0.8829  0.4434 -0.7231
  758MOL0     C99937   5.719   2.655   2.679 -0.8213 -0.0946  0.0373
  758MOL0     C99938   5.630   2.550   2.609  0.0404  0.0524 -0.5873
  758MOL0     C99939   5.565   2.604   2.485  0.7607 -0.6528 -0.4655
  758MOL0     C99940   5.449   2.686   2.519 -1.0599 -0.0985 -0.9610
  758MOL0     N99941   5.364   2.716   2.408  0.9106 -0.7028 -0.7024
  758MOL0     C99942   5.332   2.847   2.378  0.0079 -0.0531  0.0656
  758MOL0     C99943   5.207   2.838   2.321 -0.0567 -0.1203  0.0740
  758MOL0     C99944   5.130   2.956   2.266 -0.7498 -0.0783 -0.6450
  758MOL0     C99945   5.051   3.010   2.379  0.8915 -0.7120 -0.1536
  758MOL0     C99946   4.928   2.922   2.418 -0.0119 -0.5340 -0.0822
  758MOL0     C99947   4.828   3.012   2.481 -0.0640 -0.9557 -0.3966
  758MOL0     O99948   4.779   3.120   2.396  1.0051  0.0657 -0.0179
  758MOL0     C99949   4.661   3.092   2.332 -0.3757  0.9428 -0.4846
  758MOL0     C99950   4.577   3.199   2.287 -0.3138 -0.0632 -0.7226
  758MOL0     C99951   4.461   3.185   2.224  0.3342  0.3013 -0.5241
  758MOL0     C99952   4.411   3.054   2.181  0.0021  0.0687 -0.4236
  758MOL0     C99953   4.276   3.029   2.125  0.1101  0.1881  0.5353
  758MOL0     O99954   4.261   2.894   2.082 -0.3553 -0.1579 -0.3751
  758MOL0     C99955   4.142   2.876   2.014 -1.0899 -0.9652 -0.2609
  758MOL0     C99956   4.154   2.909   1.883 -1.3549  0.9179  0.2201
  758MOL0     C99957   4.046   2.910   1.797  0.2487 -0.1822  0.5114
  758MOL0     C99958   3.918   2.884   1.849 -0.2589 -1.4523 -0.1630
  758MOL0     O99959   3.802   2.890   1.774 -0.2461  0.2909 -0.6205
  758MOL0     C99960   3.765   3.013   1.721  0.1716 -0.3059 -0.2588
  758MOL0     C99961   3.623   3.016   1.665  0.5436 -0.2732  0.2469
  758MOL0     C99962   3.512   2.996   1.773  0.9685 -0.2623 -0.1719
  758MOL0     C99963   3.369   3.007   1.719 -0.1614 -0.0125  0.4230
  758MOL0     C99964   3.248   2.950   1.795 -0.6612  0.0883 -0.7181
  758MOL0     C99965   3.256   2.802   1.792 -0.3336 -0.3547  0.5663
  758MOL0     C99966   3.142   2.747   1.875 -0.0778  0.9632 -0.8391
  758MOL0     C99967   3.122   2.595   1.869  1.3404  0.2090  0.5320
  758MOL0    Cl99968   3.253   2.510   1.956  0.5570  0.4886  0.3808
  758MOL0     C99969   3.910   2.844   1.984  0.3224  0.3052  0.3298
  758MOL0     C99970   4.024   2.831   2.067 -0.4014  0.2878  0.5997
  758MOL0     O99971   4.197   3.130   2.119 -0.0500  0.8369  0.4542
  758MOL0     C99972   4.488   2.948   2.224  0.3330  0.1258 -0.1764
  758MOL0     C99973   4.617   2.965   2.284  0.2702 -0.0428 -1.0659
  758MOL0     N99974   5.181   2.701   2.305  0.9416  0.0620 -0.5229
  758MOL0     N99975   5.269   2.628   2.367 -0.7936 -0.8038  1.1123
  758MOL0     C99976   6.014   2.255   2.367 -0.7300  0.1858  0.8394
  758MOL0     C99977   6.088   2.160   2.284  0.9192  0.9690 -0.1310
  758MOL0     C99978   6.333   1.751   2.181  0.0455 -0.2431 -0.0022
  758MOL0     C99979   6.388   1.632   2.214  0.7502  0.6561 -0.0512
  758MOL0     C99980   6.488   1.574   2.132  0.1874 -0.1748  0.1781
  758MOL0     C99981   6.509   1.628   1.997  0.5627  0.0091 -0.2977
  758MOL0     O99982   6.595   1.565   1.897 -0.2427 -0.0802 -0.3593
  758MOL0     C99983   6.667   1.446   1.936 -0.1391  0.4957  0.0572
  758MOL0     C99984   6.781   1.488   2.030  0.5246 -0.1529  1.1066
  758MOL0     C99985   6.869   1.595   1.956  0.0878 -0.0758 -0.2004
  758MOL0     C99986   7.026   1.606   2.007 -0.5136 -0.2425 -0.1587
  758MOL0     C99987   7.116   1.508   1.948 -0.3742  0.3544 -0.3456
  758MOL0     C99988   7.178   1.413   1.900 -0.4865  0.0774  0.2726
  758MOL0     C99989   6.454   1.749   1.963 -0.7086 -0.6414 -0.0988
  758MOL0     C99990   6.370   1.809   2.057  0.1826  0.0598  0.0761
  758MOL0     H99991   6.073   1.889   2.482  1.9644  0.0618 -0.1100
  758MOL0     H99992   5.958   2.044   2.630 -0.2130  1.2730  0.4217
  758MOL0     H99993   5.926   2.519   2.546  0.3418 -0.0537 -0.2723
  758MOL0     H99994   6.079   2.438   2.552 -0.3579  1.8831 -0.4412
  758MOL0     H99995   6.032   2.561   2.758  0.6902 -1.2153  0.8753
  758MOL0     H99996   6.042   2.388   2.773 -1.4338 -0.8507 -0.5351
  758MOL0     H99997   5.869   2.430   2.903 -0.6125 -0.5495 -0.5864
  758MOL0     H99998   5.777   2.390   2.769 -1.9604  0.9608  0.0778
  758MOL0     H99999   5.688   2.591   2.871 -0.0110  4.1160 -1.1491
  758MOL0     H    0   5.838   2.675   2.864  0.0077 -0.4648  1.5787
  758MOL0     H    1   5.799   2.678   2.608 -2.2768  0.0454 -1.6644
  758MOL0     H    2   5.667   2.750   2.698 -0.5079 -0.2920  2.0504
  758MOL0     H    3   5.562   2.509   2.684  0.9891 -1.7778 -0.6742
  758MOL0     H    4   5.698   2.468   2.584  0.3847  0.0284  0.3685
  758MOL0     H    5   5.632   2.666   2.425 -0.3196  0.0095 -1.0222
  758MOL0     H    6   5.523   2.526   2.422 -0.2969 -0.3692 -0.1399
  758MOL0     H    7   5.486   2.779   2.563  2.8462 -1.8362 -0.2242
  758MOL0     H    8   5.393   2.636   2.599  0.9549 -0.5275  0.2387
  758MOL0     H    9   5.390   2.935   2.403 -1.9783  0.5145  3.3250
  758MOL0     H   10   5.066   2.933   2.181 -1.4377 -2.3807  0.4151
  758MOL0     H   11   5.205   3.026   2.229 -1.5726  0.1581 -1.9226
  758MOL0     H   12   5.027   3.113   2.352  0.6755 -0.6889  0.1108
  758MOL0     H   13   5.111   3.029   2.469  0.9667 -0.1111 -0.3255
  758MOL0     H   14   4.883   2.868   2.334 -0.7877  0.4631 -0.3208
  758MOL0     H   15   4.966   2.841   2.482  1.4984 -3.2075 -4.0160
  758MOL0     H   16   4.876   3.052   2.571 -0.6976 -0.2797 -0.3538
  758MOL0     H   17   4.741   2.959   2.521 -1.7526  3.1833  2.0971
  758MOL0     H   18   4.590   3.298   2.328 -0.2086 -1.8456  4.2411
  758MOL0     H   19   4.417   3.281   2.198  0.5194  0.7007  0.5611
  758MOL0     H   20   4.248   2.938   1.839 -2.4590  1.4965 -1.8827
  758MOL0     H   21   4.071   2.936   1.695  1.7853 -0.4875  0.7850
  758MOL0     H   22   3.834   3.043   1.642 -0.2950  3.7698  0.6503
  758MOL0     H   23   3.779   3.088   1.798  3.0324 -3.2698  2.3977
  758MOL0     H   24   3.618   2.938   1.589  0.7216  0.6680 -0.7503
  758MOL0     H   25   3.610   3.108   1.608  1.3658  0.3310  0.9980
  758MOL0     H   26   3.530   3.070   1.851  0.2980 -1.0343  0.7331
  758MOL0     H   27   3.523   2.904   1.831 -0.8331  0.8785  2.1628
  758MOL0     H   28   3.356   3.115   1.712  0.6537  0.1872  1.6885
  758MOL0     H   29   3.369   2.949   1.626 -3.4575  0.7219 -0.1632
  758MOL0     H   30   3.147   2.974   1.759 -0.9342  2.1647  1.2335
  758MOL0     H   31   3.248   2.991   1.896  1.2744  1.6837 -1.2916
  758MOL0     H   32   3.345   2.750   1.828  1.4705  0.8501 -1.8772
  758MOL0     H   33   3.245   2.780   1.686 -1.3036  3.2354 -0.2032
  758MOL0     H   34   3.164   2.780   1.977 -1.6932  0.0178 -0.1480
  758MOL0     H   35   3.050   2.798   1.843  0.3913  1.5133 -1.3531
  758MOL0     H   36   3.122   2.574   1.762 -0.2891  0.4734  0.4655
  758MOL0     H   37   3.022   2.568   1.903  0.1816  1.0252 -1.9661
  758MOL0     H   38   3.808   2.833   2.020  0.4264  4.8228  2.6907
  758MOL0     H   39   4.029   2.793   2.169 -2.0395 -2.2696 -0.2073
  758MOL0     H   40   4.452   2.849   2.197 -1.9436  0.9333 -0.2720
  758MOL0     H   41   4.681   2.882   2.310  1.2195  1.8670  3.7889
  758MOL0     H   42   6.012   2.359   2.338 -0.6845 -0.1995 -0.6420
  758MOL0     H   43   6.125   2.190   2.187  2.9929 -1.4068 -0.1694
  758MOL0     H   44   6.352   1.582   2.303 -5.2374  0.3602 -2.1713
  758MOL0     H   45   6.542   1.484   2.160 -0.6551 -1.6041 -2.3637
  758MOL0     H   46   6.703   1.401   1.844 -3.9017  2.2091 -2.4959
  758MOL0     H   47   6.596   1.377   1.984 -0.4294  0.6658 -0.1225
  758MOL0     H   48   6.739   1.521   2.125  0.8096 -0.2898  1.2815
  758MOL0     H   49   6.841   1.400   2.055  0.8746  0.7165  3.5693
  758MOL0     H   50   6.816   1.691   1.957  2.5711  1.3726  0.4499
  758MOL0     H   51   6.884   1.573   1.850 -0.5281 -1.4479 -0.0275
  758MOL0     H   52   7.050   1.709   1.979 -3.9456  0.7919  0.2261
  758MOL0     H   53   7.023   1.583   2.114 -2.0007 -1.3819 -0.4053
  758MOL0     H   54   7.232   1.341   1.842 -2.4562  1.0016 -2.9775
  758MOL0     H   55   6.472   1.784   1.861  2.0990  2.7153  1.3349
  758MOL0     H   56   6.317   1.901   2.032  1.7160  0.9651  0.0125
  759MOL0     O   57   8.205   8.439   9.666  0.1713  0.4709  0.0190
  759MOL0     C   58   8.247   8.426   9.778  0.6390  0.3382 -0.6643
  759MOL0     O   59   8.173   8.390   9.889  0.2269 -1.0105 -0.0449
  759MOL0     C   60   8.038   8.372   9.892  0.7366  0.1453 -0.2657
  759MOL0     C   61   7.998   8.331  10.022  0.1455  0.1000  0.0332
  759MOL0     C   62   7.859   8.321  10.040  0.1735 -0.0436 -0.5445
  759MOL0     C   63   7.766   8.347   9.937 -0.5231  0.3576  0.6364
  759MOL0     O   64   7.628   8.342   9.942 -0.8716  0.0368 -0.8674
  759MOL0     C   65   7.580   8.233  10.021  0.7074  1.0039 -0.4166
  759MOL0     C   66   7.448   8.182   9.966 -0.1444  0.4367  0.4315
  759MOL0     C   67   7.329   8.199  10.064 -0.7077  1.2242  0.0165
  759MOL0     C   68   7.193   8.177  10.006  0.4812 -0.1341 -0.0771
  759MOL0     C   69   7.083   8.199  10.118 -0.3135 -0.5268  0.5810
  759MOL0     C   70   6.957   8.117  10.075 -0.5866 -0.6382  0.5041
  759MOL0     C   71   6.875   8.185   9.962 -0.1615  0.1544  0.4783
  759MOL0     C   72   6.738   8.116   9.945  0.9480 -0.9029 -0.1042
  759MOL0     N   73   6.734   7.975   9.904  0.1196  0.0059 -0.3514
  759MOL0     C   74   6.641   7.880   9.935 -0.0379  0.1805  0.4811
  759MOL0     C   75   6.653   7.773   9.853  0.5446  0.8915  0.4917
  759MOL0     C   76   6.562   7.658   9.840 -0.0446  0.6232  0.1674
  759MOL0     C   77   6.428   7.717   9.790 -0.1268 -0.1287  0.9746
  759MOL0     C   78   6.319   7.714   9.897  0.1283  0.5837  0.8424
  759MOL0     C   79   6.181   7.751   9.837  0.0573  0.2510  0.0413
  759MOL0     O   80   6.157   7.707   9.702  0.0386 -0.4316 -0.7872
  759MOL0     C   81   6.029   7.730   9.651 -0.8361  0.5070 -0.1049
  759MOL0     C   82   5.949   7.843   9.680  0.5667  0.0228  0.0183
  759MOL0     C   83   5.822   7.855   9.622 -0.3407  0.5469 -0.1101
  759MOL0     C   84   5.772   7.752   9.549  0.9502 -0.3323  0.3749
  759MOL0     C   85   5.636   7.758   9.488 -0.1574  0.4080  0.3070
  759MOL0     O   86   5.584   7.645   9.435 -0.0808 -0.5125  0.3644
  759MOL0     C   87   5.452   7.657   9.396  0.7434 -0.4594 -0.3654
  759MOL0     C   88   5.348   7.618   9.484  0.8021  0.1836  0.4567
  759MOL0     C   89   5.213   7.634   9.442  0.1844  0.0336 -0.3842
  759MOL0     C   90   5.179   7.673   9.316  0.4065 -0.8098 -0.2684
  759MOL0     O   91   5.049   7.680   9.267  0.2377 -0.4051 -0.2327
  759MOL0     C   92   5.006   7.812   9.231  0.2788 -0.6824  0.3828
  759MOL0     C   93   4.920   7.795   9.106  0.0876  0.5178 -0.3961
  759MOL0     C   94   4.775   7.774   9.150 -0.2497 -0.1890  0.7893
  759MOL0     C   95   4.680   7.741   9.032  0.8916 -0.7768  0.0033
  759MOL0     C   96   4.538   7.717   9.089 -0.0122  0.5690 -0.2090
  759MOL0     C   97   4.514   7.609   9.193 -0.2331 -0.9088  0.1446
  759MOL0     C   98   4.365   7.605   9.229 -0.4463 -0.5915  1.1139
  759MOL0     C   99   4.330   7.509   9.337 -0.4728  0.1769 -0.7396
  759MOL0    Cl  100   4.155   7.519   9.344 -0.2060 -0.5356 -0.5484
  759MOL0     C  101   5.285   7.708   9.231  0.1302 -0.3813 -0.2763
  759MOL0     C  102   5.419   7.699   9.262 -0.3972  0.3526  0.2499
  759MOL0     O  103   5.582   7.863   9.491  0.3549 -0.4149 -0.4319
  759MOL0     C  104   5.854   7.650   9.514 -0.6910  0.1302 -0.3086
  759MOL0     C  105   5.988   7.640   9.555  0.2041  0.0848 -0.4313
  759MOL0     N  106   6.760   7.801   9.778  0.2103  0.6765 -0.0350
  759MOL0     N  107   6.808   7.926   9.798 -0.2324 -0.0758  0.0476
  759MOL0     C  108   7.807   8.391   9.813 -1.2232 -0.1510  0.8159
  759MOL0     C  109   7.944   8.407   9.793 -0.1142  0.5466  0.9004
  759MOL0     C  110   8.393   8.429   9.800 -0.7940 -0.1533  0.5060
  759MOL0     C  111   8.449   8.405   9.929  0.9487  0.1195 -0.2822
  759MOL0     C  112   8.588   8.421   9.951  0.5113  0.2838  0.3098
  759MOL0     C  113   8.681   8.434   9.841 -0.2360 -1.0011  0.5363
  759MOL0     O  114   8.821   8.442   9.854  0.5382 -0.0440  0.3989
  759MOL0     C  115   8.882   8.469   9.983  0.1380  0.4011 -0.4436
  759MOL0     C  116   9.033   8.498   9.982 -0.2368 -0.0177  0.1415
  759MOL0     C  117   9.086   8.597   9.877  0.2091  0.5570  0.0350
  759MOL0     C  118   9.098   8.536   9.730  0.0155  0.1827 -0.9237
  759MOL0     C  119   9.229   8.476   9.719  0.6829  0.1918 -0.4250
  759MOL0     C  120   9.332   8.426   9.704  0.1758 -0.4143  0.7469
  759MOL0     C  121   8.625   8.454   9.717  0.1706 -0.1812 -0.4574
  759MOL0     C  122   8.484   8.455   9.691 -0.6469 -0.0985  0.4791
  759MOL0     H  123   8.067   8.333  10.106  1.2654  1.6647 -0.8592
  759MOL0     H  124   7.815   8.302  10.137 -1.2174  2.1650 -0.6864
  759MOL0     H  125   7.569   8.259  10.127  2.3654 -1.4873  0.4816
  759MOL0     H  126   7.641   8.142  10.024  1.1374  1.0286 -4.2766
  759MOL0     H  127   7.452   8.081   9.925 -2.6987  0.8505 -1.0108
  759MOL0     H  128   7.422   8.235   9.874  2.8050 -0.7092 -1.2143
  759MOL0     H  129   7.327   8.304  10.093  1.0002  1.2419  0.1905
  759MOL0     H  130   7.346   8.136  10.152  1.2125 -1.2641 -1.9929
  759MOL0     H  131   7.183   8.261   9.937 -1.3171 -1.0647 -1.0127
  759MOL0     H  132   7.180   8.089   9.942  1.3099  1.0930 -2.0186
  759MOL0     H  133   7.053   8.304  10.121  1.0189 -0.0211 -1.4790
  759MOL0     H  134   7.115   8.139  10.204  0.6292 -0.7748  0.0595
  759MOL0     H  135   6.891   8.118  10.162 -0.1116 -4.2655  1.0880
  759MOL0     H  136   6.983   8.011  10.063 -0.3717 -0.8221  2.2425
  759MOL0     H  137   6.849   8.290   9.974  0.1014  0.9025 -3.9640
  759MOL0     H  138   6.927   8.182   9.866 -0.6937  1.3295  0.1330
  759MOL0     H  139   6.691   8.176   9.866  0.9074 -0.6682  0.0971
  759MOL0     H  140   6.676   8.129  10.034 -1.0835  1.0673 -1.6475
  759MOL0     H  141   6.564   7.884  10.012 -1.7273 -0.9705 -1.0814
  759MOL0     H  142   6.561   7.600   9.933 -1.3516 -0.3485 -0.4169
  759MOL0     H  143   6.604   7.594   9.762 -0.7379 -2.4983  2.1984
  759MOL0     H  144   6.399   7.648   9.711  2.4690 -1.0928  0.7610
  759MOL0     H  145   6.434   7.817   9.746 -0.2082 -1.1733 -1.5337
  759MOL0     H  146   6.311   7.613   9.938 -2.7844  0.1237 -0.5913
  759MOL0     H  147   6.351   7.789   9.970  0.0122  0.1179  1.3776
  759MOL0     H  148   6.182   7.860   9.828 -0.3598  0.5622  2.8527
  759MOL0     H  149   6.104   7.708   9.901  0.1732  1.3301  0.9454
  759MOL0     H  150   5.979   7.927   9.743  0.7872  0.1838 -0.2980
  759MOL0     H  151   5.769   7.950   9.618 -0.0784  0.6746 -0.5488
  759MOL0     H  152   5.359   7.561   9.576 -3.3824 -0.1960  0.9283
  759MOL0     H  153   5.139   7.589   9.506  1.2062 -1.1394  0.0036
  759MOL0     H  154   5.080   7.886   9.198 -1.9231  1.2523 -0.4801
  759MOL0     H  155   4.955   7.866   9.311 -0.7469 -0.7174 -0.2275
  759MOL0     H  156   4.956   7.709   9.049 -0.9553  0.4774 -1.0112
  759MOL0     H  157   4.940   7.880   9.040  0.4635  0.4756 -0.3391
  759MOL0     H  158   4.726   7.855   9.206 -1.9217 -0.4775 -0.2112
  759MOL0     H  159   4.777   7.689   9.219 -1.0732 -0.7948  0.0729
  759MOL0     H  160   4.672   7.831   8.972 -0.4487 -0.9010 -0.0187
  759MOL0     H  161   4.707   7.655   8.969 -2.5228 -0.4171 -2.1973
  759MOL0     H  162   4.485   7.683   9.000 -0.8079 -0.9849  0.8161
  759MOL0     H  163   4.490   7.810   9.120 -2.5870 -0.4052 -0.9886
  759MOL0     H  164   4.565   7.628   9.288 -0.5181  2.0746 -0.1938
  759MOL0     H  165   4.538   7.507   9.160  0.7272 -0.9126  0.7991
  759MOL0     H  166   4.333   7.705   9.259 -0.6673  0.0855 -1.2142
  759MOL0     H  167   4.313   7.573   9.138  1.4095 -0.3574 -0.1038
  759MOL0     H  168   4.384   7.535   9.429 -2.2593  1.4099  0.0278
  759MOL0     H  169   4.373   7.411   9.317 -0.2572  0.7881 -3.6479
  759MOL0     H  170   5.264   7.757   9.136 -1.3596 -0.0105  0.2173
  759MOL0     H  171   5.499   7.710   9.190 -0.4816 -1.3785 -0.1446
  759MOL0     H  172   5.834   7.579   9.435 -2.7746  0.6278 -0.2844
  759MOL0     H  173   6.053   7.561   9.520 -0.4441 -1.4466  1.6388
  759MOL0     H  174   7.743   8.417   9.729  0.0388 -0.5331 -0.3239
  759MOL0     H  175   7.973   8.444   9.695  1.6202 -1.4541  0.5888
  759MOL0     H  176   8.376   8.382  10.006  0.7068  3.2267  0.5373
  759MOL0     H  177   8.629   8.403  10.049  0.7166  0.0411  0.1804
  759MOL0     H  178   8.872   8.370  10.027  0.3385 -0.2640 -1.8424
  759MOL0     H  179   8.827   8.549  10.034  1.5128  1.2271 -0.1921
  759MOL0     H  180   9.058   8.541  10.079 -2.3094  2.1688 -0.1991
  759MOL0     H  181   9.088   8.404   9.973  1.3027  0.7658  0.9677
  759MOL0     H  182   9.185   8.627   9.913  1.1844 -2.1734 -0.1491
  759MOL0     H  183   9.019   8.683   9.871 -2.6348 -1.4922  0.2767
  759MOL0     H  184   9.017   8.464   9.719 -2.2478  1.3419  4.8068
  759MOL0     H  185   9.080   8.607   9.648 -1.2037  1.4223  0.3760
  759MOL0     H  186   9.428   8.380   9.696 -2.1830 -5.8773 -2.3875
  759MOL0     H  187   8.695   8.481   9.639  1.2725  1.0289  0.8963
  759MOL0     H  188   8.441   8.483   9.595 -0.9753 -3.6796 -0.5697
  760MOL0     O  189   2.686   4.101  11.270  0.1519  0.7388 -0.3797
  760MOL0     C  190   2.705   4.110  11.152  0.4471 -0.5653 -0.4221
  760MOL0     O  191   2.606   4.132  11.062 -0.1749 -0.7196  0.0288
  760MOL0     C  192   2.476   4.147  11.088  0.6562 -0.2541  0.2784
  760MOL0     C  193   2.414   4.249  11.021  0.9100 -1.1053 -0.2799
  760MOL0     C  194   2.280   4.285  11.037 -0.2070 -0.8908 -0.4454
  760MOL0     C  195   2.201   4.212  11.127 -0.3074  0.5900 -0.7302
  760MOL0     O  196   2.067   4.242  11.131  0.8757  0.1222 -0.5705
  760MOL0     C  197   1.975   4.144  11.195  0.5062  0.0065 -0.4115
  760MOL0     C  198   1.840   4.206  11.201 -0.2759 -0.0493  0.6561
  760MOL0     C  199   1.730   4.108  11.242  0.3805 -0.4290  0.1939
  760MOL0     C  200   1.591   4.170  11.293 -0.1256  0.7518 -0.4153
  760MOL0     C  201   1.534   4.260  11.186  0.1921  0.7202  0.8434
  760MOL0     C  202   1.395   4.301  11.219  0.5465  0.9360  0.5182
  760MOL0     C  203   1.341   4.400  11.113  0.1298  0.3440  0.9133
  760MOL0     C  204   1.187   4.389  11.131 -0.3718  0.3746  1.3114
  760MOL0     N  205   1.127   4.457  11.246  0.6689 -0.3399 -0.8776
  760MOL0     C  206   1.106   4.592  11.255  0.6088 -0.6931 -0.8647
  760MOL0     C  207   1.036   4.606  11.372 -0.0675 -0.3987  0.3969
  760MOL0     C  208   0.982   4.738  11.425  0.2483  0.9616 -0.4688
  760MOL0     C  209   0.877   4.792  11.336  0.5742  0.2643  0.4563
  760MOL0     C  210   0.783   4.888  11.417 -0.5982 -0.8918 -0.9119
  760MOL0     C  211   0.666   4.925  11.335 -0.3213 -0.5363 -0.3274
  760MOL0     O  212   0.578   5.010  11.410 -0.0132  0.0460 -0.6605
  760MOL0     C  213   0.461   5.044  11.353 -0.4293 -0.3761 -0.2169
  760MOL0     C  214   0.371   5.116  11.429  0.9071 -0.3449 -0.8078
  760MOL0     C  215   0.244   5.150  11.382  0.4691 -0.3185 -0.0758
  760MOL0     C  216   0.203   5.121  11.247 -0.1894  0.4553 -0.6428
  760MOL0     C  217   0.076   5.161  11.200  0.6747  1.1314  0.2474
  760MOL0     O  218  -0.019   5.173  11.297  0.0061  0.2750  0.5210
  760MOL0     C  219  -0.146   5.201  11.267  0.0722 -0.0646  0.3629
  760MOL0     C  220  -0.247   5.107  11.300 -0.1627  0.1308  0.8245
  760MOL0     C  221  -0.374   5.126  11.255  0.1917 -0.2920  0.2674
  760MOL0     C  222  -0.409   5.231  11.168  0.4717 -0.0952 -0.6303
  760MOL0     O  223  -0.548   5.233  11.148 -0.0027 -1.1347  0.8292
  760MOL0     C  224  -0.584   5.341  11.069 -0.2277 -0.1718  0.3985
  760MOL0     C  225  -0.733   5.351  11.041  0.4423 -0.7897  0.0860
  760MOL0     C  226  -0.794   5.222  10.971  0.3863  0.1884 -0.4994
  760MOL0     C  227  -0.934   5.274  10.907  0.2180  1.1202  0.3613
  760MOL0     C  228  -0.990   5.154  10.824  0.5979 -0.1269 -0.2206
  760MOL0     C  229  -1.101   5.202  10.728  0.1624  0.0042  0.4411
  760MOL0     C  230  -1.058   5.304  10.614 -0.3062  0.2811 -0.3003
  760MOL0     C  231  -1.170   5.341  10.535 -0.2261 -0.3037  0.1448
  760MOL0    Cl  232  -1.104   5.403  10.385 -0.1621  0.2266  0.0643
  760MOL0     C  233  -0.310   5.327  11.144  0.4965  0.6313  0.7187
  760MOL0     C  234  -0.184   5.307  11.184  0.6623 -0.2468 -0.6235
  760MOL0     O  235   0.059   5.174  11.079 -0.1510 -0.2849 -0.7596
  760MOL0     C  236   0.302   5.063  11.165 -0.6146 -0.2814  0.3161
  760MOL0     C  237   0.425   5.025  11.224  0.5494 -0.3028  0.3165
  760MOL0     N  238   1.025   4.483  11.434  0.6977 -0.7306  0.4660
  760MOL0     N  239   1.076   4.393  11.357 -0.1584  0.5456 -0.7000
  760MOL0     C  240   2.266   4.118  11.210  0.6821  0.9099  0.4628
  760MOL0     C  241   2.401   4.078  11.187  0.3694 -0.4391  0.1422
  760MOL0     C  242   2.834   4.087  11.092  0.1388  0.7996  0.1651
  760MOL0     C  243   2.947   4.094  11.169 -0.0650  0.4580 -0.8304
  760MOL0     C  244   3.061   4.077  11.110 -0.5267 -0.3236  0.0477
  760MOL0     C  245   3.084   4.050  10.971 -0.5124 -0.2719 -0.2970
  760MOL0     O  246   3.214   4.037  10.924  0.1402 -0.2347  0.0139
  760MOL0     C  247   3.237   4.032  10.786 -0.1410 -0.3388 -0.2871
  760MOL0     C  248   3.395   4.035  10.779 -0.2215  0.4270  0.1603
  760MOL0     C  249   3.448   3.889  10.807 -0.0715  0.1373 -0.7277
  760MOL0     C  250   3.597   3.873  10.761  0.4224  0.3708 -0.6706
  760MOL0     C  251   3.620   3.915  10.618  1.4390 -0.4146 -0.1308
  760MOL0     C  252   3.639   3.941  10.502  0.4474 -0.4570  0.5538
  760MOL0     C  253   2.976   4.054  10.890 -0.3044 -0.0739 -0.1908
  760MOL0     C  254   2.848   4.072  10.948 -0.2324 -1.0278  0.3883
  760MOL0     H  255   2.471   4.295  10.941  0.0752 -0.7990 -0.7096
  760MOL0     H  256   2.236   4.352  10.964 -0.3129  0.6824  1.0128
  760MOL0     H  257   1.993   4.137  11.303 -0.9002  4.8888  0.4288
  760MOL0     H  258   1.972   4.050  11.141 -0.2620  0.6723 -1.5778
  760MOL0     H  259   1.823   4.242  11.099  1.6468  0.1448  0.3668
  760MOL0     H  260   1.845   4.297  11.261  1.1203 -0.7290  1.6263
  760MOL0     H  261   1.749   4.046  11.330 -2.0533 -2.5341 -0.6426
  760MOL0     H  262   1.706   4.042  11.158  1.8249 -1.0052  0.1972
  760MOL0     H  263   1.519   4.089  11.303 -0.6648  1.1555 -0.9141
  760MOL0     H  264   1.595   4.227  11.386 -0.8732  1.9247 -1.0657
  760MOL0     H  265   1.539   4.208  11.090  3.0857  2.6772 -0.1995
  760MOL0     H  266   1.598   4.348  11.175  0.7160  0.2774  0.2589
  760MOL0     H  267   1.404   4.340  11.320 -0.8439  1.6402  0.3989
  760MOL0     H  268   1.334   4.210  11.213  1.0935  0.3559  2.7777
  760MOL0     H  269   1.380   4.502  11.121  0.7999  0.0204  2.1592
  760MOL0     H  270   1.361   4.365  11.012  1.0751  3.7932 -0.2181
  760MOL0     H  271   1.167   4.282  11.141  2.9322 -0.5820 -0.7758
  760MOL0     H  272   1.140   4.418  11.037 -1.3535 -0.2697  1.5785
  760MOL0     H  273   1.144   4.664  11.182 -0.9451  0.6664 -0.3922
  760MOL0     H  274   1.055   4.819  11.435  0.6943  0.6572 -1.1285
  760MOL0     H  275   0.929   4.709  11.516 -0.7137 -2.1413 -1.8685
  760MOL0     H  276   0.811   4.709  11.310  0.7707  0.6111 -1.2076
  760MOL0     H  277   0.913   4.836  11.243  3.0112  2.0463  2.0951
  760MOL0     H  278   0.761   4.854  11.519  3.0309 -2.2722 -0.4517
  760MOL0     H  279   0.854   4.968  11.437  3.2342 -3.9771 -1.0358
  760MOL0     H  280   0.609   4.834  11.316 -1.0481 -0.7285  2.3808
  760MOL0     H  281   0.708   4.965  11.243 -1.6176  3.5381  0.6428
  760MOL0     H  282   0.399   5.123  11.533 -1.3401  0.1325 -0.1736
  760MOL0     H  283   0.169   5.190  11.449 -0.1137  1.6160 -1.8012
  760MOL0     H  284  -0.223   5.024  11.364  3.3081  0.2300 -0.1734
  760MOL0     H  285  -0.446   5.055  11.294  0.6805 -0.9770 -0.0730
  760MOL0     H  286  -0.524   5.340  10.978  0.7295 -0.3858  1.0180
  760MOL0     H  287  -0.564   5.437  11.119 -1.4878  1.0519 -1.3255
  760MOL0     H  288  -0.750   5.432  10.969  5.1245  0.7964  0.4560
  760MOL0     H  289  -0.792   5.373  11.131  1.5808  0.7330  0.5003
  760MOL0     H  290  -0.808   5.143  11.046  0.4805  0.5962 -0.0479
  760MOL0     H  291  -0.725   5.180  10.897  3.7445  1.1066  1.9264
  760MOL0     H  292  -1.011   5.304  10.979 -2.0886  0.6510 -1.7840
  760MOL0     H  293  -0.907   5.354  10.837  0.8184  0.3389 -0.3069
  760MOL0     H  294  -1.032   5.069  10.879  2.2322 -0.7649  0.0727
  760MOL0     H  295  -0.914   5.123  10.752 -0.1764  1.2885 -1.7124
  760MOL0     H  296  -1.187   5.256  10.768 -1.2470 -0.7689 -1.3810
  760MOL0     H  297  -1.142   5.107  10.691 -2.3409  0.8127  0.9543
  760MOL0     H  298  -1.007   5.392  10.655 -1.0138  0.2650  0.6551
  760MOL0     H  299  -0.981   5.264  10.548 -0.6430  1.5086 -1.4803
  760MOL0     H  300  -1.238   5.414  10.577  0.7995  0.2767  0.8300
  760MOL0     H  301  -1.234   5.253  10.522  1.2540 -1.4556  0.3237
  760MOL0     H  302  -0.336   5.425  11.105  0.3573 -0.3570 -1.8479
  760MOL0     H  303  -0.127   5.393  11.151 -0.8123  1.2604  0.5946
  760MOL0     H  304   0.289   5.059  11.058 -0.5138 -1.3807  0.3369
  760MOL0     H  305   0.499   4.988  11.154  1.1000 -1.5199  1.5115
  760MOL0     H  306   2.207   4.071  11.289 -1.5660  2.1799 -0.3717
  760MOL0     H  307   2.442   3.997  11.246 -0.9745 -1.1503  0.1453
  760MOL0     H  308   2.951   4.122  11.274  0.3896 -1.9885 -0.1457
  760MOL0     H  309   3.155   4.068  11.165 -1.5097  0.5607  1.9612
  760MOL0     H  310   3.196   4.125  10.744 -0.1557 -0.0225  0.4031
  760MOL0     H  311   3.182   3.952  10.736 -1.3451 -1.0614  2.0709
  760MOL0     H  312   3.428   4.068  10.679 -1.3921 -1.1727 -0.7959
  760MOL0     H  313   3.434   4.100  10.858 -0.1180 -0.8507  1.1941
  760MOL0     H  314   3.385   3.820  10.750 -1.0735  1.1046 -0.8311
  760MOL0     H  315   3.432   3.860  10.912 -3.1790  1.9249 -0.5844
  760MOL0     H  316   3.655   3.934  10.832  0.7093 -1.6932  0.9883
  760MOL0     H  317   3.636   3.770  10.768 -0.6458 -0.1755 -2.2938
  760MOL0     H  318   3.668   3.979  10.407 -1.6176 -2.3421 -0.9313
  760MOL0     H  319   2.988   4.051  10.782  1.6200 -0.5033 -0.0090
  760MOL0     H  320   2.756   4.049  10.896  0.1925 -1.4785 -0.1731
  761MOL0     O  321   8.766   9.920   3.800 -0.3099  0.2126 -0.0178
  761MOL0     C  322   8.741   9.930   3.682  0.2654 -0.3798  0.6102
  761MOL0     O  323   8.635   9.994   3.640 -0.6139 -1.0280  0.1977
  761MOL0     C  324   8.549  10.060   3.730 -0.6590 -1.0139  0.4918
  761MOL0     C  325   8.521  10.193   3.720 -0.2113  0.5256  0.7161
  761MOL0     C  326   8.434  10.252   3.804  0.8630  0.6640 -0.5921
  761MOL0     C  327   8.368  10.184   3.912 -1.0482  0.0057  0.3515
  761MOL0     O  328   8.285  10.247   4.007 -0.4299 -0.6641  0.1539
  761MOL0     C  329   8.340  10.373   4.063 -0.7737 -0.8650  0.3028
  761MOL0     C  330   8.252  10.494   4.032 -1.1554  0.1695  0.0798
  761MOL0     C  331   8.114  10.477   4.084  0.7675 -0.1922  0.3817
  761MOL0     C  332   8.099  10.504   4.234 -0.9528 -0.3346  0.4332
  761MOL0     C  333   7.964  10.458   4.278  0.5094  0.0341  0.8432
  761MOL0     C  334   7.952  10.456   4.423  0.0359  0.5898 -0.7245
  761MOL0     C  335   7.810  10.404   4.455 -0.4140  0.9765 -0.0937
  761MOL0     C  336   7.763  10.469   4.590 -0.3905 -0.0091  1.2369
  761MOL0     N  337   7.615  10.458   4.613  0.0884  0.0626 -0.4394
  761MOL0     C  338   7.526  10.470   4.515  0.0007  0.8083 -0.2623
  761MOL0     C  339   7.415  10.420   4.566 -0.0618  0.6566  0.2950
  761MOL0     C  340   7.284  10.397   4.482  0.4229 -0.2939  0.3883
  761MOL0     C  341   7.221  10.518   4.417  0.1457 -0.7259  0.5975
  761MOL0     C  342   7.110  10.490   4.314  0.7254 -0.0699  0.3369
  761MOL0     C  343   7.006  10.611   4.330 -0.8591  0.8245  0.1681
  761MOL0     O  344   6.878  10.587   4.264 -0.3979 -0.1867 -0.2147
  761MOL0     C  345   6.782  10.683   4.281 -0.6941 -0.4330  0.7023
  761MOL0     C  346   6.687  10.685   4.178  0.2475 -0.0579  0.3524
  761MOL0     C  347   6.575  10.768   4.200  0.2799  0.0772  0.4215
  761MOL0     C  348   6.567  10.859   4.295 -0.3738 -0.1355 -0.7494
  761MOL0     C  349   6.447  10.950   4.298 -0.2483 -0.0920 -1.2200
  761MOL0     O  350   6.435  11.022   4.408 -0.2144  0.7255 -0.0380
  761MOL0     C  351   6.334  11.114   4.415  0.7298 -0.7388  0.3250
  761MOL0     C  352   6.205  11.082   4.452 -0.6979 -0.2270  0.7125
  761MOL0     C  353   6.104  11.177   4.469  0.3272 -1.0216  0.1682
  761MOL0     C  354   6.122  11.311   4.455 -0.7494  0.7831 -0.3474
  761MOL0     O  355   6.010  11.389   4.463  0.4345  0.6559  0.4923
  761MOL0     C  356   6.019  11.515   4.392 -0.4275  0.3839 -1.0633
  761MOL0     C  357   5.882  11.587   4.387 -1.0830  0.0526 -0.8468
  761MOL0     C  358   5.779  11.546   4.290 -0.3924  0.8078 -0.6283
  761MOL0     C  359   5.640  11.613   4.296 -0.3822 -0.1111 -0.1146
  761MOL0     C  360   5.535  11.562   4.184 -0.2037 -0.1412 -0.1442
  761MOL0     C  361   5.394  11.624   4.209 -0.2204  0.1426 -0.5493
  761MOL0     C  362   5.302  11.553   4.114  0.4727 -0.4425 -0.2033
  761MOL0     C  363   5.164  11.620   4.117  0.4874 -0.1115  1.3345
  761MOL0    Cl  364   5.077  11.535   3.983 -0.2850  0.8238  0.0161
  761MOL0     C  365   6.260  11.351   4.432 -1.2257  0.6808 -0.4990
  761MOL0     C  366   6.358  11.253   4.410 -0.1371  0.3806 -0.5496
  761MOL0     O  367   6.364  10.941   4.206 -0.4225 -0.1113  0.4588
  761MOL0     C  368   6.657  10.864   4.398  0.1227  0.3935  0.1691
  761MOL0     C  369   6.759  10.770   4.392 -0.0891 -0.7455 -0.0803
  761MOL0     N  370   7.427  10.391   4.701  0.0885 -0.6963 -0.2642
  761MOL0     N  371   7.556  10.410   4.731  0.3151 -0.0479  0.3242
  761MOL0     C  372   8.409  10.044   3.923  0.4864  0.6279  0.2431
  761MOL0     C  373   8.490   9.983   3.827  0.4572 -0.1787  0.3332
  761MOL0     C  374   8.826   9.850   3.591 -0.3681 -0.6724 -1.2747
  761MOL0     C  375   8.811   9.861   3.454 -0.0159  0.0302  0.8655
  761MOL0     C  376   8.867   9.759   3.369 -0.0372  0.8066 -1.0077
  761MOL0     C  377   8.950   9.653   3.421 -0.2612 -0.1707 -0.9448
  761MOL0     O  378   9.005   9.567   3.329 -0.0949  0.6037  0.1172
  761MOL0     C  379   9.127   9.490   3.354 -0.3392  0.6102 -0.4941
  761MOL0     C  380   9.255   9.570   3.362  0.0565  0.2841 -0.0128
  761MOL0     C  381   9.272   9.652   3.235  0.0007 -0.5497 -1.3546
  761MOL0     C  382   9.290   9.570   3.116 -0.1897 -1.7050  0.4874
  761MOL0     C  383   9.377   9.454   3.129 -0.2642 -0.0074  0.3984
  761MOL0     C  384   9.435   9.351   3.125 -0.3906  0.8534 -0.9355
  761MOL0     C  385   8.972   9.663   3.561 -0.8663  0.5063 -1.5498
  761MOL0     C  386   8.914   9.758   3.644 -0.0537  0.0645 -0.6193
  761MOL0     H  387   8.550  10.253   3.635 -1.9655  2.7312  1.5933
  761MOL0     H  388   8.405  10.351   3.770 -0.9574  0.4299  0.1663
  761MOL0     H  389   8.445  10.384   4.036 -0.4601 -4.1055 -0.2399
  761MOL0     H  390   8.330  10.363   4.172 -3.0741  0.0144  0.2293
  761MOL0     H  391   8.226  10.495   3.925 -1.3934  0.3767  0.1376
  761MOL0     H  392   8.308  10.585   4.055 -1.5778  0.6278 -0.6656
  761MOL0     H  393   8.075  10.379   4.054  1.0524 -0.0052 -0.6246
  761MOL0     H  394   8.057  10.554   4.031 -0.9921 -1.7904 -0.1773
  761MOL0     H  395   8.185  10.456   4.281  0.7020 -0.9977 -2.9559
  761MOL0     H  396   8.107  10.609   4.263  0.8438 -0.0828 -0.7788
  761MOL0     H  397   7.950  10.357   4.238 -0.9728  0.8507 -0.8277
  761MOL0     H  398   7.888  10.510   4.220  0.5580 -1.8875 -1.0684
  761MOL0     H  399   7.958  10.561   4.453 -0.5801  0.1967  0.8786
  761MOL0     H  400   8.024  10.391   4.474 -0.7596 -0.0275 -0.3606
  761MOL0     H  401   7.743  10.418   4.370 -0.9579 -1.3072 -0.1140
  761MOL0     H  402   7.807  10.297   4.478 -0.1084  1.1334  0.7223
  761MOL0     H  403   7.777  10.577   4.574 -0.6325 -0.2481 -0.8761
  761MOL0     H  404   7.817  10.444   4.682  3.6051  0.0534 -0.8550
  761MOL0     H  405   7.546  10.487   4.410  3.0177 -0.3060  0.0386
  761MOL0     H  406   7.209  10.336   4.533 -0.8733 -0.1026 -1.2099
  761MOL0     H  407   7.300  10.321   4.405 -2.6146 -0.6889  0.0342
  761MOL0     H  408   7.307  10.572   4.376 -0.5529  1.7379  2.1879
  761MOL0     H  409   7.184  10.578   4.500 -0.1107  4.2911 -2.7446
  761MOL0     H  410   7.147  10.491   4.212  2.1972 -0.1003  0.8549
  761MOL0     H  411   7.057  10.395   4.329 -0.8777  0.7676  0.2193
  761MOL0     H  412   7.065  10.689   4.280 -1.4060  2.2520  1.6598
  761MOL0     H  413   6.989  10.636   4.435 -0.9009  2.0363 -0.1077
  761MOL0     H  414   6.691  10.618   4.093  3.6492  0.2722  0.1274
  761MOL0     H  415   6.485  10.765   4.139  1.0034 -0.6035 -0.6518
  761MOL0     H  416   6.176  10.979   4.465 -2.2915  0.1053  0.1071
  761MOL0     H  417   6.008  11.146   4.508  0.5937  0.7708  2.4972
  761MOL0     H  418   6.057  11.499   4.291  1.2814  2.2765 -0.7950
  761MOL0     H  419   6.096  11.580   4.436  0.1466 -1.6337  1.1341
  761MOL0     H  420   5.915  11.685   4.350  2.7498 -1.2907 -1.4733
  761MOL0     H  421   5.848  11.602   4.490 -0.8365  1.0151 -0.8958
  761MOL0     H  422   5.758  11.438   4.291 -2.0806  1.0800  1.1582
  761MOL0     H  423   5.817  11.566   4.190  0.4609 -2.6070 -1.1181
  761MOL0     H  424   5.589  11.587   4.389 -2.2222 -0.0162 -1.0455
  761MOL0     H  425   5.647  11.722   4.293 -4.1073  0.4346  2.6739
  761MOL0     H  426   5.532  11.453   4.179  0.9226 -0.1283 -2.4319
  761MOL0     H  427   5.568  11.594   4.085 -1.4019  0.7666 -0.2750
  761MOL0     H  428   5.406  11.731   4.194  0.0369 -0.1271 -2.5984
  761MOL0     H  429   5.364  11.616   4.314 -0.2380  1.2657 -0.4615
  761MOL0     H  430   5.338  11.565   4.012 -1.5813  1.5518 -0.7793
  761MOL0     H  431   5.298  11.446   4.135  1.0903 -0.4907 -0.3173
  761MOL0     H  432   5.168  11.726   4.091  0.9945 -1.0008 -2.9928
  761MOL0     H  433   5.115  11.599   4.213  1.8689 -1.7412  1.7292
  761MOL0     H  434   6.284  11.457   4.431 -2.0001  0.8698  0.2464
  761MOL0     H  435   6.455  11.296   4.387  0.3615  0.2005  1.1113
  761MOL0     H  436   6.660  10.935   4.480 -0.6075  1.0245 -0.3367
  761MOL0     H  437   6.830  10.753   4.473  0.1923 -0.5124 -0.2784
  761MOL0     H  438   8.370   9.978   4.001  1.6569 -0.9164 -0.4289
  761MOL0     H  439   8.505   9.877   3.841  0.0361 -0.0227  2.2377
  761MOL0     H  440   8.737   9.933   3.420 -0.9741 -0.4074  1.9746
  761MOL0     H  441   8.845   9.763   3.263 -0.3065  2.5787 -0.9167
  761MOL0     H  442   9.135   9.405   3.285  0.0407 -0.8135  1.2425
  761MOL0     H  443   9.114   9.450   3.455 -0.1608  0.6967 -0.4371
  761MOL0     H  444   9.246   9.631   3.452 -0.0895 -1.4210  1.1857
  761MOL0     H  445   9.340   9.503   3.378 -0.1865 -0.3040 -1.0686
  761MOL0     H  446   9.360   9.716   3.246 -2.8191  3.6318 -0.8424
  761MOL0     H  447   9.185   9.716   3.219  0.2662  0.0668 -0.3975
  761MOL0     H  448   9.191   9.547   3.077  0.5774  0.5292 -3.2975
  761MOL0     H  449   9.329   9.641   3.042  2.1830 -2.8363  0.5583
  761MOL0     H  450   9.494   9.262   3.134  0.2035  1.2641 -0.6547
  761MOL0     H  451   9.056   9.607   3.600 -0.6448  2.9866  1.9970
  761MOL0     H  452   8.923   9.754   3.752 -3.3858  0.5364 -0.1971
  762MOL0     O  453   9.604   7.170   4.535  0.2564 -0.0785  0.0858
  762MOL0     C  454   9.683   7.107   4.466  0.3555  0.2957  0.8675
  762MOL0     O  455   9.646   7.016   4.370 -0.3772  0.2885 -0.3509
  762MOL0     C  456   9.507   6.993   4.377 -0.3148 -0.1290  0.1488
  762MOL0     C  457   9.399   7.074   4.330  0.0636  0.3052 -0.1532
  762MOL0     C  458   9.265   7.043   4.356 -0.4062  0.4292 -0.0481
  762MOL0     C  459   9.236   6.909   4.404 -0.7882  0.6528 -0.3350
  762MOL0     O  460   9.117   6.844   4.409  0.0965 -0.4835 -0.2529
  762MOL0     C  461   9.000   6.910   4.387  0.0272  1.1179 -0.5011
  762MOL0     C  462   8.893   6.801   4.431 -0.4604 -0.5337 -0.3324
  762MOL0     C  463   8.747   6.842   4.410 -0.1965  0.2399 -0.0593
  762MOL0     C  464   8.708   6.859   4.257 -0.8396  0.8007 -0.5378
  762MOL0     C  465   8.556   6.854   4.238  0.0889 -0.2373  0.0613
  762MOL0     C  466   8.485   6.993   4.215 -0.1141  0.6297 -0.2494
  762MOL0     C  467   8.339   6.981   4.243  0.5612 -0.4566 -0.3926
  762MOL0     C  468   8.279   7.114   4.291 -0.2857  0.6165 -0.1704
  762MOL0     N  469   8.138   7.099   4.312  1.1230 -0.1471 -0.5266
  762MOL0     C  470   8.079   7.059   4.433  0.3528  0.3671 -0.1097
  762MOL0     C  471   7.945   7.040   4.414 -0.4139 -0.6896  0.1490
  762MOL0     C  472   7.837   6.988   4.502  0.8476 -0.1717  0.4454
  762MOL0     C  473   7.745   7.093   4.565 -0.0998  0.3591 -0.7129
  762MOL0     C  474   7.670   7.170   4.457  0.2297 -0.0451  0.0293
  762MOL0     C  475   7.571   7.082   4.370  0.1534 -0.1673  0.4081
  762MOL0     O  476   7.502   6.990   4.458  0.2729  0.7542 -0.1891
  762MOL0     C  477   7.386   7.030   4.520 -0.3952  0.7801 -0.2650
  762MOL0     C  478   7.264   7.006   4.461 -0.4341  0.3209 -0.1498
  762MOL0     C  479   7.149   7.039   4.533  0.4277 -0.7001 -0.2328
  762MOL0     C  480   7.148   7.125   4.651  0.2691 -0.0579 -0.2157
  762MOL0     C  481   7.021   7.157   4.716 -0.2365  0.4910 -0.9258
  762MOL0     O  482   7.023   7.244   4.825  0.4017  0.0949  0.0587
  762MOL0     C  483   6.918   7.320   4.866  0.1518  0.4730  0.9465
  762MOL0     C  484   6.937   7.394   4.984 -1.4289  0.7217 -0.0503
  762MOL0     C  485   6.839   7.475   5.040  0.5994 -0.7888 -0.7214
  762MOL0     C  486   6.725   7.500   4.965 -0.2670  0.3095 -0.5887
  762MOL0     O  487   6.638   7.594   5.009  0.5498  0.2320 -0.8455
  762MOL0     C  488   6.501   7.598   4.968  0.0388 -0.2262 -0.0765
  762MOL0     C  489   6.430   7.692   5.056  0.4598  0.1072 -0.7935
  762MOL0     C  490   6.293   7.745   5.011  0.0908 -0.5526  0.1675
  762MOL0     C  491   6.218   7.820   5.117 -0.7931 -0.5430  0.5285
  762MOL0     C  492   6.089   7.891   5.070  0.5327  0.2439 -1.1544
  762MOL0     C  493   6.036   7.980   5.184  0.9616 -0.2442 -0.3242
  762MOL0     C  494   5.885   8.016   5.170 -0.4826  0.3819 -0.8308
  762MOL0     C  495   5.797   7.908   5.246 -0.0131 -1.0728  0.6023
  762MOL0    Cl  496   5.633   7.934   5.200 -0.0212 -0.7054  0.1452
  762MOL0     C  497   6.701   7.426   4.850 -1.1324 -0.0960  0.4351
  762MOL0     C  498   6.803   7.344   4.797 -0.1318  0.9512 -0.7902
  762MOL0     O  499   6.922   7.100   4.675  0.3726 -0.0987  0.4042
  762MOL0     C  500   7.275   7.157   4.702 -0.8608  0.1156  0.8638
  762MOL0     C  501   7.388   7.109   4.647 -0.4657 -0.0301  0.7944
  762MOL0     N  502   7.928   7.095   4.285 -0.0493  0.0517  0.3163
  762MOL0     N  503   8.038   7.127   4.228 -0.0793  0.1982  0.0456
  762MOL0     C  504   9.346   6.819   4.446  0.2194 -0.4650 -0.0101
  762MOL0     C  505   9.478   6.868   4.428  0.1477 -0.3478 -0.7033
  762MOL0     C  506   9.825   7.133   4.468  0.3101  0.2358 -0.4600
  762MOL0     C  507   9.874   7.209   4.580 -0.6245 -0.3914  0.3744
  762MOL0     C  508  10.014   7.230   4.581  0.7003 -0.1392  0.0441
  762MOL0     C  509  10.096   7.177   4.484  0.2127 -0.2386  0.6905
  762MOL0     O  510  10.230   7.199   4.489 -0.5947  0.0707 -0.1149
  762MOL0     C  511  10.306   7.080   4.477 -0.0117 -0.0139 -1.1328
  762MOL0     C  512  10.451   7.121   4.458  0.6236  0.2002 -0.2181
  762MOL0     C  513  10.555   7.016   4.491 -0.5685 -0.3420 -1.0066
  762MOL0     C  514  10.684   7.059   4.429  0.3267 -0.2606 -0.5656
  762MOL0     C  515  10.763   7.116   4.547  0.1653  0.6100  0.9919
  762MOL0     C  516  10.825   7.160   4.643  0.2183  0.6728 -0.0318
  762MOL0     C  517  10.040   7.105   4.373  0.3114  0.0716  0.3333
  762MOL0     C  518   9.900   7.083   4.367 -0.8560 -0.6248 -0.5871
  762MOL0     H  519   9.433   7.161   4.274  3.4759 -0.8263 -0.0572
  762MOL0     H  520   9.183   7.106   4.323 -1.2640 -0.4938  0.2428
  762MOL0     H  521   8.991   6.932   4.281  1.0405  2.1453 -0.3935
  762MOL0     H  522   9.001   6.996   4.454  0.7514  0.3418  0.5211
  762MOL0     H  523   8.918   6.776   4.535 -6.6082 -0.6680  1.5265
  762MOL0     H  524   8.909   6.711   4.372  1.3059 -0.0645 -0.6293
  762MOL0     H  525   8.721   6.932   4.466 -1.7996 -1.6897  2.5061
  762MOL0     H  526   8.683   6.761   4.448  0.4127  0.6916  2.0323
  762MOL0     H  527   8.748   6.949   4.210  0.3504  1.1726  1.1050
  762MOL0     H  528   8.741   6.769   4.204  0.3578 -0.4037  2.0489
  762MOL0     H  529   8.515   6.802   4.325 -1.1057 -2.5193 -1.7254
  762MOL0     H  530   8.515   6.799   4.152 -0.3324  0.5244 -0.2388
  762MOL0     H  531   8.486   7.027   4.111 -1.7781  0.8125 -0.2351
  762MOL0     H  532   8.527   7.069   4.283  0.7308  0.0214 -0.0838
  762MOL0     H  533   8.285   6.963   4.149 -0.5091  2.2009 -0.3870
  762MOL0     H  534   8.319   6.906   4.320  0.8495  0.5529  0.6894
  762MOL0     H  535   8.301   7.178   4.205  0.0985 -0.6217 -1.0287
  762MOL0     H  536   8.343   7.142   4.374  2.5541  0.8666 -2.2965
  762MOL0     H  537   8.133   7.048   4.526  0.7523 -0.9401 -0.4803
  762MOL0     H  538   7.894   6.939   4.581  3.8583  0.0986 -1.4286
  762MOL0     H  539   7.782   6.912   4.446  0.1262  0.7228 -0.0964
  762MOL0     H  540   7.808   7.166   4.616 -1.0189 -0.3381  1.5384
  762MOL0     H  541   7.687   7.036   4.638 -0.6602  0.7999 -0.8001
  762MOL0     H  542   7.618   7.252   4.508  0.3823 -0.3998  0.7505
  762MOL0     H  543   7.740   7.230   4.397  0.7187 -0.4094  0.2354
  762MOL0     H  544   7.638   7.027   4.303  1.6721  1.0585  0.8749
  762MOL0     H  545   7.504   7.142   4.307 -1.1470 -0.5061  1.4189
  762MOL0     H  546   7.281   6.947   4.372  1.3705 -2.0542  1.6128
  762MOL0     H  547   7.053   7.002   4.498  1.2590 -0.6470 -2.7782
  762MOL0     H  548   7.031   7.395   5.038 -1.6092 -0.2544  0.3047
  762MOL0     H  549   6.860   7.537   5.127 -2.4287 -0.8534  0.1779
  762MOL0     H  550   6.455   7.499   4.976  0.7281 -0.4880  0.8847
  762MOL0     H  551   6.491   7.631   4.865 -0.8639 -0.8937 -0.2190
  762MOL0     H  552   6.502   7.774   5.065  0.3625  0.0391  1.2688
  762MOL0     H  553   6.406   7.656   5.157 -1.0814  0.7834 -0.8838
  762MOL0     H  554   6.225   7.692   4.943  0.2565  0.0141 -0.4526
  762MOL0     H  555   6.312   7.823   4.937 -0.8416 -1.6927 -1.3530
  762MOL0     H  556   6.192   7.749   5.195 -2.4671  1.6646  2.1114
  762MOL0     H  557   6.280   7.891   5.172 -1.5256  0.0400  0.6139
  762MOL0     H  558   6.013   7.813   5.056 -2.2019  2.4715  0.2974
  762MOL0     H  559   6.108   7.942   4.975  1.4098  2.7414  0.2780
  762MOL0     H  560   6.090   8.075   5.178 -3.0215  2.2091 -2.1714
  762MOL0     H  561   6.043   7.930   5.280 -2.4832 -2.1480 -0.9141
  762MOL0     H  562   5.864   8.107   5.227 -0.3806  0.1247 -0.3861
  762MOL0     H  563   5.863   8.016   5.062  1.8978 -0.0099 -1.3721
  762MOL0     H  564   5.802   7.917   5.355  1.9110  1.1960  0.4063
  762MOL0     H  565   5.834   7.806   5.239  0.2218 -1.1662  2.7450
  762MOL0     H  566   6.612   7.438   4.790 -1.0753 -0.0482  0.3602
  762MOL0     H  567   6.786   7.285   4.708  1.4170 -2.0651  0.7711
  762MOL0     H  568   7.294   7.216   4.791 -0.6982  1.7273 -0.2043
  762MOL0     H  569   7.485   7.124   4.694  0.1769  3.1749 -1.2305
  762MOL0     H  570   9.331   6.717   4.481 -0.1909  0.4665  2.7540
  762MOL0     H  571   9.553   6.791   4.444 -0.6664 -0.7489  1.4809
  762MOL0     H  572   9.806   7.247   4.655 -1.8397 -1.7404 -0.0121
  762MOL0     H  573  10.053   7.284   4.667 -1.1846 -1.0671  1.5773
  762MOL0     H  574  10.292   7.017   4.388  2.1357 -0.0428 -1.4983
  762MOL0     H  575  10.298   7.013   4.563  3.8717 -0.7068 -1.1323
  762MOL0     H  576  10.453   7.164   4.357 -1.9436 -0.0786 -0.4573
  762MOL0     H  577  10.481   7.205   4.522 -1.9212  0.2688  1.0126
  762MOL0     H  578  10.539   6.915   4.451  1.8788 -0.8187 -0.9033
  762MOL0     H  579  10.568   7.000   4.598  0.6480  1.6854 -0.8058
  762MOL0     H  580  10.747   6.975   4.397  1.8273  0.7127 -0.2850
  762MOL0     H  581  10.677   7.125   4.342  1.4372  1.3422  0.4886
  762MOL0     H  582  10.883   7.218   4.713 -0.3493  0.6641  0.4565
  762MOL0     H  583  10.100   7.075   4.288 -1.3289  1.4456 -1.3944
  762MOL0     H  584   9.865   7.038   4.274 -0.2469 -0.2253 -1.0187
  763MOL0     O  585   1.969   5.606   9.028  0.1472 -0.7184  0.3610
  763MOL0     C  586   2.002   5.707   8.959  0.4933 -0.4326  0.3022
  763MOL0     O  587   1.919   5.815   8.946  0.0652 -0.2098 -0.1539
  763MOL0     C  588   1.815   5.817   9.031 -0.5062  1.1802  0.3543
  763MOL0     C  589   1.689   5.779   8.982  0.0788  0.1564 -0.8506
  763MOL0     C  590   1.578   5.793   9.069 -0.5431 -0.6358 -0.1884
  763MOL0     C  591   1.601   5.824   9.202  0.2883 -0.0495  0.7701
  763MOL0     O  592   1.492   5.821   9.282 -0.7709 -0.0128  0.5119
  763MOL0     C  593   1.488   5.723   9.386  0.8637  0.6176  0.0539
  763MOL0     C  594   1.380   5.620   9.350 -0.5667  0.4712  0.2246
  763MOL0     C  595   1.248   5.679   9.351 -0.5659 -0.6462 -0.1159
  763MOL0     C  596   1.140   5.569   9.375 -1.4945 -0.4023  0.9204
  763MOL0     C  597   1.003   5.629   9.399  0.6974  0.4371 -0.3621
  763MOL0     C  598   0.906   5.520   9.438  0.3070  0.1078  0.0229
  763MOL0     C  599   0.764   5.552   9.476  0.2474 -0.7139  0.0672
  763MOL0     C  600   0.661   5.603   9.364 -0.5388 -0.3961 -0.3872
  763MOL0     N  601   0.528   5.604   9.424 -0.1283 -0.3392  0.4288
  763MOL0     C  602   0.439   5.502   9.445  0.6828  1.0390  0.6531
  763MOL0     C  603   0.321   5.554   9.487 -0.3066 -0.3214  0.4085
  763MOL0     C  604   0.191   5.478   9.524 -0.4344 -0.1015  0.1885
  763MOL0     C  605   0.090   5.450   9.405 -0.2344  0.1113  0.5332
  763MOL0     C  606  -0.029   5.542   9.433 -0.3278 -0.0964  0.5770
  763MOL0     C  607  -0.111   5.571   9.304  0.2920 -0.6842  0.0974
  763MOL0     O  608  -0.247   5.532   9.305 -0.0093  0.6861 -0.6562
  763MOL0     C  609  -0.332   5.613   9.371  0.5256 -0.2896 -0.0400
  763MOL0     C  610  -0.466   5.616   9.323 -0.1903  0.2022  0.0949
  763MOL0     C  611  -0.557   5.709   9.371 -0.2148 -0.0671 -0.7990
  763MOL0     C  612  -0.533   5.774   9.498  0.6062  0.0657  1.6010
  763MOL0     C  613  -0.641   5.857   9.563 -1.0095  0.4893  0.4887
  763MOL0     O  614  -0.611   5.948   9.658  0.5752 -0.0353  0.1092
  763MOL0     C  615  -0.705   6.008   9.733  0.4939 -0.3865 -0.7415
  763MOL0     C  616  -0.656   6.064   9.856 -0.6383  1.0988  0.5545
  763MOL0     C  617  -0.746   6.129   9.944 -1.2402  0.7382 -0.1258
  763MOL0     C  618  -0.882   6.140   9.916 -0.0240  0.1685 -0.3870
  763MOL0     O  619  -0.971   6.190  10.009  0.7026  0.7199  0.0837
  763MOL0     C  620  -1.009   6.325   9.999  0.0620  0.6538 -0.1531
  763MOL0     C  621  -1.105   6.369   9.877 -0.0462  0.1082  1.3256
  763MOL0     C  622  -1.238   6.303   9.888  0.6254  0.6209  0.9128
  763MOL0     C  623  -1.342   6.371   9.799  1.1765 -0.1100  0.1784
  763MOL0     C  624  -1.313   6.374   9.641  0.1875  0.0322  0.1508
  763MOL0     C  625  -1.422   6.453   9.560 -0.7311  0.8542 -0.7622
  763MOL0     C  626  -1.398   6.456   9.407 -0.4213 -0.1203  0.9676
  763MOL0     C  627  -1.508   6.530   9.339 -0.1700 -0.6766 -0.3474
  763MOL0    Cl  628  -1.476   6.537   9.165 -0.1558  0.4426  0.0794
  763MOL0     C  629  -0.928   6.089   9.792 -0.0795 -0.5552  0.3436
  763MOL0     C  630  -0.835   6.031   9.702  0.6128  0.5030  0.8751
  763MOL0     O  631  -0.754   5.829   9.518 -1.0006 -0.0041  0.0154
  763MOL0     C  632  -0.405   5.771   9.542  0.0905  0.4442 -0.8565
  763MOL0     C  633  -0.305   5.697   9.485  1.2488  0.1598  0.4358
  763MOL0     N  634   0.349   5.697   9.501  0.6519 -0.2349  0.3737
  763MOL0     N  635   0.473   5.719   9.471  0.5453  0.2357 -0.5546
  763MOL0     C  636   1.724   5.857   9.247 -0.4422 -1.1634  0.0426
  763MOL0     C  637   1.830   5.857   9.160 -1.0373  0.5540 -0.1214
  763MOL0     C  638   2.117   5.700   8.865 -0.1375  0.3510 -0.4571
  763MOL0     C  639   2.175   5.823   8.814  0.0487  0.6610  0.9313
  763MOL0     C  640   2.296   5.823   8.744 -0.1056 -0.5139 -1.4627
  763MOL0     C  641   2.356   5.704   8.714  0.6863 -0.2810  0.3872
  763MOL0     O  642   2.465   5.703   8.638  0.2761 -0.1508  0.7944
  763MOL0     C  643   2.561   5.801   8.659 -0.2863  0.6937  0.5131
  763MOL0     C  644   2.536   5.905   8.546  0.0701 -0.4446  0.0447
  763MOL0     C  645   2.611   5.881   8.408  1.2413 -0.2071 -0.1831
  763MOL0     C  646   2.575   6.002   8.330 -0.6265  0.7193 -0.7160
  763MOL0     C  647   2.662   6.115   8.366 -0.2085  0.4363  0.4883
  763MOL0     C  648   2.730   6.221   8.396 -0.0903 -0.1200 -0.7911
  763MOL0     C  649   2.301   5.580   8.766 -0.2077 -0.2807  1.2499
  763MOL0     C  650   2.181   5.579   8.840 -0.2302 -0.0177 -1.1366
  763MOL0     H  651   1.682   5.770   8.874  2.4552  3.1872 -1.4305
  763MOL0     H  652   1.474   5.779   9.039 -0.9356  0.9968  0.3119
  763MOL0     H  653   1.472   5.771   9.483 -1.1353  1.6673 -0.7431
  763MOL0     H  654   1.578   5.661   9.381  0.8299  0.4608  1.0657
  763MOL0     H  655   1.380   5.532   9.416 -0.7620  0.8584  0.7421
  763MOL0     H  656   1.408   5.591   9.248  4.4457 -1.9031  1.9031
  763MOL0     H  657   1.217   5.731   9.260  0.7991  3.4176  1.5114
  763MOL0     H  658   1.246   5.756   9.429  0.6921  0.7317 -1.3756
  763MOL0     H  659   1.136   5.511   9.282 -0.1297 -1.4034  1.4552
  763MOL0     H  660   1.165   5.500   9.456 -0.0530  0.1402  0.9575
  763MOL0     H  661   0.970   5.677   9.307 -0.5105 -0.1440 -0.2458
  763MOL0     H  662   1.010   5.704   9.478 -0.6922 -0.4613  0.6503
  763MOL0     H  663   0.950   5.459   9.517  1.7643 -1.5433 -1.9671
  763MOL0     H  664   0.901   5.457   9.349  0.7244  2.9106 -2.1407
  763MOL0     H  665   0.729   5.459   9.521  0.2404  0.7768  3.4382
  763MOL0     H  666   0.780   5.622   9.559  0.3311 -0.5239 -0.1058
  763MOL0     H  667   0.666   5.538   9.276  0.9153 -1.9507  0.7584
  763MOL0     H  668   0.698   5.696   9.321  3.0045 -2.1320 -1.4568
  763MOL0     H  669   0.460   5.397   9.428 -1.0000  1.1037 -2.4212
  763MOL0     H  670   0.139   5.527   9.607  0.5472  1.1377  0.0951
  763MOL0     H  671   0.218   5.378   9.557  0.7441 -0.1032 -0.7281
  763MOL0     H  672   0.067   5.344   9.423  1.3618 -0.2061  0.8906
  763MOL0     H  673   0.135   5.458   9.306  0.4057  2.0266  0.9489
  763MOL0     H  674  -0.088   5.502   9.517 -1.2995  2.4239  1.1977
  763MOL0     H  675   0.001   5.637   9.478 -1.3251  0.8441 -0.6416
  763MOL0     H  676  -0.070   5.527   9.213 -0.3276 -1.4113  0.1534
  763MOL0     H  677  -0.112   5.678   9.280  0.3703 -1.3021 -3.0895
  763MOL0     H  678  -0.495   5.549   9.243 -3.2595  1.0983  0.3322
  763MOL0     H  679  -0.652   5.716   9.319  0.3291 -1.8291 -2.0887
  763MOL0     H  680  -0.549   6.050   9.873 -0.3483  2.9119  0.4893
  763MOL0     H  681  -0.702   6.157  10.039 -0.6729 -2.8175  0.7941
  763MOL0     H  682  -0.915   6.381   9.999  0.8534 -0.5701  2.3315
  763MOL0     H  683  -1.077   6.345  10.082  1.0947  0.2851  0.8034
  763MOL0     H  684  -1.061   6.351   9.778 -1.2547  4.0318 -0.1219
  763MOL0     H  685  -1.116   6.478   9.871  1.8920  0.2933 -3.3614
  763MOL0     H  686  -1.270   6.296   9.992 -0.6392 -2.7222  0.4438
  763MOL0     H  687  -1.219   6.203   9.847 -1.7107  0.3180  0.3851
  763MOL0     H  688  -1.435   6.319   9.825  0.4607  1.5589  1.1449
  763MOL0     H  689  -1.352   6.473   9.839  0.8128 -1.1716  2.9830
  763MOL0     H  690  -1.325   6.271   9.606 -0.1003 -0.6558  2.1505
  763MOL0     H  691  -1.214   6.413   9.617 -0.4427  0.8154 -1.3216
  763MOL0     H  692  -1.424   6.558   9.591 -3.0569  1.1005 -1.5779
  763MOL0     H  693  -1.513   6.394   9.573  0.6802 -2.1227 -3.0748
  763MOL0     H  694  -1.307   6.513   9.391 -1.2721  0.8913 -0.4968
  763MOL0     H  695  -1.385   6.362   9.352  2.1503  0.6515  0.1436
  763MOL0     H  696  -1.507   6.632   9.380  1.9934 -0.6426 -0.3951
  763MOL0     H  697  -1.603   6.479   9.360 -0.6295  0.7489  1.3275
  763MOL0     H  698  -1.032   6.101   9.765 -0.0781 -2.0484 -0.4412
  763MOL0     H  699  -0.876   6.012   9.604  1.9655 -0.8590  0.5440
  763MOL0     H  700  -0.391   5.828   9.633 -1.4708 -1.3119  0.5676
  763MOL0     H  701  -0.206   5.684   9.528  0.9992 -0.6831  0.7635
  763MOL0     H  702   1.732   5.880   9.353  0.2884  0.4577 -0.3290
  763MOL0     H  703   1.930   5.876   9.197 -2.3533 -0.3337  4.4662
  763MOL0     H  704   2.112   5.909   8.837  0.0122  0.7931  0.3571
  763MOL0     H  705   2.328   5.923   8.718 -2.2364  1.2542  1.9410
  763MOL0     H  706   2.659   5.755   8.645 -0.8077 -0.1186 -0.5235
  763MOL0     H  707   2.557   5.842   8.761  1.5457  1.4830  0.3094
  763MOL0     H  708   2.430   5.920   8.525  0.3873 -0.9163 -2.1636
  763MOL0     H  709   2.586   5.994   8.585 -0.7151 -0.5436  1.3148
  763MOL0     H  710   2.556   5.797   8.364  1.5592  0.2337 -1.4847
  763MOL0     H  711   2.718   5.863   8.417  1.8547  3.6252  2.5452
  763MOL0     H  712   2.577   5.981   8.223  0.7474  0.9268 -0.7560
  763MOL0     H  713   2.471   6.032   8.346 -0.6883  0.9084 -1.4303
  763MOL0     H  714   2.779   6.312   8.424 -1.3636  0.0523  1.0708
  763MOL0     H  715   2.341   5.480   8.757  2.6212  0.5854  2.6806
  763MOL0     H  716   2.153   5.493   8.900  2.3490 -0.6042 -0.6729
  764MOL0     O  717   8.004   9.659   1.031  0.3842 -0.1522 -0.6793
  764MOL0     C  718   7.915   9.575   1.048  0.3641  1.1250 -0.3168
  764MOL0     O  719   7.927   9.453   1.112  0.2279 -0.9079 -0.0985
  764MOL0     C  720   8.054   9.424   1.155  0.7703 -0.5113  0.3433
  764MOL0     C  721   8.072   9.424   1.295  0.2903 -0.2910  0.1537
  764MOL0     C  722   8.204   9.395   1.335  1.2008 -0.3321  0.3562
  764MOL0     C  723   8.301   9.343   1.248  0.1991  0.1442  0.3122
  764MOL0     O  724   8.413   9.282   1.298 -0.1918 -0.3736  0.3952
  764MOL0     C  725   8.497   9.372   1.366 -0.5277  0.4018 -0.4042
  764MOL0     C  726   8.628   9.300   1.401  0.6967 -0.6249  0.5293
  764MOL0     C  727   8.697   9.400   1.488 -0.4319 -0.4470  0.0145
  764MOL0     C  728   8.776   9.499   1.394  0.1886 -0.1039 -1.0550
  764MOL0     C  729   8.897   9.546   1.478 -0.3099 -0.6778 -0.1284
  764MOL0     C  730   8.872   9.680   1.557 -0.0094  0.2771  0.1029
  764MOL0     C  731   8.981   9.677   1.667 -0.4825  0.5189  0.5807
  764MOL0     C  732   9.085   9.793   1.662 -1.1816  0.5454 -0.3053
  764MOL0     N  733   9.203   9.768   1.745 -0.1466  0.1815  0.3282
  764MOL0     C  734   9.260   9.861   1.834  0.4208  0.0733 -0.0274
  764MOL0     C  735   9.359   9.793   1.897  0.2347  0.6435 -0.1178
  764MOL0     C  736   9.447   9.825   2.011 -0.5993  0.3158 -0.4497
  764MOL0     C  737   9.402   9.774   2.147  0.1212 -0.4431  0.3432
  764MOL0     C  738   9.510   9.765   2.256  0.2749 -0.5673  0.6016
  764MOL0     C  739   9.468   9.774   2.396  0.0373 -0.7456 -0.4870
  764MOL0     O  740   9.396   9.658   2.439  0.1297 -0.1165  0.8464
  764MOL0     C  741   9.324   9.663   2.554  0.2360 -0.0655  0.4905
  764MOL0     C  742   9.252   9.549   2.592  0.6808 -0.2086 -0.5134
  764MOL0     C  743   9.154   9.555   2.697  0.3381 -0.2284  1.3968
  764MOL0     C  744   9.142   9.670   2.782 -0.1228  0.0128  0.6161
  764MOL0     C  745   9.040   9.678   2.887  1.2436  0.4862 -0.0710
  764MOL0     O  746   8.931   9.602   2.858 -0.3867  0.1911 -0.3564
  764MOL0     C  747   8.821   9.614   2.941  0.2059 -0.8240 -0.2032
  764MOL0     C  748   8.809   9.541   3.053  0.4943  0.4897 -0.2240
  764MOL0     C  749   8.686   9.548   3.135 -1.4051 -0.7447  0.2140
  764MOL0     C  750   8.579   9.612   3.078 -0.9072  0.2827  0.4285
  764MOL0     O  751   8.456   9.582   3.124 -0.0404 -0.0153 -0.4964
  764MOL0     C  752   8.412   9.673   3.230  0.4103  0.0902 -0.0730
  764MOL0     C  753   8.267   9.724   3.228 -0.4051  0.0640 -0.6072
  764MOL0     C  754   8.216   9.749   3.088 -0.5946 -0.1139  0.1777
  764MOL0     C  755   8.245   9.899   3.050  0.1174 -0.4271 -0.1902
  764MOL0     C  756   8.159   9.968   2.938  0.3792  0.1330 -0.4607
  764MOL0     C  757   8.185  10.123   2.927 -0.4041  0.8431  0.1066
  764MOL0     C  758   8.103  10.193   2.815  0.6129  0.0783 -0.0123
  764MOL0     C  759   8.198  10.280   2.722  0.2495  0.2143  0.3127
  764MOL0    Cl  760   8.080  10.397   2.631 -0.2282  0.0521  0.1044
  764MOL0     C  761   8.586   9.680   2.960  0.0257  0.8629 -0.4612
  764MOL0     C  762   8.710   9.687   2.894  0.2087  0.1893 -0.1219
  764MOL0     O  763   9.046   9.755   2.974  1.2172 -0.4544 -0.0287
  764MOL0     C  764   9.230   9.770   2.761 -0.5146  0.2847  0.2519
  764MOL0     C  765   9.323   9.771   2.646  0.2099 -0.2997 -0.0605
  764MOL0     N  766   9.366   9.666   1.842  0.2516  0.0665  0.2042
  764MOL0     N  767   9.274   9.653   1.755  0.6364 -0.5180  0.4153
  764MOL0     C  768   8.273   9.342   1.108 -0.5740  0.9832 -0.3582
  764MOL0     C  769   8.152   9.381   1.068 -0.4047  0.6512  0.5210
  764MOL0     C  770   7.776   9.630   1.020 -0.6032  0.8833  0.3392
  764MOL0     C  771   7.742   9.763   0.994 -0.1904 -0.2078 -0.2452
  764MOL0     C  772   7.616   9.812   0.971  0.0540 -0.1307  0.8454
  764MOL0     C  773   7.508   9.727   0.943 -1.5366 -0.3382 -0.7528
  764MOL0     O  774   7.379   9.755   0.936  0.4943  0.0634  0.5623
  764MOL0     C  775   7.339   9.888   0.904 -0.3931  0.8221 -0.2534
  764MOL0     C  776   7.337   9.901   0.745 -0.4099  0.0389  0.3136
  764MOL0     C  777   7.204   9.866   0.674  0.3825  0.0500 -0.0089
  764MOL0     C  778   7.236   9.845   0.529  0.0371  0.0851 -0.2865
  764MOL0     C  779   7.117   9.827   0.440 -0.2661  1.1486 -0.2680
  764MOL0     C  780   7.019   9.801   0.369 -0.0909  0.5962 -0.4126
  764MOL0     C  781   7.536   9.593   0.965 -0.3656  0.6777 -0.4269
  764MOL0     C  782   7.666   9.544   0.993  0.8690 -0.1089 -1.6764
  764MOL0     H  783   7.997   9.426   1.374  0.8030 -1.8616  0.7241
  764MOL0     H  784   8.234   9.398   1.439  2.0675  0.6090  0.1047
  764MOL0     H  785   8.462   9.418   1.459  1.6292  2.0105 -0.3203
  764MOL0     H  786   8.517   9.454   1.298 -0.1646  1.7074  1.2055
  764MOL0     H  787   8.684   9.274   1.311 -1.0287 -3.2560  0.1033
  764MOL0     H  788   8.608   9.211   1.461 -1.3926 -0.3030  0.3929
  764MOL0     H  789   8.763   9.333   1.543  1.6969  1.7350  0.3114
  764MOL0     H  790   8.630   9.459   1.552 -1.0603  0.0979 -1.1119
  764MOL0     H  791   8.819   9.469   1.298 -1.3246 -0.1380 -1.7541
  764MOL0     H  792   8.704   9.577   1.368 -0.0172 -0.3811 -1.3225
  764MOL0     H  793   8.978   9.565   1.407  0.4452 -3.1576 -0.0266
  764MOL0     H  794   8.935   9.467   1.544  2.4896 -2.3380 -3.4024
  764MOL0     H  795   8.776   9.675   1.608  0.6969  0.7069  1.5191
  764MOL0     H  796   8.874   9.761   1.482  2.8672  0.2672  0.0834
  764MOL0     H  797   8.932   9.661   1.763 -3.4657  1.9957 -0.5670
  764MOL0     H  798   9.049   9.591   1.657 -2.1283 -0.9458  1.3592
  764MOL0     H  799   9.024   9.883   1.681 -0.3565  0.8947  0.7776
  764MOL0     H  800   9.124   9.790   1.560 -1.7296 -0.3429 -0.5000
  764MOL0     H  801   9.223   9.961   1.850  3.7903  1.5957 -0.7888
  764MOL0     H  802   9.449   9.933   2.028  0.2986  0.3998 -1.0149
  764MOL0     H  803   9.549   9.797   1.982 -0.7915 -0.1813 -0.6541
  764MOL0     H  804   9.352   9.677   2.136  0.4411 -0.9418  2.8636
  764MOL0     H  805   9.337   9.856   2.176  1.6690  1.4609 -1.2814
  764MOL0     H  806   9.574   9.678   2.238 -0.4557 -1.1024  0.5169
  764MOL0     H  807   9.563   9.857   2.232 -2.3393  0.0894 -3.8791
  764MOL0     H  808   9.402   9.862   2.402 -0.7486 -1.4165  1.6444
  764MOL0     H  809   9.556   9.780   2.460  0.1142 -2.9445 -0.3122
  764MOL0     H  810   9.256   9.467   2.522 -1.1521  1.7942 -3.1541
  764MOL0     H  811   9.092   9.466   2.706  1.4486 -0.9481  2.2481
  764MOL0     H  812   8.886   9.469   3.079  0.8603  1.2036  0.7269
  764MOL0     H  813   8.680   9.495   3.230  0.0803 -0.5841  0.4272
  764MOL0     H  814   8.489   9.749   3.243 -0.7634  1.7197 -2.0100
  764MOL0     H  815   8.418   9.624   3.328 -0.7658  0.9655  0.4675
  764MOL0     H  816   8.241   9.792   3.311  2.0135 -3.9980  3.9864
  764MOL0     H  817   8.216   9.631   3.256  3.7288 -2.7247 -1.5042
  764MOL0     H  818   8.113   9.719   3.064  0.2930 -0.4586 -4.1537
  764MOL0     H  819   8.273   9.684   3.021  0.3569 -0.0682  0.9256
  764MOL0     H  820   8.203   9.945   3.141  1.2866 -0.1857  0.2502
  764MOL0     H  821   8.352   9.916   3.037 -0.5603  3.1667 -2.5080
  764MOL0     H  822   8.052   9.953   2.954  0.5225 -0.2980  0.1570
  764MOL0     H  823   8.176   9.939   2.834  0.1262  2.8207 -1.3171
  764MOL0     H  824   8.292  10.120   2.908 -0.6565 -1.3976 -1.4612
  764MOL0     H  825   8.150  10.171   3.019  0.3469  1.2691  0.1712
  764MOL0     H  826   8.056  10.119   2.749  3.3674 -0.6635 -1.2916
  764MOL0     H  827   8.020  10.249   2.860  1.0035  0.5995  0.0624
  764MOL0     H  828   8.248  10.208   2.655 -0.6624  0.5093 -0.7265
  764MOL0     H  829   8.272  10.336   2.779  0.1674 -1.6615  2.4297
  764MOL0     H  830   8.496   9.728   2.923 -0.3139  0.4140 -0.2293
  764MOL0     H  831   8.723   9.737   2.799 -5.0957  2.7122  0.1088
  764MOL0     H  832   9.222   9.860   2.821 -3.3144  0.8499 -0.7853
  764MOL0     H  833   9.383   9.862   2.644  2.0353 -1.4647 -0.0374
  764MOL0     H  834   8.340   9.294   1.037 -2.6945 -2.2206 -0.4108
  764MOL0     H  835   8.118   9.377   0.965  1.4811  0.8233 -0.1280
  764MOL0     H  836   7.824   9.834   1.000 -0.7162  0.4592 -0.9174
  764MOL0     H  837   7.602   9.918   0.990  1.3811  0.2178  0.0024
  764MOL0     H  838   7.391   9.972   0.951 -0.0739  0.0214  0.8551
  764MOL0     H  839   7.235   9.898   0.937 -0.3924 -1.6431  0.6738
  764MOL0     H  840   7.359  10.006   0.724  2.4853 -0.0396  2.3952
  764MOL0     H  841   7.421   9.851   0.697  0.5879  2.8460 -1.0924
  764MOL0     H  842   7.126   9.942   0.680  3.7605  4.0217 -1.6699
  764MOL0     H  843   7.167   9.771   0.714  1.6625 -0.3115  0.3706
  764MOL0     H  844   7.295   9.928   0.489  0.5435 -0.6750 -1.1758
  764MOL0     H  845   7.298   9.755   0.519  0.9835  0.1974  3.1976
  764MOL0     H  846   6.928   9.806   0.313 -0.1090  1.8858 -0.3034
  764MOL0     H  847   7.445   9.534   0.955  0.2784 -0.5260  0.5168
  764MOL0     H  848   7.669   9.436   1.000 -0.2293 -0.0802 -0.3194
  765MOL0     O  849   0.278   2.810   8.650 -0.3925 -0.0530  0.3334
  765MOL0     C  850   0.222   2.821   8.536 -0.2511  0.3777 -0.1112
  765MOL0     O  851   0.102   2.762   8.501  0.5513  0.0908  0.6822
  765MOL0     C  852   0.051   2.645   8.548 -0.0931  0.4670  0.7285
  765MOL0     C  853  -0.086   2.627   8.561  0.2828  0.2473  0.5606
  765MOL0     C  854  -0.134   2.502   8.603 -1.1160  0.8610 -0.0322
  765MOL0     C  855  -0.046   2.394   8.627 -0.6834  0.9597 -0.5533
  765MOL0     O  856  -0.090   2.274   8.678 -0.3762 -0.1008  0.5502
  765MOL0     C  857  -0.229   2.229   8.683 -1.3494 -0.4396 -0.8108
  765MOL0     C  858  -0.215   2.084   8.724 -0.2601 -0.2859  0.0096
  765MOL0     C  859  -0.347   2.023   8.751  1.0498 -0.1951 -0.8894
  765MOL0     C  860  -0.403   2.064   8.892 -0.8559  0.9128  0.4971
  765MOL0     C  861  -0.535   2.002   8.928  0.1221 -0.0045 -0.1698
  765MOL0     C  862  -0.611   2.068   9.053 -0.3185 -0.8203  0.1317
  765MOL0     C  863  -0.718   1.978   9.120 -0.9632 -0.7281 -0.1632
  765MOL0     C  864  -0.829   1.967   9.008 -0.7629  0.2734  0.1085
  765MOL0     N  865  -0.970   1.957   9.061  0.0365 -0.4641  0.3255
  765MOL0     C  866  -1.013   2.014   9.172 -0.4657  0.3106 -0.1653
  765MOL0     C  867  -1.144   2.013   9.172 -0.4833 -0.0391 -0.9793
  765MOL0     C  868  -1.231   2.070   9.282  0.5254  0.5051  0.0128
  765MOL0     C  869  -1.370   2.120   9.235 -0.1092 -0.0672 -0.3808
  765MOL0     C  870  -1.450   2.175   9.347  0.5408  0.1980  0.7246
  765MOL0     C  871  -1.598   2.178   9.305 -0.0098 -0.1084  0.3202
  765MOL0     O  872  -1.671   2.276   9.393  0.4595 -0.3275 -0.0861
  765MOL0     C  873  -1.811   2.280   9.384 -0.5459 -0.3088 -1.2342
  765MOL0     C  874  -1.876   2.372   9.464  0.2109 -0.1508  0.8114
  765MOL0     C  875  -2.007   2.381   9.469 -0.4629  0.4619  1.2748
  765MOL0     C  876  -2.090   2.290   9.396  1.0743  0.6032 -0.7533
  765MOL0     C  877  -2.235   2.297   9.400  0.0667  0.0991 -0.0663
  765MOL0     O  878  -2.284   2.354   9.508  0.1594  0.2786 -0.0247
  765MOL0     C  879  -2.407   2.408   9.494  0.5394  0.5281  0.3505
  765MOL0     C  880  -2.518   2.322   9.516  0.0762  0.1350 -0.8007
  765MOL0     C  881  -2.647   2.380   9.516 -0.3050 -0.5376  0.1579
  765MOL0     C  882  -2.664   2.512   9.473 -0.6570  0.8624  0.8619
  765MOL0     O  883  -2.789   2.567   9.466  0.3432 -0.8411  0.4912
  765MOL0     C  884  -2.833   2.588   9.326 -0.7683 -0.2285 -0.4961
  765MOL0     C  885  -2.943   2.701   9.326 -0.2214  0.3061  0.1068
  765MOL0     C  886  -2.995   2.727   9.184 -0.7004  0.0291  0.0456
  765MOL0     C  887  -3.080   2.852   9.187 -0.0202 -0.2757 -0.0739
  765MOL0     C  888  -3.136   2.897   9.054  0.2036 -0.2159 -0.4987
  765MOL0     C  889  -3.236   2.791   9.000  0.3748  0.6316 -0.9133
  765MOL0     C  890  -3.273   2.809   8.848  0.2047 -0.9343 -1.1287
  765MOL0     C  891  -3.430   2.802   8.834 -0.3135 -0.9759  0.0704
  765MOL0    Cl  892  -3.489   2.956   8.913  0.0616  0.0829 -0.2699
  765MOL0     C  893  -2.554   2.584   9.435 -0.5318  0.1287 -0.6250
  765MOL0     C  894  -2.426   2.535   9.457 -0.3767  0.0217 -0.3197
  765MOL0     O  895  -2.295   2.259   9.302  0.1540 -0.3872 -0.0244
  765MOL0     C  896  -2.033   2.187   9.318  0.3468 -0.2573 -0.4632
  765MOL0     C  897  -1.892   2.185   9.318 -0.5605  0.1434  0.3765
  765MOL0     N  898  -1.187   1.931   9.067  0.0797 -0.7496 -0.8052
  765MOL0     N  899  -1.083   1.906   9.001 -0.7644  0.4513 -0.2681
  765MOL0     C  900   0.088   2.414   8.612  0.4895  0.2315 -0.8139
  765MOL0     C  901   0.136   2.536   8.568  0.1647 -0.3918  0.2993
  765MOL0     C  902   0.304   2.879   8.423 -0.5667 -0.4717  0.5803
  765MOL0     C  903   0.245   2.916   8.301 -0.3779  0.2971 -0.0485
  765MOL0     C  904   0.328   2.982   8.200  0.1910  0.3829 -0.9322
  765MOL0     C  905   0.450   3.016   8.220 -0.1955  0.0044 -0.1027
  765MOL0     O  906   0.494   3.089   8.111  1.1262 -0.0279 -0.6584
  765MOL0     C  907   0.634   3.086   8.087  0.1858 -0.6283 -0.6288
  765MOL0     C  908   0.669   3.163   7.961  0.1228 -0.2613 -0.1663
  765MOL0     C  909   0.813   3.124   7.898 -0.3853 -0.2587  0.0818
  765MOL0     C  910   0.816   3.161   7.753  0.8328  0.6530  0.1409
  765MOL0     C  911   0.950   3.149   7.693 -0.4389 -0.1217  0.2074
  765MOL0     C  912   1.041   3.130   7.611 -0.5314  0.2815 -0.0272
  765MOL0     C  913   0.526   2.978   8.339  0.9151  0.4498  0.3759
  765MOL0     C  914   0.445   2.913   8.442  0.0346  0.8229  0.6441
  765MOL0     H  915  -0.157   2.704   8.534 -0.9690 -1.5084 -1.5363
  765MOL0     H  916  -0.241   2.490   8.605 -1.0616 -0.2709 -1.8059
  765MOL0     H  917  -0.281   2.236   8.587 -2.5447 -2.4968 -0.3922
  765MOL0     H  918  -0.280   2.288   8.760 -1.9060 -0.6589 -1.0079
  765MOL0     H  919  -0.146   2.066   8.806  0.1099  1.9639  0.2567
  765MOL0     H  920  -0.177   2.029   8.637  1.1880  1.3731 -0.4636
  765MOL0     H  921  -0.346   1.913   8.742 -2.5015 -0.7112  2.5408
  765MOL0     H  922  -0.418   2.046   8.671 -0.6178 -1.8216  0.0213
  765MOL0     H  923  -0.333   2.020   8.964 -1.2122  1.5258  1.2366
  765MOL0     H  924  -0.405   2.173   8.903  0.9502  0.7413  3.9607
  765MOL0     H  925  -0.526   1.894   8.948 -2.5439 -0.6152 -1.7882
  765MOL0     H  926  -0.598   2.008   8.839  0.5828  0.2241 -0.4864
  765MOL0     H  927  -0.664   2.159   9.024 -2.0315 -0.7010  3.1768
  765MOL0     H  928  -0.545   2.085   9.139 -0.5488 -1.0276  0.3503
  765MOL0     H  929  -0.685   1.875   9.138 -1.9120 -0.7019  1.9516
  765MOL0     H  930  -0.739   2.022   9.218 -1.5181  0.5931 -0.8531
  765MOL0     H  931  -0.807   1.882   8.943 -1.8168 -1.9488  2.5100
  765MOL0     H  932  -0.832   2.058   8.946 -0.6651  1.6090  1.9939
  765MOL0     H  933  -0.957   2.087   9.230 -1.8865  1.2043  0.1314
  765MOL0     H  934  -1.178   2.154   9.328 -0.2137 -0.2462  2.3688
  765MOL0     H  935  -1.233   1.996   9.362  0.4060 -0.8862 -1.2382
  765MOL0     H  936  -1.434   2.037   9.204 -2.8778  2.6284 -2.5110
  765MOL0     H  937  -1.366   2.190   9.151 -3.2246 -1.1537 -1.5910
  765MOL0     H  938  -1.432   2.109   9.432 -0.0809 -4.2120 -2.1972
  765MOL0     H  939  -1.419   2.279   9.359  1.7621 -0.0199 -0.3076
  765MOL0     H  940  -1.633   2.075   9.317  0.9993 -0.8308 -2.2525
  765MOL0     H  941  -1.612   2.204   9.200 -0.3592 -0.1832  0.3488
  765MOL0     H  942  -1.817   2.433   9.531 -1.0636 -1.1770  2.9715
  765MOL0     H  943  -2.061   2.448   9.536 -3.4969  0.7269 -1.1938
  765MOL0     H  944  -2.498   2.218   9.538 -2.3431  0.0428  1.3989
  765MOL0     H  945  -2.725   2.310   9.543  0.4148 -1.0523  1.0003
  765MOL0     H  946  -2.874   2.496   9.282  2.3004 -3.6582  3.0338
  765MOL0     H  947  -2.751   2.616   9.260 -0.1365 -2.2223 -0.6124
  765MOL0     H  948  -2.906   2.787   9.384  0.3500 -1.3832  2.3787
  765MOL0     H  949  -3.029   2.666   9.383 -2.3815  4.0613 -0.5295
  765MOL0     H  950  -3.047   2.640   9.142 -0.6180 -0.9342  1.8546
  765MOL0     H  951  -2.912   2.742   9.113 -1.0963 -1.7164 -0.8622
  765MOL0     H  952  -3.157   2.822   9.258 -2.6609 -0.5937 -2.8602
  765MOL0     H  953  -3.020   2.936   9.223  1.4660 -1.3184 -0.0087
  765MOL0     H  954  -3.048   2.914   8.991  1.5153  0.6128  1.4629
  765MOL0     H  955  -3.194   2.989   9.063 -0.5017 -0.6635 -0.4607
  765MOL0     H  956  -3.329   2.785   9.057 -0.6324  0.2764 -2.5443
  765MOL0     H  957  -3.194   2.690   9.002  0.0163  0.4914 -0.3884
  765MOL0     H  958  -3.230   2.903   8.812  2.5282 -1.0696  1.0122
  765MOL0     H  959  -3.224   2.744   8.775 -0.4714  1.1504 -3.5670
  765MOL0     H  960  -3.464   2.707   8.874  2.5930 -0.7227  3.6601
  765MOL0     H  961  -3.459   2.797   8.728 -1.6817  1.4031  0.2464
  765MOL0     H  962  -2.575   2.679   9.385 -2.1044 -0.7827 -1.7850
  765MOL0     H  963  -2.340   2.588   9.418 -0.5587 -1.4420 -2.9906
  765MOL0     H  964  -2.088   2.108   9.266 -2.3284  2.4831 -2.1635
  765MOL0     H  965  -1.838   2.117   9.252 -0.4786  0.2809  0.3024
  765MOL0     H  966   0.150   2.333   8.648 -1.0397 -0.0550  1.3820
  765MOL0     H  967   0.243   2.551   8.558  0.7370 -3.8360 -0.0780
  765MOL0     H  968   0.136   2.910   8.299 -0.5221  2.5106 -1.8563
  765MOL0     H  969   0.274   3.027   8.116  0.6221 -2.3602 -2.8058
  765MOL0     H  970   0.650   2.979   8.074 -3.5372 -1.2854 -0.9653
  765MOL0     H  971   0.687   3.122   8.176  0.0338  0.3789 -0.9361
  765MOL0     H  972   0.581   3.150   7.898 -0.5987  0.2321  0.7070
  765MOL0     H  973   0.675   3.270   7.980  3.4059  0.1590 -2.6030
  765MOL0     H  974   0.846   3.021   7.912  1.5497  0.3594  0.2760
  765MOL0     H  975   0.883   3.184   7.958 -0.6012 -1.7871  1.9747
  765MOL0     H  976   0.750   3.095   7.696  2.8603 -1.3595 -0.0244
  765MOL0     H  977   0.773   3.261   7.744 -2.3533 -0.4033  1.8026
  765MOL0     H  978   1.124   3.128   7.542 -0.1523  1.0059  0.3950
  765MOL0     H  979   0.628   3.003   8.367  0.7348  1.6739 -0.0135
  765MOL0     H  980   0.488   2.893   8.539 -4.9514 -2.6972  2.5811
  766MOL0     O  981   0.655   7.024  10.927 -0.0665  0.2994 -0.3032
  766MOL0     C  982   0.746   7.064  10.855 -0.1862 -0.4599  0.8300
  766MOL0     O  983   0.746   7.163  10.767 -0.5588  0.5694  0.3285
  766MOL0     C  984   0.627   7.246  10.752 -0.2593  0.0344 -0.3664
  766MOL0     C  985   0.660   7.382  10.738  0.5009 -0.1401 -0.1197
  766MOL0     C  986   0.551   7.474  10.720  0.4017 -0.3279 -0.5409
  766MOL0     C  987   0.418   7.422  10.709 -0.7829 -0.2737  0.1459
  766MOL0     O  988   0.311   7.505  10.681 -0.2633  0.8341 -0.2682
  766MOL0     C  989   0.327   7.651  10.666  0.2076  0.7801  0.5937
  766MOL0     C  990   0.189   7.710  10.621  0.4844 -0.3744  0.0185
  766MOL0     C  991   0.215   7.840  10.554  0.7018 -0.1697  0.5860
  766MOL0     C  992   0.326   7.944  10.606 -0.3061 -0.5128 -0.0826
  766MOL0     C  993   0.324   8.081  10.538  0.3022 -0.5473 -1.1171
  766MOL0     C  994   0.353   8.064  10.391  0.1902  0.0599  0.6005
  766MOL0     C  995   0.397   8.197  10.336  0.7009  0.0921 -0.0348
  766MOL0     C  996   0.384   8.203  10.183  0.0509 -0.1183 -0.3564
  766MOL0     N  997   0.246   8.194  10.132  0.0884 -0.6400 -0.0293
  766MOL0     C  998   0.206   8.120  10.020  0.4503  0.7217  0.2835
  766MOL0     C  999   0.094   8.177   9.981  0.5920  0.5513 -0.0442
  766MOL0     C 1000  -0.001   8.145   9.867  0.4920  0.1898  0.5129
  766MOL0     C 1001  -0.122   8.084   9.935 -0.9271  0.5788  0.3066
  766MOL0     C 1002  -0.248   8.175   9.945 -0.8621 -0.2101 -0.4806
  766MOL0     C 1003  -0.327   8.177  10.075  0.3202 -0.0770  0.2713
  766MOL0     O 1004  -0.436   8.271  10.044  0.5868  0.3074  0.1525
  766MOL0     C 1005  -0.563   8.235  10.080 -0.3002 -0.3591 -0.4562
  766MOL0     C 1006  -0.669   8.271   9.994 -0.5571  0.5350 -0.4297
  766MOL0     C 1007  -0.796   8.227  10.018  0.6345 -0.3567  0.1005
  766MOL0     C 1008  -0.830   8.143  10.124 -0.0059  0.4323  0.1024
  766MOL0     C 1009  -0.969   8.111  10.153  0.3217 -0.0978 -0.2172
  766MOL0     O 1010  -1.008   8.054  10.284 -0.1330 -0.5803  0.6961
  766MOL0     C 1011  -1.141   8.036  10.300 -0.5412  0.5670 -0.4083
  766MOL0     C 1012  -1.221   7.961  10.212 -0.0118  0.0895 -0.7602
  766MOL0     C 1013  -1.357   7.934  10.255  0.1749 -0.1318 -0.1268
  766MOL0     C 1014  -1.407   7.985  10.368  0.1920 -0.0801  0.1504
  766MOL0     O 1015  -1.540   7.959  10.416  0.2314 -0.1425 -0.3110
  766MOL0     C 1016  -1.578   7.831  10.391 -0.0609  0.9765 -0.1561
  766MOL0     C 1017  -1.695   7.776  10.474  0.4211 -0.1386  0.5283
  766MOL0     C 1018  -1.818   7.836  10.410 -0.1758 -0.2008  0.0832
  766MOL0     C 1019  -1.884   7.745  10.296 -0.0726 -0.4107 -1.1055
  766MOL0     C 1020  -1.938   7.613  10.367  0.1244 -0.4992 -0.2229
  766MOL0     C 1021  -2.009   7.520  10.263 -0.3415  0.2424 -0.1215
  766MOL0     C 1022  -2.075   7.391  10.332  0.6131  0.5035 -0.3100
  766MOL0     C 1023  -1.979   7.288  10.394  0.2178 -0.2276  0.3840
  766MOL0    Cl 1024  -2.057   7.166  10.480 -0.0233 -0.3030  0.0734
  766MOL0     C 1025  -1.333   8.067  10.443  0.0777 -0.4372 -0.0935
  766MOL0     C 1026  -1.199   8.099  10.412  0.2792  0.8914 -0.2738
  766MOL0     O 1027  -1.046   8.147  10.071  0.0751  0.2367 -0.0121
  766MOL0     C 1028  -0.728   8.102  10.206  0.1094  0.4513  0.1889
  766MOL0     C 1029  -0.597   8.152  10.191  0.3678 -0.1516  0.7513
  766MOL0     N 1030   0.056   8.272  10.069 -0.1025 -0.9321 -0.0328
  766MOL0     N 1031   0.151   8.285  10.162  0.3616  0.7515 -0.2227
  766MOL0     C 1032   0.389   7.288  10.721 -0.3347 -0.1163  0.2377
  766MOL0     C 1033   0.502   7.203  10.746  0.1971 -0.6008 -0.1552
  766MOL0     C 1034   0.872   6.993  10.867  0.0001 -0.2163  0.7361
  766MOL0     C 1035   0.886   6.891  10.966 -0.0516 -0.0784  0.0609
  766MOL0     C 1036   1.011   6.817  10.973 -0.9287  0.2092  0.2386
  766MOL0     C 1037   1.117   6.850  10.888 -0.1396 -0.6336  0.6495
  766MOL0     O 1038   1.235   6.777  10.884 -0.5317 -0.7131  0.4043
  766MOL0     C 1039   1.307   6.786  11.006  0.3159  0.0766 -1.4062
  766MOL0     C 1040   1.434   6.861  10.989 -0.0649  0.5037  0.3711
  766MOL0     C 1041   1.413   7.013  11.023  0.0862 -0.8522  1.1625
  766MOL0     C 1042   1.454   7.107  10.911 -0.1033 -0.4247  0.0334
  766MOL0     C 1043   1.584   7.086  10.845 -0.1061  0.1649 -0.0801
  766MOL0     C 1044   1.700   7.069  10.803 -0.1038 -0.8049 -0.3006
  766MOL0     C 1045   1.104   6.950  10.795 -0.2908  0.6469  0.2652
  766MOL0     C 1046   0.990   7.029  10.789 -0.6897  0.5705  0.1931
  766MOL0     H 1047   0.764   7.413  10.738 -0.0195  1.7375  1.0983
  766MOL0     H 1048   0.577   7.578  10.707 -1.5436  0.1274 -1.1233
  766MOL0     H 1049   0.409   7.663  10.594  0.5712 -3.6528  0.0210
  766MOL0     H 1050   0.367   7.690  10.760 -0.6480  2.0636  0.4543
  766MOL0     H 1051   0.122   7.726  10.706 -0.7882 -2.5393 -0.5345
  766MOL0     H 1052   0.143   7.644  10.548 -1.2025 -0.0163  0.7056
  766MOL0     H 1053   0.118   7.890  10.548  0.1820 -0.9644  1.7695
  766MOL0     H 1054   0.232   7.816  10.449  1.7121 -0.8176  0.8845
  766MOL0     H 1055   0.319   7.957  10.715  1.9487  0.8810 -0.0271
  766MOL0     H 1056   0.420   7.894  10.579  1.0853 -0.1045  3.4882
  766MOL0     H 1057   0.401   8.144  10.583 -0.2503 -1.0672  0.6512
  766MOL0     H 1058   0.229   8.134  10.550  0.3310 -0.8294  0.5669
  766MOL0     H 1059   0.260   8.035  10.341  1.3348 -1.6752 -0.6524
  766MOL0     H 1060   0.428   7.990  10.362 -1.3892 -1.0136 -0.9675
  766MOL0     H 1061   0.330   8.272  10.381  3.4229  2.7471 -0.0504
  766MOL0     H 1062   0.497   8.225  10.369  0.0598  2.7569 -0.0600
  766MOL0     H 1063   0.438   8.118  10.139  0.7817  0.2900 -0.2704
  766MOL0     H 1064   0.437   8.291  10.145  0.9188 -0.7712 -0.7120
  766MOL0     H 1065   0.258   8.029   9.990  1.7291 -0.4350  5.1932
  766MOL0     H 1066   0.045   8.077   9.794  0.2884 -1.1748  1.5987
  766MOL0     H 1067  -0.025   8.239   9.816 -1.6792  0.2335  1.5084
  766MOL0     H 1068  -0.097   8.050  10.036  1.2242  1.4505  0.1237
  766MOL0     H 1069  -0.142   7.997   9.872  2.3800 -0.0509 -0.0447
  766MOL0     H 1070  -0.218   8.280   9.946 -0.8248 -0.1218  3.2671
  766MOL0     H 1071  -0.317   8.159   9.861 -1.1251  0.0012 -0.3075
  766MOL0     H 1072  -0.267   8.201  10.163 -2.0068  2.3547  1.3295
  766MOL0     H 1073  -0.370   8.079  10.098 -0.8251  0.0359 -1.2088
  766MOL0     H 1074  -0.625   8.310   9.904  0.9823 -2.1085 -0.9329
  766MOL0     H 1075  -0.872   8.272   9.956  3.3053  4.5091 -0.0958
  766MOL0     H 1076  -1.179   7.921  10.120 -0.6526  1.3593 -1.6494
  766MOL0     H 1077  -1.419   7.870  10.192 -3.2554 -0.1170  2.8772
  766MOL0     H 1078  -1.498   7.765  10.425 -0.3221  1.2220  0.9777
  766MOL0     H 1079  -1.584   7.810  10.284  2.6921 -2.3765  0.1816
  766MOL0     H 1080  -1.692   7.809  10.579 -0.9695  1.9619 -0.0253
  766MOL0     H 1081  -1.688   7.667  10.466  2.9106 -0.0002 -0.1449
  766MOL0     H 1082  -1.785   7.936  10.379  1.6512 -0.9629 -0.5771
  766MOL0     H 1083  -1.895   7.847  10.487 -0.3595  1.2427 -0.2693
  766MOL0     H 1084  -1.956   7.796  10.231  0.7133  1.3212 -0.6655
  766MOL0     H 1085  -1.813   7.698  10.228  0.7898  0.8787 -1.1221
  766MOL0     H 1086  -1.990   7.619  10.463 -0.0411 -3.3202 -0.0452
  766MOL0     H 1087  -1.855   7.551  10.403 -2.8854 -4.1405  1.0315
  766MOL0     H 1088  -1.947   7.491  10.178 -0.2709  0.3119 -0.0934
  766MOL0     H 1089  -2.092   7.573  10.213  0.3914  1.4145 -0.1319
  766MOL0     H 1090  -2.150   7.423  10.404  0.2281 -2.7479  0.9036
  766MOL0     H 1091  -2.149   7.342  10.268 -2.7479  0.4323  3.2618
  766MOL0     H 1092  -1.905   7.328  10.464  2.1727 -0.0738 -1.6634
  766MOL0     H 1093  -1.928   7.256  10.303 -0.3832  0.3978 -0.1824
  766MOL0     H 1094  -1.394   8.110  10.522  0.6141  0.0987  0.0305
  766MOL0     H 1095  -1.142   8.174  10.465 -2.4868  2.1199  1.1454
  766MOL0     H 1096  -0.744   8.038  10.292  1.6062 -1.0357 -0.5830
  766MOL0     H 1097  -0.526   8.120  10.267  3.6144  1.8828 -1.1640
  766MOL0     H 1098   0.285   7.259  10.717 -0.9022  1.8578 -1.5662
  766MOL0     H 1099   0.482   7.096  10.746  1.8643 -0.9956 -2.5362
  766MOL0     H 1100   0.808   6.864  11.037 -1.2552 -0.2882 -1.2847
  766MOL0     H 1101   1.030   6.735  11.041  0.4542 -0.7969 -1.2849
  766MOL0     H 1102   1.324   6.682  11.036  0.1027  0.1885 -0.8981
  766MOL0     H 1103   1.243   6.823  11.086 -0.0702 -2.2829 -0.5396
  766MOL0     H 1104   1.514   6.833  11.058  1.9152  2.3154 -1.0484
  766MOL0     H 1105   1.470   6.828  10.892 -2.0356 -3.0037  0.6562
  766MOL0     H 1106   1.476   7.037  11.109 -0.7868  0.4949  1.4553
  766MOL0     H 1107   1.308   7.036  11.046  0.2540 -0.9895  2.0840
  766MOL0     H 1108   1.374   7.109  10.835 -2.1467 -1.6170  2.0319
  766MOL0     H 1109   1.459   7.202  10.965 -0.1177 -0.8504  0.8003
  766MOL0     H 1110   1.799   7.062  10.762  0.5326  3.4307  0.1296
  766MOL0     H 1111   1.188   6.963  10.728  1.4464  0.6946  2.3188
  766MOL0     H 1112   0.984   7.105  10.712 -2.2750 -0.1646 -0.4636
  767MOL0     O 1113  10.992   8.365   8.930  0.4568  0.1819 -0.0800
  767MOL0     C 1114  10.954   8.318   8.824  0.7062  0.0757 -0.7861
  767MOL0     O 1115  11.042   8.262   8.731  0.8717  0.1811  0.5575
  767MOL0     C 1116  11.167   8.247   8.773 -0.1546  0.6906 -0.6671
  767MOL0     C 1117  11.257   8.349   8.792  0.0296  0.0029  0.3210
  767MOL0     C 1118  11.378   8.328   8.858  0.0251 -0.0812 -0.3221
  767MOL0     C 1119  11.403   8.205   8.919  0.7263  0.6048  0.1825
  767MOL0     O 1120  11.502   8.176   9.007  0.5029 -0.3444  0.3415
  767MOL0     C 1121  11.603   8.273   9.044  0.5751  0.9474  0.1966
  767MOL0     C 1122  11.718   8.274   8.937  0.3472 -0.2526 -0.6072
  767MOL0     C 1123  11.801   8.147   8.917  0.1775  0.4444  0.6136
  767MOL0     C 1124  11.858   8.095   9.051 -0.3939  1.0930  0.3711
  767MOL0     C 1125  11.966   8.171   9.119 -0.4267  0.0953  0.0628
  767MOL0     C 1126  12.107   8.139   9.071 -0.2947  0.6627 -0.9343
  767MOL0     C 1127  12.206   8.144   9.188 -0.3803 -0.1332 -0.5650
  767MOL0     C 1128  12.194   8.017   9.273 -0.0460  0.4170  0.3142
  767MOL0     N 1129  12.275   8.028   9.395 -0.7162 -0.6050 -0.3558
  767MOL0     C 1130  12.235   8.030   9.524 -0.2639 -0.1923  0.5156
  767MOL0     C 1131  12.348   8.019   9.606 -0.7161  0.3074 -0.2640
  767MOL0     C 1132  12.343   8.002   9.758 -0.5265  0.1486 -0.2167
  767MOL0     C 1133  12.416   7.877   9.820  0.0400 -0.9474 -0.5693
  767MOL0     C 1134  12.510   7.928   9.931  0.3630  0.0273  0.0674
  767MOL0     C 1135  12.565   7.802  10.010 -0.1743 -0.0085  0.4223
  767MOL0     O 1136  12.487   7.779  10.127  0.0967 -0.6476 -0.1435
  767MOL0     C 1137  12.541   7.819  10.245  0.3740 -0.1800  1.2731
  767MOL0     C 1138  12.676   7.843  10.279  0.0934  0.7553  0.0814
  767MOL0     C 1139  12.729   7.873  10.407 -0.1945  0.8212  0.5534
  767MOL0     C 1140  12.648   7.875  10.514 -0.2326 -1.3906  0.2378
  767MOL0     C 1141  12.706   7.895  10.653  0.0785 -0.0827 -0.3556
  767MOL0     O 1142  12.839   7.915  10.673  0.2648  0.2694  0.8296
  767MOL0     C 1143  12.900   7.958  10.776 -1.3113  0.2854 -1.5339
  767MOL0     C 1144  13.042   7.944  10.768  0.5043 -0.3111 -0.2539
  767MOL0     C 1145  13.130   7.972  10.876 -0.0728  0.2855  0.0092
  767MOL0     C 1146  13.081   8.024  10.993 -0.5525  0.5447 -1.0317
  767MOL0     O 1147  13.170   8.048  11.097 -0.3576  0.9705  0.0129
  767MOL0     C 1148  13.152   8.169  11.166 -0.9028 -0.0872 -0.4337
  767MOL0     C 1149  13.243   8.152  11.288  1.0519 -0.1362  1.2706
  767MOL0     C 1150  13.257   8.274  11.375  0.0052  0.2057 -0.5145
  767MOL0     C 1151  13.315   8.239  11.511 -0.1712  0.1066  0.5764
  767MOL0     C 1152  13.316   8.370  11.599 -0.7968 -0.8195 -0.0556
  767MOL0     C 1153  13.393   8.344  11.728 -0.0205  0.2770 -1.7161
  767MOL0     C 1154  13.364   8.441  11.852 -1.0234  0.8331 -0.4203
  767MOL0     C 1155  13.417   8.379  11.988 -0.1441  0.2690 -0.3762
  767MOL0    Cl 1156  13.302   8.257  12.040 -0.3676 -0.1488 -0.4297
  767MOL0     C 1157  12.940   8.044  11.002 -0.7830 -0.4116 -0.6499
  767MOL0     C 1158  12.855   8.009  10.900 -0.3357 -0.4759  0.9045
  767MOL0     O 1159  12.627   7.861  10.745  0.4560 -0.9967 -0.6760
  767MOL0     C 1160  12.512   7.867  10.485 -0.1379 -0.2900 -0.5479
  767MOL0     C 1161  12.458   7.851  10.359 -0.0320 -0.6712  0.9007
  767MOL0     N 1162  12.458   7.997   9.515 -0.4071 -1.0387 -0.0726
  767MOL0     N 1163  12.415   8.003   9.396  0.0359 -0.7595  1.1636
  767MOL0     C 1164  11.307   8.097   8.903  1.2933  1.6909  0.2049
  767MOL0     C 1165  11.195   8.117   8.826  1.0094 -0.6980 -0.2708
  767MOL0     C 1166  10.817   8.344   8.792 -0.0573  0.5663  0.7387
  767MOL0     C 1167  10.765   8.286   8.675 -0.1702 -0.0993 -1.1238
  767MOL0     C 1168  10.630   8.293   8.644  0.8970  0.2701 -0.4589
  767MOL0     C 1169  10.545   8.370   8.724 -0.3842 -0.2888 -0.3627
  767MOL0     O 1170  10.416   8.394   8.699  0.1357 -0.1684 -0.1855
  767MOL0     C 1171  10.345   8.332   8.587 -0.1501 -0.4277  0.3655
  767MOL0     C 1172  10.198   8.298   8.604  1.3215  1.3977 -0.3843
  767MOL0     C 1173  10.150   8.211   8.484 -0.3495 -0.6157 -1.1645
  767MOL0     C 1174   9.999   8.173   8.482  0.1540  0.8651 -0.1550
  767MOL0     C 1175   9.968   8.105   8.353  0.3617  0.2002  0.1613
  767MOL0     C 1176   9.954   8.060   8.244 -0.2498 -0.0128 -0.0591
  767MOL0     C 1177  10.593   8.444   8.825 -0.0879 -0.0941 -0.3557
  767MOL0     C 1178  10.721   8.425   8.869 -0.4492 -0.2512  0.4114
  767MOL0     H 1179  11.220   8.441   8.749 -2.4050 -1.5498 -1.1290
  767MOL0     H 1180  11.452   8.407   8.851  0.5834 -0.6931 -1.5338
  767MOL0     H 1181  11.654   8.246   9.136  0.6374  1.4751  0.3164
  767MOL0     H 1182  11.550   8.369   9.050 -2.5455 -0.6877  1.1506
  767MOL0     H 1183  11.786   8.356   8.962 -1.0827  1.3518 -1.6968
  767MOL0     H 1184  11.673   8.286   8.838  0.3003 -1.3146 -0.7294
  767MOL0     H 1185  11.882   8.156   8.843  0.7994  1.0185  1.3557
  767MOL0     H 1186  11.727   8.072   8.885 -0.7192  1.3306  0.5718
  767MOL0     H 1187  11.777   8.087   9.124  0.4631  1.5679  1.3900
  767MOL0     H 1188  11.895   7.992   9.040  0.8309  1.2961  2.1004
  767MOL0     H 1189  11.953   8.163   9.227  0.0122  4.0377  0.5752
  767MOL0     H 1190  11.945   8.278   9.110  1.2574  0.2779 -3.8855
  767MOL0     H 1191  12.150   8.212   9.002  2.4920 -0.3821 -0.4519
  767MOL0     H 1192  12.112   8.035   9.038 -0.1452 -0.5911  2.5939
  767MOL0     H 1193  12.307   8.135   9.145 -1.0135  1.0202 -2.3854
  767MOL0     H 1194  12.200   8.239   9.241  0.9105 -1.6249  2.4832
  767MOL0     H 1195  12.231   7.935   9.211 -4.7746 -1.7821 -0.0099
  767MOL0     H 1196  12.090   7.999   9.300 -0.0186  0.2390  0.2999
  767MOL0     H 1197  12.131   8.032   9.554  0.1336 -0.9397  2.0615
  767MOL0     H 1198  12.238   7.992   9.785 -0.6196 -3.8592 -1.4095
  767MOL0     H 1199  12.372   8.097   9.804  0.6921  1.0609 -2.6703
  767MOL0     H 1200  12.474   7.824   9.744 -1.0963  0.3647 -2.4610
  767MOL0     H 1201  12.340   7.809   9.859  2.6989 -2.7386  1.8529
  767MOL0     H 1202  12.598   7.973   9.883  1.5006 -1.6364  0.4928
  767MOL0     H 1203  12.453   8.006   9.982  0.8286  0.6933 -0.4119
  767MOL0     H 1204  12.674   7.815  10.015  0.0841 -1.0624 -1.4481
  767MOL0     H 1205  12.559   7.711   9.950  2.2251  0.6139 -0.9339
  767MOL0     H 1206  12.761   7.815  10.217  1.2643 -2.0510  2.6868
  767MOL0     H 1207  12.837   7.877  10.414  0.0716  0.2358 -2.2087
  767MOL0     H 1208  13.085   7.894  10.682  4.1548  0.3522  1.0209
  767MOL0     H 1209  13.233   7.943  10.860 -1.0185 -2.3614 -2.0544
  767MOL0     H 1210  13.048   8.174  11.200 -0.8839 -1.0416 -0.2319
  767MOL0     H 1211  13.180   8.257  11.107 -0.3302  0.0966  0.1069
  767MOL0     H 1212  13.332   8.104  11.247  0.0672 -0.3422 -0.7988
  767MOL0     H 1213  13.199   8.074  11.352 -3.2943  0.1417 -0.9512
  767MOL0     H 1214  13.158   8.318  11.391 -0.4974 -1.3260  0.8401
  767MOL0     H 1215  13.327   8.350  11.339 -1.0054  1.5279  0.1977
  767MOL0     H 1216  13.263   8.158  11.562 -0.9132  0.2023 -0.0181
  767MOL0     H 1217  13.419   8.204  11.502 -0.0191  0.1252  1.9662
  767MOL0     H 1218  13.215   8.408  11.615 -0.3651 -0.1906  1.2836
  767MOL0     H 1219  13.358   8.455  11.543 -0.2857 -2.9221 -3.1350
  767MOL0     H 1220  13.500   8.325  11.716  0.4387  0.8043  0.9559
  767MOL0     H 1221  13.349   8.253  11.771 -2.3085  1.5279 -1.1899
  767MOL0     H 1222  13.416   8.535  11.833 -0.3204  0.9834  1.9914
  767MOL0     H 1223  13.257   8.454  11.865 -1.2402  1.1524 -2.1858
  767MOL0     H 1224  13.435   8.443  12.075  1.5830 -1.2251  0.4232
  767MOL0     H 1225  13.518   8.338  11.984  1.1593  2.6339  3.2819
  767MOL0     H 1226  12.900   8.097  11.088  0.6779  1.7865 -1.2274
  767MOL0     H 1227  12.747   8.008  10.910 -0.4011  0.6156  0.4773
  767MOL0     H 1228  12.431   7.871  10.558  1.7458 -4.2526  2.1264
  767MOL0     H 1229  12.351   7.838  10.343  0.0817 -0.0374 -0.5176
  767MOL0     H 1230  11.310   7.998   8.947 -1.7856  0.8377 -1.2289
  767MOL0     H 1231  11.114   8.045   8.824 -0.9424  1.4035 -0.8302
  767MOL0     H 1232  10.834   8.217   8.626  0.6481 -0.3031  0.2705
  767MOL0     H 1233  10.595   8.236   8.559  1.0203  1.8368 -1.6076
  767MOL0     H 1234  10.389   8.234   8.567 -0.9771 -0.4700 -1.4881
  767MOL0     H 1235  10.345   8.390   8.494  1.3131  0.6313  0.9833
  767MOL0     H 1236  10.185   8.242   8.698 -0.8002 -0.6985 -1.8114
  767MOL0     H 1237  10.132   8.385   8.608 -1.8620 -0.7817 -1.5035
  767MOL0     H 1238  10.213   8.121   8.482  1.9738  0.8996 -0.8168
  767MOL0     H 1239  10.164   8.264   8.390 -0.6415 -0.1136 -0.9285
  767MOL0     H 1240   9.993   8.106   8.569 -1.8131  0.1924 -0.7413
  767MOL0     H 1241   9.940   8.265   8.494 -1.2276  0.0896 -0.7052
  767MOL0     H 1242   9.940   8.027   8.143 -0.5373  1.1582 -0.4154
  767MOL0     H 1243  10.524   8.501   8.887  2.5591  1.2695  1.5137
  767MOL0     H 1244  10.758   8.473   8.959 -1.5457 -1.9575  1.8226
  768MOL0     O 1245   1.620   1.516   4.577 -1.2001 -0.2234  1.0067
  768MOL0     C 1246   1.677   1.505   4.470 -0.0031  0.3579 -0.4068
  768MOL0     O 1247   1.629   1.543   4.354 -0.0424 -0.0582  0.7026
  768MOL0     C 1248   1.496   1.572   4.341  0.3314 -0.1933  0.5625
  768MOL0     C 1249   1.458   1.706   4.334 -0.2978 -0.2490 -0.3663
  768MOL0     C 1250   1.320   1.736   4.337  0.4434  0.6409 -0.4843
  768MOL0     C 1251   1.220   1.640   4.315 -0.0216  0.6658  0.7115
  768MOL0     O 1252   1.082   1.670   4.277 -0.3995 -0.4411 -0.3680
  768MOL0     C 1253   1.027   1.794   4.328 -0.0994  0.4434  0.1965
  768MOL0     C 1254   0.875   1.791   4.295 -0.9907 -0.7132  0.0974
  768MOL0     C 1255   0.797   1.896   4.365 -0.6209  0.1489  0.4287
  768MOL0     C 1256   0.650   1.889   4.326  0.0837 -0.0936 -0.5179
  768MOL0     C 1257   0.569   2.011   4.371  0.4108  0.1196 -0.0014
  768MOL0     C 1258   0.567   2.019   4.526  0.2143  0.0217  0.3250
  768MOL0     C 1259   0.449   2.112   4.554 -0.7652  0.7870  0.0385
  768MOL0     C 1260   0.452   2.176   4.690  0.3560 -0.6145 -0.9433
  768MOL0     N 1261   0.315   2.239   4.699 -0.0590 -0.4718 -0.1873
  768MOL0     C 1262   0.281   2.372   4.675  0.4827  0.4949 -0.0052
  768MOL0     C 1263   0.147   2.377   4.687 -0.3712  0.0845  0.3027
  768MOL0     C 1264   0.069   2.495   4.675  0.1634  0.5171  0.0087
  768MOL0     C 1265   0.017   2.541   4.538  0.2024 -0.2586  0.2534
  768MOL0     C 1266  -0.096   2.455   4.480 -0.3190 -0.6788 -0.7418
  768MOL0     C 1267  -0.044   2.339   4.394  0.1007 -0.9515 -0.5971
  768MOL0     O 1268  -0.140   2.246   4.362 -0.2350  0.1256  0.3937
  768MOL0     C 1269  -0.217   2.270   4.248  0.0407  0.1920  0.2032
  768MOL0     C 1270  -0.228   2.382   4.174  0.7433 -0.1542 -0.5511
  768MOL0     C 1271  -0.316   2.384   4.065 -0.1835 -0.0951  0.4148
  768MOL0     C 1272  -0.378   2.266   4.013  0.1025  0.3654 -0.0462
  768MOL0     C 1273  -0.454   2.269   3.885 -1.0961  0.0612  0.1229
  768MOL0     O 1274  -0.423   2.369   3.806 -0.9332  0.6411  0.5273
  768MOL0     C 1275  -0.520   2.399   3.709 -0.0580 -0.3351  0.6750
  768MOL0     C 1276  -0.534   2.331   3.580 -0.0030  0.0276  0.3844
  768MOL0     C 1277  -0.604   2.385   3.471 -0.5884 -0.4643  0.2740
  768MOL0     C 1278  -0.694   2.486   3.492 -0.4871  0.4613  0.3867
  768MOL0     O 1279  -0.781   2.541   3.400 -0.3322 -0.7182 -0.2545
  768MOL0     C 1280  -0.851   2.433   3.335  0.4444  0.1684 -0.2886
  768MOL0     C 1281  -0.988   2.487   3.270  0.0082 -0.4756 -0.3359
  768MOL0     C 1282  -0.965   2.592   3.162 -0.2714 -0.2131 -1.4593
  768MOL0     C 1283  -0.998   2.553   3.022  0.1026 -0.4762  0.2867
  768MOL0     C 1284  -0.971   2.648   2.904  0.5101  0.4297 -0.1690
  768MOL0     C 1285  -1.092   2.737   2.893  0.3965  0.0245 -0.8047
  768MOL0     C 1286  -1.075   2.854   2.799 -0.0847 -0.2287 -0.3608
  768MOL0     C 1287  -1.032   2.976   2.869 -0.7431 -0.2182 -0.2848
  768MOL0    Cl 1288  -0.854   2.973   2.900  0.1947  0.3278  0.5722
  768MOL0     C 1289  -0.687   2.548   3.612  0.3607  0.0311 -0.1377
  768MOL0     C 1290  -0.597   2.522   3.712  0.0541 -0.0376 -0.4517
  768MOL0     O 1291  -0.536   2.177   3.866 -0.4021 -0.7061 -0.6301
  768MOL0     C 1292  -0.370   2.152   4.099  0.2646 -0.6220  0.0363
  768MOL0     C 1293  -0.294   2.162   4.213  0.3355 -0.0002  0.1350
  768MOL0     N 1294   0.110   2.247   4.719 -0.6672 -0.8970  0.1460
  768MOL0     N 1295   0.211   2.165   4.732  0.1114 -0.0294 -0.1098
  768MOL0     C 1296   1.261   1.503   4.310  0.1780  0.2401 -0.5808
  768MOL0     C 1297   1.397   1.473   4.330  0.7319 -0.6915  0.8273
  768MOL0     C 1298   1.809   1.463   4.469  0.6001 -0.2938  0.5276
  768MOL0     C 1299   1.850   1.409   4.589 -0.0590  0.5433  0.7308
  768MOL0     C 1300   1.988   1.389   4.605 -0.3926  0.3282 -0.7561
  768MOL0     C 1301   2.079   1.425   4.509 -0.5691  0.6011  0.4848
  768MOL0     O 1302   2.215   1.412   4.539  0.3726  0.2305 -0.5388
  768MOL0     C 1303   2.316   1.462   4.444  0.2257  1.0701 -0.3937
  768MOL0     C 1304   2.354   1.333   4.358  0.1892  0.1805 -0.0096
  768MOL0     C 1305   2.348   1.369   4.208 -0.5963 -0.5419 -0.7740
  768MOL0     C 1306   2.429   1.267   4.127 -0.4843  0.2483  0.4297
  768MOL0     C 1307   2.372   1.132   4.130 -0.4816  0.0670 -0.2283
  768MOL0     C 1308   2.371   1.013   4.146  0.5160 -0.5080 -0.4651
  768MOL0     C 1309   2.031   1.454   4.378 -0.4330 -0.9217  0.5807
  768MOL0     C 1310   1.899   1.494   4.367  1.1997  0.5299  0.2377
  768MOL0     H 1311   1.535   1.782   4.328 -0.4316  0.1327  2.0075
  768MOL0     H 1312   1.290   1.840   4.331  0.9666  0.9849  1.8356
  768MOL0     H 1313   1.068   1.884   4.280  0.5943  0.3598  0.6088
  768MOL0     H 1314   1.045   1.792   4.436  1.9964 -2.7311 -0.0664
  768MOL0     H 1315   0.836   1.694   4.330 -1.4298 -1.1150 -1.4380
  768MOL0     H 1316   0.866   1.788   4.187  2.3123 -0.9601 -0.2751
  768MOL0     H 1317   0.836   1.995   4.338  0.5270  0.2118  2.1654
  768MOL0     H 1318   0.798   1.893   4.474 -3.0709  0.0572  0.5176
  768MOL0     H 1319   0.642   1.872   4.219  1.7747 -1.3996 -0.4942
  768MOL0     H 1320   0.606   1.800   4.373  1.9382 -0.2074  1.1584
  768MOL0     H 1321   0.464   2.008   4.340  1.2500  1.2758 -3.4646
  768MOL0     H 1322   0.607   2.101   4.322  0.7137  0.5733  1.0526
  768MOL0     H 1323   0.663   2.056   4.563 -0.4144  2.1690 -0.0550
  768MOL0     H 1324   0.534   1.924   4.570 -1.9815  1.1366  1.2315
  768MOL0     H 1325   0.448   2.194   4.481  0.8850  1.8411  1.1230
  768MOL0     H 1326   0.365   2.049   4.525 -0.1260  0.2222 -0.6530
  768MOL0     H 1327   0.525   2.255   4.709 -0.0260 -1.2603  4.7558
  768MOL0     H 1328   0.467   2.095   4.761  0.9647  1.4987  1.5042
  768MOL0     H 1329   0.351   2.453   4.659  1.9054 -1.0374 -2.4470
  768MOL0     H 1330   0.111   2.586   4.717 -1.7468  0.4977  2.1523
  768MOL0     H 1331  -0.025   2.483   4.730 -0.1029 -0.0158 -0.5450
  768MOL0     H 1332   0.095   2.552   4.462 -0.9787 -2.4384 -1.3989
  768MOL0     H 1333  -0.012   2.646   4.553 -0.4040 -0.3592 -0.1932
  768MOL0     H 1334  -0.148   2.405   4.563  1.3399 -0.9109  0.1957
  768MOL0     H 1335  -0.163   2.520   4.423 -1.0610 -2.4744 -2.0269
  768MOL0     H 1336   0.037   2.290   4.450 -0.0185  0.7146  1.1197
  768MOL0     H 1337  -0.002   2.382   4.303 -0.9283 -1.8079 -1.4946
  768MOL0     H 1338  -0.185   2.473   4.215 -2.3890 -0.0168  2.8391
  768MOL0     H 1339  -0.330   2.475   4.008  0.3505 -0.6965 -0.7196
  768MOL0     H 1340  -0.470   2.247   3.556 -0.3756  0.5000 -2.6093
  768MOL0     H 1341  -0.584   2.351   3.370 -0.1367 -0.8308  0.4808
  768MOL0     H 1342  -0.869   2.338   3.386  0.7630 -1.8202 -3.5972
  768MOL0     H 1343  -0.804   2.408   3.240 -3.4516 -0.8329 -2.1582
  768MOL0     H 1344  -1.041   2.530   3.355  0.9668  4.0579 -1.7331
  768MOL0     H 1345  -1.038   2.399   3.229  1.4657 -1.1189 -0.8021
  768MOL0     H 1346  -0.863   2.632   3.164 -0.1630 -0.5186  0.1888
  768MOL0     H 1347  -1.036   2.673   3.179  0.6029  0.7035 -2.1109
  768MOL0     H 1348  -0.942   2.461   3.004  0.5719 -0.4857  1.6360
  768MOL0     H 1349  -1.105   2.528   3.022 -0.0217 -0.2882 -2.8865
  768MOL0     H 1350  -0.966   2.581   2.818 -1.2232 -0.9229  0.7209
  768MOL0     H 1351  -0.873   2.696   2.915  1.0647 -0.8216  0.5839
  768MOL0     H 1352  -1.133   2.769   2.989 -0.9204 -0.0932 -1.3006
  768MOL0     H 1353  -1.177   2.676   2.861  0.5922 -1.0420  0.5994
  768MOL0     H 1354  -1.004   2.846   2.715  1.8321  3.4470  0.6843
  768MOL0     H 1355  -1.170   2.881   2.752 -0.3749  0.5113  0.6221
  768MOL0     H 1356  -1.080   2.976   2.967  0.2741 -0.1983  0.2336
  768MOL0     H 1357  -1.067   3.055   2.803 -0.1327 -1.0254 -1.6252
  768MOL0     H 1358  -0.751   2.631   3.640  0.3087 -0.2466  0.5893
  768MOL0     H 1359  -0.592   2.582   3.802 -1.3182  0.3703 -0.6316
  768MOL0     H 1360  -0.427   2.064   4.070 -1.2582  0.9983 -2.2649
  768MOL0     H 1361  -0.285   2.066   4.264 -0.6079  0.4031  1.0750
  768MOL0     H 1362   1.190   1.420   4.305  2.9965 -2.4196  0.2409
  768MOL0     H 1363   1.422   1.368   4.318 -1.0101 -1.0131 -0.3319
  768MOL0     H 1364   1.780   1.391   4.670  0.2132 -0.4271  0.7613
  768MOL0     H 1365   2.034   1.348   4.694  3.1094 -1.4704 -3.1979
  768MOL0     H 1366   2.398   1.504   4.503 -0.2352  2.3193 -0.6152
  768MOL0     H 1367   2.273   1.548   4.392  0.4792  1.9800  0.8581
  768MOL0     H 1368   2.456   1.304   4.386  0.2431  2.5624  2.7431
  768MOL0     H 1369   2.274   1.260   4.375  2.1052 -2.2988 -0.9158
  768MOL0     H 1370   2.389   1.469   4.189 -1.0310 -0.5740 -1.9241
  768MOL0     H 1371   2.244   1.385   4.178 -1.2939 -0.4144  1.4589
  768MOL0     H 1372   2.428   1.303   4.024  1.6619 -1.3491 -0.2173
  768MOL0     H 1373   2.535   1.256   4.154 -0.4046  0.1297  0.0793
  768MOL0     H 1374   2.372   0.906   4.145 -2.1230 -0.6084  0.2342
  768MOL0     H 1375   2.084   1.478   4.287 -0.9217  0.0901  0.5489
  768MOL0     H 1376   1.868   1.544   4.276  1.0497  0.4047  0.2173
  769MOL0     O 1377  10.977   7.901   0.612 -0.7779  0.5863 -0.1734
  769MOL0     C 1378  11.043   7.865   0.714 -0.1792  0.9647  0.4926
  769MOL0     O 1379  10.991   7.812   0.828  0.0904 -0.4381  0.5292
  769MOL0     C 1380  10.852   7.803   0.850  0.1756 -0.0592  0.0873
  769MOL0     C 1381  10.746   7.867   0.788  0.0531  1.0267  0.1950
  769MOL0     C 1382  10.611   7.825   0.817 -0.3156  0.2460  0.9683
  769MOL0     C 1383  10.587   7.763   0.940 -0.1099  0.3043  0.6222
  769MOL0     O 1384  10.462   7.729   0.995  0.3447 -0.0959 -0.3799
  769MOL0     C 1385  10.340   7.778   0.933 -0.1660  0.3788  0.5304
  769MOL0     C 1386  10.218   7.701   0.980  0.5908  0.0737 -0.2425
  769MOL0     C 1387  10.089   7.778   0.955  0.0714 -0.7356  0.1269
  769MOL0     C 1388   9.980   7.711   1.047 -0.5517  0.6598  0.8423
  769MOL0     C 1389   9.835   7.760   1.047 -0.3467  0.0658  0.1579
  769MOL0     C 1390   9.741   7.735   0.929 -0.1688  1.3729  0.1816
  769MOL0     C 1391   9.598   7.783   0.956 -0.2759 -0.0379  0.0046
  769MOL0     C 1392   9.503   7.685   0.906 -0.4725 -0.2599 -0.4701
  769MOL0     N 1393   9.376   7.749   0.888 -0.4043 -0.1165  0.5291
  769MOL0     C 1394   9.319   7.841   0.972  0.6886 -1.7613  0.9092
  769MOL0     C 1395   9.203   7.864   0.909 -0.1564 -0.9680 -0.6325
  769MOL0     C 1396   9.099   7.972   0.949 -0.2835  1.0544  0.1810
  769MOL0     C 1397   8.999   8.027   0.841 -0.6946 -0.2459  0.0927
  769MOL0     C 1398   8.933   8.153   0.891  0.5432 -0.4687  0.4884
  769MOL0     C 1399   8.780   8.169   0.869 -0.1465  0.8312 -0.2238
  769MOL0     O 1400   8.740   8.260   0.954 -0.3942 -0.0025  0.1650
  769MOL0     C 1401   8.604   8.297   0.960  1.1618 -0.1552 -0.1378
  769MOL0     C 1402   8.504   8.257   0.868 -0.1113 -0.8838  0.3183
  769MOL0     C 1403   8.374   8.307   0.871 -0.5292  0.1756  0.0385
  769MOL0     C 1404   8.346   8.390   0.977  0.4867 -0.0714 -0.0297
  769MOL0     C 1405   8.202   8.448   0.982 -0.2877 -0.7159  0.0092
  769MOL0     O 1406   8.181   8.562   1.058 -0.2757  0.1197 -0.2812
  769MOL0     C 1407   8.054   8.605   1.070  0.5569  0.4262 -0.1673
  769MOL0     C 1408   7.978   8.576   1.191  0.2371 -0.2660  0.1940
  769MOL0     C 1409   7.851   8.634   1.216 -0.5586  0.8088 -0.1868
  769MOL0     C 1410   7.794   8.708   1.111 -0.2292 -0.3666  0.2329
  769MOL0     O 1411   7.670   8.755   1.135 -0.0761  0.3216  0.0742
  769MOL0     C 1412   7.576   8.748   1.025  0.7466 -1.3404 -0.0688
  769MOL0     C 1413   7.438   8.763   1.085  0.5943  0.0558 -0.2775
  769MOL0     C 1414   7.321   8.741   0.981  0.0143 -0.5745 -0.4018
  769MOL0     C 1415   7.185   8.774   1.043  0.1738  0.5465 -0.1323
  769MOL0     C 1416   7.070   8.749   0.937  0.9991 -0.3269 -0.9355
  769MOL0     C 1417   6.927   8.751   0.991  0.3510  0.5376  0.6275
  769MOL0     C 1418   6.841   8.883   0.968  0.1892  0.5995  0.6573
  769MOL0     C 1419   6.701   8.871   1.027 -0.0652 -0.0688  0.8949
  769MOL0    Cl 1420   6.605   9.007   0.973  0.5963 -0.1069  0.0866
  769MOL0     C 1421   7.860   8.722   0.993  0.9399  0.6515 -0.3291
  769MOL0     C 1422   7.990   8.685   0.975  0.6319 -0.3719  0.1710
  769MOL0     O 1423   8.121   8.373   0.931 -0.7593 -0.4618 -0.9065
  769MOL0     C 1424   8.443   8.433   1.073  0.6066 -0.0572 -0.3036
  769MOL0     C 1425   8.571   8.388   1.061 -0.5502 -1.4561  0.1299
  769MOL0     N 1426   9.189   7.788   0.800 -0.6352  0.1735  0.7448
  769MOL0     N 1427   9.299   7.722   0.783 -0.2515  0.4256  0.2618
  769MOL0     C 1428  10.694   7.719   1.018 -0.3364 -0.8021 -0.5045
  769MOL0     C 1429  10.825   7.738   0.971  0.1609 -0.0580  0.3327
  769MOL0     C 1430  11.188   7.877   0.707  0.5430  0.4883 -0.0923
  769MOL0     C 1431  11.264   7.893   0.825  0.3731 -0.0862 -0.0180
  769MOL0     C 1432  11.398   7.919   0.818  0.1371 -1.3611 -0.4860
  769MOL0     C 1433  11.465   7.914   0.696  0.3516  1.1374  1.1953
  769MOL0     O 1434  11.605   7.924   0.719  0.4377 -0.1866 -0.0458
  769MOL0     C 1435  11.691   7.857   0.638  0.7763 -0.0516 -1.2282
  769MOL0     C 1436  11.828   7.901   0.687 -0.3853 -0.8556  0.7474
  769MOL0     C 1437  11.870   8.031   0.618 -0.0431  0.0604  0.1525
  769MOL0     C 1438  11.999   8.086   0.682  0.1963 -0.4121  0.1695
  769MOL0     C 1439  12.032   8.199   0.609 -0.9520 -1.0495 -0.1996
  769MOL0     C 1440  12.057   8.313   0.582 -1.1276 -0.3444  0.5320
  769MOL0     C 1441  11.391   7.885   0.578 -0.0648 -0.3347 -0.4249
  769MOL0     C 1442  11.253   7.870   0.581  0.7891  0.1466 -0.3603
  769MOL0     H 1443  10.781   7.931   0.708  6.5010  1.5883  2.8751
  769MOL0     H 1444  10.533   7.848   0.746  0.3150  1.8382  0.7592
  769MOL0     H 1445  10.337   7.756   0.826  1.1421  0.1763  0.5169
  769MOL0     H 1446  10.328   7.885   0.952  3.2595  0.8877  0.5356
  769MOL0     H 1447  10.230   7.683   1.088 -0.1284 -1.0145 -0.3225
  769MOL0     H 1448  10.201   7.601   0.938 -0.2436  0.4081 -0.7160
  769MOL0     H 1449  10.066   7.767   0.849  0.1593  0.6547 -0.0491
  769MOL0     H 1450  10.100   7.885   0.972 -2.5865 -0.4208  0.2086
  769MOL0     H 1451   9.977   7.608   1.011 -3.1185  0.9197  0.1343
  769MOL0     H 1452  10.018   7.696   1.148  1.7424 -1.3283 -0.1911
  769MOL0     H 1453   9.851   7.868   1.057  2.4860 -0.2597  0.0143
  769MOL0     H 1454   9.781   7.718   1.132 -0.6214  0.1855  0.0420
  769MOL0     H 1455   9.739   7.628   0.905 -0.4017  0.8519  2.3182
  769MOL0     H 1456   9.781   7.779   0.838  1.0367 -0.1461 -0.0563
  769MOL0     H 1457   9.586   7.799   1.064  0.5611  4.2833 -0.3704
  769MOL0     H 1458   9.595   7.883   0.910 -1.1714  0.3805  0.9488
  769MOL0     H 1459   9.493   7.594   0.966  1.4616 -0.1112  0.1388
  769MOL0     H 1460   9.545   7.643   0.815  2.2175  1.7603 -0.2699
  769MOL0     H 1461   9.370   7.893   1.052  0.3177 -0.6896  0.4735
  769MOL0     H 1462   9.163   8.056   0.977  0.5151  0.8258 -0.9032
  769MOL0     H 1463   9.047   7.935   1.038  0.6868  1.0057  0.7395
  769MOL0     H 1464   8.931   7.952   0.799 -0.0133  0.0112 -1.5506
  769MOL0     H 1465   9.046   8.064   0.750  0.0304 -1.6764 -0.1477
  769MOL0     H 1466   8.951   8.154   0.998 -1.6442  2.0438  0.9469
  769MOL0     H 1467   8.979   8.240   0.843 -1.4663 -0.8816 -2.4658
  769MOL0     H 1468   8.731   8.073   0.890 -0.7547  1.3986  1.0714
  769MOL0     H 1469   8.759   8.202   0.767  0.8626  2.6895  0.1337
  769MOL0     H 1470   8.528   8.187   0.789  3.2992  0.4953 -0.0284
  769MOL0     H 1471   8.303   8.266   0.800  0.4929 -2.3407  0.3596
  769MOL0     H 1472   8.020   8.505   1.261  3.5138  0.2484 -1.0827
  769MOL0     H 1473   7.788   8.617   1.302 -2.1471  2.1217 -1.0359
  769MOL0     H 1474   7.570   8.664   0.956 -0.3415  0.1842 -1.9604
  769MOL0     H 1475   7.604   8.830   0.958  1.0670 -1.5066 -0.1409
  769MOL0     H 1476   7.420   8.864   1.124 -4.7402  0.5395 -3.0326
  769MOL0     H 1477   7.412   8.700   1.171 -2.0208 -0.3368 -1.2498
  769MOL0     H 1478   7.317   8.635   0.956  0.9435 -0.6492 -0.2700
  769MOL0     H 1479   7.328   8.799   0.889 -0.0920 -1.2924 -0.8703
  769MOL0     H 1480   7.166   8.692   1.114  1.0050 -1.7185 -2.3625
  769MOL0     H 1481   7.190   8.876   1.081  1.9793  1.3436 -2.3131
  769MOL0     H 1482   7.095   8.653   0.890  4.5400 -0.7708  1.5078
  769MOL0     H 1483   7.090   8.822   0.858  2.1935  0.6328  0.2068
  769MOL0     H 1484   6.930   8.738   1.099 -0.3324 -0.1806  0.5720
  769MOL0     H 1485   6.875   8.660   0.957 -2.3980  1.1747  2.7450
  769MOL0     H 1486   6.880   8.968   1.024  2.2537  0.6454 -0.7277
  769MOL0     H 1487   6.827   8.904   0.861 -0.9267 -0.1418  0.6398
  769MOL0     H 1488   6.699   8.852   1.135  0.1708 -0.0447  0.9041
  769MOL0     H 1489   6.649   8.783   0.988 -0.1868  0.7263 -0.8177
  769MOL0     H 1490   7.819   8.789   0.917 -1.1257 -1.4384 -1.1733
  769MOL0     H 1491   8.039   8.709   0.882 -1.1625  3.8034  0.1051
  769MOL0     H 1492   8.427   8.503   1.154  0.6517 -0.3528 -0.0333
  769MOL0     H 1493   8.652   8.433   1.116 -1.8399  0.9269  0.2450
  769MOL0     H 1494  10.669   7.656   1.103 -3.3994  1.6815  0.6408
  769MOL0     H 1495  10.900   7.672   1.013 -0.2557 -0.3578  0.6024
  769MOL0     H 1496  11.217   7.906   0.922  0.1953  1.7299 -0.3138
  769MOL0     H 1497  11.447   7.948   0.910  0.4710 -2.6789 -0.2339
  769MOL0     H 1498  11.683   7.886   0.533  2.1828  0.2869 -1.2758
  769MOL0     H 1499  11.677   7.751   0.661  0.1077  0.5108  1.2833
  769MOL0     H 1500  11.829   7.934   0.792  2.7596  4.0702 -0.4889
  769MOL0     H 1501  11.907   7.830   0.662  0.7589 -0.7439  3.6493
  769MOL0     H 1502  11.794   8.108   0.632 -0.1441 -0.0535  0.2219
  769MOL0     H 1503  11.889   8.000   0.515 -1.5545  0.4060 -0.2510
  769MOL0     H 1504  11.981   8.111   0.786  3.0183  0.6241  0.4991
  769MOL0     H 1505  12.088   8.024   0.665  3.3309  4.2841 -3.4809
  769MOL0     H 1506  12.080   8.412   0.548 -0.6661 -0.1107  1.4827
  769MOL0     H 1507  11.446   7.885   0.484  1.4397 -0.7090  0.4373
  769MOL0     H 1508  11.188   7.837   0.501 -1.1922  2.5816  0.1194
  770MOL0     O 1509   9.155   9.437   4.028  0.0771 -0.2986 -0.1441
  770MOL0     C 1510   9.155   9.512   3.933  0.3220 -0.4284  0.7378
  770MOL0     O 1511   9.048   9.582   3.882  0.8079  0.5258 -0.7672
  770MOL0     C 1512   8.924   9.536   3.913  1.0599  1.6021  0.4679
  770MOL0     C 1513   8.877   9.413   3.872  0.0891  0.8046  1.4742
  770MOL0     C 1514   8.764   9.362   3.929 -0.2223  0.3297 -0.7039
  770MOL0     C 1515   8.684   9.436   4.012 -0.7221  0.1537 -0.2382
  770MOL0     O 1516   8.562   9.386   4.066 -0.1648  0.2898 -0.5822
  770MOL0     C 1517   8.445   9.472   4.076 -0.7320 -0.4747  0.4870
  770MOL0     C 1518   8.395   9.491   4.213  0.1653  0.2853  0.9096
  770MOL0     C 1519   8.285   9.595   4.221  0.1184 -0.3805  0.2213
  770MOL0     C 1520   8.227   9.610   4.369  0.0376 -0.2174 -0.2293
  770MOL0     C 1521   8.075   9.655   4.372 -0.6991  0.0806 -0.4706
  770MOL0     C 1522   8.059   9.796   4.306  0.6868 -0.5688  0.5940
  770MOL0     C 1523   7.910   9.841   4.301 -0.4918  0.7595  0.2647
  770MOL0     C 1524   7.914   9.996   4.306 -0.5716  1.1649  0.3257
  770MOL0     N 1525   7.784  10.050   4.282  0.1271  0.2536  0.2049
  770MOL0     C 1526   7.735  10.118   4.171 -0.7518  0.1205 -0.5213
  770MOL0     C 1527   7.632  10.182   4.223  0.4444  0.0528  0.1323
  770MOL0     C 1528   7.562  10.294   4.142  0.5956  0.5725 -0.1940
  770MOL0     C 1529   7.428  10.244   4.092  0.4680 -0.8656  0.7754
  770MOL0     C 1530   7.344  10.358   4.015 -0.3710  0.4512 -0.3284
  770MOL0     C 1531   7.193  10.324   3.998 -0.4414 -0.1681  0.3641
  770MOL0     O 1532   7.151  10.446   3.934 -0.8764 -0.1394 -0.6296
  770MOL0     C 1533   7.022  10.470   3.903  0.5951  0.0917  0.6821
  770MOL0     C 1534   6.920  10.377   3.906  0.7590  1.2803  0.4455
  770MOL0     C 1535   6.784  10.404   3.878 -0.1423 -0.4486 -0.6717
  770MOL0     C 1536   6.746  10.527   3.842  0.4003 -1.0242 -0.1769
  770MOL0     C 1537   6.606  10.559   3.812 -0.3160  0.2850 -0.7380
  770MOL0     O 1538   6.519  10.459   3.854 -0.1142 -0.0413 -0.8047
  770MOL0     C 1539   6.383  10.484   3.836  0.8211  0.2213 -0.4577
  770MOL0     C 1540   6.320  10.556   3.938  0.2644  0.0479  0.4893
  770MOL0     C 1541   6.183  10.566   3.931  0.4511  1.5600 -0.1062
  770MOL0     C 1542   6.109  10.498   3.830  0.0800  0.7853 -0.6848
  770MOL0     O 1543   5.971  10.506   3.831 -0.2010 -0.4555 -0.5336
  770MOL0     C 1544   5.916  10.645   3.821  0.2565  1.0174 -0.6550
  770MOL0     C 1545   5.922  10.706   3.680 -0.0216  1.3384 -0.8130
  770MOL0     C 1546   5.895  10.610   3.575 -0.6240 -0.1745  0.3684
  770MOL0     C 1547   5.854  10.681   3.448  0.9337 -0.4468  0.5281
  770MOL0     C 1548   5.837  10.583   3.325 -0.6522  0.4089 -0.3653
  770MOL0     C 1549   5.971  10.561   3.252  0.6052 -0.0627  0.3235
  770MOL0     C 1550   6.051  10.431   3.300  0.2027  0.2268 -0.7551
  770MOL0     C 1551   6.144  10.369   3.200  1.0489  0.2122  0.0848
  770MOL0    Cl 1552   6.039  10.300   3.068 -0.0462 -0.0577 -0.5606
  770MOL0     C 1553   6.174  10.426   3.733  0.0152 -0.1026 -0.0060
  770MOL0     C 1554   6.312  10.415   3.740  0.3199  0.4154  0.5486
  770MOL0     O 1555   6.576  10.666   3.769  0.0801 -1.0409 -1.1780
  770MOL0     C 1556   6.848  10.628   3.830 -0.1835 -0.5905 -0.3903
  770MOL0     C 1557   6.979  10.597   3.860 -0.4991 -0.4419  0.4681
  770MOL0     N 1558   7.611  10.142   4.351 -0.3481 -0.3454 -0.7679
  770MOL0     N 1559   7.703  10.062   4.385  0.1693 -0.1190 -0.3549
  770MOL0     C 1560   8.725   9.568   4.041 -0.0498  0.0296  0.3976
  770MOL0     C 1561   8.848   9.611   4.001 -0.0055  0.3369 -0.1310
  770MOL0     C 1562   9.287   9.552   3.881 -0.4701 -0.9605  0.2108
  770MOL0     C 1563   9.293   9.651   3.779  0.0783  0.0822 -0.8185
  770MOL0     C 1564   9.406   9.675   3.697  0.8111  0.2423  0.1851
  770MOL0     C 1565   9.512   9.579   3.711  0.4080  0.0087  0.1982
  770MOL0     O 1566   9.627   9.582   3.638  0.7878  0.2146  0.0860
  770MOL0     C 1567   9.633   9.654   3.522 -0.0047 -0.0231  0.5734
  770MOL0     C 1568   9.780   9.648   3.476  0.7051  0.1154  1.6105
  770MOL0     C 1569   9.784   9.696   3.323 -0.2129  0.0758  0.0014
  770MOL0     C 1570   9.925   9.710   3.267  0.4492 -0.9643  0.5208
  770MOL0     C 1571   9.989   9.829   3.316  0.2792 -0.8720 -0.2012
  770MOL0     C 1572  10.027   9.939   3.357  0.1314 -0.3285 -0.4929
  770MOL0     C 1573   9.516   9.493   3.813 -0.8426  0.0632 -0.6046
  770MOL0     C 1574   9.400   9.479   3.901  0.6785  0.0737 -0.7125
  770MOL0     H 1575   8.935   9.359   3.798 -0.4354  5.1865 -2.5728
  770MOL0     H 1576   8.726   9.271   3.884  1.8736 -0.1589 -1.5779
  770MOL0     H 1577   8.359   9.423   4.028 -1.4358  2.1194 -1.0764
  770MOL0     H 1578   8.465   9.563   4.019 -0.5776  0.5142  2.0798
  770MOL0     H 1579   8.479   9.532   4.270  1.5827 -2.2774  0.7675
  770MOL0     H 1580   8.367   9.394   4.254  2.3225 -0.3062  1.1136
  770MOL0     H 1581   8.204   9.561   4.155  1.0455 -1.2971 -0.4625
  770MOL0     H 1582   8.320   9.693   4.185 -0.2260  1.1884  3.7143
  770MOL0     H 1583   8.233   9.512   4.418  4.4790  0.4928  1.0726
  770MOL0     H 1584   8.282   9.686   4.427 -3.3656  4.2385 -2.2162
  770MOL0     H 1585   8.047   9.677   4.476  1.9072  1.9373 -0.0530
  770MOL0     H 1586   8.009   9.586   4.320  1.5161  0.1557 -3.6361
  770MOL0     H 1587   8.094   9.790   4.202  2.2858 -0.3854  1.0928
  770MOL0     H 1588   8.112   9.870   4.365  1.3862  0.1951 -0.9300
  770MOL0     H 1589   7.866   9.809   4.206 -0.2486  0.2010  0.3373
  770MOL0     H 1590   7.855   9.801   4.387  2.5513 -2.2505  1.0098
  770MOL0     H 1591   7.988  10.023   4.231  0.1283 -4.9471 -1.7753
  770MOL0     H 1592   7.952  10.026   4.404  0.1474  3.5352 -0.6076
  770MOL0     H 1593   7.777  10.119   4.071  0.0569 -2.6125 -0.2851
  770MOL0     H 1594   7.624  10.336   4.062  0.3299  1.1199 -0.1204
  770MOL0     H 1595   7.549  10.374   4.216 -0.6013  1.2416 -1.0875
  770MOL0     H 1596   7.376  10.227   4.186 -0.7187 -0.0181  0.2992
  770MOL0     H 1597   7.439  10.149   4.040 -2.3457 -1.2921  0.8316
  770MOL0     H 1598   7.338  10.446   4.080 -0.6425 -1.2888  2.1042
  770MOL0     H 1599   7.392  10.396   3.924 -3.6237  0.2269 -2.2991
  770MOL0     H 1600   7.137  10.305   4.090 -2.4806  2.2896 -0.2446
  770MOL0     H 1601   7.181  10.239   3.930  0.5944 -1.1489  1.3861
  770MOL0     H 1602   6.945  10.280   3.947  1.0177  1.2833  0.2942
  770MOL0     H 1603   6.712  10.330   3.911  0.6340 -0.5208  1.0085
  770MOL0     H 1604   6.369  10.613   4.016  1.6477  1.7017 -1.4768
  770MOL0     H 1605   6.132  10.609   4.016 -1.3502 -0.8352  0.1433
  770MOL0     H 1606   5.978  10.718   3.875  2.3615 -0.6358 -0.7077
  770MOL0     H 1607   5.813  10.632   3.854  0.4033  0.3135 -0.4725
  770MOL0     H 1608   6.026  10.731   3.661  0.2183  0.0938 -1.2705
  770MOL0     H 1609   5.860  10.795   3.670  1.7008  2.8215  1.0734
  770MOL0     H 1610   5.824  10.533   3.606 -2.0004  1.0939  0.4805
  770MOL0     H 1611   5.995  10.573   3.553 -1.1568 -0.5814 -1.5126
  770MOL0     H 1612   5.761  10.739   3.454  1.5597  1.3886 -3.6267
  770MOL0     H 1613   5.923  10.763   3.428  3.3184 -2.4050  0.2984
  770MOL0     H 1614   5.769  10.635   3.257  0.4477  1.8478 -0.4154
  770MOL0     H 1615   5.795  10.489   3.363  0.2548  0.0354 -0.2845
  770MOL0     H 1616   6.023  10.657   3.256  0.1708  0.2483 -0.9588
  770MOL0     H 1617   5.941  10.547   3.148 -1.2875 -1.6567  1.0116
  770MOL0     H 1618   6.110  10.462   3.387  1.2423  0.0148 -1.3678
  770MOL0     H 1619   5.981  10.357   3.340  0.1269 -0.0232 -1.3425
  770MOL0     H 1620   6.203  10.283   3.233 -1.5137 -2.1096 -0.9490
  770MOL0     H 1621   6.212  10.444   3.162  0.5757  1.2840  1.2815
  770MOL0     H 1622   6.129  10.370   3.651  1.0374  0.0852 -0.7235
  770MOL0     H 1623   6.370  10.346   3.680  1.8612 -0.2538  2.6903
  770MOL0     H 1624   6.829  10.732   3.803  0.9072  0.4232  2.2953
  770MOL0     H 1625   7.058  10.668   3.842  0.0308 -0.9031  0.9255
  770MOL0     H 1626   8.657   9.619   4.108 -0.8292 -1.2400  0.6211
  770MOL0     H 1627   8.888   9.707   4.034 -1.7830  1.1701 -0.2855
  770MOL0     H 1628   9.213   9.722   3.757  0.3678  0.7326  0.1493
  770MOL0     H 1629   9.413   9.761   3.630  1.1400  2.2673  2.6659
  770MOL0     H 1630   9.608   9.760   3.534  1.8030  0.2867  1.9796
  770MOL0     H 1631   9.569   9.600   3.452 -0.0642 -1.9130  2.0071
  770MOL0     H 1632   9.850   9.708   3.535  4.9964 -1.2412 -1.5991
  770MOL0     H 1633   9.822   9.547   3.485 -0.3680 -0.7966 -1.8866
  770MOL0     H 1634   9.725   9.788   3.314 -1.3182 -0.4746  1.3588
  770MOL0     H 1635   9.736   9.619   3.262  1.3716 -0.3015 -0.8486
  770MOL0     H 1636   9.979   9.627   3.314 -1.4645 -0.8451  3.2116
  770MOL0     H 1637   9.930   9.720   3.158 -1.4438  1.1301  0.5635
  770MOL0     H 1638  10.052  10.038   3.387  0.1488 -0.8016  1.1076
  770MOL0     H 1639   9.597   9.422   3.821 -0.4980  0.4145 -0.9359
  770MOL0     H 1640   9.395   9.400   3.975 -2.7174 -1.0492 -1.9532
  771MOL0     O 1641   6.892   9.631   1.069 -0.6431  0.4958 -0.4488
  771MOL0     C 1642   6.947   9.730   1.119 -0.4084 -0.6900  0.6812
  771MOL0     O 1643   6.899   9.850   1.113  0.0649 -0.0948  0.0071
  771MOL0     C 1644   6.772   9.873   1.057  0.1908 -0.1245  0.3499
  771MOL0     C 1645   6.763   9.959   0.944 -1.0141 -0.0784  0.5684
  771MOL0     C 1646   6.639   9.993   0.895 -0.4270  0.9364 -0.2057
  771MOL0     C 1647   6.517   9.961   0.963 -0.0824 -0.7411 -0.0265
  771MOL0     O 1648   6.391  10.010   0.924  0.1693  0.4201 -0.3253
  771MOL0     C 1649   6.363  10.031   0.789  0.1871  0.3954 -0.0135
  771MOL0     C 1650   6.220  10.010   0.751  0.8261  0.2384 -0.0145
  771MOL0     C 1651   6.121  10.116   0.807 -0.7209 -0.0170 -0.4553
  771MOL0     C 1652   5.982  10.075   0.757 -0.3794 -0.3600  0.0971
  771MOL0     C 1653   5.858  10.143   0.826 -0.5140 -0.3896 -0.3615
  771MOL0     C 1654   5.740  10.071   0.769 -0.9709  0.1736  0.4214
  771MOL0     C 1655   5.640  10.037   0.877 -0.5408  0.3304 -0.4838
  771MOL0     C 1656   5.545   9.938   0.828  0.8335 -0.5122 -0.1993
  771MOL0     N 1657   5.437   9.990   0.742 -0.4070 -0.1120  0.2334
  771MOL0     C 1658   5.302   9.953   0.741  0.1223  0.3040 -0.5000
  771MOL0     C 1659   5.235  10.050   0.666 -0.1829 -0.4533 -1.2113
  771MOL0     C 1660   5.099  10.045   0.620  0.2151  0.3203 -0.3248
  771MOL0     C 1661   5.032  10.179   0.591 -0.2121 -0.3715  0.2471
  771MOL0     C 1662   4.884  10.150   0.552  1.5604  0.2322  0.3267
  771MOL0     C 1663   4.853  10.120   0.404 -0.9996 -0.6877 -0.3146
  771MOL0     O 1664   4.751  10.210   0.363  0.0311 -0.1868 -0.6111
  771MOL0     C 1665   4.630  10.182   0.407  0.3223  0.5564 -0.0015
  771MOL0     C 1666   4.577  10.056   0.440  0.0845  0.7071 -0.9308
  771MOL0     C 1667   4.454  10.048   0.504  0.7592  0.3302 -0.1395
  771MOL0     C 1668   4.370  10.160   0.528  0.2985 -0.1097 -1.4112
  771MOL0     C 1669   4.240  10.146   0.595  0.2450 -0.3530 -0.4743
  771MOL0     O 1670   4.235  10.095   0.723  0.0117  0.1448  1.0932
  771MOL0     C 1671   4.118  10.083   0.794  0.2215  0.0763  1.4398
  771MOL0     C 1672   4.008   9.998   0.757  0.0529 -0.0699  0.2481
  771MOL0     C 1673   3.900   9.982   0.842 -0.6202  0.4730  0.4856
  771MOL0     C 1674   3.888  10.060   0.958 -0.5776  0.0316 -1.0757
  771MOL0     O 1675   3.783  10.060   1.048 -0.1236 -0.7054  0.0034
  771MOL0     C 1676   3.695   9.949   1.070  0.4113 -0.1543 -0.6382
  771MOL0     C 1677   3.776   9.833   1.138 -0.5756 -0.7104  0.4885
  771MOL0     C 1678   3.701   9.758   1.256 -0.1390 -0.1007  0.0904
  771MOL0     C 1679   3.789   9.632   1.302  0.5186 -0.0502  0.6420
  771MOL0     C 1680   3.699   9.528   1.361  0.0752 -0.0335 -0.9512
  771MOL0     C 1681   3.783   9.415   1.400  0.3250 -0.1590  0.2999
  771MOL0     C 1682   3.690   9.287   1.432 -0.3791  0.3714  0.3367
  771MOL0     C 1683   3.760   9.152   1.406  0.3648  0.1124  0.4133
  771MOL0    Cl 1684   3.676   9.005   1.468  0.3372 -0.2808 -0.2109
  771MOL0     C 1685   3.995  10.135   1.002 -0.2108 -0.1157 -0.1317
  771MOL0     C 1686   4.106  10.147   0.917 -0.0584  0.6302  0.4417
  771MOL0     O 1687   4.141  10.195   0.533  0.0089  0.0030 -0.2288
  771MOL0     C 1688   4.422  10.286   0.497 -0.3435 -0.1517  0.0538
  771MOL0     C 1689   4.545  10.294   0.439  0.7699 -0.0076  0.7813
  771MOL0     N 1690   5.323  10.143   0.624  0.0297  0.4753  0.0237
  771MOL0     N 1691   5.441  10.097   0.665  0.2251 -0.8042  0.7869
  771MOL0     C 1692   6.524   9.860   1.065 -0.0840  0.1666 -0.4726
  771MOL0     C 1693   6.656   9.819   1.112 -0.6657  0.3688  0.2504
  771MOL0     C 1694   7.076   9.717   1.185 -0.1989  1.4124  0.1686
  771MOL0     C 1695   7.135   9.822   1.258 -1.1512 -0.2711 -0.6588
  771MOL0     C 1696   7.254   9.812   1.330  0.1728  1.0726  0.2473
  771MOL0     C 1697   7.328   9.689   1.317  0.0770 -0.2829 -0.2225
  771MOL0     O 1698   7.461   9.656   1.356  0.4152 -0.2044  0.0370
  771MOL0     C 1699   7.513   9.723   1.462 -1.2312 -0.0802 -0.8343
  771MOL0     C 1700   7.665   9.695   1.469  0.4350  0.3481 -0.0463
  771MOL0     C 1701   7.751   9.753   1.356  0.1357  0.1903  0.0991
  771MOL0     C 1702   7.733   9.907   1.347 -0.8824 -0.8794 -0.3124
  771MOL0     C 1703   7.789   9.976   1.467  0.7883  0.4097 -0.3042
  771MOL0     C 1704   7.823  10.011   1.580  0.3944 -0.1467 -0.6447
  771MOL0     C 1705   7.272   9.593   1.224  0.5793 -0.3682  0.3160
  771MOL0     C 1706   7.151   9.599   1.162  0.3598  0.4949 -0.5668
  771MOL0     H 1707   6.847  10.017   0.905  0.3717 -1.7523  0.9580
  771MOL0     H 1708   6.631  10.061   0.811  1.2102 -0.2887 -1.4261
  771MOL0     H 1709   6.423   9.961   0.730 -1.4857 -0.1899 -1.0821
  771MOL0     H 1710   6.389  10.133   0.760 -0.3816  0.6404  0.3213
  771MOL0     H 1711   6.196   9.907   0.778  2.3807 -0.6703 -1.8784
  771MOL0     H 1712   6.204  10.014   0.643 -1.0683 -0.0299  0.2113
  771MOL0     H 1713   6.145  10.214   0.765 -1.6713  0.8451  0.9226
  771MOL0     H 1714   6.113  10.100   0.915  1.3243 -3.3025 -0.6520
  771MOL0     H 1715   5.975  10.105   0.651 -1.6943 -3.0476 -0.6539
  771MOL0     H 1716   5.977   9.966   0.764  0.2372 -0.4024 -0.1007
  771MOL0     H 1717   5.855  10.248   0.794 -1.2968 -0.3876 -0.3013
  771MOL0     H 1718   5.870  10.133   0.934 -0.7213  2.0260 -0.0586
  771MOL0     H 1719   5.775   9.992   0.702  0.2974  1.0833 -0.0343
  771MOL0     H 1720   5.687  10.127   0.691  1.4178 -1.4965 -2.6806
  771MOL0     H 1721   5.684   9.998   0.969  2.6461  0.1720 -1.9301
  771MOL0     H 1722   5.580  10.127   0.897  0.1841  0.4383  1.3531
  771MOL0     H 1723   5.516   9.884   0.919  0.7549 -2.4890 -1.3239
  771MOL0     H 1724   5.595   9.863   0.765  0.8123 -1.7060  1.1645
  771MOL0     H 1725   5.264   9.861   0.784  3.1356 -1.3274 -0.9977
  771MOL0     H 1726   5.041   9.986   0.693  1.9480 -2.1478 -0.8130
  771MOL0     H 1727   5.112   9.985   0.529  1.6464 -0.4170  0.3420
  771MOL0     H 1728   5.070  10.240   0.508 -0.8376 -0.6919 -0.2855
  771MOL0     H 1729   5.036  10.238   0.683  1.5626 -1.4104  0.8904
  771MOL0     H 1730   4.853  10.063   0.611 -0.0116  1.1794  0.9573
  771MOL0     H 1731   4.825  10.238   0.579  2.3884  1.3520 -1.3636
  771MOL0     H 1732   4.829  10.014   0.389 -0.0326 -0.6819 -2.2160
  771MOL0     H 1733   4.945  10.133   0.346  0.0434 -0.8557  1.2428
  771MOL0     H 1734   4.635   9.967   0.420  1.4318  1.5916 -1.0816
  771MOL0     H 1735   4.410   9.949   0.511 -1.7284  1.4773  2.4387
  771MOL0     H 1736   4.011   9.935   0.669  2.5873  1.8476 -1.1991
  771MOL0     H 1737   3.834   9.907   0.799  1.4858 -0.2182 -1.8140
  771MOL0     H 1738   3.637   9.933   0.979  0.6754  2.5438 -1.3661
  771MOL0     H 1739   3.619   9.975   1.144  1.3680 -2.2300  1.2028
  771MOL0     H 1740   3.870   9.870   1.180 -1.3038 -0.5061  1.9942
  771MOL0     H 1741   3.801   9.763   1.058  2.9585 -1.5964  2.1595
  771MOL0     H 1742   3.600   9.725   1.228 -0.2766 -1.4592  1.9550
  771MOL0     H 1743   3.684   9.817   1.347 -3.2439  2.0465 -1.7055
  771MOL0     H 1744   3.829   9.585   1.212 -0.6145 -0.4589  0.3220
  771MOL0     H 1745   3.871   9.659   1.369  2.8194 -2.8051 -0.8464
  771MOL0     H 1746   3.635   9.503   1.276  2.2226 -1.8346 -2.1582
  771MOL0     H 1747   3.630   9.552   1.443 -0.0065 -2.8653 -0.0962
  771MOL0     H 1748   3.833   9.441   1.494 -1.5334  1.1330  0.9756
  771MOL0     H 1749   3.864   9.395   1.329  3.2807  3.3845  2.3261
  771MOL0     H 1750   3.656   9.298   1.536 -0.4707  0.4523  0.2979
  771MOL0     H 1751   3.605   9.297   1.364  0.3025 -0.4996 -0.6697
  771MOL0     H 1752   3.856   9.145   1.459 -0.1802  1.1041  1.5708
  771MOL0     H 1753   3.785   9.135   1.301  0.4827 -2.0099  0.7518
  771MOL0     H 1754   3.992  10.198   1.089  0.2520 -1.8185  1.1757
  771MOL0     H 1755   4.191  10.207   0.948  0.8256 -0.6187  0.4930
  771MOL0     H 1756   4.369  10.377   0.524  0.8362  0.5780 -0.0457
  771MOL0     H 1757   4.573  10.397   0.417  0.2812 -0.0723 -0.1842
  771MOL0     H 1758   6.426   9.833   1.103  0.2522 -2.0595 -1.0259
  771MOL0     H 1759   6.666   9.749   1.194 -1.7580  2.0520  1.9126
  771MOL0     H 1760   7.073   9.910   1.277 -0.0083  0.6160 -0.9355
  771MOL0     H 1761   7.294   9.884   1.399  1.9032  0.0749  0.3443
  771MOL0     H 1762   7.480   9.670   1.552  0.8392  1.6518  1.0676
  771MOL0     H 1763   7.495   9.830   1.454  0.6380  0.2094 -2.0632
  771MOL0     H 1764   7.700   9.743   1.560  0.1507 -1.0181  0.8085
  771MOL0     H 1765   7.690   9.591   1.488 -0.3037  0.6683  3.1242
  771MOL0     H 1766   7.708   9.708   1.265 -1.2528  2.1334 -0.2680
  771MOL0     H 1767   7.858   9.730   1.366  0.1804  0.7718  0.9925
  771MOL0     H 1768   7.778   9.955   1.260 -2.2719  0.4581 -0.3360
  771MOL0     H 1769   7.627   9.929   1.331 -0.8266 -0.7892 -0.5599
  771MOL0     H 1770   7.840  10.054   1.676 -3.6414 -0.9195  0.6171
  771MOL0     H 1771   7.312   9.496   1.195  1.9377  0.4112 -0.4734
  771MOL0     H 1772   7.112   9.524   1.095  2.3784  0.1338 -1.4091
  772MOL0     O 1773   3.423  10.911   5.956 -0.2786 -0.3017 -0.4414
  772MOL0     C 1774   3.388  10.843   5.856 -0.0031 -1.4746 -0.0747
  772MOL0     O 1775   3.468  10.783   5.763 -0.7020  0.3693 -0.2940
  772MOL0     C 1776   3.599  10.841   5.763  1.3515 -1.0133 -0.3615
  772MOL0     C 1777   3.618  10.975   5.713 -0.0146  0.2645  0.2128
  772MOL0     C 1778   3.751  11.034   5.708  0.6258  0.0780  0.0390
  772MOL0     C 1779   3.859  10.959   5.760 -0.3974 -0.0464  0.2059
  772MOL0     O 1780   3.980  11.019   5.767 -0.7976  0.4902 -0.2089
  772MOL0     C 1781   4.026  11.022   5.903 -0.8853  0.7619 -0.8421
  772MOL0     C 1782   4.184  11.019   5.893  0.6819  0.1893 -0.2101
  772MOL0     C 1783   4.260  11.048   6.021 -0.0642  0.2659 -0.0818
  772MOL0     C 1784   4.405  11.075   6.000 -0.8749  0.1365 -0.4508
  772MOL0     C 1785   4.497  11.004   6.091 -0.7432  0.4153  0.7569
  772MOL0     C 1786   4.643  11.048   6.078  0.2176 -0.6525  0.3480
  772MOL0     C 1787   4.740  10.937   6.119  0.1328  0.3907 -0.0100
  772MOL0     C 1788   4.888  10.953   6.088  0.6824 -0.6399 -0.1940
  772MOL0     N 1789   4.942  11.072   6.163 -0.1841  0.9691  0.2458
  772MOL0     C 1790   5.008  11.183   6.100  0.6122  0.5081  0.8392
  772MOL0     C 1791   5.071  11.248   6.197  0.3952 -0.4336 -0.6814
  772MOL0     C 1792   5.138  11.385   6.186  0.8002 -0.3209  0.0184
  772MOL0     C 1793   5.271  11.381   6.105  0.4803  0.7205 -0.2825
  772MOL0     C 1794   5.384  11.322   6.191 -0.0829 -0.2329  0.0958
  772MOL0     C 1795   5.514  11.300   6.104  0.3580  0.0884 -0.1731
  772MOL0     O 1796   5.498  11.182   6.023 -0.2293  0.7380  0.7399
  772MOL0     C 1797   5.618  11.120   5.977  0.2073  0.5212  0.3651
  772MOL0     C 1798   5.597  10.999   5.916  0.2834 -1.1414  0.1782
  772MOL0     C 1799   5.708  10.920   5.876  0.0242 -1.1321  0.3500
  772MOL0     C 1800   5.843  10.970   5.888 -0.3170 -0.0293  0.3176
  772MOL0     C 1801   5.960  10.882   5.842  0.1757 -0.2544  0.4167
  772MOL0     O 1802   6.075  10.913   5.893  0.7547 -0.0624 -0.3412
  772MOL0     C 1803   6.182  10.833   5.887  0.0609  0.9216  0.3344
  772MOL0     C 1804   6.246  10.808   6.013  0.5624  0.6972 -0.2769
  772MOL0     C 1805   6.359  10.727   6.024 -0.0579 -1.4301  0.0477
  772MOL0     C 1806   6.403  10.660   5.908 -0.1216  0.1698 -0.3281
  772MOL0     O 1807   6.508  10.564   5.929 -0.0761 -0.4266  0.5002
  772MOL0     C 1808   6.601  10.543   5.819  0.0845  0.4214  0.6893
  772MOL0     C 1809   6.721  10.456   5.862 -0.1588  1.1137 -0.1170
  772MOL0     C 1810   6.677  10.315   5.896 -0.0384 -0.1141 -0.0416
  772MOL0     C 1811   6.806  10.227   5.930  0.6822  0.1606 -0.1741
  772MOL0     C 1812   6.766  10.084   5.956 -1.1091 -0.1271 -0.1842
  772MOL0     C 1813   6.886   9.989   5.962 -0.7392  0.3319  0.4326
  772MOL0     C 1814   6.942   9.966   5.818  0.4273 -0.5832  0.4100
  772MOL0     C 1815   7.075   9.886   5.810 -0.3478 -0.8295 -0.1426
  772MOL0    Cl 1816   7.055   9.721   5.869  0.3332  0.0176 -0.4577
  772MOL0     C 1817   6.352  10.694   5.779  0.5520  0.4126  0.3454
  772MOL0     C 1818   6.236  10.773   5.768 -0.0693  0.1020 -0.3739
  772MOL0     O 1819   5.937  10.785   5.775  0.0520 -0.2710  0.0151
  772MOL0     C 1820   5.856  11.095   5.953 -0.2567  0.4201 -0.1624
  772MOL0     C 1821   5.744  11.172   5.990 -0.6037 -0.1924  0.1752
  772MOL0     N 1822   5.049  11.179   6.311  0.1779 -0.6648  0.0503
  772MOL0     N 1823   4.982  11.071   6.289  1.1290  0.4348 -0.7321
  772MOL0     C 1824   3.836  10.823   5.800 -0.7567  0.0878 -0.3277
  772MOL0     C 1825   3.709  10.774   5.797  0.2219  1.2423 -0.0673
  772MOL0     C 1826   3.246  10.822   5.857  0.4717  0.4836  0.3478
  772MOL0     C 1827   3.185  10.769   5.743  1.3593  0.9900  0.5839
  772MOL0     C 1828   3.043  10.740   5.741  0.1271 -0.6756 -0.4344
  772MOL0     C 1829   2.965  10.761   5.856 -0.5585  1.1532  0.5858
  772MOL0     O 1830   2.839  10.705   5.852  0.1150  0.0871 -0.1680
  772MOL0     C 1831   2.790  10.666   5.984  0.4577  0.0311  0.3040
  772MOL0     C 1832   2.685  10.553   5.964 -0.4444 -0.3418 -0.0521
  772MOL0     C 1833   2.551  10.623   5.918 -1.1177 -0.1536 -0.1857
  772MOL0     C 1834   2.437  10.516   5.906 -0.3535 -0.2007 -0.3428
  772MOL0     C 1835   2.302  10.565   5.943  0.0790  0.9153 -0.5511
  772MOL0     C 1836   2.202  10.609   5.991 -0.3707  1.0190 -0.4367
  772MOL0     C 1837   3.034  10.816   5.968  0.0576  0.1194  0.3121
  772MOL0     C 1838   3.168  10.847   5.972  0.0488  0.7549 -0.4796
  772MOL0     H 1839   3.526  11.021   5.680 -0.1978 -1.2667 -1.5620
  772MOL0     H 1840   3.774  11.126   5.656  1.6235 -0.6797 -0.9046
  772MOL0     H 1841   3.992  10.942   5.970 -0.8510  0.3360 -1.3236
  772MOL0     H 1842   3.980  11.112   5.943 -3.9262 -1.4361  1.0238
  772MOL0     H 1843   4.205  11.091   5.814  1.1131  0.0151 -0.2575
  772MOL0     H 1844   4.208  10.917   5.862  0.3269 -0.2040  0.7699
  772MOL0     H 1845   4.258  10.959   6.085  1.5790 -0.4754 -1.0134
  772MOL0     H 1846   4.220  11.126   6.087  0.4212 -0.8394  1.5813
  772MOL0     H 1847   4.434  11.031   5.904 -3.8934 -1.1651 -0.8799
  772MOL0     H 1848   4.417  11.184   5.998 -2.4945  0.3538 -0.0753
  772MOL0     H 1849   4.496  10.899   6.058  0.4928  1.6235 -3.8345
  772MOL0     H 1850   4.468  11.016   6.195 -0.3617  2.4733  0.6576
  772MOL0     H 1851   4.658  11.138   6.139  1.8739  0.5504 -1.6886
  772MOL0     H 1852   4.657  11.068   5.971 -0.9550  1.7854  0.5777
  772MOL0     H 1853   4.727  10.916   6.226  0.3506  2.6955  0.5137
  772MOL0     H 1854   4.708  10.846   6.067  3.4125 -0.3473 -0.9743
  772MOL0     H 1855   4.898  10.961   5.979  0.7789  1.5091 -0.0702
  772MOL0     H 1856   4.947  10.866   6.117 -0.7448 -1.5447  0.0648
  772MOL0     H 1857   5.009  11.209   5.995 -0.6319 -0.8003  0.4699
  772MOL0     H 1858   5.155  11.421   6.288  2.5286  2.4505 -1.1176
  772MOL0     H 1859   5.069  11.450   6.131  1.5307  0.4807  0.0227
  772MOL0     H 1860   5.293  11.484   6.075 -1.5092  0.9527 -1.1194
  772MOL0     H 1861   5.262  11.320   6.015 -1.4307 -0.0085  0.3509
  772MOL0     H 1862   5.410  11.388   6.274 -1.2917  0.8348 -0.3439
  772MOL0     H 1863   5.358  11.226   6.237  0.3489  1.2154  3.6710
  772MOL0     H 1864   5.594  11.284   6.177  0.0473 -0.2647  0.0938
  772MOL0     H 1865   5.535  11.389   6.044  2.1201 -0.0646  0.1722
  772MOL0     H 1866   5.493  10.975   5.897 -0.7526  2.9234 -0.0032
  772MOL0     H 1867   5.684  10.822   5.836  2.5158 -1.3567 -0.7600
  772MOL0     H 1868   6.191  10.837   6.102  0.7112 -1.5280  0.5969
  772MOL0     H 1869   6.387  10.695   6.124 -2.1394 -0.8425  0.8706
  772MOL0     H 1870   6.641  10.641   5.792 -2.4741  1.3903  0.1298
  772MOL0     H 1871   6.549  10.490   5.739 -3.2997  2.5685  1.2897
  772MOL0     H 1872   6.781  10.485   5.948  1.3633 -2.5542  0.2483
  772MOL0     H 1873   6.792  10.457   5.779 -0.1473  2.8226 -0.1313
  772MOL0     H 1874   6.642  10.268   5.804 -0.3332  0.2441 -0.1167
  772MOL0     H 1875   6.611  10.303   5.982 -0.2015 -2.0286 -0.3885
  772MOL0     H 1876   6.885  10.248   5.858  0.3982  0.5870 -0.3634
  772MOL0     H 1877   6.847  10.265   6.024  4.5084  0.9175 -1.9476
  772MOL0     H 1878   6.698  10.051   5.877  0.9214 -2.5121 -1.0601
  772MOL0     H 1879   6.710  10.083   6.050 -0.4499 -4.0978  0.3374
  772MOL0     H 1880   6.843   9.899   6.006 -1.3844  1.7305  2.8315
  772MOL0     H 1881   6.962  10.038   6.023  0.4529  0.0434 -0.7685
  772MOL0     H 1882   6.876   9.914   5.748  1.8724  0.2976 -1.6963
  772MOL0     H 1883   6.956  10.064   5.773  1.3194 -1.1866 -0.7088
  772MOL0     H 1884   7.147   9.942   5.870 -0.2738  0.2716 -1.2071
  772MOL0     H 1885   7.111   9.878   5.707  0.2347 -4.0112  0.2050
  772MOL0     H 1886   6.394  10.647   5.691  1.0890  3.2132 -1.0166
  772MOL0     H 1887   6.203  10.794   5.667  3.8333  1.7161 -1.4822
  772MOL0     H 1888   5.944  11.155   5.972 -0.5500  1.1374 -0.9673
  772MOL0     H 1889   5.763  11.265   6.042 -3.5055  2.3774 -2.9126
  772MOL0     H 1890   3.921  10.760   5.827  0.5186  1.1294 -1.7205
  772MOL0     H 1891   3.680  10.672   5.817 -0.7547  1.9814  2.9431
  772MOL0     H 1892   3.244  10.754   5.653  0.0517  1.6309 -0.3983
  772MOL0     H 1893   2.982  10.694   5.664 -0.4272 -1.9596  0.7356
  772MOL0     H 1894   2.744  10.760   6.018  2.0458  0.1920  2.2128
  772MOL0     H 1895   2.874  10.623   6.039 -0.2415 -1.8995 -0.0602
  772MOL0     H 1896   2.715  10.473   5.896 -1.7241 -1.0416  0.1901
  772MOL0     H 1897   2.676  10.509   6.064 -0.8300 -1.0780 -0.4095
  772MOL0     H 1898   2.563  10.676   5.823 -2.6082 -3.1307 -2.1915
  772MOL0     H 1899   2.517  10.702   5.986 -2.1363 -0.0264 -0.8142
  772MOL0     H 1900   2.440  10.486   5.801  0.3937  0.0568 -0.4045
  772MOL0     H 1901   2.461  10.425   5.961 -0.9589  0.4830  1.1358
  772MOL0     H 1902   2.115  10.646   6.043 -0.4109  2.4414 -1.4606
  772MOL0     H 1903   2.985  10.835   6.063 -1.6062  0.9618 -0.6781
  772MOL0     H 1904   3.215  10.881   6.064  0.8012 -0.8622 -0.2306
  773MOL0     O 1905  10.301   7.002   1.728  0.0572 -0.2584  0.0499
  773MOL0     C 1906  10.372   6.974   1.825 -0.3711  0.5292 -1.1820
  773MOL0     O 1907  10.345   6.994   1.953 -0.1410  0.0464 -0.1750
  773MOL0     C 1908  10.227   7.046   1.997 -0.0745 -0.6094  0.1655
  773MOL0     C 1909  10.212   7.180   2.049 -1.2359 -0.5416 -0.8410
  773MOL0     C 1910  10.094   7.223   2.107  0.8216  0.3569  0.3694
  773MOL0     C 1911   9.986   7.137   2.115  0.2653 -0.2068 -0.4244
  773MOL0     O 1912   9.874   7.189   2.182 -0.5720 -0.5641 -0.2682
  773MOL0     C 1913   9.746   7.119   2.183 -0.1109  0.2417 -0.5470
  773MOL0     C 1914   9.655   7.209   2.269  0.1507  0.4326 -0.5033
  773MOL0     C 1915   9.517   7.149   2.272  0.6852  0.3680 -0.0087
  773MOL0     C 1916   9.431   7.206   2.392 -0.2926  0.2686 -0.4163
  773MOL0     C 1917   9.291   7.166   2.375 -0.9073  0.4042  0.1744
  773MOL0     C 1918   9.214   7.176   2.505  0.2077  0.8916 -0.4057
  773MOL0     C 1919   9.087   7.082   2.504 -0.3281 -0.4456  0.1789
  773MOL0     C 1920   8.976   7.133   2.416 -0.5888  1.1781 -0.0095
  773MOL0     N 1921   8.849   7.060   2.440  0.0793  0.0935 -0.0055
  773MOL0     C 1922   8.734   7.129   2.448  0.2615  0.1528  0.4360
  773MOL0     C 1923   8.649   7.041   2.503  0.8372  1.0376 -0.1227
  773MOL0     C 1924   8.510   7.088   2.548 -0.1979 -0.3548  0.9300
  773MOL0     C 1925   8.413   6.981   2.510  0.0809  0.1876 -0.0772
  773MOL0     C 1926   8.278   7.019   2.570 -0.3811  0.4549 -0.6181
  773MOL0     C 1927   8.165   6.916   2.516 -0.6219 -0.4227  0.4825
  773MOL0     O 1928   8.055   6.986   2.455  0.3665  0.4525  0.3244
  773MOL0     C 1929   7.940   6.915   2.427  0.8397  0.4840  0.2766
  773MOL0     C 1930   7.937   6.773   2.409 -1.4037 -0.4845 -0.0887
  773MOL0     C 1931   7.819   6.709   2.396  0.0630  0.4210  0.1425
  773MOL0     C 1932   7.702   6.779   2.381  0.8960 -0.8565  0.4103
  773MOL0     C 1933   7.577   6.702   2.338 -0.9382 -0.2348 -0.0559
  773MOL0     O 1934   7.589   6.568   2.328 -0.6317 -0.3932 -0.3662
  773MOL0     C 1935   7.475   6.497   2.317  0.1241  0.0234 -0.1410
  773MOL0     C 1936   7.399   6.511   2.202 -0.3314 -0.0927  0.9426
  773MOL0     C 1937   7.287   6.430   2.187  0.9167 -1.1480 -0.8459
  773MOL0     C 1938   7.236   6.350   2.293 -0.3678 -0.1072 -0.2718
  773MOL0     O 1939   7.110   6.297   2.270  0.6844  0.2183  0.1080
  773MOL0     C 1940   7.053   6.224   2.382 -0.3620 -0.3840  1.2092
  773MOL0     C 1941   6.909   6.192   2.342  0.1542 -0.7016  0.4330
  773MOL0     C 1942   6.833   6.102   2.441 -0.2905 -0.0098  0.4113
  773MOL0     C 1943   6.908   5.973   2.471  0.0549  0.5780  0.4578
  773MOL0     C 1944   6.822   5.852   2.510  1.2713 -0.0427 -0.7878
  773MOL0     C 1945   6.904   5.733   2.559 -0.8232  0.3875  0.1007
  773MOL0     C 1946   6.836   5.606   2.609 -0.9645  0.0957 -0.5788
  773MOL0     C 1947   6.939   5.496   2.641  0.5346 -0.5165  0.2512
  773MOL0    Cl 1948   6.999   5.425   2.488  0.2168  0.0755  0.1468
  773MOL0     C 1949   7.324   6.330   2.407  0.3163  0.1402  0.8142
  773MOL0     C 1950   7.445   6.398   2.419 -1.0611 -0.2898  0.2922
  773MOL0     O 1951   7.479   6.768   2.329  0.8910 -0.6719  0.1212
  773MOL0     C 1952   7.703   6.914   2.386  0.4386  0.0978 -0.3683
  773MOL0     C 1953   7.820   6.992   2.403  0.1320 -0.3459 -0.1073
  773MOL0     N 1954   8.707   6.918   2.515 -0.7299  0.4403 -1.2252
  773MOL0     N 1955   8.834   6.933   2.475  0.5099 -0.2664 -0.7246
  773MOL0     C 1956   9.994   7.005   2.068 -0.3327  0.7702 -0.7145
  773MOL0     C 1957  10.116   6.963   2.015 -0.6119  0.4844  0.3215
  773MOL0     C 1958  10.505   6.931   1.785 -0.3455  1.3291 -0.4522
  773MOL0     C 1959  10.571   6.838   1.857 -0.3211 -0.1540 -1.2006
  773MOL0     C 1960  10.700   6.802   1.817  0.3183 -0.6840 -0.3939
  773MOL0     C 1961  10.766   6.854   1.709  0.1637  0.3262  0.5448
  773MOL0     O 1962  10.886   6.810   1.673  0.4979 -0.0960 -0.6081
  773MOL0     C 1963  10.948   6.846   1.557 -0.0154 -0.5582 -0.3337
  773MOL0     C 1964  11.089   6.792   1.571  0.3204 -0.1732 -0.6022
  773MOL0     C 1965  11.096   6.638   1.554 -0.3930 -0.0594 -0.1653
  773MOL0     C 1966  11.224   6.573   1.604  0.2523  0.0036 -0.4811
  773MOL0     C 1967  11.335   6.636   1.530 -0.3302 -0.5744  0.0275
  773MOL0     C 1968  11.415   6.701   1.464 -0.2254  0.1598 -0.2450
  773MOL0     C 1969  10.701   6.950   1.635  0.1098  0.2585  0.9161
  773MOL0     C 1970  10.568   6.997   1.676  0.2207  0.6140 -0.0819
  773MOL0     H 1971  10.302   7.240   2.040 -1.1728 -0.5710 -0.4395
  773MOL0     H 1972  10.071   7.315   2.160  1.4330 -0.0292  1.3356
  773MOL0     H 1973   9.756   7.016   2.219  1.2531  0.4731 -0.2188
  773MOL0     H 1974   9.704   7.114   2.082 -1.6632  0.7358  0.0443
  773MOL0     H 1975   9.648   7.308   2.221  2.3247  1.9554  1.9981
  773MOL0     H 1976   9.696   7.212   2.370 -1.1401 -0.1190  0.0456
  773MOL0     H 1977   9.534   7.043   2.290  1.0697  0.4221 -0.0436
  773MOL0     H 1978   9.459   7.160   2.180 -1.6227 -2.4340  0.9593
  773MOL0     H 1979   9.471   7.175   2.489  1.6784 -1.0126 -1.5676
  773MOL0     H 1980   9.443   7.314   2.399  0.2859  0.1821 -0.0047
  773MOL0     H 1981   9.297   7.060   2.349 -0.6769  0.9226 -2.1685
  773MOL0     H 1982   9.238   7.222   2.298 -0.8063  0.7589  0.3625
  773MOL0     H 1983   9.181   7.280   2.518 -0.5055  1.1274 -3.4249
  773MOL0     H 1984   9.266   7.138   2.593  0.5591  1.2016 -0.4786
  773MOL0     H 1985   9.116   6.983   2.469 -0.1912  0.1022 -1.3468
  773MOL0     H 1986   9.052   7.089   2.608 -0.4993 -0.0798  0.0992
  773MOL0     H 1987   9.003   7.118   2.311  0.7680  1.4926  0.2749
  773MOL0     H 1988   8.968   7.240   2.437 -0.3457  1.2136 -0.0958
  773MOL0     H 1989   8.712   7.232   2.421  1.9427  0.2395 -0.7941
  773MOL0     H 1990   8.481   7.184   2.505 -0.8856 -1.8767 -2.3211
  773MOL0     H 1991   8.505   7.093   2.658 -4.6170 -1.8904  0.9968
  773MOL0     H 1992   8.450   6.884   2.544 -0.0430 -0.0402 -0.5853
  773MOL0     H 1993   8.410   6.970   2.401 -0.9372 -1.0362  0.0463
  773MOL0     H 1994   8.277   7.021   2.679 -2.0951 -1.1613 -0.5488
  773MOL0     H 1995   8.250   7.121   2.542  0.1844  0.6589 -0.4493
  773MOL0     H 1996   8.130   6.846   2.593  0.7627  0.7195  2.2657
  773MOL0     H 1997   8.203   6.858   2.432  3.4586  0.3698  1.5331
  773MOL0     H 1998   8.031   6.718   2.414 -0.8536  0.4693  0.5030
  773MOL0     H 1999   7.824   6.601   2.384 -0.7950  0.2217  1.4292
  773MOL0     H 2000   7.430   6.587   2.131  1.6486  0.9186  2.7771
  773MOL0     H 2001   7.231   6.444   2.095  0.2096 -2.1516 -0.5886
  773MOL0     H 2002   7.055   6.272   2.480 -1.1246 -1.5504  1.8293
  773MOL0     H 2003   7.096   6.125   2.399 -2.1950 -1.4582  0.0199
  773MOL0     H 2004   6.909   6.148   2.242  2.0637 -1.2321  0.6221
  773MOL0     H 2005   6.871   6.294   2.334  2.7531  0.7415  3.8531
  773MOL0     H 2006   6.733   6.073   2.407  1.0288 -1.7106 -2.3952
  773MOL0     H 2007   6.808   6.150   2.537  0.2810 -2.1114  1.6679
  773MOL0     H 2008   6.968   5.938   2.387 -0.3797  1.5057 -0.2575
  773MOL0     H 2009   6.977   5.987   2.556 -0.1151  1.5278  0.4508
  773MOL0     H 2010   6.752   5.823   2.432  0.3580  0.6536 -0.2431
  773MOL0     H 2011   6.760   5.886   2.593  1.1723  0.7108 -1.1648
  773MOL0     H 2012   6.982   5.758   2.631  0.3389 -0.8301 -0.6941
  773MOL0     H 2013   6.961   5.693   2.474 -0.2933  2.2301 -0.4648
  773MOL0     H 2014   6.769   5.624   2.693 -0.8114  0.5509 -0.5489
  773MOL0     H 2015   6.775   5.559   2.532 -0.5591 -0.2811 -0.6698
  773MOL0     H 2016   6.893   5.406   2.683  1.2691 -1.4541 -0.8940
  773MOL0     H 2017   7.024   5.522   2.705 -1.9538  0.9180  3.2678
  773MOL0     H 2018   7.290   6.262   2.484 -2.8647 -0.5544 -1.0367
  773MOL0     H 2019   7.515   6.380   2.499 -1.7054  0.6803  1.1137
  773MOL0     H 2020   7.610   6.969   2.382 -1.1192 -2.4080 -0.3298
  773MOL0     H 2021   7.818   7.100   2.395  2.9856 -0.3461 -3.1741
  773MOL0     H 2022   9.914   6.933   2.076  0.4709 -0.3658 -2.2039
  773MOL0     H 2023  10.124   6.863   1.973  0.4372  0.0840  1.4234
  773MOL0     H 2024  10.540   6.788   1.948  1.0403  2.1742  0.6629
  773MOL0     H 2025  10.756   6.734   1.881  0.7887 -0.9937 -1.1285
  773MOL0     H 2026  10.958   6.955   1.552 -1.8009 -0.3316  0.3688
  773MOL0     H 2027  10.896   6.804   1.470  3.0602 -3.1672 -1.1131
  773MOL0     H 2028  11.153   6.838   1.495  3.0401 -0.9245  1.0924
  773MOL0     H 2029  11.127   6.830   1.667  2.2682 -0.7401 -1.1126
  773MOL0     H 2030  11.079   6.620   1.447 -2.8635 -0.5017  0.2562
  773MOL0     H 2031  11.014   6.589   1.607  0.3700 -0.2896  0.8399
  773MOL0     H 2032  11.227   6.593   1.712 -1.6961 -0.6324 -0.2697
  773MOL0     H 2033  11.216   6.465   1.588 -0.7121 -0.2921  1.5780
  773MOL0     H 2034  11.484   6.742   1.393  1.9114 -2.0701  0.3908
  773MOL0     H 2035  10.742   6.986   1.541  1.8127 -0.6185  1.2760
  773MOL0     H 2036  10.504   7.063   1.619 -0.3184  0.2739  0.1184
  774MOL0     O 2037   9.495   8.459   7.119  0.0323  0.7999 -0.3985
  774MOL0     C 2038   9.474   8.399   7.011 -0.7431  1.2618 -0.6997
  774MOL0     O 2039   9.558   8.310   6.956  0.5073 -0.0305 -0.4347
  774MOL0     C 2040   9.693   8.307   6.990 -0.6754 -0.3232 -0.3680
  774MOL0     C 2041   9.769   8.421   7.023  0.3154 -0.3028 -0.6562
  774MOL0     C 2042   9.913   8.414   7.020  0.0095 -0.2300 -0.4038
  774MOL0     C 2043   9.977   8.303   6.970  0.1248  0.0922 -0.1153
  774MOL0     O 2044  10.114   8.299   6.975  0.4303  0.0113  0.0172
  774MOL0     C 2045  10.188   8.341   6.864 -0.0564  0.8262  0.0150
  774MOL0     C 2046  10.340   8.343   6.885 -0.4576 -0.3140 -0.3856
  774MOL0     C 2047  10.395   8.217   6.935  0.4046 -0.1138 -0.2536
  774MOL0     C 2048  10.392   8.106   6.828  0.7341  0.3974  0.4628
  774MOL0     C 2049  10.514   8.005   6.845 -0.7006  0.0151  0.1280
  774MOL0     C 2050  10.546   7.972   6.991 -0.0350 -0.2777  0.1363
  774MOL0     C 2051  10.477   7.852   7.046  0.0235  0.6326  0.0180
  774MOL0     C 2052  10.325   7.851   7.035  0.3966  0.5307  1.1662
  774MOL0     N 2053  10.251   7.911   7.149 -0.2300 -0.4838  0.4448
  774MOL0     C 2054  10.152   8.006   7.143  0.3215 -0.1905  0.0319
  774MOL0     C 2055  10.110   8.013   7.269  0.1691 -0.0838  0.1992
  774MOL0     C 2056   9.999   8.105   7.303 -0.7664  1.1174  0.3780
  774MOL0     C 2057   9.859   8.045   7.312  0.1669 -0.2361  0.1020
  774MOL0     C 2058   9.761   8.138   7.383 -0.4665  0.4198  0.3163
  774MOL0     C 2059   9.619   8.078   7.395  0.0438 -0.5560 -0.5758
  774MOL0     O 2060   9.572   8.054   7.268  0.5427 -0.2506 -0.0764
  774MOL0     C 2061   9.443   8.003   7.259 -0.0022 -1.3776 -0.0734
  774MOL0     C 2062   9.357   7.975   7.369  0.4869  0.1185  0.0545
  774MOL0     C 2063   9.219   7.952   7.351  0.1388 -0.0603 -0.7966
  774MOL0     C 2064   9.157   7.961   7.219  0.7013  0.0650  0.4585
  774MOL0     C 2065   9.012   7.954   7.212 -0.2923 -0.4828  0.6688
  774MOL0     O 2066   8.971   7.971   7.082  0.6221 -0.7003 -0.8540
  774MOL0     C 2067   8.840   7.955   7.047 -0.4790 -0.8661 -1.1425
  774MOL0     C 2068   8.724   7.987   7.120  0.2409 -0.3897  0.2720
  774MOL0     C 2069   8.599   7.952   7.073 -1.8978 -0.8456 -1.0505
  774MOL0     C 2070   8.589   7.893   6.954 -0.3749  0.7115 -0.5243
  774MOL0     O 2071   8.469   7.862   6.913 -0.2606 -0.2450 -0.0488
  774MOL0     C 2072   8.362   7.958   6.933 -0.1981 -0.0345  0.0428
  774MOL0     C 2073   8.265   7.863   7.010  0.2643  0.2933 -0.4176
  774MOL0     C 2074   8.138   7.933   7.053 -0.0041  0.0792  0.3265
  774MOL0     C 2075   8.044   7.836   7.110  0.8200  0.2334  0.5622
  774MOL0     C 2076   7.925   7.897   7.170  1.2825 -0.2985  0.0187
  774MOL0     C 2077   7.820   7.939   7.063 -0.0659 -0.1172 -0.4035
  774MOL0     C 2078   7.692   7.998   7.115  0.3314  0.3360 -0.2402
  774MOL0     C 2079   7.575   7.984   7.015 -0.1606 -0.0395 -0.2533
  774MOL0    Cl 2080   7.430   7.988   7.114 -0.3191 -0.1720 -0.0301
  774MOL0     C 2081   8.701   7.848   6.885  0.4056 -0.3661  0.7188
  774MOL0     C 2082   8.825   7.881   6.932  0.3237  0.4344  0.4401
  774MOL0     O 2083   8.941   7.933   7.311 -0.4814 -0.2853  0.1517
  774MOL0     C 2084   9.241   7.985   7.110 -0.5770 -0.3411  0.0176
  774MOL0     C 2085   9.380   8.010   7.129 -0.1692 -0.7262 -0.7089
  774MOL0     N 2086  10.168   7.914   7.344  0.8343  0.0279  0.6117
  774MOL0     N 2087  10.247   7.858   7.270  0.3219 -0.2014  0.2747
  774MOL0     C 2088   9.902   8.186   6.955  0.2112 -0.1442 -0.9805
  774MOL0     C 2089   9.768   8.192   6.966 -0.1257  0.9827 -0.0748
  774MOL0     C 2090   9.346   8.418   6.955  0.4559  0.2496 -0.6050
  774MOL0     C 2091   9.252   8.514   6.997  0.1078 -0.0794  0.3511
  774MOL0     C 2092   9.126   8.525   6.940 -0.0149 -0.4603  0.4914
  774MOL0     C 2093   9.086   8.442   6.840  0.1869 -0.0437  0.6870
  774MOL0     O 2094   8.956   8.438   6.796  0.3081  0.0333 -0.3891
  774MOL0     C 2095   8.860   8.540   6.815  0.2930  0.3991  0.0664
  774MOL0     C 2096   8.738   8.490   6.746  0.0992  0.1704 -0.2028
  774MOL0     C 2097   8.641   8.600   6.717  1.3578  0.1449  0.4820
  774MOL0     C 2098   8.519   8.556   6.630  0.0140  1.3420  0.0125
  774MOL0     C 2099   8.412   8.654   6.646 -0.1499 -0.3885 -0.4862
  774MOL0     C 2100   8.334   8.742   6.662 -0.2021  0.3009  0.0340
  774MOL0     C 2101   9.177   8.346   6.788 -0.5802 -0.1555 -0.5513
  774MOL0     C 2102   9.309   8.333   6.851 -0.0724  0.7065 -0.1878
  774MOL0     H 2103   9.712   8.511   7.044 -3.7722 -2.9779  1.0968
  774MOL0     H 2104   9.969   8.503   7.048  0.6482 -0.2280 -1.6249
  774MOL0     H 2105  10.169   8.446   6.843 -1.9740  0.8949  1.7544
  774MOL0     H 2106  10.167   8.282   6.775 -2.1246  0.5586  0.6361
  774MOL0     H 2107  10.360   8.423   6.957  1.2050 -0.0046 -1.1466
  774MOL0     H 2108  10.390   8.370   6.791 -0.6697  1.1923 -0.0892
  774MOL0     H 2109  10.342   8.181   7.024 -0.1038  1.9769  0.3361
  774MOL0     H 2110  10.499   8.233   6.966  0.4167 -0.9861  0.1914
  774MOL0     H 2111  10.294   8.059   6.818 -0.4993  3.0924 -1.7076
  774MOL0     H 2112  10.386   8.154   6.729 -3.5591 -0.8460 -0.1061
  774MOL0     H 2113  10.601   8.042   6.789  0.0199  3.8118  3.3257
  774MOL0     H 2114  10.486   7.917   6.785  2.7481  0.4364 -2.4319
  774MOL0     H 2115  10.536   8.062   7.052  3.1112  1.6454 -1.8848
  774MOL0     H 2116  10.654   7.956   7.004  0.1622  2.2650  2.6631
  774MOL0     H 2117  10.518   7.770   6.986  0.5280  0.1689  0.9598
  774MOL0     H 2118  10.504   7.830   7.150 -0.0036 -3.3717 -0.6448
  774MOL0     H 2119  10.295   7.746   7.032 -2.9501  1.3224 -2.7450
  774MOL0     H 2120  10.285   7.888   6.940  1.5038  1.3771  1.0048
  774MOL0     H 2121  10.131   8.069   7.057  0.4238 -0.2342 -0.0250
  774MOL0     H 2122   9.995   8.185   7.228  2.1298  0.6131 -0.4213
  774MOL0     H 2123  10.010   8.138   7.406  0.9860  0.5698  0.3877
  774MOL0     H 2124   9.856   7.951   7.368 -2.3531  0.4126  1.2097
  774MOL0     H 2125   9.831   8.023   7.209  1.2679 -1.5020  0.0379
  774MOL0     H 2126   9.798   8.155   7.485 -4.0935  1.2184  1.6713
  774MOL0     H 2127   9.765   8.233   7.330  1.4620  0.7506  0.9608
  774MOL0     H 2128   9.559   8.150   7.451  1.7756  0.2923  0.2945
  774MOL0     H 2129   9.626   7.987   7.456  2.1021  0.6130  1.0927
  774MOL0     H 2130   9.389   7.982   7.472 -0.7626  0.3827  0.4490
  774MOL0     H 2131   9.159   7.911   7.431  2.9610 -1.2920  0.8463
  774MOL0     H 2132   8.727   8.024   7.222 -2.1299  2.5406 -0.5806
  774MOL0     H 2133   8.509   7.971   7.130 -1.9755  0.9319 -1.6865
  774MOL0     H 2134   8.317   7.980   6.836  1.1095 -2.8462 -1.3179
  774MOL0     H 2135   8.394   8.054   6.975  1.4080 -0.7082  0.4485
  774MOL0     H 2136   8.308   7.816   7.099 -0.8808 -0.4289 -0.2219
  774MOL0     H 2137   8.226   7.785   6.943  2.8162 -1.3487 -0.1002
  774MOL0     H 2138   8.104   7.992   6.968  0.6057  0.0718  0.0721
  774MOL0     H 2139   8.151   8.007   7.133  0.5693 -0.7644  1.0417
  774MOL0     H 2140   8.012   7.766   7.032 -0.4832  0.1788  1.1088
  774MOL0     H 2141   8.092   7.778   7.189 -0.0804  0.7303  1.4930
  774MOL0     H 2142   7.951   7.983   7.232  2.3923 -0.3946 -0.2957
  774MOL0     H 2143   7.877   7.829   7.241 -0.1488  1.7764  1.1504
  774MOL0     H 2144   7.809   7.866   6.982  3.6387 -0.6367 -0.5995
  774MOL0     H 2145   7.874   8.015   7.005 -0.0032 -0.5816 -0.9641
  774MOL0     H 2146   7.673   7.940   7.206 -1.8726  0.7335 -0.4008
  774MOL0     H 2147   7.720   8.101   7.139  1.1660  0.0736 -0.0540
  774MOL0     H 2148   7.595   7.892   6.959  4.3083 -1.2659  2.8016
  774MOL0     H 2149   7.585   8.062   6.939  0.9205  0.1353  0.0545
  774MOL0     H 2150   8.679   7.794   6.793 -1.2437  0.7031  0.4574
  774MOL0     H 2151   8.906   7.853   6.866  0.3903  2.0280 -0.1913
  774MOL0     H 2152   9.193   8.016   7.018 -0.3334 -1.4667 -0.4967
  774MOL0     H 2153   9.432   8.051   7.042 -0.8288 -1.2689 -1.3717
  774MOL0     H 2154   9.941   8.090   6.924  1.3732  0.3355 -1.0847
  774MOL0     H 2155   9.715   8.101   6.941  0.9005  0.4978 -0.5232
  774MOL0     H 2156   9.272   8.582   7.079 -1.6653  0.7477  0.1546
  774MOL0     H 2157   9.050   8.598   6.966  0.3505 -0.2826  1.0910
  774MOL0     H 2158   8.911   8.628   6.776  1.9276 -1.1395 -1.4798
  774MOL0     H 2159   8.830   8.568   6.917 -0.9617  0.9395 -0.4302
  774MOL0     H 2160   8.759   8.428   6.659 -1.5221  1.2510 -1.4182
  774MOL0     H 2161   8.698   8.425   6.824  2.3537 -0.8372  0.1898
  774MOL0     H 2162   8.689   8.690   6.676  1.2778 -0.2331 -0.4645
  774MOL0     H 2163   8.603   8.644   6.811 -1.7958  1.8945 -1.4068
  774MOL0     H 2164   8.548   8.545   6.525  0.7740  2.8894  0.0306
  774MOL0     H 2165   8.482   8.460   6.668 -1.8313  1.8276 -0.4386
  774MOL0     H 2166   8.254   8.810   6.685  0.2941 -0.4661  5.2381
  774MOL0     H 2167   9.131   8.278   6.717 -0.8197  0.2503 -0.7908
  774MOL0     H 2168   9.374   8.252   6.819  1.6906  3.3036 -3.9239
  775MOL0     O 2169  11.337   1.465   5.475  0.5461  0.4881  1.3292
  775MOL0     C 2170  11.381   1.582   5.481 -1.0391  1.0076 -0.4206
  775MOL0     O 2171  11.321   1.691   5.528  0.0585 -0.3767 -0.1079
  775MOL0     C 2172  11.190   1.686   5.566 -0.2834 -0.1094 -0.5192
  775MOL0     C 2173  11.088   1.739   5.485  0.3558 -0.8455 -0.2999
  775MOL0     C 2174  10.956   1.731   5.530  0.6612  0.4508  0.0581
  775MOL0     C 2175  10.921   1.675   5.652  0.6557 -0.6602  0.0745
  775MOL0     O 2176  10.796   1.698   5.700 -0.0473  0.3212  0.1694
  775MOL0     C 2177  10.738   1.600   5.786  0.1235  0.0422  0.0848
  775MOL0     C 2178  10.590   1.597   5.749 -0.5223 -1.4871 -0.5730
  775MOL0     C 2179  10.561   1.537   5.616 -0.3100 -0.3457 -0.3455
  775MOL0     C 2180  10.412   1.512   5.580  0.2386  0.3064 -0.2262
  775MOL0     C 2181  10.391   1.491   5.431  0.4877  0.4048 -1.0473
  775MOL0     C 2182  10.454   1.366   5.368  0.3011  0.0690 -0.2936
  775MOL0     C 2183  10.438   1.356   5.211 -0.4091 -0.8827 -0.3880
  775MOL0     C 2184  10.308   1.299   5.158 -0.0758 -0.6182 -1.2888
  775MOL0     N 2185  10.292   1.167   5.226  0.3480  0.3986 -0.3621
  775MOL0     C 2186  10.366   1.051   5.217 -0.7253 -0.3932  0.5416
  775MOL0     C 2187  10.308   0.972   5.306 -0.6272 -0.3734  0.2435
  775MOL0     C 2188  10.358   0.838   5.357 -0.2995  0.5708 -0.2982
  775MOL0     C 2189  10.249   0.751   5.426  0.6072  0.4127 -0.1461
  775MOL0     C 2190  10.130   0.706   5.331  0.7485 -0.3875  0.6520
  775MOL0     C 2191  10.039   0.613   5.402  0.5537  1.1959 -0.4051
  775MOL0     O 2192   9.912   0.622   5.330 -0.2812  0.0716  0.0446
  775MOL0     C 2193   9.826   0.517   5.360  0.4172  0.0324  0.4739
  775MOL0     C 2194   9.726   0.491   5.267 -0.2609  0.1820  0.0496
  775MOL0     C 2195   9.637   0.386   5.284 -0.5406  0.0212 -0.8268
  775MOL0     C 2196   9.641   0.314   5.401 -0.4166  0.6110  0.2791
  775MOL0     C 2197   9.539   0.214   5.422 -0.1735  0.8560 -0.8528
  775MOL0     O 2198   9.531   0.167   5.548  0.6196  0.2795  0.0306
  775MOL0     C 2199   9.435   0.070   5.584  0.0005 -0.1715  0.9558
  775MOL0     C 2200   9.470  -0.052   5.637  0.4403  1.6154  0.9436
  775MOL0     C 2201   9.378  -0.150   5.674 -0.2473 -0.2958 -0.7932
  775MOL0     C 2202   9.244  -0.112   5.686  1.0382  0.0886 -0.0397
  775MOL0     O 2203   9.143  -0.197   5.736  0.0114  0.0483  0.3556
  775MOL0     C 2204   9.161  -0.338   5.731  0.4492 -0.2320 -0.5492
  775MOL0     C 2205   9.026  -0.395   5.766  0.6380  0.7491  0.4801
  775MOL0     C 2206   9.030  -0.545   5.756  0.0168  0.4895 -1.1085
  775MOL0     C 2207   8.898  -0.612   5.734 -0.7349  0.7318 -0.1393
  775MOL0     C 2208   8.799  -0.585   5.852  0.3004  0.2872 -0.5859
  775MOL0     C 2209   8.662  -0.649   5.821 -1.4116 -0.0391  0.3089
  775MOL0     C 2210   8.578  -0.642   5.950 -0.0392 -0.3600 -0.0849
  775MOL0     C 2211   8.613  -0.727   6.067 -0.3139  0.6176 -0.5178
  775MOL0    Cl 2212   8.528  -0.692   6.219 -0.1388 -0.2295 -0.3870
  775MOL0     C 2213   9.206   0.018   5.643 -0.1449 -0.2115 -0.9381
  775MOL0     C 2214   9.304   0.108   5.596  0.4478 -0.5635 -0.2417
  775MOL0     O 2215   9.479   0.167   5.326  0.0308  0.4890 -0.7732
  775MOL0     C 2216   9.746   0.326   5.494 -0.4629 -0.5174  0.0496
  775MOL0     C 2217   9.833   0.433   5.472 -0.0670  0.0940 -0.6624
  775MOL0     N 2218  10.196   1.029   5.361 -0.0373 -1.1644  0.3070
  775MOL0     N 2219  10.179   1.147   5.308  0.2169  0.1424  0.1596
  775MOL0     C 2220  11.023   1.604   5.729 -0.3897 -0.8069  0.1381
  775MOL0     C 2221  11.157   1.610   5.683  0.3888 -0.3572 -0.4032
  775MOL0     C 2222  11.518   1.601   5.422  0.2707  0.0944 -0.9607
  775MOL0     C 2223  11.589   1.487   5.378 -0.2187  0.8768  0.6006
  775MOL0     C 2224  11.711   1.514   5.317 -0.2338 -0.3343 -0.3600
  775MOL0     C 2225  11.770   1.640   5.311 -0.5071 -0.0915 -1.2098
  775MOL0     O 2226  11.885   1.668   5.258  0.2003  0.7420  0.3519
  775MOL0     C 2227  11.977   1.560   5.250  0.0122  0.1340 -0.2696
  775MOL0     C 2228  12.106   1.614   5.197  0.6474 -1.1440 -1.3155
  775MOL0     C 2229  12.182   1.688   5.301  0.4300 -0.4146  0.0946
  775MOL0     C 2230  12.258   1.811   5.238  0.0459  0.2568 -0.6397
  775MOL0     C 2231  12.359   1.757   5.141  1.0084 -1.1697 -0.1215
  775MOL0     C 2232  12.445   1.711   5.076 -0.6590 -0.1491 -0.5846
  775MOL0     C 2233  11.695   1.750   5.352  0.2669  0.0439 -0.2411
  775MOL0     C 2234  11.569   1.728   5.411 -0.5611  0.0468 -0.5627
  775MOL0     H 2235  11.121   1.781   5.390 -0.4937  1.3675  0.3225
  775MOL0     H 2236  10.883   1.786   5.471 -0.8691  0.1613  1.5924
  775MOL0     H 2237  10.748   1.641   5.887  3.0430  0.1039 -0.1514
  775MOL0     H 2238  10.773   1.496   5.785 -4.1870 -1.6729  0.9410
  775MOL0     H 2239  10.555   1.699   5.768  0.8133 -1.2812  0.9937
  775MOL0     H 2240  10.529   1.535   5.815 -0.9995 -1.7548 -1.2483
  775MOL0     H 2241  10.614   1.442   5.616  0.8028  0.2595  0.1152
  775MOL0     H 2242  10.605   1.598   5.537  0.3191 -1.6297 -1.0117
  775MOL0     H 2243  10.381   1.420   5.631 -0.9438  1.4471  1.2295
  775MOL0     H 2244  10.342   1.589   5.613 -1.3211 -0.7119 -1.0546
  775MOL0     H 2245  10.428   1.585   5.391  0.4079  1.6819  1.6391
  775MOL0     H 2246  10.282   1.481   5.425  0.6105 -2.4133 -0.3979
  775MOL0     H 2247  10.422   1.272   5.413  1.1456 -0.4006 -0.6432
  775MOL0     H 2248  10.561   1.371   5.392 -0.3906  1.3063  3.0489
  775MOL0     H 2249  10.443   1.453   5.161 -1.3162 -2.6851 -4.3779
  775MOL0     H 2250  10.520   1.295   5.171  1.6345 -0.9007  3.3252
  775MOL0     H 2251  10.314   1.301   5.049  1.1799 -1.7666 -1.2635
  775MOL0     H 2252  10.229   1.371   5.180 -0.0993 -0.9111 -0.3791
  775MOL0     H 2253  10.458   1.038   5.160 -0.4434  4.0857 -0.4007
  775MOL0     H 2254  10.437   0.862   5.428 -0.2198  0.5264 -0.3719
  775MOL0     H 2255  10.389   0.776   5.273 -2.2946  1.8040 -2.0727
  775MOL0     H 2256  10.202   0.816   5.500  2.6303 -0.8511  2.3968
  775MOL0     H 2257  10.297   0.660   5.464 -0.9022 -0.3649 -0.0407
  775MOL0     H 2258  10.076   0.795   5.299  2.2163  0.1075 -0.5766
  775MOL0     H 2259  10.159   0.648   5.242  0.9231 -0.8279  0.9910
  775MOL0     H 2260  10.033   0.650   5.505  3.2718  2.3669 -0.5773
  775MOL0     H 2261  10.070   0.509   5.414 -0.1529  0.8667 -1.2802
  775MOL0     H 2262   9.725   0.560   5.184  2.5534  2.4478  1.7013
  775MOL0     H 2263   9.565   0.357   5.208 -2.8591 -1.0935  1.6270
  775MOL0     H 2264   9.575  -0.081   5.638 -0.4072 -1.9295  0.7534
  775MOL0     H 2265   9.411  -0.248   5.704  2.0038  0.6285 -0.0843
  775MOL0     H 2266   9.238  -0.376   5.800  0.5587  1.1457  0.1323
  775MOL0     H 2267   9.196  -0.370   5.632  0.4905  0.5248 -0.7817
  775MOL0     H 2268   8.947  -0.366   5.697 -2.1195 -5.1906  0.5160
  775MOL0     H 2269   9.002  -0.359   5.867 -3.1220  3.2446 -1.1050
  775MOL0     H 2270   9.092  -0.577   5.840 -0.2688 -0.5745 -1.2822
  775MOL0     H 2271   9.093  -0.574   5.671  3.0694  0.1064  1.1012
  775MOL0     H 2272   8.847  -0.576   5.644 -4.8395  0.4594  1.8540
  775MOL0     H 2273   8.911  -0.721   5.729  2.0958  1.0230 -0.4710
  775MOL0     H 2274   8.787  -0.477   5.855  1.0453  0.4090 -1.4573
  775MOL0     H 2275   8.836  -0.620   5.949 -1.0907  2.5574  0.8639
  775MOL0     H 2276   8.675  -0.751   5.783 -3.2246  0.2079 -1.1370
  775MOL0     H 2277   8.620  -0.593   5.737 -2.4610 -0.5540  0.4690
  775MOL0     H 2278   8.590  -0.544   5.998 -0.0088 -0.8801  0.9718
  775MOL0     H 2279   8.477  -0.666   5.914  0.3177 -3.2690  0.6623
  775MOL0     H 2280   8.716  -0.706   6.098 -0.6937  1.5036  0.2114
  775MOL0     H 2281   8.602  -0.831   6.035 -1.2877  0.0998  1.3311
  775MOL0     H 2282   9.103   0.049   5.654 -0.2812 -1.0712  0.2973
  775MOL0     H 2283   9.279   0.204   5.552 -1.4215 -0.7633  0.2996
  775MOL0     H 2284   9.756   0.261   5.580  2.7767  1.6315  1.4907
  775MOL0     H 2285   9.913   0.445   5.544 -0.0249  3.1208 -1.0754
  775MOL0     H 2286  11.017   1.555   5.826  0.3200  1.3188  1.3210
  775MOL0     H 2287  11.225   1.543   5.734 -0.1434  0.6980  1.8249
  775MOL0     H 2288  11.556   1.384   5.378  1.2335  0.3846  1.6178
  775MOL0     H 2289  11.762   1.443   5.253 -1.7303 -1.6482 -0.1625
  775MOL0     H 2290  11.947   1.476   5.187 -2.7642  1.2799 -0.6515
  775MOL0     H 2291  11.994   1.516   5.349 -0.0947  0.3336 -0.1620
  775MOL0     H 2292  12.178   1.546   5.152 -0.1241 -2.0021 -1.2770
  775MOL0     H 2293  12.077   1.685   5.119 -0.1451 -0.0785 -0.0952
  775MOL0     H 2294  12.260   1.626   5.344  1.6707 -0.2552 -1.8378
  775MOL0     H 2295  12.112   1.725   5.378  2.4494  0.5646  1.5485
  775MOL0     H 2296  12.183   1.878   5.195  0.2857  0.0571 -1.3905
  775MOL0     H 2297  12.306   1.858   5.325 -2.2210 -1.7271  1.8396
  775MOL0     H 2298  12.526   1.680   5.012 -2.0007  1.8898 -3.5338
  775MOL0     H 2299  11.749   1.844   5.353  2.6274 -1.2138 -1.4899
  775MOL0     H 2300  11.503   1.807   5.448 -1.0106 -0.8214  0.5421
  776MOL0     O 2301   6.857   1.546  10.853 -0.6860 -0.2378  0.1826
  776MOL0     C 2302   6.943   1.615  10.915 -0.4771  0.5637 -0.4349
  776MOL0     O 2303   6.925   1.718  10.999  1.1111  0.2557 -0.5341
  776MOL0     C 2304   6.793   1.756  11.001 -0.7913 -0.8601  0.2703
  776MOL0     C 2305   6.772   1.878  10.941  0.1895  0.3498 -0.7846
  776MOL0     C 2306   6.640   1.926  10.941  0.1721  1.3186  0.0017
  776MOL0     C 2307   6.530   1.863  11.003 -0.7216  0.0163  0.4411
  776MOL0     O 2308   6.404   1.916  10.987 -0.5520  0.6815 -0.1316
  776MOL0     C 2309   6.308   1.911  11.094 -0.6175  0.1678  0.3058
  776MOL0     C 2310   6.214   2.036  11.073  0.4166 -0.3162  0.2660
  776MOL0     C 2311   6.117   2.052  11.192 -0.0424  0.3200  0.0835
  776MOL0     C 2312   6.017   2.166  11.181  0.0520 -0.1196  0.1013
  776MOL0     C 2313   5.876   2.112  11.179 -0.2846  0.3082 -0.0328
  776MOL0     C 2314   5.776   2.230  11.134  0.3765  1.0622  0.3067
  776MOL0     C 2315   5.639   2.197  11.161  0.5031 -0.0253 -0.1080
  776MOL0     C 2316   5.549   2.322  11.148  0.1409  0.4067 -1.3507
  776MOL0     N 2317   5.553   2.380  11.018  0.7867 -0.5193  0.5840
  776MOL0     C 2318   5.634   2.487  10.975  0.4489  1.1698 -0.3323
  776MOL0     C 2319   5.585   2.523  10.856 -0.2751 -0.3618 -0.4000
  776MOL0     C 2320   5.641   2.643  10.785  0.1006 -0.1079  0.1083
  776MOL0     C 2321   5.568   2.774  10.817  0.4678 -0.0171  0.6231
  776MOL0     C 2322   5.630   2.901  10.748  0.3586 -0.3259  0.1657
  776MOL0     C 2323   5.765   2.943  10.806 -0.8237 -0.3248  0.3918
  776MOL0     O 2324   5.863   2.861  10.734 -0.0590  0.6126 -0.5642
  776MOL0     C 2325   5.993   2.854  10.765 -1.4051  0.0374 -0.6337
  776MOL0     C 2326   6.057   2.729  10.749 -0.7301  0.3678 -0.1816
  776MOL0     C 2327   6.192   2.711  10.777 -0.5521  0.3131  1.5206
  776MOL0     C 2328   6.274   2.809  10.827  0.6935 -0.3025 -0.6295
  776MOL0     C 2329   6.417   2.782  10.847  0.5186  0.4293  0.0863
  776MOL0     O 2330   6.470   2.657  10.849  0.4618 -0.0344  0.1064
  776MOL0     C 2331   6.605   2.646  10.864 -0.0767  0.5330 -0.2997
  776MOL0     C 2332   6.699   2.681  10.765 -0.0751  0.3749 -0.4391
  776MOL0     C 2333   6.833   2.657  10.785 -0.5925 -0.9796  0.7634
  776MOL0     C 2334   6.882   2.597  10.894  0.4926  0.6692 -0.4535
  776MOL0     O 2335   7.018   2.589  10.897  0.6496  0.4235  0.5378
  776MOL0     C 2336   7.082   2.554  11.011 -0.2386 -0.3886  0.4666
  776MOL0     C 2337   7.227   2.510  10.984 -0.0631 -0.2808 -0.6142
  776MOL0     C 2338   7.311   2.471  11.110  0.6546  0.0648  0.6041
  776MOL0     C 2339   7.342   2.601  11.192 -0.3477  0.5973 -0.2536
  776MOL0     C 2340   7.421   2.554  11.311  0.1635  0.5905 -0.3451
  776MOL0     C 2341   7.470   2.671  11.400 -0.4263  0.7268 -0.2746
  776MOL0     C 2342   7.594   2.627  11.474 -0.2465  0.1123 -0.2265
  776MOL0     C 2343   7.637   2.739  11.565 -0.1001 -0.3767 -0.0695
  776MOL0    Cl 2344   7.741   2.666  11.696 -0.4456  0.7993  0.3963
  776MOL0     C 2345   6.793   2.555  11.000  1.0310 -0.2442  0.9194
  776MOL0     C 2346   6.653   2.581  10.984  0.0843  0.6734  0.6531
  776MOL0     O 2347   6.481   2.878  10.859 -0.4004  0.7821  0.4717
  776MOL0     C 2348   6.215   2.937  10.843  0.1035  0.4012  0.2485
  776MOL0     C 2349   6.078   2.961  10.826  0.8753  0.5296  1.1242
  776MOL0     N 2350   5.486   2.439  10.812  0.1217 -0.4604  0.7662
  776MOL0     N 2351   5.476   2.349  10.906  0.3908  0.0311  0.6036
  776MOL0     C 2352   6.566   1.743  11.069  0.6253 -0.4364  0.3076
  776MOL0     C 2353   6.693   1.688  11.065  0.3289 -1.0438  0.1015
  776MOL0     C 2354   7.077   1.563  10.905 -0.2341  1.0093 -0.9764
  776MOL0     C 2355   7.118   1.448  10.826 -0.1431 -0.6582 -0.2829
  776MOL0     C 2356   7.251   1.411  10.826  0.1469  0.8602  0.5309
  776MOL0     C 2357   7.340   1.477  10.904  0.4946  0.7524  0.5021
  776MOL0     O 2358   7.460   1.420  10.900  0.0346 -0.8554 -0.3334
  776MOL0     C 2359   7.489   1.367  11.026 -0.2657 -0.0818 -0.4820
  776MOL0     C 2360   7.625   1.300  11.020  0.0772 -0.5354  0.5221
  776MOL0     C 2361   7.672   1.219  11.126 -0.7538  0.5729 -0.7636
  776MOL0     C 2362   7.814   1.187  11.129 -0.2072 -0.2757  0.7756
  776MOL0     C 2363   7.844   1.097  11.241  0.2577 -0.3763 -0.1205
  776MOL0     C 2364   7.864   1.022  11.337 -0.7616 -0.1351 -0.5177
  776MOL0     C 2365   7.310   1.594  10.966 -0.7407  0.4158 -0.0025
  776MOL0     C 2366   7.175   1.644  10.971  0.0769 -0.6228 -0.1999
  776MOL0     H 2367   6.849   1.936  10.893 -1.1302  1.1749 -2.0050
  776MOL0     H 2368   6.606   2.013  10.885 -1.5197 -1.4183 -3.6262
  776MOL0     H 2369   6.362   1.925  11.188 -1.7904  2.4781  0.7181
  776MOL0     H 2370   6.254   1.816  11.096 -3.1933  1.4301 -2.0216
  776MOL0     H 2371   6.157   2.010  10.983  1.2575  1.5829 -0.8980
  776MOL0     H 2372   6.263   2.133  11.057  0.1193 -0.3315 -0.8354
  776MOL0     H 2373   6.180   2.057  11.282  3.5538 -3.1874 -1.8781
  776MOL0     H 2374   6.056   1.962  11.199  1.8820 -1.1401 -0.9914
  776MOL0     H 2375   6.025   2.225  11.273 -0.5549 -1.2626  0.9015
  776MOL0     H 2376   6.035   2.233  11.096  0.4687  1.2933  1.2671
  776MOL0     H 2377   5.856   2.086  11.283 -0.0176  1.0502  0.2078
  776MOL0     H 2378   5.861   2.023  11.117 -0.5879 -0.3998  1.0301
  776MOL0     H 2379   5.802   2.262  11.033 -0.0986  1.4513  0.3063
  776MOL0     H 2380   5.799   2.314  11.200  1.4380  2.1058 -1.3176
  776MOL0     H 2381   5.597   2.124  11.091 -1.5726  1.1127 -0.1428
  776MOL0     H 2382   5.625   2.160  11.263 -1.9491 -1.2638 -0.8208
  776MOL0     H 2383   5.560   2.402  11.221  0.1438  2.2483 -3.2903
  776MOL0     H 2384   5.447   2.285  11.164  1.0413 -2.3347 -1.3095
  776MOL0     H 2385   5.702   2.547  11.035  1.8591  0.5758 -1.2785
  776MOL0     H 2386   5.612   2.614  10.684 -0.5140 -1.1364  0.5663
  776MOL0     H 2387   5.748   2.643  10.809  0.3597 -1.0553 -0.9785
  776MOL0     H 2388   5.566   2.788  10.925 -0.8592  1.7710  0.4221
  776MOL0     H 2389   5.467   2.756  10.779  1.3431 -0.3362 -1.7365
  776MOL0     H 2390   5.634   2.903  10.638  0.6371  1.1980  0.1900
  776MOL0     H 2391   5.562   2.986  10.763 -0.8710 -1.3764  0.7629
  776MOL0     H 2392   5.766   2.944  10.916  1.7151  1.9615  0.4282
  776MOL0     H 2393   5.783   3.048  10.785  4.7353 -1.2154 -0.5862
  776MOL0     H 2394   5.998   2.658  10.692  0.2773  0.8501 -1.8902
  776MOL0     H 2395   6.225   2.608  10.766 -3.2572 -0.5680  0.8454
  776MOL0     H 2396   6.668   2.722  10.669  4.1230  3.0344 -0.9341
  776MOL0     H 2397   6.903   2.673  10.703  2.8590 -0.4300  3.5717
  776MOL0     H 2398   7.033   2.477  11.071  0.4904  1.7361  4.1233
  776MOL0     H 2399   7.079   2.643  11.075  0.3951  0.1402 -0.2249
  776MOL0     H 2400   7.283   2.591  10.937 -3.0849  2.6669  0.4893
  776MOL0     H 2401   7.205   2.422  10.923 -3.2638 -2.2755  2.9964
  776MOL0     H 2402   7.400   2.417  11.076  0.5461 -1.1867  2.2127
  776MOL0     H 2403   7.246   2.404  11.166  0.8340 -1.4665 -0.9404
  776MOL0     H 2404   7.395   2.679  11.136  1.8177  2.3645  3.8812
  776MOL0     H 2405   7.257   2.655  11.234  0.7196  1.0278  1.4260
  776MOL0     H 2406   7.505   2.498  11.269  0.5386  0.7929  0.1281
  776MOL0     H 2407   7.361   2.479  11.364  2.1979 -2.3660 -1.9327
  776MOL0     H 2408   7.392   2.699  11.471  0.3183  0.9857  0.4565
  776MOL0     H 2409   7.494   2.756  11.336 -0.5715  0.5991 -0.4986
  776MOL0     H 2410   7.545   2.546  11.529 -0.9579 -1.1557 -2.6104
  776MOL0     H 2411   7.678   2.596  11.411 -0.9977 -1.3075 -0.5519
  776MOL0     H 2412   7.555   2.797  11.607 -0.2943  1.4432 -2.6718
  776MOL0     H 2413   7.685   2.813  11.500  1.0654  1.2574  2.5187
  776MOL0     H 2414   6.831   2.507  11.090  1.3678 -1.5855  0.0791
  776MOL0     H 2415   6.586   2.530  11.053 -1.3905  1.7341  0.0512
  776MOL0     H 2416   6.267   3.024  10.881 -2.2950  1.7377  0.6988
  776MOL0     H 2417   6.034   3.058  10.847 -2.8775 -1.2969  2.5445
  776MOL0     H 2418   6.481   1.688  11.107  0.2778 -0.2306 -0.1697
  776MOL0     H 2419   6.685   1.592  11.116  4.9562 -0.9414  1.5752
  776MOL0     H 2420   7.042   1.394  10.771  0.4462 -2.0414  0.2365
  776MOL0     H 2421   7.268   1.319  10.771 -0.0337  1.1374  0.0074
  776MOL0     H 2422   7.408   1.297  11.052  0.8898 -1.1974  0.2332
  776MOL0     H 2423   7.502   1.441  11.105  1.3838  0.7625 -1.4905
  776MOL0     H 2424   7.635   1.252  10.923 -1.2844  0.3858 -0.1025
  776MOL0     H 2425   7.691   1.387  11.026 -0.0972 -0.4753  2.0807
  776MOL0     H 2426   7.619   1.123  11.121 -1.6741  0.9829  0.5229
  776MOL0     H 2427   7.649   1.255  11.227 -0.7963  0.4618 -0.7323
  776MOL0     H 2428   7.841   1.144  11.032  0.0506  0.7076  0.3964
  776MOL0     H 2429   7.872   1.280  11.128 -0.1612 -0.1166 -3.9464
  776MOL0     H 2430   7.871   0.970  11.431  1.6485  1.2435  0.1537
  776MOL0     H 2431   7.383   1.646  11.027 -0.8405 -1.6693  2.0455
  776MOL0     H 2432   7.150   1.732  11.028 -2.3414 -0.9008 -0.7323
  777MOL0     O 2433   3.411   4.022   9.911  0.0706  0.5826 -0.3792
  777MOL0     C 2434   3.326   3.973   9.989 -0.2483  0.9491 -0.6590
  777MOL0     O 2435   3.197   4.001   9.998 -0.0153 -0.3398  0.2366
  777MOL0     C 2436   3.145   4.085   9.903 -0.5831  0.1839 -0.3572
  777MOL0     C 2437   3.056   4.038   9.808 -0.8676 -0.1076 -0.5044
  777MOL0     C 2438   2.996   4.128   9.729  0.4405  0.4874  0.7178
  777MOL0     C 2439   3.026   4.264   9.728  0.0677 -0.5371  0.1398
  777MOL0     O 2440   2.961   4.363   9.653 -0.7481 -0.3283  0.3159
  777MOL0     C 2441   2.820   4.340   9.631 -0.3397  1.0087 -0.7633
  777MOL0     C 2442   2.747   4.393   9.756 -0.6647 -0.7579  0.3311
  777MOL0     C 2443   2.592   4.387   9.732  0.3460  0.1963  0.5172
  777MOL0     C 2444   2.539   4.244   9.727  0.6592  0.3462  1.0157
  777MOL0     C 2445   2.395   4.239   9.670  0.0423 -0.7471  0.5167
  777MOL0     C 2446   2.291   4.308   9.771 -0.2028  0.0635 -0.3708
  777MOL0     C 2447   2.156   4.258   9.732 -0.5557 -0.4845  0.1962
  777MOL0     C 2448   2.042   4.325   9.807 -0.2294 -0.0804 -0.8902
  777MOL0     N 2449   1.912   4.295   9.746  0.8237 -0.3562  0.2777
  777MOL0     C 2450   1.813   4.217   9.805  0.4974  0.4392 -0.2595
  777MOL0     C 2451   1.711   4.239   9.728  0.5557 -0.5567  0.3215
  777MOL0     C 2452   1.563   4.192   9.760 -0.0252 -0.2907 -0.7811
  777MOL0     C 2453   1.529   4.252   9.899  0.5958  0.1180 -0.4354
  777MOL0     C 2454   1.483   4.399   9.894  0.5478 -0.2610 -0.1845
  777MOL0     C 2455   1.573   4.510   9.842 -0.9147 -0.2445 -0.2083
  777MOL0     O 2456   1.697   4.486   9.914 -0.2882  0.1366  0.5765
  777MOL0     C 2457   1.805   4.566   9.892 -0.4315 -0.0161  1.0698
  777MOL0     C 2458   1.820   4.646   9.780 -0.0599  0.5799 -0.1742
  777MOL0     C 2459   1.935   4.724   9.762  0.2159 -0.4667  0.2059
  777MOL0     C 2460   2.041   4.722   9.855 -0.0870 -0.4029 -0.0401
  777MOL0     C 2461   2.164   4.801   9.842 -0.5058  0.1275  0.7949
  777MOL0     O 2462   2.250   4.812   9.948  0.2363  0.1928 -0.0898
  777MOL0     C 2463   2.351   4.897   9.942  0.3568  0.5807 -0.4370
  777MOL0     C 2464   2.441   4.910   9.842 -0.5801 -1.1276  0.8329
  777MOL0     C 2465   2.551   5.004   9.848  0.1147 -0.6675  0.5835
  777MOL0     C 2466   2.557   5.092   9.958  0.4901  0.5655 -0.5191
  777MOL0     O 2467   2.655   5.191   9.969  0.0818 -0.0994 -0.0286
  777MOL0     C 2468   2.718   5.252   9.848  1.0491  0.4477 -0.2393
  777MOL0     C 2469   2.806   5.365   9.902  0.2429  0.1553 -0.6187
  777MOL0     C 2470   2.894   5.415   9.785 -0.5941 -0.2044 -0.5849
  777MOL0     C 2471   2.946   5.560   9.821 -0.0752 -0.3968  0.2548
  777MOL0     C 2472   3.074   5.604   9.741 -0.6492  0.6754  0.4995
  777MOL0     C 2473   3.200   5.532   9.777 -0.0981 -0.2923  0.1681
  777MOL0     C 2474   3.330   5.601   9.717 -0.5585 -0.0849 -1.0739
  777MOL0     C 2475   3.345   5.595   9.563 -0.6729  0.2576 -0.2286
  777MOL0    Cl 2476   3.371   5.430   9.486 -0.5124  0.0203 -0.2284
  777MOL0     C 2477   2.459   5.074  10.055  1.1518 -0.8089 -1.1003
  777MOL0     C 2478   2.365   4.983  10.051  0.4850  0.0468  0.4317
  777MOL0     O 2479   2.188   4.842   9.727  0.1083  0.2033 -0.4758
  777MOL0     C 2480   2.017   4.658   9.969  0.2771  0.9165  0.4603
  777MOL0     C 2481   1.908   4.568   9.982 -0.2134  0.2774 -0.2973
  777MOL0     N 2482   1.730   4.315   9.618 -0.8383 -0.2846 -0.6854
  777MOL0     N 2483   1.854   4.352   9.628  0.2433  0.0243 -0.6573
  777MOL0     C 2484   3.114   4.321   9.823 -0.3793 -0.5805 -0.1152
  777MOL0     C 2485   3.172   4.225   9.913 -0.3260  1.2254 -0.0179
  777MOL0     C 2486   3.374   3.857  10.074 -0.1299 -0.9023 -0.2247
  777MOL0     C 2487   3.508   3.843  10.087  0.5755 -0.3057 -0.6479
  777MOL0     C 2488   3.557   3.750  10.186 -1.1540 -0.1882 -0.0701
  777MOL0     C 2489   3.466   3.675  10.258  0.2973  0.8390  0.4290
  777MOL0     O 2490   3.499   3.577  10.346 -0.4937 -0.3665 -0.5886
  777MOL0     C 2491   3.629   3.552  10.384 -0.2908  0.3055  0.3291
  777MOL0     C 2492   3.690   3.431  10.313  0.3600  0.5527  0.4583
  777MOL0     C 2493   3.596   3.309  10.343  0.2041 -0.1104 -0.6230
  777MOL0     C 2494   3.653   3.168  10.283  0.2147 -0.2502 -0.2569
  777MOL0     C 2495   3.555   3.063  10.319 -1.2719 -0.6516 -0.6198
  777MOL0     C 2496   3.485   2.967  10.331  0.0550  0.1752 -0.0745
  777MOL0     C 2497   3.327   3.681  10.222  0.1804  0.5816  0.8344
  777MOL0     C 2498   3.275   3.774  10.141 -0.7612 -0.9785  0.4203
  777MOL0     H 2499   3.036   3.932   9.799  1.3200 -0.5146 -1.1452
  777MOL0     H 2500   2.923   4.093   9.657  0.0176  1.9442  0.3968
  777MOL0     H 2501   2.784   4.239   9.609 -0.2924  0.5552  1.0732
  777MOL0     H 2502   2.789   4.387   9.538  1.0609 -2.3151 -3.0919
  777MOL0     H 2503   2.789   4.494   9.753 -1.1629 -0.5632 -1.5564
  777MOL0     H 2504   2.789   4.341   9.843  3.4086 -0.1161 -1.0445
  777MOL0     H 2505   2.562   4.438   9.640 -0.9144  1.2391  1.4742
  777MOL0     H 2506   2.542   4.443   9.812  0.6474  0.4549  0.5286
  777MOL0     H 2507   2.596   4.193   9.649 -1.2701  1.3559 -1.1636
  777MOL0     H 2508   2.538   4.190   9.822 -3.3793 -1.8566 -0.0592
  777MOL0     H 2509   2.352   4.139   9.655 -1.6815  0.1022 -0.3897
  777MOL0     H 2510   2.390   4.289   9.573  1.9028 -4.2841 -1.6565
  777MOL0     H 2511   2.301   4.417   9.767  0.7414  0.1783  2.7263
  777MOL0     H 2512   2.318   4.289   9.875 -1.1338  0.4321 -0.0579
  777MOL0     H 2513   2.148   4.278   9.625  2.9043  1.5542  0.1658
  777MOL0     H 2514   2.165   4.151   9.752 -2.1660 -0.3327  2.0596
  777MOL0     H 2515   2.055   4.432   9.793 -0.1700  0.3917  2.1440
  777MOL0     H 2516   2.038   4.310   9.915 -1.7228 -0.8203 -1.0265
  777MOL0     H 2517   1.816   4.146   9.887  1.9038  0.4847 -0.2301
  777MOL0     H 2518   1.550   4.084   9.759 -1.5292 -0.1513  0.4725
  777MOL0     H 2519   1.496   4.239   9.688  0.8466  0.2365 -1.2746
  777MOL0     H 2520   1.616   4.241   9.965 -0.8736 -1.1946  1.3709
  777MOL0     H 2521   1.444   4.193   9.933 -0.7764  1.1143 -1.9724
  777MOL0     H 2522   1.388   4.412   9.842 -1.4333 -2.5496  2.5899
  777MOL0     H 2523   1.464   4.424   9.999  3.4203 -0.3594  0.4450
  777MOL0     H 2524   1.536   4.610   9.867 -0.1047  0.2281 -0.8594
  777MOL0     H 2525   1.589   4.496   9.735  1.8037 -0.2526  0.1258
  777MOL0     H 2526   1.745   4.667   9.704 -0.3577  0.6139  0.1294
  777MOL0     H 2527   1.945   4.789   9.676  0.7483  1.1983  1.4735
  777MOL0     H 2528   2.434   4.846   9.755  1.1524  3.9498 -3.5628
  777MOL0     H 2529   2.618   5.004   9.763 -1.9476 -1.0902 -1.1191
  777MOL0     H 2530   2.646   5.297   9.778 -0.1740  0.6158  1.0776
  777MOL0     H 2531   2.786   5.180   9.801  0.1568  1.2067 -2.8871
  777MOL0     H 2532   2.873   5.317   9.974 -2.2720 -3.4389 -0.4197
  777MOL0     H 2533   2.752   5.447   9.950  1.8486  0.0062  1.6175
  777MOL0     H 2534   2.845   5.419   9.688 -0.3718  0.0728 -0.6870
  777MOL0     H 2535   2.976   5.345   9.774  1.1019  1.5610  0.1609
  777MOL0     H 2536   2.866   5.635   9.816 -3.1229 -3.4808 -2.4899
  777MOL0     H 2537   2.982   5.558   9.924 -0.5463 -1.0007  0.4103
  777MOL0     H 2538   3.098   5.708   9.766 -1.7750  0.9157  0.6305
  777MOL0     H 2539   3.058   5.584   9.635  2.7039  0.0600 -0.0145
  777MOL0     H 2540   3.192   5.435   9.728  0.8502  0.3005 -1.1993
  777MOL0     H 2541   3.207   5.523   9.886  3.1955 -2.1798 -0.0789
  777MOL0     H 2542   3.325   5.701   9.762 -1.2647 -1.6639  2.7410
  777MOL0     H 2543   3.412   5.546   9.765  0.0112 -0.0328 -1.9722
  777MOL0     H 2544   3.443   5.636   9.541 -0.2108 -0.5772  0.2131
  777MOL0     H 2545   3.268   5.648   9.506 -0.1609  0.2596 -0.9235
  777MOL0     H 2546   2.466   5.131  10.147  0.5751  1.6956 -2.4854
  777MOL0     H 2547   2.293   4.979  10.132  0.3271  1.4008  0.3891
  777MOL0     H 2548   2.084   4.655  10.054 -2.9992 -2.8108  3.3022
  777MOL0     H 2549   1.897   4.508  10.072 -0.7012 -0.1570 -0.6423
  777MOL0     H 2550   3.131   4.428   9.830 -3.9089  0.0800  0.4591
  777MOL0     H 2551   3.234   4.258   9.995 -1.4815  1.1886  0.8895
  777MOL0     H 2552   3.588   3.904  10.046  0.7680  1.9941  2.7093
  777MOL0     H 2553   3.663   3.731  10.197 -0.4823  1.5905 -2.5485
  777MOL0     H 2554   3.622   3.522  10.489 -0.6411 -2.0715 -0.3035
  777MOL0     H 2555   3.694   3.639  10.373 -0.9161  0.7259 -0.1397
  777MOL0     H 2556   3.698   3.448  10.206  0.5983  0.0894  0.4010
  777MOL0     H 2557   3.794   3.421  10.345  0.7810  1.9778 -0.3828
  777MOL0     H 2558   3.502   3.332  10.292  0.5191 -0.2755 -1.2898
  777MOL0     H 2559   3.591   3.295  10.451  2.5564 -0.7320 -0.5298
  777MOL0     H 2560   3.657   3.169  10.174  1.8735 -1.7255 -0.2500
  777MOL0     H 2561   3.752   3.143  10.321  0.8060 -1.7436 -2.5759
  777MOL0     H 2562   3.409   2.894  10.349 -1.8699  2.0192 -0.2596
  777MOL0     H 2563   3.252   3.613  10.262 -0.8401 -1.4528 -3.8542
  777MOL0     H 2564   3.169   3.785  10.118 -0.5997 -1.7722 -0.8005
  778MOL0     O 2565   0.682  10.564   0.186  0.3076  0.4596 -0.4038
  778MOL0     C 2566   0.779  10.549   0.259  1.0121  0.9860 -0.7341
  778MOL0     O 2567   0.781  10.457   0.366 -0.4371  0.2684 -0.2830
  778MOL0     C 2568   0.685  10.363   0.394  0.5875 -0.5285  0.1234
  778MOL0     C 2569   0.685  10.308   0.531 -0.7009  0.7381  0.0203
  778MOL0     C 2570   0.597  10.217   0.570  0.2982  0.5782 -0.7062
  778MOL0     C 2571   0.500  10.172   0.484 -0.3769 -0.5266  0.6200
  778MOL0     O 2572   0.416  10.076   0.522 -0.1461 -0.1133  0.2708
  778MOL0     C 2573   0.285  10.133   0.565  0.3705  0.0016  0.6066
  778MOL0     C 2574   0.199  10.020   0.636  1.4468 -0.5835  0.7009
  778MOL0     C 2575   0.043  10.071   0.642  0.5604  0.6181  0.5154
  778MOL0     C 2576  -0.041   9.977   0.728  0.4241  0.8534 -0.2212
  778MOL0     C 2577  -0.187  10.016   0.711 -0.8962  0.4114  0.7950
  778MOL0     C 2578  -0.287   9.930   0.795  0.1311 -1.4346 -0.0697
  778MOL0     C 2579  -0.422   9.935   0.716  0.2019 -0.2721 -0.0803
  778MOL0     C 2580  -0.531   9.851   0.784 -0.4569 -0.2409 -0.7015
  778MOL0     N 2581  -0.665   9.902   0.752  0.4613 -0.1248  0.6131
  778MOL0     C 2582  -0.708  10.022   0.796  0.3975 -0.1452  1.1098
  778MOL0     C 2583  -0.838  10.027   0.772  0.7458  0.2276 -0.7522
  778MOL0     C 2584  -0.935  10.131   0.810 -0.1960 -0.2633  0.2025
  778MOL0     C 2585  -0.930  10.163   0.957  0.1447  0.1017 -0.5077
  778MOL0     C 2586  -1.038  10.263   0.999  0.8192  0.5290  0.6725
  778MOL0     C 2587  -1.031  10.294   1.154  0.4718 -0.9075 -0.7246
  778MOL0     O 2588  -0.894  10.324   1.204  0.5344  0.8780 -0.7173
  778MOL0     C 2589  -0.840  10.448   1.199 -0.1950  0.1808 -0.0656
  778MOL0     C 2590  -0.913  10.548   1.138 -0.4181 -1.4005  0.8817
  778MOL0     C 2591  -0.851  10.678   1.112 -0.7220  0.1307  0.3584
  778MOL0     C 2592  -0.729  10.708   1.168  0.0187 -0.3316  0.0053
  778MOL0     C 2593  -0.665  10.830   1.167 -0.3854  0.7362 -0.5325
  778MOL0     O 2594  -0.624  10.879   1.284 -0.4396 -0.5592 -0.2091
  778MOL0     C 2595  -0.570  11.005   1.292 -0.3473  0.3786 -0.8329
  778MOL0     C 2596  -0.437  11.001   1.349  0.6016 -0.9921 -0.4920
  778MOL0     C 2597  -0.361  11.119   1.361  1.1057  0.9681  0.3679
  778MOL0     C 2598  -0.408  11.240   1.310  0.4897 -0.1822  0.4018
  778MOL0     O 2599  -0.339  11.356   1.330 -0.1165 -0.0887 -0.3622
  778MOL0     C 2600  -0.412  11.463   1.398 -0.6060  0.8791  0.4115
  778MOL0     C 2601  -0.462  11.426   1.534  0.0180  0.0130 -0.1511
  778MOL0     C 2602  -0.364  11.366   1.642 -0.7209 -0.4997  0.2287
  778MOL0     C 2603  -0.437  11.332   1.771  0.0431  0.5370  0.2308
  778MOL0     C 2604  -0.343  11.257   1.863  0.1521  0.3934 -0.3720
  778MOL0     C 2605  -0.407  11.231   2.000  0.9928  0.3787 -0.0027
  778MOL0     C 2606  -0.298  11.158   2.082  0.1886 -0.0015 -0.1718
  778MOL0     C 2607  -0.344  11.129   2.231 -0.2018  0.0450  0.7503
  778MOL0    Cl 2608  -0.479  11.029   2.248 -0.3379 -0.1991 -0.4499
  778MOL0     C 2609  -0.537  11.248   1.251  0.0976  0.4604  0.0810
  778MOL0     C 2610  -0.611  11.133   1.229 -0.5654 -0.0139  0.3081
  778MOL0     O 2611  -0.674  10.891   1.063 -0.4613  0.7249 -1.0133
  778MOL0     C 2612  -0.666  10.609   1.238  0.4103 -0.0731  0.0774
  778MOL0     C 2613  -0.711  10.474   1.254 -0.2193  0.9319 -1.0885
  778MOL0     N 2614  -0.881   9.905   0.724  0.6785 -0.6171 -0.7076
  778MOL0     N 2615  -0.772   9.837   0.699  0.4043  0.1177  0.4396
  778MOL0     C 2616   0.485  10.225   0.354 -0.3699  0.2013 -0.7955
  778MOL0     C 2617   0.575  10.327   0.311  0.4594 -0.1499 -0.1482
  778MOL0     C 2618   0.889  10.637   0.241  0.7716  0.3421 -0.0006
  778MOL0     C 2619   1.019  10.590   0.275 -0.3227  0.2916  0.1229
  778MOL0     C 2620   1.125  10.669   0.233 -0.9354  0.3135  0.0283
  778MOL0     C 2621   1.115  10.778   0.144  0.5204 -0.4152 -0.0946
  778MOL0     O 2622   1.216  10.845   0.088 -0.0386 -1.0849 -0.4002
  778MOL0     C 2623   1.359  10.829   0.122 -0.0988 -0.4990 -0.5823
  778MOL0     C 2624   1.388  10.899   0.255  0.1036 -0.2004  0.0879
  778MOL0     C 2625   1.534  10.919   0.296 -0.2981 -0.5612  0.5727
  778MOL0     C 2626   1.618  10.970   0.180  0.0083 -0.8048 -0.7353
  778MOL0     C 2627   1.765  10.973   0.225  0.5592  0.0577 -0.0824
  778MOL0     C 2628   1.887  10.956   0.248  0.2421 -1.0832 -0.1175
  778MOL0     C 2629   0.986  10.814   0.107 -0.2604  0.1570  0.2533
  778MOL0     C 2630   0.877  10.749   0.161  0.3018 -0.0078 -0.4151
  778MOL0     H 2631   0.766  10.331   0.599 -2.0252 -0.9718  2.3154
  778MOL0     H 2632   0.586  10.177   0.671 -2.8550 -0.5963 -1.3693
  778MOL0     H 2633   0.230  10.160   0.474  0.6476  1.7693  0.9331
  778MOL0     H 2634   0.311  10.215   0.633  0.4960 -0.5121  1.1828
  778MOL0     H 2635   0.240  10.009   0.736 -1.0147  5.2600  2.7822
  778MOL0     H 2636   0.218   9.932   0.574  1.2008 -0.3351  0.2622
  778MOL0     H 2637  -0.010  10.091   0.549 -0.2611 -0.3933  0.7520
  778MOL0     H 2638   0.033  10.165   0.697  1.4473  0.7637  0.4421
  778MOL0     H 2639  -0.028   9.877   0.685 -0.1408  1.3390 -1.5516
  778MOL0     H 2640  -0.009   9.962   0.832 -1.8784  1.4103  0.6185
  778MOL0     H 2641  -0.202  10.000   0.604  0.0991  2.4851  0.2806
  778MOL0     H 2642  -0.200  10.124   0.728  1.6990  1.8568 -4.2416
  778MOL0     H 2643  -0.297   9.964   0.898 -0.7289 -1.6209 -0.0819
  778MOL0     H 2644  -0.251   9.827   0.794  0.7376 -1.2251 -0.9528
  778MOL0     H 2645  -0.444  10.042   0.723  0.4810  0.0358 -2.8672
  778MOL0     H 2646  -0.400   9.903   0.614  0.1702 -1.3158  0.2261
  778MOL0     H 2647  -0.520   9.876   0.889 -0.1927  0.9000 -0.9899
  778MOL0     H 2648  -0.505   9.746   0.766 -0.5826 -0.8872  2.3533
  778MOL0     H 2649  -0.648  10.095   0.850  0.1507 -2.1900  4.4227
  778MOL0     H 2650  -1.030  10.081   0.789  0.0782 -1.2726  1.2690
  778MOL0     H 2651  -0.917  10.223   0.753  1.1559 -1.2836 -1.0758
  778MOL0     H 2652  -0.834  10.211   0.980 -0.5026  0.7814  0.9633
  778MOL0     H 2653  -0.953  10.070   1.010 -2.1495  1.4407  1.0251
  778MOL0     H 2654  -1.009  10.354   0.946 -0.0551 -0.5815 -1.8453
  778MOL0     H 2655  -1.138  10.232   0.969 -0.5217  4.0883  1.1107
  778MOL0     H 2656  -1.073  10.210   1.210  2.1349 -1.1129  0.2638
  778MOL0     H 2657  -1.100  10.377   1.171  0.3369 -0.8087 -1.7083
  778MOL0     H 2658  -1.019  10.539   1.118 -0.3527 -0.6302  0.0861
  778MOL0     H 2659  -0.902  10.760   1.062  1.9010  2.6904  1.5683
  778MOL0     H 2660  -0.396  10.916   1.402 -2.5637  0.0497  4.1768
  778MOL0     H 2661  -0.265  11.127   1.410  0.7146 -0.0351  1.3424
  778MOL0     H 2662  -0.485  11.497   1.324  1.3350  0.8893 -1.6328
  778MOL0     H 2663  -0.337  11.542   1.407  2.2413 -1.1084 -3.1201
  778MOL0     H 2664  -0.551  11.365   1.518  0.0001 -0.5690  1.9441
  778MOL0     H 2665  -0.494  11.527   1.559  0.2755  0.2940 -0.9240
  778MOL0     H 2666  -0.295  11.449   1.665 -0.9572 -0.4627  0.8131
  778MOL0     H 2667  -0.309  11.282   1.599  1.0573  2.7475 -4.8930
  778MOL0     H 2668  -0.466  11.427   1.815 -1.0276  0.4970 -0.3563
  778MOL0     H 2669  -0.530  11.278   1.752 -0.9467  0.6740  4.0522
  778MOL0     H 2670  -0.261  11.327   1.882  0.7170 -0.0725 -1.0285
  778MOL0     H 2671  -0.314  11.167   1.808  0.1977 -0.1363  0.5070
  778MOL0     H 2672  -0.495  11.168   1.982  1.2797 -0.1529  0.4373
  778MOL0     H 2673  -0.445  11.320   2.051  0.6860  2.7118 -3.8951
  778MOL0     H 2674  -0.265  11.062   2.042 -0.0980 -1.1949  2.2705
  778MOL0     H 2675  -0.209  11.222   2.082  1.8252 -2.1278 -1.4260
  778MOL0     H 2676  -0.361  11.226   2.278 -3.3339 -0.1479  0.2130
  778MOL0     H 2677  -0.257  11.088   2.284 -1.2010 -2.4450  0.5646
  778MOL0     H 2678  -0.578  11.343   1.220 -0.0399  0.2855 -0.2782
  778MOL0     H 2679  -0.713  11.129   1.190 -0.4203  0.5897 -0.1541
  778MOL0     H 2680  -0.570  10.629   1.285 -0.6581 -0.6120  2.6805
  778MOL0     H 2681  -0.650  10.397   1.299 -0.8540  0.9066 -0.2459
  778MOL0     H 2682   0.405  10.187   0.292 -0.8108 -1.0883  0.4935
  778MOL0     H 2683   0.581  10.351   0.206 -0.1512 -2.1487 -0.6950
  778MOL0     H 2684   1.037  10.493   0.321 -0.6986 -0.1648 -0.6562
  778MOL0     H 2685   1.219  10.630   0.273 -1.7176 -1.8856 -0.1359
  778MOL0     H 2686   1.412  10.884   0.043  1.3650 -0.9365  0.0671
  778MOL0     H 2687   1.396  10.727   0.123  1.4360  0.0448 -0.3535
  778MOL0     H 2688   1.338  10.996   0.265  0.5587 -0.1776  2.8285
  778MOL0     H 2689   1.343  10.827   0.324 -1.4161  0.2137 -0.4348
  778MOL0     H 2690   1.575  10.825   0.333 -1.4235 -0.8457  1.1124
  778MOL0     H 2691   1.547  10.992   0.377 -2.9590  1.2593 -0.4934
  778MOL0     H 2692   1.610  10.914   0.087 -0.7979  2.7967 -3.0273
  778MOL0     H 2693   1.589  11.071   0.150  2.8148  0.1873 -0.4209
  778MOL0     H 2694   1.992  10.945   0.265  0.1128 -1.3114  0.5820
  778MOL0     H 2695   0.975  10.888   0.028 -0.0753  1.5338  1.4872
  778MOL0     H 2696   0.776  10.772   0.131 -0.8343  0.0918  3.0866
  779MOL0     O 2697  11.024   9.291   4.751 -0.4841  0.5131  0.0485
  779MOL0     C 2698  11.063   9.284   4.634  0.0228  0.6040 -0.1429
  779MOL0     O 2699  11.142   9.180   4.587  0.0924  0.5762 -0.2165
  779MOL0     C 2700  11.201   9.084   4.668  0.6887 -0.2138  0.0968
  779MOL0     C 2701  11.306   9.105   4.756  0.3833  0.3499  0.5013
  779MOL0     C 2702  11.339   9.008   4.849 -0.2543 -0.1302  0.4772
  779MOL0     C 2703  11.284   8.884   4.850  0.4243 -0.3186  0.0226
  779MOL0     O 2704  11.339   8.792   4.937 -0.1998 -0.0857  0.2376
  779MOL0     C 2705  11.322   8.657   4.886 -0.3552  0.1103 -0.4143
  779MOL0     C 2706  11.414   8.577   4.985  0.3226  0.6308 -0.4166
  779MOL0     C 2707  11.477   8.442   4.936  0.0726  0.4844  0.9032
  779MOL0     C 2708  11.578   8.467   4.826 -0.6901  0.6761  1.5999
  779MOL0     C 2709  11.635   8.325   4.773  0.0191 -0.8529  0.7324
  779MOL0     C 2710  11.663   8.332   4.615  0.2658 -1.3262 -0.0649
  779MOL0     C 2711  11.564   8.258   4.532  0.2275 -0.3012 -0.2057
  779MOL0     C 2712  11.610   8.244   4.385 -0.6089 -0.3287  0.5646
  779MOL0     N 2713  11.725   8.163   4.354  0.2509  0.0457  0.2818
  779MOL0     C 2714  11.833   8.201   4.277  0.3234  0.4836 -0.2261
  779MOL0     C 2715  11.918   8.102   4.282  0.1621  0.3460  0.0256
  779MOL0     C 2716  12.051   8.096   4.216 -0.5861 -0.6493  0.9773
  779MOL0     C 2717  12.165   8.112   4.302  0.3956  0.6171  0.2616
  779MOL0     C 2718  12.187   7.985   4.383 -0.4370 -0.7329  0.6630
  779MOL0     C 2719  12.324   8.009   4.465 -0.5812  0.0826  0.4797
  779MOL0     O 2720  12.344   7.912   4.571  0.3583 -0.6752  0.2069
  779MOL0     C 2721  12.475   7.917   4.615  0.8901 -0.2961 -0.0936
  779MOL0     C 2722  12.485   7.953   4.754 -0.0567  0.2322 -0.0644
  779MOL0     C 2723  12.619   7.959   4.803  0.2792 -0.1779 -0.0515
  779MOL0     C 2724  12.730   7.907   4.725 -0.0079  0.1700 -1.4322
  779MOL0     C 2725  12.869   7.904   4.778 -0.8985 -1.3522  0.5971
  779MOL0     O 2726  12.964   7.831   4.706  0.1544 -0.2868  0.9143
  779MOL0     C 2727  13.098   7.850   4.728 -0.4222  0.6193  0.3651
  779MOL0     C 2728  13.148   7.811   4.846 -0.9472  0.0465 -1.4432
  779MOL0     C 2729  13.287   7.828   4.876 -0.4722  0.1592  0.2873
  779MOL0     C 2730  13.367   7.894   4.780 -0.1047  0.5835 -0.3593
  779MOL0     O 2731  13.497   7.931   4.799 -0.0139 -0.2847 -0.1116
  779MOL0     C 2732  13.534   7.989   4.927  0.1802 -0.5996  0.7304
  779MOL0     C 2733  13.684   8.052   4.911  0.5333  0.1871 -0.5970
  779MOL0     C 2734  13.696   8.125   4.779 -1.2149 -0.4080  0.8538
  779MOL0     C 2735  13.835   8.190   4.781 -0.2451  0.2524 -0.9047
  779MOL0     C 2736  13.964   8.096   4.780  0.2145 -0.1773 -0.2870
  779MOL0     C 2737  14.099   8.172   4.764 -0.5752  1.2158  0.3558
  779MOL0     C 2738  14.201   8.073   4.718 -0.4934 -0.8593 -0.6095
  779MOL0     C 2739  14.337   8.129   4.728 -0.3435  0.0250  0.1527
  779MOL0    Cl 2740  14.443   8.039   4.616  0.2147  0.0236  0.1727
  779MOL0     C 2741  13.312   7.934   4.661 -0.1529 -0.0695  0.6795
  779MOL0     C 2742  13.180   7.903   4.630 -0.9578 -0.1406 -0.6265
  779MOL0     O 2743  12.886   7.970   4.880 -0.2535  0.7586 -0.2145
  779MOL0     C 2744  12.710   7.873   4.589 -0.4566 -0.5383  0.8548
  779MOL0     C 2745  12.585   7.883   4.533 -0.1400  0.3569 -0.3045
  779MOL0     N 2746  11.862   8.004   4.360  0.4334  0.0176 -0.3157
  779MOL0     N 2747  11.744   8.042   4.409  0.5639 -0.7216  0.0495
  779MOL0     C 2748  11.181   8.859   4.756  1.0048  0.1967 -0.6752
  779MOL0     C 2749  11.142   8.956   4.666 -0.1901 -0.6824 -0.4057
  779MOL0     C 2750  11.013   9.381   4.540  0.0212  0.3655  0.4056
  779MOL0     C 2751  10.941   9.498   4.586 -0.8974  0.1493  0.2125
  779MOL0     C 2752  10.898   9.595   4.502  0.0571  0.4954  0.2728
  779MOL0     C 2753  10.924   9.589   4.361 -0.5092  0.3481 -0.4786
  779MOL0     O 2754  10.874   9.700   4.299 -0.1492  0.7323  0.4682
  779MOL0     C 2755  10.877   9.702   4.157  0.2048 -0.1375 -0.0638
  779MOL0     C 2756  10.865   9.839   4.100  0.0775  0.2976 -0.3614
  779MOL0     C 2757  10.980   9.929   4.112  0.8867  0.3496 -0.7067
  779MOL0     C 2758  11.075   9.924   3.994 -0.3602 -0.4697  0.0589
  779MOL0     C 2759  11.179  10.028   4.009  0.1771  0.0429 -1.5637
  779MOL0     C 2760  11.276  10.096   4.031 -0.0595 -1.2845 -1.2118
  779MOL0     C 2761  10.998   9.478   4.312 -0.4321 -0.0111 -0.3172
  779MOL0     C 2762  11.047   9.378   4.401  0.3879 -0.4234 -0.0500
  779MOL0     H 2763  11.333   9.209   4.769 -3.3821  1.7581 -1.3430
  779MOL0     H 2764  11.425   9.032   4.912  2.1850  1.7421 -3.1852
  779MOL0     H 2765  11.350   8.651   4.780 -0.2611  0.2811 -0.3997
  779MOL0     H 2766  11.222   8.613   4.886  0.3545 -1.6005 -1.3392
  779MOL0     H 2767  11.353   8.562   5.074  0.3263  1.1815 -0.3181
  779MOL0     H 2768  11.494   8.647   5.012  0.4027  1.0655 -1.6946
  779MOL0     H 2769  11.409   8.362   4.907  2.2150 -0.4728 -1.9800
  779MOL0     H 2770  11.534   8.391   5.014 -2.1139 -4.4411 -0.3237
  779MOL0     H 2771  11.527   8.528   4.751 -4.2752 -3.0260  0.6767
  779MOL0     H 2772  11.657   8.529   4.869 -1.9142  2.4533  1.3971
  779MOL0     H 2773  11.563   8.247   4.800 -1.8813  0.6784  0.3799
  779MOL0     H 2774  11.727   8.313   4.831  1.4729  1.0464 -1.0140
  779MOL0     H 2775  11.761   8.288   4.599  0.6084 -0.3293 -0.8084
  779MOL0     H 2776  11.665   8.437   4.583  0.4709 -0.8600  1.3649
  779MOL0     H 2777  11.546   8.159   4.575  0.0792 -0.8051 -1.3824
  779MOL0     H 2778  11.472   8.316   4.543  0.0426 -0.2883 -1.6495
  779MOL0     H 2779  11.640   8.341   4.342  0.3263 -0.5267  0.7352
  779MOL0     H 2780  11.521   8.227   4.324  0.3298  2.3793 -1.8164
  779MOL0     H 2781  11.857   8.297   4.233  1.4224  0.0736 -0.5353
  779MOL0     H 2782  12.070   8.171   4.138 -0.2884  0.8924  2.4581
  779MOL0     H 2783  12.052   8.000   4.165  0.8638 -1.3815  2.2952
  779MOL0     H 2784  12.142   8.198   4.366  2.2357 -0.0403  1.8982
  779MOL0     H 2785  12.250   8.147   4.242  0.1637  0.5226 -0.1262
  779MOL0     H 2786  12.106   7.973   4.456 -1.5336  3.2362  0.3376
  779MOL0     H 2787  12.201   7.899   4.316 -2.6868 -0.0813 -0.7513
  779MOL0     H 2788  12.317   8.109   4.509 -0.9350  0.5339 -0.5567
  779MOL0     H 2789  12.414   8.001   4.404 -0.9134 -0.2590  0.0279
  779MOL0     H 2790  12.396   7.980   4.810  0.1341 -1.2445  0.9937
  779MOL0     H 2791  12.643   7.987   4.905 -2.9734  2.0006  0.2535
  779MOL0     H 2792  13.084   7.754   4.912 -0.8986 -0.6056 -1.9441
  779MOL0     H 2793  13.334   7.782   4.962 -1.8565 -1.2838  0.3224
  779MOL0     H 2794  13.518   7.920   5.010  0.4996  0.9331  2.1284
  779MOL0     H 2795  13.467   8.075   4.933  1.2204  0.3966 -1.0416
  779MOL0     H 2796  13.751   7.966   4.918 -1.1556 -1.1234  0.3789
  779MOL0     H 2797  13.705   8.111   5.001  1.5490 -2.1297  0.7922
  779MOL0     H 2798  13.613   8.195   4.767 -1.1148 -0.5325 -0.6855
  779MOL0     H 2799  13.673   8.059   4.695 -1.4110 -3.0653  2.8703
  779MOL0     H 2800  13.818   8.261   4.700 -1.8790  1.6122  0.5448
  779MOL0     H 2801  13.841   8.252   4.871 -2.2769 -0.5059 -0.1701
  779MOL0     H 2802  13.960   8.038   4.687 -2.9448  0.0800 -0.4112
  779MOL0     H 2803  13.971   8.024   4.862 -0.6647  1.1777  1.0278
  779MOL0     H 2804  14.120   8.215   4.862 -0.1029  0.5714  0.5479
  779MOL0     H 2805  14.097   8.250   4.687  0.3667  2.9843  2.0507
  779MOL0     H 2806  14.196   7.993   4.793 -3.0556  1.5796  2.1081
  779MOL0     H 2807  14.176   8.014   4.629  0.3376 -2.4518  0.1670
  779MOL0     H 2808  14.381   8.124   4.829  0.1301 -1.7259 -0.1044
  779MOL0     H 2809  14.342   8.235   4.700  0.2461  0.1973  0.8552
  779MOL0     H 2810  13.374   7.992   4.594 -1.9600 -0.3952 -1.4003
  779MOL0     H 2811  13.139   7.933   4.534 -2.0343  2.1472  0.4492
  779MOL0     H 2812  12.789   7.844   4.519 -1.6524 -1.1178 -0.2961
  779MOL0     H 2813  12.579   7.855   4.429  3.1530 -0.9530 -0.2759
  779MOL0     H 2814  11.118   8.772   4.740  0.4521  0.6040 -0.7335
  779MOL0     H 2815  11.058   8.927   4.604 -1.0824  1.2087 -0.1436
  779MOL0     H 2816  10.924   9.520   4.691  0.1565  0.6914  0.2799
  779MOL0     H 2817  10.841   9.680   4.538 -0.2496 -0.2002  1.4957
  779MOL0     H 2818  10.793   9.643   4.120 -1.1123 -0.8973  3.6891
  779MOL0     H 2819  10.968   9.655   4.119 -0.2163  0.4948 -1.9621
  779MOL0     H 2820  10.844   9.822   3.994  1.6111 -0.4642 -0.5723
  779MOL0     H 2821  10.785   9.884   4.159 -0.1605 -1.6508  0.8867
  779MOL0     H 2822  11.033   9.884   4.196 -3.6191 -2.4454  0.9950
  779MOL0     H 2823  10.949  10.027   4.148  0.0171  0.8844 -2.7614
  779MOL0     H 2824  11.115   9.823   4.003  0.0512 -0.3427 -0.3086
  779MOL0     H 2825  11.025   9.939   3.898 -0.2029 -0.1421  0.0249
  779MOL0     H 2826  11.364  10.157   4.027 -0.8291 -0.1792 -2.0694
  779MOL0     H 2827  10.990   9.452   4.207 -0.1701  0.5727 -0.4809
  779MOL0     H 2828  11.089   9.285   4.362 -3.5174 -1.5249 -2.1868
  780MOL0     O 2829   9.461   4.670   6.483 -0.2470 -0.1401  0.8415
  780MOL0     C 2830   9.425   4.553   6.501 -0.3033 -0.1020  0.5705
  780MOL0     O 2831   9.385   4.465   6.404  0.3999 -0.1066  0.0317
  780MOL0     C 2832   9.385   4.516   6.276  0.2830 -0.2375  1.0915
  780MOL0     C 2833   9.482   4.469   6.182 -1.4155 -0.2902 -0.0053
  780MOL0     C 2834   9.473   4.498   6.042  0.6595  0.4718 -0.8399
  780MOL0     C 2835   9.364   4.577   5.994  0.3235  0.1405 -0.0082
  780MOL0     O 2836   9.345   4.608   5.866  0.4118  0.2786  0.0558
  780MOL0     C 2837   9.225   4.569   5.794  0.7485 -0.4727  0.5609
  780MOL0     C 2838   9.135   4.696   5.758 -0.2571 -0.0383 -0.2729
  780MOL0     C 2839   9.034   4.668   5.644  0.1677 -0.3567  1.2851
  780MOL0     C 2840   8.926   4.777   5.637  0.6766 -0.5126  0.6495
  780MOL0     C 2841   8.797   4.737   5.553 -0.8774 -0.4913  0.5103
  780MOL0     C 2842   8.700   4.849   5.526  0.2225 -0.3053  0.2024
  780MOL0     C 2843   8.616   4.838   5.404 -0.4347  0.1840 -0.8533
  780MOL0     C 2844   8.491   4.750   5.412 -0.4224  0.2215 -0.0170
  780MOL0     N 2845   8.380   4.841   5.462 -0.2554  0.1268 -0.1202
  780MOL0     C 2846   8.313   4.848   5.580 -0.8426  0.2864 -0.4150
  780MOL0     C 2847   8.212   4.945   5.560 -0.5026 -0.9248  0.0135
  780MOL0     C 2848   8.087   4.972   5.653 -1.1317 -0.1463  0.0086
  780MOL0     C 2849   8.123   5.089   5.741  0.4512  0.0868 -0.7803
  780MOL0     C 2850   8.038   5.093   5.876  0.0894  0.5910 -0.2017
  780MOL0     C 2851   7.891   5.083   5.838 -0.1814  0.1057 -0.6145
  780MOL0     O 2852   7.859   5.171   5.730 -0.0618  0.6291 -0.1857
  780MOL0     C 2853   7.731   5.217   5.699 -1.1763 -0.8624 -0.5707
  780MOL0     C 2854   7.632   5.202   5.789  1.2449 -0.9191  0.3605
  780MOL0     C 2855   7.502   5.242   5.772  0.6276  0.5174 -0.4770
  780MOL0     C 2856   7.459   5.309   5.657 -0.4253  0.8086  0.4262
  780MOL0     C 2857   7.318   5.346   5.633  0.5027 -0.0201 -0.2875
  780MOL0     O 2858   7.220   5.327   5.722 -0.4018  0.4514  0.3075
  780MOL0     C 2859   7.090   5.369   5.689 -0.3694  0.7519 -0.3666
  780MOL0     C 2860   7.047   5.484   5.745 -0.5081 -0.7967 -0.0615
  780MOL0     C 2861   6.915   5.518   5.722  0.8476 -0.0661 -0.0352
  780MOL0     C 2862   6.830   5.448   5.635 -0.0784 -1.1225  0.1919
  780MOL0     O 2863   6.686   5.471   5.636 -0.5999  0.3199 -0.3031
  780MOL0     C 2864   6.629   5.606   5.647 -0.4283  0.1979  0.6742
  780MOL0     C 2865   6.482   5.589   5.593 -0.2676 -0.4839 -0.0015
  780MOL0     C 2866   6.469   5.588   5.438 -0.0770  0.7966  0.6444
  780MOL0     C 2867   6.463   5.730   5.387  0.0942 -1.0246 -0.3012
  780MOL0     C 2868   6.415   5.717   5.247 -0.3453 -0.3464 -0.7028
  780MOL0     C 2869   6.533   5.682   5.152 -1.1720 -0.2599 -0.4316
  780MOL0     C 2870   6.631   5.802   5.131 -0.7005  0.1208 -1.2288
  780MOL0     C 2871   6.691   5.773   4.998 -0.3303 -0.1836  0.0939
  780MOL0    Cl 2872   6.795   5.924   4.973 -0.1753 -0.1026 -0.3021
  780MOL0     C 2873   6.884   5.344   5.563 -0.0917  1.0784 -0.2849
  780MOL0     C 2874   7.006   5.298   5.597  0.1299  0.7358  0.2432
  780MOL0     O 2875   7.295   5.392   5.524 -0.4691  0.2842 -0.1093
  780MOL0     C 2876   7.566   5.329   5.566 -0.0190  1.0188 -0.5830
  780MOL0     C 2877   7.696   5.289   5.587 -0.4118  0.2664  0.3889
  780MOL0     N 2878   8.236   5.001   5.433  0.5480  0.2123  1.1154
  780MOL0     N 2879   8.324   4.929   5.375 -0.0095 -0.0167 -0.8170
  780MOL0     C 2880   9.270   4.620   6.088  0.3195  1.0612 -0.3788
  780MOL0     C 2881   9.285   4.591   6.225  0.0325  0.2882  0.4589
  780MOL0     C 2882   9.417   4.492   6.644  0.5836 -0.4665 -0.1171
  780MOL0     C 2883   9.411   4.587   6.748 -0.4638  0.8423 -0.1204
  780MOL0     C 2884   9.388   4.540   6.877 -0.5074 -0.6536  0.6880
  780MOL0     C 2885   9.396   4.401   6.913  0.8914  0.1944 -0.5148
  780MOL0     O 2886   9.392   4.374   7.045  0.7096 -0.2346 -0.9498
  780MOL0     C 2887   9.420   4.239   7.095  0.4007 -0.1992 -0.1777
  780MOL0     C 2888   9.567   4.204   7.088 -0.4593  0.1752  0.4448
  780MOL0     C 2889   9.577   4.047   7.103  0.2712 -0.5978 -0.3742
  780MOL0     C 2890   9.720   3.995   7.104  0.8534 -0.0839 -0.7531
  780MOL0     C 2891   9.754   3.941   6.975 -0.3444 -0.0961 -0.1483
  780MOL0     C 2892   9.800   3.897   6.868  0.2835  0.6103 -0.7862
  780MOL0     C 2893   9.421   4.305   6.806  0.1345 -0.9892 -0.0758
  780MOL0     C 2894   9.418   4.355   6.673 -0.1819 -0.3510 -0.6695
  780MOL0     H 2895   9.559   4.413   6.233  0.6490  2.9137  0.7065
  780MOL0     H 2896   9.539   4.469   5.962  2.1151  0.4986  0.3085
  780MOL0     H 2897   9.182   4.494   5.860  2.0890 -1.7904  0.0070
  780MOL0     H 2898   9.247   4.508   5.706 -2.1672 -1.8787  0.6938
  780MOL0     H 2899   9.203   4.775   5.724 -1.9785  0.7768 -1.9855
  780MOL0     H 2900   9.080   4.709   5.852  2.7764  0.3422  1.5987
  780MOL0     H 2901   8.992   4.568   5.663 -0.5580 -1.6652 -5.0153
  780MOL0     H 2902   9.084   4.656   5.548 -0.1998  1.9498  0.7583
  780MOL0     H 2903   8.895   4.790   5.741 -0.0953  2.8350  0.1202
  780MOL0     H 2904   8.976   4.866   5.596  0.3575  1.3303  3.8376
  780MOL0     H 2905   8.739   4.664   5.611  0.6293 -1.5796  0.7128
  780MOL0     H 2906   8.829   4.694   5.458  0.5175 -0.6470  1.0243
  780MOL0     H 2907   8.755   4.942   5.508  0.3715 -0.6299 -1.1506
  780MOL0     H 2908   8.643   4.875   5.615 -0.6389  1.4189 -0.7946
  780MOL0     H 2909   8.590   4.940   5.376 -3.0427  0.2172  1.2809
  780MOL0     H 2910   8.672   4.801   5.318 -1.9468  0.0347 -1.8114
  780MOL0     H 2911   8.511   4.667   5.481 -2.1750  0.7905  1.2347
  780MOL0     H 2912   8.461   4.705   5.317 -2.0171  1.6184 -0.2110
  780MOL0     H 2913   8.313   4.782   5.666 -2.1212 -1.5882 -1.7731
  780MOL0     H 2914   8.068   4.884   5.714 -0.7946 -1.3858 -1.6174
  780MOL0     H 2915   8.004   5.002   5.588 -0.1691 -0.5005 -1.4300
  780MOL0     H 2916   8.106   5.184   5.691 -2.1828  1.7623  2.8423
  780MOL0     H 2917   8.225   5.079   5.781  0.8610  0.6189 -1.6690
  780MOL0     H 2918   8.076   5.011   5.939 -1.5470 -0.9544 -1.1306
  780MOL0     H 2919   8.064   5.182   5.934 -1.0699 -0.0245  1.3314
  780MOL0     H 2920   7.846   5.108   5.934 -0.0242 -1.8732  0.0321
  780MOL0     H 2921   7.855   4.982   5.814 -0.2507 -0.3345  1.1956
  780MOL0     H 2922   7.639   5.135   5.874  0.6261 -0.9229  0.4112
  780MOL0     H 2923   7.427   5.218   5.848 -0.6351 -1.2061 -2.1609
  780MOL0     H 2924   7.107   5.541   5.816 -0.4741 -1.1263  0.1724
  780MOL0     H 2925   6.872   5.604   5.772  0.7615 -1.0220  1.5827
  780MOL0     H 2926   6.686   5.667   5.576  1.0931 -1.9728 -0.0855
  780MOL0     H 2927   6.635   5.650   5.747 -0.7194  3.5122 -0.6156
  780MOL0     H 2928   6.421   5.666   5.641 -0.0306  1.5950 -2.8036
  780MOL0     H 2929   6.442   5.497   5.637 -1.6945 -1.8577 -3.7635
  780MOL0     H 2930   6.381   5.524   5.423 -0.3008  0.5065  2.7885
  780MOL0     H 2931   6.557   5.538   5.397 -0.4764  1.4980 -1.1382
  780MOL0     H 2932   6.386   5.785   5.441 -0.7752 -2.0846 -0.4126
  780MOL0     H 2933   6.557   5.783   5.406 -1.1938  1.2740  0.0121
  780MOL0     H 2934   6.383   5.817   5.214  0.6223 -0.2704 -1.4593
  780MOL0     H 2935   6.330   5.651   5.225 -0.6433  1.1449 -5.0972
  780MOL0     H 2936   6.495   5.649   5.054 -0.6394 -2.7729  0.1415
  780MOL0     H 2937   6.580   5.589   5.184 -1.4630 -0.3372 -0.2289
  780MOL0     H 2938   6.576   5.897   5.124 -3.7200 -1.4738 -1.0405
  780MOL0     H 2939   6.707   5.801   5.210  1.4378 -1.2082 -3.1843
  780MOL0     H 2940   6.616   5.765   4.919 -1.9000  3.1984  1.0808
  780MOL0     H 2941   6.746   5.678   4.997  0.3869  0.2231  0.3214
  780MOL0     H 2942   6.820   5.295   5.491  2.3228 -3.0770  0.0344
  780MOL0     H 2943   7.045   5.201   5.566  0.2009  0.7817  0.1892
  780MOL0     H 2944   7.552   5.394   5.481 -0.0475  1.5319 -0.1930
  780MOL0     H 2945   7.764   5.327   5.511 -1.7716  2.6487  0.2512
  780MOL0     H 2946   9.176   4.665   6.056 -3.0690 -2.5182  3.3102
  780MOL0     H 2947   9.212   4.621   6.300 -0.0967  2.0729 -0.3318
  780MOL0     H 2948   9.432   4.693   6.743  1.5071  0.4651 -4.1293
  780MOL0     H 2949   9.378   4.613   6.956 -1.5835  1.2241 -1.0851
  780MOL0     H 2950   9.361   4.169   7.035 -0.4343  1.7122 -1.6897
  780MOL0     H 2951   9.378   4.224   7.195  1.7456 -0.9427  0.2995
  780MOL0     H 2952   9.614   4.230   6.992  0.0139  1.7674  1.0839
  780MOL0     H 2953   9.614   4.258   7.170  1.2083 -1.9133  0.9601
  780MOL0     H 2954   9.519   3.997   7.025 -1.6278 -2.3480  2.0378
  780MOL0     H 2955   9.531   4.008   7.194  0.5113 -1.4846 -0.6234
  780MOL0     H 2956   9.795   4.069   7.133  1.1874  0.5416 -2.9660
  780MOL0     H 2957   9.721   3.910   7.171 -2.3333 -1.6628 -2.4522
  780MOL0     H 2958   9.823   3.846   6.777  1.9666 -1.0422  0.4710
  780MOL0     H 2959   9.436   4.199   6.824  4.9997 -0.7100 -0.9964
  780MOL0     H 2960   9.406   4.279   6.597 -0.1911 -0.5130 -0.5061
  781MOL0     O 2961   4.470   5.452   8.028  0.0548  0.2511 -0.2885
  781MOL0     C 2962   4.444   5.569   8.061 -0.6332 -0.3954  0.1817
  781MOL0     O 2963   4.331   5.615   8.119 -0.0691 -0.2916 -0.5559
  781MOL0     C 2964   4.219   5.532   8.090 -0.5971  0.5381  0.0377
  781MOL0     C 2965   4.178   5.512   7.958  0.1044  0.7802 -0.3039
  781MOL0     C 2966   4.061   5.433   7.937 -0.0875  0.1222  0.4333
  781MOL0     C 2967   3.979   5.381   8.048 -0.3843 -0.1449 -0.0257
  781MOL0     O 2968   3.867   5.299   8.024 -0.2926 -0.8144 -0.3257
  781MOL0     C 2969   3.774   5.348   7.923  0.3747  0.0327 -0.0342
  781MOL0     C 2970   3.642   5.276   7.956  0.4375  1.0136 -0.8776
  781MOL0     C 2971   3.561   5.350   8.059 -0.2793 -0.0781 -0.1596
  781MOL0     C 2972   3.453   5.264   8.109  0.0147 -0.3620  0.0597
  781MOL0     C 2973   3.347   5.351   8.182  0.3128 -0.3610 -0.3696
  781MOL0     C 2974   3.217   5.274   8.217  0.4413  0.0591  0.5250
  781MOL0     C 2975   3.126   5.224   8.095 -0.2090  0.3915 -0.2065
  781MOL0     C 2976   2.989   5.186   8.160  0.1547  0.6060  0.5095
  781MOL0     N 2977   2.901   5.106   8.076 -0.5438 -0.6232 -0.0037
  781MOL0     C 2978   2.938   5.007   7.984  0.6885 -0.1337 -0.4338
  781MOL0     C 2979   2.822   4.960   7.928 -0.4056 -0.3644  0.6141
  781MOL0     C 2980   2.810   4.877   7.807 -0.0002  0.6615 -0.5046
  781MOL0     C 2981   2.911   4.906   7.701 -0.0206  0.3686 -0.1434
  781MOL0     C 2982   2.928   4.789   7.597  0.0790  1.0419 -1.0868
  781MOL0     C 2983   3.012   4.821   7.484 -0.4769  0.1358 -0.7180
  781MOL0     O 2984   3.150   4.821   7.524 -0.0857 -0.3008  0.2091
  781MOL0     C 2985   3.248   4.855   7.430  0.7114 -0.1944 -0.8255
  781MOL0     C 2986   3.352   4.934   7.481  0.4979  0.6729 -0.8258
  781MOL0     C 2987   3.457   4.969   7.400 -0.4099 -0.2009 -0.1366
  781MOL0     C 2988   3.470   4.926   7.270 -0.0863 -0.6016 -1.0089
  781MOL0     C 2989   3.590   4.955   7.184 -0.5283 -0.4140  0.3744
  781MOL0     O 2990   3.705   4.994   7.246  0.5034 -1.0600 -0.4723
  781MOL0     C 2991   3.801   5.051   7.172 -1.1289  0.3136 -0.0132
  781MOL0     C 2992   3.930   4.997   7.183  0.3928  0.2620  0.7235
  781MOL0     C 2993   4.033   5.041   7.095  0.1719 -0.1980  0.2876
  781MOL0     C 2994   4.014   5.151   7.011  0.8645 -0.1415 -0.0396
  781MOL0     O 2995   4.111   5.214   6.936  0.3057 -0.5629  0.2544
  781MOL0     C 2996   4.088   5.275   6.804  0.1639  0.0487  0.0228
  781MOL0     C 2997   4.054   5.169   6.701  0.2299  0.2524  0.3500
  781MOL0     C 2998   4.071   5.239   6.564 -0.2554  0.5235  0.3041
  781MOL0     C 2999   4.030   5.151   6.444  0.2991  0.2299  0.0086
  781MOL0     C 3000   4.077   5.202   6.309 -0.6378 -0.1745 -0.0043
  781MOL0     C 3001   3.993   5.320   6.246 -0.0196  0.4070  1.0209
  781MOL0     C 3002   4.054   5.460   6.291 -0.1180 -0.8810  0.7435
  781MOL0     C 3003   3.966   5.579   6.237  0.4199  0.1146 -0.6322
  781MOL0    Cl 3004   3.931   5.590   6.062  0.4599 -0.0528  0.1096
  781MOL0     C 3005   3.885   5.218   7.021  0.9222  0.1246 -0.4190
  781MOL0     C 3006   3.783   5.163   7.097  0.1332 -0.8572 -0.4034
  781MOL0     O 3007   3.563   4.964   7.067  0.1063  0.2415 -0.4943
  781MOL0     C 3008   3.368   4.844   7.216  0.2513  0.5103 -0.6141
  781MOL0     C 3009   3.253   4.816   7.295  0.5012 -0.2373  0.4684
  781MOL0     N 3010   2.721   5.046   7.971  0.1374  1.2930  0.5770
  781MOL0     N 3011   2.766   5.125   8.072  0.3502  0.1145  0.1974
  781MOL0     C 3012   4.024   5.399   8.175  0.2873  0.0590 -0.5289
  781MOL0     C 3013   4.144   5.469   8.196  1.1660 -0.4079 -0.0836
  781MOL0     C 3014   4.557   5.660   8.029 -0.7589 -0.2757  0.2885
  781MOL0     C 3015   4.558   5.790   8.080  1.4457  0.8057  0.6625
  781MOL0     C 3016   4.668   5.872   8.064  0.3210  0.7406 -0.5987
  781MOL0     C 3017   4.784   5.835   7.994 -0.3114 -0.0545  0.8228
  781MOL0     O 3018   4.895   5.923   7.970 -0.1813 -0.3481 -0.0487
  781MOL0     C 3019   4.895   6.056   8.017 -0.5051 -0.6822 -0.4129
  781MOL0     C 3020   5.040   6.104   7.963  0.1236 -0.6664 -0.3025
  781MOL0     C 3021   5.076   6.257   7.979 -0.6796  0.8080  0.4892
  781MOL0     C 3022   4.970   6.361   7.953  0.2801 -0.6418  0.0679
  781MOL0     C 3023   4.919   6.341   7.816  0.6780  0.9314 -0.1853
  781MOL0     C 3024   4.896   6.297   7.707  0.0318  0.1130  0.1449
  781MOL0     C 3025   4.792   5.705   7.948 -0.4540  0.2816 -0.0982
  781MOL0     C 3026   4.676   5.619   7.964  0.1155  0.2713 -0.5683
  781MOL0     H 3027   4.228   5.571   7.882  2.3582  1.3239  1.4752
  781MOL0     H 3028   4.027   5.422   7.834  2.9980 -3.1207 -0.4469
  781MOL0     H 3029   3.821   5.326   7.827 -0.6992  3.0951 -1.3677
  781MOL0     H 3030   3.756   5.455   7.917 -0.1055  0.2029  2.7716
  781MOL0     H 3031   3.662   5.177   7.998  0.8809  2.1988  1.9643
  781MOL0     H 3032   3.578   5.255   7.870 -2.9588  1.8116  1.2874
  781MOL0     H 3033   3.518   5.435   8.005  0.0723 -0.0528 -0.3997
  781MOL0     H 3034   3.623   5.382   8.143  1.0175  1.6172 -1.6766
  781MOL0     H 3035   3.398   5.218   8.027  0.0670  2.7782 -1.8942
  781MOL0     H 3036   3.488   5.193   8.185  1.2269 -0.8698 -0.9467
  781MOL0     H 3037   3.313   5.431   8.116 -2.3632  1.7347  3.1749
  781MOL0     H 3038   3.391   5.408   8.265  0.6816  0.6927 -1.2590
  781MOL0     H 3039   3.160   5.339   8.284  1.4091  0.9034  0.5452
  781MOL0     H 3040   3.249   5.186   8.275 -0.6810 -0.8049 -0.1145
  781MOL0     H 3041   3.103   5.294   8.015  2.2402 -0.4536 -1.7511
  781MOL0     H 3042   3.170   5.138   8.044  0.2144  1.2479 -1.3286
  781MOL0     H 3043   2.925   5.268   8.194 -0.9887 -1.4583  3.9209
  781MOL0     H 3044   3.013   5.125   8.248 -0.1275 -0.8065 -0.3623
  781MOL0     H 3045   3.042   4.977   7.972  0.9890  0.8414 -0.3204
  781MOL0     H 3046   2.706   4.878   7.774 -0.6191 -1.5345  1.0727
  781MOL0     H 3047   2.831   4.772   7.830 -1.4893  0.0352 -1.7843
  781MOL0     H 3048   3.014   4.910   7.737  0.5659 -1.2842 -1.4920
  781MOL0     H 3049   2.896   4.997   7.642 -0.7568  0.3130 -0.0429
  781MOL0     H 3050   2.954   4.701   7.657 -1.8851  0.3284 -1.2080
  781MOL0     H 3051   2.833   4.746   7.564 -0.0945 -0.3399  1.0047
  781MOL0     H 3052   2.988   4.922   7.448  3.3115  1.5212  0.0761
  781MOL0     H 3053   2.999   4.753   7.400  0.8925 -1.4488  0.3018
  781MOL0     H 3054   3.345   4.955   7.587  0.4678 -2.7421 -0.0447
  781MOL0     H 3055   3.544   5.022   7.438 -0.1783 -0.6082 -0.0934
  781MOL0     H 3056   3.975   4.923   7.249  4.1020 -0.1942 -1.9851
  781MOL0     H 3057   4.139   5.015   7.100  0.4481  1.0372  1.6108
  781MOL0     H 3058   4.167   5.338   6.764 -0.3407  1.4547  1.1597
  781MOL0     H 3059   4.005   5.347   6.803  0.0399 -0.0708 -1.8023
  781MOL0     H 3060   3.955   5.132   6.727  0.5642  1.4427  3.7452
  781MOL0     H 3061   4.130   5.090   6.694 -0.4703 -0.3611 -0.5925
  781MOL0     H 3062   4.178   5.252   6.548 -0.1478 -2.7921 -3.0779
  781MOL0     H 3063   4.016   5.333   6.559  0.8043  1.0926 -1.1979
  781MOL0     H 3064   4.066   5.050   6.466  2.6813  1.0433  0.1510
  781MOL0     H 3065   3.921   5.159   6.435  0.5016  1.1887 -2.4285
  781MOL0     H 3066   4.070   5.120   6.237  1.8699  0.0915 -0.6304
  781MOL0     H 3067   4.182   5.232   6.320 -0.9148  0.7469  0.2238
  781MOL0     H 3068   3.885   5.313   6.265 -0.9342  2.4019 -2.6185
  781MOL0     H 3069   4.003   5.314   6.138  0.8497 -1.2066  1.1536
  781MOL0     H 3070   4.078   5.464   6.398  0.8917 -3.2700  0.6825
  781MOL0     H 3071   4.149   5.460   6.236  0.1537 -2.5220  1.1594
  781MOL0     H 3072   4.012   5.675   6.262 -1.4056  1.0139 -0.5880
  781MOL0     H 3073   3.871   5.572   6.290  0.7907 -3.4807 -0.2126
  781MOL0     H 3074   3.867   5.316   6.978 -3.1553  0.5172  1.6812
  781MOL0     H 3075   3.693   5.218   7.126 -1.1075 -0.5769 -4.2844
  781MOL0     H 3076   3.378   4.807   7.114 -2.3183  1.7483 -1.3946
  781MOL0     H 3077   3.167   4.768   7.250  1.8912 -3.1159  0.6610
  781MOL0     H 3078   3.968   5.351   8.254  3.6448 -1.5024  1.1302
  781MOL0     H 3079   4.180   5.484   8.298  2.2456 -1.7658 -0.2266
  781MOL0     H 3080   4.467   5.829   8.126  1.5232  2.0914 -0.2193
  781MOL0     H 3081   4.650   5.966   8.116  0.2266  0.5421 -0.2676
  781MOL0     H 3082   4.875   6.057   8.124 -2.0634 -0.9396 -0.6830
  781MOL0     H 3083   4.817   6.116   7.970  3.2924  1.6520 -4.5750
  781MOL0     H 3084   5.116   6.040   8.009  1.0460 -1.7767 -3.1594
  781MOL0     H 3085   5.052   6.085   7.856  0.3907  0.0133 -0.3941
  781MOL0     H 3086   5.164   6.284   7.919 -0.2308  1.6954  1.5213
  781MOL0     H 3087   5.106   6.280   8.081  2.5201  3.3385 -0.8591
  781MOL0     H 3088   4.887   6.348   8.023 -4.0364  3.8174 -3.5806
  781MOL0     H 3089   5.009   6.462   7.971 -3.1582  0.6929  0.7227
  781MOL0     H 3090   4.876   6.268   7.606 -0.2470 -1.7227  0.7075
  781MOL0     H 3091   4.894   5.678   7.919 -0.7258  1.5009 -2.4394
  781MOL0     H 3092   4.700   5.516   7.938  0.1559  0.0488  0.3207
  782MOL0     O 3093   9.749   8.765   2.665  0.1081  0.2934  0.7698
  782MOL0     C 3094   9.780   8.792   2.549 -0.0411  0.2528  0.3285
  782MOL0     O 3095   9.695   8.810   2.442 -0.0955  0.0345 -0.3959
  782MOL0     C 3096   9.561   8.782   2.450 -0.2480  0.0470 -0.6102
  782MOL0     C 3097   9.513   8.669   2.518 -0.4245 -0.4032  0.1671
  782MOL0     C 3098   9.374   8.658   2.542  0.2079 -0.8926  0.4151
  782MOL0     C 3099   9.280   8.757   2.510 -0.9654  0.0858 -0.9398
  782MOL0     O 3100   9.149   8.742   2.551  0.5257  0.7346  0.2658
  782MOL0     C 3101   9.051   8.810   2.470  0.3967  0.4444 -0.1044
  782MOL0     C 3102   8.907   8.772   2.500 -0.2298 -0.6368 -0.9056
  782MOL0     C 3103   8.810   8.828   2.395  0.1459  0.1925  0.2343
  782MOL0     C 3104   8.664   8.769   2.410  0.4638  0.6849  0.5533
  782MOL0     C 3105   8.584   8.840   2.519 -0.1220 -0.1104 -0.1139
  782MOL0     C 3106   8.438   8.817   2.498  0.2785 -1.0714  0.0212
  782MOL0     C 3107   8.344   8.854   2.614  0.1844 -0.3494 -0.6233
  782MOL0     C 3108   8.210   8.798   2.591  0.8393 -1.0621 -0.1173
  782MOL0     N 3109   8.116   8.858   2.688  0.4349 -0.1624 -0.9328
  782MOL0     C 3110   8.114   8.825   2.814  0.2195 -0.2282 -0.3437
  782MOL0     C 3111   7.992   8.854   2.861  0.7915 -0.5925  0.1765
  782MOL0     C 3112   7.941   8.857   3.003 -0.1336  1.2811 -0.1496
  782MOL0     C 3113   7.857   8.979   3.040  0.7723 -0.4907 -0.0565
  782MOL0     C 3114   7.779   8.957   3.177  0.0830 -0.4119  0.5684
  782MOL0     C 3115   7.711   9.095   3.219  0.2634  0.3507  0.6073
  782MOL0     O 3116   7.633   9.143   3.108 -0.2182 -0.0278 -0.4901
  782MOL0     C 3117   7.545   9.245   3.127  0.1217 -0.2418 -0.3261
  782MOL0     C 3118   7.462   9.269   3.016 -0.4398 -0.3280 -0.6966
  782MOL0     C 3119   7.377   9.382   3.018 -0.2469 -0.6727 -0.1669
  782MOL0     C 3120   7.380   9.471   3.124 -0.2256  0.0989 -0.5926
  782MOL0     C 3121   7.331   9.603   3.104 -0.6527 -0.4191 -0.0845
  782MOL0     O 3122   7.313   9.658   2.976 -0.8566  0.3832  0.0062
  782MOL0     C 3123   7.304   9.792   2.937 -0.0366  0.3552  1.5074
  782MOL0     C 3124   7.246   9.821   2.811  0.0626 -0.3282  0.1357
  782MOL0     C 3125   7.250   9.953   2.765 -0.2169  0.6455 -0.3436
  782MOL0     C 3126   7.301  10.059   2.841 -0.2687  0.1201 -0.3923
  782MOL0     O 3127   7.308  10.194   2.817  0.1365 -0.1284  0.7070
  782MOL0     C 3128   7.245  10.244   2.702  0.1934  0.1600  0.2444
  782MOL0     C 3129   7.094  10.223   2.684  0.4340 -0.0447  0.5425
  782MOL0     C 3130   7.007  10.243   2.809 -0.2036 -0.4533  0.3731
  782MOL0     C 3131   6.867  10.220   2.769  0.7104  0.8020  0.5446
  782MOL0     C 3132   6.765  10.254   2.873  0.3143  0.1752  0.1549
  782MOL0     C 3133   6.620  10.217   2.827 -0.5561  0.1765  0.8867
  782MOL0     C 3134   6.523  10.278   2.918  0.3359 -0.8313 -0.0968
  782MOL0     C 3135   6.374  10.271   2.858 -0.0240  0.3892 -0.8338
  782MOL0    Cl 3136   6.342  10.126   2.764 -0.6230 -0.0303  0.2909
  782MOL0     C 3137   7.355  10.029   2.968 -0.2905  0.0686  0.3816
  782MOL0     C 3138   7.354   9.897   3.016 -0.7550  0.0286  0.2647
  782MOL0     O 3139   7.317   9.672   3.207 -0.4106  0.0307  0.2740
  782MOL0     C 3140   7.445   9.426   3.235  0.2830 -0.7487  1.0739
  782MOL0     C 3141   7.524   9.313   3.239  0.1477 -0.7536 -0.6420
  782MOL0     N 3142   7.909   8.893   2.759  0.2764 -0.1668 -0.0039
  782MOL0     N 3143   7.990   8.901   2.657  0.0118  0.3561  0.3108
  782MOL0     C 3144   9.327   8.863   2.423  0.8277  0.1427  0.3758
  782MOL0     C 3145   9.468   8.874   2.402  0.6444 -0.2944  0.6049
  782MOL0     C 3146   9.923   8.775   2.517 -0.4903 -0.1525  0.6865
  782MOL0     C 3147   9.980   8.845   2.401 -1.1464  0.5464 -0.8340
  782MOL0     C 3148  10.120   8.829   2.374 -1.1682 -0.0984  0.2434
  782MOL0     C 3149  10.202   8.749   2.451 -0.9602  1.0167 -0.9756
  782MOL0     O 3150  10.343   8.738   2.421 -0.0309 -0.1143 -0.2781
  782MOL0     C 3151  10.430   8.653   2.501  0.6397 -0.7541 -0.4203
  782MOL0     C 3152  10.575   8.677   2.463 -0.5494  0.1091  0.6314
  782MOL0     C 3153  10.625   8.824   2.472  0.2221 -0.5308 -0.6900
  782MOL0     C 3154  10.773   8.840   2.522  0.8515 -0.2460  0.4314
  782MOL0     C 3155  10.869   8.818   2.416  0.2121 -0.0231 -0.1053
  782MOL0     C 3156  10.934   8.783   2.320  0.2261  0.6558 -0.0394
  782MOL0     C 3157  10.143   8.683   2.561 -0.0214  0.5633 -0.9631
  782MOL0     C 3158  10.010   8.703   2.600 -0.2589 -0.4232  0.0092
  782MOL0     H 3159   9.569   8.584   2.556 -2.4734 -1.9628 -0.1036
  782MOL0     H 3160   9.331   8.572   2.591  0.9068 -1.2976  0.3245
  782MOL0     H 3161   9.072   8.788   2.365  0.9145 -0.3623  0.1574
  782MOL0     H 3162   9.065   8.917   2.488  2.4221 -0.0960  2.0395
  782MOL0     H 3163   8.894   8.795   2.606  1.9555 -4.6848  0.4512
  782MOL0     H 3164   8.908   8.663   2.496  0.6337 -1.0007  3.7588
  782MOL0     H 3165   8.850   8.788   2.302  0.0908 -1.8575  1.0599
  782MOL0     H 3166   8.816   8.938   2.399 -0.5822  0.2043  1.1833
  782MOL0     H 3167   8.612   8.790   2.317  0.2705 -2.2120 -0.0888
  782MOL0     H 3168   8.665   8.661   2.423  1.3118  0.6078 -0.0786
  782MOL0     H 3169   8.615   8.945   2.522 -0.3229  0.0973 -3.0318
  782MOL0     H 3170   8.614   8.791   2.613 -0.7802  1.2772  0.8535
  782MOL0     H 3171   8.419   8.714   2.467  1.8743 -1.1484 -0.8009
  782MOL0     H 3172   8.417   8.876   2.408 -2.0254  0.5260  1.4992
  782MOL0     H 3173   8.381   8.814   2.710 -0.9262 -0.1377 -0.0964
  782MOL0     H 3174   8.334   8.962   2.629  0.6418 -0.2302 -1.1313
  782MOL0     H 3175   8.221   8.689   2.598  1.4624 -0.9479  0.7750
  782MOL0     H 3176   8.175   8.828   2.491 -1.6854  0.5111  1.1302
  782MOL0     H 3177   8.195   8.777   2.868 -0.9922 -0.4412  1.3908
  782MOL0     H 3178   8.030   8.841   3.064  0.0546  1.6843 -0.3138
  782MOL0     H 3179   7.878   8.770   3.023 -0.2624  1.7830  1.8631
  782MOL0     H 3180   7.784   9.009   2.965 -1.7834  3.3446  3.5180
  782MOL0     H 3181   7.925   9.064   3.049 -0.0338  0.0868  0.7337
  782MOL0     H 3182   7.700   8.882   3.182 -0.9745  0.6472  0.3078
  782MOL0     H 3183   7.856   8.930   3.250  2.0423  0.0595 -1.2252
  782MOL0     H 3184   7.797   9.159   3.241 -0.0688  1.7962 -1.8710
  782MOL0     H 3185   7.652   9.085   3.310  1.1401 -2.5990  0.9352
  782MOL0     H 3186   7.465   9.214   2.923 -2.4929 -0.4078 -0.7618
  782MOL0     H 3187   7.313   9.407   2.934 -1.0830  0.7048  0.8266
  782MOL0     H 3188   7.194   9.741   2.758 -2.0158 -0.4547  2.1814
  782MOL0     H 3189   7.212   9.964   2.664  0.1909  0.2651 -0.5402
  782MOL0     H 3190   7.302  10.209   2.615  0.4981 -0.4225  0.6730
  782MOL0     H 3191   7.254  10.353   2.706  0.5028  0.1521 -0.1614
  782MOL0     H 3192   7.076  10.126   2.637 -0.8423 -0.2671  1.4204
  782MOL0     H 3193   7.057  10.290   2.606 -2.9759 -2.3128 -0.0399
  782MOL0     H 3194   7.005  10.346   2.846  0.9699  0.6490 -2.3876
  782MOL0     H 3195   7.048  10.172   2.882 -0.7277 -0.4169  0.7106
  782MOL0     H 3196   6.848  10.283   2.682  3.2957  0.9650  0.0175
  782MOL0     H 3197   6.853  10.117   2.733  0.2958  0.5836  1.3056
  782MOL0     H 3198   6.771  10.362   2.886  0.5688  0.3163 -1.0292
  782MOL0     H 3199   6.786  10.211   2.972  1.9812  0.1953 -0.1594
  782MOL0     H 3200   6.616  10.108   2.833 -1.8374 -0.0381 -2.0497
  782MOL0     H 3201   6.613  10.252   2.724  1.9644  0.5510  0.7773
  782MOL0     H 3202   6.537  10.223   3.011  1.0163  0.6102  0.6944
  782MOL0     H 3203   6.545  10.384   2.935 -3.7616 -0.1417  2.2180
  782MOL0     H 3204   6.348  10.361   2.801 -0.4927  0.9957  0.2980
  782MOL0     H 3205   6.307  10.273   2.945  1.8942  2.3327  0.7421
  782MOL0     H 3206   7.395  10.113   3.023  1.5523  2.1476 -3.6912
  782MOL0     H 3207   7.407   9.869   3.106  1.4449  1.8419 -0.3768
  782MOL0     H 3208   7.451   9.479   3.330 -1.2573 -1.9677  1.9082
  782MOL0     H 3209   7.594   9.298   3.321 -0.6903 -2.4654 -0.1854
  782MOL0     H 3210   9.266   8.946   2.389  0.7648  0.3690  1.0151
  782MOL0     H 3211   9.516   8.945   2.335 -1.1583  0.1275 -0.3151
  782MOL0     H 3212   9.931   8.905   2.325 -0.9974  1.0632 -0.5354
  782MOL0     H 3213  10.162   8.879   2.287  0.5182 -2.7395 -0.5793
  782MOL0     H 3214  10.420   8.547   2.475  0.8941 -0.6277 -1.0720
  782MOL0     H 3215  10.428   8.675   2.608 -0.5836  0.5032 -0.6771
  782MOL0     H 3216  10.622   8.630   2.550  1.1983  0.4234 -0.1131
  782MOL0     H 3217  10.597   8.623   2.371  2.6508  0.2323  1.2234
  782MOL0     H 3218  10.557   8.881   2.537  1.4093  0.1302  0.0135
  782MOL0     H 3219  10.618   8.872   2.374 -0.0293  0.8097 -0.0476
  782MOL0     H 3220  10.770   8.941   2.564 -3.1274 -1.2169  3.1012
  782MOL0     H 3221  10.804   8.772   2.602 -1.9627 -0.8229  1.1389
  782MOL0     H 3222  10.988   8.752   2.232  2.9246 -1.3119  2.1276
  782MOL0     H 3223  10.194   8.612   2.625 -1.3296  2.1052  1.9654
  782MOL0     H 3224   9.976   8.662   2.694 -2.4187  0.0980 -0.4755
  783MOL0     O 3225  10.876   8.086   2.855 -0.6291 -0.0460 -0.4760
  783MOL0     C 3226  10.771   8.141   2.896 -0.7605 -0.0735 -0.5159
  783MOL0     O 3227  10.759   8.268   2.904  0.2503  0.7333  0.3357
  783MOL0     C 3228  10.835   8.357   2.839  0.0200  0.7569  0.0222
  783MOL0     C 3229  10.964   8.389   2.890  0.4512 -0.9673 -0.3314
  783MOL0     C 3230  11.047   8.477   2.807 -0.1055  0.4069 -0.9212
  783MOL0     C 3231  11.011   8.509   2.676 -0.2699  0.0452  0.2530
  783MOL0     O 3232  11.097   8.553   2.578 -0.8652 -0.6364 -0.1795
  783MOL0     C 3233  11.232   8.496   2.584 -0.0215  0.2240  0.7829
  783MOL0     C 3234  11.325   8.584   2.492 -0.7473 -0.3060  0.0913
  783MOL0     C 3235  11.444   8.508   2.429  0.6773  0.2332 -0.0394
  783MOL0     C 3236  11.550   8.458   2.526 -0.5096  0.4027 -0.3383
  783MOL0     C 3237  11.651   8.368   2.469 -1.0035 -0.0458 -0.6453
  783MOL0     C 3238  11.739   8.439   2.363 -0.1439 -0.7719  0.1492
  783MOL0     C 3239  11.856   8.355   2.318 -0.1587 -0.1175  0.2687
  783MOL0     C 3240  11.946   8.437   2.230  0.3088 -0.6443  0.5689
  783MOL0     N 3241  12.063   8.368   2.191  0.4043  0.1001 -0.0145
  783MOL0     C 3242  12.087   8.312   2.067  0.0849  0.2824  0.2643
  783MOL0     C 3243  12.219   8.283   2.064  0.0956 -0.5632 -0.0654
  783MOL0     C 3244  12.284   8.224   1.948  0.7523  0.2133 -0.1576
  783MOL0     C 3245  12.421   8.166   1.989 -0.1344 -1.1448  0.5162
  783MOL0     C 3246  12.417   8.033   2.059  0.3931 -0.0223 -0.4550
  783MOL0     C 3247  12.559   7.982   2.084  0.0717  0.4634 -0.2193
  783MOL0     O 3248  12.638   8.063   2.164 -0.5900 -0.0095  0.4744
  783MOL0     C 3249  12.780   8.034   2.175  0.7981 -0.4918  0.4229
  783MOL0     C 3250  12.835   7.916   2.113 -0.6297 -0.5044  0.3052
  783MOL0     C 3251  12.981   7.898   2.130 -0.2142  0.6237  0.0390
  783MOL0     C 3252  13.058   7.979   2.216 -0.2974 -0.0748  0.3984
  783MOL0     C 3253  13.209   7.958   2.218 -0.3481  0.1899 -0.7466
  783MOL0     O 3254  13.278   8.048   2.290 -0.1058 -0.4441 -0.4788
  783MOL0     C 3255  13.416   8.050   2.303  0.8023  0.1532  0.2899
  783MOL0     C 3256  13.505   7.972   2.227  0.3876 -1.0979 -0.4586
  783MOL0     C 3257  13.643   7.987   2.227  0.2899  1.0678  0.1795
  783MOL0     C 3258  13.705   8.068   2.320  1.0861  0.5698  1.3944
  783MOL0     O 3259  13.844   8.076   2.311 -0.1495  0.2339 -0.3626
  783MOL0     C 3260  13.908   8.108   2.434  1.0334 -1.1658  0.0256
  783MOL0     C 3261  13.932   8.257   2.457 -1.1405  0.2766  0.4094
  783MOL0     C 3262  13.995   8.336   2.336 -0.1101  0.6355 -0.0538
  783MOL0     C 3263  14.044   8.472   2.378 -0.0902 -0.5122  0.2472
  783MOL0     C 3264  14.151   8.528   2.277 -0.4269 -0.5167 -0.1385
  783MOL0     C 3265  14.175   8.679   2.317 -0.5248  0.9949 -0.6374
  783MOL0     C 3266  14.246   8.750   2.206 -0.1051  0.3517  0.3642
  783MOL0     C 3267  14.325   8.876   2.237  0.7509  0.7080 -0.5333
  783MOL0    Cl 3268  14.446   8.845   2.371  0.0310  0.1760 -0.2206
  783MOL0     C 3269  13.622   8.145   2.410  0.6946  0.4675  1.3910
  783MOL0     C 3270  13.478   8.127   2.399 -0.7064 -0.0043 -1.5149
  783MOL0     O 3271  13.248   7.853   2.174 -0.0031  0.6469 -0.1717
  783MOL0     C 3272  12.992   8.087   2.279  0.4814 -0.4920  0.3588
  783MOL0     C 3273  12.854   8.110   2.262 -0.1816  0.8978  0.1096
  783MOL0     N 3274  12.273   8.333   2.188 -0.6889  0.6402  0.3751
  783MOL0     N 3275  12.181   8.384   2.250 -0.3335  0.0728 -0.2104
  783MOL0     C 3276  10.884   8.485   2.638  0.8468 -0.0231 -0.0534
  783MOL0     C 3277  10.788   8.418   2.719  0.9613  0.1500  1.1547
  783MOL0     C 3278  10.652   8.065   2.951 -0.4273 -0.6329  0.0916
  783MOL0     C 3279  10.523   8.123   2.935  0.3073 -0.1450  0.8115
  783MOL0     C 3280  10.403   8.052   2.982  0.2462 -0.1226  0.2613
  783MOL0     C 3281  10.421   7.929   3.048  0.4427 -0.2687  0.1548
  783MOL0     O 3282  10.321   7.854   3.094  0.1296 -0.0967 -0.2412
  783MOL0     C 3283  10.289   7.748   3.009  0.0889  0.1047 -0.6954
  783MOL0     C 3284  10.138   7.731   3.046  0.4658 -0.6816  0.5208
  783MOL0     C 3285  10.081   7.606   2.967  0.2817  0.4859 -0.2220
  783MOL0     C 3286  10.126   7.595   2.819  0.0591 -0.7014 -0.3468
  783MOL0     C 3287  10.256   7.538   2.809 -0.2760 -0.3469  0.3866
  783MOL0     C 3288  10.369   7.500   2.801 -0.0774  0.2144 -0.4647
  783MOL0     C 3289  10.550   7.864   3.049 -0.4570  0.0534  0.6941
  783MOL0     C 3290  10.664   7.933   2.998  0.1141 -0.2485  0.3682
  783MOL0     H 3291  10.988   8.343   2.985 -1.1416  2.1110  1.7632
  783MOL0     H 3292  11.147   8.499   2.845 -1.5460  2.4797  2.0812
  783MOL0     H 3293  11.215   8.399   2.536 -0.1196  0.5500  0.1532
  783MOL0     H 3294  11.272   8.471   2.683 -0.6099  0.6406  1.1295
  783MOL0     H 3295  11.354   8.677   2.542  1.8282 -0.9267 -0.1176
  783MOL0     H 3296  11.274   8.622   2.403 -0.7245  2.5960  1.2245
  783MOL0     H 3297  11.487   8.581   2.359 -3.0443  0.3819 -2.4369
  783MOL0     H 3298  11.397   8.424   2.377 -0.8545 -0.0003  1.6525
  783MOL0     H 3299  11.596   8.551   2.561  1.6035 -0.0893 -1.6275
  783MOL0     H 3300  11.496   8.425   2.616 -1.4351  3.6821  0.4401
  783MOL0     H 3301  11.605   8.277   2.429  2.9829 -1.3825 -2.7322
  783MOL0     H 3302  11.720   8.334   2.547  1.5780  0.9667 -2.3340
  783MOL0     H 3303  11.779   8.526   2.415  1.9340 -1.8116  0.3813
  783MOL0     H 3304  11.678   8.476   2.280  0.3267  0.0039  0.1349
  783MOL0     H 3305  11.908   8.333   2.412 -1.8860 -1.0348  1.0546
  783MOL0     H 3306  11.829   8.260   2.270 -3.1418  0.5665  0.4165
  783MOL0     H 3307  11.973   8.530   2.280 -0.8581 -0.0346  0.0938
  783MOL0     H 3308  11.906   8.473   2.136  1.3361  0.0345  0.3743
  783MOL0     H 3309  12.010   8.300   1.991 -1.0564  0.3579  1.3798
  783MOL0     H 3310  12.297   8.299   1.871  1.2110 -0.1386 -0.4286
  783MOL0     H 3311  12.222   8.146   1.904 -0.0826  0.6694  0.1762
  783MOL0     H 3312  12.478   8.244   2.040  0.9456 -1.5334 -0.0574
  783MOL0     H 3313  12.485   8.143   1.903  0.5483 -0.7942  0.9289
  783MOL0     H 3314  12.367   8.041   2.156  2.3366 -3.2894  1.0138
  783MOL0     H 3315  12.363   7.959   2.000 -0.6452  0.9620 -0.7673
  783MOL0     H 3316  12.595   7.975   1.981 -1.5263  0.5656 -0.8199
  783MOL0     H 3317  12.553   7.879   2.121  0.8723 -0.5158 -2.6235
  783MOL0     H 3318  12.778   7.844   2.055 -0.5973  1.5047 -2.3833
  783MOL0     H 3319  13.028   7.826   2.063 -1.0975 -0.9386  1.0337
  783MOL0     H 3320  13.469   7.904   2.150  0.3321  0.2909 -1.7170
  783MOL0     H 3321  13.712   7.937   2.161  0.7504 -0.0445  1.4676
  783MOL0     H 3322  14.005   8.060   2.424  0.9738 -1.0641 -1.0743
  783MOL0     H 3323  13.857   8.065   2.521  0.8579 -0.3682  0.3244
  783MOL0     H 3324  13.998   8.274   2.542 -1.2144  3.8639 -0.0758
  783MOL0     H 3325  13.836   8.302   2.483 -0.8979  0.3390  1.1999
  783MOL0     H 3326  13.919   8.353   2.259  0.0156  0.4309 -0.2214
  783MOL0     H 3327  14.080   8.276   2.304 -1.3136 -0.7630 -0.7610
  783MOL0     H 3328  13.970   8.552   2.388 -1.1193 -1.5149  0.8798
  783MOL0     H 3329  14.100   8.463   2.472  3.6085  4.9097 -0.9543
  783MOL0     H 3330  14.115   8.524   2.174  0.3153 -2.8810 -0.3589
  783MOL0     H 3331  14.247   8.476   2.280 -0.2251 -0.3067  4.5708
  783MOL0     H 3332  14.229   8.687   2.412 -0.1482 -2.0747 -0.4790
  783MOL0     H 3333  14.079   8.728   2.332 -3.0103 -3.2133 -1.1960
  783MOL0     H 3334  14.313   8.675   2.163 -2.3324 -0.7546 -1.4097
  783MOL0     H 3335  14.169   8.771   2.131  0.9774  1.3202 -0.5032
  783MOL0     H 3336  14.254   8.948   2.280  0.0554  0.5892 -1.4781
  783MOL0     H 3337  14.370   8.927   2.151  1.2419  0.6911 -0.2914
  783MOL0     H 3338  13.650   8.199   2.501  3.3928 -0.0151  0.9238
  783MOL0     H 3339  13.421   8.178   2.476  0.5414  1.8209 -1.7421
  783MOL0     H 3340  13.040   8.152   2.352 -0.6264 -0.8062  1.4141
  783MOL0     H 3341  12.803   8.190   2.314  0.5026  0.0073  2.3029
  783MOL0     H 3342  10.849   8.512   2.539 -0.1145 -2.2041 -0.3600
  783MOL0     H 3343  10.694   8.378   2.681  0.9261  0.9894  0.3264
  783MOL0     H 3344  10.511   8.219   2.885  0.2474 -1.2501 -1.4585
  783MOL0     H 3345  10.305   8.096   2.965 -0.2844 -1.2725  0.2342
  783MOL0     H 3346  10.345   7.663   3.047  2.2027  2.1513  1.0643
  783MOL0     H 3347  10.302   7.771   2.902 -2.5320 -1.1281 -1.3691
  783MOL0     H 3348  10.123   7.721   3.154  0.6372 -0.1577  0.5971
  783MOL0     H 3349  10.086   7.822   3.016  1.0034  0.8239  3.7382
  783MOL0     H 3350   9.972   7.610   2.974  0.1699 -1.7095  0.1964
  783MOL0     H 3351  10.107   7.512   3.016 -1.5712 -1.3107 -2.4235
  783MOL0     H 3352  10.056   7.544   2.753  0.2602 -0.7611 -0.5170
  783MOL0     H 3353  10.131   7.700   2.787 -0.1045 -0.4674  0.3905
  783MOL0     H 3354  10.468   7.462   2.781 -0.3268 -0.1128 -1.0812
  783MOL0     H 3355  10.572   7.767   3.092  1.8563 -0.3678 -1.1923
  783MOL0     H 3356  10.758   7.878   3.004  1.2128  1.1459 -2.3936
  784MOL0     O 3357   8.478   7.007   4.718 -0.1115 -0.2703 -0.3305
  784MOL0     C 3358   8.535   6.909   4.776 -0.3776  0.0433 -0.1917
  784MOL0     O 3359   8.463   6.806   4.834 -0.2472 -0.0386  0.6234
  784MOL0     C 3360   8.324   6.808   4.812 -0.1446 -0.0652 -0.0990
  784MOL0     C 3361   8.266   6.834   4.686 -0.4168 -0.2443 -0.0388
  784MOL0     C 3362   8.123   6.811   4.670 -0.0334 -0.7629 -0.3682
  784MOL0     C 3363   8.048   6.764   4.785 -0.1311  0.5699 -0.4134
  784MOL0     O 3364   7.915   6.736   4.754  0.1420  0.1301 -0.0719
  784MOL0     C 3365   7.816   6.756   4.850  0.6688 -0.2488 -0.1406
  784MOL0     C 3366   7.677   6.710   4.794 -0.0508  0.8216 -0.2694
  784MOL0     C 3367   7.577   6.737   4.901  0.2733  0.3809  1.1576
  784MOL0     C 3368   7.444   6.739   4.833  0.9219 -0.5595 -0.2667
  784MOL0     C 3369   7.326   6.781   4.928 -0.2135 -0.3854  0.1900
  784MOL0     C 3370   7.190   6.769   4.862 -0.5506  0.1070  0.5430
  784MOL0     C 3371   7.084   6.844   4.936  0.8439  0.4072 -1.1740
  784MOL0     C 3372   6.949   6.811   4.863 -0.3501 -0.7265 -0.7571
  784MOL0     N 3373   6.840   6.859   4.958 -0.3570  0.5119  0.7079
  784MOL0     C 3374   6.815   6.987   5.003  1.0336 -0.7034  0.3324
  784MOL0     C 3375   6.723   6.975   5.104 -0.0410 -0.0727 -0.1531
  784MOL0     C 3376   6.700   7.103   5.181 -1.0598  0.5935 -0.8609
  784MOL0     C 3377   6.543   7.145   5.176  0.2238 -0.1203 -0.0149
  784MOL0     C 3378   6.536   7.288   5.237  1.3406 -0.3094 -0.5440
  784MOL0     C 3379   6.395   7.338   5.222 -1.0573  0.2876  0.1170
  784MOL0     O 3380   6.299   7.249   5.279 -0.1804  0.3505  0.7182
  784MOL0     C 3381   6.292   7.241   5.419  0.4363  0.5791  0.2021
  784MOL0     C 3382   6.347   7.329   5.511 -0.2505  0.8072  0.4961
  784MOL0     C 3383   6.329   7.311   5.648  0.4180  0.4232 -0.3506
  784MOL0     C 3384   6.235   7.231   5.695  0.6589 -0.3391 -0.0001
  784MOL0     C 3385   6.199   7.226   5.839  0.2449  1.0068  0.2472
  784MOL0     O 3386   6.170   7.098   5.879 -0.0997 -0.1548  1.1656
  784MOL0     C 3387   6.163   7.088   6.015  0.2105  0.1838  0.5708
  784MOL0     C 3388   6.041   7.056   6.070 -0.3315  1.6517  0.0593
  784MOL0     C 3389   6.015   7.048   6.210  0.1073 -0.5976  0.3152
  784MOL0     C 3390   6.130   7.066   6.298  1.0468 -0.6180  0.0638
  784MOL0     O 3391   6.092   7.052   6.424 -0.0451  0.3318  0.3226
  784MOL0     C 3392   6.193   6.996   6.509  0.4814 -0.1817  0.8416
  784MOL0     C 3393   6.261   7.111   6.582  0.1242  0.1458 -0.5847
  784MOL0     C 3394   6.394   7.073   6.643 -0.6143 -0.6466 -0.1521
  784MOL0     C 3395   6.463   7.196   6.716 -0.2437  0.7126 -0.3171
  784MOL0     C 3396   6.600   7.171   6.761  0.2354  1.3052  0.6294
  784MOL0     C 3397   6.696   7.130   6.648 -0.3415 -0.5331  0.8921
  784MOL0     C 3398   6.842   7.135   6.684 -0.1320  0.0156 -0.2150
  784MOL0     C 3399   6.942   7.123   6.560 -0.2022 -0.4884 -0.1667
  784MOL0    Cl 3400   7.111   7.155   6.615 -0.1790 -0.2637  0.1075
  784MOL0     C 3401   6.257   7.096   6.249 -0.8457  0.0835 -0.1011
  784MOL0     C 3402   6.275   7.108   6.106 -0.3433  0.1731  0.0136
  784MOL0     O 3403   6.203   7.328   5.898  0.6323 -0.1850  0.5623
  784MOL0     C 3404   6.154   7.154   5.606 -0.4002  1.0656 -0.1393
  784MOL0     C 3405   6.195   7.149   5.471 -0.2249 -0.1706  1.0139
  784MOL0     N 3406   6.697   6.840   5.121  0.9259  0.1229 -0.2310
  784MOL0     N 3407   6.766   6.776   5.038 -0.1905 -0.4402 -0.4488
  784MOL0     C 3408   8.121   6.721   4.904  0.0249  0.4220  0.0027
  784MOL0     C 3409   8.249   6.754   4.921  1.3007 -0.1001  0.2353
  784MOL0     C 3410   8.681   6.928   4.796 -0.1350 -0.3106 -0.5613
  784MOL0     C 3411   8.741   7.060   4.773  0.2408 -0.7263 -0.3710
  784MOL0     C 3412   8.874   7.082   4.814 -0.3073  0.3746  0.4259
  784MOL0     C 3413   8.952   6.979   4.874 -0.5050 -0.2662 -0.4178
  784MOL0     O 3414   9.077   7.012   4.907 -0.5596 -0.5173 -0.0787
  784MOL0     C 3415   9.168   6.997   4.804  0.0341 -0.1657 -0.2795
  784MOL0     C 3416   9.302   7.029   4.858 -0.3606 -0.4865 -0.8783
  784MOL0     C 3417   9.395   6.966   4.755 -0.1638  0.8201 -0.5560
  784MOL0     C 3418   9.543   6.989   4.806  1.1122  0.6535 -0.1925
  784MOL0     C 3419   9.647   6.907   4.743  0.7073  0.9661 -0.0967
  784MOL0     C 3420   9.722   6.832   4.688  0.2426 -0.2981 -0.1399
  784MOL0     C 3421   8.896   6.850   4.882  0.7245  0.3622 -0.3671
  784MOL0     C 3422   8.767   6.819   4.836  0.5004 -0.4324  0.6849
  784MOL0     H 3423   8.326   6.868   4.602 -1.4697 -1.4960 -1.3558
  784MOL0     H 3424   8.072   6.824   4.575 -2.4591 -2.6321  0.5872
  784MOL0     H 3425   7.821   6.862   4.874  0.7681 -0.4991  0.9667
  784MOL0     H 3426   7.847   6.692   4.932  1.4267 -0.3914 -0.5260
  784MOL0     H 3427   7.678   6.610   4.751  1.3781  0.6159  0.1872
  784MOL0     H 3428   7.657   6.781   4.713  1.1396 -0.6182 -1.9043
  784MOL0     H 3429   7.590   6.835   4.946 -1.5064  0.7547  0.9466
  784MOL0     H 3430   7.580   6.662   4.981  0.4559  1.3249  2.0508
  784MOL0     H 3431   7.429   6.808   4.750 -4.3827  0.9718  1.5774
  784MOL0     H 3432   7.431   6.638   4.793  1.3824 -0.7960  0.1686
  784MOL0     H 3433   7.328   6.887   4.953 -3.5779 -1.1716  5.4167
  784MOL0     H 3434   7.330   6.716   5.016  1.9424 -1.0610 -0.3262
  784MOL0     H 3435   7.168   6.662   4.864 -1.1031  0.1039 -2.1722
  784MOL0     H 3436   7.193   6.812   4.761 -0.7652  0.2120  0.5794
  784MOL0     H 3437   7.066   6.806   5.037 -1.1998  1.7245 -0.9899
  784MOL0     H 3438   7.105   6.952   4.939 -1.2831  0.8351  1.2566
  784MOL0     H 3439   6.926   6.704   4.872 -0.5814 -0.6666 -0.6124
  784MOL0     H 3440   6.931   6.853   4.764 -1.8433  1.2662  0.2835
  784MOL0     H 3441   6.855   7.081   4.965 -1.6789  1.1679  1.7109
  784MOL0     H 3442   6.769   7.181   5.148 -0.8747  1.2647  0.9505
  784MOL0     H 3443   6.723   7.096   5.288 -3.0823 -0.0142 -0.4368
  784MOL0     H 3444   6.481   7.077   5.234 -0.8478 -0.0911 -1.0834
  784MOL0     H 3445   6.500   7.151   5.076  0.0893 -1.5213 -0.0618
  784MOL0     H 3446   6.556   7.295   5.344 -1.9811  0.7093  0.1280
  784MOL0     H 3447   6.613   7.347   5.186  0.0307  1.4299 -0.5892
  784MOL0     H 3448   6.374   7.338   5.114 -0.1581  3.8683 -0.1818
  784MOL0     H 3449   6.389   7.440   5.259 -1.3347  0.6825 -0.9786
  784MOL0     H 3450   6.427   7.396   5.484 -0.9380  0.7595 -1.8151
  784MOL0     H 3451   6.392   7.359   5.722 -0.7115  0.2726  0.7418
  784MOL0     H 3452   5.972   7.010   6.000  1.2723 -0.1664 -0.4047
  784MOL0     H 3453   5.916   7.026   6.248  0.6799 -0.7479  1.7836
  784MOL0     H 3454   6.265   6.938   6.451  0.9609  0.3700  0.8736
  784MOL0     H 3455   6.144   6.935   6.586  0.0849 -1.2935 -0.2487
  784MOL0     H 3456   6.186   7.144   6.655 -0.7105 -1.1469 -0.8162
  784MOL0     H 3457   6.288   7.197   6.520  4.0842 -0.1833  0.3854
  784MOL0     H 3458   6.456   7.045   6.557 -2.4122 -2.2183 -1.0413
  784MOL0     H 3459   6.382   6.987   6.710 -0.7733 -2.0792 -1.9025
  784MOL0     H 3460   6.454   7.281   6.646 -2.6569 -0.8352 -2.0717
  784MOL0     H 3461   6.406   7.225   6.805 -1.6814  0.2136 -1.0451
  784MOL0     H 3462   6.597   7.093   6.837 -1.2306  1.8468  1.1556
  784MOL0     H 3463   6.637   7.264   6.807  3.1299  0.7474 -0.3331
  784MOL0     H 3464   6.691   7.212   6.576  0.6847 -0.0417  1.3637
  784MOL0     H 3465   6.664   7.040   6.595 -1.0081 -0.4367  1.1216
  784MOL0     H 3466   6.856   7.229   6.738  0.8080  0.7614 -1.6933
  784MOL0     H 3467   6.862   7.054   6.755  0.8499 -0.8834 -1.4739
  784MOL0     H 3468   6.913   7.195   6.483 -1.3788 -0.2577  0.4687
  784MOL0     H 3469   6.931   7.021   6.521 -0.1261 -1.3840  2.0464
  784MOL0     H 3470   6.343   7.109   6.314 -1.8862 -3.2743  2.1853
  784MOL0     H 3471   6.373   7.132   6.067 -0.9993  1.1894 -1.0690
  784MOL0     H 3472   6.066   7.097   5.635 -1.0095  1.5267 -1.0220
  784MOL0     H 3473   6.138   7.098   5.395 -1.1784 -0.8253  2.1424
  784MOL0     H 3474   8.055   6.671   4.974 -2.8817 -3.0139 -4.6266
  784MOL0     H 3475   8.293   6.736   5.019  2.9461 -0.1747 -0.4916
  784MOL0     H 3476   8.681   7.146   4.746  3.1171  1.3693 -0.4667
  784MOL0     H 3477   8.919   7.181   4.808  0.6418 -0.0500  0.3890
  784MOL0     H 3478   9.146   7.063   4.719 -0.8632 -0.3481 -0.1955
  784MOL0     H 3479   9.153   6.892   4.778  0.1951 -0.5477  1.1169
  784MOL0     H 3480   9.328   7.134   4.875  0.0110 -0.9882  2.3331
  784MOL0     H 3481   9.303   6.978   4.955  1.5025  1.2879  0.1157
  784MOL0     H 3482   9.377   6.999   4.653  0.4018  0.4165 -0.7914
  784MOL0     H 3483   9.378   6.858   4.756 -2.3169  1.1237  0.5609
  784MOL0     H 3484   9.577   7.093   4.805 -0.6074  1.2766  0.7903
  784MOL0     H 3485   9.542   6.959   4.911 -0.6921  1.1918 -0.0184
  784MOL0     H 3486   9.802   6.772   4.649  2.5192  2.0174  0.6682
  784MOL0     H 3487   8.962   6.775   4.926 -0.5882 -2.1523 -2.4516
  784MOL0     H 3488   8.737   6.716   4.853 -0.2565 -0.2798  0.3349
  785MOL0     O 3489   5.559   6.130   9.485  0.1529 -0.3934  0.3847
  785MOL0     C 3490   5.508   6.095   9.592 -0.2493 -0.1383  0.4621
  785MOL0     O 3491   5.555   6.003   9.675 -0.2997 -0.7353  0.2426
  785MOL0     C 3492   5.684   5.964   9.676  0.1669  0.7176  0.0418
  785MOL0     C 3493   5.802   6.021   9.622  0.9996 -0.7885  0.4501
  785MOL0     C 3494   5.932   5.961   9.639  0.7400  0.5503 -0.6574
  785MOL0     C 3495   5.942   5.829   9.688  0.1784 -0.5461 -0.1552
  785MOL0     O 3496   6.043   5.744   9.675 -0.0381  0.2102  0.3659
  785MOL0     C 3497   6.173   5.789   9.637  0.2997 -0.1869  0.1267
  785MOL0     C 3498   6.250   5.873   9.750 -0.2103 -0.5278  0.3560
  785MOL0     C 3499   6.356   5.952   9.678  0.3008  0.6148 -0.2959
  785MOL0     C 3500   6.448   6.030   9.783  0.3356 -0.3656 -0.1356
  785MOL0     C 3501   6.582   6.096   9.733  0.3303 -0.6842 -0.3079
  785MOL0     C 3502   6.680   5.988   9.668  0.1094 -0.1538 -0.1114
  785MOL0     C 3503   6.830   6.043   9.684 -0.6616  0.4607  0.6144
  785MOL0     C 3504   6.934   5.955   9.604 -0.9713  0.1890 -0.0632
  785MOL0     N 3505   7.065   6.018   9.604  1.0520 -0.0319 -1.0890
  785MOL0     C 3506   7.108   6.111   9.519  0.3043 -0.1331 -0.1083
  785MOL0     C 3507   7.231   6.142   9.567 -0.5446  0.0619  0.4763
  785MOL0     C 3508   7.309   6.258   9.507 -0.0801 -0.4552 -0.0193
  785MOL0     C 3509   7.347   6.238   9.355  0.4910 -0.6188  0.9580
  785MOL0     C 3510   7.419   6.105   9.322 -0.4848  0.6813  0.6366
  785MOL0     C 3511   7.565   6.116   9.362  0.0191  1.0668 -0.1723
  785MOL0     O 3512   7.628   5.987   9.346  0.4219  0.2425 -0.4714
  785MOL0     C 3513   7.771   5.977   9.338  0.2639 -0.0008  0.8199
  785MOL0     C 3514   7.824   5.863   9.288  0.0104 -0.3417  0.5319
  785MOL0     C 3515   7.960   5.842   9.283  0.2609  0.3522  0.2830
  785MOL0     C 3516   8.047   5.928   9.352  0.2369 -0.7137  0.5866
  785MOL0     C 3517   8.194   5.888   9.366 -0.5067 -1.0347 -0.4535
  785MOL0     O 3518   8.230   5.766   9.313 -0.0911 -0.2270 -0.0942
  785MOL0     C 3519   8.366   5.725   9.295  0.2096 -0.0420 -0.6022
  785MOL0     C 3520   8.372   5.597   9.250  0.1316  0.6862  0.3993
  785MOL0     C 3521   8.498   5.532   9.248  0.6555 -0.9615 -0.0443
  785MOL0     C 3522   8.621   5.585   9.287  0.9570 -0.5159 -0.6073
  785MOL0     O 3523   8.723   5.500   9.282 -0.1284 -0.9543 -0.0761
  785MOL0     C 3524   8.855   5.565   9.272 -0.2387 -0.3335 -0.9909
  785MOL0     C 3525   8.894   5.573   9.125 -0.3419  0.7174  0.5736
  785MOL0     C 3526   9.044   5.622   9.091  0.8226 -0.8960 -1.0182
  785MOL0     C 3527   9.102   5.555   8.965  1.3663 -0.4185 -0.2396
  785MOL0     C 3528   9.205   5.621   8.881 -0.2882  0.5600 -0.4100
  785MOL0     C 3529   9.335   5.641   8.959 -0.8726 -0.3419  0.5081
  785MOL0     C 3530   9.447   5.702   8.872  0.5446  0.8630  0.0306
  785MOL0     C 3531   9.583   5.651   8.908 -0.5300 -0.0191  0.8495
  785MOL0    Cl 3532   9.706   5.713   8.796  0.0369 -0.3381  0.8680
  785MOL0     C 3533   8.611   5.723   9.323 -0.5125 -0.0633 -0.3457
  785MOL0     C 3534   8.485   5.788   9.327 -0.2405  0.0122 -0.1446
  785MOL0     O 3535   8.273   5.977   9.413 -0.6300  0.4377 -0.4043
  785MOL0     C 3536   8.003   6.049   9.403  0.9800  0.8187 -0.4513
  785MOL0     C 3537   7.860   6.069   9.395 -0.3661 -0.9463  1.4714
  785MOL0     N 3538   7.261   6.060   9.677 -0.0508  0.7889 -1.0318
  785MOL0     N 3539   7.164   5.984   9.692  0.4038 -0.1471 -0.3885
  785MOL0     C 3540   5.829   5.775   9.746  0.5490  0.2384 -0.0006
  785MOL0     C 3541   5.704   5.846   9.739 -0.4356 -0.2640 -0.1680
  785MOL0     C 3542   5.371   6.136   9.624  0.6143 -0.3590 -0.7149
  785MOL0     C 3543   5.299   6.091   9.739 -0.5071 -0.9249 -0.8688
  785MOL0     C 3544   5.163   6.118   9.751  0.0972  0.4701  0.2392
  785MOL0     C 3545   5.092   6.199   9.663 -0.1936 -0.0227 -0.6992
  785MOL0     O 3546   4.954   6.215   9.656  0.1183  0.4971 -0.3568
  785MOL0     C 3547   4.873   6.150   9.760  0.8050  0.2407 -0.2168
  785MOL0     C 3548   4.731   6.198   9.744  1.1930 -0.0796  0.5241
  785MOL0     C 3549   4.649   6.183   9.885 -0.6980  0.3477  1.0360
  785MOL0     C 3550   4.525   6.259   9.879 -0.1434 -0.7670  0.1976
  785MOL0     C 3551   4.422   6.205   9.796  0.3182 -0.6402 -0.4816
  785MOL0     C 3552   4.327   6.151   9.739  0.2449  0.1320 -0.3177
  785MOL0     C 3553   5.165   6.252   9.558 -0.4274 -0.9042  0.1721
  785MOL0     C 3554   5.298   6.222   9.536 -0.5239  0.1938 -0.1530
  785MOL0     H 3555   5.807   6.120   9.578  1.3703 -0.1253  1.9077
  785MOL0     H 3556   6.017   5.998   9.582  1.8777  0.3308  0.8293
  785MOL0     H 3557   6.168   5.829   9.536 -1.0312 -3.5652 -1.2875
  785MOL0     H 3558   6.229   5.695   9.632 -1.4110 -1.2450  0.1698
  785MOL0     H 3559   6.303   5.808   9.820  2.6801 -1.0000 -2.0836
  785MOL0     H 3560   6.179   5.940   9.799  1.9082  1.9757  0.2031
  785MOL0     H 3561   6.311   6.024   9.608  2.2834  0.1023 -2.1993
  785MOL0     H 3562   6.413   5.878   9.621 -1.1013 -0.2852 -0.5999
  785MOL0     H 3563   6.391   6.114   9.823  0.2195  0.1465 -1.3558
  785MOL0     H 3564   6.469   5.957   9.862  0.0458  0.3801  0.6511
  785MOL0     H 3565   6.629   6.127   9.827 -0.9364 -3.7190  1.5055
  785MOL0     H 3566   6.550   6.177   9.667 -3.4670 -2.6448 -1.1569
  785MOL0     H 3567   6.641   5.976   9.567  2.2414  1.1264 -1.1321
  785MOL0     H 3568   6.669   5.894   9.724 -3.0113  0.7584  0.9983
  785MOL0     H 3569   6.829   6.149   9.656 -1.8895 -0.4943 -3.7534
  785MOL0     H 3570   6.850   6.030   9.791 -0.0336  0.1097  0.4588
  785MOL0     H 3571   6.897   5.939   9.502  1.2489  0.7714 -1.0315
  785MOL0     H 3572   6.941   5.864   9.665  0.0002  0.5016  0.3196
  785MOL0     H 3573   7.055   6.159   9.438  2.8536  1.0430 -1.1548
  785MOL0     H 3574   7.404   6.273   9.560  0.5323 -2.0976 -0.5966
  785MOL0     H 3575   7.255   6.353   9.513 -0.3513 -0.6540  0.7207
  785MOL0     H 3576   7.411   6.321   9.322 -0.2170 -0.0227  1.0507
  785MOL0     H 3577   7.257   6.250   9.293  0.2516 -2.4276  0.8946
  785MOL0     H 3578   7.380   6.012   9.364  3.4740 -0.8771  1.3340
  785MOL0     H 3579   7.419   6.083   9.215  2.6282 -0.5412  0.7771
  785MOL0     H 3580   7.583   6.149   9.465 -0.4411  2.2073 -0.4500
  785MOL0     H 3581   7.623   6.184   9.299  1.6268 -0.9657 -1.0433
  785MOL0     H 3582   7.754   5.791   9.246 -3.0069  3.3672 -1.4284
  785MOL0     H 3583   7.989   5.752   9.229  0.0509  0.2711  0.3049
  785MOL0     H 3584   8.288   5.537   9.217  0.7259 -1.0068  1.7950
  785MOL0     H 3585   8.496   5.427   9.219  0.4407 -1.0289  0.2132
  785MOL0     H 3586   8.926   5.495   9.316  0.5230  1.0842  0.0934
  785MOL0     H 3587   8.871   5.662   9.321  1.8666 -0.9438 -0.3580
  785MOL0     H 3588   8.836   5.649   9.074  1.9000  1.2346 -1.4104
  785MOL0     H 3589   8.882   5.482   9.065  0.4849  1.5960 -1.0109
  785MOL0     H 3590   9.118   5.609   9.170 -0.8674 -1.5781  0.5288
  785MOL0     H 3591   9.036   5.729   9.067  0.4754 -0.7665 -0.3589
  785MOL0     H 3592   9.137   5.455   8.992 -2.7990 -4.0222 -5.8544
  785MOL0     H 3593   9.024   5.523   8.895  1.1688 -2.0386  0.6643
  785MOL0     H 3594   9.165   5.717   8.847  0.8440  1.0262 -0.4922
  785MOL0     H 3595   9.230   5.552   8.799  4.0023 -2.0456  2.6534
  785MOL0     H 3596   9.374   5.546   8.997 -1.2005  0.4581  3.0247
  785MOL0     H 3597   9.311   5.709   9.042 -2.5315 -0.3675  0.0894
  785MOL0     H 3598   9.422   5.680   8.768 -0.8772  0.7743  0.3712
  785MOL0     H 3599   9.443   5.811   8.872  0.1016  0.8640 -1.8725
  785MOL0     H 3600   9.597   5.543   8.909 -1.4087 -0.1636 -0.1643
  785MOL0     H 3601   9.587   5.688   9.011  0.3977  0.1648  0.7609
  785MOL0     H 3602   8.700   5.784   9.338  0.6938 -1.5935 -0.9497
  785MOL0     H 3603   8.477   5.892   9.357 -1.9805  1.0515 -3.6571
  785MOL0     H 3604   8.069   6.125   9.445  0.3450  0.6079  0.9728
  785MOL0     H 3605   7.825   6.151   9.457  2.3693  1.1391  0.4729
  785MOL0     H 3606   5.844   5.673   9.781 -0.4201 -0.1097 -0.5494
  785MOL0     H 3607   5.618   5.793   9.780  0.6119  0.2810  3.0317
  785MOL0     H 3608   5.353   6.029   9.810  1.0170  0.8562 -0.4042
  785MOL0     H 3609   5.100   6.065   9.822  0.1774 -0.6929 -0.5269
  785MOL0     H 3610   4.906   6.177   9.861  1.2566  1.6691 -0.7306
  785MOL0     H 3611   4.885   6.041   9.755  0.2395  0.2184 -1.8824
  785MOL0     H 3612   4.725   6.301   9.708  1.6757  0.6353  2.3703
  785MOL0     H 3613   4.681   6.138   9.669 -0.2659  2.0720 -0.3271
  785MOL0     H 3614   4.712   6.219   9.966 -0.1757  0.4610  0.5902
  785MOL0     H 3615   4.622   6.080   9.912 -2.9042  0.9392  1.2903
  785MOL0     H 3616   4.487   6.265   9.982 -0.1847 -1.5216  0.2356
  785MOL0     H 3617   4.550   6.358   9.840  0.2718 -0.6757  0.6771
  785MOL0     H 3618   4.243   6.092   9.708  0.8468 -2.0209  1.8505
  785MOL0     H 3619   5.114   6.310   9.481  1.4387 -0.7032 -0.9832
  785MOL0     H 3620   5.357   6.266   9.456  0.0867  1.9513  1.1928
  786MOL0     O 3621   7.956   8.764   9.462  0.2464 -0.5893 -0.0872
  786MOL0     C 3622   8.012   8.777   9.575 -0.5124  0.2381  0.4114
  786MOL0     O 3623   7.946   8.802   9.690 -0.5354 -0.3361  0.5740
  786MOL0     C 3624   7.807   8.779   9.686 -0.3499 -0.3130  0.1050
  786MOL0     C 3625   7.720   8.845   9.597 -0.1652  0.1102  0.4548
  786MOL0     C 3626   7.576   8.847   9.605 -0.2859 -0.0078  0.3236
  786MOL0     C 3627   7.520   8.770   9.711  0.9274  0.0848  0.3310
  786MOL0     O 3628   7.384   8.751   9.723  0.2743  0.2598 -0.6924
  786MOL0     C 3629   7.297   8.727   9.613 -0.1913  0.2786 -0.0926
  786MOL0     C 3630   7.322   8.598   9.523 -0.4027  0.0591  0.3056
  786MOL0     C 3631   7.208   8.499   9.528  0.7298  0.0220  0.0423
  786MOL0     C 3632   7.222   8.413   9.655  0.3246 -0.8935  0.1647
  786MOL0     C 3633   7.210   8.264   9.638 -0.4252 -0.2810  0.6658
  786MOL0     C 3634   7.078   8.229   9.583  0.1348 -0.4529 -0.3740
  786MOL0     C 3635   7.054   8.085   9.588  1.0132  0.1402 -0.4394
  786MOL0     C 3636   7.148   7.991   9.502  0.6211  0.6202  0.0157
  786MOL0     N 3637   7.141   8.009   9.357 -0.1604  0.0031 -0.2650
  786MOL0     C 3638   7.158   7.907   9.259 -0.4783 -0.8935 -0.2274
  786MOL0     C 3639   7.156   7.975   9.141  0.3147  0.6068 -0.4137
  786MOL0     C 3640   7.179   7.902   9.016 -0.4903 -0.6959 -0.0785
  786MOL0     C 3641   7.335   7.883   9.017 -0.4507 -0.2296  0.1069
  786MOL0     C 3642   7.396   7.835   8.891  0.1485 -0.7581  1.0190
  786MOL0     C 3643   7.323   7.711   8.845 -0.3101  1.0060 -0.7597
  786MOL0     O 3644   7.370   7.602   8.937 -0.0520  0.0108 -0.0019
  786MOL0     C 3645   7.486   7.538   8.917 -0.2401 -0.2728 -0.2887
  786MOL0     C 3646   7.553   7.505   9.033 -0.3027  0.6690 -0.1133
  786MOL0     C 3647   7.683   7.444   9.024 -0.0629 -0.6940  0.5847
  786MOL0     C 3648   7.742   7.406   8.896 -0.0929 -0.4658 -0.4861
  786MOL0     C 3649   7.875   7.339   8.884 -0.0797  0.1679 -0.9022
  786MOL0     O 3650   7.931   7.306   8.761 -0.1740  0.7453 -0.5990
  786MOL0     C 3651   8.054   7.254   8.757 -0.3933  0.6023  0.4330
  786MOL0     C 3652   8.062   7.118   8.762  0.1465 -0.3688  0.8846
  786MOL0     C 3653   8.183   7.061   8.790  0.8574 -0.4920  0.4434
  786MOL0     C 3654   8.289   7.134   8.813 -0.9462  0.4221  0.5026
  786MOL0     O 3655   8.400   7.057   8.863  0.6106 -0.0853 -0.0596
  786MOL0     C 3656   8.526   7.126   8.873  0.0032  0.0497 -0.0151
  786MOL0     C 3657   8.626   7.020   8.926 -1.1499  1.1577  0.2539
  786MOL0     C 3658   8.623   7.019   9.077  0.3792  0.1414 -0.5479
  786MOL0     C 3659   8.740   6.927   9.125 -0.4059 -0.2512  0.2292
  786MOL0     C 3660   8.878   7.003   9.135  0.0229  0.2785  1.0203
  786MOL0     C 3661   8.988   6.913   9.187  1.1769 -0.0207  0.3423
  786MOL0     C 3662   9.117   6.987   9.180 -1.0033 -0.6304 -0.6975
  786MOL0     C 3663   9.234   6.923   9.262  0.2737 -0.1138 -0.4544
  786MOL0    Cl 3664   9.189   6.944   9.437 -0.1599  0.5479 -0.1765
  786MOL0     C 3665   8.284   7.270   8.816  0.0805 -0.3336 -0.2409
  786MOL0     C 3666   8.166   7.334   8.784  0.9702  0.3253  0.3723
  786MOL0     O 3667   7.933   7.317   8.994  0.7503  0.6302  0.4063
  786MOL0     C 3668   7.673   7.448   8.786  0.4055  0.0916  0.8046
  786MOL0     C 3669   7.551   7.518   8.790 -0.0074 -1.0559  0.8673
  786MOL0     N 3670   7.137   8.112   9.166  0.0711  0.5971 -0.4460
  786MOL0     N 3671   7.132   8.128   9.292 -0.1265  0.4450 -0.2859
  786MOL0     C 3672   7.601   8.717   9.809 -0.2646  0.4793  0.2728
  786MOL0     C 3673   7.742   8.727   9.800 -0.8419  0.9339 -0.0845
  786MOL0     C 3674   8.163   8.784   9.588  0.4504  0.6459  0.2297
  786MOL0     C 3675   8.226   8.832   9.710 -0.0799  0.2223  0.0446
  786MOL0     C 3676   8.371   8.835   9.717  0.8746  0.1682 -0.2414
  786MOL0     C 3677   8.446   8.803   9.600 -0.7095  0.3706 -0.1861
  786MOL0     O 3678   8.580   8.780   9.582 -0.1772  0.1997 -0.3850
  786MOL0     C 3679   8.676   8.801   9.680  0.2954  0.1050  0.4583
  786MOL0     C 3680   8.811   8.828   9.614 -0.1735 -0.0467 -0.4961
  786MOL0     C 3681   8.860   8.721   9.508 -0.0459 -0.1447 -0.4585
  786MOL0     C 3682   8.823   8.750   9.361 -0.6802  0.1301  0.0162
  786MOL0     C 3683   8.921   8.830   9.277  0.2098  1.5492 -0.2202
  786MOL0     C 3684   9.002   8.895   9.225 -0.4649 -0.2763  1.0807
  786MOL0     C 3685   8.380   8.767   9.485 -0.8080 -0.5185  0.2740
  786MOL0     C 3686   8.240   8.766   9.478 -0.9292 -0.6850  0.7361
  786MOL0     H 3687   7.766   8.902   9.517  0.2585 -1.3290 -0.3679
  786MOL0     H 3688   7.516   8.899   9.532  1.1540  0.9265 -0.2259
  786MOL0     H 3689   7.288   8.812   9.545 -0.8598  1.5076  1.4814
  786MOL0     H 3690   7.198   8.722   9.659  0.5141 -1.5793  1.3769
  786MOL0     H 3691   7.416   8.548   9.549 -1.5823 -2.6342 -0.3112
  786MOL0     H 3692   7.334   8.624   9.417 -1.0963 -0.4749  0.0885
  786MOL0     H 3693   7.221   8.423   9.450 -1.1153 -0.0098 -0.2903
  786MOL0     H 3694   7.113   8.554   9.525  1.1948  0.9519  1.4666
  786MOL0     H 3695   7.306   8.427   9.723 -0.6408  2.2986  0.8376
  786MOL0     H 3696   7.143   8.442   9.725  1.5100  0.8216  0.8285
  786MOL0     H 3697   7.241   8.214   9.731  2.7848  0.0562 -0.1143
  786MOL0     H 3698   7.297   8.242   9.575 -1.3974  1.2794 -1.2847
  786MOL0     H 3699   7.061   8.255   9.478 -1.1032 -3.3221 -0.9915
  786MOL0     H 3700   6.993   8.270   9.638 -2.3479 -1.3297 -3.2598
  786MOL0     H 3701   7.064   8.058   9.694  0.7494  1.2276 -0.1299
  786MOL0     H 3702   6.951   8.060   9.564  1.4359 -1.0400 -1.1363
  786MOL0     H 3703   7.129   7.885   9.524  1.0545  0.3758 -0.7415
  786MOL0     H 3704   7.250   8.009   9.535  0.3646  1.7378  0.2332
  786MOL0     H 3705   7.172   7.802   9.283 -0.5370 -0.7427  0.5003
  786MOL0     H 3706   7.146   7.964   8.932 -0.6819  3.5389  2.8396
  786MOL0     H 3707   7.131   7.804   9.010  0.4693 -1.1102 -1.7375
  786MOL0     H 3708   7.355   7.808   9.094 -0.0156 -1.0499 -0.7798
  786MOL0     H 3709   7.396   7.972   9.038 -1.9573  1.1019 -0.9848
  786MOL0     H 3710   7.385   7.910   8.812  0.9598 -0.2497  1.3705
  786MOL0     H 3711   7.501   7.810   8.906  1.3981  1.3336 -2.8983
  786MOL0     H 3712   7.356   7.688   8.744 -1.3702  0.2166 -0.9436
  786MOL0     H 3713   7.214   7.720   8.846 -0.5344 -0.0166  3.0985
  786MOL0     H 3714   7.495   7.533   9.121 -1.3450 -0.4251 -0.4291
  786MOL0     H 3715   7.743   7.435   9.114 -2.0765 -0.6326  1.9980
  786MOL0     H 3716   7.982   7.051   8.732  0.9262 -0.0983 -2.0886
  786MOL0     H 3717   8.208   6.955   8.797  2.8726 -0.2516 -1.7060
  786MOL0     H 3718   8.523   7.197   8.955  1.2884 -2.4145  2.3485
  786MOL0     H 3719   8.558   7.183   8.786  0.9594  0.7599  0.7803
  786MOL0     H 3720   8.723   7.052   8.889  0.3532 -4.2418 -1.3263
  786MOL0     H 3721   8.604   6.921   8.886 -0.4639 -0.1784  2.9167
  786MOL0     H 3722   8.531   6.970   9.112  2.0521 -1.3342  2.1179
  786MOL0     H 3723   8.626   7.124   9.108  1.3268 -0.4528  1.5806
  786MOL0     H 3724   8.710   6.895   9.225 -0.7692  1.0573  0.5625
  786MOL0     H 3725   8.747   6.844   9.055  0.6062 -0.0753  0.1113
  786MOL0     H 3726   8.889   7.089   9.203 -0.1125  0.2979  1.0169
  786MOL0     H 3727   8.891   7.036   9.032 -4.9872 -3.2636 -1.1109
  786MOL0     H 3728   8.999   6.821   9.130 -1.0735 -0.1485 -0.0086
  786MOL0     H 3729   8.960   6.899   9.292 -0.4756  2.4406  0.3302
  786MOL0     H 3730   9.151   7.008   9.079  0.6634  0.4171  0.0383
  786MOL0     H 3731   9.109   7.084   9.229  0.8941 -0.7416 -0.0741
  786MOL0     H 3732   9.328   6.973   9.239  1.6767 -1.8202  1.1957
  786MOL0     H 3733   9.249   6.817   9.237  0.7833  0.0566 -0.8765
  786MOL0     H 3734   8.373   7.323   8.849  0.0280  0.1731 -0.9077
  786MOL0     H 3735   8.164   7.442   8.796  1.3268  0.3545  0.2059
  786MOL0     H 3736   7.702   7.416   8.686 -1.1257  1.4245 -0.1241
  786MOL0     H 3737   7.512   7.548   8.693  0.4011 -0.0119  1.0111
  786MOL0     H 3738   7.557   8.694   9.906 -0.1640  0.2903  0.2744
  786MOL0     H 3739   7.791   8.699   9.893 -2.1845  0.1448  0.4183
  786MOL0     H 3740   8.165   8.838   9.800  0.6169  1.7535  0.4413
  786MOL0     H 3741   8.416   8.859   9.812  0.4582 -2.0618  0.5806
  786MOL0     H 3742   8.676   8.723   9.757  0.8207 -0.2425  0.1140
  786MOL0     H 3743   8.664   8.894   9.735 -0.1934 -0.4050  1.2313
  786MOL0     H 3744   8.808   8.927   9.568  0.1375 -1.3812 -3.6243
  786MOL0     H 3745   8.883   8.825   9.697 -1.2776  0.4147  0.5091
  786MOL0     H 3746   8.824   8.623   9.538  1.2262 -0.1146  1.2997
  786MOL0     H 3747   8.969   8.725   9.509  0.0163  1.5148  3.5934
  786MOL0     H 3748   8.827   8.654   9.310 -1.4146 -0.1797  0.5241
  786MOL0     H 3749   8.721   8.791   9.355 -0.7109 -0.0679 -1.0159
  786MOL0     H 3750   9.093   8.930   9.181 -0.9937 -1.5885 -1.2308
  786MOL0     H 3751   8.429   8.750   9.389 -0.3890  1.0034  0.1908
  786MOL0     H 3752   8.199   8.722   9.388 -1.0817 -2.6391  1.6903
  787MOL0     O 3753   1.432   2.127  10.489 -0.2426 -0.5825 -0.3450
  787MOL0     C 3754   1.467   2.095  10.604 -0.6883 -0.6361 -0.1516
  787MOL0     O 3755   1.387   2.041  10.707  0.5060 -0.2041  0.4147
  787MOL0     C 3756   1.249   2.028  10.681  0.2404 -0.3747 -0.3803
  787MOL0     C 3757   1.187   1.906  10.657 -0.8314 -0.3606  0.0966
  787MOL0     C 3758   1.045   1.904  10.638 -0.3897 -0.7862 -0.6026
  787MOL0     C 3759   0.970   2.028  10.627 -0.0275  0.9226  0.2073
  787MOL0     O 3760   0.834   2.022  10.602 -0.1267  0.4249  0.1222
  787MOL0     C 3761   0.766   2.131  10.646  0.0423 -0.2826  0.2375
  787MOL0     C 3762   0.620   2.098  10.659  0.3443 -0.3021 -0.3128
  787MOL0     C 3763   0.599   1.986  10.770 -0.1404 -1.1588  0.7898
  787MOL0     C 3764   0.447   1.936  10.776 -0.2290  0.4118  0.4856
  787MOL0     C 3765   0.431   1.826  10.891  0.0992 -0.4827  0.0258
  787MOL0     C 3766   0.306   1.760  10.896 -0.1078 -0.2092 -0.0721
  787MOL0     C 3767   0.317   1.633  10.976  0.1125 -0.4733  0.3547
  787MOL0     C 3768   0.322   1.664  11.130 -0.4404 -0.6016 -0.3625
  787MOL0     N 3769   0.212   1.616  11.209  0.8059  0.5204  0.6184
  787MOL0     C 3770   0.206   1.547  11.326  0.6077  1.1317  0.1013
  787MOL0     C 3771   0.073   1.562  11.365 -0.2104  0.0811 -0.3290
  787MOL0     C 3772   0.031   1.475  11.476  0.1261  0.4016 -0.3366
  787MOL0     C 3773  -0.031   1.344  11.417  0.4761 -0.6572 -0.0834
  787MOL0     C 3774  -0.148   1.304  11.500  0.6325  0.3484 -1.0699
  787MOL0     C 3775  -0.197   1.177  11.452 -0.0381 -0.2024 -0.3375
  787MOL0     O 3776  -0.251   1.189  11.319 -0.3040  0.8784  0.4362
  787MOL0     C 3777  -0.309   1.072  11.289  0.4522  0.5126  0.2370
  787MOL0     C 3778  -0.263   0.974  11.203  0.0219  0.1489 -0.2085
  787MOL0     C 3779  -0.353   0.873  11.160 -0.0809 -0.1483 -0.8187
  787MOL0     C 3780  -0.495   0.882  11.196  0.4079 -0.4364 -0.4413
  787MOL0     C 3781  -0.598   0.777  11.154  0.2964  0.7385 -0.6722
  787MOL0     O 3782  -0.541   0.687  11.071 -0.2274 -0.7601  0.3390
  787MOL0     C 3783  -0.608   0.606  10.990 -0.4794 -0.1805 -0.1389
  787MOL0     C 3784  -0.545   0.490  10.951 -0.2212 -0.3222  0.5342
  787MOL0     C 3785  -0.593   0.405  10.858  0.4952  0.0136 -0.9307
  787MOL0     C 3786  -0.726   0.433  10.810  0.6467  0.4113 -1.0241
  787MOL0     O 3787  -0.779   0.358  10.708  0.1256  0.5491  0.4365
  787MOL0     C 3788  -0.835   0.236  10.763  0.6307  0.0291 -0.3273
  787MOL0     C 3789  -0.988   0.245  10.767  0.0852  0.8352 -0.1691
  787MOL0     C 3790  -1.038   0.283  10.908  0.2085 -0.3895  1.6595
  787MOL0     C 3791  -1.187   0.255  10.911 -0.2361  0.0813 -0.7197
  787MOL0     C 3792  -1.261   0.267  11.048 -0.1546 -0.2730  0.4611
  787MOL0     C 3793  -1.412   0.240  11.042  0.4196  0.6725 -0.1683
  787MOL0     C 3794  -1.477   0.224  11.184 -0.2059  0.1295  0.7176
  787MOL0     C 3795  -1.626   0.193  11.182  0.3046 -0.3581  0.2378
  787MOL0    Cl 3796  -1.725   0.314  11.104  0.3457 -0.1948  0.2423
  787MOL0     C 3797  -0.792   0.559  10.842  0.3726  1.2540 -0.5617
  787MOL0     C 3798  -0.731   0.642  10.937 -0.5069 -0.6443  0.2201
  787MOL0     O 3799  -0.713   0.765  11.206 -0.6192  0.2535  0.3217
  787MOL0     C 3800  -0.538   0.982  11.284 -0.1141  0.1021  0.1552
  787MOL0     C 3801  -0.447   1.079  11.331  0.7655 -0.0556 -0.1787
  787MOL0     N 3802  -0.001   1.636  11.276 -0.3215  0.1113 -1.6394
  787MOL0     N 3803   0.086   1.671  11.185  0.7554 -0.7787 -0.1771
  787MOL0     C 3804   1.042   2.141  10.637 -0.8037  0.0093 -0.0748
  787MOL0     C 3805   1.177   2.145  10.679  0.3475  0.2383  0.4947
  787MOL0     C 3806   1.611   2.106  10.639 -0.8304 -0.6737 -0.2697
  787MOL0     C 3807   1.712   2.100  10.547 -0.5830  0.3541  0.8210
  787MOL0     C 3808   1.850   2.096  10.588  0.5835 -0.3988  0.0086
  787MOL0     C 3809   1.887   2.100  10.727  0.3302 -1.4868 -0.1121
  787MOL0     O 3810   2.015   2.084  10.766 -0.3560 -0.3647  1.0420
  787MOL0     C 3811   2.050   2.040  10.901 -0.0767 -0.0014  0.0704
  787MOL0     C 3812   2.016   1.889  10.920  1.1565  0.2015 -0.2766
  787MOL0     C 3813   2.066   1.835  11.058 -0.3281 -0.0534 -0.2939
  787MOL0     C 3814   2.015   1.913  11.173 -0.5547  0.4212  0.0644
  787MOL0     C 3815   1.876   1.933  11.181  0.0028 -0.6814  0.0064
  787MOL0     C 3816   1.754   1.964  11.178 -0.1028 -0.1747  0.0831
  787MOL0     C 3817   1.778   2.112  10.818  0.9038 -0.1100 -0.0129
  787MOL0     C 3818   1.642   2.113  10.774  0.2508 -0.2861 -0.2239
  787MOL0     H 3819   1.244   1.815  10.677  2.7554  1.0471 -2.5357
  787MOL0     H 3820   0.994   1.812  10.613 -3.5913  0.4491  0.8559
  787MOL0     H 3821   0.783   2.205  10.567  0.1405  1.2126  1.6189
  787MOL0     H 3822   0.804   2.171  10.740  0.5520 -1.1875  0.4367
  787MOL0     H 3823   0.565   2.076  10.567 -2.2247 -0.1041  1.0727
  787MOL0     H 3824   0.571   2.192  10.687  0.5068 -0.2570 -0.1762
  787MOL0     H 3825   0.621   2.037  10.864  1.2232  3.6170 -1.7534
  787MOL0     H 3826   0.672   1.909  10.744  2.4958  1.3411  0.2791
  787MOL0     H 3827   0.376   2.014  10.807 -0.4364 -0.3244  1.9768
  787MOL0     H 3828   0.421   1.886  10.682 -0.4692  0.6214  0.4401
  787MOL0     H 3829   0.438   1.873  10.989  0.3922 -4.0672  1.8857
  787MOL0     H 3830   0.511   1.754  10.876  0.4229 -0.2715  0.6962
  787MOL0     H 3831   0.262   1.726  10.802 -1.0432 -0.8261  0.5614
  787MOL0     H 3832   0.231   1.822  10.946 -0.7226 -0.7969 -0.2474
  787MOL0     H 3833   0.219   1.587  10.961 -1.7117  3.6530 -2.1897
  787MOL0     H 3834   0.389   1.559  10.939  0.2416 -0.3327  0.3215
  787MOL0     H 3835   0.328   1.773  11.145 -1.6473 -0.7282  1.2795
  787MOL0     H 3836   0.408   1.605  11.161 -0.5355 -1.4015 -1.5668
  787MOL0     H 3837   0.283   1.487  11.375 -1.3883 -2.4418 -0.7889
  787MOL0     H 3838  -0.047   1.529  11.530  0.5775  0.4206  0.3024
  787MOL0     H 3839   0.103   1.440  11.551  0.6499  2.5371  0.2376
  787MOL0     H 3840   0.040   1.262  11.402  0.0672 -1.2852  1.2825
  787MOL0     H 3841  -0.069   1.368  11.318 -1.5854  0.1453  0.8370
  787MOL0     H 3842  -0.102   1.303  11.600 -3.3248 -0.0034  0.9356
  787MOL0     H 3843  -0.234   1.372  11.499 -0.8916 -1.4127  0.7607
  787MOL0     H 3844  -0.275   1.143  11.521  2.6005 -1.6307  2.1694
  787MOL0     H 3845  -0.122   1.098  11.447 -0.6134 -0.6746 -2.4917
  787MOL0     H 3846  -0.164   0.989  11.161  2.2149 -2.7464  3.3199
  787MOL0     H 3847  -0.321   0.785  11.105 -3.6149 -2.2565  0.1781
  787MOL0     H 3848  -0.442   0.460  10.971 -0.0782 -2.5459 -2.7532
  787MOL0     H 3849  -0.539   0.312  10.846 -0.9460 -1.4771  2.7431
  787MOL0     H 3850  -0.801   0.203  10.861 -2.8678 -0.2731  0.9060
  787MOL0     H 3851  -0.816   0.155  10.692 -2.2442 -0.9128 -0.1115
  787MOL0     H 3852  -1.024   0.146  10.737 -1.9537  1.8515 -1.2848
  787MOL0     H 3853  -1.034   0.302  10.686 -2.0867  0.9655  1.0762
  787MOL0     H 3854  -1.044   0.391  10.925  1.7551  0.9717 -4.3763
  787MOL0     H 3855  -0.993   0.216  10.982  3.9001  0.4256  0.3368
  787MOL0     H 3856  -1.242   0.315  10.838 -2.7649 -1.1335  0.0855
  787MOL0     H 3857  -1.201   0.150  10.882  0.4501  0.0840 -1.0927
  787MOL0     H 3858  -1.245   0.367  11.087  0.5549 -0.2499  0.1290
  787MOL0     H 3859  -1.211   0.206  11.124  2.1778 -0.1223 -0.8592
  787MOL0     H 3860  -1.418   0.147  10.984  2.5005 -0.4013  1.2175
  787MOL0     H 3861  -1.459   0.326  10.992 -3.1040 -0.4895  0.8269
  787MOL0     H 3862  -1.412   0.151  11.233  1.4581  0.9202 -0.2042
  787MOL0     H 3863  -1.474   0.323  11.231 -2.6672  0.8818 -0.5241
  787MOL0     H 3864  -1.669   0.181  11.282 -1.2618  1.1840 -0.1950
  787MOL0     H 3865  -1.642   0.094  11.139 -1.3127 -1.7197  3.5688
  787MOL0     H 3866  -0.887   0.588  10.800  0.4264  1.3911 -0.5885
  787MOL0     H 3867  -0.770   0.742  10.953  0.7723 -0.3063  1.3759
  787MOL0     H 3868  -0.639   0.984  11.324 -0.1523  0.3749  0.0521
  787MOL0     H 3869  -0.498   1.156  11.387 -2.0964  0.5460 -3.2775
  787MOL0     H 3870   0.997   2.239  10.637  0.6550  0.7426 -2.0902
  787MOL0     H 3871   1.205   2.243  10.716 -1.5400  0.6045  1.0665
  787MOL0     H 3872   1.680   2.082  10.445  0.1918  4.4742 -0.3593
  787MOL0     H 3873   1.934   2.068  10.526  1.5716  1.3064  0.5097
  787MOL0     H 3874   2.006   2.099  10.982  0.8341  1.3485 -0.3969
  787MOL0     H 3875   2.156   2.062  10.918  0.2769  0.3970 -2.2729
  787MOL0     H 3876   1.908   1.887  10.900  1.0515 -0.9549  0.3268
  787MOL0     H 3877   2.065   1.835  10.838 -0.5736  1.7797 -2.4807
  787MOL0     H 3878   2.174   1.849  11.055 -0.4039  0.4956 -0.6673
  787MOL0     H 3879   2.048   1.727  11.057  0.0977 -0.1758  1.4999
  787MOL0     H 3880   2.046   1.852  11.259 -2.4971  0.0115  0.5288
  787MOL0     H 3881   2.065   2.009  11.184 -1.0992  0.8367 -1.0005
  787MOL0     H 3882   1.656   2.005  11.191  1.2558  3.2806  0.7712
  787MOL0     H 3883   1.791   2.114  10.926  2.9498  3.0960 -0.1919
  787MOL0     H 3884   1.569   2.121  10.854 -0.6791  2.6711 -1.2240
  788MOL0     O 3885   1.097   4.343   5.755 -0.4117  0.1288  0.6199
  788MOL0     C 3886   1.101   4.282   5.856 -0.1211  0.3920 -0.2723
  788MOL0     O 3887   0.988   4.235   5.924 -0.0117  0.2547  0.0079
  788MOL0     C 3888   0.870   4.255   5.857  0.1564 -0.0654  0.2580
  788MOL0     C 3889   0.817   4.382   5.856  0.2208  0.2026  0.6874
  788MOL0     C 3890   0.697   4.416   5.790 -0.2393  0.4749 -0.4054
  788MOL0     C 3891   0.614   4.313   5.741 -0.7934  0.3961 -0.5789
  788MOL0     O 3892   0.505   4.327   5.661 -0.2390 -0.9084 -0.1964
  788MOL0     C 3893   0.412   4.427   5.688  1.3191 -1.0495  0.2870
  788MOL0     C 3894   0.345   4.416   5.813  1.1088 -0.0201 -1.2436
  788MOL0     C 3895   0.309   4.266   5.838 -0.1935 -0.6482 -0.4056
  788MOL0     C 3896   0.216   4.240   5.948 -0.5240  1.1189 -0.7568
  788MOL0     C 3897   0.194   4.086   5.965 -0.1949  0.1777 -0.6239
  788MOL0     C 3898   0.118   4.045   6.095 -0.5913 -1.1115  0.1966
  788MOL0     C 3899   0.100   3.897   6.119 -0.0793 -0.1993 -0.5266
  788MOL0     C 3900   0.007   3.867   6.238 -0.2554 -1.7212  0.7264
  788MOL0     N 3901   0.016   3.961   6.355 -0.7729 -0.8273  0.5536
  788MOL0     C 3902   0.131   3.995   6.419  0.0119 -0.3794 -0.0135
  788MOL0     C 3903   0.091   4.080   6.515  0.4368 -0.4019 -0.2714
  788MOL0     C 3904   0.196   4.141   6.605 -0.1599 -0.6540 -0.1664
  788MOL0     C 3905   0.296   4.233   6.534 -0.3082 -0.4035  1.0059
  788MOL0     C 3906   0.251   4.367   6.474 -0.1912 -0.3711 -0.3380
  788MOL0     C 3907   0.142   4.447   6.562 -0.5310  0.0936 -0.8665
  788MOL0     O 3908   0.098   4.574   6.510  0.8867 -0.1503 -0.7985
  788MOL0     C 3909  -0.009   4.638   6.571  0.2447 -0.5526  0.5591
  788MOL0     C 3910  -0.137   4.592   6.594  0.5787  0.5192 -0.3186
  788MOL0     C 3911  -0.230   4.680   6.665 -0.8903  0.3597  0.9776
  788MOL0     C 3912  -0.201   4.814   6.690 -0.0858  0.2344 -0.8364
  788MOL0     C 3913  -0.308   4.910   6.747  0.1825  0.1692 -0.4699
  788MOL0     O 3914  -0.431   4.868   6.728 -0.4440  0.0151  0.7062
  788MOL0     C 3915  -0.542   4.916   6.793 -0.4406 -0.6961 -0.5303
  788MOL0     C 3916  -0.530   5.006   6.900  1.2704  0.8378  0.1540
  788MOL0     C 3917  -0.652   5.056   6.952 -0.5356  1.3391 -0.1546
  788MOL0     C 3918  -0.778   5.010   6.901  0.4057 -0.5773  0.2942
  788MOL0     O 3919  -0.904   5.059   6.947  1.0049  0.2023  0.4713
  788MOL0     C 3920  -0.898   5.200   6.977  1.3194  0.5633  0.1426
  788MOL0     C 3921  -1.025   5.225   7.053 -0.0875 -0.5607 -0.0174
  788MOL0     C 3922  -1.061   5.372   7.058  0.7633  0.2410 -0.0394
  788MOL0     C 3923  -1.169   5.385   7.165  0.2738  0.8675 -0.8295
  788MOL0     C 3924  -1.219   5.530   7.171 -0.2231  0.4478 -0.4990
  788MOL0     C 3925  -1.343   5.540   7.254  0.1858  0.1585 -0.7096
  788MOL0     C 3926  -1.396   5.682   7.269  0.0610  0.0003  0.4834
  788MOL0     C 3927  -1.529   5.672   7.355 -0.0717 -0.1226  0.0439
  788MOL0    Cl 3928  -1.599   5.841   7.388 -0.4154 -0.0264  0.2342
  788MOL0     C 3929  -0.781   4.922   6.792  0.4563 -0.4861  0.1111
  788MOL0     C 3930  -0.661   4.866   6.745  0.5189 -0.6578  0.5216
  788MOL0     O 3931  -0.270   5.022   6.773  0.0406 -0.8497 -0.4559
  788MOL0     C 3932  -0.072   4.851   6.671 -0.1265  0.0211  1.1412
  788MOL0     C 3933   0.027   4.767   6.608  0.0264 -0.2301 -0.3347
  788MOL0     N 3934  -0.037   4.114   6.488 -0.3177  0.4602 -0.3042
  788MOL0     N 3935  -0.083   4.042   6.387  0.3241 -0.2740 -0.1597
  788MOL0     C 3936   0.668   4.177   5.748  0.4348  0.8270  0.6054
  788MOL0     C 3937   0.794   4.147   5.801 -0.4913  0.0542 -0.9081
  788MOL0     C 3938   1.227   4.253   5.926 -0.1626 -0.6542 -0.4303
  788MOL0     C 3939   1.344   4.313   5.889  0.2910 -0.1303 -0.7657
  788MOL0     C 3940   1.460   4.276   5.961 -0.2361 -0.4357  0.2665
  788MOL0     C 3941   1.454   4.192   6.071 -0.0842 -0.5843  0.3113
  788MOL0     O 3942   1.566   4.164   6.145 -1.2696 -0.1464  0.5100
  788MOL0     C 3943   1.588   4.267   6.240  0.3551  1.0267  0.8919
  788MOL0     C 3944   1.725   4.255   6.314 -0.7650  0.2436  0.3713
  788MOL0     C 3945   1.841   4.287   6.223 -0.2706  0.5431 -0.1274
  788MOL0     C 3946   1.985   4.296   6.292  0.4666  0.1282  0.0859
  788MOL0     C 3947   1.977   4.381   6.414 -0.2888  0.1527  0.7576
  788MOL0     C 3948   1.969   4.444   6.517 -0.2350  0.6819 -0.3761
  788MOL0     C 3949   1.338   4.120   6.093 -0.3758 -0.0868 -0.3039
  788MOL0     C 3950   1.228   4.145   6.014 -0.2092 -0.0689  0.4050
  788MOL0     H 3951   0.884   4.461   5.887  0.1035  0.4197  0.3945
  788MOL0     H 3952   0.656   4.516   5.799 -1.8357 -0.2909  1.6304
  788MOL0     H 3953   0.334   4.409   5.613 -0.2644  0.2157  1.5698
  788MOL0     H 3954   0.444   4.525   5.653 -0.7780 -0.9173 -1.4341
  788MOL0     H 3955   0.257   4.479   5.826  0.2599 -1.1999 -1.1064
  788MOL0     H 3956   0.416   4.452   5.888 -1.5495  2.4294  0.2987
  788MOL0     H 3957   0.404   4.214   5.855 -0.6198 -0.6967  2.3072
  788MOL0     H 3958   0.262   4.221   5.750 -0.1635 -1.1788 -0.1560
  788MOL0     H 3959   0.258   4.277   6.042 -1.4274 -0.6894  0.4145
  788MOL0     H 3960   0.123   4.295   5.928  0.3173  3.9807  2.3050
  788MOL0     H 3961   0.294   4.041   5.962 -0.6593 -0.8604 -3.2955
  788MOL0     H 3962   0.145   4.046   5.875 -1.3766 -3.6276  1.4755
  788MOL0     H 3963   0.020   4.092   6.079 -1.1830 -2.0527  0.9163
  788MOL0     H 3964   0.179   4.086   6.175  2.0649 -2.7303 -0.8808
  788MOL0     H 3965   0.043   3.860   6.034 -1.6547 -0.1106  0.4434
  788MOL0     H 3966   0.195   3.844   6.127  0.0343  0.1514  0.6861
  788MOL0     H 3967   0.032   3.767   6.276  1.3245 -0.3437  3.6659
  788MOL0     H 3968  -0.087   3.877   6.184 -0.0862 -1.3833  0.4945
  788MOL0     H 3969   0.233   3.977   6.386 -0.0867  2.2469 -2.1147
  788MOL0     H 3970   0.241   4.052   6.649  1.5087 -1.5783 -3.3738
  788MOL0     H 3971   0.148   4.197   6.686 -1.9929 -0.0897 -1.5796
  788MOL0     H 3972   0.349   4.174   6.458  1.4891  1.6469  0.5718
  788MOL0     H 3973   0.369   4.274   6.605 -1.5511 -1.3556  2.9090
  788MOL0     H 3974   0.336   4.430   6.445 -0.4986  0.0841 -0.2594
  788MOL0     H 3975   0.210   4.347   6.375  0.4827  1.2182 -0.9680
  788MOL0     H 3976   0.206   4.467   6.649  1.1432  1.3758 -2.3349
  788MOL0     H 3977   0.059   4.377   6.575 -0.0654 -0.4649 -0.8531
  788MOL0     H 3978  -0.183   4.499   6.561  0.9969 -0.1591  0.9754
  788MOL0     H 3979  -0.322   4.628   6.689  0.3970 -2.7360 -0.1896
  788MOL0     H 3980  -0.434   5.044   6.933  0.0639  2.5185  1.9433
  788MOL0     H 3981  -0.641   5.135   7.026  1.2597  3.5447 -2.6104
  788MOL0     H 3982  -0.897   5.262   6.887  2.9614  0.0677 -0.2108
  788MOL0     H 3983  -0.819   5.235   7.044  0.5832  1.8872  0.3532
  788MOL0     H 3984  -1.004   5.187   7.154 -3.7222 -2.5095  0.1724
  788MOL0     H 3985  -1.107   5.159   7.026 -0.4793 -0.4732  0.9176
  788MOL0     H 3986  -1.095   5.407   6.960 -1.8071  1.1502  1.0907
  788MOL0     H 3987  -0.965   5.422   7.071  3.3724 -2.8514 -4.3582
  788MOL0     H 3988  -1.249   5.315   7.138  1.1907 -0.5119 -0.0673
  788MOL0     H 3989  -1.149   5.357   7.269 -2.8824 -1.0775 -0.5954
  788MOL0     H 3990  -1.241   5.566   7.070  0.7033 -1.5893 -1.4844
  788MOL0     H 3991  -1.151   5.595   7.227 -0.4043 -0.6716  1.0784
  788MOL0     H 3992  -1.342   5.513   7.360 -2.6295  2.4542  0.0426
  788MOL0     H 3993  -1.425   5.481   7.212  0.1725  1.0806 -2.0252
  788MOL0     H 3994  -1.318   5.745   7.312 -0.0138  0.7637 -0.4632
  788MOL0     H 3995  -1.424   5.726   7.172  0.0133  0.7863  0.8470
  788MOL0     H 3996  -1.497   5.633   7.452 -0.8493 -4.3762 -1.2124
  788MOL0     H 3997  -1.600   5.600   7.315 -0.5833  0.8059 -0.7715
  788MOL0     H 3998  -0.873   4.890   6.745  0.0123  0.4602  0.3170
  788MOL0     H 3999  -0.661   4.790   6.667 -2.0676 -1.2364  0.9940
  788MOL0     H 4000  -0.048   4.946   6.718 -0.8113  0.5749  0.4070
  788MOL0     H 4001   0.127   4.806   6.593 -0.0244 -1.0046 -3.4681
  788MOL0     H 4002   0.600   4.103   5.708  0.6892  2.1499 -2.5495
  788MOL0     H 4003   0.831   4.045   5.797  0.3244  0.0885  2.4513
  788MOL0     H 4004   1.351   4.395   5.819  3.2470  2.3873  2.1658
  788MOL0     H 4005   1.559   4.316   5.940 -0.5769  1.2189  1.5945
  788MOL0     H 4006   1.505   4.261   6.310 -2.5404  1.3236 -2.2834
  788MOL0     H 4007   1.586   4.365   6.192  2.9248  2.0137  2.5793
  788MOL0     H 4008   1.737   4.327   6.395  0.6157  0.5156 -0.0465
  788MOL0     H 4009   1.742   4.152   6.348  1.1168 -0.2326 -1.7359
  788MOL0     H 4010   1.821   4.387   6.184  0.1848 -0.4770 -3.2807
  788MOL0     H 4011   1.854   4.229   6.131 -3.2325  1.5827 -1.3170
  788MOL0     H 4012   2.016   4.195   6.320 -0.9391 -0.7155 -1.2566
  788MOL0     H 4013   2.050   4.325   6.209  0.7056 -1.8676 -0.4795
  788MOL0     H 4014   1.951   4.500   6.606 -2.7479  0.3566 -0.5932
  788MOL0     H 4015   1.328   4.049   6.175 -2.7277 -1.0090 -1.2834
  788MOL0     H 4016   1.139   4.085   6.031  0.3285 -0.8554  0.4426
  789MOL0     O 4017   3.071   0.215   1.598 -0.6081  0.0684  0.5292
  789MOL0     C 4018   2.957   0.213   1.633 -0.3087  0.4433 -0.1070
  789MOL0     O 4019   2.904   0.107   1.706 -0.4843 -0.9447 -0.5894
  789MOL0     C 4020   2.974   0.006   1.756  0.7847 -0.1882 -0.5813
  789MOL0     C 4021   3.103  -0.005   1.802 -0.4588 -1.1260  0.0983
  789MOL0     C 4022   3.161  -0.125   1.835  0.4637  0.7842  0.4156
  789MOL0     C 4023   3.082  -0.246   1.818 -0.3060 -0.2202  0.1666
  789MOL0     O 4024   3.126  -0.356   1.871  0.0946  0.4486  0.8399
  789MOL0     C 4025   3.252  -0.403   1.825 -0.0070 -0.2460 -0.0637
  789MOL0     C 4026   3.253  -0.551   1.843 -0.0536  0.7372  0.7099
  789MOL0     C 4027   3.185  -0.615   1.722 -0.4429  0.2682  0.0821
  789MOL0     C 4028   3.050  -0.558   1.683  0.0955 -0.7610  0.2143
  789MOL0     C 4029   2.986  -0.627   1.572 -0.0680  0.1198 -0.2521
  789MOL0     C 4030   2.850  -0.574   1.546 -0.5119  0.0150  0.0775
  789MOL0     C 4031   2.773  -0.650   1.432 -0.5220  0.3335 -0.1973
  789MOL0     C 4032   2.786  -0.803   1.426  0.3719 -0.1712 -0.0500
  789MOL0     N 4033   2.709  -0.870   1.315 -0.0294  0.0749 -0.8404
  789MOL0     C 4034   2.721  -0.845   1.181 -0.0528  0.5826 -0.2967
  789MOL0     C 4035   2.632  -0.918   1.123 -0.2102 -0.0185 -0.5363
  789MOL0     C 4036   2.619  -0.936   0.972  0.9621  0.4476 -1.2761
  789MOL0     C 4037   2.704  -1.047   0.912 -0.5270  0.8254  0.3347
  789MOL0     C 4038   2.854  -1.028   0.874  1.1789  0.6170  0.0859
  789MOL0     C 4039   2.917  -1.157   0.835 -0.5710 -0.6802  0.2599
  789MOL0     O 4040   2.857  -1.227   0.721 -0.2423  0.7447 -0.6362
  789MOL0     C 4041   2.799  -1.348   0.728 -0.1273  0.2956 -0.3130
  789MOL0     C 4042   2.754  -1.406   0.848  0.3286 -0.4315 -0.0021
  789MOL0     C 4043   2.700  -1.540   0.839 -0.0828  0.4689 -0.5618
  789MOL0     C 4044   2.691  -1.610   0.720  0.2203 -0.2209  0.3658
  789MOL0     C 4045   2.648  -1.749   0.707  0.5539  0.1434  0.1547
  789MOL0     O 4046   2.568  -1.781   0.607  0.6230 -0.5709  0.5349
  789MOL0     C 4047   2.533  -1.914   0.596  1.3183 -0.0342 -0.6288
  789MOL0     C 4048   2.532  -1.972   0.476 -0.8474  0.3629  0.0992
  789MOL0     C 4049   2.484  -2.099   0.455 -0.0558 -0.0297  0.8416
  789MOL0     C 4050   2.435  -2.174   0.558 -0.3262 -0.4085 -0.2698
  789MOL0     O 4051   2.408  -2.307   0.547 -0.4410  0.0452  0.7319
  789MOL0     C 4052   2.456  -2.382   0.434  1.2982  0.2570  0.2908
  789MOL0     C 4053   2.484  -2.513   0.497 -1.2372 -0.3844 -0.0702
  789MOL0     C 4054   2.574  -2.596   0.403 -0.4500  0.5439  0.0462
  789MOL0     C 4055   2.630  -2.716   0.475  0.2159  0.2573  0.6192
  789MOL0     C 4056   2.701  -2.807   0.382 -0.3894  0.4674 -0.2202
  789MOL0     C 4057   2.788  -2.902   0.469 -0.3287  0.8605  0.0374
  789MOL0     C 4058   2.703  -2.969   0.579  0.0577  0.2851 -0.3579
  789MOL0     C 4059   2.767  -3.099   0.631  0.0406  0.0761 -0.4381
  789MOL0    Cl 4060   2.933  -3.063   0.697 -0.1153  0.0967  0.1145
  789MOL0     C 4061   2.423  -2.113   0.685  0.4603  0.2721 -0.0898
  789MOL0     C 4062   2.467  -1.985   0.704 -0.6090  0.4964 -0.7595
  789MOL0     O 4063   2.678  -1.819   0.807 -0.6378 -0.4576 -0.0955
  789MOL0     C 4064   2.745  -1.551   0.605 -0.5644  0.2119  0.2112
  789MOL0     C 4065   2.802  -1.425   0.609  0.2482 -0.3075 -0.1547
  789MOL0     N 4066   2.556  -0.984   1.219 -0.3305  0.2913  0.3645
  789MOL0     N 4067   2.606  -0.958   1.334 -0.2539  0.5765  0.1195
  789MOL0     C 4068   2.945  -0.238   1.787  0.6211  1.3073  0.3192
  789MOL0     C 4069   2.897  -0.108   1.754 -0.9568  0.8463  0.4943
  789MOL0     C 4070   2.871   0.327   1.584  0.1417 -0.4314  0.4522
  789MOL0     C 4071   2.914   0.420   1.487  0.6772 -0.7251 -0.4450
  789MOL0     C 4072   2.822   0.518   1.446  0.1252  0.5842 -1.1396
  789MOL0     C 4073   2.697   0.528   1.506  0.3334  0.8223  0.8713
  789MOL0     O 4074   2.600   0.610   1.470 -0.1233 -0.1017  0.4520
  789MOL0     C 4075   2.635   0.737   1.411 -0.8061 -0.0334  0.1692
  789MOL0     C 4076   2.567   0.735   1.275  0.3947 -0.3938 -0.0452
  789MOL0     C 4077   2.415   0.734   1.300 -0.1240  0.1083  0.0646
  789MOL0     C 4078   2.337   0.778   1.179  0.5561  0.3673  0.9586
  789MOL0     C 4079   2.356   0.922   1.154 -0.4491  0.1225  0.5317
  789MOL0     C 4080   2.372   1.039   1.147  0.7129 -0.6749  0.6765
  789MOL0     C 4081   2.661   0.443   1.612 -1.0479 -0.5572  0.1658
  789MOL0     C 4082   2.748   0.334   1.650 -0.1251 -0.9733  0.2198
  789MOL0     H 4083   3.163   0.085   1.811 -1.1044 -0.7833  1.1416
  789MOL0     H 4084   3.266  -0.130   1.862  0.4189  0.3564  0.5250
  789MOL0     H 4085   3.330  -0.363   1.890  1.0014 -0.5660 -1.0317
  789MOL0     H 4086   3.279  -0.368   1.725  1.9909  0.1640  0.5847
  789MOL0     H 4087   3.201  -0.570   1.938  1.4541  2.5811  1.9892
  789MOL0     H 4088   3.358  -0.581   1.848 -0.0151  0.6572 -0.4374
  789MOL0     H 4089   3.172  -0.720   1.749  1.2438 -0.9222 -3.1648
  789MOL0     H 4090   3.240  -0.620   1.628  0.1973  1.5873  0.3693
  789MOL0     H 4091   2.989  -0.549   1.773 -1.5465 -0.6827 -0.8647
  789MOL0     H 4092   3.053  -0.453   1.651 -2.1409 -0.6186  0.3326
  789MOL0     H 4093   2.989  -0.734   1.594  1.4020  0.4548  1.4920
  789MOL0     H 4094   3.030  -0.610   1.473 -3.6031 -2.3559 -2.4512
  789MOL0     H 4095   2.871  -0.473   1.511  2.9077 -1.3405 -2.4265
  789MOL0     H 4096   2.790  -0.588   1.637  0.4470 -1.3747  0.5272
  789MOL0     H 4097   2.667  -0.627   1.437 -1.2738 -2.8909  0.7533
  789MOL0     H 4098   2.806  -0.605   1.337 -1.7493  1.0205 -0.3134
  789MOL0     H 4099   2.737  -0.842   1.515  1.2361  2.8714  1.9301
  789MOL0     H 4100   2.891  -0.832   1.436  0.7295  1.7616  3.1740
  789MOL0     H 4101   2.790  -0.776   1.135  2.3380 -0.0252  2.1098
  789MOL0     H 4102   2.623  -0.839   0.922 -3.9585  1.8153  0.3710
  789MOL0     H 4103   2.512  -0.957   0.960  1.3096 -2.0307 -0.5889
  789MOL0     H 4104   2.647  -1.079   0.824 -3.3080  2.2352  1.4977
  789MOL0     H 4105   2.707  -1.120   0.993  0.4606  0.2322 -0.2180
  789MOL0     H 4106   2.879  -0.956   0.796  1.5285 -0.1730 -0.5596
  789MOL0     H 4107   2.902  -1.006   0.970 -0.6590 -0.8997  1.4316
  789MOL0     H 4108   2.927  -1.230   0.915  1.7634  1.2505  1.8817
  789MOL0     H 4109   3.021  -1.136   0.806 -1.4127  0.7962 -1.9616
  789MOL0     H 4110   2.756  -1.359   0.946 -2.2734  3.2324 -1.5268
  789MOL0     H 4111   2.668  -1.584   0.933  1.1449  3.3864  1.3573
  789MOL0     H 4112   2.586  -1.921   0.397  0.0862 -1.7542 -0.7165
  789MOL0     H 4113   2.478  -2.132   0.352 -0.0439  0.6687  0.6109
  789MOL0     H 4114   2.537  -2.349   0.369  1.0392  1.3149  0.4856
  789MOL0     H 4115   2.372  -2.404   0.369  0.6848  4.0350 -0.4438
  789MOL0     H 4116   2.390  -2.568   0.513 -1.8917  1.1494  1.8988
  789MOL0     H 4117   2.536  -2.505   0.593  3.1806 -4.1046 -1.8199
  789MOL0     H 4118   2.658  -2.539   0.363 -0.2570 -0.1361 -0.5524
  789MOL0     H 4119   2.521  -2.628   0.312 -1.7295 -0.9974  1.2665
  789MOL0     H 4120   2.696  -2.679   0.554  1.8938 -1.4123  0.0642
  789MOL0     H 4121   2.552  -2.767   0.533 -0.8197 -0.6725 -1.4873
  789MOL0     H 4122   2.773  -2.759   0.315 -1.1690  0.4262 -1.0977
  789MOL0     H 4123   2.636  -2.862   0.314 -2.0223  3.5421 -1.3030
  789MOL0     H 4124   2.870  -2.839   0.505 -1.1149  2.4382 -0.8290
  789MOL0     H 4125   2.825  -2.976   0.398 -3.6099 -0.4032 -0.5311
  789MOL0     H 4126   2.691  -2.902   0.664 -1.4307  1.1061 -1.1725
  789MOL0     H 4127   2.607  -3.004   0.538  1.1773 -0.6568 -2.3271
  789MOL0     H 4128   2.756  -3.171   0.549  2.1154  0.0369 -0.7342
  789MOL0     H 4129   2.706  -3.146   0.709 -0.4475  0.0063 -0.8549
  789MOL0     H 4130   2.377  -2.159   0.771 -0.8771  1.6286 -0.0477
  789MOL0     H 4131   2.463  -1.940   0.802 -2.3721  1.1333 -1.1067
  789MOL0     H 4132   2.729  -1.605   0.513 -0.2279 -0.2560  0.4227
  789MOL0     H 4133   2.847  -1.372   0.525 -0.1406  1.2355  0.5799
  789MOL0     H 4134   2.874  -0.320   1.776  0.0355  1.7654  0.6278
  789MOL0     H 4135   2.793  -0.105   1.721 -0.6800  1.3793 -0.3792
  789MOL0     H 4136   3.009   0.408   1.437  0.8442  0.4945 -0.4395
  789MOL0     H 4137   2.847   0.576   1.358 -1.3646  0.6355 -1.5649
  789MOL0     H 4138   2.739   0.769   1.415 -1.3433  1.9223 -0.4064
  789MOL0     H 4139   2.577   0.815   1.462 -0.1137  0.2920  0.4714
  789MOL0     H 4140   2.594   0.832   1.232  0.6761  0.1855  1.3966
  789MOL0     H 4141   2.596   0.646   1.220  0.5361 -1.7245  2.0717
  789MOL0     H 4142   2.392   0.796   1.387  0.7473 -0.4658  0.7223
  789MOL0     H 4143   2.399   0.626   1.307  1.8954 -0.3330 -1.1710
  789MOL0     H 4144   2.363   0.715   1.094 -0.1538 -2.1591  2.5263
  789MOL0     H 4145   2.231   0.760   1.199  0.2089 -0.0765 -1.0278
  789MOL0     H 4146   2.371   1.145   1.131 -0.5685 -0.4020  2.3173
  789MOL0     H 4147   2.570   0.466   1.667  0.8309  2.9581  2.1730
  789MOL0     H 4148   2.733   0.261   1.728 -2.3451 -1.0602 -0.2230
  790MOL0     O 4149   1.565  11.202  11.181  0.1561  0.1560 -0.2369
  790MOL0     C 4150   1.630  11.100  11.149  0.0216  0.1831  0.0069
  790MOL0     O 4151   1.580  10.983  11.082  0.1022 -0.2519 -0.1679
  790MOL0     C 4152   1.443  10.985  11.058 -0.6252 -0.0784  0.6607
  790MOL0     C 4153   1.371  11.093  10.998  0.1776 -0.2420 -0.4667
  790MOL0     C 4154   1.235  11.084  10.983  0.0610  0.0988 -0.5916
  790MOL0     C 4155   1.163  10.972  11.037  1.0528  0.1665 -0.3100
  790MOL0     O 4156   1.022  10.953  11.015 -0.4330 -0.1566  0.1567
  790MOL0     C 4157   0.930  11.064  11.007 -0.2937  0.0557  0.3392
  790MOL0     C 4158   0.785  11.008  11.022  0.1010  1.2258 -0.5449
  790MOL0     C 4159   0.752  10.905  10.908 -0.2549  0.6649 -0.3917
  790MOL0     C 4160   0.614  10.842  10.935  0.3340 -0.1310 -0.1946
  790MOL0     C 4161   0.560  10.772  10.804 -0.2784 -0.3985 -0.3544
  790MOL0     C 4162   0.437  10.688  10.830 -0.1631 -0.2372 -0.4911
  790MOL0     C 4163   0.355  10.662  10.699 -0.0391  0.4675 -0.1677
  790MOL0     C 4164   0.272  10.536  10.707 -0.0829 -0.4212  0.9372
  790MOL0     N 4165   0.193  10.533  10.583  0.3680  0.2967  0.1514
  790MOL0     C 4166   0.224  10.511  10.446  1.2554 -0.8539 -0.7110
  790MOL0     C 4167   0.105  10.485  10.389 -0.0244  0.5849 -0.3526
  790MOL0     C 4168   0.103  10.449  10.239  0.4009  0.1762  0.1871
  790MOL0     C 4169  -0.012  10.359  10.206 -0.0239  0.4110  0.6032
  790MOL0     C 4170  -0.019  10.316  10.056  0.1584 -0.0065 -0.3628
  790MOL0     C 4171  -0.158  10.259  10.016  0.4459 -0.0650  0.2341
  790MOL0     O 4172  -0.242  10.374  10.030 -0.3500  0.8729  0.6182
  790MOL0     C 4173  -0.379  10.360  10.000  0.1394 -0.0376  0.0571
  790MOL0     C 4174  -0.444  10.476  10.013  0.3657 -0.5147 -0.2100
  790MOL0     C 4175  -0.579  10.485   9.999  0.3471  0.0645 -0.6018
  790MOL0     C 4176  -0.652  10.368   9.969 -0.0967 -0.1748 -0.1027
  790MOL0     C 4177  -0.798  10.377   9.958  0.6181 -0.4819  0.0319
  790MOL0     O 4178  -0.858  10.483  10.023 -0.2237  0.6651  0.0433
  790MOL0     C 4179  -0.996  10.487  10.049  0.0909 -0.3482 -0.3287
  790MOL0     C 4180  -1.068  10.362  10.076  0.5038  0.6803 -0.3106
  790MOL0     C 4181  -1.203  10.370  10.111 -1.0100  0.1702  0.2981
  790MOL0     C 4182  -1.275  10.493  10.122  0.2775 -0.4869  0.1019
  790MOL0     O 4183  -1.402  10.511  10.182 -0.3466 -0.1522  0.0461
  790MOL0     C 4184  -1.511  10.469  10.093  0.1326  0.5279 -0.8162
  790MOL0     C 4185  -1.641  10.487  10.176 -0.1985 -0.0463  0.2206
  790MOL0     C 4186  -1.759  10.441  10.091 -0.1402 -0.7189 -0.1873
  790MOL0     C 4187  -1.895  10.479  10.163  0.2605 -0.3767  0.4259
  790MOL0     C 4188  -1.992  10.357  10.138  1.0336  0.8098  0.2840
  790MOL0     C 4189  -2.140  10.380  10.169  1.2472  0.0803 -0.2210
  790MOL0     C 4190  -2.225  10.439  10.048 -0.4859  0.0291 -0.5487
  790MOL0     C 4191  -2.373  10.395  10.071 -0.1912 -0.2467  0.5289
  790MOL0    Cl 4192  -2.423  10.459  10.242 -0.3597 -0.3837  0.0597
  790MOL0     C 4193  -1.206  10.615  10.101 -0.1664  0.3238  0.1541
  790MOL0     C 4194  -1.064  10.603  10.065 -0.0330  0.9513  0.1495
  790MOL0     O 4195  -0.858  10.283   9.910 -0.1028 -1.0197 -0.4972
  790MOL0     C 4196  -0.589  10.252   9.939  0.8059  0.0663 -0.1568
  790MOL0     C 4197  -0.450  10.246   9.962 -0.1603  1.0003 -0.2206
  790MOL0     N 4198   0.001  10.489  10.474  0.9818 -1.0981  0.0641
  790MOL0     N 4199   0.054  10.514  10.593  0.6201 -0.3064 -0.4045
  790MOL0     C 4200   1.234  10.873  11.098 -0.0024  0.0244 -0.5398
  790MOL0     C 4201   1.369  10.886  11.117 -0.8087 -0.1215  0.2737
  790MOL0     C 4202   1.773  11.093  11.189 -0.3659  0.0576 -0.8948
  790MOL0     C 4203   1.845  11.213  11.214 -0.5927  1.1162  0.6842
  790MOL0     C 4204   1.976  11.198  11.273  0.1341 -0.0875  0.0896
  790MOL0     C 4205   2.036  11.071  11.280  0.0875 -0.5035 -0.0349
  790MOL0     O 4206   2.157  11.076  11.337 -1.4574 -0.9071 -0.6518
  790MOL0     C 4207   2.207  10.954  11.397  0.4059 -0.9584 -0.5898
  790MOL0     C 4208   2.290  10.976  11.517  0.5872  0.1482 -0.2292
  790MOL0     C 4209   2.382  10.846  11.542  1.4063 -0.2614  0.3855
  790MOL0     C 4210   2.474  10.858  11.666 -0.2197  0.3164 -0.0583
  790MOL0     C 4211   2.553  10.730  11.665 -0.6458 -0.1436 -0.0500
  790MOL0     C 4212   2.610  10.626  11.665  0.3419  0.6737  0.6099
  790MOL0     C 4213   1.961  10.953  11.244  0.4890  0.4583  0.1534
  790MOL0     C 4214   1.835  10.969  11.187  0.2479  0.1587  0.2165
  790MOL0     H 4215   1.416  11.176  10.945  1.2852 -1.2631 -1.1751
  790MOL0     H 4216   1.173  11.158  10.934  0.9540  2.3774  1.5116
  790MOL0     H 4217   0.957  11.119  10.917  0.9994  1.3419  1.4480
  790MOL0     H 4218   0.963  11.130  11.088 -2.1996  0.3091  0.9597
  790MOL0     H 4219   0.714  11.091  11.028 -0.5336  0.6627 -0.1660
  790MOL0     H 4220   0.785  10.948  11.113  0.3547  1.4915 -0.3662
  790MOL0     H 4221   0.830  10.828  10.904  1.0686  1.9028  0.5144
  790MOL0     H 4222   0.757  10.956  10.811  1.4265 -1.9945 -1.8329
  790MOL0     H 4223   0.610  10.770  11.017 -0.0034  1.1803  0.9677
  790MOL0     H 4224   0.545  10.926  10.948  1.9330  1.3496 -0.9244
  790MOL0     H 4225   0.636  10.704  10.764 -1.8884 -1.4853 -1.6665
  790MOL0     H 4226   0.546  10.848  10.727 -0.6587  1.4971  1.4844
  790MOL0     H 4227   0.362  10.726  10.900 -1.9699  0.8563 -2.8464
  790MOL0     H 4228   0.481  10.597  10.872  2.5033  0.8879 -0.6532
  790MOL0     H 4229   0.294  10.751  10.679  1.0355  1.1870 -0.3440
  790MOL0     H 4230   0.423  10.662  10.613  0.5850  1.2102  0.3140
  790MOL0     H 4231   0.216  10.533  10.801  1.9761  1.4903  2.3231
  790MOL0     H 4232   0.345  10.455  10.707  1.4624  0.9036 -0.0730
  790MOL0     H 4233   0.321  10.502  10.399  2.5701  2.7089  0.8833
  790MOL0     H 4234   0.197  10.395  10.223  0.6274  1.0387 -1.7197
  790MOL0     H 4235   0.100  10.533  10.168 -2.0359 -1.2369 -1.5340
  790MOL0     H 4236  -0.100  10.405  10.252  0.7321 -3.1345  6.6376
  790MOL0     H 4237   0.005  10.268  10.265  2.9428  2.4798  3.2527
  790MOL0     H 4238  -0.011  10.401   9.987 -0.8097 -0.0695 -0.5635
  790MOL0     H 4239   0.058  10.242  10.033 -0.4234 -0.9171  0.5424
  790MOL0     H 4240  -0.197  10.182  10.085  1.2904  0.8197  1.7521
  790MOL0     H 4241  -0.153  10.216   9.916 -2.0709  2.1308 -0.9740
  790MOL0     H 4242  -0.386  10.558  10.052  0.7470 -0.0145 -1.7548
  790MOL0     H 4243  -0.632  10.579  10.005 -0.3973 -0.2044 -2.3078
  790MOL0     H 4244  -1.010  10.272  10.092  0.4843  0.5035 -1.1664
  790MOL0     H 4245  -1.266  10.291  10.150 -0.7499 -0.3561 -0.3312
  790MOL0     H 4246  -1.498  10.362  10.077  1.2577  0.4095  0.6361
  790MOL0     H 4247  -1.520  10.534  10.006  3.2897  3.0140  0.4701
  790MOL0     H 4248  -1.641  10.593  10.204  0.1829  0.1597 -0.5551
  790MOL0     H 4249  -1.646  10.433  10.271  2.3524 -2.6569 -0.9787
  790MOL0     H 4250  -1.751  10.331  10.091 -2.3219 -0.9193  0.3401
  790MOL0     H 4251  -1.746  10.490   9.995 -1.3851  2.4089  1.1283
  790MOL0     H 4252  -1.884  10.484  10.271 -1.3269 -2.5263  0.7738
  790MOL0     H 4253  -1.944  10.571  10.130  1.3738  0.6611  1.5752
  790MOL0     H 4254  -1.965  10.273  10.203 -1.6749 -3.0075 -2.9825
  790MOL0     H 4255  -1.986  10.319  10.036  0.6583 -1.8365  1.1414
  790MOL0     H 4256  -2.148  10.435  10.263 -1.1676 -1.4560  0.5831
  790MOL0     H 4257  -2.193  10.291  10.207 -0.5903  1.8238  1.5554
  790MOL0     H 4258  -2.206  10.546  10.049  0.8476 -0.1683 -1.4139
  790MOL0     H 4259  -2.172  10.412   9.956 -0.1695 -1.6759  0.0894
  790MOL0     H 4260  -2.392  10.288  10.074 -3.5030  0.2583  1.5432
  790MOL0     H 4261  -2.434  10.443   9.994 -0.3535  0.5626  1.1365
  790MOL0     H 4262  -1.248  10.715  10.109  3.8960  2.1949  0.4970
  790MOL0     H 4263  -1.003  10.690  10.043  4.3525 -2.2456 -1.8858
  790MOL0     H 4264  -0.652  10.168   9.912  0.1225  0.6503 -0.4011
  790MOL0     H 4265  -0.404  10.149   9.945  1.9291  1.9844 -0.5546
  790MOL0     H 4266   1.184  10.785  11.135 -0.1316  0.0071 -0.7521
  790MOL0     H 4267   1.416  10.799  11.163 -3.4102 -1.6893  0.1736
  790MOL0     H 4268   1.802  11.312  11.204 -1.1468  1.1492  2.8980
  790MOL0     H 4269   2.023  11.289  11.309  1.4334 -1.1431  1.1452
  790MOL0     H 4270   2.262  10.914  11.311 -1.4398  2.0686 -3.4045
  790MOL0     H 4271   2.126  10.889  11.431  3.2302 -4.4893  0.0186
  790MOL0     H 4272   2.362  11.055  11.494  0.0400  0.2364 -1.7216
  790MOL0     H 4273   2.226  11.009  11.599 -0.8007  1.0746 -1.6484
  790MOL0     H 4274   2.432  10.830  11.446  1.4063  0.5673  0.2373
  790MOL0     H 4275   2.314  10.763  11.564  0.3929  1.0760  2.7646
  790MOL0     H 4276   2.539  10.945  11.657  0.2292  0.0255  0.3291
  790MOL0     H 4277   2.416  10.853  11.759 -3.9847 -2.2023 -2.2737
  790MOL0     H 4278   2.660  10.532  11.663 -0.0692  0.3440  3.1589
  790MOL0     H 4279   2.009  10.856  11.256  1.7677  0.6223 -2.7711
  790MOL0     H 4280   1.791  10.887  11.132  2.0686  1.5505 -3.6312
  791MOL0     O 4281   3.578  10.069   4.666  0.4781 -1.1754  0.1460
  791MOL0     C 4282   3.620  10.150   4.586  0.2871  0.5669  0.4836
  791MOL0     O 4283   3.541  10.221   4.496  0.5436 -0.3865 -0.0985
  791MOL0     C 4284   3.399  10.196   4.474 -0.4075  0.2084 -0.3637
  791MOL0     C 4285   3.354  10.077   4.439  0.0782 -0.4020 -0.5746
  791MOL0     C 4286   3.222  10.061   4.402  0.5650  0.5584  0.1573
  791MOL0     C 4287   3.126  10.167   4.413  0.2222  0.2317  1.0411
  791MOL0     O 4288   2.998  10.161   4.384  1.2322  0.7648  0.1989
  791MOL0     C 4289   2.924  10.043   4.419 -0.3030  0.7933  0.2748
  791MOL0     C 4290   2.775  10.088   4.411  0.3908 -0.6163 -0.3403
  791MOL0     C 4291   2.686   9.985   4.470 -0.8288  0.3326  0.6738
  791MOL0     C 4292   2.545  10.002   4.412 -0.9143 -0.4709  0.8586
  791MOL0     C 4293   2.456   9.879   4.448  1.0049 -0.4371 -0.2779
  791MOL0     C 4294   2.341   9.852   4.344  1.0883  0.2840 -0.7659
  791MOL0     C 4295   2.232   9.963   4.361 -0.4506 -0.4820  0.0700
  791MOL0     C 4296   2.091   9.908   4.326 -0.7770  0.6132  0.2702
  791MOL0     N 4297   1.973  10.008   4.317 -0.3097  0.2144  0.0263
  791MOL0     C 4298   1.931  10.082   4.420 -0.6415 -0.9798 -0.1772
  791MOL0     C 4299   1.849  10.173   4.352  0.0981  0.0614  0.2875
  791MOL0     C 4300   1.786  10.286   4.414  0.6006 -1.4120 -1.2385
  791MOL0     C 4301   1.722  10.270   4.554  0.2425  0.3093  1.0665
  791MOL0     C 4302   1.622  10.154   4.564 -0.2431 -0.4931  0.0252
  791MOL0     C 4303   1.511  10.179   4.478  0.5041  1.1900  0.5088
  791MOL0     O 4304   1.400  10.099   4.532  0.4795 -0.2793  0.5849
  791MOL0     C 4305   1.287  10.071   4.453  0.9873 -0.0969  0.0860
  791MOL0     C 4306   1.177  10.022   4.528 -0.4210 -0.6381  0.1524
  791MOL0     C 4307   1.060   9.996   4.453 -0.8188 -0.7321  0.0085
  791MOL0     C 4308   1.043  10.022   4.317 -0.9279  0.8185 -0.9778
  791MOL0     C 4309   0.932   9.971   4.237 -0.2194 -0.0863  1.5645
  791MOL0     O 4310   0.816   9.942   4.298  0.7589 -0.0165  0.3566
  791MOL0     C 4311   0.708   9.936   4.217  1.2609 -0.1530 -0.2485
  791MOL0     C 4312   0.638   9.815   4.191  0.1756 -0.1711 -0.2145
  791MOL0     C 4313   0.526   9.808   4.112 -0.4120 -0.1682  0.2467
  791MOL0     C 4314   0.471   9.926   4.052 -0.2586  0.1730 -0.0596
  791MOL0     O 4315   0.362   9.915   3.962 -0.0097 -0.1152 -0.5289
  791MOL0     C 4316   0.300   9.785   3.948  0.0427  0.2220  0.3130
  791MOL0     C 4317   0.203   9.806   3.838  0.2609 -0.2393  0.4674
  791MOL0     C 4318   0.094   9.693   3.824  0.0314 -0.4844  0.6346
  791MOL0     C 4319   0.142   9.580   3.734  0.5039 -0.5489 -0.9885
  791MOL0     C 4320   0.024   9.502   3.665 -0.0894  0.7213  0.0966
  791MOL0     C 4321  -0.034   9.387   3.755  0.1182  0.3565 -1.6038
  791MOL0     C 4322  -0.164   9.431   3.819  0.1277 -0.9502 -0.6506
  791MOL0     C 4323  -0.230   9.340   3.906 -0.6440  0.4598  0.1258
  791MOL0    Cl 4324  -0.394   9.394   3.952  0.2946 -0.2866  0.1616
  791MOL0     C 4325   0.533  10.044   4.073  0.5990 -0.2160  0.1515
  791MOL0     C 4326   0.649  10.050   4.156  0.3650 -0.2092  0.9945
  791MOL0     O 4327   0.950   9.974   4.112  1.0178 -0.2710 -0.2268
  791MOL0     C 4328   1.156  10.079   4.248 -0.3884  0.4506 -0.0289
  791MOL0     C 4329   1.275  10.091   4.313  0.1375  0.0464 -0.5800
  791MOL0     N 4330   1.837  10.139   4.217  0.8492  0.7146 -0.5353
  791MOL0     N 4331   1.910  10.033   4.204  0.1941 -0.3759  1.5184
  791MOL0     C 4332   3.178  10.295   4.449  0.2815  0.3031 -0.0082
  791MOL0     C 4333   3.313  10.305   4.481  0.2641 -1.3762  0.2840
  791MOL0     C 4334   3.773  10.162   4.567  0.2950  0.6808 -0.4730
  791MOL0     C 4335   3.859  10.111   4.673  0.9616 -0.0119 -0.4215
  791MOL0     C 4336   3.997  10.119   4.662 -0.0557 -0.8650  0.1001
  791MOL0     C 4337   4.047  10.163   4.531 -0.8664  0.4774  0.7984
  791MOL0     O 4338   4.185  10.170   4.517 -0.4964 -0.1739  0.4309
  791MOL0     C 4339   4.253  10.054   4.481 -0.0990  1.6715 -0.2742
  791MOL0     C 4340   4.234  10.006   4.336  1.3287  0.3911 -0.0797
  791MOL0     C 4341   4.290  10.107   4.240 -0.4501  0.2152  0.6415
  791MOL0     C 4342   4.277  10.057   4.097 -0.8897  0.4403 -0.4894
  791MOL0     C 4343   4.140  10.046   4.038 -0.2434 -0.5604  0.3559
  791MOL0     C 4344   4.034  10.039   3.984  0.1431 -0.0653 -0.0797
  791MOL0     C 4345   3.962  10.193   4.422 -0.1288 -0.0082 -0.2063
  791MOL0     C 4346   3.825  10.200   4.448 -0.2298  0.0800  0.2014
  791MOL0     H 4347   3.426   9.996   4.430 -3.6380 -4.2294  0.9660
  791MOL0     H 4348   3.189   9.964   4.366  0.2447  0.1602  1.4616
  791MOL0     H 4349   2.944  10.004   4.519  0.4357 -1.5862 -0.7325
  791MOL0     H 4350   2.957   9.969   4.346 -1.5928  2.8610 -2.5991
  791MOL0     H 4351   2.747  10.108   4.308 -1.5223  3.0036  0.6889
  791MOL0     H 4352   2.768  10.189   4.454  0.8263 -0.2307 -1.1609
  791MOL0     H 4353   2.687   9.982   4.580  1.3559  0.4480  0.6956
  791MOL0     H 4354   2.736   9.891   4.443  0.2228  0.9106  0.5648
  791MOL0     H 4355   2.495  10.095   4.441  0.1019  0.9652 -1.6364
  791MOL0     H 4356   2.560  10.004   4.303  0.3974  0.7074  1.0258
  791MOL0     H 4357   2.412   9.888   4.547  1.6225  2.0075 -0.1728
  791MOL0     H 4358   2.519   9.789   4.441 -2.3946 -2.9502 -1.2322
  791MOL0     H 4359   2.287   9.763   4.378 -1.5429  0.7992 -3.2427
  791MOL0     H 4360   2.377   9.831   4.243 -2.2593 -0.9075 -1.8305
  791MOL0     H 4361   2.221   9.992   4.466  1.0749  0.1058  0.0938
  791MOL0     H 4362   2.248  10.059   4.310 -0.8280 -0.5868 -0.2505
  791MOL0     H 4363   2.058   9.836   4.400  0.8079  0.8974  1.3022
  791MOL0     H 4364   2.107   9.867   4.226  1.9821  3.1963 -0.5047
  791MOL0     H 4365   1.977  10.089   4.518 -3.1551 -0.4639  1.0557
  791MOL0     H 4366   1.711  10.325   4.345 -1.6123 -1.9202  0.7580
  791MOL0     H 4367   1.868  10.355   4.438 -1.1913  0.5574 -0.4658
  791MOL0     H 4368   1.670  10.361   4.585  0.0238 -0.5825  3.5125
  791MOL0     H 4369   1.813  10.246   4.609 -1.2635 -1.6979  2.8441
  791MOL0     H 4370   1.666  10.060   4.530  0.3818 -0.4657  0.7561
  791MOL0     H 4371   1.581  10.146   4.665 -1.3903 -0.2994 -0.4104
  791MOL0     H 4372   1.542  10.144   4.379  0.4464  0.8430  0.6116
  791MOL0     H 4373   1.474  10.282   4.474 -0.5640  0.7935 -0.5902
  791MOL0     H 4374   1.178   9.998   4.634  0.6004 -2.7320 -0.2795
  791MOL0     H 4375   0.980   9.953   4.512 -1.2747 -0.3248 -0.3118
  791MOL0     H 4376   0.660   9.720   4.239 -1.9046  1.3284  4.3462
  791MOL0     H 4377   0.486   9.708   4.093 -4.3077  1.1543  0.5511
  791MOL0     H 4378   0.249   9.743   4.035  0.4539  0.5064  0.6902
  791MOL0     H 4379   0.367   9.714   3.900 -0.4880  1.3088 -2.2118
  791MOL0     H 4380   0.250   9.828   3.742  2.3771  1.9855  1.8857
  791MOL0     H 4381   0.154   9.900   3.866 -0.2497  0.4489 -2.4405
  791MOL0     H 4382   0.008   9.732   3.771  0.0981 -1.5292 -0.2756
  791MOL0     H 4383   0.067   9.663   3.926  1.0646 -0.4431  0.9354
  791MOL0     H 4384   0.199   9.633   3.658  0.5585 -0.9806 -1.2529
  791MOL0     H 4385   0.212   9.515   3.786 -0.0027 -1.1889 -1.0851
  791MOL0     H 4386   0.062   9.461   3.571 -0.8576  1.7432 -0.6812
  791MOL0     H 4387  -0.049   9.576   3.630 -1.4613 -1.0412 -0.9122
  791MOL0     H 4388   0.041   9.355   3.828 -1.5869  0.5699  0.3216
  791MOL0     H 4389  -0.040   9.293   3.698 -0.1144  0.9532 -2.5779
  791MOL0     H 4390  -0.131   9.515   3.881 -0.4135 -1.8353  0.9030
  791MOL0     H 4391  -0.243   9.458   3.749 -0.2260  1.3096  0.5164
  791MOL0     H 4392  -0.158   9.325   3.987  2.4023  1.7980 -2.1502
  791MOL0     H 4393  -0.245   9.245   3.856  0.3465  0.5400 -0.3328
  791MOL0     H 4394   0.497  10.142   4.043  1.4482  0.2479  0.5888
  791MOL0     H 4395   0.700  10.142   4.181  2.2538 -1.4459  1.9492
  791MOL0     H 4396   1.139  10.106   4.144 -1.0140 -2.2969 -0.7098
  791MOL0     H 4397   1.363  10.111   4.253  1.1692  0.0398  0.8859
  791MOL0     H 4398   3.105  10.375   4.452 -1.3678 -1.1252 -0.7804
  791MOL0     H 4399   3.351  10.405   4.500 -1.0833 -0.0497 -3.2821
  791MOL0     H 4400   3.812  10.068   4.761 -3.4422  1.3470 -1.8500
  791MOL0     H 4401   4.060  10.089   4.745 -0.5206 -2.2985 -0.0467
  791MOL0     H 4402   4.235   9.974   4.553 -1.6705  1.3593 -0.9822
  791MOL0     H 4403   4.360  10.075   4.492  0.2050 -0.7944  2.5727
  791MOL0     H 4404   4.271   9.906   4.311 -0.3584  0.0501 -1.4477
  791MOL0     H 4405   4.126   9.996   4.325  1.6139 -2.1336 -1.5508
  791MOL0     H 4406   4.395  10.133   4.256 -0.7566  3.6962 -1.9216
  791MOL0     H 4407   4.229  10.198   4.246  1.3084  1.4356  0.9237
  791MOL0     H 4408   4.322  10.136   4.035 -1.6737  2.4548  1.3681
  791MOL0     H 4409   4.333   9.964   4.084 -2.4993 -0.7069  0.4323
  791MOL0     H 4410   3.937  10.040   3.939 -0.4730  2.6820  1.1082
  791MOL0     H 4411   4.014  10.228   4.334 -2.2991  1.3604 -0.9993
  791MOL0     H 4412   3.765  10.243   4.369 -2.4268 -1.9958  0.6297
  792MOL0     O 4413   2.497   7.433   4.730 -0.7090  0.4001 -0.1402
  792MOL0     C 4414   2.420   7.526   4.731  0.4531 -0.3237 -0.0555
  792MOL0     O 4415   2.461   7.655   4.703  0.7475 -0.1737 -0.1534
  792MOL0     C 4416   2.579   7.672   4.646  0.0278  0.2325  0.2831
  792MOL0     C 4417   2.694   7.686   4.730 -0.2276  0.0272  0.8110
  792MOL0     C 4418   2.817   7.716   4.675  0.3926  0.6221 -1.1427
  792MOL0     C 4419   2.821   7.722   4.539  0.5682  0.4763  0.1831
  792MOL0     O 4420   2.942   7.744   4.489 -0.0295 -0.2194  0.3069
  792MOL0     C 4421   3.037   7.632   4.492  0.2412  0.2783  1.2239
  792MOL0     C 4422   3.185   7.674   4.468  0.2994 -0.1319  0.0285
  792MOL0     C 4423   3.285   7.562   4.487 -0.7477  0.0476 -0.2793
  792MOL0     C 4424   3.424   7.609   4.444 -1.6260 -0.1536 -0.0533
  792MOL0     C 4425   3.527   7.494   4.458  0.1799 -0.1608 -0.5469
  792MOL0     C 4426   3.578   7.468   4.601  0.2946  1.0115  0.3515
  792MOL0     C 4427   3.687   7.366   4.605 -0.4898 -0.2655  0.2265
  792MOL0     C 4428   3.640   7.226   4.566 -0.5030  0.1070 -0.1804
  792MOL0     N 4429   3.527   7.187   4.655 -0.2420 -0.4848  0.6108
  792MOL0     C 4430   3.404   7.188   4.605 -0.3003 -0.3679 -0.6650
  792MOL0     C 4431   3.332   7.137   4.703  1.1005  0.0258  0.7268
  792MOL0     C 4432   3.187   7.103   4.692  0.8087  1.0614 -0.1845
  792MOL0     C 4433   3.106   7.206   4.777  1.1349 -0.1298  0.7779
  792MOL0     C 4434   2.953   7.211   4.743 -0.0311 -0.1814 -1.0293
  792MOL0     C 4435   2.874   7.309   4.829 -1.0991 -1.1245 -0.1858
  792MOL0     O 4436   2.829   7.243   4.948  0.0479 -0.3900  0.0530
  792MOL0     C 4437   2.701   7.185   4.953 -0.0259  0.3731  0.4100
  792MOL0     C 4438   2.666   7.141   5.084  0.4770 -0.6934 -0.4032
  792MOL0     C 4439   2.537   7.100   5.111 -0.9540  0.7079  0.0491
  792MOL0     C 4440   2.439   7.077   5.010  0.2647 -0.5601 -0.1718
  792MOL0     C 4441   2.291   7.046   5.041 -0.6098 -0.1057 -0.2887
  792MOL0     O 4442   2.207   7.022   4.936  0.3752  0.3009  0.6921
  792MOL0     C 4443   2.083   6.968   4.950  1.2129  0.3775  0.6512
  792MOL0     C 4444   2.027   6.891   5.051  0.7158  0.7845  0.0196
  792MOL0     C 4445   1.898   6.849   5.048 -0.1596  0.2014  0.2226
  792MOL0     C 4446   1.814   6.865   4.940 -0.3681 -0.0267 -0.2827
  792MOL0     O 4447   1.683   6.822   4.928  0.6840 -0.3755 -0.0568
  792MOL0     C 4448   1.651   6.728   5.034 -0.7351 -1.2182 -0.8721
  792MOL0     C 4449   1.541   6.631   4.994 -0.4461 -0.2724 -0.5181
  792MOL0     C 4450   1.457   6.587   5.111 -0.0077 -0.3268  0.7648
  792MOL0     C 4451   1.363   6.469   5.068 -0.4696 -0.2111  0.4504
  792MOL0     C 4452   1.259   6.418   5.180 -0.2025  0.6668 -0.5020
  792MOL0     C 4453   1.323   6.385   5.314  0.6236  0.4946  0.4029
  792MOL0     C 4454   1.205   6.342   5.413 -0.3889  0.4620 -1.4475
  792MOL0     C 4455   1.283   6.267   5.531  0.4188 -0.1443 -0.4119
  792MOL0    Cl 4456   1.408   6.378   5.617  0.1683 -0.2173 -0.3526
  792MOL0     C 4457   1.868   6.938   4.835 -0.2667  0.2823 -0.1528
  792MOL0     C 4458   1.998   6.990   4.838 -0.0706 -0.3864 -0.2375
  792MOL0     O 4459   2.258   7.056   5.159  0.2980 -0.2717 -0.4886
  792MOL0     C 4460   2.478   7.116   4.877  0.4964 -0.3769  0.2558
  792MOL0     C 4461   2.610   7.175   4.845  0.2215  0.2238  0.2522
  792MOL0     N 4462   3.417   7.123   4.811  0.5247  0.4588  1.0758
  792MOL0     N 4463   3.535   7.149   4.778  0.0940 -0.7840 -0.6729
  792MOL0     C 4464   2.711   7.703   4.461 -0.5890  0.6049 -0.5599
  792MOL0     C 4465   2.588   7.673   4.505  1.2795 -0.0479  0.8963
  792MOL0     C 4466   2.276   7.501   4.769  0.5060  1.0146  0.8051
  792MOL0     C 4467   2.180   7.569   4.701 -0.2314 -0.1539 -0.2765
  792MOL0     C 4468   2.040   7.543   4.704 -1.4588  0.4396  0.5494
  792MOL0     C 4469   1.996   7.439   4.780 -0.6508  0.2351 -1.4993
  792MOL0     O 4470   1.869   7.383   4.792 -0.1823  0.1135 -0.0340
  792MOL0     C 4471   1.751   7.454   4.754 -0.7505 -0.0209 -0.2452
  792MOL0     C 4472   1.634   7.360   4.760 -0.1251 -1.0174  0.3510
  792MOL0     C 4473   1.545   7.376   4.641  0.2196 -0.0385  0.9983
  792MOL0     C 4474   1.493   7.517   4.613 -0.3190  0.0790  0.4713
  792MOL0     C 4475   1.364   7.508   4.540 -0.9966 -0.0013  0.1196
  792MOL0     C 4476   1.261   7.525   4.477  0.5799  0.4115 -0.1531
  792MOL0     C 4477   2.085   7.359   4.850 -0.3758 -0.2735  0.3898
  792MOL0     C 4478   2.228   7.389   4.840 -0.6947 -0.3299  0.0724
  792MOL0     H 4479   2.693   7.672   4.837  0.7400 -0.8047  0.7271
  792MOL0     H 4480   2.907   7.725   4.734 -1.0022  0.0148  1.1811
  792MOL0     H 4481   3.006   7.573   4.406 -0.6549  0.5650  1.3426
  792MOL0     H 4482   3.026   7.573   4.584  0.2575 -3.5954 -1.0497
  792MOL0     H 4483   3.202   7.755   4.539 -1.0698  0.1611  0.0559
  792MOL0     H 4484   3.207   7.724   4.373  2.3086 -1.7290 -0.4123
  792MOL0     H 4485   3.248   7.469   4.443  2.8884 -1.2171 -1.0391
  792MOL0     H 4486   3.295   7.539   4.593  0.5507 -2.5792 -0.8655
  792MOL0     H 4487   3.429   7.637   4.339  1.5058  0.0534  0.0748
  792MOL0     H 4488   3.447   7.691   4.513 -0.2689 -0.4847 -0.0899
  792MOL0     H 4489   3.614   7.529   4.401  0.0415  1.9282  0.4200
  792MOL0     H 4490   3.484   7.406   4.411 -1.0709  0.0481  0.1548
  792MOL0     H 4491   3.499   7.456   4.676 -2.2643  4.2348 -1.5363
  792MOL0     H 4492   3.621   7.557   4.649  1.0806 -0.3869  2.3316
  792MOL0     H 4493   3.771   7.404   4.546  1.5716 -1.7094  2.0547
  792MOL0     H 4494   3.721   7.363   4.709  0.8880  2.0629 -0.0698
  792MOL0     H 4495   3.713   7.145   4.577 -3.3078 -2.7724 -1.2216
  792MOL0     H 4496   3.621   7.213   4.459  2.2193  3.4068 -1.2182
  792MOL0     H 4497   3.367   7.224   4.510 -1.1329  2.3375  0.5875
  792MOL0     H 4498   3.158   7.001   4.717  0.5312  1.1816 -0.0132
  792MOL0     H 4499   3.170   7.122   4.585  2.4170  2.7461 -0.1990
  792MOL0     H 4500   3.134   7.310   4.757 -1.0282  1.1280  3.6261
  792MOL0     H 4501   3.133   7.186   4.881  3.0714  0.4909  0.4291
  792MOL0     H 4502   2.958   7.245   4.639 -0.9594  0.0830 -0.9986
  792MOL0     H 4503   2.915   7.109   4.753  0.4052 -0.3059 -0.5778
  792MOL0     H 4504   2.794   7.363   4.777  1.3132  0.4678 -2.4882
  792MOL0     H 4505   2.928   7.399   4.860  0.8680 -2.0727 -0.7263
  792MOL0     H 4506   2.740   7.150   5.163 -0.5083  1.1333  0.3749
  792MOL0     H 4507   2.501   7.069   5.208 -0.9056  0.8077  0.0983
  792MOL0     H 4508   2.088   6.864   5.136 -0.1162 -0.1988  0.3263
  792MOL0     H 4509   1.881   6.782   5.131 -1.8999  0.7720  0.3871
  792MOL0     H 4510   1.631   6.777   5.130  1.4142 -0.8320 -0.5654
  792MOL0     H 4511   1.736   6.661   5.046 -0.1911 -0.2932  0.9157
  792MOL0     H 4512   1.586   6.548   4.938  0.4369 -0.0915 -0.1030
  792MOL0     H 4513   1.478   6.686   4.924 -2.5586 -2.3930 -0.4028
  792MOL0     H 4514   1.389   6.667   5.143 -0.9384  0.0662 -1.9953
  792MOL0     H 4515   1.520   6.557   5.196 -0.5991  2.0144  2.0998
  792MOL0     H 4516   1.297   6.494   4.984  0.9199 -0.0556 -0.6252
  792MOL0     H 4517   1.428   6.386   5.039 -0.6593  0.1768 -1.1417
  792MOL0     H 4518   1.210   6.325   5.149  1.7184 -1.2787  1.8839
  792MOL0     H 4519   1.191   6.503   5.195  1.2218  1.4760  2.0466
  792MOL0     H 4520   1.377   6.471   5.354  1.5115  0.1013  0.0728
  792MOL0     H 4521   1.387   6.297   5.301  0.7648  0.8100 -1.1665
  792MOL0     H 4522   1.145   6.425   5.452  1.7687  1.3848  0.0928
  792MOL0     H 4523   1.133   6.277   5.363 -0.6878  0.3085 -0.8229
  792MOL0     H 4524   1.339   6.178   5.501 -0.4374 -0.6540 -0.5538
  792MOL0     H 4525   1.204   6.240   5.602 -1.1899  0.8635 -1.7190
  792MOL0     H 4526   1.805   6.972   4.753  0.5265  0.4863 -0.6852
  792MOL0     H 4527   2.024   7.055   4.756  2.7318  0.7599  1.4058
  792MOL0     H 4528   2.406   7.101   4.797  1.7786 -0.6150 -0.8793
  792MOL0     H 4529   2.640   7.203   4.745 -0.6363  0.1324 -0.0389
  792MOL0     H 4530   2.715   7.700   4.353 -3.4179 -1.4304 -0.7262
  792MOL0     H 4531   2.495   7.669   4.449 -0.4443  1.2246  3.4916
  792MOL0     H 4532   2.190   7.652   4.631 -1.3971  2.1034  2.0790
  792MOL0     H 4533   1.965   7.584   4.638 -0.1590 -1.6979 -2.4992
  792MOL0     H 4534   1.776   7.483   4.652  0.8399 -5.2946 -1.6702
  792MOL0     H 4535   1.735   7.535   4.826  3.4097  1.5365 -0.8394
  792MOL0     H 4536   1.661   7.255   4.774  0.0654 -1.0182 -0.0187
  792MOL0     H 4537   1.575   7.376   4.850 -0.8348 -1.6601  0.0123
  792MOL0     H 4538   1.463   7.304   4.649  0.7890 -0.5247  2.9541
  792MOL0     H 4539   1.601   7.334   4.557 -1.5745 -2.6266  1.0051
  792MOL0     H 4540   1.494   7.555   4.716  4.5008  0.4498  0.5426
  792MOL0     H 4541   1.574   7.572   4.564  2.5044 -2.3358  2.0877
  792MOL0     H 4542   1.166   7.533   4.428 -0.1592  1.6561  1.3722
  792MOL0     H 4543   2.047   7.277   4.910  2.5815 -1.8617  0.2826
  792MOL0     H 4544   2.290   7.306   4.874 -0.7378 -0.2630  0.3118
  793MOL0     O 4545   3.104   0.098   9.361 -0.5124  0.1925  0.0916
  793MOL0     C 4546   3.061   0.111   9.474 -0.2768 -0.5145 -1.4180
  793MOL0     O 4547   3.139   0.113   9.583  0.1765 -0.2176 -0.2860
  793MOL0     C 4548   3.277   0.122   9.571 -0.7130 -0.2436 -0.2169
  793MOL0     C 4549   3.355   0.161   9.456 -0.0897  0.4972  0.3579
  793MOL0     C 4550   3.489   0.176   9.478  0.4669  0.8682 -0.5201
  793MOL0     C 4551   3.552   0.146   9.604 -0.6149 -1.3065 -0.8667
  793MOL0     O 4552   3.681   0.168   9.633 -0.5993  1.0324  0.4590
  793MOL0     C 4553   3.733   0.296   9.623 -0.7098 -0.0823 -0.2560
  793MOL0     C 4554   3.883   0.301   9.593 -0.6149  0.6030  0.6531
  793MOL0     C 4555   3.948   0.434   9.640  0.5880 -0.1620 -0.1453
  793MOL0     C 4556   3.858   0.556   9.584  0.5611  0.1832  0.1956
  793MOL0     C 4557   3.936   0.683   9.563  0.6147  1.1801 -0.1998
  793MOL0     C 4558   3.852   0.788   9.492  0.0572  0.1330  1.1136
  793MOL0     C 4559   3.883   0.767   9.341 -0.1058  0.0472  0.4207
  793MOL0     C 4560   3.767   0.830   9.253 -0.2698 -0.2836 -0.0028
  793MOL0     N 4561   3.645   0.753   9.277 -0.0969  0.3738 -0.7275
  793MOL0     C 4562   3.613   0.626   9.227 -0.0250 -0.3138 -0.4968
  793MOL0     C 4563   3.490   0.616   9.275  0.4526  0.6918  0.4381
  793MOL0     C 4564   3.395   0.504   9.254 -0.5347 -0.3709  0.0453
  793MOL0     C 4565   3.243   0.544   9.228  0.8065 -0.1970  0.4651
  793MOL0     C 4566   3.166   0.418   9.197  0.4135  0.1573 -0.4384
  793MOL0     C 4567   3.022   0.444   9.143 -0.0017  0.8401 -0.8538
  793MOL0     O 4568   2.935   0.489   9.251  0.0413 -0.0223 -0.0988
  793MOL0     C 4569   2.794   0.484   9.250 -0.6368 -0.7043  0.7596
  793MOL0     C 4570   2.705   0.495   9.141  0.0432 -0.1597 -0.3346
  793MOL0     C 4571   2.569   0.497   9.158  0.3132  0.0094 -0.0852
  793MOL0     C 4572   2.511   0.495   9.283  0.0465 -0.9780 -0.7962
  793MOL0     C 4573   2.367   0.509   9.307  0.5756  0.9170 -0.4969
  793MOL0     O 4574   2.283   0.522   9.200  0.1105 -0.1822  0.1650
  793MOL0     C 4575   2.148   0.544   9.220  0.4136 -0.9704  0.7641
  793MOL0     C 4576   2.101   0.672   9.260  0.2804 -0.3782 -1.0299
  793MOL0     C 4577   1.964   0.702   9.269 -0.5740  0.4639  0.3256
  793MOL0     C 4578   1.869   0.613   9.215 -0.5793  0.2507  0.1706
  793MOL0     O 4579   1.737   0.637   9.214 -0.5028  0.4868  0.6106
  793MOL0     C 4580   1.704   0.772   9.253  0.2844  0.3765 -0.0405
  793MOL0     C 4581   1.541   0.778   9.263  0.1334  0.4617  0.1970
  793MOL0     C 4582   1.476   0.772   9.119 -0.7093  0.2879  0.0014
  793MOL0     C 4583   1.325   0.777   9.128 -0.1435 -0.3288  1.2475
  793MOL0     C 4584   1.248   0.650   9.092 -0.0246 -0.1499  0.4905
  793MOL0     C 4585   1.257   0.548   9.210  0.4563  0.4288 -0.0780
  793MOL0     C 4586   1.177   0.426   9.155 -0.2216 -0.2022  0.3371
  793MOL0     C 4587   1.157   0.314   9.260  0.9955  0.4841 -0.1659
  793MOL0    Cl 4588   1.244   0.173   9.216 -0.0822  0.0341  0.4947
  793MOL0     C 4589   1.920   0.484   9.168  0.9107  0.4401 -0.4894
  793MOL0     C 4590   2.056   0.454   9.166 -0.5079 -0.1823 -0.6241
  793MOL0     O 4591   2.337   0.522   9.421 -0.0214  0.1082  0.4871
  793MOL0     C 4592   2.597   0.494   9.399 -0.1801 -0.2002  0.2872
  793MOL0     C 4593   2.740   0.493   9.375  0.0144 -0.1256  0.1495
  793MOL0     N 4594   3.443   0.724   9.349 -0.1473  0.4364 -0.6253
  793MOL0     N 4595   3.542   0.801   9.352  0.7414  0.2722  0.1686
  793MOL0     C 4596   3.475   0.094   9.704 -0.4185  0.2342  0.1070
  793MOL0     C 4597   3.338   0.083   9.688 -0.0984  0.8742  0.0389
  793MOL0     C 4598   2.912   0.126   9.486 -0.0905 -0.1683 -0.4120
  793MOL0     C 4599   2.858   0.153   9.617  0.1847  0.5510  0.7618
  793MOL0     C 4600   2.721   0.142   9.646  0.5559 -0.7602  0.3018
  793MOL0     C 4601   2.642   0.107   9.531 -0.9460 -0.4169 -0.4167
  793MOL0     O 4602   2.506   0.103   9.535  0.1671  0.6483  0.5315
  793MOL0     C 4603   2.424   0.198   9.600  0.8922 -0.0155  0.9443
  793MOL0     C 4604   2.275   0.167   9.581  0.3137  0.9088  0.0776
  793MOL0     C 4605   2.253   0.156   9.430 -0.5512  0.5426 -0.0960
  793MOL0     C 4606   2.110   0.178   9.397  0.7329 -0.1908 -0.4906
  793MOL0     C 4607   2.082   0.122   9.256  0.0493 -0.7103  0.6458
  793MOL0     C 4608   2.061   0.075   9.146 -0.0492  0.0094  1.4062
  793MOL0     C 4609   2.693   0.087   9.397 -0.1924  0.0836  0.7018
  793MOL0     C 4610   2.832   0.102   9.372 -0.3726  0.1263 -0.7854
  793MOL0     H 4611   3.309   0.190   9.362  0.9220 -0.7491 -0.5633
  793MOL0     H 4612   3.544   0.225   9.398  0.3538  1.1331 -0.4371
  793MOL0     H 4613   3.726   0.346   9.720 -0.7110 -0.0463 -0.2745
  793MOL0     H 4614   3.681   0.355   9.546 -1.5683 -1.8027 -1.0346
  793MOL0     H 4615   3.902   0.278   9.488 -0.8834  0.4521  0.6391
  793MOL0     H 4616   3.929   0.219   9.649 -1.0259 -0.5481 -0.6531
  793MOL0     H 4617   4.045   0.457   9.594 -0.0117  1.5789 -0.6254
  793MOL0     H 4618   3.952   0.438   9.749 -3.6663 -0.6895  0.1729
  793MOL0     H 4619   3.831   0.516   9.486  0.8086  0.4264  0.0294
  793MOL0     H 4620   3.767   0.573   9.643  0.1747 -4.7739  1.5116
  793MOL0     H 4621   4.033   0.672   9.516  0.4898  1.7650 -0.6046
  793MOL0     H 4622   3.946   0.724   9.665 -2.0626  0.4508  0.4341
  793MOL0     H 4623   3.893   0.886   9.520  2.5054 -0.7600  0.8697
  793MOL0     H 4624   3.749   0.778   9.528 -1.4894  0.3371 -2.7488
  793MOL0     H 4625   3.985   0.792   9.311  0.8994 -4.0689 -0.1681
  793MOL0     H 4626   3.887   0.661   9.316  1.2499 -0.6863  3.3183
  793MOL0     H 4627   3.795   0.816   9.148  0.2337  1.0224 -0.0581
  793MOL0     H 4628   3.751   0.937   9.267  1.2214  0.3387 -2.3737
  793MOL0     H 4629   3.680   0.570   9.163  3.5286  3.0233 -0.1210
  793MOL0     H 4630   3.390   0.448   9.348 -0.7789  0.1503  0.3500
  793MOL0     H 4631   3.430   0.444   9.169  3.0476  3.2660 -1.3471
  793MOL0     H 4632   3.223   0.617   9.149 -2.8403  0.0816  1.4198
  793MOL0     H 4633   3.201   0.595   9.316  0.2317  1.8982 -0.9463
  793MOL0     H 4634   3.219   0.363   9.119 -2.0980  0.2150 -2.2982
  793MOL0     H 4635   3.155   0.358   9.288  2.1002  2.1582  1.2124
  793MOL0     H 4636   2.988   0.349   9.102 -0.3627  0.6836 -0.2000
  793MOL0     H 4637   3.050   0.505   9.057  1.3925 -2.1899 -2.7285
  793MOL0     H 4638   2.757   0.505   9.047  3.7146 -3.7192  1.0278
  793MOL0     H 4639   2.503   0.472   9.075  0.5499 -1.8025  0.2304
  793MOL0     H 4640   2.170   0.752   9.286  0.0231  0.2439 -2.2032
  793MOL0     H 4641   1.927   0.785   9.328 -1.6248 -0.8386  1.5632
  793MOL0     H 4642   1.743   0.858   9.198 -2.1909  1.5565 -0.1024
  793MOL0     H 4643   1.728   0.780   9.359 -2.0329 -0.4229  0.6088
  793MOL0     H 4644   1.503   0.863   9.321 -1.2471  0.8548 -1.1979
  793MOL0     H 4645   1.516   0.692   9.325 -0.3852 -0.2835 -1.0020
  793MOL0     H 4646   1.501   0.689   9.052 -0.3143  0.4081 -0.0007
  793MOL0     H 4647   1.508   0.862   9.067  0.4512 -0.7659 -1.1851
  793MOL0     H 4648   1.306   0.822   9.225  1.8174  0.8449  1.1433
  793MOL0     H 4649   1.294   0.844   9.047 -2.2922 -3.1583 -0.5201
  793MOL0     H 4650   1.284   0.599   9.003  0.7736  0.2206  0.5935
  793MOL0     H 4651   1.143   0.677   9.076 -0.2489 -0.3610  1.5307
  793MOL0     H 4652   1.227   0.584   9.309  1.0516 -1.2668  0.7608
  793MOL0     H 4653   1.363   0.526   9.223  0.9068  1.7293 -1.2440
  793MOL0     H 4654   1.079   0.459   9.119 -0.9325  0.4918  2.7236
  793MOL0     H 4655   1.232   0.393   9.066  0.7939  1.3318  0.3723
  793MOL0     H 4656   1.050   0.295   9.263  1.0694  0.1272  0.4366
  793MOL0     H 4657   1.171   0.345   9.364 -1.1853 -0.1994  0.3830
  793MOL0     H 4658   1.850   0.418   9.119  1.2948  1.9459 -3.2946
  793MOL0     H 4659   2.091   0.364   9.118  0.5724 -1.3647  2.1869
  793MOL0     H 4660   2.549   0.499   9.497 -0.5059  3.2903  0.0801
  793MOL0     H 4661   2.804   0.495   9.463 -3.2553  2.1231  2.7478
  793MOL0     H 4662   3.520   0.077   9.802 -1.8365  2.6920  1.2869
  793MOL0     H 4663   3.278   0.055   9.774 -0.8205 -0.0015 -0.7272
  793MOL0     H 4664   2.917   0.178   9.705  1.4656 -0.7863  0.3142
  793MOL0     H 4665   2.686   0.167   9.746  0.9761  3.1313 -0.3406
  793MOL0     H 4666   2.448   0.295   9.554 -1.7582  0.4706  0.4143
  793MOL0     H 4667   2.455   0.184   9.704  3.3610  1.6236  0.5118
  793MOL0     H 4668   2.250   0.077   9.638  0.6419  1.7211  1.5762
  793MOL0     H 4669   2.218   0.245   9.632 -1.6523  0.4286 -1.3013
  793MOL0     H 4670   2.276   0.056   9.392 -0.7575  1.2122 -2.1653
  793MOL0     H 4671   2.309   0.240   9.386 -3.9105  3.3802  0.5414
  793MOL0     H 4672   2.048   0.128   9.472  2.9700  0.5088  1.9643
  793MOL0     H 4673   2.078   0.282   9.394  2.7934  0.5993  1.7164
  793MOL0     H 4674   2.053   0.019   9.055 -1.1240 -1.8964  2.5998
  793MOL0     H 4675   2.629   0.065   9.312  1.6984 -1.7375 -0.3564
  793MOL0     H 4676   2.872   0.067   9.277 -0.6366 -0.9944 -0.4995
  794MOL0     O 4677   3.050   7.236   3.289  0.3920 -0.4085  0.3053
  794MOL0     C 4678   3.060   7.214   3.169  0.5160  0.2318  1.1589
  794MOL0     O 4679   2.948   7.211   3.078 -0.6230 -0.3597  1.0593
  794MOL0     C 4680   2.832   7.257   3.116 -0.4341  0.2921  0.1679
  794MOL0     C 4681   2.811   7.390   3.164  0.0729 -0.7100  0.1082
  794MOL0     C 4682   2.675   7.427   3.188  0.1753 -0.6684  0.3144
  794MOL0     C 4683   2.568   7.343   3.152  0.1094 -0.6787  0.0397
  794MOL0     O 4684   2.441   7.385   3.181 -0.1142 -0.2413 -0.6156
  794MOL0     C 4685   2.360   7.302   3.258 -0.0776  0.0245 -0.8572
  794MOL0     C 4686   2.246   7.381   3.314  0.1761 -0.6147  0.5511
  794MOL0     C 4687   2.165   7.305   3.415  0.0512  0.4452 -0.4887
  794MOL0     C 4688   2.069   7.391   3.505 -0.2382 -0.0509  0.1247
  794MOL0     C 4689   1.987   7.317   3.616 -1.1531 -0.1266 -0.0819
  794MOL0     C 4690   1.963   7.419   3.723 -0.1414  0.2902 -2.0864
  794MOL0     C 4691   1.917   7.354   3.855 -0.3027  0.2975 -0.4845
  794MOL0     C 4692   1.768   7.326   3.865  0.3213  0.2200  0.7049
  794MOL0     N 4693   1.686   7.453   3.858  0.7747  0.1233  0.4264
  794MOL0     C 4694   1.586   7.485   3.768  0.0251  0.0461  0.4315
  794MOL0     C 4695   1.520   7.582   3.822  0.6215 -0.0460  0.4694
  794MOL0     C 4696   1.424   7.670   3.744 -0.3669  0.6538 -0.1247
  794MOL0     C 4697   1.284   7.631   3.762  0.2450 -0.2058 -0.2967
  794MOL0     C 4698   1.187   7.705   3.679  0.3579  0.8395  0.2892
  794MOL0     C 4699   1.172   7.844   3.728 -0.6608 -0.5336 -0.1233
  794MOL0     O 4700   1.056   7.910   3.667 -0.3909 -0.0715 -0.3174
  794MOL0     C 4701   0.928   7.879   3.701  0.4291  0.9805 -0.5789
  794MOL0     C 4702   0.824   7.922   3.618  0.8909 -0.0531 -0.6672
  794MOL0     C 4703   0.690   7.889   3.658 -0.8604  0.7661  0.0400
  794MOL0     C 4704   0.658   7.822   3.775 -0.5946 -0.3806 -0.8420
  794MOL0     C 4705   0.510   7.800   3.821 -0.2188  0.5802 -0.1440
  794MOL0     O 4706   0.488   7.706   3.918  0.1556 -0.6819 -0.6051
  794MOL0     C 4707   0.358   7.715   3.968 -0.4882  1.2088  0.2933
  794MOL0     C 4708   0.258   7.653   3.894  0.3364  0.7674 -0.1535
  794MOL0     C 4709   0.125   7.653   3.956  0.4359 -0.0300 -0.0332
  794MOL0     C 4710   0.100   7.709   4.081 -0.3105 -0.2611  0.4935
  794MOL0     O 4711  -0.030   7.708   4.139 -0.0486  0.2235  0.9007
  794MOL0     C 4712  -0.051   7.732   4.280  0.0826  0.3157  0.8140
  794MOL0     C 4713  -0.081   7.881   4.316 -0.1268  0.0103 -0.5456
  794MOL0     C 4714  -0.215   7.935   4.258 -0.3880  0.0095 -0.5288
  794MOL0     C 4715  -0.228   8.087   4.248 -0.3573 -0.3205 -0.7740
  794MOL0     C 4716  -0.278   8.156   4.377  0.2739  0.2242  1.0111
  794MOL0     C 4717  -0.179   8.249   4.461  0.2655  0.6093  0.0416
  794MOL0     C 4718  -0.236   8.284   4.591  0.1710 -0.8559  0.2344
  794MOL0     C 4719  -0.128   8.356   4.674  0.0899  0.0239 -0.3055
  794MOL0    Cl 4720  -0.053   8.487   4.588  0.5272  0.1476  0.2679
  794MOL0     C 4721   0.207   7.774   4.146 -0.7982 -0.3140  0.9912
  794MOL0     C 4722   0.336   7.768   4.091  0.2639 -0.8130  0.4271
  794MOL0     O 4723   0.425   7.856   3.756 -0.8503 -0.1755 -0.5800
  794MOL0     C 4724   0.759   7.780   3.852 -0.0300 -0.6601  0.4765
  794MOL0     C 4725   0.890   7.814   3.820  0.0403 -0.1354  0.6076
  794MOL0     N 4726   1.568   7.611   3.950  0.0299  0.3911  0.5337
  794MOL0     N 4727   1.671   7.531   3.964 -1.1243  0.4484 -0.9942
  794MOL0     C 4728   2.593   7.215   3.082 -0.6431  0.6131 -0.1547
  794MOL0     C 4729   2.724   7.180   3.070  0.5240 -0.7047 -0.0647
  794MOL0     C 4730   3.196   7.169   3.116 -0.1134 -0.2712 -0.0800
  794MOL0     C 4731   3.298   7.163   3.212 -0.6145 -0.0137 -0.4523
  794MOL0     C 4732   3.421   7.112   3.173  0.7212  0.4075  0.4120
  794MOL0     C 4733   3.443   7.077   3.035  0.3987 -0.2167  0.3021
  794MOL0     O 4734   3.573   7.061   3.001  0.0879 -0.0899  0.2288
  794MOL0     C 4735   3.603   6.948   2.908 -0.3370  0.0104  0.3841
  794MOL0     C 4736   3.725   6.885   2.975  0.1571 -0.6804  0.0753
  794MOL0     C 4737   3.842   6.977   2.965  0.0183  0.1437 -0.4077
  794MOL0     C 4738   3.978   6.912   3.017 -0.6584  0.0383  0.0359
  794MOL0     C 4739   3.983   6.854   3.150 -0.8137  1.2236 -0.5365
  794MOL0     C 4740   3.985   6.802   3.261  0.9831  0.5811 -0.0770
  794MOL0     C 4741   3.341   7.103   2.941  0.0882  0.3346  0.2240
  794MOL0     C 4742   3.220   7.143   2.979  0.0036 -0.2175  0.0268
  794MOL0     H 4743   2.901   7.448   3.181 -0.4271  0.5035 -1.2502
  794MOL0     H 4744   2.638   7.523   3.223 -2.3946 -1.7820  0.9156
  794MOL0     H 4745   2.419   7.255   3.337 -1.6713 -0.7915 -0.1294
  794MOL0     H 4746   2.329   7.226   3.186 -2.2908  1.6824 -1.7688
  794MOL0     H 4747   2.181   7.421   3.235  1.5121  1.2497  0.3132
  794MOL0     H 4748   2.294   7.463   3.369 -0.7204  1.2443 -1.2571
  794MOL0     H 4749   2.236   7.259   3.485  2.5046 -0.0617 -3.1073
  794MOL0     H 4750   2.102   7.228   3.369 -0.6126  2.4611 -3.1666
  794MOL0     H 4751   2.137   7.468   3.545  2.5528 -1.2652 -1.9282
  794MOL0     H 4752   1.991   7.438   3.444  0.4992  0.5934 -0.3428
  794MOL0     H 4753   2.043   7.233   3.657 -3.3415 -1.0894  1.0780
  794MOL0     H 4754   1.892   7.269   3.591 -0.7379 -0.7264 -0.5205
  794MOL0     H 4755   1.883   7.488   3.695 -3.1738 -1.7254  0.7277
  794MOL0     H 4756   2.059   7.468   3.742  0.1900  0.9235 -5.0367
  794MOL0     H 4757   1.962   7.254   3.862 -3.0679 -1.0343 -0.3798
  794MOL0     H 4758   1.952   7.414   3.940  2.1653 -1.8290  0.1158
  794MOL0     H 4759   1.733   7.274   3.954 -1.3914  2.5703  1.5022
  794MOL0     H 4760   1.731   7.263   3.784 -0.2865 -0.0069  1.1493
  794MOL0     H 4761   1.565   7.453   3.666 -1.8426  0.9283  0.5005
  794MOL0     H 4762   1.450   7.648   3.640  1.9879 -1.0437  0.7343
  794MOL0     H 4763   1.449   7.772   3.773  4.4173 -0.7498  1.5382
  794MOL0     H 4764   1.258   7.635   3.868 -1.4993  4.4646 -0.6572
  794MOL0     H 4765   1.284   7.525   3.739 -0.9524 -0.3504  0.3111
  794MOL0     H 4766   1.222   7.703   3.576  0.0240 -0.6940  0.1924
  794MOL0     H 4767   1.101   7.640   3.697  1.5519 -0.5819  1.0221
  794MOL0     H 4768   1.258   7.911   3.722 -0.0775 -1.0746  1.6497
  794MOL0     H 4769   1.151   7.841   3.835 -2.7946 -3.7068 -0.4834
  794MOL0     H 4770   0.825   7.970   3.521 -0.1889  3.1906  0.7856
  794MOL0     H 4771   0.608   7.903   3.588 -1.8837 -1.7157  0.6460
  794MOL0     H 4772   0.288   7.607   3.800 -2.7125 -1.1441 -0.3377
  794MOL0     H 4773   0.042   7.617   3.896  0.6958  2.0433 -1.7631
  794MOL0     H 4774   0.025   7.688   4.345  0.6428  3.1296  2.2610
  794MOL0     H 4775  -0.145   7.682   4.306 -1.7695  0.4053 -4.5460
  794MOL0     H 4776  -0.010   7.949   4.268 -1.2735 -0.3687 -2.9226
  794MOL0     H 4777  -0.078   7.895   4.425 -0.8192 -1.2605 -0.3428
  794MOL0     H 4778  -0.306   7.890   4.298  0.1181 -0.2866  0.3096
  794MOL0     H 4779  -0.208   7.900   4.155  1.9550 -0.4900 -0.2563
  794MOL0     H 4780  -0.130   8.126   4.217  0.4342  0.6297  2.5541
  794MOL0     H 4781  -0.291   8.106   4.160 -1.2935 -2.7998 -0.7088
  794MOL0     H 4782  -0.306   8.075   4.446  0.6710 -1.2578 -0.5108
  794MOL0     H 4783  -0.366   8.216   4.354 -1.0114 -2.1553 -0.8399
  794MOL0     H 4784  -0.163   8.341   4.403  2.5982  1.3495  1.7019
  794MOL0     H 4785  -0.078   8.210   4.477 -0.6893 -1.6175  1.0802
  794MOL0     H 4786  -0.314   8.357   4.568  1.1329  0.7433  1.8601
  794MOL0     H 4787  -0.266   8.192   4.642 -0.1678 -1.8128 -1.5846
  794MOL0     H 4788  -0.064   8.275   4.710 -1.3467 -1.0421 -0.0877
  794MOL0     H 4789  -0.163   8.395   4.770 -1.0478 -4.0735  1.1458
  794MOL0     H 4790   0.192   7.836   4.233  0.3090  1.0805  0.2235
  794MOL0     H 4791   0.409   7.825   4.148 -1.0871  0.5754  0.8588
  794MOL0     H 4792   0.743   7.728   3.945  1.5828  1.2980  1.9353
  794MOL0     H 4793   0.966   7.787   3.892 -0.9418  0.2235  1.8194
  794MOL0     H 4794   2.518   7.146   3.044  1.3427 -1.1643 -1.0440
  794MOL0     H 4795   2.748   7.085   3.022  2.0530 -2.5863  3.9406
  794MOL0     H 4796   3.276   7.179   3.317  1.6622 -0.8357  0.1908
  794MOL0     H 4797   3.496   7.089   3.248 -0.6339  0.4621  1.8370
  794MOL0     H 4798   3.615   6.974   2.802 -1.4293 -2.1174 -0.3033
  794MOL0     H 4799   3.519   6.879   2.912 -0.7932  0.3718 -1.8551
  794MOL0     H 4800   3.696   6.883   3.080  1.8951  2.8369  0.7587
  794MOL0     H 4801   3.736   6.792   2.919 -0.1175 -0.2585 -0.6992
  794MOL0     H 4802   3.817   7.061   3.030 -2.5672 -2.0668  1.7080
  794MOL0     H 4803   3.860   7.016   2.865  0.5256 -0.0985 -0.4172
  794MOL0     H 4804   4.010   6.828   2.956  2.4763 -0.4403  2.1030
  794MOL0     H 4805   4.051   6.993   3.011 -0.3884 -0.0667  1.4199
  794MOL0     H 4806   4.002   6.748   3.352  0.4270 -2.4167 -1.6088
  794MOL0     H 4807   3.345   7.096   2.833  0.3032  0.1640  0.2430
  794MOL0     H 4808   3.147   7.176   2.906 -0.2258  0.4218  0.5257
  795MOL0     O 4809   0.915   6.591  10.715 -0.4126  0.1479 -0.2655
  795MOL0     C 4810   0.855   6.587  10.605  0.4236  0.1111 -0.4454
  795MOL0     O 4811   0.880   6.508  10.501 -0.1865  0.1632  0.5964
  795MOL0     C 4812   0.993   6.428  10.492  0.0642 -0.0553 -0.8277
  795MOL0     C 4813   0.987   6.292  10.452  1.2379 -0.6635 -0.2071
  795MOL0     C 4814   1.100   6.211  10.445  0.4117  0.2154 -0.5439
  795MOL0     C 4815   1.224   6.259  10.495 -0.3195  0.3826 -0.0376
  795MOL0     O 4816   1.328   6.168  10.515  0.2364  0.2921  0.1517
  795MOL0     C 4817   1.423   6.206  10.614 -0.3427 -0.1854  0.1109
  795MOL0     C 4818   1.533   6.093  10.620  0.2800  1.0744  0.7305
  795MOL0     C 4819   1.604   6.059  10.489 -0.2170  0.3252  0.2305
  795MOL0     C 4820   1.697   6.186  10.454  0.5969  1.2124 -0.0914
  795MOL0     C 4821   1.793   6.141  10.337 -0.5066 -0.9419 -0.8597
  795MOL0     C 4822   1.928   6.224  10.347 -0.2261  0.1616 -0.1784
  795MOL0     C 4823   2.005   6.218  10.214 -0.4196 -0.2505 -1.0780
  795MOL0     C 4824   2.147   6.270  10.213 -0.3020  0.2900  0.0566
  795MOL0     N 4825   2.131   6.410  10.239 -0.1465 -0.4772  0.3211
  795MOL0     C 4826   2.105   6.506  10.144 -1.2308 -0.0312 -0.1319
  795MOL0     C 4827   2.117   6.630  10.207 -0.3650  0.1558  0.6962
  795MOL0     C 4828   2.103   6.771  10.140 -0.9004 -0.4022  0.0463
  795MOL0     C 4829   1.962   6.844  10.129 -0.2712  0.2122  0.6092
  795MOL0     C 4830   1.873   6.741  10.063 -0.5760 -0.2813  0.6003
  795MOL0     C 4831   1.727   6.785  10.043 -0.1486  0.2332 -0.5985
  795MOL0     O 4832   1.751   6.870   9.929  0.0906 -0.4060  0.0711
  795MOL0     C 4833   1.635   6.905   9.866  0.8516 -0.0558  0.0760
  795MOL0     C 4834   1.630   7.004   9.759 -0.6832  0.5891 -0.7752
  795MOL0     C 4835   1.506   7.051   9.713 -0.0377 -0.8507  0.1204
  795MOL0     C 4836   1.386   6.995   9.757  0.0497 -0.1754  0.6746
  795MOL0     C 4837   1.253   7.052   9.704  0.0629  0.5132 -0.2226
  795MOL0     O 4838   1.141   6.976   9.698  0.5744  0.4726 -0.4740
  795MOL0     C 4839   1.022   7.051   9.702  0.1208 -0.0912 -0.4535
  795MOL0     C 4840   0.966   7.088   9.818 -0.5370  0.5688  0.4281
  795MOL0     C 4841   0.845   7.150   9.829  0.2669 -0.5780 -0.4645
  795MOL0     C 4842   0.780   7.198   9.716 -0.5213 -0.0869 -0.1174
  795MOL0     O 4843   0.657   7.259   9.733 -0.4652 -0.8531 -1.0350
  795MOL0     C 4844   0.568   7.253   9.623  0.4366 -0.4150 -0.0527
  795MOL0     C 4845   0.420   7.275   9.673  0.2504  0.2580 -0.0943
  795MOL0     C 4846   0.313   7.316   9.575  0.6747 -0.7952 -0.7569
  795MOL0     C 4847   0.277   7.197   9.485  0.5883  0.1664  0.0756
  795MOL0     C 4848   0.127   7.206   9.437  0.3055 -0.1770  0.3695
  795MOL0     C 4849   0.022   7.177   9.553 -0.0191 -0.2551  0.2536
  795MOL0     C 4850  -0.113   7.251   9.526 -0.9692 -0.6011  0.2379
  795MOL0     C 4851  -0.191   7.200   9.404  0.2892  0.2602 -0.4390
  795MOL0    Cl 4852  -0.347   7.282   9.414 -0.2407 -0.5575  0.6012
  795MOL0     C 4853   0.849   7.181   9.592  0.7497  0.4465  0.8451
  795MOL0     C 4854   0.963   7.104   9.591  0.3017 -0.4719 -0.0199
  795MOL0     O 4855   1.260   7.170   9.686  0.0309  0.5799  0.7791
  795MOL0     C 4856   1.388   6.894   9.849 -0.4762  0.3833  0.9382
  795MOL0     C 4857   1.505   6.851   9.904  0.3111  0.2857  0.8427
  795MOL0     N 4858   2.147   6.602  10.341 -0.1605  0.1138 -0.1762
  795MOL0     N 4859   2.157   6.468  10.359  0.0177 -1.2188  0.3926
  795MOL0     C 4860   1.228   6.400  10.529 -0.6372 -0.1534  0.4558
  795MOL0     C 4861   1.115   6.479  10.503 -0.0105  0.0388 -0.5628
  795MOL0     C 4862   0.720   6.649  10.597  1.3745  0.9159 -1.0575
  795MOL0     C 4863   0.678   6.752  10.686  0.7553  0.2175  1.3386
  795MOL0     C 4864   0.553   6.804  10.681 -0.8183 -0.5820  0.4742
  795MOL0     C 4865   0.461   6.767  10.585 -0.2418  0.1291 -0.5881
  795MOL0     O 4866   0.342   6.828  10.583  0.1102  0.5267 -0.3344
  795MOL0     C 4867   0.231   6.781  10.505 -0.8844  0.0009 -0.2568
  795MOL0     C 4868   0.097   6.848  10.553 -0.1188 -1.0648 -0.3921
  795MOL0     C 4869   0.104   6.996  10.540 -0.0267 -0.2639 -0.3640
  795MOL0     C 4870   0.011   7.069  10.649 -0.2736 -0.4530  0.3837
  795MOL0     C 4871   0.008   7.212  10.610 -0.5784  0.6381 -0.2818
  795MOL0     C 4872   0.017   7.328  10.579  0.3834 -0.6402  0.3259
  795MOL0     C 4873   0.491   6.660  10.500 -0.4707  0.3566  0.1610
  795MOL0     C 4874   0.619   6.602  10.503 -0.7289 -0.4877  0.4328
  795MOL0     H 4875   0.899   6.235  10.422  0.7489 -0.3143  0.5270
  795MOL0     H 4876   1.096   6.104  10.423  1.3127 -0.3023  1.5504
  795MOL0     H 4877   1.371   6.226  10.708 -1.1184 -1.6480  0.0211
  795MOL0     H 4878   1.480   6.295  10.588  0.9161 -0.3325  2.1279
  795MOL0     H 4879   1.491   5.999  10.658  1.1825  0.6286  0.6533
  795MOL0     H 4880   1.608   6.126  10.693  1.0798 -1.1483  0.9947
  795MOL0     H 4881   1.527   6.043  10.413  0.6330 -2.2100 -0.2073
  795MOL0     H 4882   1.667   5.975  10.519 -0.9968 -0.0996  0.7128
  795MOL0     H 4883   1.623   6.264  10.431  0.1614  0.8396  0.0287
  795MOL0     H 4884   1.751   6.220  10.543  0.6257 -1.5932  1.0490
  795MOL0     H 4885   1.752   6.170  10.240  1.0569  0.1423 -1.2301
  795MOL0     H 4886   1.807   6.033  10.341  2.3827 -0.6257  1.6678
  795MOL0     H 4887   1.979   6.185  10.435 -0.6152 -3.4340 -1.3991
  795MOL0     H 4888   1.900   6.326  10.376 -0.7598  0.2996 -1.1399
  795MOL0     H 4889   2.016   6.116  10.175 -1.2145  0.2435 -2.6724
  795MOL0     H 4890   1.958   6.283  10.140 -1.0728  1.2206  0.5596
  795MOL0     H 4891   2.209   6.260  10.124 -1.6473  1.9053 -1.1309
  795MOL0     H 4892   2.192   6.211  10.294 -2.4064 -1.1130  0.2832
  795MOL0     H 4893   2.073   6.478  10.044 -2.1760 -1.4196  0.5236
  795MOL0     H 4894   2.149   6.761  10.041  0.8387 -1.1494  0.8853
  795MOL0     H 4895   2.176   6.833  10.193 -2.5280  2.4702 -0.8634
  795MOL0     H 4896   1.969   6.941  10.079  0.3944  0.8351  1.8519
  795MOL0     H 4897   1.919   6.858  10.229 -1.6573  1.3784 -0.1122
  795MOL0     H 4898   1.904   6.690   9.971 -0.7911 -0.2268  0.4947
  795MOL0     H 4899   1.858   6.657  10.131 -0.4984 -0.7359  0.0708
  795MOL0     H 4900   1.701   6.834  10.137 -1.7015 -1.9469  0.1727
  795MOL0     H 4901   1.666   6.697  10.020  2.3548 -1.3420 -1.6968
  795MOL0     H 4902   1.725   7.052   9.737 -0.9658  1.8609  0.6351
  795MOL0     H 4903   1.497   7.133   9.643  0.3803 -0.1468  0.8758
  795MOL0     H 4904   1.032   7.077   9.904 -1.7218 -0.1123  1.2854
  795MOL0     H 4905   0.792   7.159   9.924  1.1076  1.3291 -0.1285
  795MOL0     H 4906   0.573   7.160   9.567 -0.8268 -1.6053  1.7164
  795MOL0     H 4907   0.602   7.332   9.555  0.5263 -0.0014  0.4668
  795MOL0     H 4908   0.435   7.360   9.741 -0.7264  0.6465 -0.3375
  795MOL0     H 4909   0.378   7.195   9.735 -4.1730  1.2419 -1.4110
  795MOL0     H 4910   0.353   7.394   9.509  0.4083  0.2391  0.2619
  795MOL0     H 4911   0.229   7.358   9.630  2.1297  2.2697 -0.6117
  795MOL0     H 4912   0.347   7.177   9.404  1.0113 -2.8601  1.0565
  795MOL0     H 4913   0.286   7.108   9.547 -2.4906 -0.5487 -0.3291
  795MOL0     H 4914   0.112   7.144   9.348 -0.5607 -3.0914  2.3893
  795MOL0     H 4915   0.109   7.308   9.403  2.1974  0.4779  1.2449
  795MOL0     H 4916   0.062   7.225   9.642 -0.3139 -1.1326  0.8673
  795MOL0     H 4917   0.019   7.069   9.568  1.6245 -0.4144 -0.3431
  795MOL0     H 4918  -0.162   7.224   9.620 -1.5423 -2.3059 -0.4971
  795MOL0     H 4919  -0.098   7.359   9.520  0.6311 -0.7617  0.7504
  795MOL0     H 4920  -0.209   7.093   9.421 -0.4558  0.2159 -1.3923
  795MOL0     H 4921  -0.143   7.220   9.307  0.3285  2.4178 -0.0204
  795MOL0     H 4922   0.813   7.218   9.496  1.0657 -0.5951  0.3168
  795MOL0     H 4923   1.019   7.083   9.501 -0.3978  0.3914 -0.6736
  795MOL0     H 4924   1.303   6.843   9.894  1.5045 -2.3100  1.8826
  795MOL0     H 4925   1.485   6.786   9.988  2.0243 -0.7406  0.4998
  795MOL0     H 4926   1.314   6.449  10.572 -0.5172 -0.6858  0.8330
  795MOL0     H 4927   1.133   6.581  10.536 -0.7509 -0.4008  1.3359
  795MOL0     H 4928   0.748   6.781  10.764  1.4603  1.5630  0.2408
  795MOL0     H 4929   0.523   6.866  10.765 -1.9270 -0.6888  0.1775
  795MOL0     H 4930   0.210   6.675  10.513 -1.5517  0.2605  2.2627
  795MOL0     H 4931   0.246   6.801  10.399 -2.7810 -3.4765 -1.3068
  795MOL0     H 4932   0.014   6.797  10.502 -1.9385  0.1596  1.2077
  795MOL0     H 4933   0.094   6.822  10.659  3.6563 -0.3984  0.0214
  795MOL0     H 4934   0.056   7.020  10.445 -2.2107 -1.7439  0.2890
  795MOL0     H 4935   0.208   7.028  10.552 -0.8088  1.2969  4.0312
  795MOL0     H 4936  -0.088   7.024  10.641  0.7568 -2.5337 -3.1875
  795MOL0     H 4937   0.046   7.059  10.752 -1.0855  0.0985  0.7239
  795MOL0     H 4938  -0.001   7.432  10.559 -0.9836 -0.9305 -0.0779
  795MOL0     H 4939   0.418   6.616  10.433  0.7160  1.1438 -1.7474
  795MOL0     H 4940   0.645   6.519  10.438 -0.0899  0.5646 -0.6873
  796MOL0     O 4941   9.022   5.547   2.216 -0.2371 -1.2756 -0.0126
  796MOL0     C 4942   9.054   5.642   2.147 -0.1152 -0.6671 -0.1746
  796MOL0     O 4943   8.983   5.749   2.125  0.1008  0.3046 -0.1729
  796MOL0     C 4944   8.872   5.774   2.197  0.2516 -0.2114 -0.7680
  796MOL0     C 4945   8.761   5.696   2.202 -0.2217 -0.7213  0.2111
  796MOL0     C 4946   8.640   5.725   2.267  0.5615 -0.1128  0.0774
  796MOL0     C 4947   8.636   5.839   2.346  0.4957 -0.4222  0.8367
  796MOL0     O 4948   8.539   5.874   2.431  0.0990 -0.1071  0.1867
  796MOL0     C 4949   8.436   5.775   2.454 -1.1751 -0.3605  0.6396
  796MOL0     C 4950   8.333   5.819   2.550 -0.4111  0.8659  1.1145
  796MOL0     C 4951   8.222   5.720   2.549  0.5720 -0.0391  0.3181
  796MOL0     C 4952   8.143   5.728   2.679  0.6303 -0.1833  0.8966
  796MOL0     C 4953   8.018   5.629   2.677 -0.1824 -0.8108 -0.3787
  796MOL0     C 4954   7.950   5.643   2.813  0.5462 -0.2925 -0.2271
  796MOL0     C 4955   7.820   5.553   2.850  0.0829 -0.5294 -0.4685
  796MOL0     C 4956   7.757   5.606   2.987  0.7081 -0.0149  0.6032
  796MOL0     N 4957   7.635   5.535   3.028 -0.7741 -0.6622 -0.5578
  796MOL0     C 4958   7.519   5.554   2.975 -0.3141 -0.2736  0.0946
  796MOL0     C 4959   7.432   5.470   3.041  0.6778 -0.0530  0.1521
  796MOL0     C 4960   7.288   5.449   3.011 -0.1755  0.7491  0.0628
  796MOL0     C 4961   7.209   5.345   3.098  0.7127  0.1368 -0.1539
  796MOL0     C 4962   7.078   5.304   3.046  0.5919 -0.0629 -0.0562
  796MOL0     C 4963   6.995   5.241   3.155  0.5108 -0.2756  0.8610
  796MOL0     O 4964   6.877   5.183   3.094 -0.5207 -0.3940 -1.0161
  796MOL0     C 4965   6.758   5.245   3.112  0.7462 -1.7488  0.3204
  796MOL0     C 4966   6.742   5.383   3.099  0.1260 -0.1723  0.3325
  796MOL0     C 4967   6.611   5.439   3.108  0.2652 -0.2006  0.2854
  796MOL0     C 4968   6.498   5.366   3.142  0.7398  0.0493 -0.8322
  796MOL0     C 4969   6.366   5.429   3.171 -0.9510 -0.4536 -0.5796
  796MOL0     O 4970   6.255   5.351   3.146 -0.9363 -0.3793  0.4735
  796MOL0     C 4971   6.133   5.405   3.174  0.1734 -0.5764 -0.0680
  796MOL0     C 4972   6.021   5.308   3.192 -0.5033  0.3710 -0.4192
  796MOL0     C 4973   5.885   5.342   3.189  0.8983  0.0312 -0.3581
  796MOL0     C 4974   5.845   5.476   3.164  0.5720 -0.3460 -0.1532
  796MOL0     O 4975   5.722   5.529   3.141  0.8531  0.2435  0.5003
  796MOL0     C 4976   5.606   5.468   3.194  0.6198  0.0301 -1.0660
  796MOL0     C 4977   5.504   5.581   3.195  0.1237  0.1717  0.5429
  796MOL0     C 4978   5.363   5.516   3.213  0.0836  0.0440  0.4398
  796MOL0     C 4979   5.252   5.604   3.174  0.1141 -0.3220 -0.5406
  796MOL0     C 4980   5.106   5.542   3.179  0.5181 -0.0398  0.7980
  796MOL0     C 4981   5.066   5.486   3.322  0.2492 -0.4877 -1.6735
  796MOL0     C 4982   4.951   5.380   3.307 -0.4134  0.5718  0.2705
  796MOL0     C 4983   4.860   5.376   3.428 -0.6096  0.3198  0.0259
  796MOL0    Cl 4984   4.943   5.316   3.572 -0.2706  0.0305 -0.1358
  796MOL0     C 4985   5.950   5.569   3.148 -0.6264  0.3087  0.4155
  796MOL0     C 4986   6.087   5.537   3.141  0.2610 -0.1162  0.6118
  796MOL0     O 4987   6.366   5.542   3.223 -0.3329  0.0718  0.1032
  796MOL0     C 4988   6.518   5.227   3.174  0.3839 -0.0072  0.0296
  796MOL0     C 4989   6.649   5.173   3.147  0.1774 -0.3114 -0.2458
  796MOL0     N 4990   7.498   5.409   3.149  0.6725 -0.3583  1.0198
  796MOL0     N 4991   7.628   5.434   3.125 -0.3718  0.5235 -0.3819
  796MOL0     C 4992   8.743   5.928   2.328  0.0310  0.1520  0.2175
  796MOL0     C 4993   8.864   5.898   2.254  0.9405  1.1941 -0.9246
  796MOL0     C 4994   9.178   5.627   2.069 -0.3951 -0.6118  0.4274
  796MOL0     C 4995   9.282   5.548   2.126 -0.1960 -0.6901 -0.2109
  796MOL0     C 4996   9.412   5.554   2.081  0.8083  0.2358  0.2052
  796MOL0     C 4997   9.447   5.625   1.966  0.9589  0.1750  0.3144
  796MOL0     O 4998   9.576   5.647   1.917 -0.3934  1.0442  0.1920
  796MOL0     C 4999   9.679   5.566   1.975 -1.0664 -0.5451  0.4530
  796MOL0     C 5000   9.761   5.631   2.086 -0.5974 -0.2627  0.1782
  796MOL0     C 5001   9.788   5.780   2.077  0.2927  0.5862  0.6097
  796MOL0     C 5002   9.860   5.841   2.190  0.0997 -0.3999  0.2171
  796MOL0     C 5003   9.859   5.990   2.178 -0.0798  1.1416  0.1984
  796MOL0     C 5004   9.860   6.108   2.174 -0.2594 -0.7692  0.0361
  796MOL0     C 5005   9.342   5.693   1.897 -1.0777 -0.4507  0.1137
  796MOL0     C 5006   9.213   5.689   1.948  0.7393 -0.5718 -0.1161
  796MOL0     H 5007   8.777   5.607   2.142 -1.2083 -0.3791 -0.5966
  796MOL0     H 5008   8.561   5.651   2.257  0.2613 -0.1626  2.3182
  796MOL0     H 5009   8.488   5.685   2.489  2.1878  1.0752 -0.2861
  796MOL0     H 5010   8.389   5.735   2.364 -0.8422 -0.1061  0.3562
  796MOL0     H 5011   8.304   5.918   2.515 -0.3102  0.1040 -1.2616
  796MOL0     H 5012   8.386   5.816   2.646  1.3268 -1.8138  0.1983
  796MOL0     H 5013   8.254   5.616   2.543 -1.5135 -0.6829 -0.6030
  796MOL0     H 5014   8.169   5.740   2.455  2.5830 -0.5486 -0.9897
  796MOL0     H 5015   8.196   5.694   2.768 -1.4631 -0.2795  2.1582
  796MOL0     H 5016   8.106   5.827   2.707  3.6220  0.8008  1.7415
  796MOL0     H 5017   8.056   5.526   2.676  1.0181 -0.4196  1.3434
  796MOL0     H 5018   7.958   5.637   2.586 -1.2786 -0.4970  0.3637
  796MOL0     H 5019   7.930   5.750   2.822 -1.3827 -0.0350 -4.6901
  796MOL0     H 5020   8.020   5.615   2.892 -0.2699 -0.3742  0.4752
  796MOL0     H 5021   7.758   5.578   2.764  1.5837  1.4268 -1.0666
  796MOL0     H 5022   7.834   5.445   2.841 -0.3633 -0.6017 -0.3166
  796MOL0     H 5023   7.743   5.715   2.983 -0.7390 -0.1790  0.4346
  796MOL0     H 5024   7.823   5.580   3.070  0.6520 -1.1556  0.3068
  796MOL0     H 5025   7.498   5.607   2.883 -1.0133  2.2549  1.6150
  796MOL0     H 5026   7.295   5.392   2.918 -0.6458  0.6093  0.1127
  796MOL0     H 5027   7.227   5.540   3.006 -1.4476 -0.1232 -1.1933
  796MOL0     H 5028   7.204   5.386   3.200  1.4448 -0.1850  0.0256
  796MOL0     H 5029   7.275   5.259   3.117 -0.1583 -0.7943 -1.2701
  796MOL0     H 5030   7.011   5.383   3.010 -1.5299 -1.8589 -0.2476
  796MOL0     H 5031   7.098   5.231   2.968  2.5909 -1.2896  1.5141
  796MOL0     H 5032   6.980   5.311   3.238  1.1519 -0.5227  1.1956
  796MOL0     H 5033   7.052   5.161   3.204  0.5324  0.8194  2.7421
  796MOL0     H 5034   6.829   5.441   3.070  0.8080  0.3824  3.1531
  796MOL0     H 5035   6.592   5.546   3.104  1.1634  0.0449  1.6508
  796MOL0     H 5036   6.047   5.203   3.196 -0.2174  0.4668  0.4163
  796MOL0     H 5037   5.817   5.258   3.186  2.2072 -1.0582 -0.5832
  796MOL0     H 5038   5.618   5.435   3.298 -0.4376  1.5954 -0.4182
  796MOL0     H 5039   5.576   5.390   3.124  1.8930 -1.8031  0.3071
  796MOL0     H 5040   5.498   5.626   3.095  1.3917 -1.8718 -0.5288
  796MOL0     H 5041   5.528   5.659   3.268 -2.4385 -1.4660  3.3406
  796MOL0     H 5042   5.346   5.479   3.315  0.7407  1.4477  1.0778
  796MOL0     H 5043   5.359   5.430   3.146  1.6392 -0.9589  1.5602
  796MOL0     H 5044   5.253   5.683   3.250  2.8962 -2.2180  1.6324
  796MOL0     H 5045   5.269   5.649   3.077  3.3383 -1.3945 -0.5798
  796MOL0     H 5046   5.099   5.462   3.106 -2.8311  1.2278 -0.4383
  796MOL0     H 5047   5.034   5.622   3.160  0.3490  0.7690  4.1741
  796MOL0     H 5048   5.033   5.573   3.378 -0.3464 -2.1878  0.7951
  796MOL0     H 5049   5.155   5.437   3.363 -0.0425  1.1567  1.1012
  796MOL0     H 5050   4.891   5.407   3.220 -1.9368  0.7293  1.3255
  796MOL0     H 5051   4.995   5.282   3.286 -1.2006  0.1654  0.4837
  796MOL0     H 5052   4.777   5.308   3.407  1.5981 -1.9790 -1.7493
  796MOL0     H 5053   4.822   5.476   3.454  0.9528  0.9746 -0.0973
  796MOL0     H 5054   5.922   5.672   3.130  0.7659  0.8666  1.3094
  796MOL0     H 5055   6.145   5.624   3.113 -0.5485 -0.3702 -2.0390
  796MOL0     H 5056   6.437   5.163   3.207  2.2892 -2.4981  0.1624
  796MOL0     H 5057   6.662   5.067   3.167  1.3980 -0.0714  0.3389
  796MOL0     H 5058   8.745   6.022   2.383 -1.6132  1.3363 -1.6274
  796MOL0     H 5059   8.954   5.959   2.258 -0.7175  3.7217  2.2525
  796MOL0     H 5060   9.285   5.488   2.217  1.0927  1.7363  1.4485
  796MOL0     H 5061   9.490   5.516   2.146  0.3033  2.7203  2.4211
  796MOL0     H 5062   9.744   5.535   1.893 -1.5835  0.1204 -0.2153
  796MOL0     H 5063   9.638   5.469   2.007 -2.2928 -0.2297 -0.1016
  796MOL0     H 5064   9.712   5.618   2.183  0.1289  1.2483  0.7677
  796MOL0     H 5065   9.852   5.572   2.099 -1.5379 -1.4047  1.8914
  796MOL0     H 5066   9.692   5.830   2.090  1.1713  2.4508  0.2109
  796MOL0     H 5067   9.843   5.813   1.989  3.1541 -1.0019  1.6306
  796MOL0     H 5068   9.820   5.815   2.288  1.0696 -1.8579  0.2558
  796MOL0     H 5069   9.965   5.810   2.186 -0.3846 -2.0756 -0.3542
  796MOL0     H 5070   9.868   6.215   2.177 -2.7642 -0.5471  0.5717
  796MOL0     H 5071   9.369   5.738   1.802  1.2500 -0.8323  0.5383
  796MOL0     H 5072   9.133   5.742   1.898  2.0350  1.0605 -0.5500
  797MOL0     O 5073   7.876   8.328   7.215  0.6057  0.8668 -0.4599
  797MOL0     C 5074   7.894   8.317   7.334 -0.3293  0.5912  0.0345
  797MOL0     O 5075   7.801   8.330   7.430 -0.1838  0.5098 -0.1245
  797MOL0     C 5076   7.681   8.376   7.387  0.1605 -0.1158  0.3515
  797MOL0     C 5077   7.588   8.296   7.313  0.1881 -0.2815  0.2056
  797MOL0     C 5078   7.458   8.347   7.277  0.0138 -1.0273  0.3319
  797MOL0     C 5079   7.430   8.480   7.300 -0.3103 -0.6605 -0.1495
  797MOL0     O 5080   7.316   8.522   7.254  0.3142 -0.0197  0.3211
  797MOL0     C 5081   7.244   8.632   7.316 -0.4800 -0.2771 -0.1149
  797MOL0     C 5082   7.098   8.601   7.312  0.7980 -0.0868 -0.3562
  797MOL0     C 5083   7.000   8.723   7.340 -1.3650  0.2707 -0.0619
  797MOL0     C 5084   6.846   8.681   7.329  0.2813  0.0821  0.7065
  797MOL0     C 5085   6.807   8.623   7.462 -0.8043 -0.3313  0.0220
  797MOL0     C 5086   6.647   8.591   7.456 -0.3841  0.0469  0.5108
  797MOL0     C 5087   6.585   8.579   7.591 -0.0079  0.1718  0.1723
  797MOL0     C 5088   6.618   8.450   7.664  0.6645 -0.6790 -0.5694
  797MOL0     N 5089   6.554   8.331   7.591 -0.5069 -0.3899 -0.8254
  797MOL0     C 5090   6.428   8.268   7.606 -1.1033  0.0795 -0.1158
  797MOL0     C 5091   6.438   8.145   7.542 -0.1550 -0.5556 -0.0443
  797MOL0     C 5092   6.323   8.049   7.533 -0.2605  0.1301  0.1004
  797MOL0     C 5093   6.220   8.096   7.427 -0.6991 -0.9261  0.2251
  797MOL0     C 5094   6.102   8.001   7.417 -0.4467  0.0197 -0.6882
  797MOL0     C 5095   6.003   8.046   7.309  0.3673  0.0669  0.1313
  797MOL0     O 5096   5.888   7.973   7.306  0.2196  0.0808 -0.0944
  797MOL0     C 5097   5.787   8.013   7.389 -0.2539  0.5198  0.5120
  797MOL0     C 5098   5.666   7.935   7.389 -0.5695  0.4989 -0.6361
  797MOL0     C 5099   5.561   7.947   7.477 -0.5885  0.8036 -0.9360
  797MOL0     C 5100   5.575   8.043   7.584  0.2673 -0.4016 -0.2961
  797MOL0     C 5101   5.467   8.081   7.683 -0.3661  0.7315 -0.1320
  797MOL0     O 5102   5.492   8.184   7.773  0.5112 -0.2065 -0.6371
  797MOL0     C 5103   5.397   8.211   7.863 -0.4607 -0.8124 -0.3360
  797MOL0     C 5104   5.264   8.257   7.831 -0.1465  0.5451 -0.5259
  797MOL0     C 5105   5.175   8.295   7.931  0.2207  0.2468  0.4181
  797MOL0     C 5106   5.211   8.286   8.065 -0.2614 -0.3898  0.9008
  797MOL0     O 5107   5.113   8.322   8.152  0.2770 -0.1351 -1.0873
  797MOL0     C 5108   5.156   8.335   8.292 -0.4786 -0.2440 -0.3759
  797MOL0     C 5109   5.034   8.328   8.383 -0.0913  0.0315  0.5968
  797MOL0     C 5110   4.947   8.453   8.383 -0.8360  0.5147  0.5778
  797MOL0     C 5111   4.803   8.418   8.417 -0.0591 -0.2911  0.1622
  797MOL0     C 5112   4.738   8.543   8.489 -0.0197 -0.0755  0.2479
  797MOL0     C 5113   4.591   8.513   8.498  0.3223 -1.0003  0.1867
  797MOL0     C 5114   4.516   8.604   8.596 -0.0585  0.1112  0.2434
  797MOL0     C 5115   4.363   8.587   8.580  0.1695  0.6694  0.9501
  797MOL0    Cl 5116   4.295   8.607   8.417 -0.4325  0.2056  0.1011
  797MOL0     C 5117   5.348   8.251   8.090 -0.9892 -0.8683  0.7162
  797MOL0     C 5118   5.437   8.210   7.991  0.1806 -0.6187  0.7628
  797MOL0     O 5119   5.362   8.026   7.675 -0.7923 -0.0897  0.2186
  797MOL0     C 5120   5.692   8.122   7.587 -0.7206  0.2255  0.3894
  797MOL0     C 5121   5.795   8.105   7.493 -0.2537 -0.8180 -0.6186
  797MOL0     N 5122   6.559   8.141   7.486 -0.0062 -0.9140  0.2938
  797MOL0     N 5123   6.619   8.249   7.503 -1.2006 -0.1408 -0.8437
  797MOL0     C 5124   7.516   8.562   7.373 -0.3132  0.2122  0.1270
  797MOL0     C 5125   7.645   8.511   7.417  0.0218 -0.1504 -0.0090
  797MOL0     C 5126   8.037   8.302   7.382  0.2982  0.5255 -0.5824
  797MOL0     C 5127   8.086   8.345   7.496  0.3074  1.0756 -0.7141
  797MOL0     C 5128   8.226   8.331   7.530  0.7234 -0.2339 -0.3501
  797MOL0     C 5129   8.315   8.278   7.444  0.1596  0.9076 -0.0000
  797MOL0     O 5130   8.443   8.247   7.492  0.0552 -0.3770  0.5345
  797MOL0     C 5131   8.495   8.113   7.488 -0.9695  0.8624  0.9411
  797MOL0     C 5132   8.571   8.075   7.618 -0.5088 -0.0838  0.4839
  797MOL0     C 5133   8.575   7.920   7.627  0.9509 -0.4789 -0.2530
  797MOL0     C 5134   8.657   7.866   7.739  0.4641 -1.3622  0.4366
  797MOL0     C 5135   8.797   7.867   7.716  0.4045  0.1842 -0.3115
  797MOL0     C 5136   8.917   7.857   7.712  0.4989 -0.3382  0.2035
  797MOL0     C 5137   8.261   8.227   7.328  0.9784  0.3565 -0.7716
  797MOL0     C 5138   8.129   8.243   7.293  0.7198 -0.5335 -0.1361
  797MOL0     H 5139   7.609   8.192   7.292 -1.6598 -2.0106  5.2706
  797MOL0     H 5140   7.397   8.283   7.214  1.7933 -1.8928 -0.5691
  797MOL0     H 5141   7.260   8.727   7.264  0.6513  1.6217  3.3662
  797MOL0     H 5142   7.270   8.652   7.420 -1.4161 -1.0270  0.2850
  797MOL0     H 5143   7.079   8.521   7.384 -1.0318  0.4392 -0.1992
  797MOL0     H 5144   7.071   8.575   7.209  0.5979 -1.9777  0.1265
  797MOL0     H 5145   7.024   8.807   7.275 -0.4650 -1.2613 -1.7981
  797MOL0     H 5146   7.027   8.749   7.443 -3.0493  0.8554  0.2645
  797MOL0     H 5147   6.785   8.766   7.298  1.0231  0.8370  1.2653
  797MOL0     H 5148   6.836   8.605   7.251 -1.3493 -1.5160  2.3812
  797MOL0     H 5149   6.813   8.701   7.539  2.1520 -0.0273 -0.4200
  797MOL0     H 5150   6.878   8.546   7.492 -1.9001 -0.9324  1.1679
  797MOL0     H 5151   6.608   8.516   7.387 -0.7349  0.2866  0.4472
  797MOL0     H 5152   6.600   8.684   7.423 -0.3508 -0.4275 -0.9647
  797MOL0     H 5153   6.618   8.664   7.651  0.2627  0.9380 -1.0226
  797MOL0     H 5154   6.477   8.584   7.577 -0.3918 -1.8322  1.9404
  797MOL0     H 5155   6.582   8.466   7.766  2.7657  0.5349  0.0306
  797MOL0     H 5156   6.726   8.440   7.674  0.8553 -1.5565 -2.8663
  797MOL0     H 5157   6.358   8.305   7.680 -0.7943 -1.7061  1.1300
  797MOL0     H 5158   6.281   8.047   7.634 -2.0192 -1.1537 -0.5968
  797MOL0     H 5159   6.363   7.949   7.514  1.3066  0.7239  0.1718
  797MOL0     H 5160   6.272   8.107   7.331 -0.2941 -0.3187  0.5078
  797MOL0     H 5161   6.188   8.198   7.451  0.2905 -0.9678  1.9249
  797MOL0     H 5162   6.132   7.899   7.389 -3.5030 -1.2233  0.1557
  797MOL0     H 5163   6.067   7.985   7.519  2.4280 -0.5963  0.2941
  797MOL0     H 5164   6.058   8.026   7.217  0.6885 -0.8950  0.5156
  797MOL0     H 5165   5.977   8.152   7.319  1.6092  0.3414  0.6749
  797MOL0     H 5166   5.655   7.852   7.320 -1.0668  0.9481 -1.1033
  797MOL0     H 5167   5.470   7.888   7.468  0.3998 -0.5488 -2.6031
  797MOL0     H 5168   5.243   8.284   7.728  1.2259 -2.4042 -1.6931
  797MOL0     H 5169   5.072   8.320   7.906 -0.1178 -1.1691  0.3388
  797MOL0     H 5170   5.205   8.431   8.309 -1.6966  0.0920  1.5978
  797MOL0     H 5171   5.230   8.260   8.320  1.1108  1.0511 -0.9914
  797MOL0     H 5172   5.060   8.312   8.488  0.4023  2.4292  0.9046
  797MOL0     H 5173   4.970   8.241   8.365  1.7345 -2.1466  3.6415
  797MOL0     H 5174   4.956   8.500   8.285  5.5787  0.8000  0.8762
  797MOL0     H 5175   4.993   8.515   8.461 -1.0143  0.5275  0.6741
  797MOL0     H 5176   4.750   8.396   8.324  0.6436  0.8973 -0.5512
  797MOL0     H 5177   4.808   8.327   8.478  0.0091 -1.4314 -1.4589
  797MOL0     H 5178   4.761   8.642   8.447  2.5449 -0.2043  1.2336
  797MOL0     H 5179   4.784   8.539   8.588 -1.8436  1.7631  1.2525
  797MOL0     H 5180   4.595   8.411   8.538  1.2239 -0.5158  1.3946
  797MOL0     H 5181   4.545   8.523   8.400  1.4001  0.7464 -0.1789
  797MOL0     H 5182   4.560   8.572   8.690  3.2907 -0.8406 -1.5073
  797MOL0     H 5183   4.533   8.712   8.583  0.1725  0.2889  1.8405
  797MOL0     H 5184   4.311   8.651   8.652 -3.2183 -0.9044  0.1145
  797MOL0     H 5185   4.343   8.483   8.609  1.5586 -0.0075 -0.3692
  797MOL0     H 5186   5.379   8.244   8.194 -0.5798 -1.0105  0.5870
  797MOL0     H 5187   5.539   8.178   8.008  0.6708 -0.9676 -2.2849
  797MOL0     H 5188   5.711   8.200   7.660  1.0051 -0.5716  0.8312
  797MOL0     H 5189   5.885   8.164   7.510 -2.6292  3.0062 -0.2290
  797MOL0     H 5190   7.490   8.665   7.399 -1.1939  0.7846 -2.6545
  797MOL0     H 5191   7.711   8.575   7.474 -0.6771 -0.8109  1.6331
  797MOL0     H 5192   8.031   8.398   7.573  2.0759 -1.6714  2.7388
  797MOL0     H 5193   8.251   8.360   7.632  1.6049 -1.6051 -0.1619
  797MOL0     H 5194   8.565   8.108   7.405 -1.3966  3.2355  0.3615
  797MOL0     H 5195   8.421   8.036   7.464 -0.2024  0.0234  1.2372
  797MOL0     H 5196   8.668   8.125   7.628 -1.0751  0.9653  0.8316
  797MOL0     H 5197   8.510   8.118   7.697  0.1792  1.5543  0.1700
  797MOL0     H 5198   8.613   7.881   7.532 -0.3686 -1.4313 -0.4065
  797MOL0     H 5199   8.477   7.884   7.657  0.7162  0.9535  0.7973
  797MOL0     H 5200   8.633   7.930   7.825 -0.1835 -2.2806  0.9625
  797MOL0     H 5201   8.617   7.766   7.756 -2.7320  0.3909  5.2652
  797MOL0     H 5202   9.024   7.848   7.712  0.6796  1.5099 -0.5938
  797MOL0     H 5203   8.320   8.164   7.262  2.4484  3.4809 -2.6576
  797MOL0     H 5204   8.103   8.202   7.196 -2.2465 -2.2125  1.2152
  798MOL0     O 5205   8.725   1.210   5.813 -0.3354  0.5222  0.3686
  798MOL0     C 5206   8.721   1.162   5.927  0.3691  0.0655 -0.0116
  798MOL0     O 5207   8.832   1.156   6.008  0.3173  0.5356 -0.0266
  798MOL0     C 5208   8.957   1.199   5.971 -0.5360  0.3543 -0.2817
  798MOL0     C 5209   9.033   1.255   6.073 -0.1797 -0.5653  0.1146
  798MOL0     C 5210   9.159   1.308   6.038 -0.0496  0.1269 -0.3076
  798MOL0     C 5211   9.212   1.304   5.912 -0.8089  0.1075 -0.0419
  798MOL0     O 5212   9.334   1.366   5.882  0.0206 -0.2408 -0.0612
  798MOL0     C 5213   9.349   1.493   5.939  0.3090 -0.8549  0.4901
  798MOL0     C 5214   9.483   1.565   5.894  0.5665  0.2034  0.4758
  798MOL0     C 5215   9.619   1.493   5.919  0.6915 -0.0517  0.8123
  798MOL0     C 5216   9.647   1.463   6.059 -0.1336  0.1723  0.3264
  798MOL0     C 5217   9.684   1.598   6.140  0.2083 -0.4722  0.1019
  798MOL0     C 5218   9.691   1.561   6.287 -0.4434 -0.5456 -0.2324
  798MOL0     C 5219   9.737   1.674   6.382  0.3095 -0.2283  0.0677
  798MOL0     C 5220   9.827   1.633   6.506 -0.9242 -1.0496 -0.0534
  798MOL0     N 5221   9.767   1.544   6.593  0.8904 -0.4938 -0.0124
  798MOL0     C 5222   9.631   1.503   6.607  0.0718 -0.2729 -0.3854
  798MOL0     C 5223   9.628   1.414   6.714 -0.0125 -0.3347  0.4025
  798MOL0     C 5224   9.510   1.346   6.779  0.4845 -0.4974 -0.3080
  798MOL0     C 5225   9.402   1.455   6.837 -0.8616  0.4096  0.0526
  798MOL0     C 5226   9.271   1.381   6.859 -0.6261  0.1945  1.0400
  798MOL0     C 5227   9.164   1.463   6.915 -0.3544 -0.0832 -0.4868
  798MOL0     O 5228   9.119   1.579   6.845  0.3552 -0.4812  0.1274
  798MOL0     C 5229   9.061   1.546   6.725 -0.3671  0.2363  0.8293
  798MOL0     C 5230   9.114   1.601   6.609  1.0182 -1.0857 -0.4413
  798MOL0     C 5231   9.045   1.599   6.489 -0.2200 -1.1627  0.3436
  798MOL0     C 5232   8.923   1.531   6.476  0.6958  0.6194  0.2188
  798MOL0     C 5233   8.862   1.530   6.346 -0.3487 -0.2018  0.4825
  798MOL0     O 5234   8.762   1.438   6.327  0.1151 -0.5318 -0.1445
  798MOL0     C 5235   8.678   1.434   6.219  0.7949 -0.6978 -1.2419
  798MOL0     C 5236   8.544   1.404   6.245  0.9430 -0.1918  0.1919
  798MOL0     C 5237   8.448   1.410   6.142  0.4831  0.4486  0.3011
  798MOL0     C 5238   8.489   1.435   6.013  0.6467 -0.4200  0.1116
  798MOL0     O 5239   8.420   1.425   5.899  0.3727  0.0905  0.4986
  798MOL0     C 5240   8.288   1.376   5.905 -0.5402 -0.5131 -0.9066
  798MOL0     C 5241   8.241   1.399   5.758 -0.4589  0.1416 -0.3983
  798MOL0     C 5242   8.099   1.343   5.739 -0.6969  0.1682  0.2043
  798MOL0     C 5243   8.043   1.217   5.810 -0.1041  0.2800 -0.1725
  798MOL0     C 5244   7.896   1.194   5.786  0.2326  0.4729 -0.0284
  798MOL0     C 5245   7.846   1.073   5.864  1.1064 -0.0215  0.0023
  798MOL0     C 5246   7.865   0.940   5.797 -0.6058 -0.9478 -0.4923
  798MOL0     C 5247   7.803   0.834   5.876 -0.4769  0.0724  0.3886
  798MOL0    Cl 5248   7.803   0.684   5.784  0.2190  0.3512 -0.0410
  798MOL0     C 5249   8.620   1.461   5.984 -0.3381  0.0086  0.2652
  798MOL0     C 5250   8.718   1.458   6.089  0.4317 -0.2217 -0.0576
  798MOL0     O 5251   8.897   1.623   6.266  0.1166  1.3895  0.0937
  798MOL0     C 5252   8.874   1.463   6.593  0.2081  0.2935 -0.7357
  798MOL0     C 5253   8.945   1.474   6.715  0.7303 -0.0239  0.1906
  798MOL0     N 5254   9.758   1.393   6.741 -0.6607  0.2075 -0.5220
  798MOL0     N 5255   9.846   1.462   6.661 -0.4996  0.3172  0.9426
  798MOL0     C 5256   9.137   1.246   5.818 -0.1982 -0.8019  0.1117
  798MOL0     C 5257   9.012   1.185   5.842  0.4114  0.8215  0.7326
  798MOL0     C 5258   8.589   1.099   5.969  0.1855 -0.0987 -0.4898
  798MOL0     C 5259   8.566   1.074   6.104 -0.6982 -0.1324 -0.3191
  798MOL0     C 5260   8.446   1.015   6.152 -0.5121 -0.4778  0.0933
  798MOL0     C 5261   8.344   0.979   6.059  0.2020  0.2915 -0.4192
  798MOL0     O 5262   8.224   0.927   6.107  0.0509 -0.6168  0.7352
  798MOL0     C 5263   8.205   0.888   6.243  1.5933 -0.1205  0.9676
  798MOL0     C 5264   8.052   0.847   6.265 -0.7542  0.6488  0.1521
  798MOL0     C 5265   8.027   0.806   6.408 -0.7245 -0.4311 -0.3008
  798MOL0     C 5266   7.875   0.778   6.417 -0.4547  0.2335 -0.5459
  798MOL0     C 5267   7.816   0.789   6.548  0.1783  0.3393  0.0715
  798MOL0     C 5268   7.784   0.792   6.665 -0.0110  0.3898 -0.1175
  798MOL0     C 5269   8.368   0.992   5.921 -0.2484 -0.3282 -0.2940
  798MOL0     C 5270   8.487   1.062   5.877  0.3077  0.5400  0.0485
  798MOL0     H 5271   8.991   1.250   6.173 -0.6816 -2.7350 -0.1515
  798MOL0     H 5272   9.207   1.349   6.126 -2.0004 -0.4803  1.0879
  798MOL0     H 5273   9.338   1.485   6.047 -0.2941  3.0011  0.8592
  798MOL0     H 5274   9.271   1.555   5.895  1.5861 -0.9176 -2.0765
  798MOL0     H 5275   9.487   1.668   5.932  1.3512  1.1014 -1.8527
  798MOL0     H 5276   9.472   1.573   5.785 -1.6475 -1.5313  0.5053
  798MOL0     H 5277   9.699   1.565   5.898  0.6116  1.3012  4.4912
  798MOL0     H 5278   9.620   1.401   5.859  2.1538 -0.6137  1.6510
  798MOL0     H 5279   9.566   1.408   6.107 -0.6574  1.2872  0.7676
  798MOL0     H 5280   9.738   1.403   6.067 -0.8838 -1.0755 -0.2498
  798MOL0     H 5281   9.600   1.668   6.138 -0.5149 -1.2707  1.4651
  798MOL0     H 5282   9.774   1.649   6.103 -1.0056 -0.1671 -2.6864
  798MOL0     H 5283   9.761   1.478   6.302  1.3702  0.4448 -2.6024
  798MOL0     H 5284   9.596   1.522   6.325 -0.6070  0.3963  0.3472
  798MOL0     H 5285   9.797   1.749   6.330  0.2739  1.7579  2.6849
  798MOL0     H 5286   9.647   1.723   6.419 -0.5032  1.4296 -3.6329
  798MOL0     H 5287   9.860   1.722   6.560 -1.2009  1.1586 -3.2371
  798MOL0     H 5288   9.922   1.594   6.468 -1.1828 -0.5932 -1.2063
  798MOL0     H 5289   9.539   1.539   6.562 -1.3097  0.6320  2.8490
  798MOL0     H 5290   9.532   1.289   6.870  0.1681 -0.7063 -0.3599
  798MOL0     H 5291   9.459   1.270   6.719 -0.6668 -2.2969  2.7306
  798MOL0     H 5292   9.383   1.527   6.757  0.0523 -1.6783 -2.1520
  798MOL0     H 5293   9.443   1.507   6.924 -1.6770 -0.8066  1.1919
  798MOL0     H 5294   9.237   1.349   6.760 -2.4451  0.7725  1.4251
  798MOL0     H 5295   9.282   1.302   6.935 -0.6612 -1.1088 -0.2697
  798MOL0     H 5296   9.198   1.495   7.014 -0.5377  0.1924 -0.5148
  798MOL0     H 5297   9.084   1.390   6.929 -1.9194  0.8938 -3.4380
  798MOL0     H 5298   9.200   1.665   6.629 -0.9921  0.6105  3.9872
  798MOL0     H 5299   9.081   1.660   6.407 -1.3131  0.4597  1.0042
  798MOL0     H 5300   8.498   1.395   6.343 -3.1175 -1.8629 -1.6369
  798MOL0     H 5301   8.341   1.398   6.159  0.5345 -0.3658  0.0712
  798MOL0     H 5302   8.230   1.441   5.971  0.8766 -0.0143 -0.1092
  798MOL0     H 5303   8.300   1.274   5.944  3.5931 -0.0234 -0.4908
  798MOL0     H 5304   8.311   1.345   5.694  1.6333  0.0259  1.8092
  798MOL0     H 5305   8.239   1.500   5.718 -0.4461 -0.9065 -3.2388
  798MOL0     H 5306   8.075   1.326   5.634  1.4800 -0.3268 -0.2686
  798MOL0     H 5307   8.033   1.428   5.754 -2.3444 -0.4945 -2.5965
  798MOL0     H 5308   8.094   1.125   5.780 -1.0356  0.0913 -1.2184
  798MOL0     H 5309   8.059   1.218   5.918  0.1127  2.3300 -0.1851
  798MOL0     H 5310   7.886   1.173   5.679 -2.5565 -1.9776  0.5778
  798MOL0     H 5311   7.845   1.282   5.826  2.8240  2.5336 -0.9866
  798MOL0     H 5312   7.737   1.085   5.866  0.9837 -1.0300  0.0275
  798MOL0     H 5313   7.883   1.062   5.967 -0.1728 -1.3215  0.3667
  798MOL0     H 5314   7.819   0.954   5.698 -0.1453 -0.0462 -0.5867
  798MOL0     H 5315   7.970   0.910   5.785 -0.4180 -0.3165 -0.4502
  798MOL0     H 5316   7.701   0.867   5.901 -1.3500 -0.8033 -1.8026
  798MOL0     H 5317   7.860   0.811   5.967  2.6367  0.9201 -1.2432
  798MOL0     H 5318   8.655   1.458   5.881 -0.6890  6.2468 -0.4227
  798MOL0     H 5319   8.818   1.465   6.049  0.3885 -1.9793 -0.5771
  798MOL0     H 5320   8.789   1.397   6.598  0.6388 -0.2684 -0.7288
  798MOL0     H 5321   8.905   1.436   6.808 -0.2745 -1.1507 -0.6565
  798MOL0     H 5322   9.184   1.239   5.721  1.3297 -0.2453  0.7733
  798MOL0     H 5323   8.966   1.127   5.763  0.0792 -0.0954  1.5729
  798MOL0     H 5324   8.639   1.107   6.177  1.3557 -0.8083 -1.9694
  798MOL0     H 5325   8.432   0.992   6.257  2.0035  0.7193  0.7652
  798MOL0     H 5326   8.232   0.975   6.304  3.8424  0.4702 -0.7282
  798MOL0     H 5327   8.270   0.804   6.268 -1.3962 -2.7600  0.4787
  798MOL0     H 5328   7.986   0.927   6.230 -2.3475 -0.0917  1.3546
  798MOL0     H 5329   8.040   0.761   6.199 -2.0346 -0.3406  1.6221
  798MOL0     H 5330   8.049   0.879   6.487  0.7240 -3.2162  2.0848
  798MOL0     H 5331   8.092   0.721   6.431  1.6765  1.6656  1.1254
  798MOL0     H 5332   7.826   0.859   6.362 -0.4660  1.8233  1.7058
  798MOL0     H 5333   7.865   0.671   6.393 -0.9044 -0.2726  1.7172
  798MOL0     H 5334   7.760   0.802   6.769 -1.1881 -2.4467 -0.0354
  798MOL0     H 5335   8.306   0.954   5.840  0.9463  0.2220 -1.5114
  798MOL0     H 5336   8.514   1.071   5.772 -0.4787  2.3719 -0.0502
  799MOL0     O 5337   5.741   1.385   2.777  0.5989  0.2823  0.4533
  799MOL0     C 5338   5.684   1.379   2.891 -0.3554  0.1806 -0.2850
  799MOL0     O 5339   5.558   1.426   2.920 -0.2332 -0.8011 -0.1191
  799MOL0     C 5340   5.480   1.477   2.820  0.3311 -0.9525 -0.6177
  799MOL0     C 5341   5.440   1.608   2.834  0.7505 -0.2502  0.5370
  799MOL0     C 5342   5.383   1.679   2.721 -0.0620  0.1185 -0.3374
  799MOL0     C 5343   5.338   1.612   2.606 -0.2449  0.5009  0.1692
  799MOL0     O 5344   5.243   1.669   2.526  0.1713 -1.1786  0.2207
  799MOL0     C 5345   5.276   1.802   2.473 -0.8132  0.3446 -1.1822
  799MOL0     C 5346   5.162   1.852   2.378  0.5338  0.1406  0.6292
  799MOL0     C 5347   5.017   1.849   2.440 -0.0109  0.7123  0.2917
  799MOL0     C 5348   4.927   1.939   2.348 -0.0744 -0.6603 -0.5724
  799MOL0     C 5349   4.787   1.951   2.398  0.1211  0.5884  0.2629
  799MOL0     C 5350   4.707   1.826   2.378  0.4956  0.4995  0.6103
  799MOL0     C 5351   4.585   1.823   2.475  0.2701 -0.9696 -0.2209
  799MOL0     C 5352   4.614   1.774   2.617  0.3798  0.3758  0.1017
  799MOL0     N 5353   4.490   1.780   2.697 -0.2095  0.0183 -0.3332
  799MOL0     C 5354   4.455   1.895   2.768 -0.1554  0.1910 -0.2186
  799MOL0     C 5355   4.332   1.876   2.812 -0.3525 -0.6239  0.1921
  799MOL0     C 5356   4.277   1.956   2.919 -0.5915  0.4227 -0.2213
  799MOL0     C 5357   4.145   2.011   2.882  0.2694  0.0616  0.3269
  799MOL0     C 5358   4.131   2.069   2.743 -0.5522  0.3758  0.1267
  799MOL0     C 5359   3.990   2.100   2.699 -0.7490  0.7668 -0.0554
  799MOL0     O 5360   3.928   2.186   2.790 -0.0948  0.5677 -0.2254
  799MOL0     C 5361   3.809   2.237   2.750  0.7468 -0.3288 -0.0491
  799MOL0     C 5362   3.740   2.315   2.847 -0.4926  1.1485  0.2304
  799MOL0     C 5363   3.613   2.363   2.815  0.4822  0.0419 -0.0340
  799MOL0     C 5364   3.552   2.344   2.695 -0.3574  0.6776  0.0423
  799MOL0     C 5365   3.423   2.396   2.668 -0.5464  0.5013  0.0583
  799MOL0     O 5366   3.317   2.377   2.749 -0.4506  0.8595 -0.1422
  799MOL0     C 5367   3.189   2.393   2.699  0.4905 -0.2366 -0.2380
  799MOL0     C 5368   3.113   2.277   2.675  0.8482  0.7195 -0.5391
  799MOL0     C 5369   2.979   2.293   2.620  0.4194 -0.6959  0.2198
  799MOL0     C 5370   2.925   2.424   2.609  1.0941  0.1341  0.0919
  799MOL0     O 5371   2.791   2.450   2.587 -0.6054 -1.2653  0.3369
  799MOL0     C 5372   2.697   2.398   2.682  0.7343 -0.0530 -0.2349
  799MOL0     C 5373   2.564   2.476   2.698  0.9081  0.2525 -0.4072
  799MOL0     C 5374   2.439   2.387   2.730 -0.1392 -0.1415 -0.6045
  799MOL0     C 5375   2.307   2.466   2.732 -0.6293 -0.7559  0.9669
  799MOL0     C 5376   2.188   2.380   2.745 -0.1428 -0.3125  0.3064
  799MOL0     C 5377   2.065   2.472   2.723 -0.2250  0.1015 -0.1144
  799MOL0     C 5378   1.942   2.400   2.657 -0.4066  0.3880 -0.5767
  799MOL0     C 5379   1.970   2.351   2.518  0.1950  0.4333 -0.1032
  799MOL0    Cl 5380   1.982   2.475   2.397 -0.1731  0.1251  0.3131
  799MOL0     C 5381   3.008   2.532   2.622 -0.0948 -0.7880  0.3731
  799MOL0     C 5382   3.132   2.521   2.683  0.1263 -0.3405 -1.2771
  799MOL0     O 5383   3.421   2.452   2.561  0.3608 -0.2590  0.8095
  799MOL0     C 5384   3.616   2.271   2.596 -0.8425  0.6027 -0.2757
  799MOL0     C 5385   3.744   2.207   2.630  0.4976  0.0021  0.2264
  799MOL0     N 5386   4.283   1.757   2.757  0.6592  0.1808  0.3710
  799MOL0     N 5387   4.369   1.703   2.684 -0.2585 -0.5474  0.2103
  799MOL0     C 5388   5.363   1.478   2.597  0.4332  0.4804  0.0948
  799MOL0     C 5389   5.439   1.408   2.703 -0.1311  0.3426  0.4912
  799MOL0     C 5390   5.755   1.307   3.000 -0.0736 -0.6349 -0.0732
  799MOL0     C 5391   5.893   1.276   2.999 -0.5029  0.5520 -0.7934
  799MOL0     C 5392   5.951   1.214   3.110 -0.0498 -0.2530  0.5433
  799MOL0     C 5393   5.876   1.187   3.222 -0.3263 -0.1388 -0.3697
  799MOL0     O 5394   5.905   1.098   3.329 -0.0149  0.6693  0.2670
  799MOL0     C 5395   6.041   1.049   3.345 -0.0604  0.2652 -0.4729
  799MOL0     C 5396   6.099   1.100   3.473 -0.1445 -0.9259 -0.2172
  799MOL0     C 5397   6.245   1.061   3.481 -0.2398 -0.1617  0.2572
  799MOL0     C 5398   6.316   1.130   3.584  0.2851 -0.3969 -1.0494
  799MOL0     C 5399   6.457   1.108   3.587 -0.0867  0.1953  0.4994
  799MOL0     C 5400   6.574   1.088   3.606 -0.2504  0.1720  1.1256
  799MOL0     C 5401   5.743   1.230   3.225  0.3442 -0.8916  0.0299
  799MOL0     C 5402   5.684   1.285   3.116 -0.2866  0.5292 -0.1415
  799MOL0     H 5403   5.439   1.663   2.927 -2.5778  0.4888  0.1966
  799MOL0     H 5404   5.357   1.784   2.734  1.8825  0.7661 -1.2255
  799MOL0     H 5405   5.373   1.800   2.423 -0.1087 -1.0651  0.1829
  799MOL0     H 5406   5.279   1.874   2.555 -0.8070  1.4584 -2.1257
  799MOL0     H 5407   5.171   1.802   2.282  1.6290  0.2201  0.6832
  799MOL0     H 5408   5.185   1.956   2.353 -3.4515  0.8254 -0.9336
  799MOL0     H 5409   5.002   1.876   2.544  0.6148 -1.3567  0.9737
  799MOL0     H 5410   4.987   1.744   2.437  2.1756  0.0212  0.5933
  799MOL0     H 5411   4.967   2.041   2.349  1.1402 -0.9396 -4.2429
  799MOL0     H 5412   4.930   1.902   2.245  2.3164  0.8541 -1.1605
  799MOL0     H 5413   4.730   2.030   2.348  2.3872  2.6471  0.7492
  799MOL0     H 5414   4.799   1.984   2.502  1.2220  0.2428  0.2633
  799MOL0     H 5415   4.753   1.728   2.395  0.5237  0.3783 -0.1324
  799MOL0     H 5416   4.676   1.831   2.273  2.1727 -1.7923 -0.0745
  799MOL0     H 5417   4.537   1.921   2.482  1.5136 -0.4455  1.9279
  799MOL0     H 5418   4.511   1.755   2.433  0.1811 -1.6465  0.9785
  799MOL0     H 5419   4.691   1.837   2.662 -0.5541  2.0415 -0.5301
  799MOL0     H 5420   4.657   1.674   2.602  0.1056  0.2839 -0.0740
  799MOL0     H 5421   4.525   1.973   2.797 -0.1273 -0.1485  0.6601
  799MOL0     H 5422   4.343   2.041   2.937 -0.3168  0.4388 -1.2451
  799MOL0     H 5423   4.287   1.902   3.013  2.0287  1.8858  0.4470
  799MOL0     H 5424   4.117   2.071   2.969  1.6396 -0.7873  1.3943
  799MOL0     H 5425   4.069   1.932   2.883 -1.8142  1.9320  2.2762
  799MOL0     H 5426   4.184   2.163   2.731 -0.6487  0.3665 -0.4236
  799MOL0     H 5427   4.175   2.007   2.664 -1.2238 -0.8073  0.6541
  799MOL0     H 5428   3.932   2.009   2.678  0.6600 -1.0108  3.0281
  799MOL0     H 5429   3.998   2.148   2.601  1.3315 -2.8857 -1.8893
  799MOL0     H 5430   3.780   2.329   2.947  1.8332 -1.1289 -0.2785
  799MOL0     H 5431   3.565   2.413   2.899  2.0542  1.1260  0.2640
  799MOL0     H 5432   3.170   2.185   2.677 -0.5471 -0.1689  0.0740
  799MOL0     H 5433   2.916   2.215   2.579 -1.7718  0.8831  0.3990
  799MOL0     H 5434   2.747   2.391   2.779 -0.5803 -0.9670  0.4118
  799MOL0     H 5435   2.674   2.296   2.649  0.5810 -0.7312  1.7948
  799MOL0     H 5436   2.535   2.519   2.602 -2.2696 -0.8710 -0.0702
  799MOL0     H 5437   2.579   2.562   2.765 -1.6928  0.9772 -0.6401
  799MOL0     H 5438   2.456   2.344   2.829 -0.1915  1.7291  0.2678
  799MOL0     H 5439   2.440   2.297   2.669 -0.4527 -1.7951  1.7058
  799MOL0     H 5440   2.317   2.538   2.814 -0.3395 -0.0734  0.3441
  799MOL0     H 5441   2.295   2.522   2.639 -3.1968 -2.0857  0.3895
  799MOL0     H 5442   2.174   2.322   2.837 -3.7203  0.5853  0.4446
  799MOL0     H 5443   2.190   2.306   2.664  2.3942 -0.9173  0.8256
  799MOL0     H 5444   2.088   2.570   2.680 -1.4816  0.8603  0.8658
  799MOL0     H 5445   2.031   2.508   2.821 -1.3145  2.2234 -1.1923
  799MOL0     H 5446   1.911   2.315   2.719 -2.6692  1.9381  0.5828
  799MOL0     H 5447   1.853   2.463   2.654  0.0945  1.2083  0.5282
  799MOL0     H 5448   1.879   2.294   2.497  0.2341  1.0288 -2.0118
  799MOL0     H 5449   2.052   2.280   2.507  0.5081  0.6513  0.7244
  799MOL0     H 5450   2.965   2.632   2.613 -2.1306 -1.1852  3.9094
  799MOL0     H 5451   3.177   2.607   2.731 -1.5364 -1.1642  2.1657
  799MOL0     H 5452   3.581   2.257   2.494 -1.0115 -0.3192 -0.0996
  799MOL0     H 5453   3.789   2.148   2.551  2.5671 -1.5058  2.3714
  799MOL0     H 5454   5.322   1.430   2.510 -1.5213  1.4282  0.4377
  799MOL0     H 5455   5.464   1.303   2.695 -0.7744  0.0274  2.2173
  799MOL0     H 5456   5.946   1.309   2.910 -2.8629  0.6462 -2.2594
  799MOL0     H 5457   6.055   1.190   3.091  0.3731  0.9712  1.1528
  799MOL0     H 5458   6.109   1.076   3.263  0.6782 -2.6501 -0.9553
  799MOL0     H 5459   6.054   0.941   3.361  4.5684  1.0781  3.8364
  799MOL0     H 5460   6.089   1.208   3.461  0.7773 -0.8737 -0.5525
  799MOL0     H 5461   6.041   1.061   3.558 -2.5295 -1.7668 -2.1033
  799MOL0     H 5462   6.300   1.092   3.392  1.8344 -0.6595  1.2991
  799MOL0     H 5463   6.266   0.954   3.491  2.4709  0.4380  2.1612
  799MOL0     H 5464   6.288   1.233   3.562 -0.6160 -0.7159 -1.4433
  799MOL0     H 5465   6.280   1.097   3.682  2.3013 -0.6425 -0.3448
  799MOL0     H 5466   6.675   1.062   3.631  0.4158  0.2320 -1.2884
  799MOL0     H 5467   5.671   1.222   3.306 -1.9191 -2.4033 -1.9855
  799MOL0     H 5468   5.585   1.328   3.120 -0.8150 -0.6265 -0.3512
  800MOL0     O 5469   5.677   7.269   0.973  0.2057 -1.2353 -0.7038
  800MOL0     C 5470   5.633   7.163   0.943  0.0246  0.0242  0.1312
  800MOL0     O 5471   5.708   7.046   0.916 -0.0066  0.2805 -0.2739
  800MOL0     C 5472   5.842   7.049   0.920  0.8104 -0.0123 -1.2932
  800MOL0     C 5473   5.920   7.096   1.034 -0.3961 -0.6342 -0.2152
  800MOL0     C 5474   6.056   7.083   1.035 -0.7620 -0.3157  0.5425
  800MOL0     C 5475   6.125   7.031   0.926 -1.0258  0.3832 -0.0557
  800MOL0     O 5476   6.265   7.026   0.946  0.2120  0.3024 -0.4091
  800MOL0     C 5477   6.354   6.975   0.836 -0.1403  0.9292 -0.4866
  800MOL0     C 5478   6.441   7.094   0.801  0.3722 -0.3455 -0.3572
  800MOL0     C 5479   6.588   7.099   0.868 -0.0486 -0.1377 -0.9792
  800MOL0     C 5480   6.701   7.103   0.768  0.3296 -0.5160  0.5215
  800MOL0     C 5481   6.838   7.130   0.833  0.1899 -0.4984  0.0166
  800MOL0     C 5482   6.922   7.242   0.765 -0.2244 -0.3644 -0.7198
  800MOL0     C 5483   7.037   7.299   0.845  0.3275  0.0960 -0.4826
  800MOL0     C 5484   7.005   7.366   0.977  0.4692  0.1095 -0.7372
  800MOL0     N 5485   6.912   7.482   0.975  0.4052  0.6872 -0.2629
  800MOL0     C 5486   6.939   7.615   0.950  0.9148  1.1394  0.4306
  800MOL0     C 5487   6.821   7.676   0.968 -0.1385  0.1016  0.5515
  800MOL0     C 5488   6.823   7.828   0.976  0.1771  0.1821 -0.4463
  800MOL0     C 5489   6.706   7.890   0.892  0.3728 -0.8618 -0.1178
  800MOL0     C 5490   6.734   8.034   0.845  0.6402  0.2222  0.0856
  800MOL0     C 5491   6.629   8.138   0.883 -0.9540 -0.0719  0.5745
  800MOL0     O 5492   6.519   8.100   0.805  0.2314  0.3919  0.7729
  800MOL0     C 5493   6.421   8.194   0.778 -1.0290 -0.5953 -0.2760
  800MOL0     C 5494   6.418   8.319   0.835  0.7364 -0.4988 -0.3421
  800MOL0     C 5495   6.307   8.404   0.816  0.7532  0.0685  0.3769
  800MOL0     C 5496   6.197   8.355   0.739  0.3910 -0.8589 -0.6899
  800MOL0     C 5497   6.078   8.449   0.720 -0.0601  0.5439 -0.3458
  800MOL0     O 5498   6.079   8.569   0.787 -0.0192 -0.2733  0.0182
  800MOL0     C 5499   5.964   8.635   0.797  0.0849  0.9958  0.1242
  800MOL0     C 5500   5.887   8.690   0.692  0.0062  0.7490  0.5728
  800MOL0     C 5501   5.768   8.751   0.713  0.9214 -0.8971  0.4796
  800MOL0     C 5502   5.707   8.750   0.845 -0.5303  0.7855 -0.0882
  800MOL0     O 5503   5.575   8.802   0.855 -0.5058 -0.8958 -1.1820
  800MOL0     C 5504   5.563   8.905   0.960  0.2701  0.4541  0.4212
  800MOL0     C 5505   5.426   8.901   1.041 -0.5455  0.4387 -0.4918
  800MOL0     C 5506   5.309   8.875   0.940 -0.0782  0.1599  0.0677
  800MOL0     C 5507   5.168   8.888   0.992 -0.1468  0.0309  0.1467
  800MOL0     C 5508   5.059   8.875   0.884  0.5386 -0.1859 -0.0613
  800MOL0     C 5509   5.075   8.748   0.802  0.1199 -0.2621  0.0243
  800MOL0     C 5510   4.942   8.726   0.725  0.3675  1.0833  0.1299
  800MOL0     C 5511   4.933   8.586   0.657  0.2025  0.0127 -0.2000
  800MOL0    Cl 5512   5.057   8.565   0.540  0.2450  0.1851  0.1733
  800MOL0     C 5513   5.787   8.701   0.951  0.2842  0.8245  0.8684
  800MOL0     C 5514   5.908   8.641   0.929  0.3465 -0.6250  0.3004
  800MOL0     O 5515   5.985   8.403   0.657  0.1860 -0.8464 -0.2555
  800MOL0     C 5516   6.208   8.228   0.680  0.1259  0.8934 -0.1543
  800MOL0     C 5517   6.314   8.151   0.712  0.4117 -0.3363  0.2764
  800MOL0     N 5518   6.717   7.585   0.997 -0.7295  0.5888  0.4471
  800MOL0     N 5519   6.774   7.464   1.012  0.0273  0.5724  1.0787
  800MOL0     C 5520   6.053   7.000   0.805 -0.5852 -0.3431 -0.5127
  800MOL0     C 5521   5.915   7.008   0.811 -0.7859  0.7426  0.5107
  800MOL0     C 5522   5.488   7.148   0.946  0.1916 -0.5144 -0.3230
  800MOL0     C 5523   5.414   7.260   0.993  0.6353 -0.3618 -0.4921
  800MOL0     C 5524   5.271   7.246   1.005  0.4507  0.2283 -0.4687
  800MOL0     C 5525   5.217   7.119   0.979 -0.1624  0.0262  0.3943
  800MOL0     O 5526   5.083   7.103   1.002 -0.0708  0.8578 -0.3536
  800MOL0     C 5527   5.027   7.122   1.128  0.4629  0.1087 -0.7481
  800MOL0     C 5528   4.888   7.050   1.134 -0.5421  0.5784 -0.0523
  800MOL0     C 5529   4.777   7.141   1.084 -0.3109 -0.7312 -0.3745
  800MOL0     C 5530   4.733   7.257   1.182 -0.3462 -0.0748 -0.8206
  800MOL0     C 5531   4.628   7.344   1.144  0.3558  0.4622  0.6936
  800MOL0     C 5532   4.547   7.422   1.116  0.4153  0.1330 -1.2965
  800MOL0     C 5533   5.292   7.005   0.937 -0.3033  0.2667  0.2775
  800MOL0     C 5534   5.427   7.023   0.914 -0.3803  0.6703  0.1343
  800MOL0     H 5535   5.868   7.134   1.121  1.0585  1.9673 -0.3992
  800MOL0     H 5536   6.115   7.109   1.122 -1.2530 -1.1601  1.1438
  800MOL0     H 5537   6.306   6.958   0.739 -0.5031  2.7229 -0.6404
  800MOL0     H 5538   6.413   6.884   0.855  1.8917  2.2336 -0.2141
  800MOL0     H 5539   6.401   7.193   0.824 -0.3009 -0.9870  1.3397
  800MOL0     H 5540   6.451   7.097   0.692  0.1534  1.1086 -0.3577
  800MOL0     H 5541   6.593   7.015   0.938 -1.7509  1.0073  0.6041
  800MOL0     H 5542   6.602   7.188   0.930  2.4310 -1.7084  0.9286
  800MOL0     H 5543   6.701   7.005   0.719  0.2130 -0.4935  0.4752
  800MOL0     H 5544   6.673   7.181   0.696 -1.5212  0.3958  2.1397
  800MOL0     H 5545   6.898   7.039   0.832 -2.2067 -2.1808  0.7511
  800MOL0     H 5546   6.823   7.160   0.937  1.3343  0.2449 -0.0160
  800MOL0     H 5547   6.856   7.325   0.737  1.1312  0.7971 -0.5842
  800MOL0     H 5548   6.968   7.200   0.675  2.0396  0.4308 -0.0002
  800MOL0     H 5549   7.098   7.214   0.877  0.7972  0.9431  0.9161
  800MOL0     H 5550   7.099   7.361   0.780 -0.2220  2.4599  1.1469
  800MOL0     H 5551   7.101   7.392   1.024  0.4665  2.3533 -1.8493
  800MOL0     H 5552   6.958   7.289   1.038 -0.1145  0.7461 -0.3688
  800MOL0     H 5553   7.036   7.658   0.927  0.8258  1.7695  1.1890
  800MOL0     H 5554   6.917   7.862   0.932  1.0557 -0.5582  0.8011
  800MOL0     H 5555   6.818   7.864   1.079  2.4073  0.2451 -0.3050
  800MOL0     H 5556   6.615   7.882   0.952 -0.3317 -1.3647 -1.2068
  800MOL0     H 5557   6.688   7.817   0.812 -0.5021 -1.2504  0.4083
  800MOL0     H 5558   6.830   8.068   0.885  1.2275 -0.1133 -0.9909
  800MOL0     H 5559   6.749   8.042   0.737  1.0050  1.1704  0.1905
  800MOL0     H 5560   6.667   8.238   0.858 -0.5725 -0.5621 -0.9534
  800MOL0     H 5561   6.613   8.124   0.990  0.0466 -2.1129  0.5070
  800MOL0     H 5562   6.500   8.352   0.898 -0.8582 -0.7625  1.9973
  800MOL0     H 5563   6.310   8.509   0.843 -1.5394  0.3274 -0.1711
  800MOL0     H 5564   5.918   8.674   0.590  1.9840  3.6264  0.6129
  800MOL0     H 5565   5.703   8.780   0.630  0.4183 -2.6469  0.2256
  800MOL0     H 5566   5.572   9.009   0.926 -0.5539  0.4596  0.1900
  800MOL0     H 5567   5.637   8.895   1.039 -1.0653 -0.6909  1.5639
  800MOL0     H 5568   5.412   8.997   1.092  0.3735  0.0449  0.5366
  800MOL0     H 5569   5.430   8.825   1.119 -3.5856  0.1731 -0.4918
  800MOL0     H 5570   5.331   8.784   0.885 -0.4074 -0.6297  1.2146
  800MOL0     H 5571   5.326   8.955   0.867 -0.7768 -0.9499 -1.3661
  800MOL0     H 5572   5.146   8.824   1.078 -2.2294  1.0644  0.4620
  800MOL0     H 5573   5.153   8.983   1.045 -1.2767 -1.2991  2.3471
  800MOL0     H 5574   5.070   8.963   0.820 -1.2090  1.3767  1.6509
  800MOL0     H 5575   4.955   8.876   0.919  0.2630  1.0755 -0.8430
  800MOL0     H 5576   5.088   8.657   0.862 -3.5305 -2.5447 -2.2563
  800MOL0     H 5577   5.159   8.757   0.732  0.3313 -3.3267 -0.2682
  800MOL0     H 5578   4.860   8.721   0.796  0.0778 -0.7946 -0.2766
  800MOL0     H 5579   4.926   8.807   0.653  0.3356  1.5859  0.6948
  800MOL0     H 5580   4.835   8.568   0.611  1.2957  0.4952 -2.8881
  800MOL0     H 5581   4.942   8.521   0.744 -1.1906 -0.5404 -0.4345
  800MOL0     H 5582   5.752   8.687   1.052  0.8539 -1.0585  0.8469
  800MOL0     H 5583   5.966   8.599   1.010  2.9378  0.3950 -0.9413
  800MOL0     H 5584   6.131   8.193   0.612  0.8139 -1.2742  0.1162
  800MOL0     H 5585   6.322   8.048   0.678  3.2636 -0.4894  1.1996
  800MOL0     H 5586   6.103   6.983   0.711  2.2969 -0.8834  1.0113
  800MOL0     H 5587   5.869   6.979   0.717 -1.2843  1.3939  0.5479
  800MOL0     H 5588   5.460   7.354   1.020  0.7268 -1.2810  3.0638
  800MOL0     H 5589   5.213   7.333   1.033  0.4785  1.0039 -2.6451
  800MOL0     H 5590   4.999   7.224   1.155 -3.7133 -1.0454  0.1086
  800MOL0     H 5591   5.086   7.074   1.206 -1.1957  0.5041  0.8355
  800MOL0     H 5592   4.890   6.955   1.080 -1.1106  0.1566  0.6687
  800MOL0     H 5593   4.873   7.022   1.238  0.8965  1.5223  0.4406
  800MOL0     H 5594   4.690   7.077   1.067 -3.3652  2.7966  0.5524
  800MOL0     H 5595   4.810   7.180   0.988  1.3174  0.8927  0.7739
  800MOL0     H 5596   4.697   7.221   1.278  0.1075  1.9304  0.1574
  800MOL0     H 5597   4.822   7.311   1.216  0.3091 -1.5458 -0.0932
  800MOL0     H 5598   4.470   7.495   1.098  0.8212  0.5858 -1.2176
  800MOL0     H 5599   5.250   6.906   0.923  0.8592 -0.0153 -1.5334
  800MOL0     H 5600   5.495   6.939   0.901 -0.5604  0.3089  1.3843
  801MOL0     O 5601   3.392  11.224   5.556  0.6886  0.2170 -0.9287
  801MOL0     C 5602   3.412  11.193   5.440 -0.3354  0.0799  0.4735
  801MOL0     O 5603   3.321  11.152   5.350  0.2006 -0.5452  0.4117
  801MOL0     C 5604   3.191  11.130   5.390  0.6133  0.5644 -0.1519
  801MOL0     C 5605   3.141  11.107   5.520 -0.6797  0.7210 -1.2015
  801MOL0     C 5606   3.006  11.070   5.540  0.0636  0.5758  0.6469
  801MOL0     C 5607   2.918  11.042   5.433 -0.8396  0.0866 -0.7773
  801MOL0     O 5608   2.791  11.001   5.449  0.7068  0.0149  0.7649
  801MOL0     C 5609   2.766  10.859   5.421  0.1007 -0.5294  0.0883
  801MOL0     C 5610   2.642  10.817   5.492  1.0585  0.1769  0.0085
  801MOL0     C 5611   2.548  10.767   5.383 -0.2746  0.5664 -0.4182
  801MOL0     C 5612   2.410  10.729   5.455 -0.0699 -0.5976  0.5851
  801MOL0     C 5613   2.319  10.856   5.470 -0.5347  0.3969  1.1614
  801MOL0     C 5614   2.190  10.828   5.550 -0.0678 -1.2721 -0.7389
  801MOL0     C 5615   2.200  10.837   5.702 -0.3613 -0.3249  0.7495
  801MOL0     C 5616   2.067  10.851   5.773  0.0703  0.0581  0.2486
  801MOL0     N 5617   1.938  10.790   5.721 -0.6281  0.4830 -0.3743
  801MOL0     C 5618   1.919  10.662   5.688 -0.0228  0.1511 -0.5481
  801MOL0     C 5619   1.792  10.654   5.648 -0.3804  0.4501  0.0679
  801MOL0     C 5620   1.706  10.544   5.601  0.3998  0.3290  0.9994
  801MOL0     C 5621   1.654  10.549   5.452 -0.3219  0.5074  0.5501
  801MOL0     C 5622   1.616  10.414   5.396  0.4979  0.2040 -0.5371
  801MOL0     C 5623   1.472  10.372   5.413  0.6418  0.8976 -0.1636
  801MOL0     O 5624   1.393  10.453   5.325 -0.4827  0.3298  0.4896
  801MOL0     C 5625   1.263  10.418   5.298  0.0387 -0.1412  0.1299
  801MOL0     C 5626   1.207  10.292   5.320  0.4660  0.4997 -0.3578
  801MOL0     C 5627   1.068  10.269   5.303  0.2637  0.7387  0.6831
  801MOL0     C 5628   0.987  10.368   5.250  0.7415  0.5006  0.3915
  801MOL0     C 5629   0.848  10.339   5.217 -0.2983 -0.2277 -0.7591
  801MOL0     O 5630   0.772  10.444   5.192  0.5986 -0.2977 -0.1737
  801MOL0     C 5631   0.638  10.436   5.187 -0.1458 -1.1237 -1.0831
  801MOL0     C 5632   0.555  10.481   5.297 -0.9915 -0.2518 -0.1071
  801MOL0     C 5633   0.425  10.460   5.297  0.9806  0.0311 -0.4305
  801MOL0     C 5634   0.359  10.401   5.193 -0.3177 -0.9238  0.1022
  801MOL0     O 5635   0.222  10.388   5.206 -0.0966 -0.3975  0.1293
  801MOL0     C 5636   0.158  10.376   5.074  0.3534  0.3541  0.5834
  801MOL0     C 5637   0.020  10.418   5.075  0.0721  0.2510  0.2424
  801MOL0     C 5638  -0.076  10.304   5.112  0.4053 -0.3451  0.3200
  801MOL0     C 5639  -0.229  10.341   5.146 -0.1015  0.7510  0.0543
  801MOL0     C 5640  -0.323  10.215   5.119  0.2586  0.5502  0.4950
  801MOL0     C 5641  -0.467  10.260   5.100  0.3188 -0.6015  0.6939
  801MOL0     C 5642  -0.551  10.146   5.054 -0.2451 -0.3791  0.2601
  801MOL0     C 5643  -0.607  10.063   5.165  0.4778 -0.4503 -0.5016
  801MOL0    Cl 5644  -0.791  10.069   5.180 -0.3307  0.6103 -0.1721
  801MOL0     C 5645   0.438  10.373   5.077  0.4995 -0.3608 -0.1862
  801MOL0     C 5646   0.576  10.389   5.078 -0.5306  0.5373 -0.1718
  801MOL0     O 5647   0.816  10.222   5.213  1.4701 -0.4199  0.1532
  801MOL0     C 5648   1.043  10.493   5.209 -0.4497  0.8143  0.4807
  801MOL0     C 5649   1.178  10.517   5.235 -0.4442 -0.4404 -0.7038
  801MOL0     N 5650   1.740  10.776   5.639 -0.2733 -0.7998 -0.1433
  801MOL0     N 5651   1.822  10.854   5.706  0.4189 -0.3214 -0.4845
  801MOL0     C 5652   2.975  11.068   5.306 -0.1806  0.2679  0.0694
  801MOL0     C 5653   3.105  11.113   5.279 -0.0850  0.0886  0.2375
  801MOL0     C 5654   3.555  11.202   5.380 -0.3572  0.4446  0.0434
  801MOL0     C 5655   3.653  11.288   5.437 -0.2209 -0.8709 -0.0431
  801MOL0     C 5656   3.782  11.308   5.377  0.4135  0.3601 -0.1438
  801MOL0     C 5657   3.814  11.237   5.266  0.3380  0.1232  0.6704
  801MOL0     O 5658   3.924  11.245   5.190 -0.7853 -0.0562 -0.4084
  801MOL0     C 5659   4.054  11.249   5.257 -0.2220  0.0179  0.0933
  801MOL0     C 5660   4.088  11.131   5.356  1.2541 -0.9656 -0.2016
  801MOL0     C 5661   4.216  11.160   5.434 -1.0163 -0.9196 -0.2394
  801MOL0     C 5662   4.189  11.259   5.551 -1.0850  0.4208 -0.4860
  801MOL0     C 5663   4.251  11.387   5.514 -0.7210 -0.5311 -0.2210
  801MOL0     C 5664   4.292  11.494   5.481  0.2491 -0.2896 -0.0691
  801MOL0     C 5665   3.716  11.144   5.216  0.5719  0.5407  0.2826
  801MOL0     C 5666   3.592  11.127   5.266 -0.1292  0.5326  0.1314
  801MOL0     H 5667   3.208  11.102   5.604 -2.1898 -0.3615 -0.0222
  801MOL0     H 5668   2.965  11.055   5.640 -2.1935  1.8757 -0.0079
  801MOL0     H 5669   2.851  10.794   5.443  0.6572 -1.2884 -3.7194
  801MOL0     H 5670   2.761  10.858   5.312  1.7238  0.9639 -0.0516
  801MOL0     H 5671   2.592  10.900   5.542 -1.0782 -0.8397 -0.3330
  801MOL0     H 5672   2.661  10.743   5.570 -0.9555  1.2987  1.6584
  801MOL0     H 5673   2.586  10.671   5.347  1.3546  0.2114  1.9801
  801MOL0     H 5674   2.540  10.851   5.314  0.5943  2.1330  1.3112
  801MOL0     H 5675   2.362  10.651   5.395 -0.3295  0.3490 -0.4733
  801MOL0     H 5676   2.428  10.686   5.554 -0.4046 -1.6672  0.1924
  801MOL0     H 5677   2.284  10.883   5.370  0.3524 -1.6238  0.2476
  801MOL0     H 5678   2.373  10.938   5.518  1.1863 -0.3661  0.5938
  801MOL0     H 5679   2.145  10.734   5.514 -1.2599 -0.8898 -0.3134
  801MOL0     H 5680   2.132  10.918   5.526 -1.1147 -1.8428 -0.4501
  801MOL0     H 5681   2.242  10.739   5.729 -1.8216 -0.9191  0.9331
  801MOL0     H 5682   2.259  10.922   5.737 -0.2930 -0.1880  0.3068
  801MOL0     H 5683   2.043  10.956   5.791  0.1233  0.3318 -1.1796
  801MOL0     H 5684   2.065  10.818   5.878 -2.1820  1.1934  0.6201
  801MOL0     H 5685   1.996  10.586   5.692 -0.2224  0.0000  1.6000
  801MOL0     H 5686   1.614  10.548   5.660  1.4401 -0.2158  2.7484
  801MOL0     H 5687   1.760  10.451   5.622 -1.8931 -1.3042  0.1084
  801MOL0     H 5688   1.742  10.594   5.406  0.1846  0.2074  1.2043
  801MOL0     H 5689   1.564  10.610   5.441 -1.7703 -1.3065  1.7809
  801MOL0     H 5690   1.622  10.416   5.287 -1.3065  1.6700 -0.6448
  801MOL0     H 5691   1.681  10.337   5.441 -2.3423 -0.2033  3.3950
  801MOL0     H 5692   1.431  10.377   5.514  2.0688 -3.8282  0.8860
  801MOL0     H 5693   1.460  10.266   5.391  1.2011  0.2886  2.2097
  801MOL0     H 5694   1.262  10.207   5.359 -1.8275 -1.1693 -0.5670
  801MOL0     H 5695   1.030  10.169   5.320 -0.4933  0.9184  0.1349
  801MOL0     H 5696   0.606  10.521   5.384  0.1307 -1.8351 -0.0047
  801MOL0     H 5697   0.385  10.499   5.390 -0.7252 -2.7895  0.1694
  801MOL0     H 5698   0.172  10.273   5.041  1.5353  1.0048 -1.0424
  801MOL0     H 5699   0.208  10.447   5.008 -0.6315  1.4743  0.9870
  801MOL0     H 5700  -0.010  10.434   4.971  3.2265  2.0791 -0.5161
  801MOL0     H 5701  -0.002  10.510   5.131 -3.0974 -1.5574  2.2972
  801MOL0     H 5702  -0.042  10.252   5.202 -2.2839 -0.9058  1.0890
  801MOL0     H 5703  -0.074  10.229   5.033 -0.9069  1.0551 -1.0855
  801MOL0     H 5704  -0.246  10.372   5.249  0.0432 -1.4300  0.7880
  801MOL0     H 5705  -0.258  10.424   5.080  4.5370  2.3350 -0.3510
  801MOL0     H 5706  -0.305  10.139   5.195  0.7309 -0.5823 -0.7052
  801MOL0     H 5707  -0.306  10.165   5.023 -1.9178  2.1072 -0.7913
  801MOL0     H 5708  -0.456  10.333   5.019  0.9883 -1.2611  0.1816
  801MOL0     H 5709  -0.507  10.309   5.190  0.3857  1.9411 -0.5505
  801MOL0     H 5710  -0.633  10.191   4.997  0.3674 -0.5539 -0.7926
  801MOL0     H 5711  -0.496  10.082   4.984 -2.5905 -0.5251 -1.6065
  801MOL0     H 5712  -0.574  10.096   5.264  0.4148 -0.7156 -0.3907
  801MOL0     H 5713  -0.576   9.958   5.162 -1.3274 -1.0463  0.3139
  801MOL0     H 5714   0.391  10.333   4.988 -0.0394 -0.4458  0.1319
  801MOL0     H 5715   0.641  10.352   4.999 -1.2017 -1.4859  0.1591
  801MOL0     H 5716   0.988  10.571   5.158 -1.5663 -0.3859 -0.2255
  801MOL0     H 5717   1.210  10.618   5.208  1.9200  0.0910  3.3092
  801MOL0     H 5718   2.917  11.036   5.220  2.5042  0.0697 -1.7966
  801MOL0     H 5719   3.138  11.116   5.176  1.7107 -2.5863  0.6276
  801MOL0     H 5720   3.637  11.355   5.521  2.4378 -1.9807  1.4279
  801MOL0     H 5721   3.861  11.368   5.420  1.0081 -0.4840 -0.0314
  801MOL0     H 5722   4.063  11.351   5.295 -1.3864  1.1260 -2.3684
  801MOL0     H 5723   4.129  11.241   5.178 -0.0071 -1.5743  0.4367
  801MOL0     H 5724   4.002  11.114   5.421  2.1931  0.4547  1.5077
  801MOL0     H 5725   4.113  11.044   5.294  2.0757 -0.8792 -0.0088
  801MOL0     H 5726   4.297  11.198   5.370 -0.6794  1.6915  1.5942
  801MOL0     H 5727   4.252  11.068   5.481  5.6732  1.4587  0.3400
  801MOL0     H 5728   4.085  11.289   5.569 -1.1973 -0.8689  1.2251
  801MOL0     H 5729   4.247  11.227   5.638  1.5305 -0.3872 -2.3820
  801MOL0     H 5730   4.318  11.595   5.457  2.1681 -1.0539 -1.5287
  801MOL0     H 5731   3.744  11.075   5.137  2.8172 -0.8734  2.2008
  801MOL0     H 5732   3.529  11.056   5.214  0.7827 -0.1746 -0.0166
  802MOL0     O 5733   4.562   7.860   3.433  0.1602  0.3381  0.5000
  802MOL0     C 5734   4.530   7.898   3.323 -0.5249  0.2781 -0.0947
  802MOL0     O 5735   4.611   7.902   3.215 -0.1448 -0.7864  0.1894
  802MOL0     C 5736   4.749   7.875   3.226  0.3128  0.7991 -0.0292
  802MOL0     C 5737   4.831   7.926   3.323  0.1028 -0.5702 -0.6303
  802MOL0     C 5738   4.970   7.892   3.330 -0.2025 -0.3886 -0.1373
  802MOL0     C 5739   5.022   7.794   3.240 -0.5708  0.5936 -0.1628
  802MOL0     O 5740   5.145   7.734   3.232 -0.2050 -0.3884  0.2379
  802MOL0     C 5741   5.241   7.770   3.335  0.4955  0.1146  0.8900
  802MOL0     C 5742   5.371   7.704   3.280  0.7389  0.5320  0.5419
  802MOL0     C 5743   5.496   7.713   3.374  0.6385  0.6252 -0.1284
  802MOL0     C 5744   5.593   7.601   3.320  0.0616  0.7912  0.1520
  802MOL0     C 5745   5.660   7.641   3.187  0.4580  0.4965 -0.6397
  802MOL0     C 5746   5.784   7.558   3.176  0.3966  0.1741 -0.2676
  802MOL0     C 5747   5.818   7.559   3.032  0.1862 -0.5174 -0.1563
  802MOL0     C 5748   5.938   7.471   2.997 -0.0833 -0.1670  0.2271
  802MOL0     N 5749   5.964   7.483   2.854  0.1175 -0.4987 -0.0876
  802MOL0     C 5750   5.894   7.436   2.746 -1.0277  0.0873 -1.4455
  802MOL0     C 5751   5.958   7.499   2.647  0.4597 -0.8338 -0.7371
  802MOL0     C 5752   5.904   7.501   2.504 -0.2022  0.2193  0.8765
  802MOL0     C 5753   5.749   7.527   2.512 -0.1904 -0.1856  0.4311
  802MOL0     C 5754   5.723   7.675   2.574 -0.8407  0.2855 -0.4771
  802MOL0     C 5755   5.602   7.729   2.513 -0.3487 -0.0504 -0.7357
  802MOL0     O 5756   5.537   7.837   2.592 -0.0947 -0.4104  0.2400
  802MOL0     C 5757   5.425   7.898   2.537 -0.1047 -0.9022  0.0753
  802MOL0     C 5758   5.337   7.972   2.621  0.5408  0.2324  0.1387
  802MOL0     C 5759   5.226   8.039   2.579 -0.3158  0.2653 -0.7913
  802MOL0     C 5760   5.195   8.040   2.440  1.1455  0.0010 -0.6083
  802MOL0     C 5761   5.064   8.095   2.404  0.3700  0.0539 -0.1088
  802MOL0     O 5762   5.012   8.196   2.479 -0.6040  0.4057  0.3194
  802MOL0     C 5763   4.897   8.269   2.443  0.9053  0.6789 -0.2731
  802MOL0     C 5764   4.880   8.343   2.323 -0.6375  0.8067 -0.4441
  802MOL0     C 5765   4.777   8.426   2.298  0.2920 -0.3744  0.4461
  802MOL0     C 5766   4.680   8.450   2.402  0.1033  0.5407  0.0648
  802MOL0     O 5767   4.580   8.543   2.375 -1.0838 -0.0916 -0.7197
  802MOL0     C 5768   4.503   8.590   2.488  0.7513 -0.2019 -0.4606
  802MOL0     C 5769   4.378   8.499   2.500  0.5091  0.2409  0.1917
  802MOL0     C 5770   4.277   8.564   2.593 -0.2148 -0.4185 -0.0821
  802MOL0     C 5771   4.157   8.472   2.617 -0.3159  0.8761  0.1634
  802MOL0     C 5772   4.085   8.523   2.735  0.8253 -0.2325  0.5877
  802MOL0     C 5773   3.984   8.419   2.791 -0.4891 -0.2235 -0.7837
  802MOL0     C 5774   3.890   8.489   2.898 -0.0767  0.3258  0.5956
  802MOL0     C 5775   3.801   8.581   2.837  1.0686 -0.3621  0.2326
  802MOL0    Cl 5776   3.711   8.645   2.971 -0.3825  0.1580 -0.0632
  802MOL0     C 5777   4.694   8.377   2.515 -0.4481 -0.3567 -0.2709
  802MOL0     C 5778   4.801   8.291   2.546  0.6720  0.0342 -0.9604
  802MOL0     O 5779   5.013   8.047   2.302 -0.3893  0.2608 -0.5262
  802MOL0     C 5780   5.279   7.977   2.355  0.4808 -0.2155  0.3541
  802MOL0     C 5781   5.388   7.904   2.395  0.2750 -0.4745 -0.7004
  802MOL0     N 5782   6.080   7.551   2.691  0.4303 -0.6213 -0.2781
  802MOL0     N 5783   6.070   7.552   2.818  0.3783  0.3580 -0.0655
  802MOL0     C 5784   4.932   7.741   3.135 -0.4853 -0.4249 -0.8110
  802MOL0     C 5785   4.798   7.791   3.126 -0.6279  1.1667 -0.3621
  802MOL0     C 5786   4.390   7.938   3.306  0.5014  0.5179  1.4974
  802MOL0     C 5787   4.287   7.898   3.398 -0.4795  0.0490  0.7881
  802MOL0     C 5788   4.154   7.926   3.371  1.3143 -0.1339  0.6256
  802MOL0     C 5789   4.116   8.006   3.267 -0.4582  0.0323 -0.4754
  802MOL0     O 5790   3.986   8.048   3.250  0.4646 -0.0482  0.0499
  802MOL0     C 5791   3.966   8.163   3.168 -0.1545 -0.3551  0.5530
  802MOL0     C 5792   3.854   8.249   3.224 -0.2112 -0.3640  0.0499
  802MOL0     C 5793   3.704   8.208   3.213 -0.5662 -0.0555  0.6873
  802MOL0     C 5794   3.658   8.108   3.322  0.0597 -0.5189  0.4834
  802MOL0     C 5795   3.530   8.052   3.285  0.4320  0.0413  0.3713
  802MOL0     C 5796   3.426   8.001   3.254 -0.0335  0.5829  0.0825
  802MOL0     C 5797   4.217   8.040   3.178 -0.6197  0.3196  0.7630
  802MOL0     C 5798   4.351   7.995   3.183  0.4746  0.3100 -0.4667
  802MOL0     H 5799   4.791   8.003   3.389  1.1053 -0.9450  0.4468
  802MOL0     H 5800   5.027   7.943   3.407 -0.3667 -0.1699 -0.1589
  802MOL0     H 5801   5.211   7.729   3.432 -0.7487 -1.0204  0.0470
  802MOL0     H 5802   5.247   7.879   3.345  0.0755  0.5425 -2.4329
  802MOL0     H 5803   5.394   7.771   3.196 -1.1566  0.0165 -0.4271
  802MOL0     H 5804   5.353   7.610   3.226  0.4454  0.6330  0.4638
  802MOL0     H 5805   5.462   7.699   3.477 -1.2846  1.6748 -0.5642
  802MOL0     H 5806   5.537   7.814   3.372  1.8777  0.1352 -0.4143
  802MOL0     H 5807   5.666   7.590   3.401  0.2917  0.7567 -0.0602
  802MOL0     H 5808   5.534   7.510   3.307  1.1883 -0.5774  3.5098
  802MOL0     H 5809   5.688   7.746   3.185  2.1400  0.0722 -1.9130
  802MOL0     H 5810   5.587   7.624   3.107 -1.4276 -2.1977  1.4528
  802MOL0     H 5811   5.772   7.454   3.207  0.6415 -0.6910 -2.8430
  802MOL0     H 5812   5.862   7.606   3.236 -1.3959  1.1547  1.4124
  802MOL0     H 5813   5.734   7.527   2.970 -0.6586  2.5226 -0.7459
  802MOL0     H 5814   5.836   7.663   3.003  0.2590 -0.8217 -1.2365
  802MOL0     H 5815   5.906   7.369   3.018 -3.9617  0.5719 -1.1660
  802MOL0     H 5816   6.034   7.498   3.042 -0.7940  2.7669  0.2029
  802MOL0     H 5817   5.801   7.381   2.746 -0.4078 -1.1123  0.7340
  802MOL0     H 5818   5.922   7.400   2.467 -2.3208 -0.8332  2.5036
  802MOL0     H 5819   5.971   7.566   2.447 -1.9961 -0.6025 -2.4005
  802MOL0     H 5820   5.693   7.457   2.574 -2.1136 -0.2841 -1.2803
  802MOL0     H 5821   5.701   7.529   2.413 -2.6320  3.0283  1.5119
  802MOL0     H 5822   5.704   7.674   2.681  3.4464  2.9261  0.5610
  802MOL0     H 5823   5.801   7.749   2.555 -0.2114  0.6362  2.8779
  802MOL0     H 5824   5.526   7.651   2.503  0.4275 -0.8267 -0.6907
  802MOL0     H 5825   5.643   7.773   2.422 -3.5262  3.5554 -0.6865
  802MOL0     H 5826   5.360   7.989   2.725  1.0286 -1.5786  0.3453
  802MOL0     H 5827   5.160   8.086   2.652  1.6988  0.8025  0.7744
  802MOL0     H 5828   4.957   8.308   2.255  0.6072  2.3559  0.1223
  802MOL0     H 5829   4.764   8.467   2.199  1.3992 -2.4063 -0.6108
  802MOL0     H 5830   4.473   8.694   2.468 -0.1589 -0.4285 -0.3164
  802MOL0     H 5831   4.554   8.585   2.584 -0.3091 -0.4772  0.0970
  802MOL0     H 5832   4.400   8.399   2.539  0.2319  0.2990  0.4995
  802MOL0     H 5833   4.331   8.486   2.402 -0.4912  1.8338  0.4273
  802MOL0     H 5834   4.256   8.665   2.556  0.1857  0.3683  1.6966
  802MOL0     H 5835   4.319   8.596   2.689 -0.6787 -0.3625  0.1049
  802MOL0     H 5836   4.090   8.456   2.533 -1.8169 -1.0060  1.6181
  802MOL0     H 5837   4.196   8.373   2.643 -0.4509  1.1590  1.5362
  802MOL0     H 5838   4.030   8.611   2.701  0.7335 -0.7953 -0.7871
  802MOL0     H 5839   4.149   8.554   2.818 -1.1481 -0.0778  2.1497
  802MOL0     H 5840   4.034   8.336   2.843 -2.4458 -0.7921  0.3022
  802MOL0     H 5841   3.933   8.374   2.706  1.0663 -0.4826 -1.6252
  802MOL0     H 5842   3.827   8.416   2.949  0.0825  0.2569  0.6952
  802MOL0     H 5843   3.956   8.528   2.976 -0.0893  0.1004  0.7169
  802MOL0     H 5844   3.736   8.527   2.768  2.3206  1.7567 -2.8644
  802MOL0     H 5845   3.845   8.670   2.790 -1.2036  0.9608  0.4287
  802MOL0     H 5846   4.621   8.381   2.596  1.4436 -4.3200  1.8934
  802MOL0     H 5847   4.803   8.238   2.641  2.6478 -0.7417 -1.3815
  802MOL0     H 5848   5.259   7.966   2.249  0.4108 -0.1151  0.3569
  802MOL0     H 5849   5.445   7.859   2.315  1.2532 -2.0776  0.8053
  802MOL0     H 5850   4.952   7.653   3.075 -1.9386 -0.0214 -1.9527
  802MOL0     H 5851   4.726   7.754   3.054 -2.3168 -1.1042  2.2957
  802MOL0     H 5852   4.306   7.840   3.487 -0.4235 -0.0329  0.7225
  802MOL0     H 5853   4.074   7.887   3.434  1.0274  3.3954  2.7361
  802MOL0     H 5854   3.956   8.135   3.062  1.0420 -0.0158  0.3283
  802MOL0     H 5855   4.051   8.231   3.181 -1.8051  2.5701 -2.3082
  802MOL0     H 5856   3.868   8.279   3.328 -0.6135 -1.5924  0.4855
  802MOL0     H 5857   3.862   8.340   3.164  3.6078 -0.9744 -0.5835
  802MOL0     H 5858   3.704   8.170   3.110 -0.4502 -0.6199  0.8899
  802MOL0     H 5859   3.644   8.299   3.221  2.0838  1.8385  0.3585
  802MOL0     H 5860   3.731   8.029   3.339 -0.8538 -1.0130  2.3571
  802MOL0     H 5861   3.648   8.164   3.415 -1.9059  1.1675 -0.6475
  802MOL0     H 5862   3.340   7.944   3.225 -1.8712  2.7364  0.9952
  802MOL0     H 5863   4.201   8.091   3.084  2.6092 -0.9532 -0.6378
  802MOL0     H 5864   4.418   8.018   3.100  0.6402 -0.3810 -0.5280
  803MOL0     O 5865   8.039  10.703   8.858  0.1077 -0.4892 -0.0973
  803MOL0     C 5866   8.053  10.753   8.971  0.5386 -0.3555 -0.3493
  803MOL0     O 5867   7.954  10.765   9.067 -0.4192 -0.4210 -0.0368
  803MOL0     C 5868   7.827  10.722   9.026  0.1181 -0.6296 -0.1441
  803MOL0     C 5869   7.759  10.615   9.087  0.7047  0.3163  0.2522
  803MOL0     C 5870   7.636  10.577   9.038 -0.2225 -0.3496  0.0090
  803MOL0     C 5871   7.577  10.641   8.932  0.2407  0.5754  0.1405
  803MOL0     O 5872   7.478  10.572   8.856 -0.1299 -0.0837  0.5915
  803MOL0     C 5873   7.364  10.642   8.801 -0.5787  0.2988 -0.2787
  803MOL0     C 5874   7.246  10.547   8.767 -0.1555 -0.6298 -1.4279
  803MOL0     C 5875   7.123  10.606   8.692 -0.1038  0.0420 -0.2583
  803MOL0     C 5876   7.152  10.667   8.554  0.1411  0.3131  0.0426
  803MOL0     C 5877   7.019  10.706   8.485  0.1140 -0.2190 -0.0864
  803MOL0     C 5878   6.966  10.842   8.534 -0.5665 -0.8584 -0.2172
  803MOL0     C 5879   6.868  10.913   8.440  0.6892  0.1554  0.4993
  803MOL0     C 5880   6.863  11.061   8.465  0.8800 -0.7057  0.3871
  803MOL0     N 5881   6.810  11.098   8.596 -0.0215  0.3487  0.4678
  803MOL0     C 5882   6.889  11.161   8.695 -0.3912 -0.2144  0.7399
  803MOL0     C 5883   6.801  11.165   8.803  0.6890 -0.3321 -0.2932
  803MOL0     C 5884   6.845  11.206   8.936  0.6417 -0.1843 -0.4372
  803MOL0     C 5885   6.772  11.337   8.978 -0.5114  0.3073 -0.4640
  803MOL0     C 5886   6.797  11.391   9.120 -0.1458 -0.3626  0.6062
  803MOL0     C 5887   6.701  11.330   9.226  0.2974 -0.0518  0.0227
  803MOL0     O 5888   6.706  11.410   9.351  0.3487  0.1873  0.3086
  803MOL0     C 5889   6.810  11.383   9.438  0.0510  0.1864  0.1431
  803MOL0     C 5890   6.896  11.280   9.440 -0.9564  0.1557 -0.2710
  803MOL0     C 5891   6.996  11.276   9.531  0.8512  0.3354  0.4725
  803MOL0     C 5892   7.010  11.360   9.637 -0.8806  0.5317 -0.5314
  803MOL0     C 5893   7.117  11.328   9.739  0.0177 -0.0162  0.0085
  803MOL0     O 5894   7.207  11.225   9.734 -0.3316  0.4484  0.4406
  803MOL0     C 5895   7.289  11.190   9.838  0.2143 -0.0779  0.1245
  803MOL0     C 5896   7.253  11.176   9.975 -0.8251  0.2260  0.6186
  803MOL0     C 5897   7.339  11.121  10.064 -1.1974 -0.1182 -0.2348
  803MOL0     C 5898   7.465  11.080  10.017  1.0469  0.1288 -0.1815
  803MOL0     O 5899   7.545  11.008  10.103  0.1702 -0.1814 -0.5435
  803MOL0     C 5900   7.484  10.903  10.177  0.4881 -0.5274  0.6802
  803MOL0     C 5901   7.573  10.825  10.280 -0.2266 -0.7196  0.2002
  803MOL0     C 5902   7.543  10.860  10.426 -0.2340  0.3490  0.2389
  803MOL0     C 5903   7.536  11.007  10.457 -0.2945  0.0879  0.8727
  803MOL0     C 5904   7.560  11.042  10.605  0.6852  0.1416 -0.8914
  803MOL0     C 5905   7.570  11.193  10.630 -0.0433 -0.0082 -0.1490
  803MOL0     C 5906   7.694  11.259  10.579  0.4473  0.0546  0.7386
  803MOL0     C 5907   7.664  11.370  10.476 -0.3796 -0.6893  0.4200
  803MOL0    Cl 5908   7.601  11.514  10.550 -0.3637 -0.3939 -0.3865
  803MOL0     C 5909   7.514  11.097   9.893  0.3506  1.0182 -0.3527
  803MOL0     C 5910   7.419  11.136   9.794  0.3352 -0.4874  0.4221
  803MOL0     O 5911   7.125  11.419   9.824  0.5629 -0.0317  0.0723
  803MOL0     C 5912   6.912  11.462   9.647  0.3724  0.0304 -0.4044
  803MOL0     C 5913   6.809  11.467   9.551  0.4377 -0.2454 -0.9632
  803MOL0     N 5914   6.679  11.127   8.750 -0.3740  0.1221  0.2572
  803MOL0     N 5915   6.685  11.082   8.632 -0.1162  0.1681  0.1011
  803MOL0     C 5916   7.638  10.759   8.877  0.4927  0.1677 -0.2390
  803MOL0     C 5917   7.765  10.806   8.935 -0.3371  0.6870 -1.0962
  803MOL0     C 5918   8.188  10.796   9.003  0.3719 -0.1031  0.9842
  803MOL0     C 5919   8.304  10.770   8.919  0.0606 -0.5218 -0.6104
  803MOL0     C 5920   8.433  10.790   8.977 -0.4805 -0.5014  0.0890
  803MOL0     C 5921   8.453  10.844   9.109  0.0712  0.0750  0.3943
  803MOL0     O 5922   8.580  10.877   9.173  1.0223  0.4620  0.3996
  803MOL0     C 5923   8.706  10.881   9.114 -0.6157  0.7590 -0.1355
  803MOL0     C 5924   8.757  10.741   9.086  0.6966  0.5437  0.1699
  803MOL0     C 5925   8.814  10.682   9.214  0.1165 -0.0718 -0.7446
  803MOL0     C 5926   8.711  10.648   9.322 -0.2564 -0.6750 -0.0183
  803MOL0     C 5927   8.765  10.562   9.429 -0.3419 -0.3261  0.4341
  803MOL0     C 5928   8.811  10.515   9.530 -0.4607 -0.5261  0.7020
  803MOL0     C 5929   8.338  10.893   9.171 -0.7579 -0.6722 -0.2610
  803MOL0     C 5930   8.216  10.867   9.119 -0.4885  0.0837  0.8735
  803MOL0     H 5931   7.817  10.563   9.163  0.0096  0.2639  0.7509
  803MOL0     H 5932   7.599  10.487   9.086 -2.3492  2.1786  3.6365
  803MOL0     H 5933   7.384  10.699   8.710 -0.5659  0.8061  0.0383
  803MOL0     H 5934   7.344  10.723   8.873 -0.4467  0.3753 -0.3270
  803MOL0     H 5935   7.209  10.508   8.863 -0.0764 -1.3695 -1.6925
  803MOL0     H 5936   7.283  10.454   8.722  2.1947 -1.3118  1.4965
  803MOL0     H 5937   7.074  10.672   8.764  0.9227  0.0776  0.4278
  803MOL0     H 5938   7.052  10.523   8.682  0.9435 -0.8354 -0.6947
  803MOL0     H 5939   7.208  10.761   8.553 -1.6415  1.4263 -1.0033
  803MOL0     H 5940   7.205  10.586   8.503 -0.0043 -0.2735  0.8092
  803MOL0     H 5941   6.945  10.627   8.497 -1.0924  1.2458  3.4164
  803MOL0     H 5942   7.037  10.711   8.377 -1.2379 -0.6174 -0.3434
  803MOL0     H 5943   7.053  10.908   8.533  0.9732 -2.6865 -3.9870
  803MOL0     H 5944   6.931  10.835   8.638  0.0020 -0.4094  0.0116
  803MOL0     H 5945   6.898  10.907   8.335  3.3391  4.1330  0.8280
  803MOL0     H 5946   6.775  10.860   8.462  0.3981 -0.2211 -1.4405
  803MOL0     H 5947   6.791  11.095   8.389  2.2452 -1.9649 -1.5772
  803MOL0     H 5948   6.958  11.114   8.454 -1.0641  3.5836  1.8942
  803MOL0     H 5949   6.994  11.186   8.686 -0.6805  1.4426  1.6459
  803MOL0     H 5950   6.954  11.213   8.935  0.5416  1.7810 -0.8353
  803MOL0     H 5951   6.813  11.133   9.012  0.1076  0.1655 -0.3227
  803MOL0     H 5952   6.664  11.323   8.968 -0.8473  0.2705  2.3983
  803MOL0     H 5953   6.810  11.420   8.918  1.0779  1.0254  1.4140
  803MOL0     H 5954   6.903  11.384   9.146 -0.0335  0.4394  0.3922
  803MOL0     H 5955   6.788  11.499   9.133 -0.1987 -0.4391  1.2621
  803MOL0     H 5956   6.717  11.224   9.243  4.2228 -0.1879 -3.1442
  803MOL0     H 5957   6.597  11.339   9.192  0.3378 -1.5754 -0.5630
  803MOL0     H 5958   6.909  11.197   9.370  0.8263  0.5720 -0.4981
  803MOL0     H 5959   7.061  11.193   9.505 -1.1656 -1.0755 -0.3447
  803MOL0     H 5960   7.159  11.206  10.020 -1.6278 -1.2394  0.0135
  803MOL0     H 5961   7.321  11.124  10.171 -1.2645 -2.0702 -0.1562
  803MOL0     H 5962   7.441  10.829  10.108  0.8262 -0.3405  0.2681
  803MOL0     H 5963   7.401  10.938  10.240  0.1121 -0.2947  0.0591
  803MOL0     H 5964   7.668  10.859  10.238 -0.5145 -0.6714 -0.4231
  803MOL0     H 5965   7.575  10.718  10.257  2.4998 -0.0887 -3.4131
  803MOL0     H 5966   7.619  10.820  10.493  0.3305 -0.6059 -0.9342
  803MOL0     H 5967   7.446  10.814  10.447  0.7054 -0.9875  1.8472
  803MOL0     H 5968   7.606  11.069  10.399 -0.7979  1.0612  1.2808
  803MOL0     H 5969   7.438  11.044  10.427 -0.1734  0.3638  0.8101
  803MOL0     H 5970   7.652  10.994  10.641 -0.3316 -0.6907  0.7266
  803MOL0     H 5971   7.479  11.001  10.666  2.9390 -0.6859  1.7512
  803MOL0     H 5972   7.550  11.220  10.734  0.3546 -1.6811  0.4007
  803MOL0     H 5973   7.474  11.224  10.588  1.6086  1.7955 -2.9525
  803MOL0     H 5974   7.755  11.290  10.664  0.6761 -0.0069  0.5959
  803MOL0     H 5975   7.754  11.179  10.535  1.8602  2.2668 -1.5604
  803MOL0     H 5976   7.586  11.324  10.414 -1.7445  3.4444 -1.2168
  803MOL0     H 5977   7.750  11.390  10.412 -1.2194 -2.2073 -1.2927
  803MOL0     H 5978   7.609  11.054   9.864  0.2503  0.8757 -0.4705
  803MOL0     H 5979   7.438  11.111   9.690  2.2396 -0.2391  0.6703
  803MOL0     H 5980   6.890  11.526   9.732 -0.0695 -1.1639  0.4141
  803MOL0     H 5981   6.734  11.546   9.559 -2.2512 -2.5786 -1.6872
  803MOL0     H 5982   7.595  10.810   8.791  2.2693  4.1463  0.9773
  803MOL0     H 5983   7.812  10.889   8.883 -1.2865  2.6375  0.9708
  803MOL0     H 5984   8.289  10.735   8.818 -0.1393  0.9551 -1.1224
  803MOL0     H 5985   8.508  10.754   8.907 -2.0518 -1.1053 -1.3513
  803MOL0     H 5986   8.783  10.931   9.173  0.0659  0.6826 -0.9475
  803MOL0     H 5987   8.685  10.936   9.021 -0.9687  4.1924  1.8169
  803MOL0     H 5988   8.683  10.676   9.040  0.4580  1.5827 -0.9848
  803MOL0     H 5989   8.842  10.749   9.018  1.5694  0.3269  1.2175
  803MOL0     H 5990   8.880  10.753   9.264 -0.7686 -0.6813  1.4546
  803MOL0     H 5991   8.866  10.593   9.179 -1.0278  0.4652 -4.1978
  803MOL0     H 5992   8.672  10.738   9.371 -1.9809 -1.1721 -0.3849
  803MOL0     H 5993   8.622  10.601   9.279  0.0535  0.4955 -2.0680
  803MOL0     H 5994   8.865  10.496   9.621  1.8947  1.2760 -0.2405
  803MOL0     H 5995   8.351  10.943   9.267 -2.5747  0.3283 -0.5066
  803MOL0     H 5996   8.125  10.900   9.169 -1.2742 -0.2026 -0.3202
  804MOL0     O 5997   0.662   5.760   1.378 -0.4515  0.2127 -0.3272
  804MOL0     C 5998   0.664   5.794   1.500  0.2890  0.3756  0.8857
  804MOL0     O 5999   0.552   5.786   1.578  0.1778  0.0588  0.4029
  804MOL0     C 6000   0.425   5.789   1.525  0.9205  0.4473 -0.1832
  804MOL0     C 6001   0.330   5.735   1.612  1.4397  0.2400 -0.1644
  804MOL0     C 6002   0.197   5.725   1.572  0.3840 -0.9378 -1.1562
  804MOL0     C 6003   0.147   5.781   1.458 -0.0267 -0.0964  0.4330
  804MOL0     O 6004   0.013   5.794   1.425  0.2762  0.0955  0.2106
  804MOL0     C 6005  -0.063   5.671   1.427 -0.4216  0.0857 -0.0946
  804MOL0     C 6006  -0.196   5.677   1.337 -0.1603 -0.1012 -0.2455
  804MOL0     C 6007  -0.316   5.718   1.417  0.1929  0.1322 -0.6775
  804MOL0     C 6008  -0.442   5.721   1.331  0.0581  0.7837 -0.0025
  804MOL0     C 6009  -0.561   5.783   1.406 -0.0992  0.0240 -0.4788
  804MOL0     C 6010  -0.670   5.824   1.300 -0.4374  0.4893  0.0334
  804MOL0     C 6011  -0.822   5.814   1.344  0.7468  0.2602  0.2547
  804MOL0     C 6012  -0.924   5.789   1.225 -0.3630 -0.8466  0.1483
  804MOL0     N 6013  -0.918   5.912   1.132 -0.4118  0.3264  1.0242
  804MOL0     C 6014  -0.954   6.043   1.144 -0.0696 -0.4446  0.8156
  804MOL0     C 6015  -0.906   6.113   1.042 -0.3712 -0.8254 -0.1954
  804MOL0     C 6016  -0.925   6.258   1.020  0.0910  0.0521  0.4048
  804MOL0     C 6017  -1.066   6.311   0.992 -0.2171  0.7085  0.2505
  804MOL0     C 6018  -1.066   6.463   0.960 -0.4776 -0.3818  0.1273
  804MOL0     C 6019  -1.208   6.534   0.988 -0.5832  0.0247  0.9381
  804MOL0     O 6020  -1.297   6.475   0.888  0.2969 -0.6735  0.4461
  804MOL0     C 6021  -1.425   6.446   0.926  0.0841  0.3551  0.3459
  804MOL0     C 6022  -1.490   6.334   0.868 -0.9401 -0.1606  0.2167
  804MOL0     C 6023  -1.623   6.301   0.901  0.3491  0.0555 -0.3705
  804MOL0     C 6024  -1.687   6.370   1.005  0.2944 -0.2231 -0.0893
  804MOL0     C 6025  -1.828   6.342   1.051 -1.5831  0.1099  0.5246
  804MOL0     O 6026  -1.878   6.427   1.154  0.2183  0.2733  0.5012
  804MOL0     C 6027  -2.006   6.415   1.210  0.4412 -0.1901  0.8386
  804MOL0     C 6028  -2.072   6.294   1.215  0.2384 -0.6344  0.6959
  804MOL0     C 6029  -2.207   6.290   1.254  0.5320 -0.6466  0.3284
  804MOL0     C 6030  -2.267   6.405   1.306  0.8212  0.7297  0.1815
  804MOL0     O 6031  -2.393   6.391   1.358  0.0472  0.2276 -0.1952
  804MOL0     C 6032  -2.469   6.494   1.422 -0.9347  0.0652 -0.2449
  804MOL0     C 6033  -2.605   6.433   1.469 -0.1630  0.3219  0.0897
  804MOL0     C 6034  -2.610   6.383   1.615 -0.0237 -0.3637 -0.5341
  804MOL0     C 6035  -2.758   6.337   1.653 -0.0816 -0.2050 -0.5114
  804MOL0     C 6036  -2.794   6.413   1.790 -0.6578 -0.0090  0.5541
  804MOL0     C 6037  -2.805   6.563   1.789  0.3056 -0.0073 -0.0599
  804MOL0     C 6038  -2.910   6.620   1.694  0.4363 -0.0659  0.6506
  804MOL0     C 6039  -2.896   6.769   1.687  0.5772  0.7762 -0.3160
  804MOL0    Cl 6040  -2.752   6.814   1.597  0.5084 -0.1396 -0.4662
  804MOL0     C 6041  -2.199   6.528   1.301 -0.5205  0.9588 -0.3005
  804MOL0     C 6042  -2.064   6.536   1.263 -0.3175  0.5932 -0.7680
  804MOL0     O 6043  -1.894   6.258   0.982 -0.8989  0.3719 -0.0855
  804MOL0     C 6044  -1.622   6.476   1.074 -0.7073 -0.4816  0.8546
  804MOL0     C 6045  -1.487   6.517   1.038 -0.1003 -0.5763  0.0810
  804MOL0     N 6046  -0.850   6.023   0.957  0.2194  0.4952  0.4017
  804MOL0     N 6047  -0.853   5.906   1.009 -0.6676 -0.2620  0.6189
  804MOL0     C 6048   0.241   5.821   1.369 -0.2923  0.3132  0.5274
  804MOL0     C 6049   0.376   5.830   1.398  0.8749 -0.6187  0.1736
  804MOL0     C 6050   0.795   5.811   1.557  0.5145 -0.2732 -0.3389
  804MOL0     C 6051   0.805   5.798   1.695  0.6904 -0.6096  0.3555
  804MOL0     C 6052   0.925   5.794   1.746  0.5093  0.8608 -0.4320
  804MOL0     C 6053   1.046   5.820   1.671  1.5219  0.1791 -0.9964
  804MOL0     O 6054   1.165   5.828   1.736 -0.1240 -0.0218 -0.2390
  804MOL0     C 6055   1.280   5.868   1.670 -0.1060 -0.4586 -0.4952
  804MOL0     C 6056   1.376   5.901   1.786  0.8164 -0.4349 -0.0875
  804MOL0     C 6057   1.520   5.910   1.734 -0.5476 -0.3476  0.1186
  804MOL0     C 6058   1.579   5.766   1.716  0.4772 -0.0746 -0.1969
  804MOL0     C 6059   1.712   5.751   1.774  0.0126  0.3824 -0.2469
  804MOL0     C 6060   1.824   5.747   1.829 -0.2874 -0.4591 -0.1529
  804MOL0     C 6061   1.028   5.830   1.535 -0.3271  0.7276 -0.6805
  804MOL0     C 6062   0.903   5.837   1.475 -0.0585 -0.4389  0.7538
  804MOL0     H 6063   0.360   5.702   1.711  0.5280  0.4953  0.2023
  804MOL0     H 6064   0.129   5.679   1.643 -0.3211  1.2542 -0.3579
  804MOL0     H 6065  -0.079   5.632   1.528 -0.7068 -0.9794 -0.5332
  804MOL0     H 6066   0.002   5.598   1.378  1.9153 -0.5116  3.5130
  804MOL0     H 6067  -0.205   5.579   1.289  2.3044  0.2928 -1.6848
  804MOL0     H 6068  -0.177   5.756   1.264 -1.4680  1.2209  0.7731
  804MOL0     H 6069  -0.301   5.815   1.464 -2.1372  1.0514 -1.6704
  804MOL0     H 6070  -0.345   5.635   1.482  0.2185  0.4261 -0.2906
  804MOL0     H 6071  -0.422   5.772   1.237 -0.1325  1.5321  0.3516
  804MOL0     H 6072  -0.472   5.627   1.284 -2.6720  2.7364 -2.5187
  804MOL0     H 6073  -0.536   5.876   1.457  0.7789 -0.4450 -0.0390
  804MOL0     H 6074  -0.603   5.707   1.474 -0.1216  1.0311  0.6567
  804MOL0     H 6075  -0.664   5.756   1.215  0.4618  1.4580 -0.7077
  804MOL0     H 6076  -0.645   5.924   1.262 -0.0145  0.7410  0.9266
  804MOL0     H 6077  -0.831   5.735   1.420 -0.5562  1.5427  1.4951
  804MOL0     H 6078  -0.848   5.911   1.386 -0.7641  0.3084 -0.7199
  804MOL0     H 6079  -1.022   5.786   1.272  1.9176  0.4203  5.8018
  804MOL0     H 6080  -0.890   5.699   1.173  0.9040 -1.5819  2.1462
  804MOL0     H 6081  -0.998   6.089   1.232  0.0104 -1.6988  1.5385
  804MOL0     H 6082  -0.868   6.282   0.929 -0.5728 -1.1654 -0.3520
  804MOL0     H 6083  -0.879   6.314   1.102  2.1267 -1.6348  0.5048
  804MOL0     H 6084  -1.139   6.290   1.072 -0.8070 -0.5136 -0.5754
  804MOL0     H 6085  -1.106   6.259   0.905 -4.1309  2.4415  0.7845
  804MOL0     H 6086  -0.987   6.502   1.025 -0.1365 -0.8108 -0.0257
  804MOL0     H 6087  -1.022   6.461   0.860 -0.7228 -1.5530  0.0293
  804MOL0     H 6088  -1.202   6.642   0.972 -1.0632  0.3250  2.5602
  804MOL0     H 6089  -1.235   6.523   1.094  0.1277  1.1230  1.2582
  804MOL0     H 6090  -1.427   6.290   0.791  0.4875  4.5554 -1.6600
  804MOL0     H 6091  -1.678   6.225   0.847  0.2865  0.0927 -0.3578
  804MOL0     H 6092  -2.025   6.200   1.185  2.8954  0.8961 -0.2790
  804MOL0     H 6093  -2.263   6.198   1.265  0.2603 -0.7242 -1.4399
  804MOL0     H 6094  -2.486   6.570   1.345  0.7048  2.7867  1.9177
  804MOL0     H 6095  -2.410   6.528   1.507  4.2440  0.4704 -3.5920
  804MOL0     H 6096  -2.649   6.357   1.403 -1.4191  1.9196 -1.0082
  804MOL0     H 6097  -2.672   6.518   1.458 -2.4762 -1.2578  1.0396
  804MOL0     H 6098  -2.568   6.459   1.682 -3.2172  0.8482  0.2696
  804MOL0     H 6099  -2.549   6.292   1.623 -2.0400 -1.8425 -0.9759
  804MOL0     H 6100  -2.818   6.362   1.565  0.6913 -3.2607 -2.0251
  804MOL0     H 6101  -2.758   6.230   1.673 -1.1196  0.2106  2.2625
  804MOL0     H 6102  -2.730   6.383   1.874 -0.2497  2.1547  1.0970
  804MOL0     H 6103  -2.888   6.361   1.807 -0.0049 -1.3059  0.3171
  804MOL0     H 6104  -2.708   6.613   1.777 -0.2090  1.4662  1.4388
  804MOL0     H 6105  -2.829   6.594   1.892 -3.1981 -4.0704  0.6379
  804MOL0     H 6106  -2.889   6.582   1.594  0.7614 -0.5109  0.8815
  804MOL0     H 6107  -3.011   6.590   1.722  0.3274 -0.0125  0.3164
  804MOL0     H 6108  -2.897   6.821   1.783  1.7656 -0.3192  0.3217
  804MOL0     H 6109  -2.986   6.775   1.626 -1.2351 -1.1630  1.9528
  804MOL0     H 6110  -2.245   6.618   1.338  1.4935  1.6213  0.7317
  804MOL0     H 6111  -2.021   6.636   1.264  2.1218 -0.3831 -1.4941
  804MOL0     H 6112  -1.660   6.523   1.163  0.4249 -2.1269  2.2729
  804MOL0     H 6113  -1.441   6.611   1.067 -1.0359  0.0952 -0.5743
  804MOL0     H 6114   0.200   5.851   1.273 -0.1242  1.1044  0.7041
  804MOL0     H 6115   0.443   5.864   1.320  0.5432  0.6753  0.4318
  804MOL0     H 6116   0.724   5.792   1.767  0.3751  0.2496  0.0882
  804MOL0     H 6117   0.929   5.788   1.854  1.4107  0.2740 -0.4834
  804MOL0     H 6118   1.260   5.956   1.609 -1.6906 -0.2661  0.2727
  804MOL0     H 6119   1.329   5.789   1.612  0.5416 -0.2947 -0.1802
  804MOL0     H 6120   1.341   5.995   1.830  0.4694 -0.4923 -0.2376
  804MOL0     H 6121   1.378   5.828   1.867  2.4312  0.4994  0.7647
  804MOL0     H 6122   1.579   5.957   1.814 -1.5374  1.7405 -0.2996
  804MOL0     H 6123   1.521   5.970   1.643  1.6077  1.5359  1.2746
  804MOL0     H 6124   1.508   5.691   1.751  0.9318 -0.4832 -0.1328
  804MOL0     H 6125   1.580   5.738   1.610 -0.4919 -2.4875  0.3853
  804MOL0     H 6126   1.916   5.751   1.884  0.6167 -0.5161 -1.5851
  804MOL0     H 6127   1.127   5.817   1.491 -0.3406 -1.4486 -0.1610
  804MOL0     H 6128   0.886   5.833   1.368  0.5149  0.1927  0.6370
  805MOL0     O 6129   5.022   3.480   6.201  0.2635 -0.0337  0.1758
  805MOL0     C 6130   4.916   3.426   6.171  0.2555 -0.2025 -0.2702
  805MOL0     O 6131   4.894   3.288   6.160 -0.3184  0.3920  0.2622
  805MOL0     C 6132   5.001   3.207   6.181  0.3888  0.3798  0.3168
  805MOL0     C 6133   5.070   3.154   6.069  0.1588 -0.0755  0.4424
  805MOL0     C 6134   5.186   3.072   6.084  1.1343 -0.2001  0.3441
  805MOL0     C 6135   5.241   3.062   6.211 -0.0031 -0.2127 -0.4792
  805MOL0     O 6136   5.358   3.001   6.222 -0.0023 -0.0654  1.3438
  805MOL0     C 6137   5.426   2.989   6.350  0.5267 -0.1040  0.1342
  805MOL0     C 6138   5.573   2.938   6.327 -0.1551 -1.2355  0.0194
  805MOL0     C 6139   5.664   3.016   6.422  0.1704 -0.1691 -1.2456
  805MOL0     C 6140   5.649   2.973   6.577 -0.1694 -0.3249 -0.4722
  805MOL0     C 6141   5.763   3.002   6.673 -1.3318  0.2721  0.1285
  805MOL0     C 6142   5.790   3.151   6.683  0.2537  0.2440 -0.5144
  805MOL0     C 6143   5.896   3.180   6.795 -0.0341  0.3592  0.2593
  805MOL0     C 6144   6.045   3.157   6.756 -0.0049 -0.2773  0.3967
  805MOL0     N 6145   6.143   3.215   6.842 -0.0896  0.0092  0.0446
  805MOL0     C 6146   6.121   3.312   6.943  0.8891  0.6961 -0.1386
  805MOL0     C 6147   6.243   3.339   6.978  0.7230  0.0673 -0.8635
  805MOL0     C 6148   6.282   3.448   7.076  0.1991  0.7454 -0.6923
  805MOL0     C 6149   6.343   3.569   7.017 -0.0268  0.2598  0.7474
  805MOL0     C 6150   6.365   3.680   7.117  0.0297  0.2830  0.3591
  805MOL0     C 6151   6.357   3.819   7.050  0.2054 -0.9296  0.2448
  805MOL0     O 6152   6.451   3.839   6.942 -0.3212  0.6164 -0.4453
  805MOL0     C 6153   6.580   3.878   6.975  0.4706 -0.4312 -0.1357
  805MOL0     C 6154   6.683   3.790   6.928 -0.0198  0.0825 -0.0079
  805MOL0     C 6155   6.823   3.820   6.954 -0.5542 -0.4262  0.2724
  805MOL0     C 6156   6.858   3.931   7.025  0.6412 -0.5044  0.3689
  805MOL0     C 6157   6.997   3.965   7.056 -0.1355 -0.2802  0.7053
  805MOL0     O 6158   7.081   3.901   6.983 -0.2446  0.0995  0.5573
  805MOL0     C 6159   7.219   3.931   6.967  0.5568 -0.4772 -0.6662
  805MOL0     C 6160   7.264   3.929   6.842  0.3848 -0.6594  0.3168
  805MOL0     C 6161   7.394   3.959   6.803 -0.5344 -0.2613  0.7772
  805MOL0     C 6162   7.490   4.004   6.902  0.2252  0.4961  0.3682
  805MOL0     O 6163   7.620   4.043   6.872 -0.1862 -0.2272 -0.1770
  805MOL0     C 6164   7.654   4.070   6.730 -0.6774 -0.1037  0.8671
  805MOL0     C 6165   7.802   4.088   6.715 -1.1843 -0.1983 -0.8124
  805MOL0     C 6166   7.878   3.947   6.734  0.0756 -0.5504 -0.8393
  805MOL0     C 6167   8.023   3.969   6.766  0.6200  0.3981 -0.0352
  805MOL0     C 6168   8.097   3.842   6.790 -0.3096  1.0368 -0.2309
  805MOL0     C 6169   8.057   3.786   6.927 -0.0800  0.1145  0.2361
  805MOL0     C 6170   8.152   3.840   7.029  0.5936  0.8551  0.6793
  805MOL0     C 6171   8.109   3.785   7.167 -0.2107 -0.0258  0.6181
  805MOL0    Cl 6172   7.966   3.884   7.210 -0.2144 -0.1215 -0.5109
  805MOL0     C 6173   7.443   4.002   7.039 -0.9681 -0.6115  0.0789
  805MOL0     C 6174   7.305   3.981   7.068  1.3475  0.4953  0.3080
  805MOL0     O 6175   7.029   4.069   7.121  0.8573  0.3989 -0.3028
  805MOL0     C 6176   6.752   4.025   7.049  0.2063  0.7223  0.3174
  805MOL0     C 6177   6.614   4.001   7.034 -0.1206  1.2591 -0.9486
  805MOL0     N 6178   6.335   3.273   6.916 -0.2475  0.2814 -0.0261
  805MOL0     N 6179   6.272   3.185   6.847 -0.6515  0.8910 -0.4797
  805MOL0     C 6180   5.163   3.106   6.325  0.5453 -0.0880 -0.5813
  805MOL0     C 6181   5.046   3.184   6.309 -0.1944 -0.0707 -0.1523
  805MOL0     C 6182   4.791   3.512   6.172 -0.1572 -0.3944 -0.4380
  805MOL0     C 6183   4.787   3.619   6.263 -0.6212 -0.3580 -0.1997
  805MOL0     C 6184   4.674   3.697   6.276  0.8433 -0.3155  0.0166
  805MOL0     C 6185   4.553   3.663   6.207 -0.7524 -0.2479  0.1468
  805MOL0     O 6186   4.446   3.752   6.218 -0.3051  0.3540  0.4718
  805MOL0     C 6187   4.325   3.731   6.141 -0.3201  0.4500  0.0309
  805MOL0     C 6188   4.219   3.820   6.208  0.4328  0.3022  0.6622
  805MOL0     C 6189   4.249   3.964   6.176  0.5451 -0.1508  1.2733
  805MOL0     C 6190   4.155   4.062   6.253 -0.2641 -0.4101  0.2951
  805MOL0     C 6191   4.193   4.206   6.224 -0.5051  0.1224 -0.0509
  805MOL0     C 6192   4.222   4.324   6.212  0.4599 -0.3384  0.8428
  805MOL0     C 6193   4.562   3.551   6.127  0.0071 -0.5341  0.8456
  805MOL0     C 6194   4.676   3.474   6.107  0.2311 -0.4161  0.3488
  805MOL0     H 6195   5.031   3.173   5.970  6.4466 -4.3669 -3.6222
  805MOL0     H 6196   5.234   3.028   5.997  1.3637 -1.2718  0.9974
  805MOL0     H 6197   5.376   2.927   6.425 -3.7029  4.2159  1.3494
  805MOL0     H 6198   5.426   3.088   6.396  1.8489  0.1755 -0.4401
  805MOL0     H 6199   5.607   2.968   6.228 -1.2134  1.5023  0.3792
  805MOL0     H 6200   5.574   2.832   6.352 -1.8827 -0.7457  2.5908
  805MOL0     H 6201   5.648   3.123   6.403  1.3407  0.1326 -0.5847
  805MOL0     H 6202   5.765   2.994   6.388  0.3725 -0.0074 -0.7498
  805MOL0     H 6203   5.559   3.025   6.611 -1.0128 -0.9999 -1.5854
  805MOL0     H 6204   5.636   2.865   6.575 -0.4911 -0.3531 -4.0528
  805MOL0     H 6205   5.855   2.964   6.628 -1.2313 -1.0426  1.3678
  805MOL0     H 6206   5.744   2.954   6.769 -0.5040 -0.8395 -0.2367
  805MOL0     H 6207   5.696   3.200   6.710 -0.0765  0.3362 -1.7296
  805MOL0     H 6208   5.823   3.189   6.586  1.8112  0.8152  0.2186
  805MOL0     H 6209   5.883   3.284   6.827  3.4815  0.6428  1.1258
  805MOL0     H 6210   5.868   3.130   6.889 -1.1177  0.5571  0.0597
  805MOL0     H 6211   6.049   3.191   6.653  2.8471 -3.4099 -0.7047
  805MOL0     H 6212   6.057   3.049   6.754  1.1049 -0.1657  0.4294
  805MOL0     H 6213   6.030   3.359   6.979 -1.5484  0.5497 -5.2558
  805MOL0     H 6214   6.343   3.403   7.155 -2.3400 -0.0523  0.9494
  805MOL0     H 6215   6.183   3.478   7.113  0.8392  0.0644  1.7429
  805MOL0     H 6216   6.273   3.614   6.946 -1.8312  3.8858  4.4708
  805MOL0     H 6217   6.441   3.542   6.976 -0.6443  0.3860 -0.8952
  805MOL0     H 6218   6.289   3.667   7.194  0.2149  3.0835  1.1205
  805MOL0     H 6219   6.464   3.668   7.162  1.4387  0.0072 -2.5648
  805MOL0     H 6220   6.369   3.887   7.135  2.3552  1.0123 -1.4928
  805MOL0     H 6221   6.260   3.830   7.001  1.0130 -2.3135 -1.8102
  805MOL0     H 6222   6.661   3.701   6.870 -1.0940  0.6074 -0.4341
  805MOL0     H 6223   6.903   3.755   6.921  2.6647  2.9435  0.7713
  805MOL0     H 6224   7.197   3.908   6.759 -0.5312  3.0836 -0.1068
  805MOL0     H 6225   7.409   3.980   6.698 -0.2223  0.6584  0.9863
  805MOL0     H 6226   7.600   4.157   6.692  1.2019 -0.2694 -2.6745
  805MOL0     H 6227   7.635   3.983   6.666  1.6128  0.8155 -1.2464
  805MOL0     H 6228   7.835   4.160   6.791 -3.1024  1.8820 -1.8485
  805MOL0     H 6229   7.834   4.126   6.618  1.5824 -4.1840 -1.7165
  805MOL0     H 6230   7.850   3.877   6.655  0.7013  0.2637 -1.8088
  805MOL0     H 6231   7.833   3.895   6.819  1.3570 -0.9749 -0.4004
  805MOL0     H 6232   8.072   4.008   6.676 -0.1106 -1.1943 -1.1854
  805MOL0     H 6233   8.033   4.033   6.854  0.5916 -1.9505  1.7757
  805MOL0     H 6234   8.205   3.857   6.799 -0.0279 -1.2848  1.0003
  805MOL0     H 6235   8.088   3.769   6.709 -0.3456 -0.1046  0.7781
  805MOL0     H 6236   8.068   3.677   6.934 -1.6827 -0.0129  1.5250
  805MOL0     H 6237   7.958   3.819   6.960  0.0283  0.1304  0.5503
  805MOL0     H 6238   8.251   3.795   7.026 -1.2101 -3.5971 -0.4392
  805MOL0     H 6239   8.165   3.949   7.028  0.6335  0.8538 -0.2729
  805MOL0     H 6240   8.167   3.791   7.259 -1.6060 -0.0953  1.5336
  805MOL0     H 6241   8.082   3.680   7.150 -1.9874  0.6329 -0.9915
  805MOL0     H 6242   7.518   4.045   7.105  0.1703 -0.5440 -1.2222
  805MOL0     H 6243   7.264   3.989   7.168 -2.1411  1.8481 -1.0870
  805MOL0     H 6244   6.790   4.117   7.094  1.5210 -0.9189  2.7874
  805MOL0     H 6245   6.537   4.069   7.068  0.5552  2.0419 -0.9413
  805MOL0     H 6246   5.192   3.092   6.429 -1.7326 -0.2698  0.0902
  805MOL0     H 6247   4.989   3.204   6.399  2.1100 -0.0353  1.3898
  805MOL0     H 6248   4.875   3.640   6.322  0.5090 -0.7283 -1.7066
  805MOL0     H 6249   4.657   3.784   6.339  0.5002  0.3682 -1.0077
  805MOL0     H 6250   4.287   3.629   6.144 -1.4638  0.8856  1.2141
  805MOL0     H 6251   4.339   3.763   6.037  0.4378  0.7466  0.2167
  805MOL0     H 6252   4.125   3.796   6.157  1.4954 -2.8961 -0.0010
  805MOL0     H 6253   4.207   3.797   6.314 -1.3848 -1.1461  0.1972
  805MOL0     H 6254   4.236   3.984   6.069  1.7380 -2.8075  0.5559
  805MOL0     H 6255   4.353   3.982   6.204  2.0517 -1.6723 -2.6826
  805MOL0     H 6256   4.052   4.047   6.220  0.8477 -1.8708 -2.8575
  805MOL0     H 6257   4.153   4.039   6.360 -1.5106 -2.7797 -0.1550
  805MOL0     H 6258   4.254   4.426   6.205  0.5019 -0.1640  2.9105
  805MOL0     H 6259   4.463   3.523   6.091 -0.5147 -2.6286  3.5941
  805MOL0     H 6260   4.680   3.381   6.051 -0.3521  0.1698 -0.6827
  806MOL0     O 6261   8.334   7.639   1.470  1.0425 -0.5130 -0.2287
  806MOL0     C 6262   8.381   7.586   1.571  0.6098  0.6799 -0.9040
  806MOL0     O 6263   8.311   7.525   1.674  0.0213  0.4936  0.1861
  806MOL0     C 6264   8.180   7.497   1.688 -0.5362  0.2841  0.4890
  806MOL0     C 6265   8.083   7.502   1.585  0.4196 -0.0557 -0.3113
  806MOL0     C 6266   7.945   7.469   1.615 -0.2781  0.5158  0.0915
  806MOL0     C 6267   7.914   7.416   1.744  0.2246 -0.8015  0.3508
  806MOL0     O 6268   7.776   7.394   1.770 -0.3001 -0.0447 -0.0241
  806MOL0     C 6269   7.721   7.288   1.703 -0.0036 -0.7500  0.0277
  806MOL0     C 6270   7.575   7.329   1.691  0.4822 -0.0806 -0.4962
  806MOL0     C 6271   7.485   7.200   1.664  0.3286  0.3677 -0.5098
  806MOL0     C 6272   7.348   7.236   1.649  1.0415  0.7340 -0.1125
  806MOL0     C 6273   7.268   7.105   1.633  0.3012  0.3928  0.1519
  806MOL0     C 6274   7.116   7.137   1.629 -0.9387 -0.4150 -0.4478
  806MOL0     C 6275   7.033   7.015   1.645  0.1748  0.2730  0.4908
  806MOL0     C 6276   6.885   7.043   1.649  0.3866 -0.5504 -0.1021
  806MOL0     N 6277   6.848   7.136   1.755  0.7413  0.2135 -0.1201
  806MOL0     C 6278   6.872   7.105   1.889  0.2979 -0.0728  0.1490
  806MOL0     C 6279   6.805   7.206   1.958 -0.5900 -0.0866  0.9477
  806MOL0     C 6280   6.805   7.202   2.097  0.3177 -0.7971  0.4087
  806MOL0     C 6281   6.943   7.237   2.163 -0.3259 -0.9619 -0.5109
  806MOL0     C 6282   6.994   7.376   2.130 -0.1806  0.4156  0.5448
  806MOL0     C 6283   7.137   7.387   2.182 -0.2126 -0.4646  0.2495
  806MOL0     O 6284   7.225   7.285   2.131 -0.8307 -0.4254  0.0489
  806MOL0     C 6285   7.353   7.317   2.161  0.3980  1.1308 -0.4566
  806MOL0     C 6286   7.402   7.318   2.295 -0.0712 -0.4121 -0.0365
  806MOL0     C 6287   7.529   7.357   2.324  0.0789  0.1680  0.1328
  806MOL0     C 6288   7.618   7.382   2.216  0.2730 -0.2133 -1.4172
  806MOL0     C 6289   7.765   7.407   2.236  0.3977 -0.4480  0.3400
  806MOL0     O 6290   7.815   7.389   2.363 -0.2521 -0.2366  0.5132
  806MOL0     C 6291   7.952   7.418   2.391 -0.0810 -0.2790 -0.8167
  806MOL0     C 6292   8.002   7.543   2.348  0.5214  0.0395  0.6500
  806MOL0     C 6293   8.135   7.575   2.391  0.8345 -0.6967  0.3181
  806MOL0     C 6294   8.207   7.511   2.477  0.6567  0.7861  0.6647
  806MOL0     O 6295   8.334   7.552   2.518  0.5123 -0.0140 -0.9547
  806MOL0     C 6296   8.405   7.657   2.455  0.0367  0.3098  0.2712
  806MOL0     C 6297   8.557   7.650   2.474  0.2918  0.2839 -0.2040
  806MOL0     C 6298   8.620   7.758   2.396 -0.2103 -0.6053  0.4406
  806MOL0     C 6299   8.765   7.766   2.438 -0.6052  0.0277  0.3527
  806MOL0     C 6300   8.822   7.894   2.373  0.1454 -0.8822 -0.9467
  806MOL0     C 6301   8.975   7.905   2.384 -0.2732 -0.2967  0.4286
  806MOL0     C 6302   9.039   7.817   2.267  0.4508 -0.0235 -0.7546
  806MOL0     C 6303   9.174   7.753   2.292  0.2632 -0.8353 -0.5743
  806MOL0    Cl 6304   9.287   7.898   2.277 -0.1864 -0.2079 -0.0221
  806MOL0     C 6305   8.153   7.389   2.517  0.6075  0.1700  0.2888
  806MOL0     C 6306   8.031   7.341   2.477  0.8060  0.7670  0.9437
  806MOL0     O 6307   7.824   7.450   2.138  0.6902 -0.4610 -0.5659
  806MOL0     C 6308   7.567   7.380   2.090  0.7489  1.2505  0.5505
  806MOL0     C 6309   7.435   7.350   2.052  0.0093 -0.1221  0.4083
  806MOL0     N 6310   6.720   7.275   1.874 -0.8566 -0.3723  0.4566
  806MOL0     N 6311   6.733   7.225   1.752  0.9853  0.0772 -0.2369
  806MOL0     C 6312   8.014   7.415   1.844 -0.2631 -0.3741 -0.1792
  806MOL0     C 6313   8.145   7.454   1.818  1.0091  0.3775 -0.4455
  806MOL0     C 6314   8.522   7.579   1.583 -0.2579  0.0042  0.7992
  806MOL0     C 6315   8.603   7.630   1.478 -0.3794  0.3435 -0.4079
  806MOL0     C 6316   8.738   7.630   1.476 -0.4453 -0.1384 -0.4464
  806MOL0     C 6317   8.810   7.573   1.584 -0.0408 -0.1484 -0.3544
  806MOL0     O 6318   8.951   7.583   1.597  0.3537 -0.2767 -0.4801
  806MOL0     C 6319   9.033   7.580   1.476  1.1111  0.7937 -0.3672
  806MOL0     C 6320   9.167   7.528   1.526 -0.8484 -0.0856 -0.6233
  806MOL0     C 6321   9.285   7.559   1.431  0.2162  0.1285  0.3348
  806MOL0     C 6322   9.273   7.497   1.288 -0.9303  0.5971  0.1717
  806MOL0     C 6323   9.194   7.569   1.189  0.0239  0.1154 -0.4296
  806MOL0     C 6324   9.142   7.615   1.089  0.9948  0.8904  0.8004
  806MOL0     C 6325   8.729   7.531   1.692 -0.6592 -0.2649  0.2561
  806MOL0     C 6326   8.591   7.529   1.697  0.2107  0.7614 -0.7845
  806MOL0     H 6327   8.105   7.540   1.485  3.5097  0.9351  0.6392
  806MOL0     H 6328   7.866   7.494   1.546 -0.7284  0.2011  0.4796
  806MOL0     H 6329   7.732   7.207   1.775  2.3755  0.1713  0.8087
  806MOL0     H 6330   7.769   7.272   1.606 -0.3871 -0.7762 -0.1600
  806MOL0     H 6331   7.562   7.398   1.607 -0.7388  0.3675  0.0431
  806MOL0     H 6332   7.545   7.376   1.785  2.5390  1.5815 -0.5887
  806MOL0     H 6333   7.499   7.131   1.748  2.0287 -0.9664 -1.8035
  806MOL0     H 6334   7.524   7.144   1.578  0.7999 -0.2903  0.1105
  806MOL0     H 6335   7.312   7.289   1.737 -0.5116 -0.0867 -0.2003
  806MOL0     H 6336   7.342   7.297   1.559  1.0115  1.9164  0.6742
  806MOL0     H 6337   7.282   7.026   1.708 -1.9477 -0.9636 -0.7208
  806MOL0     H 6338   7.294   7.060   1.536 -1.8421  0.3566 -0.4599
  806MOL0     H 6339   7.082   7.186   1.537 -2.5767  0.7119  0.7174
  806MOL0     H 6340   7.104   7.200   1.717 -0.8810  0.0048 -0.7398
  806MOL0     H 6341   7.043   6.960   1.551 -3.0013  1.3971 -0.6611
  806MOL0     H 6342   7.064   6.958   1.733 -0.0911  2.2692  1.9603
  806MOL0     H 6343   6.837   6.947   1.670  0.9922 -0.7691  0.3207
  806MOL0     H 6344   6.858   7.076   1.549  0.4728 -0.4680 -0.0989
  806MOL0     H 6345   6.942   7.030   1.925  0.1899  0.2907  1.1395
  806MOL0     H 6346   6.775   7.099   2.116 -3.0368  0.0685  0.5008
  806MOL0     H 6347   6.735   7.276   2.138  0.3343 -0.3768 -0.2996
  806MOL0     H 6348   7.019   7.169   2.123  2.3220  0.5943  1.5850
  806MOL0     H 6349   6.953   7.230   2.271  3.6525  3.3267 -0.2960
  806MOL0     H 6350   7.000   7.388   2.021 -1.8891  1.2043  0.4949
  806MOL0     H 6351   6.926   7.452   2.170 -3.0006 -1.4850 -0.3042
  806MOL0     H 6352   7.130   7.385   2.292 -0.8165 -1.6290  0.1993
  806MOL0     H 6353   7.185   7.484   2.162 -0.0570 -0.7558 -0.8056
  806MOL0     H 6354   7.332   7.309   2.378 -3.2834  0.4369 -2.4722
  806MOL0     H 6355   7.570   7.378   2.422  1.5045 -0.7872 -0.2323
  806MOL0     H 6356   7.937   7.596   2.278 -1.8394  1.4128  3.6337
  806MOL0     H 6357   8.168   7.665   2.340 -0.9810  0.3672  0.9039
  806MOL0     H 6358   8.371   7.752   2.497  0.3340  1.1106 -1.2510
  806MOL0     H 6359   8.375   7.647   2.351 -0.1271 -4.2387  0.5630
  806MOL0     H 6360   8.595   7.550   2.451  0.3541  0.2543  0.0189
  806MOL0     H 6361   8.577   7.651   2.582 -1.3051 -1.0581  0.1365
  806MOL0     H 6362   8.575   7.851   2.431  0.4836 -0.3736  0.7263
  806MOL0     H 6363   8.605   7.757   2.287  2.7669  0.1484 -0.0599
  806MOL0     H 6364   8.776   7.766   2.547  0.2407  2.2381  0.3042
  806MOL0     H 6365   8.815   7.677   2.399 -0.5697 -0.5674  1.7081
  806MOL0     H 6366   8.780   7.988   2.411  6.5887  1.0167  3.1937
  806MOL0     H 6367   8.789   7.900   2.269 -0.3509  2.9491 -0.7244
  806MOL0     H 6368   9.016   7.862   2.476 -0.1793 -1.7195 -0.2693
  806MOL0     H 6369   9.015   8.005   2.364 -1.0490  0.0375  0.5163
  806MOL0     H 6370   8.972   7.735   2.239  0.1032 -0.0656  0.1706
  806MOL0     H 6371   9.056   7.881   2.180  2.9411  1.1481  0.5149
  806MOL0     H 6372   9.195   7.682   2.212 -2.5379  0.7475 -2.9245
  806MOL0     H 6373   9.171   7.716   2.395 -1.2229  3.2616  1.0881
  806MOL0     H 6374   8.230   7.335   2.571  0.6199 -2.2638 -1.9370
  806MOL0     H 6375   7.987   7.254   2.524  3.5690 -0.5084  1.3685
  806MOL0     H 6376   7.646   7.379   2.015 -0.1936 -1.1083 -0.5054
  806MOL0     H 6377   7.413   7.343   1.946  0.2445  0.1197  0.3433
  806MOL0     H 6378   7.977   7.389   1.943 -1.9246  0.0361 -0.6548
  806MOL0     H 6379   8.218   7.461   1.898 -0.1549  1.3070  0.5727
  806MOL0     H 6380   8.561   7.676   1.390  2.3536 -0.3656 -2.2208
  806MOL0     H 6381   8.798   7.685   1.404 -3.4100 -1.3777 -4.2302
  806MOL0     H 6382   9.034   7.685   1.446 -2.1722  0.6145 -1.4410
  806MOL0     H 6383   8.988   7.513   1.402 -1.3335  2.1489 -0.2227
  806MOL0     H 6384   9.200   7.575   1.619  1.1697 -4.4392  1.1235
  806MOL0     H 6385   9.154   7.424   1.557 -1.9015  0.5672  1.2769
  806MOL0     H 6386   9.375   7.515   1.476 -0.0568  1.6864  2.5373
  806MOL0     H 6387   9.293   7.668   1.432 -1.2312  0.2694 -0.6272
  806MOL0     H 6388   9.377   7.480   1.262 -0.9908  0.0830  0.2407
  806MOL0     H 6389   9.235   7.395   1.299  1.1336 -0.2275 -0.0165
  806MOL0     H 6390   9.087   7.659   1.008  0.7148  1.2055  1.1575
  806MOL0     H 6391   8.778   7.488   1.779  2.7863 -0.4689 -1.6044
  806MOL0     H 6392   8.543   7.485   1.783  1.3391  2.2620  0.6709
  807MOL0     O 6393   2.426   3.807   7.216 -0.1209  0.0228 -0.1067
  807MOL0     C 6394   2.466   3.758   7.108 -0.1967 -0.0045 -0.2232
  807MOL0     O 6395   2.381   3.709   7.004 -0.6617  0.4920  0.0905
  807MOL0     C 6396   2.246   3.721   7.024  0.2192  0.1791  0.2483
  807MOL0     C 6397   2.182   3.844   6.982  0.8519  0.6629  0.4266
  807MOL0     C 6398   2.052   3.869   6.996  0.6191 -0.0317 -0.1651
  807MOL0     C 6399   1.971   3.775   7.071  0.0166  0.7923 -0.3658
  807MOL0     O 6400   1.834   3.776   7.112 -0.6900 -0.1263  0.5049
  807MOL0     C 6401   1.760   3.894   7.079  0.6641 -0.5535  0.2128
  807MOL0     C 6402   1.623   3.884   7.151  0.3642  0.1200 -0.2245
  807MOL0     C 6403   1.546   4.009   7.123 -0.3174  0.4792 -0.0232
  807MOL0     C 6404   1.394   4.002   7.174 -0.7648  0.3813 -0.4558
  807MOL0     C 6405   1.386   4.027   7.321  0.7505  0.9686 -0.4563
  807MOL0     C 6406   1.249   4.094   7.335 -0.0119  0.3406 -0.1322
  807MOL0     C 6407   1.228   4.153   7.468 -0.8125 -0.0809 -0.6886
  807MOL0     C 6408   1.099   4.230   7.480  0.0327  0.3236  0.2981
  807MOL0     N 6409   1.101   4.328   7.595  0.6729 -0.1417 -0.2787
  807MOL0     C 6410   1.034   4.302   7.715 -0.1501  0.0415  0.1345
  807MOL0     C 6411   1.049   4.413   7.784 -0.5265 -0.1967 -1.0346
  807MOL0     C 6412   0.996   4.437   7.923 -0.0483 -0.4406  0.3179
  807MOL0     C 6413   1.091   4.509   8.018  0.0256 -0.6742 -1.1826
  807MOL0     C 6414   1.064   4.492   8.162  0.1401 -0.1123  1.1218
  807MOL0     C 6415   0.939   4.543   8.224  0.6473  0.6560  0.1454
  807MOL0     O 6416   0.824   4.481   8.164 -1.0926  0.2301  0.0251
  807MOL0     C 6417   0.705   4.539   8.181 -0.1765 -0.2659 -0.0136
  807MOL0     C 6418   0.598   4.490   8.107  0.8696 -1.3547 -0.2849
  807MOL0     C 6419   0.466   4.533   8.122  0.1096 -0.8538 -0.0976
  807MOL0     C 6420   0.432   4.633   8.220  0.2178  1.1878  0.9424
  807MOL0     C 6421   0.288   4.667   8.247 -0.7179  0.1694  0.1137
  807MOL0     O 6422   0.265   4.784   8.319  0.4806 -0.1288  0.3521
  807MOL0     C 6423   0.140   4.810   8.371  0.1990  0.0501  0.1208
  807MOL0     C 6424   0.086   4.930   8.349  0.2512  0.1730  0.0981
  807MOL0     C 6425  -0.032   4.970   8.415 -0.3240  0.3084  0.0485
  807MOL0     C 6426  -0.104   4.881   8.503  0.0943 -0.4947  0.2663
  807MOL0     O 6427  -0.231   4.902   8.559 -0.4860  0.9440 -0.6158
  807MOL0     C 6428  -0.299   5.028   8.531 -0.3149 -0.9958  0.3058
  807MOL0     C 6429  -0.445   5.022   8.586 -0.3537  0.0491 -0.1213
  807MOL0     C 6430  -0.542   4.952   8.499  0.0730  0.1041  0.2474
  807MOL0     C 6431  -0.560   5.028   8.363 -0.0461  0.1231 -0.6352
  807MOL0     C 6432  -0.703   5.027   8.310  0.0976  0.5649  0.3958
  807MOL0     C 6433  -0.821   5.072   8.390 -0.4194  0.4030 -0.3284
  807MOL0     C 6434  -0.798   5.210   8.445  0.6024  0.4489 -0.7498
  807MOL0     C 6435  -0.913   5.237   8.550  0.4582  0.2785  0.4213
  807MOL0    Cl 6436  -1.075   5.247   8.470 -0.0396  0.3589  0.1768
  807MOL0     C 6437  -0.040   4.758   8.531 -1.0281  0.0363  0.2147
  807MOL0     C 6438   0.084   4.730   8.469  0.6603  0.4481  0.3022
  807MOL0     O 6439   0.203   4.585   8.200  0.3205 -0.6661  0.4873
  807MOL0     C 6440   0.540   4.698   8.285 -1.1083  0.0102  0.1390
  807MOL0     C 6441   0.676   4.651   8.269  0.4535 -0.0238 -0.7426
  807MOL0     N 6442   1.097   4.510   7.704 -1.1219 -0.6526  0.8694
  807MOL0     N 6443   1.124   4.461   7.592  0.1669  0.1224  0.0044
  807MOL0     C 6444   2.023   3.651   7.103  1.6629  0.1709 -0.2800
  807MOL0     C 6445   2.158   3.625   7.082 -0.3781 -0.3718 -0.0235
  807MOL0     C 6446   2.607   3.773   7.076 -0.2229 -0.4442 -0.1528
  807MOL0     C 6447   2.653   3.719   6.960  0.3689 -0.3977 -0.3624
  807MOL0     C 6448   2.787   3.735   6.923 -0.6445 -0.1882  0.7564
  807MOL0     C 6449   2.884   3.783   7.014  0.4998 -0.0511  0.0709
  807MOL0     O 6450   3.016   3.768   6.972 -0.5265  0.3246  0.1372
  807MOL0     C 6451   3.113   3.815   7.065  0.9408 -0.4655  0.1581
  807MOL0     C 6452   3.256   3.775   7.023 -0.1689  1.2273 -0.2158
  807MOL0     C 6453   3.352   3.871   7.096 -0.2537  0.1135 -0.1613
  807MOL0     C 6454   3.498   3.843   7.059 -0.1130  0.2537  0.1705
  807MOL0     C 6455   3.532   3.846   6.914 -0.6577 -0.6280  0.4981
  807MOL0     C 6456   3.572   3.848   6.797 -0.8070 -0.6250  0.4191
  807MOL0     C 6457   2.833   3.833   7.134  0.2653  0.3480  0.0659
  807MOL0     C 6458   2.702   3.823   7.169  0.2120  0.1993 -0.0572
  807MOL0     H 6459   2.230   3.933   6.942 -0.9586  1.3813 -0.2704
  807MOL0     H 6460   2.003   3.961   6.963 -1.8776 -2.2861 -3.3551
  807MOL0     H 6461   1.751   3.924   6.975  2.1888  1.7009  0.6571
  807MOL0     H 6462   1.814   3.979   7.121 -0.5815  1.7815 -2.5471
  807MOL0     H 6463   1.630   3.864   7.259 -0.7480 -0.1192 -0.1883
  807MOL0     H 6464   1.580   3.792   7.111  0.3146 -0.1588  0.4590
  807MOL0     H 6465   1.542   4.019   7.015 -2.5709 -0.9722 -0.1644
  807MOL0     H 6466   1.598   4.088   7.176 -1.2260  0.0353  1.6157
  807MOL0     H 6467   1.338   4.081   7.124 -3.2375  1.3611  3.3926
  807MOL0     H 6468   1.353   3.906   7.142  0.3915 -0.6710  1.0324
  807MOL0     H 6469   1.461   4.097   7.359 -0.4777  1.8009  0.5033
  807MOL0     H 6470   1.413   3.938   7.378  0.8491  0.3607 -1.4141
  807MOL0     H 6471   1.162   4.028   7.327  0.2093 -0.4886  2.9410
  807MOL0     H 6472   1.239   4.177   7.265 -0.1764 -2.2582 -3.4253
  807MOL0     H 6473   1.223   4.086   7.554 -3.2976  1.8934  0.8519
  807MOL0     H 6474   1.315   4.218   7.487  0.2660 -1.3973 -0.9713
  807MOL0     H 6475   1.009   4.169   7.489 -0.4680  1.1705  1.2187
  807MOL0     H 6476   1.091   4.292   7.390  1.3678 -0.2173 -0.2141
  807MOL0     H 6477   0.991   4.210   7.754 -1.5162  0.8420  0.5565
  807MOL0     H 6478   0.964   4.346   7.975  1.7889  1.9397  6.5704
  807MOL0     H 6479   0.904   4.497   7.911  0.4003 -0.0965 -1.7352
  807MOL0     H 6480   1.094   4.616   7.997  1.3471 -0.7407 -1.4341
  807MOL0     H 6481   1.191   4.470   7.994  1.2508  0.4386  1.7165
  807MOL0     H 6482   1.081   4.386   8.180 -0.1920 -0.9104 -2.4783
  807MOL0     H 6483   1.152   4.537   8.209  2.3705 -2.5300 -0.4417
  807MOL0     H 6484   0.942   4.653   8.222  1.6680  0.6260 -0.4783
  807MOL0     H 6485   0.931   4.513   8.329 -0.9984 -3.5434 -1.0029
  807MOL0     H 6486   0.619   4.413   8.034  0.3581 -0.1300 -1.7822
  807MOL0     H 6487   0.390   4.469   8.077  0.4374 -3.1402  2.3322
  807MOL0     H 6488   0.140   5.005   8.292  3.2507 -0.8317  1.3990
  807MOL0     H 6489  -0.059   5.072   8.391 -2.2756  0.2902  1.9156
  807MOL0     H 6490  -0.308   5.038   8.423  0.4294 -0.2511  0.3000
  807MOL0     H 6491  -0.248   5.120   8.561  1.7501 -1.3578 -1.8308
  807MOL0     H 6492  -0.473   5.127   8.591 -1.5837  0.1942 -5.2239
  807MOL0     H 6493  -0.435   4.969   8.681  0.8372  2.0718  0.9464
  807MOL0     H 6494  -0.641   4.933   8.542  0.5047 -0.4895  1.0106
  807MOL0     H 6495  -0.513   4.849   8.477 -2.2014 -0.7916  1.1389
  807MOL0     H 6496  -0.528   5.132   8.374 -3.7333  1.3729 -0.6468
  807MOL0     H 6497  -0.502   4.984   8.282  0.2708  2.6448 -1.8769
  807MOL0     H 6498  -0.729   4.923   8.288  2.0356 -0.3504  2.1205
  807MOL0     H 6499  -0.688   5.074   8.212  1.1102  0.3562  0.4433
  807MOL0     H 6500  -0.830   5.005   8.476 -2.2298  2.9968  1.6411
  807MOL0     H 6501  -0.914   5.065   8.331 -1.0622  1.1560  0.5652
  807MOL0     H 6502  -0.704   5.230   8.497 -0.2845  0.8411  0.7666
  807MOL0     H 6503  -0.808   5.273   8.356  0.3771  0.1377 -0.9424
  807MOL0     H 6504  -0.897   5.333   8.600  0.4774  0.7065 -0.3873
  807MOL0     H 6505  -0.919   5.165   8.632 -1.2639 -0.1048  0.0024
  807MOL0     H 6506  -0.070   4.689   8.609 -0.6670  0.0166  0.3399
  807MOL0     H 6507   0.137   4.638   8.492  1.6756  0.0321 -3.2008
  807MOL0     H 6508   0.515   4.776   8.356  0.7148  1.8777 -1.1682
  807MOL0     H 6509   0.749   4.693   8.337  1.9155 -3.6940  0.1942
  807MOL0     H 6510   1.962   3.595   7.174  1.8794 -1.1409 -1.0910
  807MOL0     H 6511   2.198   3.530   7.114 -0.9607 -0.6578 -0.1311
  807MOL0     H 6512   2.586   3.667   6.892 -3.4090  1.9494  1.2847
  807MOL0     H 6513   2.822   3.704   6.825  1.2100 -1.0689  1.6439
  807MOL0     H 6514   3.101   3.783   7.169 -0.5553 -0.0434  0.1335
  807MOL0     H 6515   3.118   3.924   7.056  1.0806 -0.3270  1.6089
  807MOL0     H 6516   3.265   3.670   7.051  0.5882  1.1536 -0.7140
  807MOL0     H 6517   3.264   3.786   6.915  0.7970  1.7733 -0.1062
  807MOL0     H 6518   3.348   3.853   7.204  1.1930  1.5708  0.1707
  807MOL0     H 6519   3.327   3.976   7.083 -0.6166  0.8665  4.7563
  807MOL0     H 6520   3.562   3.901   7.126 -2.7879  0.6743  2.5362
  807MOL0     H 6521   3.530   3.743   7.089 -0.4810  0.0936  0.0337
  807MOL0     H 6522   3.628   3.847   6.706 -1.2828 -1.9876  0.1092
  807MOL0     H 6523   2.901   3.869   7.211  0.5424 -2.2469  1.1425
  807MOL0     H 6524   2.683   3.859   7.269  0.0551 -0.1003  0.0227
  808MOL0     O 6525   3.623   4.698   9.691 -0.6913 -0.4949  0.5480
  808MOL0     C 6526   3.683   4.802   9.653 -0.1215  0.6581  0.0882
  808MOL0     O 6527   3.631   4.922   9.615  0.7668  0.7599  0.4766
  808MOL0     C 6528   3.507   4.965   9.656 -0.2435  0.4175  0.4315
  808MOL0     C 6529   3.431   5.060   9.575 -0.4130  1.2186 -0.2567
  808MOL0     C 6530   3.294   5.087   9.599 -0.5390 -0.7078 -0.3550
  808MOL0     C 6531   3.237   5.043   9.723 -0.0531  0.0653 -0.3376
  808MOL0     O 6532   3.117   5.103   9.749  0.6360  0.9741  0.1084
  808MOL0     C 6533   3.047   5.068   9.867 -0.0092 -0.7857 -0.5626
  808MOL0     C 6534   2.977   4.943   9.832  1.0237  0.4005  0.4405
  808MOL0     C 6535   2.886   4.892   9.950  0.1444 -0.0171 -0.0942
  808MOL0     C 6536   2.848   4.739   9.926  0.9555  0.2222  0.2164
  808MOL0     C 6537   2.775   4.671  10.044  0.5577 -0.5723 -0.9789
  808MOL0     C 6538   2.642   4.728  10.091 -0.1174 -0.0795 -0.1510
  808MOL0     C 6539   2.578   4.667  10.216  0.5729 -0.6569  0.0358
  808MOL0     C 6540   2.493   4.549  10.179 -0.3940 -0.1250  0.1411
  808MOL0     N 6541   2.432   4.497  10.303 -0.2120  0.2748  1.3207
  808MOL0     C 6542   2.318   4.547  10.363  0.2581 -0.6545  0.1456
  808MOL0     C 6543   2.313   4.470  10.480  0.3479 -0.0663  0.4538
  808MOL0     C 6544   2.203   4.473  10.592 -0.2906  0.4104  0.5025
  808MOL0     C 6545   2.081   4.379  10.546 -0.0500 -0.7177  0.1050
  808MOL0     C 6546   1.965   4.378  10.657  0.6623 -0.0442  0.3966
  808MOL0     C 6547   1.896   4.512  10.673 -0.4272  0.3888  0.8526
  808MOL0     O 6548   1.801   4.497  10.774 -0.3296 -0.3112  0.0514
  808MOL0     C 6549   1.705   4.593  10.791 -0.4465 -0.1079 -0.3511
  808MOL0     C 6550   1.731   4.731  10.783 -0.3999  0.1838  0.2771
  808MOL0     C 6551   1.639   4.824  10.828  0.7349  0.7233 -0.8081
  808MOL0     C 6552   1.511   4.784  10.883 -0.7395  0.1170  0.3509
  808MOL0     C 6553   1.413   4.880  10.938 -0.7034  0.2933  0.1046
  808MOL0     O 6554   1.341   4.842  11.048 -0.5388 -0.0737  0.0254
  808MOL0     C 6555   1.241   4.934  11.084 -1.0770  0.3620 -0.8036
  808MOL0     C 6556   1.240   5.002  11.208  0.3620  0.3805  0.9528
  808MOL0     C 6557   1.128   5.070  11.245 -0.6572 -0.0358  0.1728
  808MOL0     C 6558   1.023   5.084  11.147  0.0423  1.1408 -0.3839
  808MOL0     O 6559   0.909   5.155  11.192 -0.8282 -0.5180  0.5320
  808MOL0     C 6560   0.911   5.285  11.126  0.0691 -0.7580  0.8571
  808MOL0     C 6561   0.811   5.372  11.209 -1.2012  0.5864 -0.7297
  808MOL0     C 6562   0.675   5.380  11.165  0.2840  0.2667 -0.2048
  808MOL0     C 6563   0.588   5.448  11.283  0.9697 -0.3522 -0.4463
  808MOL0     C 6564   0.439   5.435  11.249 -0.4635 -0.5807  0.4013
  808MOL0     C 6565   0.373   5.528  11.147 -0.7040  0.0670  0.6106
  808MOL0     C 6566   0.240   5.460  11.086  0.1500  0.5370  0.0235
  808MOL0     C 6567   0.187   5.559  10.976 -0.2495 -0.5493  0.0388
  808MOL0    Cl 6568   0.113   5.711  11.031 -0.0747  0.2306 -0.2474
  808MOL0     C 6569   1.016   5.001  11.039 -0.1699 -0.6596  0.0585
  808MOL0     C 6570   1.124   4.937  11.000 -0.2888  0.5410 -0.5239
  808MOL0     O 6571   1.422   4.995  10.896  0.0049 -0.0856  0.1296
  808MOL0     C 6572   1.490   4.649  10.902  0.3845  0.4260 -0.0866
  808MOL0     C 6573   1.583   4.556  10.851  0.3529 -1.3229  0.0513
  808MOL0     N 6574   2.412   4.379  10.477  0.4153  0.1465  0.4901
  808MOL0     N 6575   2.488   4.398  10.380 -0.2258  0.2977  0.1911
  808MOL0     C 6576   3.311   4.958   9.802 -0.2843 -0.0609 -0.4391
  808MOL0     C 6577   3.450   4.921   9.776  0.2923  0.9814 -0.7150
  808MOL0     C 6578   3.831   4.786   9.650  0.5429 -0.0514  0.1348
  808MOL0     C 6579   3.889   4.658   9.665 -0.6232 -0.8340  1.1593
  808MOL0     C 6580   4.027   4.651   9.648 -0.7018 -0.5698  0.9850
  808MOL0     C 6581   4.113   4.754   9.599 -0.1231  0.0279 -0.5963
  808MOL0     O 6582   4.252   4.761   9.589 -0.8391  0.2490  0.7964
  808MOL0     C 6583   4.306   4.625   9.589  0.7228 -0.5387  0.2337
  808MOL0     C 6584   4.455   4.626   9.556  0.1206 -0.3113  0.5860
  808MOL0     C 6585   4.518   4.485   9.541  0.0229 -0.9529  1.0990
  808MOL0     C 6586   4.643   4.490   9.455 -0.5654 -1.1505  0.4070
  808MOL0     C 6587   4.624   4.539   9.316 -0.0888 -0.0389 -0.1006
  808MOL0     C 6588   4.616   4.576   9.196  0.5737 -0.4192  0.1172
  808MOL0     C 6589   4.052   4.875   9.577 -0.0573 -0.0028 -0.6858
  808MOL0     C 6590   3.919   4.897   9.611 -0.5382  0.8996  0.2213
  808MOL0     H 6591   3.487   5.102   9.493  0.6046  0.0848 -0.1646
  808MOL0     H 6592   3.233   5.151   9.536 -0.6336  2.7876  2.9388
  808MOL0     H 6593   2.979   5.152   9.886  0.0774 -0.8312 -0.0063
  808MOL0     H 6594   3.111   5.063   9.956  1.0253  2.2749 -1.0208
  808MOL0     H 6595   3.049   4.862   9.823 -0.2437 -1.1024  2.8524
  808MOL0     H 6596   2.923   4.964   9.739  1.1580 -1.4184 -0.0850
  808MOL0     H 6597   2.798   4.956   9.961  0.7481  0.9400 -0.7098
  808MOL0     H 6598   2.937   4.879  10.046  0.8635 -3.9717 -0.8645
  808MOL0     H 6599   2.807   4.718   9.827  0.7619 -0.6221  0.4596
  808MOL0     H 6600   2.936   4.674   9.932 -1.7343 -3.7606  0.7483
  808MOL0     H 6601   2.843   4.679  10.130  1.9372 -1.2045 -1.9693
  808MOL0     H 6602   2.753   4.565  10.028  0.5316 -1.0114  1.4645
  808MOL0     H 6603   2.583   4.729   9.999  1.7790 -1.1323 -1.4624
  808MOL0     H 6604   2.655   4.836  10.108 -0.0764  0.1131 -1.3039
  808MOL0     H 6605   2.664   4.633  10.274  1.3046 -0.4248 -0.8834
  808MOL0     H 6606   2.520   4.737  10.277 -1.8811  0.5760 -3.3730
  808MOL0     H 6607   2.556   4.469  10.138 -0.7556 -2.4810  3.7261
  808MOL0     H 6608   2.418   4.581  10.105 -0.3652 -0.0414  0.1478
  808MOL0     H 6609   2.252   4.622  10.322 -0.1870  0.8278  3.2445
  808MOL0     H 6610   2.168   4.573  10.619  0.8709  0.4871  1.8006
  808MOL0     H 6611   2.253   4.436  10.682  0.1102  3.3546  1.6286
  808MOL0     H 6612   2.114   4.276  10.533  1.7461 -0.0369 -1.0595
  808MOL0     H 6613   2.046   4.423  10.452  1.3293  1.8408  0.6736
  808MOL0     H 6614   1.896   4.297  10.629  0.3993 -0.0537  1.0695
  808MOL0     H 6615   2.015   4.352  10.750 -0.2420 -1.4163  0.5258
  808MOL0     H 6616   1.849   4.536  10.577  0.5517 -0.0134  0.2567
  808MOL0     H 6617   1.966   4.589  10.706  0.3475 -0.3333  0.9251
  808MOL0     H 6618   1.826   4.772  10.749 -1.7085  2.7568 -0.5056
  808MOL0     H 6619   1.655   4.931  10.818  0.6127  0.8763  0.3894
  808MOL0     H 6620   1.315   4.996  11.286 -0.3697 -1.0204  1.6010
  808MOL0     H 6621   1.118   5.135  11.331  0.6867 -0.1689  0.4467
  808MOL0     H 6622   0.883   5.269  11.022  0.6012 -2.6033  0.9659
  808MOL0     H 6623   1.008   5.334  11.110 -2.2247  3.2305 -2.9818
  808MOL0     H 6624   0.860   5.469  11.204  4.4763 -1.7736  0.7658
  808MOL0     H 6625   0.817   5.333  11.311  1.2197 -0.5557 -1.2266
  808MOL0     H 6626   0.639   5.279  11.145 -3.0642  1.6889 -2.4016
  808MOL0     H 6627   0.664   5.432  11.069  0.7177  0.6223 -0.0683
  808MOL0     H 6628   0.592   5.397  11.379  1.3729  3.0545  1.5047
  808MOL0     H 6629   0.604   5.556  11.293 -1.3794  0.0261 -0.1838
  808MOL0     H 6630   0.392   5.436  11.348  0.0265  0.5816  0.6388
  808MOL0     H 6631   0.437   5.335  11.205  2.7796 -0.5392 -0.0626
  808MOL0     H 6632   0.447   5.552  11.070 -2.3163 -0.0857 -1.0474
  808MOL0     H 6633   0.344   5.616  11.205  0.1708 -0.0294  1.2050
  808MOL0     H 6634   0.267   5.368  11.034 -2.0706 -1.5685  2.3226
  808MOL0     H 6635   0.164   5.462  11.164 -1.1292  1.8129 -1.2032
  808MOL0     H 6636   0.112   5.511  10.912 -1.6766  1.3004  0.2432
  808MOL0     H 6637   0.275   5.588  10.918 -1.6472  2.9652 -0.5989
  808MOL0     H 6638   0.935   5.022  10.969  1.0093  0.9543 -0.8829
  808MOL0     H 6639   1.125   4.872  10.913  1.5384 -0.7440  0.3876
  808MOL0     H 6640   1.393   4.626  10.945 -0.2216 -0.1936 -1.6959
  808MOL0     H 6641   1.563   4.450  10.864  1.5845 -1.6838 -0.8352
  808MOL0     H 6642   3.269   4.920   9.895  1.8904 -0.8680  0.2912
  808MOL0     H 6643   3.501   4.844   9.834  0.0155 -1.0577 -3.0114
  808MOL0     H 6644   3.831   4.571   9.693 -2.6509 -1.2811 -3.5752
  808MOL0     H 6645   4.070   4.561   9.692  0.5533  0.2630  1.5275
  808MOL0     H 6646   4.242   4.567   9.522 -3.4312 -0.4835  3.7320
  808MOL0     H 6647   4.293   4.585   9.690 -3.1635 -1.7512 -0.5773
  808MOL0     H 6648   4.477   4.697   9.476  0.3691 -1.0135  0.0286
  808MOL0     H 6649   4.518   4.678   9.629  0.2781  1.3169 -0.6521
  808MOL0     H 6650   4.453   4.412   9.491  0.5096 -0.1419 -0.8011
  808MOL0     H 6651   4.543   4.437   9.636 -1.1441 -2.4490  0.6920
  808MOL0     H 6652   4.709   4.558   9.509  0.6923 -0.9277 -1.3330
  808MOL0     H 6653   4.696   4.394   9.452  1.5391 -0.0490 -2.7591
  808MOL0     H 6654   4.603   4.608   9.095 -1.2039  0.6568  0.6410
  808MOL0     H 6655   4.114   4.956   9.540 -1.4399  2.7401  2.4419
  808MOL0     H 6656   3.876   4.996   9.621 -4.5219 -0.6516  0.1867
  809MOL0     O 6657   1.300   5.130   7.410 -0.8001 -0.3470  0.4030
  809MOL0     C 6658   1.384   5.166   7.322  0.2865 -0.1462 -0.4768
  809MOL0     O 6659   1.354   5.165   7.194  0.4959  0.1399  0.4031
  809MOL0     C 6660   1.222   5.161   7.155 -0.5637 -0.4755 -0.9536
  809MOL0     C 6661   1.124   5.247   7.215 -0.1253 -0.4356 -0.2801
  809MOL0     C 6662   0.993   5.239   7.175  0.1028 -0.1354  0.8571
  809MOL0     C 6663   0.954   5.157   7.066 -0.3585 -0.2687 -0.1355
  809MOL0     O 6664   0.822   5.163   7.022 -0.1925  0.2390  0.0057
  809MOL0     C 6665   0.752   5.032   7.023  0.0373  0.1371 -0.1574
  809MOL0     C 6666   0.724   4.964   7.150 -0.1686  0.0828  0.0125
  809MOL0     C 6667   0.622   4.854   7.156 -0.5233 -1.1745 -0.5680
  809MOL0     C 6668   0.485   4.896   7.086 -0.5639  0.0786 -0.3703
  809MOL0     C 6669   0.382   4.773   7.091  0.0607 -0.2092 -0.4980
  809MOL0     C 6670   0.254   4.788   7.000  0.6134 -0.4846 -0.6236
  809MOL0     C 6671   0.179   4.924   7.018 -0.7779  0.6345  0.7359
  809MOL0     C 6672   0.109   4.946   7.156 -0.2445  0.1500  1.0326
  809MOL0     N 6673   0.204   4.995   7.262  0.0703  0.5854 -0.5658
  809MOL0     C 6674   0.256   4.925   7.378  1.2764  0.3263  0.8309
  809MOL0     C 6675   0.337   5.004   7.438  1.2451  0.3256 -0.0020
  809MOL0     C 6676   0.414   4.959   7.559  0.0131 -0.6124 -0.4671
  809MOL0     C 6677   0.318   4.950   7.678 -0.0048 -0.2197 -0.9304
  809MOL0     C 6678   0.397   4.891   7.797  0.2442 -0.2443  0.5243
  809MOL0     C 6679   0.488   4.764   7.767  0.6987  0.5383 -0.4535
  809MOL0     O 6680   0.409   4.647   7.733  0.1342  1.0799 -0.7093
  809MOL0     C 6681   0.472   4.524   7.703 -0.3795  0.1725 -0.1155
  809MOL0     C 6682   0.389   4.418   7.679  0.2114  0.1933 -0.3182
  809MOL0     C 6683   0.439   4.292   7.645 -1.5885  0.2841  0.2079
  809MOL0     C 6684   0.578   4.272   7.635  0.1060  0.2113  0.0143
  809MOL0     C 6685   0.633   4.142   7.602  0.3583 -0.7021  1.2759
  809MOL0     O 6686   0.755   4.098   7.649  0.1224  0.4183 -0.5382
  809MOL0     C 6687   0.837   4.000   7.596  0.1979  1.0105  0.1074
  809MOL0     C 6688   0.801   3.923   7.473  0.9100  0.5936 -0.3913
  809MOL0     C 6689   0.889   3.826   7.422 -0.6596 -0.5856  0.3293
  809MOL0     C 6690   1.014   3.811   7.490 -0.6124 -0.2561  1.0417
  809MOL0     O 6691   1.121   3.740   7.451 -0.0569 -0.2982 -0.4972
  809MOL0     C 6692   1.153   3.747   7.312  0.2434  0.4790  1.2094
  809MOL0     C 6693   1.198   3.606   7.263  0.5872 -0.3329 -0.4092
  809MOL0     C 6694   1.345   3.573   7.291  1.6619  0.3704  0.2805
  809MOL0     C 6695   1.399   3.466   7.189 -0.2592 -0.3306  0.4185
  809MOL0     C 6696   1.543   3.422   7.228  0.7979 -0.3987 -0.3692
  809MOL0     C 6697   1.621   3.362   7.106  0.2139  0.5138 -0.3607
  809MOL0     C 6698   1.755   3.292   7.133  0.5572 -0.5625 -0.7706
  809MOL0     C 6699   1.766   3.192   7.254 -0.0004  0.2628 -0.0014
  809MOL0    Cl 6700   1.943   3.149   7.243  0.1100 -0.7638 -0.1088
  809MOL0     C 6701   1.040   3.879   7.607 -0.7824 -0.4608 -0.1128
  809MOL0     C 6702   0.956   3.974   7.654 -0.4153 -0.9493 -1.0605
  809MOL0     O 6703   0.558   4.070   7.536  0.3233 -0.3142 -0.0888
  809MOL0     C 6704   0.657   4.386   7.662  0.7353  0.7364 -0.2655
  809MOL0     C 6705   0.610   4.511   7.699 -0.0920  0.0244 -0.5408
  809MOL0     N 6706   0.333   5.119   7.368  0.3783 -0.3119 -0.9168
  809MOL0     N 6707   0.264   5.114   7.258  0.3717 -0.8622  0.5993
  809MOL0     C 6708   1.055   5.083   6.992  0.4836 -0.0242 -0.0524
  809MOL0     C 6709   1.190   5.094   7.043 -0.3414 -0.5639  1.0244
  809MOL0     C 6710   1.511   5.220   7.371  0.5446 -0.5736 -0.1773
  809MOL0     C 6711   1.529   5.261   7.506  0.2775 -0.7759  0.0496
  809MOL0     C 6712   1.647   5.313   7.549  0.1265 -0.0803 -0.3626
  809MOL0     C 6713   1.755   5.334   7.443  0.2698  1.1239  0.9847
  809MOL0     O 6714   1.871   5.392   7.482  0.5787 -0.1055  0.7194
  809MOL0     C 6715   1.912   5.392   7.625 -0.0740 -0.7364  0.1961
  809MOL0     C 6716   2.043   5.457   7.631 -0.4771 -0.0733  0.2671
  809MOL0     C 6717   2.146   5.343   7.599  0.7568  0.6789  0.3157
  809MOL0     C 6718   2.287   5.407   7.588  0.1523  0.7434 -0.2065
  809MOL0     C 6719   2.388   5.302   7.573  0.3667  0.1745 -0.4342
  809MOL0     C 6720   2.458   5.205   7.571  0.9237 -0.3533 -0.6839
  809MOL0     C 6721   1.742   5.287   7.313  0.2991 -0.7708  1.1800
  809MOL0     C 6722   1.618   5.231   7.277 -0.3777  0.8238 -0.0088
  809MOL0     H 6723   1.141   5.319   7.293 -2.0411  1.7104 -1.7221
  809MOL0     H 6724   0.920   5.303   7.223  2.3856  0.9599  3.1301
  809MOL0     H 6725   0.805   4.967   6.952 -3.9381  0.2655 -3.6553
  809MOL0     H 6726   0.660   5.045   6.966 -0.4490 -0.5511  0.4521
  809MOL0     H 6727   0.702   5.050   7.213  1.8765 -0.8822  2.2046
  809MOL0     H 6728   0.811   4.911   7.190 -3.1365 -3.6812  2.1662
  809MOL0     H 6729   0.598   4.837   7.262 -1.6797  0.7427 -0.4803
  809MOL0     H 6730   0.661   4.761   7.114  3.0734  0.1652 -0.4690
  809MOL0     H 6731   0.458   4.979   7.151  2.1680  0.9141 -0.2003
  809MOL0     H 6732   0.501   4.911   6.979 -2.1404  0.5389 -0.5610
  809MOL0     H 6733   0.345   4.752   7.191 -1.2170  0.2634 -0.8525
  809MOL0     H 6734   0.437   4.682   7.065  1.5952 -0.4967  3.1887
  809MOL0     H 6735   0.183   4.706   7.006 -0.7946  0.7607  1.1660
  809MOL0     H 6736   0.271   4.795   6.892 -2.1868  1.3590 -1.0649
  809MOL0     H 6737   0.246   5.010   7.002  0.4465 -0.5977 -1.2472
  809MOL0     H 6738   0.097   4.926   6.944 -1.2762 -1.0035  1.2103
  809MOL0     H 6739   0.072   4.849   7.189 -1.3786 -0.2398 -1.1977
  809MOL0     H 6740   0.030   5.021   7.138  0.0437  0.3280  0.4820
  809MOL0     H 6741   0.222   4.828   7.413  0.5084  0.0895 -0.5343
  809MOL0     H 6742   0.493   5.034   7.574 -2.2717  2.1364 -1.3733
  809MOL0     H 6743   0.464   4.863   7.540 -0.2925 -0.6206 -1.2663
  809MOL0     H 6744   0.246   4.872   7.652  1.5734 -1.8390 -0.6814
  809MOL0     H 6745   0.275   5.049   7.691  3.5237  1.3838 -0.0837
  809MOL0     H 6746   0.455   4.974   7.839  0.8077 -1.1017  1.4868
  809MOL0     H 6747   0.322   4.865   7.872 -0.3558  0.6976  0.2682
  809MOL0     H 6748   0.540   4.745   7.862 -1.8967 -1.3019  0.7362
  809MOL0     H 6749   0.561   4.772   7.686  0.3843 -2.8661 -1.2474
  809MOL0     H 6750   0.283   4.429   7.694  0.0405 -2.5006  1.2186
  809MOL0     H 6751   0.367   4.211   7.637 -1.3754 -0.0976  1.8809
  809MOL0     H 6752   0.705   3.930   7.423  1.6843 -1.7884 -2.4191
  809MOL0     H 6753   0.849   3.761   7.344 -0.9343  2.1519 -1.9596
  809MOL0     H 6754   1.238   3.814   7.298  1.5405 -1.5449 -1.5820
  809MOL0     H 6755   1.079   3.781   7.239 -0.6800 -1.8116  0.9804
  809MOL0     H 6756   1.191   3.616   7.155 -2.0446  0.9465 -0.2165
  809MOL0     H 6757   1.123   3.534   7.297 -3.8222  2.9507 -2.0286
  809MOL0     H 6758   1.357   3.546   7.396 -1.1890 -1.5631  0.2286
  809MOL0     H 6759   1.406   3.663   7.276  1.7868  0.1082 -0.9075
  809MOL0     H 6760   1.329   3.382   7.192 -1.0537  0.2776 -0.6211
  809MOL0     H 6761   1.400   3.503   7.086 -1.9763 -0.7985  0.1998
  809MOL0     H 6762   1.539   3.357   7.316 -1.2748  2.2420  1.6673
  809MOL0     H 6763   1.583   3.511   7.280 -0.9533 -0.4638  1.1801
  809MOL0     H 6764   1.625   3.438   7.028 -2.1457 -0.0040 -1.0775
  809MOL0     H 6765   1.552   3.288   7.063  2.6735 -0.5176 -2.8552
  809MOL0     H 6766   1.796   3.248   7.041  1.9572 -0.7411 -0.0927
  809MOL0     H 6767   1.821   3.377   7.155 -0.2918  0.1211 -0.8265
  809MOL0     H 6768   1.701   3.104   7.245 -0.4690  0.7045 -1.0969
  809MOL0     H 6769   1.752   3.245   7.348 -1.5494 -0.1493  0.0292
  809MOL0     H 6770   1.136   3.863   7.655  0.2255 -0.2640 -1.9947
  809MOL0     H 6771   0.990   4.024   7.744 -0.5393 -1.6011 -0.6465
  809MOL0     H 6772   0.763   4.366   7.653  1.1324  1.8771  1.3677
  809MOL0     H 6773   0.674   4.593   7.730  0.4610 -1.5962  3.1647
  809MOL0     H 6774   1.024   5.038   6.899  1.2561  1.9616 -1.3264
  809MOL0     H 6775   1.266   5.049   6.981 -0.4646  1.1088 -0.4451
  809MOL0     H 6776   1.442   5.254   7.570  0.2984  0.1415  0.2005
  809MOL0     H 6777   1.672   5.323   7.654 -2.0073 -2.7977  0.5444
  809MOL0     H 6778   1.919   5.290   7.665  0.2980 -0.2481  1.4328
  809MOL0     H 6779   1.843   5.444   7.691 -0.6186 -0.3963 -0.6331
  809MOL0     H 6780   2.053   5.534   7.554  2.9385 -0.2726  0.3557
  809MOL0     H 6781   2.068   5.499   7.729 -0.8935  2.7752 -0.7718
  809MOL0     H 6782   2.117   5.288   7.509  0.1198 -2.0376  2.0843
  809MOL0     H 6783   2.144   5.258   7.667 -0.6328  0.4995  0.0939
  809MOL0     H 6784   2.286   5.477   7.504 -2.5955  2.1433  0.8825
  809MOL0     H 6785   2.299   5.471   7.676 -1.9167  1.8615 -0.6766
  809MOL0     H 6786   2.521   5.119   7.559  1.6206  0.1077 -0.4607
  809MOL0     H 6787   1.820   5.279   7.238 -1.1058 -0.7676 -0.3222
  809MOL0     H 6788   1.594   5.190   7.179 -0.8174 -1.8063  1.1113
  810MOL0     O 6789   3.729   9.219   7.541 -0.2021 -0.5073 -0.3796
  810MOL0     C 6790   3.611   9.260   7.563 -0.2194  0.5675  0.2135
  810MOL0     O 6791   3.537   9.224   7.673 -0.5304  0.7799 -0.1124
  810MOL0     C 6792   3.588   9.115   7.736  0.0820  0.1771 -0.4694
  810MOL0     C 6793   3.706   9.111   7.810 -0.4826 -0.7524  0.5883
  810MOL0     C 6794   3.742   9.009   7.894  0.7702 -0.2710  0.4268
  810MOL0     C 6795   3.662   8.892   7.885  0.4803 -0.4894  0.6729
  810MOL0     O 6796   3.676   8.780   7.962  0.1461 -1.3477 -0.0581
  810MOL0     C 6797   3.753   8.790   8.089  0.5765 -0.4010  0.2128
  810MOL0     C 6798   3.793   8.653   8.140 -0.2973 -0.1872 -0.8620
  810MOL0     C 6799   3.882   8.658   8.266  0.6267  0.0857  0.0475
  810MOL0     C 6800   3.900   8.526   8.337  0.4246  0.0848 -0.3947
  810MOL0     C 6801   3.800   8.506   8.457  0.2868  0.3358 -0.3655
  810MOL0     C 6802   3.826   8.592   8.578 -0.3894  0.1766 -0.9674
  810MOL0     C 6803   3.720   8.587   8.681  0.9536  0.0239 -0.2054
  810MOL0     C 6804   3.572   8.595   8.633 -0.7301 -1.1891  0.0904
  810MOL0     N 6805   3.461   8.586   8.734 -0.3240  0.5418 -0.6309
  810MOL0     C 6806   3.451   8.500   8.840  0.7124  0.0619 -0.4745
  810MOL0     C 6807   3.332   8.524   8.896  1.2035  1.2535 -0.4910
  810MOL0     C 6808   3.272   8.465   9.021 -0.5333 -0.7198  0.5038
  810MOL0     C 6809   3.310   8.324   9.071 -0.3072  0.7961  0.3801
  810MOL0     C 6810   3.198   8.228   9.014  0.5219 -0.9671  0.4840
  810MOL0     C 6811   3.212   8.090   9.077  0.1545 -0.2807 -0.0190
  810MOL0     O 6812   3.118   8.005   9.017  0.5816  0.5238  0.1128
  810MOL0     C 6813   3.075   7.898   9.091  0.7567 -0.4526  0.3550
  810MOL0     C 6814   2.944   7.887   9.131  0.3300  0.5491 -0.6589
  810MOL0     C 6815   2.911   7.784   9.222 -0.7203  0.6361  0.3248
  810MOL0     C 6816   3.003   7.680   9.256  0.3137  0.0210 -1.3388
  810MOL0     C 6817   2.958   7.573   9.348  0.2565  1.1180  0.4733
  810MOL0     O 6818   3.032   7.451   9.344  0.3950 -0.5486 -0.0667
  810MOL0     C 6819   3.005   7.371   9.444  0.3268  1.2368  0.7368
  810MOL0     C 6820   2.941   7.247   9.414 -0.6974 -0.1781 -0.0490
  810MOL0     C 6821   2.899   7.155   9.513 -0.5877 -0.5431  0.8531
  810MOL0     C 6822   2.929   7.179   9.645  0.3302 -0.1892  0.8716
  810MOL0     O 6823   2.909   7.092   9.750 -0.5389  0.0189  0.2034
  810MOL0     C 6824   2.858   6.969   9.729  0.2693 -0.0235  0.1441
  810MOL0     C 6825   2.828   6.910   9.862 -0.7719 -0.0982  0.2672
  810MOL0     C 6826   2.782   6.760   9.850 -0.0901  0.3117 -0.0761
  810MOL0     C 6827   2.682   6.727   9.733  0.0894  0.0566  0.6661
  810MOL0     C 6828   2.626   6.591   9.743 -0.6429  0.2228 -0.0294
  810MOL0     C 6829   2.559   6.557   9.608  0.2702 -0.0027  0.3236
  810MOL0     C 6830   2.494   6.414   9.604 -0.0725  0.2585 -0.7750
  810MOL0     C 6831   2.437   6.386   9.454  0.2889 -0.0953  0.1888
  810MOL0    Cl 6832   2.408   6.216   9.441 -0.2208  0.1406  0.2237
  810MOL0     C 6833   2.992   7.302   9.674 -0.2124  0.5397  0.0209
  810MOL0     C 6834   3.028   7.399   9.578 -1.4120 -0.1302  0.1033
  810MOL0     O 6835   2.858   7.596   9.415 -0.1057  0.6240 -0.1925
  810MOL0     C 6836   3.136   7.687   9.207 -0.2263  0.2076  0.0888
  810MOL0     C 6837   3.163   7.796   9.124 -0.0720 -0.9362  0.6947
  810MOL0     N 6838   3.278   8.640   8.836 -0.5567  0.4200  0.8189
  810MOL0     N 6839   3.361   8.672   8.741  1.3209  0.1309 -0.1030
  810MOL0     C 6840   3.552   8.886   7.796  0.0344 -0.6275 -0.1769
  810MOL0     C 6841   3.516   9.000   7.721  0.1446  0.9639 -0.7189
  810MOL0     C 6842   3.538   9.337   7.464  0.9599  1.1116 -1.6549
  810MOL0     C 6843   3.424   9.405   7.500 -0.4855  0.3667 -0.0953
  810MOL0     C 6844   3.354   9.461   7.395 -0.4642  0.5593 -0.3635
  810MOL0     C 6845   3.402   9.457   7.263 -0.3421 -0.0791  0.9175
  810MOL0     O 6846   3.327   9.510   7.158 -0.1718  0.6195 -0.3065
  810MOL0     C 6847   3.181   9.501   7.164 -0.2585 -0.2036 -0.0369
  810MOL0     C 6848   3.132   9.478   7.024 -0.2834 -0.9789  0.8027
  810MOL0     C 6849   3.150   9.615   6.942  0.1728 -0.6331  0.1696
  810MOL0     C 6850   3.089   9.604   6.803  0.6600 -0.0867  0.0301
  810MOL0     C 6851   2.969   9.695   6.789 -0.2650  0.1068 -0.0902
  810MOL0     C 6852   2.872   9.758   6.783 -0.1382  0.8831 -0.8651
  810MOL0     C 6853   3.522   9.395   7.230 -0.2613 -0.2163  0.0060
  810MOL0     C 6854   3.591   9.337   7.338  0.0856 -0.8132  0.1357
  810MOL0     H 6855   3.777   9.193   7.810  1.0903 -2.0349  1.0280
  810MOL0     H 6856   3.830   9.015   7.957  0.2742  1.8667  0.9926
  810MOL0     H 6857   3.695   8.846   8.162  1.2363  2.0024 -1.0172
  810MOL0     H 6858   3.845   8.848   8.079  0.6315 -0.6000 -0.4733
  810MOL0     H 6859   3.846   8.606   8.057  0.0771  0.1228 -0.7988
  810MOL0     H 6860   3.703   8.595   8.165 -0.3542  0.8572  1.6594
  810MOL0     H 6861   3.846   8.730   8.340 -2.1749 -1.8401  0.7196
  810MOL0     H 6862   3.981   8.699   8.242  0.7642  0.7565  1.6039
  810MOL0     H 6863   3.904   8.438   8.273 -0.3180 -1.5072  1.6545
  810MOL0     H 6864   3.999   8.540   8.382 -0.3620  3.6383  0.6150
  810MOL0     H 6865   3.798   8.400   8.485  0.8797  0.2394 -0.6868
  810MOL0     H 6866   3.701   8.539   8.422  0.1478 -0.4240 -0.7065
  810MOL0     H 6867   3.838   8.693   8.539 -0.1487  1.5575  2.4396
  810MOL0     H 6868   3.918   8.563   8.629 -0.0251  2.0222 -0.5195
  810MOL0     H 6869   3.736   8.496   8.739  1.2577  0.1223 -0.1326
  810MOL0     H 6870   3.742   8.676   8.741 -0.5108  1.3489 -1.5203
  810MOL0     H 6871   3.559   8.508   8.567  0.8561 -0.3466 -1.4154
  810MOL0     H 6872   3.562   8.691   8.583 -1.5835 -1.6198 -0.6004
  810MOL0     H 6873   3.522   8.424   8.874 -0.1356  0.4156  2.3268
  810MOL0     H 6874   3.163   8.466   9.011 -0.8351 -5.5009  1.1657
  810MOL0     H 6875   3.302   8.538   9.097 -0.4131  0.4201 -0.6007
  810MOL0     H 6876   3.301   8.325   9.180 -0.7805 -0.6984  0.3811
  810MOL0     H 6877   3.402   8.284   9.027 -1.9422  2.2937 -5.1747
  810MOL0     H 6878   3.101   8.271   9.040  0.9702 -1.3505  3.1401
  810MOL0     H 6879   3.209   8.228   8.905 -0.0445 -3.2451  0.3803
  810MOL0     H 6880   3.211   8.087   9.186  1.4237  0.3557  0.0301
  810MOL0     H 6881   3.312   8.049   9.059 -0.8262 -1.3302 -4.1324
  810MOL0     H 6882   2.876   7.962   9.092  1.1274  1.2163 -0.8066
  810MOL0     H 6883   2.809   7.769   9.254 -0.4432  2.0876  2.0262
  810MOL0     H 6884   2.904   7.230   9.314 -3.1838  2.2909  0.3512
  810MOL0     H 6885   2.841   7.072   9.476 -2.4778  2.7170 -4.6490
  810MOL0     H 6886   2.925   6.914   9.662  0.2389 -0.0646  0.1471
  810MOL0     H 6887   2.768   6.978   9.668  0.5564  2.8345  0.0020
  810MOL0     H 6888   2.740   6.966   9.895 -0.1948  1.0967 -0.2036
  810MOL0     H 6889   2.907   6.922   9.937 -1.1524 -0.0152  0.6626
  810MOL0     H 6890   2.719   6.740   9.937 -1.4612  1.1179 -0.8428
  810MOL0     H 6891   2.860   6.683   9.851 -2.7745 -2.6253  0.6403
  810MOL0     H 6892   2.608   6.806   9.750  1.5972  1.6467  0.2462
  810MOL0     H 6893   2.731   6.758   9.640  2.1684 -0.8871  1.3891
  810MOL0     H 6894   2.560   6.595   9.830 -2.5833  3.9719 -1.4587
  810MOL0     H 6895   2.707   6.522   9.768 -1.1971  0.0651  1.4269
  810MOL0     H 6896   2.615   6.559   9.515  0.4113  1.9018  0.4034
  810MOL0     H 6897   2.481   6.632   9.592  1.9637  1.3606 -2.0831
  810MOL0     H 6898   2.552   6.330   9.643 -2.8893 -0.0979  3.3051
  810MOL0     H 6899   2.409   6.410   9.672 -0.3542 -1.9457 -1.1703
  810MOL0     H 6900   2.505   6.411   9.373 -1.0607  1.2139 -0.6086
  810MOL0     H 6901   2.349   6.451   9.441 -0.2237 -0.8664 -0.2811
  810MOL0     H 6902   3.029   7.313   9.775  1.4159  1.1130 -0.6069
  810MOL0     H 6903   3.073   7.497   9.590  0.8760 -1.2102  0.9205
  810MOL0     H 6904   3.203   7.606   9.236 -2.1176 -0.9181  1.6255
  810MOL0     H 6905   3.262   7.810   9.082 -1.0543  2.9998 -0.8050
  810MOL0     H 6906   3.512   8.786   7.781  1.5164 -1.6505  2.1192
  810MOL0     H 6907   3.435   8.977   7.652 -0.3787 -0.9738  0.4597
  810MOL0     H 6908   3.380   9.403   7.599 -0.2735  2.2873  0.0701
  810MOL0     H 6909   3.261   9.508   7.427 -0.3444 -0.5474  1.8330
  810MOL0     H 6910   3.139   9.593   7.206 -2.9866 -1.1175 -0.5071
  810MOL0     H 6911   3.154   9.411   7.221 -2.7166 -1.2315 -2.5500
  810MOL0     H 6912   3.190   9.397   6.981  0.1069 -0.1669 -0.2444
  810MOL0     H 6913   3.025   9.456   7.014 -0.4710 -1.0696  2.6438
  810MOL0     H 6914   3.257   9.635   6.935  0.5493 -2.3136  0.7051
  810MOL0     H 6915   3.109   9.702   6.994 -2.8093  0.5581 -3.6961
  810MOL0     H 6916   3.165   9.629   6.729 -0.6304 -0.9670 -1.6528
  810MOL0     H 6917   3.057   9.502   6.778 -0.4119  0.9592 -3.3107
  810MOL0     H 6918   2.773   9.799   6.781 -0.6983 -0.2994  0.4946
  810MOL0     H 6919   3.562   9.391   7.129  0.7296  1.2022  0.3114
  810MOL0     H 6920   3.686   9.285   7.330  0.8397  0.0065  2.7163
  811MOL0     O 6921  10.137   5.179   1.739  0.5273 -0.1857  0.2588
  811MOL0     C 6922  10.129   5.138   1.853 -0.0910  0.1446  0.2408
  811MOL0     O 6923  10.021   5.075   1.909 -0.5802  0.1002 -0.6092
  811MOL0     C 6924   9.909   5.057   1.835 -0.5180 -0.4208 -1.4166
  811MOL0     C 6925   9.804   5.150   1.837 -0.6945  0.4233 -0.8708
  811MOL0     C 6926   9.677   5.124   1.784 -0.2261  0.1101  0.0717
  811MOL0     C 6927   9.658   5.010   1.706 -0.1036  0.5191 -0.6355
  811MOL0     O 6928   9.549   4.982   1.635 -0.9558  0.2878 -0.3963
  811MOL0     C 6929   9.429   5.049   1.649  0.0818 -0.1471 -0.8541
  811MOL0     C 6930   9.326   5.023   1.540 -0.4849  0.1035  0.1456
  811MOL0     C 6931   9.274   4.873   1.531 -0.2674  0.6197 -0.2434
  811MOL0     C 6932   9.228   4.813   1.668 -0.9127  0.6683 -0.4613
  811MOL0     C 6933   9.191   4.665   1.648  0.4618  0.5234  0.2966
  811MOL0     C 6934   9.072   4.645   1.736 -0.4558  0.5079 -0.3512
  811MOL0     C 6935   9.026   4.500   1.725 -0.3284  0.1189  0.5446
  811MOL0     C 6936   8.915   4.475   1.837 -0.7643  0.0305 -0.1365
  811MOL0     N 6937   8.895   4.331   1.842  0.9526 -0.9217  0.5689
  811MOL0     C 6938   8.829   4.250   1.751  0.1160 -0.3275 -0.5041
  811MOL0     C 6939   8.844   4.122   1.803 -0.2510 -0.4848  0.1966
  811MOL0     C 6940   8.780   3.994   1.762 -0.1511  0.4614 -0.8474
  811MOL0     C 6941   8.631   3.999   1.765 -0.0904  0.2252 -0.3099
  811MOL0     C 6942   8.578   3.854   1.744  0.9943  0.6534  0.0111
  811MOL0     C 6943   8.422   3.865   1.742 -1.1550  0.0468 -0.4935
  811MOL0     O 6944   8.369   3.932   1.858  0.0121 -0.0227  0.1794
  811MOL0     C 6945   8.245   3.885   1.891  0.4902  0.4625  0.6768
  811MOL0     C 6946   8.232   3.872   2.025 -0.0779 -0.0864  0.2990
  811MOL0     C 6947   8.117   3.835   2.088 -0.1955 -0.4810  1.0771
  811MOL0     C 6948   8.014   3.789   2.003  0.5322  0.1962 -0.2648
  811MOL0     C 6949   7.893   3.721   2.060  0.2554 -0.8331 -0.5140
  811MOL0     O 6950   7.891   3.711   2.201  0.3949 -0.0165  0.3013
  811MOL0     C 6951   7.765   3.681   2.256 -0.6582  0.2335 -0.5341
  811MOL0     C 6952   7.643   3.744   2.228 -0.3569 -0.3747 -0.5431
  811MOL0     C 6953   7.531   3.731   2.309 -0.0050  0.0454 -0.2090
  811MOL0     C 6954   7.535   3.677   2.435 -0.4156 -1.3752 -0.0099
  811MOL0     O 6955   7.436   3.695   2.524  1.0048 -0.3077  0.1892
  811MOL0     C 6956   7.379   3.582   2.596  0.0453 -0.6056 -0.0793
  811MOL0     C 6957   7.234   3.596   2.591 -0.0740  0.4509  0.3142
  811MOL0     C 6958   7.156   3.476   2.649 -0.0130  0.0567 -0.1784
  811MOL0     C 6959   7.002   3.507   2.672 -0.8161 -0.0995  0.0164
  811MOL0     C 6960   6.912   3.382   2.677  0.1900 -0.8389  0.3345
  811MOL0     C 6961   6.961   3.304   2.808  0.6138 -0.4060  0.8884
  811MOL0     C 6962   6.869   3.187   2.835  0.4522  0.3702  0.1925
  811MOL0     C 6963   6.918   3.097   2.946 -0.6004 -0.4795  0.2481
  811MOL0    Cl 6964   6.806   2.952   2.959 -0.2961 -0.7622 -0.2945
  811MOL0     C 6965   7.652   3.602   2.459  0.4255  0.9668 -0.5238
  811MOL0     C 6966   7.762   3.605   2.375  0.5646 -0.0542  0.1128
  811MOL0     O 6967   7.797   3.700   1.986  0.0213  0.0455 -0.6102
  811MOL0     C 6968   8.025   3.796   1.862  0.6113  0.2454 -0.0877
  811MOL0     C 6969   8.139   3.850   1.807 -0.3501  0.4557  0.5697
  811MOL0     N 6970   8.931   4.134   1.912  0.0853  0.1026  0.8063
  811MOL0     N 6971   8.965   4.260   1.934  0.5595  0.7591 -0.3399
  811MOL0     C 6972   9.770   4.924   1.693  0.4581  0.0314  0.1427
  811MOL0     C 6973   9.892   4.941   1.761 -0.7491 -0.2965 -0.7303
  811MOL0     C 6974  10.248   5.141   1.930 -1.2010  0.0336  0.3785
  811MOL0     C 6975  10.276   5.061   2.043 -0.3159 -0.8032  0.0621
  811MOL0     C 6976  10.398   5.058   2.111 -1.3269  0.3928  0.1076
  811MOL0     C 6977  10.503   5.134   2.064  0.7386  0.5004  0.4450
  811MOL0     O 6978  10.624   5.132   2.125  0.1265 -0.0516 -0.0110
  811MOL0     C 6979  10.730   5.218   2.096 -0.2861 -0.3834  0.6977
  811MOL0     C 6980  10.850   5.178   2.177  0.4138  0.2797 -0.0702
  811MOL0     C 6981  10.947   5.088   2.097  0.0322  0.4569 -0.1853
  811MOL0     C 6982  11.089   5.143   2.106 -0.4571  0.2627  0.2912
  811MOL0     C 6983  11.178   5.098   2.211  1.3351 -0.6642  0.9142
  811MOL0     C 6984  11.248   5.069   2.310  1.1000  0.1559 -0.0878
  811MOL0     C 6985  10.478   5.217   1.948  0.0280  0.2688  0.1089
  811MOL0     C 6986  10.356   5.215   1.875 -0.2585  0.6898 -0.4358
  811MOL0     H 6987   9.813   5.247   1.883 -3.0290  1.0353 -1.5576
  811MOL0     H 6988   9.599   5.198   1.802 -1.4209 -1.2745  0.8028
  811MOL0     H 6989   9.458   5.154   1.640  0.4785 -0.0585  0.9590
  811MOL0     H 6990   9.379   5.037   1.746  0.6374 -0.9727 -0.6550
  811MOL0     H 6991   9.374   5.047   1.445 -0.4532  1.1134  0.4094
  811MOL0     H 6992   9.245   5.093   1.563  1.3453  1.7718  1.8666
  811MOL0     H 6993   9.350   4.810   1.485 -1.1733  0.1007 -1.0624
  811MOL0     H 6994   9.187   4.864   1.465 -1.5635  1.1595  1.3075
  811MOL0     H 6995   9.306   4.815   1.745 -0.4953  0.9232 -0.8895
  811MOL0     H 6996   9.146   4.869   1.715  0.0383 -0.9389  3.5950
  811MOL0     H 6997   9.268   4.591   1.671 -2.7676 -2.5749  2.2001
  811MOL0     H 6998   9.156   4.644   1.547  0.9056 -1.0980  0.4515
  811MOL0     H 6999   8.986   4.706   1.707  1.0308  1.9478 -1.9470
  811MOL0     H 7000   9.103   4.665   1.839  1.3650  1.0361 -0.9613
  811MOL0     H 7001   8.994   4.482   1.622 -1.8722 -0.2803  1.0734
  811MOL0     H 7002   9.108   4.428   1.734 -0.4745 -0.7672 -3.4411
  811MOL0     H 7003   8.825   4.530   1.806 -1.4252 -1.4643 -0.9693
  811MOL0     H 7004   8.948   4.503   1.937  1.7004 -0.0946 -0.8520
  811MOL0     H 7005   8.758   4.281   1.676  0.9699  2.1947 -0.3689
  811MOL0     H 7006   8.807   3.914   1.832  0.1662 -0.0928 -1.5838
  811MOL0     H 7007   8.812   3.967   1.661  1.6487  0.9732 -0.4569
  811MOL0     H 7008   8.594   4.079   1.700 -0.0750  0.6356  0.1731
  811MOL0     H 7009   8.611   4.027   1.869  0.5205 -1.8983  0.4203
  811MOL0     H 7010   8.626   3.818   1.653  0.6371  2.3445 -0.8781
  811MOL0     H 7011   8.599   3.784   1.826  2.3182  1.7134  0.6226
  811MOL0     H 7012   8.399   3.761   1.716 -1.8454 -0.2037  1.0048
  811MOL0     H 7013   8.383   3.918   1.655 -1.9516 -0.2455 -0.3306
  811MOL0     H 7014   8.313   3.901   2.090 -0.4292  1.4369  0.0914
  811MOL0     H 7015   8.130   3.818   2.195  3.9417 -2.5403  0.4433
  811MOL0     H 7016   7.636   3.802   2.136  0.8702  3.0694  1.3476
  811MOL0     H 7017   7.444   3.777   2.263  0.8838 -0.4089 -2.5041
  811MOL0     H 7018   7.421   3.577   2.697 -1.3234 -0.5603  0.5160
  811MOL0     H 7019   7.400   3.484   2.551 -1.3661 -0.4001 -1.2545
  811MOL0     H 7020   7.199   3.602   2.487  1.3373 -0.1212 -0.2107
  811MOL0     H 7021   7.211   3.688   2.646  0.2908  0.9265 -0.3212
  811MOL0     H 7022   7.194   3.443   2.746  1.7521 -0.7493 -1.0791
  811MOL0     H 7023   7.177   3.395   2.578  1.8831  1.0097 -0.7917
  811MOL0     H 7024   6.979   3.569   2.759 -1.2167 -1.5030  0.9469
  811MOL0     H 7025   6.983   3.572   2.586  0.5131  0.3517  0.0479
  811MOL0     H 7026   6.929   3.320   2.589  3.3870 -1.0119  0.9728
  811MOL0     H 7027   6.810   3.423   2.686  1.1302  1.7952 -0.0573
  811MOL0     H 7028   6.969   3.373   2.892 -1.7076  1.9945 -0.6765
  811MOL0     H 7029   7.064   3.269   2.803 -0.4396 -3.6712 -2.1750
  811MOL0     H 7030   6.766   3.221   2.851 -0.3933 -2.2656  0.8165
  811MOL0     H 7031   6.874   3.124   2.746  2.5737 -1.8172  1.7412
  811MOL0     H 7032   6.907   3.155   3.038  2.4225 -2.5662  2.1138
  811MOL0     H 7033   7.023   3.074   2.929 -0.4198  0.8404 -0.5820
  811MOL0     H 7034   7.671   3.554   2.555  0.8355  0.7521 -0.7105
  811MOL0     H 7035   7.852   3.551   2.401  2.7603  2.2855 -1.9955
  811MOL0     H 7036   7.944   3.766   1.796  0.4392  2.2746 -0.8859
  811MOL0     H 7037   8.151   3.865   1.701 -1.1952  0.4986  0.4765
  811MOL0     H 7038   9.756   4.835   1.632 -0.8617 -0.3506  0.9636
  811MOL0     H 7039   9.981   4.878   1.763 -0.7485 -0.3548  2.4627
  811MOL0     H 7040  10.209   4.982   2.074  1.3298 -1.6231  1.6961
  811MOL0     H 7041  10.418   4.986   2.190 -1.1018  3.9967  3.6962
  811MOL0     H 7042  10.693   5.317   2.124 -2.5357 -1.6599  2.6030
  811MOL0     H 7043  10.747   5.218   1.988 -4.1713  0.0329 -0.0406
  811MOL0     H 7044  10.895   5.269   2.218 -2.1529  0.8680  1.6327
  811MOL0     H 7045  10.818   5.118   2.263  2.2793  0.3324  0.7082
  811MOL0     H 7046  10.926   5.076   1.990 -2.9787 -1.2802  0.4816
  811MOL0     H 7047  10.945   4.983   2.130 -0.8929  0.1554 -1.1440
  811MOL0     H 7048  11.137   5.117   2.011 -0.4610 -0.0377  0.3711
  811MOL0     H 7049  11.087   5.253   2.105  0.2587  0.3456 -3.2158
  811MOL0     H 7050  11.299   5.070   2.404  1.3091  2.6535 -0.1676
  811MOL0     H 7051  10.558   5.280   1.911  0.2304  0.2559  0.5123
  811MOL0     H 7052  10.357   5.265   1.779 -1.6696  0.9421 -0.3279
  812MOL0     O 7053   1.680   6.379   3.919 -0.4281  0.1026  0.3073
  812MOL0     C 7054   1.715   6.278   3.979 -0.1121 -0.2749  0.2526
  812MOL0     O 7055   1.639   6.164   3.985 -0.0219 -0.1768  0.1834
  812MOL0     C 7056   1.529   6.146   3.906  0.0716 -0.1461 -0.1687
  812MOL0     C 7057   1.536   6.162   3.767 -0.7291  0.0619  0.3716
  812MOL0     C 7058   1.431   6.113   3.691 -0.7400  0.5240  0.3707
  812MOL0     C 7059   1.312   6.062   3.743 -1.0453 -0.1368  0.3656
  812MOL0     O 7060   1.199   6.031   3.667  0.1922 -0.1950  0.6195
  812MOL0     C 7061   1.153   6.134   3.579 -1.0018 -0.4213  0.7992
  812MOL0     C 7062   1.179   6.093   3.434 -0.1117  0.7265 -0.1470
  812MOL0     C 7063   1.128   6.203   3.335  0.5502  0.5729  0.8887
  812MOL0     C 7064   1.222   6.323   3.333 -0.4644 -0.3505  0.4724
  812MOL0     C 7065   1.185   6.423   3.222  1.0074 -0.0097 -0.2432
  812MOL0     C 7066   1.259   6.562   3.238 -0.1639  0.1043  0.0384
  812MOL0     C 7067   1.202   6.667   3.140  0.5933 -0.7338  0.3104
  812MOL0     C 7068   1.114   6.776   3.209 -1.1098 -0.1832  0.5063
  812MOL0     N 7069   0.981   6.719   3.251  0.0391 -0.2508  0.3699
  812MOL0     C 7070   0.877   6.708   3.163  0.2926 -0.7740  0.3938
  812MOL0     C 7071   0.770   6.705   3.237  0.1029  0.6020 -0.5848
  812MOL0     C 7072   0.619   6.708   3.196 -0.0122  0.0186 -0.1315
  812MOL0     C 7073   0.524   6.779   3.301  0.7532 -0.3462  0.2027
  812MOL0     C 7074   0.384   6.765   3.230 -0.6133 -0.8021  1.0726
  812MOL0     C 7075   0.277   6.850   3.299  0.6016  0.3696  0.7588
  812MOL0     O 7076   0.167   6.805   3.229 -0.0665 -0.6893  1.0402
  812MOL0     C 7077   0.052   6.871   3.256 -0.2140 -0.4431 -0.2397
  812MOL0     C 7078  -0.051   6.840   3.167 -0.1096  0.1186  0.1441
  812MOL0     C 7079  -0.177   6.898   3.182 -0.3620 -0.5883 -0.1156
  812MOL0     C 7080  -0.207   6.989   3.282 -0.1381  0.9177 -0.5848
  812MOL0     C 7081  -0.345   7.042   3.286 -0.2326 -0.6324  0.1237
  812MOL0     O 7082  -0.434   6.975   3.199  0.6548  0.5690 -0.4214
  812MOL0     C 7083  -0.563   7.013   3.208 -1.0798 -0.5771 -0.1636
  812MOL0     C 7084  -0.659   6.942   3.286 -1.1572 -0.3885  0.4062
  812MOL0     C 7085  -0.793   6.967   3.272  0.1175  0.5877 -0.7581
  812MOL0     C 7086  -0.842   7.064   3.187 -0.2155 -0.0415 -0.1138
  812MOL0     O 7087  -0.973   7.092   3.203  0.1905 -0.6120  1.3569
  812MOL0     C 7088  -0.996   7.184   3.299  0.1882  0.3135 -1.0669
  812MOL0     C 7089  -1.137   7.230   3.287 -0.2255 -0.5305 -0.2286
  812MOL0     C 7090  -1.238   7.114   3.298  0.4382 -0.5923  0.0575
  812MOL0     C 7091  -1.383   7.153   3.276 -0.3628 -0.2134  0.7764
  812MOL0     C 7092  -1.479   7.035   3.266  0.3041 -0.3227  0.0847
  812MOL0     C 7093  -1.611   7.089   3.314 -0.4223 -0.0587  0.0009
  812MOL0     C 7094  -1.720   6.983   3.299  0.6427  0.0833  0.2856
  812MOL0     C 7095  -1.845   7.038   3.357  0.9043 -0.4870  0.4217
  812MOL0    Cl 7096  -1.959   6.908   3.398 -0.0459 -0.2001  0.2092
  812MOL0     C 7097  -0.750   7.145   3.115 -0.1580  0.2253  0.6739
  812MOL0     C 7098  -0.608   7.113   3.123 -1.1078  0.7789 -0.3559
  812MOL0     O 7099  -0.379   7.113   3.382 -0.2201  0.1235  1.3262
  812MOL0     C 7100  -0.102   7.011   3.375  0.7270  0.1080  0.2938
  812MOL0     C 7101   0.027   6.955   3.367  1.2577  0.1038 -0.1671
  812MOL0     N 7102   0.815   6.685   3.372  0.3072  0.2211  0.1344
  812MOL0     N 7103   0.943   6.709   3.382 -0.3673 -0.3434  0.6081
  812MOL0     C 7104   1.298   6.058   3.883 -0.2691 -1.0533 -0.4434
  812MOL0     C 7105   1.401   6.102   3.961 -0.9522 -0.1187 -0.6760
  812MOL0     C 7106   1.847   6.277   4.039  0.9521 -0.4415 -0.6046
  812MOL0     C 7107   1.887   6.184   4.133 -0.3424  0.5274  1.4335
  812MOL0     C 7108   2.015   6.165   4.175 -1.4698 -0.6716  0.0462
  812MOL0     C 7109   2.120   6.254   4.132  0.8103 -0.3903  0.1575
  812MOL0     O 7110   2.240   6.222   4.192 -0.3403  0.2338  0.0251
  812MOL0     C 7111   2.360   6.291   4.182  0.6361  0.1238 -0.5924
  812MOL0     C 7112   2.369   6.415   4.284  0.1044 -0.0920  0.0714
  812MOL0     C 7113   2.361   6.379   4.438 -0.4644  0.0023 -0.2959
  812MOL0     C 7114   2.465   6.276   4.481 -0.3438  0.2062 -0.6586
  812MOL0     C 7115   2.614   6.304   4.439  0.4023  0.6060 -0.2842
  812MOL0     C 7116   2.721   6.315   4.390 -0.2514 -1.0548  0.2430
  812MOL0     C 7117   2.088   6.359   4.040  0.1386  0.2911 -0.7089
  812MOL0     C 7118   1.956   6.362   3.987  0.6012  0.6220 -0.6847
  812MOL0     H 7119   1.629   6.201   3.724 -0.5532  0.0877  0.7739
  812MOL0     H 7120   1.434   6.124   3.583 -2.2236 -0.3165  0.2279
  812MOL0     H 7121   1.208   6.226   3.598 -1.3413 -0.0333 -0.0389
  812MOL0     H 7122   1.046   6.151   3.595 -1.0091 -1.7471  2.4275
  812MOL0     H 7123   1.128   5.999   3.411 -0.7033  0.6328  1.4010
  812MOL0     H 7124   1.283   6.085   3.401  0.3539  0.7431  1.2483
  812MOL0     H 7125   1.030   6.242   3.363  0.5590  0.3865  1.1870
  812MOL0     H 7126   1.129   6.156   3.236 -0.2288  0.3236  0.9906
  812MOL0     H 7127   1.211   6.371   3.431  2.1525  0.8474  0.2851
  812MOL0     H 7128   1.329   6.299   3.326  0.0943  2.0191 -0.1411
  812MOL0     H 7129   1.077   6.436   3.213  0.4978 -0.9451  3.1514
  812MOL0     H 7130   1.205   6.378   3.124  1.6420 -0.2097 -0.0268
  812MOL0     H 7131   1.367   6.546   3.231 -0.1924 -0.4838  0.7314
  812MOL0     H 7132   1.241   6.592   3.342 -0.6550  2.1153 -0.5843
  812MOL0     H 7133   1.281   6.726   3.094  1.4207 -0.3157  2.1688
  812MOL0     H 7134   1.149   6.618   3.058 -2.2814  3.1264 -0.4387
  812MOL0     H 7135   1.098   6.862   3.143 -0.9839 -0.6747 -0.1641
  812MOL0     H 7136   1.163   6.803   3.303 -0.6872 -3.3392  1.3020
  812MOL0     H 7137   0.871   6.717   3.055 -3.5458  3.3763  0.6563
  812MOL0     H 7138   0.579   6.612   3.162  0.7209 -0.4911  0.4044
  812MOL0     H 7139   0.611   6.771   3.107  1.1514  2.6134  1.4756
  812MOL0     H 7140   0.542   6.880   3.338  0.2692 -0.5387  1.0015
  812MOL0     H 7141   0.533   6.721   3.394 -2.1712 -1.8541 -0.3243
  812MOL0     H 7142   0.384   6.802   3.127 -2.4404 -1.2505  0.8806
  812MOL0     H 7143   0.354   6.660   3.221  0.9344 -1.1710 -0.4739
  812MOL0     H 7144   0.303   6.954   3.279  0.7394 -0.0231 -1.3088
  812MOL0     H 7145   0.265   6.826   3.406 -2.8513  0.0712  0.4310
  812MOL0     H 7146  -0.045   6.770   3.084  0.5122  1.0022 -0.5748
  812MOL0     H 7147  -0.254   6.864   3.114 -1.3037 -3.1290  2.0250
  812MOL0     H 7148  -0.630   6.857   3.348 -4.3393 -0.5560  1.8770
  812MOL0     H 7149  -0.861   6.917   3.340  1.0007  1.4337  0.7880
  812MOL0     H 7150  -0.939   7.277   3.295 -2.4319  1.9730 -2.4238
  812MOL0     H 7151  -0.981   7.139   3.398  1.0719  1.0816 -0.8319
  812MOL0     H 7152  -1.142   7.293   3.198 -0.9674  1.5920  1.2347
  812MOL0     H 7153  -1.156   7.286   3.379  1.7885 -0.5671  0.2494
  812MOL0     H 7154  -1.228   7.063   3.394 -1.7143  3.7264  2.9168
  812MOL0     H 7155  -1.207   7.033   3.232 -1.6764  1.1253 -3.4349
  812MOL0     H 7156  -1.413   7.206   3.367 -1.1918  1.4939 -0.4309
  812MOL0     H 7157  -1.385   7.228   3.197 -1.3344  0.5525  1.5003
  812MOL0     H 7158  -1.453   6.948   3.328 -1.7651 -0.7217  0.4472
  812MOL0     H 7159  -1.481   7.001   3.162  0.6202  0.0509 -0.0474
  812MOL0     H 7160  -1.645   7.172   3.253  1.6035  0.8277  0.0013
  812MOL0     H 7161  -1.609   7.125   3.417  0.0243 -1.0977  0.3741
  812MOL0     H 7162  -1.721   6.969   3.190  5.2373 -2.7891  0.3221
  812MOL0     H 7163  -1.705   6.888   3.350  2.6963  1.3656  2.3117
  812MOL0     H 7164  -1.881   7.127   3.305 -1.5099  0.3044  3.1993
  812MOL0     H 7165  -1.834   7.084   3.455  0.0253  2.5922 -0.8243
  812MOL0     H 7166  -0.789   7.224   3.052  0.3321 -1.2693 -1.6568
  812MOL0     H 7167  -0.540   7.182   3.073 -1.4963  2.2407  1.0441
  812MOL0     H 7168  -0.111   7.082   3.457  1.2409 -0.8375  1.1854
  812MOL0     H 7169   0.099   6.982   3.443 -0.0885 -1.0761  1.6083
  812MOL0     H 7170   1.207   6.009   3.916 -1.3299  0.5897 -0.8332
  812MOL0     H 7171   1.384   6.098   4.068  1.6715  3.0589  0.0164
  812MOL0     H 7172   1.810   6.116   4.166 -2.5235  1.9251 -0.4221
  812MOL0     H 7173   2.046   6.089   4.246 -0.0771 -1.0026 -0.8830
  812MOL0     H 7174   2.349   6.327   4.079  0.0772 -1.0879 -0.9801
  812MOL0     H 7175   2.448   6.228   4.187  0.1327 -0.5546  3.2587
  812MOL0     H 7176   2.459   6.478   4.273 -0.3743  0.8197  1.2052
  812MOL0     H 7177   2.285   6.483   4.267 -0.4887  0.1448  3.2819
  812MOL0     H 7178   2.264   6.337   4.466 -0.7059  1.3636  1.0775
  812MOL0     H 7179   2.370   6.471   4.497 -1.6357 -0.5295  0.7785
  812MOL0     H 7180   2.458   6.270   4.590 -1.5200  1.7424 -0.6264
  812MOL0     H 7181   2.439   6.178   4.440  0.8600 -0.3915 -0.0433
  812MOL0     H 7182   2.819   6.315   4.348 -1.9992 -2.5519 -4.4965
  812MOL0     H 7183   2.163   6.429   4.005 -0.7891  0.6957 -1.9408
  812MOL0     H 7184   1.922   6.440   3.920  0.2487  2.2172  1.2836
  813MOL0     O 7185   0.947   5.902   9.949 -0.4810  0.4220  0.0893
  813MOL0     C 7186   0.946   5.941   9.836  0.0788  1.2899  0.2272
  813MOL0     O 7187   0.829   5.972   9.765 -0.0020 -0.2575  1.4495
  813MOL0     C 7188   0.703   5.955   9.825  0.1423  1.1241  0.7076
  813MOL0     C 7189   0.656   5.966   9.963 -0.0094 -0.2828  0.7499
  813MOL0     C 7190   0.519   5.955   9.991 -0.2782  0.6614  0.3911
  813MOL0     C 7191   0.422   5.917   9.886 -0.6265 -0.2736 -0.8030
  813MOL0     O 7192   0.295   5.896   9.930  0.1249 -0.6093  0.1941
  813MOL0     C 7193   0.180   5.853   9.860  0.1219 -0.0663  1.0981
  813MOL0     C 7194   0.052   5.861   9.941 -0.2415  0.0347  1.0581
  813MOL0     C 7195  -0.053   5.762   9.892 -0.1272 -0.2999  0.2704
  813MOL0     C 7196  -0.171   5.748   9.987 -0.4913 -0.5185  0.6685
  813MOL0     C 7197  -0.268   5.638   9.938  0.5951  0.0496 -0.4684
  813MOL0     C 7198  -0.418   5.672   9.982 -1.1623  0.0832 -0.3560
  813MOL0     C 7199  -0.500   5.550   9.959 -0.5094 -0.0993 -0.4262
  813MOL0     C 7200  -0.652   5.573   9.967  0.2750  0.3501  0.1152
  813MOL0     N 7201  -0.704   5.637  10.089 -1.2471  0.1632 -0.6270
  813MOL0     C 7202  -0.718   5.593  10.221 -0.8556  0.3216  1.4608
  813MOL0     C 7203  -0.766   5.699  10.295  0.7202  0.5283 -0.5019
  813MOL0     C 7204  -0.798   5.709  10.439 -0.6278  0.0582 -0.5309
  813MOL0     C 7205  -0.662   5.754  10.507 -0.1259  0.4609 -0.4485
  813MOL0     C 7206  -0.659   5.781  10.659  0.3408 -0.3286  0.9850
  813MOL0     C 7207  -0.741   5.901  10.698 -0.4484  0.3701 -1.1677
  813MOL0     O 7208  -0.874   5.901  10.663 -0.8017 -0.2989 -0.2448
  813MOL0     C 7209  -0.972   5.816  10.699 -0.3024 -0.1029 -0.0149
  813MOL0     C 7210  -1.096   5.849  10.665  0.8465  0.0195  0.4596
  813MOL0     C 7211  -1.211   5.775  10.702  0.3569  0.0933  1.6008
  813MOL0     C 7212  -1.193   5.665  10.784 -0.4500 -0.2734  0.2865
  813MOL0     C 7213  -1.309   5.579  10.819 -0.1799 -0.2703  0.2710
  813MOL0     O 7214  -1.430   5.628  10.787 -0.2613  0.5971 -0.1430
  813MOL0     C 7215  -1.534   5.541  10.764 -1.3847  0.8882 -0.5719
  813MOL0     C 7216  -1.603   5.487  10.866  1.3313  0.5145 -0.5140
  813MOL0     C 7217  -1.711   5.411  10.841  0.0772  0.7252 -0.0271
  813MOL0     C 7218  -1.745   5.360  10.716  0.2447 -0.0274  1.0451
  813MOL0     O 7219  -1.848   5.270  10.717  0.3809 -0.1964  0.3561
  813MOL0     C 7220  -1.873   5.212  10.593 -0.9002 -0.2276  0.2621
  813MOL0     C 7221  -1.762   5.104  10.561 -0.2118 -0.9044 -0.4202
  813MOL0     C 7222  -1.710   5.021  10.680 -0.2132  0.1487  0.2627
  813MOL0     C 7223  -1.632   4.907  10.618  0.3198  0.6628  0.7298
  813MOL0     C 7224  -1.570   4.809  10.713 -0.4609  0.3396  0.7520
  813MOL0     C 7225  -1.439   4.860  10.788  0.4646  0.0135  0.0732
  813MOL0     C 7226  -1.349   4.747  10.847 -0.5776  0.3722 -0.2819
  813MOL0     C 7227  -1.239   4.815  10.926  0.1741  0.5967 -0.3954
  813MOL0    Cl 7228  -1.130   4.697  11.002 -0.7208  0.4220 -0.0302
  813MOL0     C 7229  -1.672   5.425  10.603  1.2325 -0.0392  0.1811
  813MOL0     C 7230  -1.569   5.516  10.628  0.6170 -0.2711  0.9527
  813MOL0     O 7231  -1.286   5.477  10.883 -0.1286  0.0181 -0.5866
  813MOL0     C 7232  -1.057   5.632  10.819  0.1822  0.2521 -0.4649
  813MOL0     C 7233  -0.950   5.717  10.789  0.2599  0.0467 -0.8427
  813MOL0     N 7234  -0.775   5.808  10.208  0.0482  0.5819  0.5016
  813MOL0     N 7235  -0.739   5.766  10.088  0.1521 -1.3551 -0.2349
  813MOL0     C 7236   0.466   5.900   9.762 -0.8416  0.6812  0.0484
  813MOL0     C 7237   0.606   5.914   9.733  0.2999 -0.8961  0.3985
  813MOL0     C 7238   1.081   5.959   9.768  0.6439  0.0240  0.0605
  813MOL0     C 7239   1.081   6.006   9.635 -0.4049  0.7720 -0.7618
  813MOL0     C 7240   1.209   6.034   9.578  0.9039 -0.0607  1.0427
  813MOL0     C 7241   1.331   6.008   9.646 -0.0091 -0.3105 -0.3445
  813MOL0     O 7242   1.452   6.040   9.602 -0.5673  0.0589  0.6302
  813MOL0     C 7243   1.460   6.185   9.573  0.0619  0.0786  0.9124
  813MOL0     C 7244   1.604   6.228   9.538  0.0353  0.2731 -0.0823
  813MOL0     C 7245   1.710   6.191   9.649  0.0458  0.5147  0.9709
  813MOL0     C 7246   1.682   6.249   9.782  0.5257 -1.0157 -0.1807
  813MOL0     C 7247   1.682   6.396   9.780  0.3485 -1.6894 -0.6272
  813MOL0     C 7248   1.691   6.517   9.780 -0.7911 -0.3896  0.1145
  813MOL0     C 7249   1.318   5.951   9.776 -0.1095 -0.7773  0.3543
  813MOL0     C 7250   1.200   5.927   9.838  0.0113  0.0589 -0.0617
  813MOL0     H 7251   0.734   5.984  10.036  1.7589 -2.7757 -0.3930
  813MOL0     H 7252   0.489   5.951  10.095 -2.4804 -0.6476 -0.2353
  813MOL0     H 7253   0.211   5.753   9.827  0.2740 -0.0181  1.0899
  813MOL0     H 7254   0.163   5.911   9.769  3.6034 -1.6108 -0.7482
  813MOL0     H 7255   0.016   5.964   9.938  0.7010  0.3598 -0.6494
  813MOL0     H 7256   0.083   5.829  10.041 -0.6249  2.7636  2.1362
  813MOL0     H 7257  -0.010   5.662   9.882  0.2299  0.0887 -3.2396
  813MOL0     H 7258  -0.104   5.779   9.797 -0.0036  1.1605  0.4284
  813MOL0     H 7259  -0.129   5.729  10.086  0.5353 -0.2977  0.2900
  813MOL0     H 7260  -0.228   5.841   9.998  1.1279  0.8074 -1.3962
  813MOL0     H 7261  -0.242   5.547   9.991  1.0525  1.4167  1.7762
  813MOL0     H 7262  -0.253   5.615   9.832 -0.9942 -1.6150 -0.3757
  813MOL0     H 7263  -0.447   5.757   9.920  2.0838 -0.3305 -2.7126
  813MOL0     H 7264  -0.420   5.691  10.090  2.2067 -2.5977  0.3847
  813MOL0     H 7265  -0.466   5.524   9.859 -0.1504  0.2072 -0.3852
  813MOL0     H 7266  -0.465   5.466  10.020  0.1869 -0.6432 -1.5401
  813MOL0     H 7267  -0.702   5.479   9.944 -1.1948  0.2708  3.1430
  813MOL0     H 7268  -0.675   5.650   9.892 -1.6473  1.2761  1.5449
  813MOL0     H 7269  -0.680   5.501  10.264  0.4818  0.5577  0.8141
  813MOL0     H 7270  -0.849   5.623  10.484 -0.8094 -0.4367 -1.6460
  813MOL0     H 7271  -0.871   5.790  10.446  1.1402  1.5953  1.4189
  813MOL0     H 7272  -0.625   5.847  10.463  1.7262 -0.4912 -1.0235
  813MOL0     H 7273  -0.586   5.678  10.485  1.3939  1.6535  0.4271
  813MOL0     H 7274  -0.699   5.694  10.711 -0.8850  0.9519  2.2697
  813MOL0     H 7275  -0.560   5.797  10.703 -0.8598  3.6400  2.6955
  813MOL0     H 7276  -0.693   5.983  10.644  0.2688 -0.5976 -2.0385
  813MOL0     H 7277  -0.726   5.909  10.806 -2.5638 -3.2334 -0.4467
  813MOL0     H 7278  -1.101   5.937  10.601  0.5879 -0.0780  0.3447
  813MOL0     H 7279  -1.312   5.799  10.670  1.0086  0.7763 -0.0367
  813MOL0     H 7280  -1.587   5.508  10.971 -0.9373  1.1673 -0.2594
  813MOL0     H 7281  -1.760   5.376  10.931  0.8554 -1.1213 -0.2610
  813MOL0     H 7282  -1.870   5.286  10.513  2.0824 -0.9921 -0.4601
  813MOL0     H 7283  -1.965   5.155  10.580  0.7074 -2.2480 -5.0146
  813MOL0     H 7284  -1.677   5.157  10.517 -0.0038  1.1177  2.1544
  813MOL0     H 7285  -1.800   5.040  10.481  3.0781 -1.3532 -1.7982
  813MOL0     H 7286  -1.798   4.984  10.734 -1.6714  2.0981 -0.6280
  813MOL0     H 7287  -1.646   5.084  10.744  0.0207  0.6725 -0.4808
  813MOL0     H 7288  -1.707   4.856  10.556  0.5573 -0.3194  1.2291
  813MOL0     H 7289  -1.567   4.956  10.546 -0.8118 -1.2231 -1.7429
  813MOL0     H 7290  -1.537   4.729  10.646  0.8245  0.5678  1.0848
  813MOL0     H 7291  -1.641   4.763  10.783 -0.0801 -0.1779  0.7986
  813MOL0     H 7292  -1.458   4.935  10.866 -0.9625  1.2754 -1.4206
  813MOL0     H 7293  -1.372   4.913  10.720  0.1137 -0.4805 -0.6599
  813MOL0     H 7294  -1.408   4.684  10.915 -0.9157  0.3439 -0.5970
  813MOL0     H 7295  -1.307   4.686  10.767  3.5972  1.0552  1.1479
  813MOL0     H 7296  -1.282   4.872  11.010  1.5022 -0.9547  1.4264
  813MOL0     H 7297  -1.192   4.892  10.865 -2.7948  2.0758 -1.0050
  813MOL0     H 7298  -1.710   5.404  10.503 -0.7715 -2.7875  1.3775
  813MOL0     H 7299  -1.515   5.567  10.548 -0.4926  1.9811  1.5527
  813MOL0     H 7300  -1.032   5.556  10.893  1.2374  0.9212 -0.1070
  813MOL0     H 7301  -0.855   5.702  10.840  0.1037 -2.5931 -1.1893
  813MOL0     H 7302   0.399   5.868   9.683  0.5802 -2.3047 -0.0923
  813MOL0     H 7303   0.639   5.899   9.631  0.2278  0.1259  0.2078
  813MOL0     H 7304   0.991   6.031   9.580  0.1821  2.9542 -0.7997
  813MOL0     H 7305   1.207   6.068   9.475  0.0736  1.2462  1.4652
  813MOL0     H 7306   1.427   6.249   9.655 -1.0839  1.3590 -0.4701
  813MOL0     H 7307   1.400   6.206   9.484  0.4635  1.9523  1.0412
  813MOL0     H 7308   1.647   6.186   9.447  1.0590  2.7100 -0.8142
  813MOL0     H 7309   1.607   6.336   9.522 -4.9418  0.3942 -2.0080
  813MOL0     H 7310   1.801   6.236   9.609 -1.4086  2.3293 -0.4687
  813MOL0     H 7311   1.712   6.082   9.646 -1.9377  0.4713 -0.7834
  813MOL0     H 7312   1.579   6.221   9.806  0.4881  1.0203  2.5256
  813MOL0     H 7313   1.754   6.207   9.853 -1.2957 -2.2444  1.0141
  813MOL0     H 7314   1.683   6.624   9.790  2.0069 -0.1531  0.4521
  813MOL0     H 7315   1.412   5.926   9.826 -1.3468 -3.8786  1.3373
  813MOL0     H 7316   1.201   5.887   9.938 -0.1972  0.5136  0.1265
  814MOL0     O 7317   0.602   5.560   2.631  0.1789 -0.1920 -0.4638
  814MOL0     C 7318   0.531   5.667   2.648  0.4900  0.1623  0.1118
  814MOL0     O 7319   0.559   5.775   2.732 -0.2858  1.1004 -0.1392
  814MOL0     C 7320   0.687   5.793   2.782 -0.9621 -0.7900 -0.2744
  814MOL0     C 7321   0.692   5.895   2.882  0.5696 -0.9262 -0.8368
  814MOL0     C 7322   0.814   5.942   2.946  0.0498  0.2097 -0.1107
  814MOL0     C 7323   0.930   5.867   2.925  0.6035  0.3949 -1.0663
  814MOL0     O 7324   1.031   5.905   3.017 -0.1809  0.3207  0.7340
  814MOL0     C 7325   1.148   5.837   3.000  0.4870  0.2756 -0.5952
  814MOL0     C 7326   1.254   5.888   3.096 -0.3831 -0.7917  0.2534
  814MOL0     C 7327   1.355   5.993   3.040 -0.9108 -1.2550 -0.0852
  814MOL0     C 7328   1.453   6.040   3.139  0.1193  0.1770  0.6772
  814MOL0     C 7329   1.563   6.131   3.090 -0.6559  0.2008  0.4639
  814MOL0     C 7330   1.635   6.081   2.958  0.1840  0.8537 -0.2204
  814MOL0     C 7331   1.695   5.935   2.957 -0.2299 -0.5220  0.2353
  814MOL0     C 7332   1.787   5.917   3.070  0.1264  1.3794 -0.2272
  814MOL0     N 7333   1.922   5.970   3.050 -0.0546  0.4701 -0.2132
  814MOL0     C 7334   2.043   5.908   3.018  0.9023 -1.1244  0.3209
  814MOL0     C 7335   2.137   5.992   3.064 -0.2072 -0.3342 -0.5875
  814MOL0     C 7336   2.282   5.969   3.036  0.6108 -0.4369  0.9914
  814MOL0     C 7337   2.332   6.039   2.908 -0.5631  0.0352  0.8398
  814MOL0     C 7338   2.489   6.041   2.898 -0.1375  0.4096 -0.3848
  814MOL0     C 7339   2.557   6.147   2.807  0.0511 -0.7758  0.1224
  814MOL0     O 7340   2.688   6.147   2.828 -0.5910 -0.4619  0.5611
  814MOL0     C 7341   2.760   6.040   2.769  0.7158 -0.2980 -0.6327
  814MOL0     C 7342   2.738   5.971   2.649 -0.3123  0.2169  0.2519
  814MOL0     C 7343   2.823   5.858   2.632 -0.3982 -1.1357  0.5566
  814MOL0     C 7344   2.941   5.838   2.715 -0.2435 -0.2038 -0.2632
  814MOL0     C 7345   3.039   5.744   2.674 -0.4501 -0.2698  0.2383
  814MOL0     O 7346   3.013   5.672   2.558  0.1775 -0.1162 -0.1361
  814MOL0     C 7347   3.098   5.582   2.498  0.4821  0.1957 -0.1538
  814MOL0     C 7348   3.214   5.531   2.553 -0.3391  0.0111  0.0609
  814MOL0     C 7349   3.285   5.415   2.493 -0.4314  0.3311 -0.3958
  814MOL0     C 7350   3.233   5.354   2.375  0.6180  0.4377  0.3075
  814MOL0     O 7351   3.308   5.252   2.314  0.6576  0.5183 -0.0210
  814MOL0     C 7352   3.245   5.175   2.208 -0.4321 -0.6717  0.0912
  814MOL0     C 7353   3.266   5.245   2.069  0.2597  0.2802  0.4594
  814MOL0     C 7354   3.406   5.292   2.042  0.2864 -0.7567 -0.5964
  814MOL0     C 7355   3.422   5.339   1.892 -0.1482  0.2853  0.3337
  814MOL0     C 7356   3.551   5.412   1.852  0.0274  0.0807 -0.0307
  814MOL0     C 7357   3.666   5.305   1.871 -0.5024  0.4285 -0.7246
  814MOL0     C 7358   3.764   5.292   1.756 -0.4034  0.2260 -0.3687
  814MOL0     C 7359   3.692   5.251   1.629  0.6354  0.4734  0.2355
  814MOL0    Cl 7360   3.673   5.078   1.627 -0.1441 -0.0117 -0.1613
  814MOL0     C 7361   3.117   5.406   2.325  0.1742 -0.1971 -0.3543
  814MOL0     C 7362   3.051   5.516   2.385  0.2923 -0.7795 -0.2707
  814MOL0     O 7363   3.142   5.743   2.741 -0.6258 -0.8810 -0.4557
  814MOL0     C 7364   2.966   5.923   2.818 -0.0256 -0.2098 -0.9167
  814MOL0     C 7365   2.875   6.026   2.843  0.2546 -0.3280 -0.5483
  814MOL0     N 7366   2.068   6.101   3.131  0.5285  1.0922 -0.0464
  814MOL0     N 7367   1.947   6.086   3.123  0.7528  0.5589  0.8579
  814MOL0     C 7368   0.924   5.767   2.823 -0.0955 -0.0043  0.9256
  814MOL0     C 7369   0.804   5.734   2.750  0.3837  0.1183 -0.9376
  814MOL0     C 7370   0.416   5.682   2.571  0.6870 -0.4253  0.3340
  814MOL0     C 7371   0.346   5.582   2.510  0.6745  0.3320  0.4034
  814MOL0     C 7372   0.224   5.601   2.445  0.9379 -0.3044 -0.9107
  814MOL0     C 7373   0.160   5.728   2.435 -0.6957 -0.0761  0.3169
  814MOL0     O 7374   0.056   5.753   2.352 -0.1383 -0.5980  0.2997
  814MOL0     C 7375  -0.043   5.848   2.407 -0.4655  0.2169  0.6873
  814MOL0     C 7376  -0.185   5.780   2.407  0.5242 -0.5690  0.2428
  814MOL0     C 7377  -0.287   5.888   2.358 -0.4367 -0.0235 -0.2294
  814MOL0     C 7378  -0.419   5.805   2.323 -0.9868 -0.5317  0.7367
  814MOL0     C 7379  -0.533   5.897   2.329  0.3285  0.0659  0.4271
  814MOL0     C 7380  -0.638   5.952   2.336  0.6677 -0.1539  0.1603
  814MOL0     C 7381   0.243   5.837   2.465 -0.1939 -0.6439 -0.4848
  814MOL0     C 7382   0.365   5.811   2.536  0.2699  0.1933  0.3582
  814MOL0     H 7383   0.601   5.935   2.924  1.9127  0.6454  0.7621
  814MOL0     H 7384   0.809   6.020   3.022 -0.9645 -2.1018  2.3705
  814MOL0     H 7385   1.198   5.859   2.905  1.7417 -0.6508 -0.1765
  814MOL0     H 7386   1.131   5.731   3.020 -2.3950  1.3992  5.0736
  814MOL0     H 7387   1.311   5.800   3.128  0.3526 -1.0368 -1.6021
  814MOL0     H 7388   1.206   5.920   3.189  1.5600  1.5822  0.5326
  814MOL0     H 7389   1.290   6.077   3.014  1.3263 -0.3721 -3.5330
  814MOL0     H 7390   1.408   5.952   2.953  3.3481  0.2374  1.5931
  814MOL0     H 7391   1.394   6.099   3.210 -0.1132 -1.8730  2.3005
  814MOL0     H 7392   1.500   5.958   3.194 -1.8260 -1.5261 -0.0384
  814MOL0     H 7393   1.640   6.135   3.168  0.3054  0.5228 -0.4804
  814MOL0     H 7394   1.526   6.234   3.081  2.2081  1.5538  2.4162
  814MOL0     H 7395   1.710   6.160   2.948  0.8371  0.7701  2.8830
  814MOL0     H 7396   1.570   6.093   2.871  1.6049  1.8772 -1.1743
  814MOL0     H 7397   1.610   5.868   2.946 -0.0909 -0.2857 -3.3163
  814MOL0     H 7398   1.748   5.925   2.862  2.7048  0.6490  1.5963
  814MOL0     H 7399   1.801   5.809   3.072  1.5211  1.4263 -2.7782
  814MOL0     H 7400   1.732   5.945   3.160 -0.6506  1.4718 -0.7204
  814MOL0     H 7401   2.052   5.810   2.972  2.6098 -0.5911 -0.5492
  814MOL0     H 7402   2.292   5.863   3.014 -1.8427 -1.1999  3.0911
  814MOL0     H 7403   2.334   5.978   3.132  0.0315 -0.2775  1.2939
  814MOL0     H 7404   2.302   6.143   2.922 -2.7022 -0.7518  2.6374
  814MOL0     H 7405   2.277   5.993   2.825 -1.3842  0.9560  0.8617
  814MOL0     H 7406   2.524   6.067   2.999  1.2152  1.1984 -1.0321
  814MOL0     H 7407   2.525   5.943   2.866  0.6824  1.3712 -2.5767
  814MOL0     H 7408   2.517   6.245   2.833  3.2558  0.3407  1.3030
  814MOL0     H 7409   2.545   6.125   2.700  2.0314  3.6891 -1.2931
  814MOL0     H 7410   2.670   5.999   2.569 -1.2900 -1.3476  0.4962
  814MOL0     H 7411   2.803   5.792   2.548  0.5373 -1.9935  0.9844
  814MOL0     H 7412   3.273   5.559   2.640  0.8184 -2.4998  0.1814
  814MOL0     H 7413   3.361   5.363   2.550 -1.3043 -1.1492 -0.5557
  814MOL0     H 7414   3.138   5.156   2.219 -0.0645 -1.7637  2.4518
  814MOL0     H 7415   3.310   5.088   2.193  1.5999  0.4892  1.5894
  814MOL0     H 7416   3.198   5.330   2.056 -1.9749 -0.4754  5.2371
  814MOL0     H 7417   3.242   5.176   1.988  2.6706  1.2613 -1.2143
  814MOL0     H 7418   3.479   5.211   2.052  1.0885  0.0854  0.6436
  814MOL0     H 7419   3.432   5.372   2.112 -0.5360  0.3979 -1.5604
  814MOL0     H 7420   3.402   5.259   1.820  1.0170 -0.8801  1.2616
  814MOL0     H 7421   3.339   5.395   1.848 -1.5769 -3.2040 -1.7941
  814MOL0     H 7422   3.546   5.497   1.921 -0.9798 -0.2276  0.3027
  814MOL0     H 7423   3.546   5.455   1.752  2.9290 -0.2789 -0.4178
  814MOL0     H 7424   3.625   5.205   1.888 -1.7099  0.9866 -0.2209
  814MOL0     H 7425   3.722   5.318   1.965 -1.3568 -1.1921  0.0358
  814MOL0     H 7426   3.796   5.397   1.751 -2.1103  0.7230 -1.7842
  814MOL0     H 7427   3.843   5.221   1.783  1.1728  1.6208 -1.1140
  814MOL0     H 7428   3.752   5.270   1.540  1.0627  3.2672  1.0026
  814MOL0     H 7429   3.604   5.315   1.614  1.4907  2.2494  2.1698
  814MOL0     H 7430   3.066   5.360   2.241 -0.0719  0.1685 -0.4082
  814MOL0     H 7431   2.953   5.546   2.349  1.0097  0.1776 -1.5225
  814MOL0     H 7432   3.052   5.909   2.882 -0.3141 -0.7080 -0.6315
  814MOL0     H 7433   2.884   6.085   2.934 -2.7939 -1.4353  0.6116
  814MOL0     H 7434   1.015   5.712   2.801 -0.1827 -0.4561  1.6613
  814MOL0     H 7435   0.809   5.654   2.677  1.5139 -2.0859  1.3771
  814MOL0     H 7436   0.387   5.482   2.520  0.4040  0.3981  2.5255
  814MOL0     H 7437   0.181   5.519   2.387 -3.5691  2.5197 -2.1192
  814MOL0     H 7438  -0.037   5.946   2.358 -1.1082 -0.2106 -0.2724
  814MOL0     H 7439  -0.024   5.864   2.513 -0.4367 -2.7204  1.1964
  814MOL0     H 7440  -0.177   5.698   2.336  1.0734  1.5099 -2.2702
  814MOL0     H 7441  -0.208   5.739   2.506  2.2203  1.9572  1.8148
  814MOL0     H 7442  -0.246   5.937   2.269 -1.1158  0.1750 -0.4353
  814MOL0     H 7443  -0.304   5.965   2.434 -0.1733  1.2770 -1.4410
  814MOL0     H 7444  -0.407   5.773   2.219 -1.3404  2.1186 -0.2012
  814MOL0     H 7445  -0.436   5.726   2.395 -1.6888  0.4938  1.7278
  814MOL0     H 7446  -0.737   5.995   2.344 -1.0503 -3.8272  0.7060
  814MOL0     H 7447   0.226   5.938   2.430 -2.0375 -1.7355 -3.0732
  814MOL0     H 7448   0.428   5.899   2.550 -0.0120  0.6777 -1.1844
  815MOL0     O 7449   4.896   6.619   4.428 -0.4479 -0.0011  0.1746
  815MOL0     C 7450   4.966   6.638   4.525  0.3653  0.6105  0.2212
  815MOL0     O 7451   5.096   6.625   4.532 -0.6257 -0.2536  0.4063
  815MOL0     C 7452   5.158   6.600   4.415 -0.5780  0.9198 -0.2051
  815MOL0     C 7453   5.180   6.694   4.320  0.3680 -0.1905  0.1702
  815MOL0     C 7454   5.231   6.653   4.190 -0.2304  0.8247  1.0455
  815MOL0     C 7455   5.273   6.518   4.162 -0.0341  0.2935  0.0276
  815MOL0     O 7456   5.314   6.497   4.030 -0.7192  0.2306  0.4888
  815MOL0     C 7457   5.372   6.369   3.995 -0.4878  0.4034 -0.5086
  815MOL0     C 7458   5.528   6.393   4.002 -0.2832 -0.8999  0.1829
  815MOL0     C 7459   5.613   6.311   3.898  0.1705  0.2618  0.2558
  815MOL0     C 7460   5.726   6.226   3.953 -0.5235  0.8463 -0.5322
  815MOL0     C 7461   5.839   6.307   4.023 -0.1020 -0.1730 -0.6256
  815MOL0     C 7462   5.915   6.412   3.946 -0.3371  0.1156 -0.2829
  815MOL0     C 7463   5.964   6.361   3.813 -0.1132 -0.6566  0.4136
  815MOL0     C 7464   6.061   6.245   3.830 -0.5466 -0.2607 -0.0604
  815MOL0     N 7465   6.190   6.301   3.868 -1.0065  0.0214  0.3533
  815MOL0     C 7466   6.256   6.406   3.807 -0.1106  0.1886 -0.7964
  815MOL0     C 7467   6.380   6.411   3.865 -0.3209  0.1873 -0.1494
  815MOL0     C 7468   6.489   6.507   3.823 -0.0788  0.6753  0.1168
  815MOL0     C 7469   6.618   6.443   3.767  0.1182  0.6493  0.3653
  815MOL0     C 7470   6.594   6.349   3.645  0.3528 -0.1021  0.1952
  815MOL0     C 7471   6.515   6.415   3.528  0.0105  0.4852  0.0087
  815MOL0     O 7472   6.573   6.511   3.443 -0.2535 -1.0274 -0.3479
  815MOL0     C 7473   6.669   6.453   3.350  0.0030 -0.2917 -0.4721
  815MOL0     C 7474   6.669   6.316   3.311  0.8357  1.5005  1.1847
  815MOL0     C 7475   6.769   6.262   3.229 -0.0656 -0.6493 -0.1218
  815MOL0     C 7476   6.865   6.351   3.171  0.0174 -0.3542 -0.2074
  815MOL0     C 7477   6.979   6.291   3.096 -0.6577  0.0746  0.4535
  815MOL0     O 7478   6.980   6.153   3.090  0.3503 -0.1980  0.1762
  815MOL0     C 7479   7.098   6.089   3.056  0.6504 -0.4684  0.0426
  815MOL0     C 7480   7.110   6.023   2.932  0.0714  0.2143 -0.4266
  815MOL0     C 7481   7.236   5.973   2.893 -0.2823  0.6220  0.0691
  815MOL0     C 7482   7.354   5.997   2.966  0.1686  0.2550 -0.5013
  815MOL0     O 7483   7.481   5.959   2.925  0.0707 -0.3320 -0.5263
  815MOL0     C 7484   7.520   6.036   2.803  0.2725 -0.0690  0.1906
  815MOL0     C 7485   7.670   6.027   2.772  0.0646 -0.2345  0.1473
  815MOL0     C 7486   7.705   6.141   2.683 -0.1167  0.4364 -0.6460
  815MOL0     C 7487   7.861   6.137   2.646  0.5381 -0.0911  1.0358
  815MOL0     C 7488   7.911   6.264   2.585  0.1396 -0.8649 -0.0225
  815MOL0     C 7489   8.064   6.275   2.586  0.0558 -0.3255  0.0582
  815MOL0     C 7490   8.097   6.418   2.527 -0.8460  0.5817  0.1274
  815MOL0     C 7491   8.240   6.413   2.490 -1.7560  0.0485  0.5055
  815MOL0    Cl 7492   8.305   6.583   2.507 -0.2150 -0.5325  0.2948
  815MOL0     C 7493   7.338   6.065   3.083 -0.5033  0.2687 -0.7523
  815MOL0     C 7494   7.216   6.110   3.132  0.0418  0.1127 -1.1635
  815MOL0     O 7495   7.059   6.363   3.033 -0.3522  0.1122 -0.4235
  815MOL0     C 7496   6.862   6.496   3.202 -0.1323  0.5295  0.5736
  815MOL0     C 7497   6.762   6.540   3.285 -0.3429 -0.6008 -0.2084
  815MOL0     N 7498   6.382   6.325   3.969  0.4743  0.9279  0.4377
  815MOL0     N 7499   6.261   6.261   3.972  0.6193  0.1124  0.0012
  815MOL0     C 7500   5.255   6.425   4.269 -0.1652  0.5476 -0.7512
  815MOL0     C 7501   5.206   6.474   4.389  0.1751  0.0893 -0.2627
  815MOL0     C 7502   4.884   6.679   4.639 -0.0037 -0.7910  0.0738
  815MOL0     C 7503   4.749   6.725   4.631 -0.2210  0.4436 -0.0381
  815MOL0     C 7504   4.685   6.761   4.748  0.2389  0.6285 -0.3083
  815MOL0     C 7505   4.752   6.753   4.876  0.5757 -0.0800  1.2974
  815MOL0     O 7506   4.680   6.783   4.987  0.2175  0.0589  0.4737
  815MOL0     C 7507   4.721   6.759   5.121  0.3320 -0.3938 -0.1250
  815MOL0     C 7508   4.625   6.808   5.236  0.7310 -0.5666  0.5060
  815MOL0     C 7509   4.578   6.952   5.225 -0.3300  0.7979  1.2898
  815MOL0     C 7510   4.462   6.998   5.308 -0.0103  1.0179 -0.2100
  815MOL0     C 7511   4.412   7.130   5.263 -0.8931 -1.1799 -0.3388
  815MOL0     C 7512   4.393   7.242   5.218  0.5360  0.0235  0.2472
  815MOL0     C 7513   4.877   6.714   4.879 -0.1962  0.3430  0.0482
  815MOL0     C 7514   4.940   6.670   4.765 -1.1692 -0.8088  0.6094
  815MOL0     H 7515   5.154   6.799   4.330  0.2477 -0.3702  2.5334
  815MOL0     H 7516   5.217   6.728   4.113 -5.8789 -0.2947  0.5640
  815MOL0     H 7517   5.332   6.338   3.899 -1.8281  1.5179 -0.3427
  815MOL0     H 7518   5.344   6.297   4.072 -0.4026  0.4499 -0.4334
  815MOL0     H 7519   5.561   6.390   4.106 -2.9605  2.9606  1.3671
  815MOL0     H 7520   5.538   6.496   3.966  0.0533 -0.7239  0.7713
  815MOL0     H 7521   5.658   6.387   3.833  0.6470  1.0717  1.4999
  815MOL0     H 7522   5.550   6.247   3.836  0.1999 -0.1859  0.6827
  815MOL0     H 7523   5.680   6.171   4.036  2.2777  1.8941  1.9064
  815MOL0     H 7524   5.761   6.167   3.868 -1.1766 -1.0527  0.4617
  815MOL0     H 7525   5.912   6.243   4.075  1.5327  1.6109 -0.6332
  815MOL0     H 7526   5.801   6.369   4.105 -0.0419 -1.7955  0.6821
  815MOL0     H 7527   5.997   6.460   4.000  1.3410  0.2360 -2.7613
  815MOL0     H 7528   5.846   6.493   3.921  2.0395  1.9802 -1.1698
  815MOL0     H 7529   5.879   6.322   3.757 -1.7638  0.4383  2.0371
  815MOL0     H 7530   6.010   6.434   3.746 -1.2706 -0.7514 -0.5068
  815MOL0     H 7531   6.078   6.200   3.732 -1.0637  0.3822 -0.4474
  815MOL0     H 7532   6.010   6.174   3.896 -1.1138  1.3659  1.3171
  815MOL0     H 7533   6.230   6.480   3.731 -0.4283  0.0411 -0.8366
  815MOL0     H 7534   6.516   6.557   3.916  0.5628  0.4453  0.0653
  815MOL0     H 7535   6.449   6.581   3.753  1.4882 -0.3839 -2.0165
  815MOL0     H 7536   6.663   6.373   3.837 -2.2630 -0.9510  0.4245
  815MOL0     H 7537   6.687   6.525   3.748  1.3889 -0.3620  0.4665
  815MOL0     H 7538   6.685   6.315   3.595  0.7951 -2.7026  2.5034
  815MOL0     H 7539   6.543   6.259   3.682  1.8170 -0.8317  0.5306
  815MOL0     H 7540   6.418   6.446   3.569 -0.9627  1.6274 -2.9170
  815MOL0     H 7541   6.487   6.329   3.466  0.6380 -1.2680  2.0277
  815MOL0     H 7542   6.612   6.235   3.354  2.3150  0.9758  2.2304
  815MOL0     H 7543   6.792   6.158   3.206  5.3310  0.9162 -3.6793
  815MOL0     H 7544   7.019   6.008   2.876 -0.7672 -0.4623  1.0465
  815MOL0     H 7545   7.247   5.909   2.806 -0.5160  2.4012 -1.3428
  815MOL0     H 7546   7.513   6.142   2.831  0.5304  0.6325 -2.2326
  815MOL0     H 7547   7.460   6.013   2.714 -1.2868  1.9423  0.6193
  815MOL0     H 7548   7.680   5.934   2.715  0.0664 -1.1913  1.6407
  815MOL0     H 7549   7.734   6.011   2.859 -1.1017 -1.0385  0.8777
  815MOL0     H 7550   7.693   6.229   2.747 -2.3566  1.3269 -2.1952
  815MOL0     H 7551   7.634   6.154   2.601  0.0185  1.7462 -0.5735
  815MOL0     H 7552   7.914   6.119   2.740 -0.7370 -1.0258  1.6134
  815MOL0     H 7553   7.888   6.057   2.576 -1.3011  2.0261 -2.3362
  815MOL0     H 7554   7.885   6.348   2.650  0.6021  0.2643 -1.2449
  815MOL0     H 7555   7.864   6.283   2.488  0.8424  1.7206  0.0627
  815MOL0     H 7556   8.116   6.192   2.538  3.5184  0.8150  1.4920
  815MOL0     H 7557   8.109   6.266   2.685 -2.1671  1.1568  1.2955
  815MOL0     H 7558   8.030   6.448   2.445 -1.5449 -1.4639 -0.1049
  815MOL0     H 7559   8.087   6.489   2.610 -0.5890 -0.5978  1.2038
  815MOL0     H 7560   8.250   6.385   2.385 -2.4454 -2.6604  1.0772
  815MOL0     H 7561   8.297   6.335   2.540  1.5832  2.0314  0.1177
  815MOL0     H 7562   7.425   6.075   3.147  0.4271 -3.9901 -1.0507
  815MOL0     H 7563   7.213   6.169   3.223 -1.3091 -1.5579 -0.0429
  815MOL0     H 7564   6.935   6.575   3.187  1.0096 -0.4529  0.8442
  815MOL0     H 7565   6.746   6.644   3.312  2.7155 -0.7221  2.7599
  815MOL0     H 7566   5.277   6.319   4.264 -1.3019  0.3360 -2.2684
  815MOL0     H 7567   5.197   6.401   4.469  1.7277 -1.1326 -1.1479
  815MOL0     H 7568   4.695   6.736   4.537 -0.5386 -2.1268 -0.2146
  815MOL0     H 7569   4.579   6.781   4.734 -0.1044 -1.5325 -1.1898
  815MOL0     H 7570   4.824   6.787   5.143  0.3060  0.4703 -1.0403
  815MOL0     H 7571   4.717   6.649   5.122  2.1477 -0.4784  0.3202
  815MOL0     H 7572   4.538   6.741   5.233 -0.0700 -0.0303  4.8359
  815MOL0     H 7573   4.646   6.797   5.343 -3.6052  1.9666  1.9102
  815MOL0     H 7574   4.542   6.958   5.122 -0.9563  0.8532  1.5040
  815MOL0     H 7575   4.668   7.011   5.247  0.1456  0.1018  1.2451
  815MOL0     H 7576   4.376   6.930   5.312 -1.3673  2.6996  2.3769
  815MOL0     H 7577   4.500   6.996   5.411  1.7933 -0.1810 -0.8579
  815MOL0     H 7578   4.382   7.344   5.188  2.2103  0.4671  1.0182
  815MOL0     H 7579   4.912   6.702   4.981 -1.1633 -3.6335  0.0600
  815MOL0     H 7580   5.037   6.623   4.775 -0.0184  0.8820 -1.8172
  816MOL0     O 7581   6.025   7.288   6.813  0.5560 -0.4708  0.1051
  816MOL0     C 7582   6.137   7.339   6.819  0.0614 -0.2037  0.3259
  816MOL0     O 7583   6.231   7.324   6.915  0.5364 -0.3678  0.1913
  816MOL0     C 7584   6.195   7.271   7.041 -0.0478 -0.0461 -0.5850
  816MOL0     C 7585   6.080   7.318   7.113  1.3109 -0.1066 -0.3958
  816MOL0     C 7586   6.059   7.282   7.254 -0.0550  0.0401 -0.1586
  816MOL0     C 7587   6.153   7.193   7.317  0.6216 -0.1377 -0.4219
  816MOL0     O 7588   6.141   7.147   7.448  0.0080 -0.8991  0.9420
  816MOL0     C 7589   6.077   7.237   7.541 -0.7361  0.1171 -0.4583
  816MOL0     C 7590   6.093   7.176   7.680 -0.5287 -0.3897  1.0644
  816MOL0     C 7591   6.017   7.259   7.782  0.7772 -0.2077  0.2895
  816MOL0     C 7592   6.030   7.200   7.923 -0.6397  0.5691  0.2143
  816MOL0     C 7593   5.944   7.271   8.031  0.6924 -0.4731  0.0640
  816MOL0     C 7594   5.796   7.245   8.001 -0.2392  0.0565 -0.2907
  816MOL0     C 7595   5.718   7.273   8.127  0.5806  0.9035 -0.2021
  816MOL0     C 7596   5.570   7.213   8.114 -0.6122  0.0956  0.1086
  816MOL0     N 7597   5.492   7.226   8.234 -0.5283  0.0636 -0.1234
  816MOL0     C 7598   5.482   7.149   8.342  0.1903  0.1726 -0.5423
  816MOL0     C 7599   5.379   7.197   8.422  0.2966  0.9508 -1.0184
  816MOL0     C 7600   5.344   7.158   8.559  0.0876  0.3926 -0.1957
  816MOL0     C 7601   5.375   7.002   8.602 -0.6361  0.7396 -1.0692
  816MOL0     C 7602   5.273   6.893   8.558  0.3997 -0.1568  0.3047
  816MOL0     C 7603   5.136   6.913   8.618  0.8512  0.1756  0.1553
  816MOL0     O 7604   5.068   6.782   8.603 -0.4654  0.0387  0.8676
  816MOL0     C 7605   4.940   6.774   8.663 -0.6957 -0.6585  0.5644
  816MOL0     C 7606   4.874   6.649   8.671  1.0580  0.1242 -0.9160
  816MOL0     C 7607   4.752   6.641   8.748 -0.7101 -0.2422 -0.0399
  816MOL0     C 7608   4.695   6.749   8.809  1.2847  0.9026 -0.7077
  816MOL0     C 7609   4.562   6.738   8.869 -1.0514  0.4305  0.4921
  816MOL0     O 7610   4.503   6.615   8.880 -0.4139 -0.5435 -0.7910
  816MOL0     C 7611   4.383   6.597   8.939 -1.1715 -1.4535 -0.3357
  816MOL0     C 7612   4.296   6.508   8.876 -0.2695 -0.4603  0.7373
  816MOL0     C 7613   4.161   6.496   8.926 -0.4177  0.7901 -0.7146
  816MOL0     C 7614   4.122   6.553   9.050 -0.5084 -0.2719  0.6858
  816MOL0     O 7615   4.002   6.524   9.105 -0.9322 -0.1901 -0.0963
  816MOL0     C 7616   3.887   6.578   9.034  0.2511 -0.1807  0.8963
  816MOL0     C 7617   3.787   6.490   8.949 -0.5613  0.2154 -0.2486
  816MOL0     C 7618   3.718   6.390   9.044  0.5755  0.5834  0.5287
  816MOL0     C 7619   3.657   6.279   8.952  0.0736 -0.4109  0.5236
  816MOL0     C 7620   3.542   6.219   9.033  0.1745 -0.9113 -0.1215
  816MOL0     C 7621   3.484   6.095   8.963  0.0201  0.2595 -0.1312
  816MOL0     C 7622   3.369   6.035   9.034 -0.1470  0.1554 -0.3540
  816MOL0     C 7623   3.257   6.002   8.950  0.1842  0.1472 -0.5370
  816MOL0    Cl 7624   3.298   5.875   8.822 -0.3593  0.1193  0.8677
  816MOL0     C 7625   4.215   6.624   9.120  0.4103 -0.5615 -0.3003
  816MOL0     C 7626   4.341   6.650   9.063  0.0415 -0.5425 -0.3310
  816MOL0     O 7627   4.503   6.845   8.898  0.2204  0.1908 -0.0786
  816MOL0     C 7628   4.762   6.873   8.791  0.1410  0.4604  0.4309
  816MOL0     C 7629   4.884   6.878   8.726  0.3489 -0.6792 -0.4563
  816MOL0     N 7630   5.319   7.295   8.354  0.5245  0.1069 -0.1657
  816MOL0     N 7631   5.393   7.319   8.257 -0.8794  0.2855  0.2823
  816MOL0     C 7632   6.266   7.153   7.249 -0.4648  0.2125  0.9152
  816MOL0     C 7633   6.288   7.193   7.111 -0.0743 -0.2506 -0.8880
  816MOL0     C 7634   6.179   7.433   6.710  0.0368 -0.3846 -0.5426
  816MOL0     C 7635   6.291   7.521   6.729 -0.3858  0.1447 -0.0176
  816MOL0     C 7636   6.333   7.605   6.631 -0.0062 -0.7273  0.8210
  816MOL0     C 7637   6.261   7.609   6.509 -0.5856 -0.2510 -0.0875
  816MOL0     O 7638   6.308   7.694   6.414 -0.9730  0.5404  0.1391
  816MOL0     C 7639   6.232   7.696   6.290  0.7544  0.4770  0.4096
  816MOL0     C 7640   6.277   7.575   6.200 -0.5135 -0.8463  0.9168
  816MOL0     C 7641   6.431   7.580   6.171 -0.0347 -0.3462 -0.1124
  816MOL0     C 7642   6.450   7.528   6.028  0.4765  0.9316 -0.1024
  816MOL0     C 7643   6.586   7.506   6.000  0.0641  0.2706 -0.1013
  816MOL0     C 7644   6.707   7.501   5.999 -1.0207  1.0324  0.8544
  816MOL0     C 7645   6.142   7.532   6.499  0.6338 -0.0441  0.4147
  816MOL0     C 7646   6.098   7.448   6.600 -0.0763  0.1358 -0.4676
  816MOL0     H 7647   6.005   7.379   7.063 -0.0652  0.0404  1.7483
  816MOL0     H 7648   5.980   7.322   7.317  1.5200  0.2464  1.7760
  816MOL0     H 7649   5.970   7.240   7.516 -0.4285 -0.1897 -1.8666
  816MOL0     H 7650   6.122   7.337   7.536 -0.9269  0.2935  0.8740
  816MOL0     H 7651   6.200   7.168   7.700  0.4158  1.6561 -2.3202
  816MOL0     H 7652   6.064   7.071   7.686  2.0028 -1.1018  2.1478
  816MOL0     H 7653   5.911   7.270   7.756  0.7928 -0.4367  0.1228
  816MOL0     H 7654   6.049   7.363   7.785 -2.3271  0.8756 -0.5537
  816MOL0     H 7655   6.003   7.095   7.917  0.6181  0.1816  0.9432
  816MOL0     H 7656   6.137   7.201   7.947 -0.0993  1.0904 -2.0332
  816MOL0     H 7657   5.953   7.380   8.027 -3.1240  0.0064  0.2008
  816MOL0     H 7658   5.963   7.220   8.126 -2.4759 -3.9445 -0.9447
  816MOL0     H 7659   5.778   7.141   7.974  0.3733  0.2219 -1.4252
  816MOL0     H 7660   5.763   7.314   7.922  0.4455  0.3089 -0.3596
  816MOL0     H 7661   5.767   7.229   8.215  1.7251 -0.3010 -1.3896
  816MOL0     H 7662   5.718   7.381   8.143  2.4938  0.8518  0.3984
  816MOL0     H 7663   5.585   7.110   8.080 -2.0632  0.9610 -3.7199
  816MOL0     H 7664   5.521   7.256   8.026 -2.3951  1.0945  1.5377
  816MOL0     H 7665   5.542   7.068   8.381 -0.5772  0.1906  0.6996
  816MOL0     H 7666   5.236   7.163   8.570  0.0045  0.9648 -1.1837
  816MOL0     H 7667   5.402   7.217   8.630  0.7534 -1.3147  0.7495
  816MOL0     H 7668   5.372   6.997   8.712  2.0420 -2.9378 -0.9840
  816MOL0     H 7669   5.480   6.979   8.583 -0.5885  0.1939 -0.2209
  816MOL0     H 7670   5.267   6.895   8.449  1.6813 -0.2388  0.2149
  816MOL0     H 7671   5.317   6.795   8.578  1.7255  0.2594 -0.3868
  816MOL0     H 7672   5.095   6.993   8.556  1.5118 -0.2015 -0.7999
  816MOL0     H 7673   5.143   6.950   8.720 -0.4563 -0.0784  0.3549
  816MOL0     H 7674   4.916   6.559   8.627  1.6029  0.9604 -2.1887
  816MOL0     H 7675   4.693   6.550   8.749  1.2786 -1.5956  0.8082
  816MOL0     H 7676   4.319   6.457   8.782 -0.5907  2.0854 -0.8289
  816MOL0     H 7677   4.087   6.433   8.880 -1.9425  2.2587 -0.3621
  816MOL0     H 7678   3.925   6.650   8.961 -0.1645  0.1454  1.0006
  816MOL0     H 7679   3.818   6.634   9.098  1.2410  0.8791  1.0744
  816MOL0     H 7680   3.834   6.440   8.864 -0.3380  0.5184 -0.3051
  816MOL0     H 7681   3.713   6.554   8.901  1.2661  1.7924 -1.0685
  816MOL0     H 7682   3.653   6.442   9.115  2.2062  0.0961  2.4663
  816MOL0     H 7683   3.800   6.342   9.099  0.1759  0.9952  1.5053
  816MOL0     H 7684   3.621   6.324   8.860  0.5442 -1.4024 -0.1621
  816MOL0     H 7685   3.738   6.213   8.919 -0.1677  0.2036 -1.4057
  816MOL0     H 7686   3.465   6.288   9.069 -0.2483 -1.0671 -0.6952
  816MOL0     H 7687   3.593   6.180   9.121  0.5096 -1.2962 -0.4840
  816MOL0     H 7688   3.562   6.019   8.952 -0.2930  0.0854 -1.3376
  816MOL0     H 7689   3.455   6.132   8.864  2.2536 -0.4400 -1.1195
  816MOL0     H 7690   3.395   5.940   9.081 -0.7946  0.9724  1.7832
  816MOL0     H 7691   3.331   6.107   9.107  0.6987  1.6099 -1.2986
  816MOL0     H 7692   3.216   6.087   8.895 -0.8053  0.9951  1.3851
  816MOL0     H 7693   3.176   5.967   9.015 -0.0284  1.1578 -0.2304
  816MOL0     H 7694   4.188   6.671   9.213  2.4877  1.8466 -0.7924
  816MOL0     H 7695   4.405   6.707   9.130 -3.2430  1.9471  0.9083
  816MOL0     H 7696   4.716   6.962   8.833 -0.1869 -0.1179  1.3262
  816MOL0     H 7697   4.939   6.972   8.719  0.6564 -0.9120 -1.2216
  816MOL0     H 7698   6.331   7.090   7.308 -0.1039 -0.7850 -0.4831
  816MOL0     H 7699   6.373   7.161   7.051 -1.2509  0.0777 -2.8005
  816MOL0     H 7700   6.343   7.523   6.824 -1.7691  2.1200  0.7486
  816MOL0     H 7701   6.412   7.679   6.645 -1.6391  1.1157  0.7044
  816MOL0     H 7702   6.263   7.788   6.238 -1.8453  0.9534 -0.4118
  816MOL0     H 7703   6.124   7.702   6.302  0.6083 -1.2958  0.2113
  816MOL0     H 7704   6.250   7.480   6.248 -0.8168 -1.7735 -0.9742
  816MOL0     H 7705   6.215   7.587   6.111 -1.2966 -0.9239  1.4462
  816MOL0     H 7706   6.502   7.529   6.237  1.5187 -1.4936 -2.5281
  816MOL0     H 7707   6.456   7.687   6.172 -5.2401  1.1988 -2.5760
  816MOL0     H 7708   6.409   7.427   6.020  1.8331  0.3145  0.4812
  816MOL0     H 7709   6.394   7.590   5.957  0.4666  1.5935  0.4716
  816MOL0     H 7710   6.814   7.507   5.994 -1.0426  0.4189 -1.7360
  816MOL0     H 7711   6.074   7.537   6.414 -0.7208 -0.7372  1.4202
  816MOL0     H 7712   6.004   7.396   6.614 -0.3838  1.1232  1.4776
  817MOL0     O 7713   2.255   6.630   3.783 -0.7163 -0.0212 -0.3983
  817MOL0     C 7714   2.318   6.641   3.891  0.4345  0.0034 -0.6532
  817MOL0     O 7715   2.269   6.691   4.008 -0.2015 -0.5025 -1.8687
  817MOL0     C 7716   2.132   6.708   4.026  0.2752 -0.9006  0.0635
  817MOL0     C 7717   2.044   6.736   3.917  0.6843 -0.3522  0.0913
  817MOL0     C 7718   1.901   6.750   3.939  0.0217 -0.7932  0.2644
  817MOL0     C 7719   1.843   6.725   4.065 -0.8225 -0.5174  0.3650
  817MOL0     O 7720   1.707   6.715   4.080 -0.5464  0.6365  0.7744
  817MOL0     C 7721   1.620   6.773   3.985 -0.4343 -0.1572 -0.2534
  817MOL0     C 7722   1.485   6.748   4.046 -0.8195 -0.7888  0.3525
  817MOL0     C 7723   1.379   6.839   3.965  0.4899  0.8822  0.5257
  817MOL0     C 7724   1.383   6.986   3.996  0.2161  0.5792  0.3221
  817MOL0     C 7725   1.258   7.056   3.940  0.4978 -0.0811  0.0914
  817MOL0     C 7726   1.264   7.211   3.940 -0.2665  0.0246 -0.4824
  817MOL0     C 7727   1.132   7.253   3.886 -0.2491 -0.5127  0.0726
  817MOL0     C 7728   1.053   7.304   4.013  0.3694  0.0192 -0.1940
  817MOL0     N 7729   0.913   7.318   3.999 -0.1766 -1.0908 -1.2606
  817MOL0     C 7730   0.824   7.210   4.007  0.5369 -0.7918  0.9661
  817MOL0     C 7731   0.709   7.266   3.954  1.1792  0.5218 -0.2698
  817MOL0     C 7732   0.578   7.180   3.927  0.2951  1.5459  1.1331
  817MOL0     C 7733   0.532   7.189   3.779  0.0271  0.0511 -0.4302
  817MOL0     C 7734   0.537   7.056   3.693 -0.4809  0.6865 -0.1802
  817MOL0     C 7735   0.675   7.004   3.652 -0.8860  0.9374 -0.2532
  817MOL0     O 7736   0.751   7.090   3.567 -0.3249  0.4081  0.4761
  817MOL0     C 7737   0.891   7.092   3.570 -0.5442  0.2543  0.3212
  817MOL0     C 7738   0.969   6.972   3.571 -0.2492 -0.7101  1.4144
  817MOL0     C 7739   1.109   6.974   3.559 -0.3619 -0.2781 -0.2631
  817MOL0     C 7740   1.181   7.100   3.546 -0.1967  0.2334 -0.1837
  817MOL0     C 7741   1.322   7.116   3.536  0.5924  0.7904  0.3764
  817MOL0     O 7742   1.372   6.998   3.479  0.1400  0.0534 -0.9509
  817MOL0     C 7743   1.501   6.968   3.502 -1.5439  0.2712 -0.3302
  817MOL0     C 7744   1.563   6.887   3.399  0.8884  0.4923 -0.1096
  817MOL0     C 7745   1.703   6.856   3.413 -0.3203  0.3244  0.3048
  817MOL0     C 7746   1.786   6.908   3.514 -0.6722  0.1713 -0.7263
  817MOL0     O 7747   1.925   6.885   3.532  0.7041 -1.4805  0.7999
  817MOL0     C 7748   1.984   6.774   3.462 -0.6836 -0.7060 -0.0651
  817MOL0     C 7749   2.125   6.737   3.499  0.1859 -0.0562 -0.0963
  817MOL0     C 7750   2.219   6.849   3.486 -0.4837 -0.4690 -1.3173
  817MOL0     C 7751   2.373   6.819   3.501  0.3217  0.1421 -0.3320
  817MOL0     C 7752   2.468   6.896   3.395 -0.3238  0.1739  0.3065
  817MOL0     C 7753   2.611   6.849   3.417 -0.2178 -0.0868  0.1131
  817MOL0     C 7754   2.700   6.957   3.339  0.2445 -0.0896 -1.0720
  817MOL0     C 7755   2.852   6.924   3.364 -0.1327  0.3035 -0.2077
  817MOL0    Cl 7756   2.892   6.899   3.538 -0.1025  0.1369  0.0294
  817MOL0     C 7757   1.721   6.972   3.620 -0.2877  1.3490 -0.5586
  817MOL0     C 7758   1.586   7.004   3.619  0.0662  0.6080  0.1416
  817MOL0     O 7759   1.385   7.217   3.570  0.0993  0.0364  0.3029
  817MOL0     C 7760   1.097   7.219   3.559 -0.9258 -0.0249  0.5997
  817MOL0     C 7761   0.958   7.208   3.555 -0.2656 -1.2878 -0.8382
  817MOL0     N 7762   0.719   7.399   3.929 -1.5201 -0.5323  0.0060
  817MOL0     N 7763   0.852   7.425   3.945 -0.8759 -0.7408  1.1501
  817MOL0     C 7764   1.938   6.701   4.167 -0.2851 -0.2443  0.1804
  817MOL0     C 7765   2.080   6.695   4.153  0.6571  0.3072 -0.4853
  817MOL0     C 7766   2.443   6.564   3.904  0.1309 -0.8101  0.1322
  817MOL0     C 7767   2.466   6.459   3.820 -0.2310  0.0622  0.7168
  817MOL0     C 7768   2.586   6.387   3.839 -0.2193 -0.4315  0.4071
  817MOL0     C 7769   2.677   6.412   3.946 -0.4030 -0.2614  0.9824
  817MOL0     O 7770   2.789   6.335   3.948 -0.7271  0.0568  0.0851
  817MOL0     C 7771   2.884   6.362   4.041 -0.4782 -0.2337  0.6579
  817MOL0     C 7772   2.994   6.257   4.021 -0.9080  0.3764 -0.7871
  817MOL0     C 7773   3.109   6.264   4.128  0.3487  0.0096  0.0611
  817MOL0     C 7774   3.152   6.397   4.189 -0.2558 -0.5631  0.3890
  817MOL0     C 7775   3.279   6.390   4.247  0.1488 -0.4057  0.2684
  817MOL0     C 7776   3.392   6.394   4.291 -0.5737 -0.4169  0.7659
  817MOL0     C 7777   2.636   6.509   4.039  0.0943 -0.0448  0.0950
  817MOL0     C 7778   2.526   6.588   4.020 -0.1779  0.5678 -0.1758
  817MOL0     H 7779   2.086   6.771   3.823  0.4488  4.4705  1.5073
  817MOL0     H 7780   1.845   6.753   3.846 -0.0805 -0.3922  0.3393
  817MOL0     H 7781   1.627   6.718   3.890 -2.2239 -1.5547  0.3811
  817MOL0     H 7782   1.637   6.881   3.986 -2.5378  0.1988 -0.0382
  817MOL0     H 7783   1.483   6.782   4.150 -1.2748  0.7310 -0.1239
  817MOL0     H 7784   1.466   6.642   4.029 -2.0377 -0.5230 -0.0483
  817MOL0     H 7785   1.280   6.806   3.997  0.5111  1.3244  1.0571
  817MOL0     H 7786   1.386   6.814   3.859 -3.5102 -0.7875  0.4868
  817MOL0     H 7787   1.389   6.997   4.105  3.1476 -1.6467  0.5242
  817MOL0     H 7788   1.464   7.032   3.939  1.3080 -1.6099 -0.0133
  817MOL0     H 7789   1.179   7.033   4.012  0.8748 -1.9434 -0.0276
  817MOL0     H 7790   1.228   7.007   3.848 -0.8141 -0.6681  0.8105
  817MOL0     H 7791   1.346   7.244   3.874  0.4281  1.8512  1.2045
  817MOL0     H 7792   1.295   7.247   4.038  2.9364 -2.0003 -0.5886
  817MOL0     H 7793   1.156   7.339   3.822  4.2664 -0.4536  1.4841
  817MOL0     H 7794   1.079   7.166   3.846 -0.3249 -0.1201 -0.7125
  817MOL0     H 7795   1.094   7.404   4.031  2.3959 -1.1133  2.1586
  817MOL0     H 7796   1.067   7.233   4.095 -1.0520 -2.1245 -1.7060
  817MOL0     H 7797   0.845   7.106   4.029  0.0484 -0.9507  0.6828
  817MOL0     H 7798   0.493   7.207   3.991  0.6833 -1.0174  2.9117
  817MOL0     H 7799   0.619   7.086   3.968  0.3875  1.8086  1.6577
  817MOL0     H 7800   0.579   7.273   3.727 -2.1085  1.9605  0.4911
  817MOL0     H 7801   0.426   7.216   3.793  0.2961  0.0491  2.0366
  817MOL0     H 7802   0.497   6.984   3.765  0.4425  1.5106  1.2068
  817MOL0     H 7803   0.468   7.076   3.611 -2.0453 -0.2204  0.8608
  817MOL0     H 7804   0.678   6.909   3.598  0.8514 -1.6279  3.8666
  817MOL0     H 7805   0.738   6.991   3.741  0.9534  3.5744 -1.0515
  817MOL0     H 7806   0.913   6.880   3.553 -0.4595 -0.0573 -1.8735
  817MOL0     H 7807   1.159   6.878   3.548 -2.1606 -1.4788  1.2680
  817MOL0     H 7808   1.504   6.836   3.323 -0.5960  0.3997  1.0734
  817MOL0     H 7809   1.752   6.796   3.338  0.1870  4.7123 -3.2682
  817MOL0     H 7810   1.975   6.797   3.355  1.0776  2.1222  0.3033
  817MOL0     H 7811   1.930   6.679   3.473  2.8306 -3.3750 -3.1669
  817MOL0     H 7812   2.159   6.649   3.443  1.1300  0.6689 -0.6981
  817MOL0     H 7813   2.125   6.690   3.598  0.2702  0.7614  0.3015
  817MOL0     H 7814   2.196   6.931   3.555 -0.5926 -1.7064  0.1857
  817MOL0     H 7815   2.213   6.891   3.385 -0.9513 -0.4505 -1.2857
  817MOL0     H 7816   2.397   6.846   3.604 -2.3925 -1.9217  0.9835
  817MOL0     H 7817   2.378   6.711   3.484  0.6019  0.3069 -1.3894
  817MOL0     H 7818   2.454   7.004   3.406 -1.3105  0.2787 -1.4930
  817MOL0     H 7819   2.433   6.872   3.294 -0.8184 -0.4587  0.6181
  817MOL0     H 7820   2.612   6.744   3.385 -2.8415  0.1260 -0.9541
  817MOL0     H 7821   2.621   6.859   3.525 -1.7791  0.9051  0.1958
  817MOL0     H 7822   2.681   6.964   3.231 -0.2631 -0.0391 -0.9794
  817MOL0     H 7823   2.676   7.055   3.381  0.5271  0.3494 -1.9123
  817MOL0     H 7824   2.906   7.005   3.316 -1.5342  1.0867 -0.5199
  817MOL0     H 7825   2.873   6.832   3.307 -1.0258  1.3878 -2.4050
  817MOL0     H 7826   1.780   7.015   3.700  0.2749  0.0563 -0.2630
  817MOL0     H 7827   1.552   7.059   3.707  2.1619 -0.3047  1.5968
  817MOL0     H 7828   1.150   7.314   3.557  2.6022 -1.8589 -1.3310
  817MOL0     H 7829   0.895   7.296   3.543 -0.1834 -0.9825  0.7743
  817MOL0     H 7830   1.907   6.679   4.268 -1.2292 -1.0449 -0.2670
  817MOL0     H 7831   2.131   6.681   4.248  0.5795 -1.6700 -0.6933
  817MOL0     H 7832   2.391   6.437   3.745 -1.2659 -0.6796  1.9229
  817MOL0     H 7833   2.598   6.302   3.773  0.0778  2.5839 -3.7703
  817MOL0     H 7834   2.847   6.358   4.144 -0.7297 -0.9986  0.5484
  817MOL0     H 7835   2.934   6.458   4.024 -3.4161  1.2887 -0.0230
  817MOL0     H 7836   2.956   6.154   4.030 -0.2507  0.2531  1.1432
  817MOL0     H 7837   3.041   6.273   3.924  2.1201  0.2875  0.5615
  817MOL0     H 7838   3.193   6.213   4.079 -1.1669 -1.0241 -1.6111
  817MOL0     H 7839   3.079   6.205   4.214  1.0240 -0.4754 -0.0261
  817MOL0     H 7840   3.148   6.477   4.114 -0.6976 -2.6116 -1.9147
  817MOL0     H 7841   3.079   6.424   4.266 -3.4868  0.7187 -2.7882
  817MOL0     H 7842   3.489   6.381   4.334 -0.0234  1.2126  0.0931
  817MOL0     H 7843   2.688   6.530   4.131  0.6817  4.2562 -1.0273
  817MOL0     H 7844   2.491   6.671   4.082 -1.1088  4.1268 -4.9372
  818MOL0     O 7845   2.441   7.879  10.736 -0.1756 -0.0954 -0.4101
  818MOL0     C 7846   2.329   7.844  10.707 -0.3754 -0.1216 -0.1934
  818MOL0     O 7847   2.269   7.862  10.574  0.3200  0.4148 -0.6264
  818MOL0     C 7848   2.345   7.931  10.483 -0.0252 -0.3748  0.3110
  818MOL0     C 7849   2.431   7.865  10.388  0.0772  0.3474  0.4015
  818MOL0     C 7850   2.488   7.931  10.281 -0.1832 -0.3626  0.3099
  818MOL0     C 7851   2.484   8.076  10.268  0.1588  0.6589 -0.1228
  818MOL0     O 7852   2.552   8.139  10.164  0.8562 -0.2323 -0.6192
  818MOL0     C 7853   2.616   8.069  10.057  0.8446 -0.0859  1.1075
  818MOL0     C 7854   2.651   8.170   9.951 -0.5039  0.3779 -0.1519
  818MOL0     C 7855   2.544   8.268   9.897 -0.3227  0.6368  0.0885
  818MOL0     C 7856   2.581   8.332   9.763 -0.3140  0.5427 -0.1721
  818MOL0     C 7857   2.481   8.437   9.718  0.9781 -0.0246 -0.2240
  818MOL0     C 7858   2.446   8.446   9.562 -0.3096  0.2028  0.3449
  818MOL0     C 7859   2.398   8.314   9.506 -0.0073  0.4590  0.0611
  818MOL0     C 7860   2.265   8.322   9.438 -0.2933 -0.3288  0.0646
  818MOL0     N 7861   2.163   8.343   9.540  0.1888 -0.4185  0.1424
  818MOL0     C 7862   2.100   8.252   9.622 -0.4666  0.2820  0.1528
  818MOL0     C 7863   2.029   8.320   9.717  0.9306  0.1676  0.7484
  818MOL0     C 7864   1.986   8.251   9.841 -1.0597  0.5764 -0.2258
  818MOL0     C 7865   2.099   8.230   9.946  0.3683  0.1351  0.6384
  818MOL0     C 7866   2.115   8.358  10.038 -0.3736 -1.3380 -0.4553
  818MOL0     C 7867   2.241   8.348  10.134  0.2934  0.0703 -0.1562
  818MOL0     O 7868   2.245   8.471  10.217  0.4594 -0.1099 -0.4200
  818MOL0     C 7869   2.312   8.585  10.175 -0.4870  0.6469 -0.4479
  818MOL0     C 7870   2.311   8.686  10.265  0.9261  0.0830  0.1718
  818MOL0     C 7871   2.370   8.811  10.239 -0.4223 -0.0274 -0.0588
  818MOL0     C 7872   2.446   8.822  10.120 -0.4754 -0.0410 -0.0074
  818MOL0     C 7873   2.514   8.950  10.087  0.0073  0.1576 -0.0084
  818MOL0     O 7874   2.601   8.958   9.985 -0.0631  0.6282 -0.1021
  818MOL0     C 7875   2.675   9.065   9.967  0.3081  0.0346 -0.1293
  818MOL0     C 7876   2.628   9.191   9.951  0.3008 -0.4207  0.1514
  818MOL0     C 7877   2.721   9.299   9.925  0.3613  0.6938  0.0622
  818MOL0     C 7878   2.851   9.275   9.889  0.4720 -0.6826  0.4141
  818MOL0     O 7879   2.939   9.381   9.853  0.7131  0.2438  0.4599
  818MOL0     C 7880   2.891   9.481   9.754 -1.2841 -0.4162 -0.8193
  818MOL0     C 7881   2.875   9.413   9.620  0.1521 -0.9540 -0.0627
  818MOL0     C 7882   3.015   9.358   9.569 -0.2951  0.4296 -0.1842
  818MOL0     C 7883   3.005   9.294   9.427 -1.1813  0.5249  0.5563
  818MOL0     C 7884   3.031   9.138   9.432 -1.2998  0.2324 -0.3705
  818MOL0     C 7885   2.934   9.058   9.512 -0.0180  0.0363 -0.7564
  818MOL0     C 7886   2.952   8.901   9.479 -0.1648  0.3602  0.0238
  818MOL0     C 7887   2.865   8.811   9.572  0.1325 -0.0919  1.0585
  818MOL0    Cl 7888   2.928   8.648   9.592  0.1279  0.3376 -0.0452
  818MOL0     C 7889   2.896   9.151   9.908  0.0797  0.8849 -0.5095
  818MOL0     C 7890   2.813   9.045   9.946 -0.1430  0.5776  0.9040
  818MOL0     O 7891   2.484   9.044  10.161  0.2301 -0.9137  0.6552
  818MOL0     C 7892   2.445   8.720  10.030 -0.6141  0.0628  0.4518
  818MOL0     C 7893   2.378   8.604  10.054  0.2387 -0.9199 -0.8653
  818MOL0     N 7894   2.049   8.457   9.689  0.2569  0.1971  0.1981
  818MOL0     N 7895   2.124   8.463   9.581 -0.5993  1.0545  0.5409
  818MOL0     C 7896   2.410   8.142  10.365 -0.0668 -0.1107 -0.1579
  818MOL0     C 7897   2.343   8.071  10.468 -0.2048 -0.7913  0.2641
  818MOL0     C 7898   2.239   7.791  10.809  0.1783 -0.1150 -0.3081
  818MOL0     C 7899   2.275   7.812  10.945 -0.1360 -0.0954  0.0667
  818MOL0     C 7900   2.188   7.783  11.048  0.4564  0.0400 -1.0834
  818MOL0     C 7901   2.058   7.729  11.019  0.3942  0.4537  0.8808
  818MOL0     O 7902   1.952   7.706  11.113 -0.3631 -0.4025 -0.8139
  818MOL0     C 7903   1.998   7.728  11.252  0.4336 -0.3969  0.5293
  818MOL0     C 7904   1.885   7.688  11.343 -0.3844 -0.1023 -0.5906
  818MOL0     C 7905   1.834   7.542  11.332  0.3554 -0.4390  0.4305
  818MOL0     C 7906   1.736   7.517  11.441  0.0780  0.0704 -0.3872
  818MOL0     C 7907   1.808   7.497  11.572  0.3925  0.0999  0.2536
  818MOL0     C 7908   1.860   7.480  11.686 -0.5508 -0.0075  0.3756
  818MOL0     C 7909   2.021   7.713  10.882 -1.0554  0.0259 -0.3732
  818MOL0     C 7910   2.111   7.747  10.776  0.5044  0.3773 -0.5524
  818MOL0     H 7911   2.449   7.758  10.395  0.7388  0.4758  0.7538
  818MOL0     H 7912   2.541   7.871  10.209  1.2293  0.5979  0.5010
  818MOL0     H 7913   2.556   7.987  10.017  1.1402 -0.2410  0.9774
  818MOL0     H 7914   2.703   8.018  10.099  1.1411 -1.1766 -0.7551
  818MOL0     H 7915   2.685   8.112   9.865 -0.6973  2.0974 -1.4468
  818MOL0     H 7916   2.738   8.230   9.979 -0.6132  0.5286 -0.1333
  818MOL0     H 7917   2.527   8.338   9.979 -1.8767 -0.1853  0.5043
  818MOL0     H 7918   2.446   8.223   9.876 -1.1875  3.4002 -2.5611
  818MOL0     H 7919   2.677   8.385   9.771 -0.6862  1.1529  0.2957
  818MOL0     H 7920   2.597   8.257   9.685 -0.2518  0.7104 -0.3231
  818MOL0     H 7921   2.511   8.534   9.758  0.6303 -1.6496  4.6712
  818MOL0     H 7922   2.382   8.414   9.761  0.6915 -0.5038 -1.1141
  818MOL0     H 7923   2.530   8.464   9.494 -0.1190  1.4894  0.8847
  818MOL0     H 7924   2.361   8.513   9.547 -1.9809 -1.8925 -0.0146
  818MOL0     H 7925   2.466   8.265   9.436  0.4812 -2.5057  2.3915
  818MOL0     H 7926   2.386   8.232   9.577 -0.1333  1.1027  0.7924
  818MOL0     H 7927   2.255   8.225   9.386 -2.6598 -0.9977  1.5902
  818MOL0     H 7928   2.264   8.400   9.361  2.5143  0.7943  1.0524
  818MOL0     H 7929   2.103   8.144   9.628  1.6492  0.3878  3.0722
  818MOL0     H 7930   1.954   8.150   9.816 -0.2775  0.8450 -2.5983
  818MOL0     H 7931   1.897   8.305   9.877 -1.1967 -0.2415  0.6882
  818MOL0     H 7932   2.195   8.203   9.901 -0.9358 -1.6041 -1.2564
  818MOL0     H 7933   2.062   8.147  10.007  0.2499 -0.3097 -0.0294
  818MOL0     H 7934   2.134   8.443   9.971  0.3439 -2.4151 -1.6648
  818MOL0     H 7935   2.026   8.389  10.093  0.2752  1.0043 -0.6235
  818MOL0     H 7936   2.337   8.330  10.084 -0.9541 -0.1368 -2.6637
  818MOL0     H 7937   2.215   8.268  10.204 -0.0674 -0.4750 -0.8980
  818MOL0     H 7938   2.248   8.681  10.354 -1.4607 -1.1661 -1.4631
  818MOL0     H 7939   2.353   8.893  10.308 -2.5862 -1.2661  0.9788
  818MOL0     H 7940   2.531   9.239   9.957  2.5804  4.7245  2.0202
  818MOL0     H 7941   2.675   9.397   9.933 -0.2643  0.4695 -0.6360
  818MOL0     H 7942   2.962   9.562   9.736 -1.1847 -0.5884 -1.1913
  818MOL0     H 7943   2.795   9.523   9.787 -2.1434 -4.4351  2.8314
  818MOL0     H 7944   2.826   9.472   9.543  0.1485 -0.3700  0.3788
  818MOL0     H 7945   2.811   9.324   9.629 -0.3878 -0.4767  1.0156
  818MOL0     H 7946   3.048   9.277   9.635  1.1657  1.4070  0.3221
  818MOL0     H 7947   3.098   9.429   9.558  2.3984 -2.4222  0.4104
  818MOL0     H 7948   2.904   9.309   9.386  0.1754  2.2393 -2.4890
  818MOL0     H 7949   3.067   9.344   9.352 -2.2773  0.7519 -0.2442
  818MOL0     H 7950   3.132   9.120   9.470 -2.0938  0.6399  2.1608
  818MOL0     H 7951   3.022   9.104   9.329  0.4162  0.3435 -0.5925
  818MOL0     H 7952   2.833   9.083   9.481 -0.1289  1.4591  0.6277
  818MOL0     H 7953   2.949   9.075   9.619  0.6251 -3.0139 -0.2684
  818MOL0     H 7954   2.936   8.882   9.373 -1.0441  3.2067 -0.4361
  818MOL0     H 7955   3.057   8.875   9.498  0.9017  3.5930 -0.7221
  818MOL0     H 7956   2.759   8.806   9.548 -0.8087  2.2825  4.0036
  818MOL0     H 7957   2.873   8.858   9.671  0.9770  2.8015 -0.2942
  818MOL0     H 7958   3.004   9.139   9.899 -0.0870  0.0771 -1.5380
  818MOL0     H 7959   2.851   8.943   9.948  2.9319  1.5748 -0.1052
  818MOL0     H 7960   2.501   8.719   9.937  3.3241 -1.8995  2.6117
  818MOL0     H 7961   2.361   8.538   9.969 -0.1159  1.9127 -3.1708
  818MOL0     H 7962   2.398   8.249  10.356 -4.4593 -0.4757 -0.5100
  818MOL0     H 7963   2.270   8.121  10.531 -1.2439  1.0868 -2.2448
  818MOL0     H 7964   2.377   7.840  10.970  0.3621 -1.9027  0.2056
  818MOL0     H 7965   2.233   7.795  11.146 -0.5498 -0.2562 -0.5686
  818MOL0     H 7966   2.030   7.831  11.269 -2.1270  0.4292  0.8049
  818MOL0     H 7967   2.081   7.658  11.264  0.2331 -0.7704 -0.1937
  818MOL0     H 7968   1.923   7.696  11.446 -1.5614 -3.3211  0.2267
  818MOL0     H 7969   1.798   7.753  11.332 -0.3795  0.5666  2.3969
  818MOL0     H 7970   1.918   7.476  11.356  1.9906  0.7747 -1.4889
  818MOL0     H 7971   1.798   7.517  11.231  0.8714 -0.7704  0.3245
  818MOL0     H 7972   1.671   7.604  11.456  0.9046  0.1697  4.1354
  818MOL0     H 7973   1.678   7.427  11.421  0.8666 -0.5084 -0.0897
  818MOL0     H 7974   1.916   7.463  11.776  1.9013 -0.8589 -1.2171
  818MOL0     H 7975   1.926   7.666  10.857 -0.2185 -2.3142  0.5150
  818MOL0     H 7976   2.091   7.710  10.676 -2.5570 -1.5104  0.6282
  819MOL0     O 7977   1.653   8.487  11.247  0.1217 -0.3887  0.8655
  819MOL0     C 7978   1.632   8.450  11.135  0.2570 -0.2408  0.6403
  819MOL0     O 7979   1.715   8.474  11.034 -0.4580 -0.1529 -0.5397
  819MOL0     C 7980   1.844   8.521  11.032  0.1459 -0.2877  0.2498
  819MOL0     C 7981   1.911   8.546  10.915 -0.6017  0.5163  0.2264
  819MOL0     C 7982   2.037   8.607  10.902 -0.3193 -0.2887 -0.6769
  819MOL0     C 7983   2.103   8.640  11.014 -0.6384  0.3763  0.6176
  819MOL0     O 7984   2.235   8.688  11.023  0.0178  0.1673  0.1841
  819MOL0     C 7985   2.302   8.734  10.907  0.5059  0.2035 -0.1845
  819MOL0     C 7986   2.427   8.814  10.937 -0.8420  0.8153 -0.0363
  819MOL0     C 7987   2.397   8.950  10.998 -0.3986  0.3928 -0.0794
  819MOL0     C 7988   2.507   9.057  10.975  0.0984  0.3732  0.3081
  819MOL0     C 7989   2.485   9.199  11.029 -0.4516  0.5593 -0.0133
  819MOL0     C 7990   2.420   9.281  10.917 -0.4268  0.5286 -0.1159
  819MOL0     C 7991   2.390   9.422  10.963 -0.5301  0.4244 -0.1474
  819MOL0     C 7992   2.348   9.516  10.854 -0.2827 -0.5428  0.0724
  819MOL0     N 7993   2.204   9.552  10.842 -0.1894  0.1174  0.5718
  819MOL0     C 7994   2.111   9.487  10.770  0.4090  0.3079  0.0209
  819MOL0     C 7995   1.995   9.538  10.815 -0.4546  0.0269 -0.6088
  819MOL0     C 7996   1.868   9.504  10.758 -0.0792 -0.3442  0.6137
  819MOL0     C 7997   1.783   9.428  10.848 -0.0444  0.3208 -0.1368
  819MOL0     C 7998   1.703   9.512  10.948 -0.6079 -0.2553 -1.0338
  819MOL0     C 7999   1.611   9.435  11.041 -0.0272 -1.4047  0.0913
  819MOL0     O 8000   1.539   9.330  10.986  0.0102 -0.6449  0.3650
  819MOL0     C 8001   1.409   9.354  10.953  0.8644  0.3060  0.9291
  819MOL0     C 8002   1.317   9.253  10.946  0.4265 -0.2414  1.1603
  819MOL0     C 8003   1.186   9.267  10.906  0.1367  0.6076  0.7409
  819MOL0     C 8004   1.136   9.393  10.864  0.2412 -0.1781  0.2218
  819MOL0     C 8005   0.996   9.408  10.832  0.6520 -0.7613 -0.5452
  819MOL0     O 8006   0.962   9.530  10.789 -0.4199  0.4571 -0.0557
  819MOL0     C 8007   0.840   9.561  10.746  0.4291 -0.0880  0.3710
  819MOL0     C 8008   0.823   9.636  10.625  0.3147 -0.0735  0.2753
  819MOL0     C 8009   0.709   9.688  10.583  0.1566  0.5655  0.1599
  819MOL0     C 8010   0.590   9.656  10.657  1.5149 -0.7198  0.0630
  819MOL0     O 8011   0.474   9.718  10.601 -0.4657 -0.6057  0.1475
  819MOL0     C 8012   0.354   9.666  10.652 -0.1547  0.0702 -0.5207
  819MOL0     C 8013   0.237   9.738  10.592  0.5895  0.2901  0.4279
  819MOL0     C 8014   0.098   9.679  10.638  0.3865 -0.0369 -0.4783
  819MOL0     C 8015  -0.020   9.767  10.584 -0.3261  0.8198  0.9039
  819MOL0     C 8016  -0.151   9.689  10.597 -0.2110 -0.6608 -0.3266
  819MOL0     C 8017  -0.174   9.586  10.487 -0.6539 -0.5656  0.1652
  819MOL0     C 8018  -0.322   9.558  10.484  0.0080  0.0245 -0.1250
  819MOL0     C 8019  -0.376   9.443  10.556  0.3292  0.6601  0.2449
  819MOL0    Cl 8020  -0.553   9.432  10.554  0.0403 -0.0521 -0.2988
  819MOL0     C 8021   0.603   9.579  10.772 -0.2276  0.0109  0.3668
  819MOL0     C 8022   0.725   9.535  10.821  0.6195  1.2291  0.1313
  819MOL0     O 8023   0.911   9.312  10.842  0.2182 -0.0604  0.8112
  819MOL0     C 8024   1.221   9.505  10.885  0.3446 -0.6080  0.0975
  819MOL0     C 8025   1.351   9.483  10.918  0.3193  0.4179 -0.2671
  819MOL0     N 8026   2.020   9.628  10.909  0.5908 -0.3577  0.1255
  819MOL0     N 8027   2.142   9.620  10.942 -0.3222 -0.0562 -0.1918
  819MOL0     C 8028   2.042   8.611  11.137 -0.1205  0.2820 -0.0065
  819MOL0     C 8029   1.920   8.557  11.150 -0.2276 -0.5487  0.3765
  819MOL0     C 8030   1.494   8.398  11.096  0.2605  0.0326  0.2084
  819MOL0     C 8031   1.398   8.358  11.195 -0.5846  0.0111  0.4739
  819MOL0     C 8032   1.273   8.304  11.159 -0.4061 -0.2960  0.7285
  819MOL0     C 8033   1.237   8.278  11.024 -0.8226 -0.6216  0.3553
  819MOL0     O 8034   1.113   8.216  11.003 -0.5379 -0.2387  0.0045
  819MOL0     C 8035   1.090   8.154  10.871  0.3742 -0.3294  0.7120
  819MOL0     C 8036   0.938   8.136  10.861  0.0066 -0.7283  0.0619
  819MOL0     C 8037   0.915   8.061  10.728  1.7076 -0.1390  0.3437
  819MOL0     C 8038   0.771   8.034  10.685 -0.0150 -0.0505 -0.4579
  819MOL0     C 8039   0.711   8.150  10.609 -0.6269 -0.3301 -0.6322
  819MOL0     C 8040   0.698   8.265  10.561 -0.6209  0.5777 -0.4577
  819MOL0     C 8041   1.339   8.319  10.926  1.0269 -1.1879  0.0566
  819MOL0     C 8042   1.459   8.376  10.963  0.1019  0.2430  0.6307
  819MOL0     H 8043   1.861   8.523  10.821 -1.7410  0.6282  0.7811
  819MOL0     H 8044   2.082   8.607  10.803 -0.1561 -0.8626 -0.6037
  819MOL0     H 8045   2.226   8.795  10.857 -1.3171  0.9187  3.1492
  819MOL0     H 8046   2.331   8.648  10.846 -0.5531  0.8516 -1.6793
  819MOL0     H 8047   2.480   8.826  10.842 -0.8335  1.3156  0.0280
  819MOL0     H 8048   2.488   8.766  11.015  0.8537  1.6392 -0.7919
  819MOL0     H 8049   2.369   8.930  11.102 -3.3905 -0.2205 -0.8935
  819MOL0     H 8050   2.311   9.002  10.953 -0.3716 -0.2525 -0.8984
  819MOL0     H 8051   2.595   9.009  11.019 -0.2261  1.6228  2.4492
  819MOL0     H 8052   2.520   9.069  10.867 -1.9477  3.2525  0.2931
  819MOL0     H 8053   2.583   9.243  11.050 -0.6368  1.5697 -1.1339
  819MOL0     H 8054   2.420   9.180  11.115 -0.0648 -1.7290 -0.1830
  819MOL0     H 8055   2.323   9.241  10.887 -0.5453 -0.3859  1.3600
  819MOL0     H 8056   2.492   9.290  10.835 -1.3466  0.2701 -0.9780
  819MOL0     H 8057   2.311   9.400  11.035  0.0204 -2.4793 -0.3003
  819MOL0     H 8058   2.483   9.458  11.010  0.8086 -0.5513 -1.9156
  819MOL0     H 8059   2.376   9.476  10.756  0.1615 -1.4240  0.5471
  819MOL0     H 8060   2.403   9.610  10.866  0.2670 -0.2392 -3.5735
  819MOL0     H 8061   2.127   9.418  10.688 -0.1433 -0.9793  0.9526
  819MOL0     H 8062   1.890   9.448  10.666  4.3912  1.1301  0.5211
  819MOL0     H 8063   1.823   9.598  10.725  1.6537  0.4166  0.2804
  819MOL0     H 8064   1.840   9.357  10.908 -0.1299  0.4868  0.1448
  819MOL0     H 8065   1.708   9.364  10.801 -0.5446 -0.2980  1.4481
  819MOL0     H 8066   1.768   9.571  11.014  0.1749 -0.6210 -1.4655
  819MOL0     H 8067   1.638   9.582  10.896  1.6902  1.5792 -1.6263
  819MOL0     H 8068   1.539   9.509  11.078 -0.4869 -1.7065 -0.1850
  819MOL0     H 8069   1.668   9.394  11.125  0.8566 -2.0861 -0.8230
  819MOL0     H 8070   1.347   9.151  10.968 -2.8258 -1.0643  2.4091
  819MOL0     H 8071   1.123   9.179  10.897 -0.1243  0.9822 -2.3855
  819MOL0     H 8072   0.910   9.653  10.562 -1.2224  0.7567 -1.7380
  819MOL0     H 8073   0.712   9.742  10.488  1.8507  0.2092 -0.0262
  819MOL0     H 8074   0.355   9.681  10.760  0.6328  1.8315 -0.7360
  819MOL0     H 8075   0.356   9.559  10.632 -1.9384 -1.1049  4.3219
  819MOL0     H 8076   0.242   9.736  10.483  1.0782 -0.1242  0.4572
  819MOL0     H 8077   0.246   9.842  10.627 -0.0445  0.2399  0.7704
  819MOL0     H 8078   0.096   9.675  10.748 -1.0170  1.6696 -0.4026
  819MOL0     H 8079   0.090   9.576  10.601 -0.1750  0.9047 -3.1575
  819MOL0     H 8080  -0.023   9.867  10.629 -0.2363  1.0016  0.5122
  819MOL0     H 8081   0.010   9.788  10.481  2.7353 -1.4532  1.2182
  819MOL0     H 8082  -0.235   9.759  10.589  2.0784  1.9764 -5.4877
  819MOL0     H 8083  -0.136   9.643  10.695  0.1512 -0.1460 -0.1400
  819MOL0     H 8084  -0.119   9.493  10.504 -0.2719 -0.7591 -1.8818
  819MOL0     H 8085  -0.144   9.630  10.392  0.8496  2.3146  1.8262
  819MOL0     H 8086  -0.379   9.644  10.521  0.9311  1.4765 -1.9347
  819MOL0     H 8087  -0.349   9.552  10.378 -2.0419 -1.5451  0.4218
  819MOL0     H 8088  -0.352   9.453  10.662  0.7300  0.7226  0.1502
  819MOL0     H 8089  -0.326   9.351  10.525  0.2122 -0.5063  3.1970
  819MOL0     H 8090   0.515   9.570  10.836 -2.0776 -3.6857 -2.3221
  819MOL0     H 8091   0.730   9.487  10.918  1.9194  3.0172  0.9972
  819MOL0     H 8092   1.189   9.605  10.859  0.5009 -0.7351 -0.6116
  819MOL0     H 8093   1.412   9.568  10.890 -0.3977  0.3943 -2.0043
  819MOL0     H 8094   2.094   8.637  11.229 -2.4242  1.4301  1.0362
  819MOL0     H 8095   1.887   8.528  11.249 -0.7723 -0.5787  0.1893
  819MOL0     H 8096   1.411   8.387  11.299 -1.1847 -0.2396  0.6244
  819MOL0     H 8097   1.205   8.295  11.243 -0.4569  0.2829  0.7497
  819MOL0     H 8098   1.147   8.060  10.864 -0.8323 -0.9458 -3.1331
  819MOL0     H 8099   1.115   8.210  10.781  1.3118 -2.7847 -0.6698
  819MOL0     H 8100   0.885   8.084  10.942 -0.2824  1.0347  1.0545
  819MOL0     H 8101   0.910   8.241  10.847  0.0504 -0.9390 -1.8685
  819MOL0     H 8102   0.961   7.962  10.739  0.3094 -1.1265 -1.9680
  819MOL0     H 8103   0.968   8.121  10.653  2.9323 -0.2168  1.1092
  819MOL0     H 8104   0.776   7.942  10.625  2.0251  1.4439 -2.7633
  819MOL0     H 8105   0.702   8.020  10.768  0.5830  1.5931  0.3469
  819MOL0     H 8106   0.691   8.357  10.508 -0.5650 -0.2081 -1.8695
  819MOL0     H 8107   1.322   8.300  10.820  1.5117  0.9688 -0.4679
  819MOL0     H 8108   1.519   8.421  10.885 -1.2665  1.2624  0.1331
  820MOL0     O 8109   4.690   8.232   0.222 -0.0270  0.1157 -0.3087
  820MOL0     C 8110   4.760   8.236   0.324  0.0881 -0.1543  0.1698
  820MOL0     O 8111   4.714   8.262   0.456 -0.0199  0.0749 -0.8519
  820MOL0     C 8112   4.580   8.305   0.476  0.5409  0.4911  0.4934
  820MOL0     C 8113   4.462   8.280   0.404  0.2620  0.2110  0.2810
  820MOL0     C 8114   4.335   8.329   0.444  0.3592 -0.6725 -0.5539
  820MOL0     C 8115   4.319   8.394   0.566  0.1799 -0.4577  0.4275
  820MOL0     O 8116   4.199   8.431   0.614  0.1672  1.0731 -0.4396
  820MOL0     C 8117   4.100   8.326   0.643  0.3138  0.4735 -0.1564
  820MOL0     C 8118   3.969   8.405   0.656  0.8703  1.0041 -0.2945
  820MOL0     C 8119   3.855   8.332   0.718  0.5817 -0.8022  0.3068
  820MOL0     C 8120   3.742   8.430   0.739  1.0388  0.0102 -0.4284
  820MOL0     C 8121   3.626   8.365   0.818  0.2509 -0.0119  0.7838
  820MOL0     C 8122   3.499   8.436   0.779 -0.2991 -0.3921 -0.1459
  820MOL0     C 8123   3.377   8.384   0.848 -0.4921  0.1229 -0.3385
  820MOL0     C 8124   3.323   8.252   0.793 -0.5160 -0.5311 -0.0507
  820MOL0     N 8125   3.298   8.248   0.654 -0.0790  0.3261  0.0383
  820MOL0     C 8126   3.242   8.345   0.575  0.9210 -0.0880 -0.3763
  820MOL0     C 8127   3.272   8.312   0.446 -0.6494 -0.1649  0.3361
  820MOL0     C 8128   3.206   8.366   0.325 -0.0766 -1.1182 -0.5233
  820MOL0     C 8129   3.278   8.494   0.274 -0.7042 -0.3465  1.1275
  820MOL0     C 8130   3.438   8.491   0.256  0.1701  0.3315 -0.6676
  820MOL0     C 8131   3.484   8.628   0.214 -0.9666  0.6442  0.4086
  820MOL0     O 8132   3.452   8.669   0.078  0.3283 -0.0681  0.4196
  820MOL0     C 8133   3.541   8.690  -0.020 -0.0470 -0.2460  0.9397
  820MOL0     C 8134   3.509   8.637  -0.145  0.8601 -0.4660 -0.2607
  820MOL0     C 8135   3.592   8.657  -0.258 -1.0561  0.2236  0.8025
  820MOL0     C 8136   3.712   8.737  -0.240  0.9383 -0.4083  0.0051
  820MOL0     C 8137   3.805   8.752  -0.351 -0.1950 -1.3136  0.7923
  820MOL0     O 8138   3.923   8.817  -0.323  0.7120 -0.6450 -0.6663
  820MOL0     C 8139   4.031   8.816  -0.411  0.3795  0.1431 -0.6395
  820MOL0     C 8140   4.011   8.869  -0.539 -0.6826  0.3098 -0.7304
  820MOL0     C 8141   4.129   8.876  -0.623  0.9863  0.8192  0.7820
  820MOL0     C 8142   4.257   8.829  -0.589 -0.6677 -0.1239  0.4454
  820MOL0     O 8143   4.372   8.845  -0.669  0.2841  0.5063  0.2520
  820MOL0     C 8144   4.343   8.848  -0.810 -0.4648 -0.0379  0.1348
  820MOL0     C 8145   4.472   8.811  -0.878  0.1716  0.5469  0.1229
  820MOL0     C 8146   4.457   8.786  -1.032  0.3985 -0.2006  0.5343
  820MOL0     C 8147   4.604   8.752  -1.073 -0.1839 -0.4361  0.0895
  820MOL0     C 8148   4.620   8.733  -1.230 -0.7057 -0.3154 -1.1082
  820MOL0     C 8149   4.767   8.732  -1.281  0.9968 -0.4877  0.1234
  820MOL0     C 8150   4.764   8.724  -1.437 -0.6705 -0.2552 -0.1428
  820MOL0     C 8151   4.806   8.861  -1.497 -0.3195 -0.0784  1.6243
  820MOL0    Cl 8152   4.986   8.884  -1.489 -0.4169 -0.1351  0.1654
  820MOL0     C 8153   4.273   8.789  -0.457  0.2469 -0.7145 -0.4031
  820MOL0     C 8154   4.157   8.778  -0.373  0.2410  0.2968  0.0108
  820MOL0     O 8155   3.779   8.694  -0.457  0.3999  0.3523  0.0724
  820MOL0     C 8156   3.743   8.782  -0.104 -0.3556  0.5695 -0.4095
  820MOL0     C 8157   3.658   8.755   0.002 -0.4521  0.2730 -0.2199
  820MOL0     N 8158   3.353   8.198   0.452  0.3673  0.1538 -0.6207
  820MOL0     N 8159   3.363   8.165   0.578  0.1816 -0.6381 -0.7173
  820MOL0     C 8160   4.442   8.433   0.633  1.1658  0.0765  0.9266
  820MOL0     C 8161   4.569   8.396   0.583  0.7650  0.9455 -0.3581
  820MOL0     C 8162   4.910   8.226   0.296 -0.6839  0.6339  0.9499
  820MOL0     C 8163   4.956   8.204   0.161 -0.2327 -0.6960 -0.5357
  820MOL0     C 8164   5.087   8.187   0.126 -0.8639 -0.0772 -0.0816
  820MOL0     C 8165   5.178   8.185   0.234 -0.7328 -0.0187 -0.4945
  820MOL0     O 8166   5.312   8.176   0.202  0.2075 -0.3828  0.0121
  820MOL0     C 8167   5.399   8.286   0.233 -0.6902  0.7082 -0.8168
  820MOL0     C 8168   5.446   8.363   0.111  0.0127 -0.5808  0.8504
  820MOL0     C 8169   5.468   8.277  -0.012 -0.3367  0.1398 -0.2834
  820MOL0     C 8170   5.349   8.243  -0.101 -1.2334  0.1075  0.2061
  820MOL0     C 8171   5.355   8.309  -0.230 -0.3273 -0.2001  0.5295
  820MOL0     C 8172   5.339   8.359  -0.338  0.9567 -0.2565  0.5584
  820MOL0     C 8173   5.138   8.204   0.370 -0.3803 -0.1511 -0.2276
  820MOL0     C 8174   5.008   8.231   0.394  0.1810 -0.7728  0.8421
  820MOL0     H 8175   4.458   8.231   0.307 -2.1654  2.0749 -0.6567
  820MOL0     H 8176   4.243   8.320   0.387  1.1706 -0.2282 -1.9839
  820MOL0     H 8177   4.131   8.291   0.742  1.6558 -0.7748 -0.9788
  820MOL0     H 8178   4.103   8.239   0.576  0.5791  1.6745 -1.7515
  820MOL0     H 8179   3.942   8.451   0.560 -1.0410  0.7796  0.0895
  820MOL0     H 8180   3.984   8.488   0.726 -0.5785  0.6125  0.5194
  820MOL0     H 8181   3.891   8.285   0.811  2.1385  1.1794  0.7874
  820MOL0     H 8182   3.813   8.260   0.647 -0.1537  1.1694 -1.3406
  820MOL0     H 8183   3.776   8.517   0.795 -0.2329  1.6375 -2.0762
  820MOL0     H 8184   3.717   8.475   0.643 -0.8982 -0.4112 -0.1758
  820MOL0     H 8185   3.647   8.362   0.926  1.8834 -2.3430  0.4830
  820MOL0     H 8186   3.616   8.259   0.790  0.0454  1.1802 -4.6348
  820MOL0     H 8187   3.496   8.434   0.670  1.7716  0.8801 -0.2827
  820MOL0     H 8188   3.514   8.538   0.816  2.1311 -1.1745  1.2709
  820MOL0     H 8189   3.403   8.370   0.953  2.2350  2.7172 -0.5383
  820MOL0     H 8190   3.298   8.458   0.834  0.7462  1.0924 -2.8936
  820MOL0     H 8191   3.234   8.222   0.850  1.3684  0.1838  3.5608
  820MOL0     H 8192   3.389   8.167   0.812 -2.3476 -1.6899  1.5001
  820MOL0     H 8193   3.174   8.424   0.606 -0.2169 -0.9301 -0.6271
  820MOL0     H 8194   3.103   8.391   0.351  0.2972 -1.0973  1.0075
  820MOL0     H 8195   3.212   8.282   0.255 -0.0296 -0.4031 -1.3939
  820MOL0     H 8196   3.253   8.569   0.350 -1.5431  0.4944  0.0607
  820MOL0     H 8197   3.230   8.540   0.187 -1.3191 -0.4179  1.4246
  820MOL0     H 8198   3.482   8.449   0.347 -1.9659 -0.7976 -0.0855
  820MOL0     H 8199   3.476   8.444   0.165 -1.7305  0.5590 -1.6269
  820MOL0     H 8200   3.593   8.622   0.220 -1.0891 -2.0969  1.1920
  820MOL0     H 8201   3.447   8.702   0.287  1.8857  1.6050  0.9910
  820MOL0     H 8202   3.412   8.591  -0.161  0.4124 -0.2060  1.5214
  820MOL0     H 8203   3.562   8.619  -0.356 -3.2504 -2.1232  2.2486
  820MOL0     H 8204   3.910   8.900  -0.562  0.6060  3.2558 -3.0600
  820MOL0     H 8205   4.099   8.911  -0.722 -1.4584 -0.5378  0.9631
  820MOL0     H 8206   4.308   8.947  -0.838  0.1555  0.8773  2.3819
  820MOL0     H 8207   4.275   8.764  -0.830  0.7334 -2.1040  3.7018
  820MOL0     H 8208   4.515   8.725  -0.827  2.1644  2.5651  2.0804
  820MOL0     H 8209   4.550   8.884  -0.853  1.1437 -0.6691  0.7442
  820MOL0     H 8210   4.416   8.875  -1.080  1.8792 -0.6872 -1.7828
  820MOL0     H 8211   4.400   8.694  -1.050  0.9572 -0.8945  2.1014
  820MOL0     H 8212   4.655   8.846  -1.050 -3.4896  1.5064  0.1475
  820MOL0     H 8213   4.633   8.665  -1.013 -2.8786 -2.8898 -1.8527
  820MOL0     H 8214   4.567   8.813  -1.282 -2.3112  1.5995  3.0348
  820MOL0     H 8215   4.581   8.640  -1.272  4.6738 -2.4432 -2.2424
  820MOL0     H 8216   4.816   8.650  -1.226  0.7064  0.8549  2.5138
  820MOL0     H 8217   4.824   8.819  -1.247  0.4486  0.1359 -0.5398
  820MOL0     H 8218   4.835   8.644  -1.462 -1.6143 -1.2031  0.1639
  820MOL0     H 8219   4.662   8.702  -1.470 -0.7557 -0.4663  0.2564
  820MOL0     H 8220   4.753   8.943  -1.449  1.0307  2.1376 -0.4780
  820MOL0     H 8221   4.773   8.866  -1.601 -1.0446 -3.2485  1.5975
  820MOL0     H 8222   4.372   8.779  -0.413 -1.2574  0.6176  3.7799
  820MOL0     H 8223   4.172   8.739  -0.273 -2.1688 -0.8072  0.0048
  820MOL0     H 8224   3.841   8.824  -0.085 -1.6828  2.9847  1.5466
  820MOL0     H 8225   3.660   8.799   0.101 -1.4403 -3.1548  1.4996
  820MOL0     H 8226   4.448   8.506   0.713  1.9769 -0.0834  1.0203
  820MOL0     H 8227   4.650   8.427   0.648  0.0840 -1.1610  1.6095
  820MOL0     H 8228   4.874   8.189   0.093  0.1560  1.2656 -1.5014
  820MOL0     H 8229   5.110   8.171   0.021 -0.7843  4.2051 -0.9331
  820MOL0     H 8230   5.490   8.247   0.279 -1.2792  0.4756  0.1926
  820MOL0     H 8231   5.353   8.363   0.296  1.5856  2.5293 -1.2854
  820MOL0     H 8232   5.383   8.450   0.094  3.0096  1.3148 -1.6071
  820MOL0     H 8233   5.546   8.405   0.125  1.1059 -2.2718 -1.2501
  820MOL0     H 8234   5.521   8.186   0.018 -1.1132 -0.3747 -0.4161
  820MOL0     H 8235   5.535   8.336  -0.075  2.4342 -0.9700  1.4181
  820MOL0     H 8236   5.358   8.137  -0.125 -0.7839  0.8209 -3.4867
  820MOL0     H 8237   5.259   8.274  -0.048 -0.1463 -0.4866  2.5209
  820MOL0     H 8238   5.324   8.417  -0.427  0.2604 -0.3649  0.5965
  820MOL0     H 8239   5.209   8.208   0.452 -1.8336  0.5789  1.0686
  820MOL0     H 8240   4.980   8.231   0.499  1.6627 -0.9063  1.2544
  821MOL0     O 8241  10.521   0.124   6.245 -0.0046 -0.0793  0.3517
  821MOL0     C 8242  10.501   0.027   6.167  0.0813 -0.4630  0.6318
  821MOL0     O 8243  10.597  -0.040   6.089  0.9653 -0.3286  0.4875
  821MOL0     C 8244  10.721  -0.003   6.087 -0.2529 -0.1355 -0.2008
  821MOL0     C 8245  10.803  -0.101   6.042 -0.6702 -0.4314  0.8269
  821MOL0     C 8246  10.936  -0.074   6.015  0.3757 -0.1262  0.3179
  821MOL0     C 8247  10.992   0.054   6.021 -0.3862  0.3943 -0.4767
  821MOL0     O 8248  11.127   0.061   6.000  0.1152 -0.2955  0.3972
  821MOL0     C 8249  11.190   0.186   6.032  0.5810  0.8412  0.0305
  821MOL0     C 8250  11.334   0.142   6.065 -0.4371 -0.0165  0.1232
  821MOL0     C 8251  11.403   0.047   5.970 -0.8298  0.1872 -0.2958
  821MOL0     C 8252  11.557   0.055   5.994 -0.1374  0.4042 -0.5973
  821MOL0     C 8253  11.632  -0.065   5.943  0.0644  0.6128  1.2163
  821MOL0     C 8254  11.790  -0.042   5.949  0.9006 -0.7034 -0.0463
  821MOL0     C 8255  11.870  -0.145   5.870 -1.7044  0.1569 -0.0851
  821MOL0     C 8256  12.021  -0.126   5.893  0.5127  0.1952 -0.1666
  821MOL0     N 8257  12.088  -0.216   5.800 -0.1325 -0.2809  0.0872
  821MOL0     C 8258  12.114  -0.340   5.835 -0.5071  0.2385  0.1793
  821MOL0     C 8259  12.221  -0.372   5.752 -0.0346  0.0571 -0.1256
  821MOL0     C 8260  12.284  -0.504   5.749  0.1395 -0.3970  0.4148
  821MOL0     C 8261  12.421  -0.482   5.817 -0.9588  0.7844  0.0815
  821MOL0     C 8262  12.506  -0.614   5.819  0.4400  0.2060  0.5776
  821MOL0     C 8263  12.584  -0.637   5.683 -0.3362 -0.2500  1.0808
  821MOL0     O 8264  12.654  -0.766   5.677 -0.3854 -0.0372  0.3198
  821MOL0     C 8265  12.581  -0.877   5.661  0.4731 -0.4445 -1.0885
  821MOL0     C 8266  12.451  -0.878   5.627  0.7094 -0.6333  0.0552
  821MOL0     C 8267  12.376  -0.997   5.614 -0.4845 -0.6613  0.3666
  821MOL0     C 8268  12.432  -1.115   5.658  0.2013  0.0445 -0.4297
  821MOL0     C 8269  12.355  -1.239   5.641  0.4942 -0.1816 -0.3020
  821MOL0     O 8270  12.386  -1.342   5.727  0.1992 -0.5792 -0.3160
  821MOL0     C 8271  12.291  -1.435   5.768  0.7710 -0.2019  0.2489
  821MOL0     C 8272  12.338  -1.549   5.838 -0.0700  0.2588  0.7525
  821MOL0     C 8273  12.252  -1.627   5.927 -0.0686 -0.3412  0.9111
  821MOL0     C 8274  12.116  -1.599   5.932 -0.5172 -0.5138 -0.5527
  821MOL0     O 8275  12.038  -1.681   6.005 -0.0839  0.0620 -0.3562
  821MOL0     C 8276  11.918  -1.624   6.049 -0.6363 -0.0343  0.6179
  821MOL0     C 8277  11.858  -1.726   6.139 -0.8539 -0.0031 -0.4615
  821MOL0     C 8278  11.710  -1.691   6.171  0.7545 -0.3608  0.5975
  821MOL0     C 8279  11.617  -1.717   6.051  0.1190 -0.1683  0.0821
  821MOL0     C 8280  11.473  -1.724   6.099  0.1142 -0.0847  0.2548
  821MOL0     C 8281  11.386  -1.766   5.977 -0.1014  0.3924 -0.9543
  821MOL0     C 8282  11.236  -1.740   6.010 -0.0081 -0.8163 -0.2798
  821MOL0     C 8283  11.146  -1.812   5.909 -0.9175 -0.2117  0.3217
  821MOL0    Cl 8284  11.158  -1.988   5.921  0.2522 -0.2681  0.2497
  821MOL0     C 8285  12.070  -1.487   5.853 -0.5481  0.3438  0.2054
  821MOL0     C 8286  12.156  -1.404   5.775 -0.5626  0.1469 -0.3527
  821MOL0     O 8287  12.266  -1.243   5.559 -0.3569 -0.4774  0.5260
  821MOL0     C 8288  12.563  -1.111   5.698 -0.3431 -0.0351 -0.5221
  821MOL0     C 8289  12.636  -0.998   5.706  0.2742 -0.3314  0.0923
  821MOL0     N 8290  12.257  -0.269   5.669 -0.0922  0.0191 -0.1243
  821MOL0     N 8291  12.181  -0.174   5.700 -0.8228  0.1552 -0.1712
  821MOL0     C 8292  10.904   0.155   6.058  0.2755 -0.0426  0.4839
  821MOL0     C 8293  10.772   0.132   6.092  0.0157 -0.2268 -0.4304
  821MOL0     C 8294  10.373  -0.042   6.181  0.6791 -0.1175  0.2751
  821MOL0     C 8295  10.289  -0.015   6.289  0.5163  0.0929  0.3220
  821MOL0     C 8296  10.158  -0.068   6.284 -1.1247  0.0279  0.1448
  821MOL0     C 8297  10.113  -0.157   6.188 -0.4736 -1.1672 -0.6721
  821MOL0     O 8298   9.981  -0.192   6.177  0.8726 -0.0591  0.4968
  821MOL0     C 8299   9.966  -0.332   6.195  0.4564  0.0460  1.1871
  821MOL0     C 8300   9.818  -0.373   6.150  0.9402 -0.2236  0.5331
  821MOL0     C 8301   9.801  -0.526   6.126  0.2045 -0.2725  0.5700
  821MOL0     C 8302   9.824  -0.541   5.970 -0.0486 -0.2243 -0.8519
  821MOL0     C 8303   9.951  -0.499   5.919 -0.1870 -0.2864 -0.1862
  821MOL0     C 8304  10.062  -0.477   5.882  0.5853  0.2403 -0.3814
  821MOL0     C 8305  10.205  -0.192   6.084  0.9443 -0.2284 -0.0327
  821MOL0     C 8306  10.328  -0.130   6.077  0.0599  0.4583  0.3553
  821MOL0     H 8307  10.760  -0.200   6.028  2.2501 -1.5713 -1.3666
  821MOL0     H 8308  11.000  -0.152   5.975  1.3816  0.4949  0.6848
  821MOL0     H 8309  11.134   0.230   6.116 -1.7073  1.0913 -1.5309
  821MOL0     H 8310  11.174   0.259   5.952  0.9978  0.5425 -0.3272
  821MOL0     H 8311  11.334   0.104   6.167 -0.1324 -1.5868 -0.4315
  821MOL0     H 8312  11.395   0.231   6.079  0.6306 -0.1703 -2.7548
  821MOL0     H 8313  11.373   0.083   5.871 -3.2267  1.4416  0.7959
  821MOL0     H 8314  11.377  -0.058   5.987  4.4921 -1.9676 -2.9993
  821MOL0     H 8315  11.598   0.145   5.947  1.0739 -0.6741 -1.6742
  821MOL0     H 8316  11.575   0.071   6.101 -1.2604  3.9216 -0.8036
  821MOL0     H 8317  11.604  -0.088   5.840  1.3006 -1.4690  1.2920
  821MOL0     H 8318  11.607  -0.157   5.997 -0.7193  0.9049  1.3606
  821MOL0     H 8319  11.822  -0.056   6.053  1.6796  3.7032  0.4981
  821MOL0     H 8320  11.808   0.062   5.919  0.7020 -0.8739 -0.7768
  821MOL0     H 8321  11.843  -0.247   5.897 -1.9095 -0.2660 -1.7689
  821MOL0     H 8322  11.857  -0.121   5.764  0.6564 -2.3574 -1.0711
  821MOL0     H 8323  12.044  -0.153   5.997 -0.6543 -0.8254 -0.1499
  821MOL0     H 8324  12.046  -0.021   5.879 -0.4278  0.1937 -2.2370
  821MOL0     H 8325  12.078  -0.413   5.906  2.3058 -3.4155 -1.8249
  821MOL0     H 8326  12.293  -0.522   5.642  2.1166  2.4785 -0.0065
  821MOL0     H 8327  12.215  -0.576   5.794  2.4211 -1.5057  2.3655
  821MOL0     H 8328  12.407  -0.460   5.923 -0.3855  1.5488  0.0064
  821MOL0     H 8329  12.484  -0.409   5.765 -2.0067  2.3928  0.9908
  821MOL0     H 8330  12.577  -0.598   5.901 -1.2883  2.4962  1.7657
  821MOL0     H 8331  12.446  -0.704   5.839  0.4023  0.2893  0.8523
  821MOL0     H 8332  12.658  -0.558   5.669 -0.1244 -0.6849 -0.4005
  821MOL0     H 8333  12.514  -0.629   5.599  0.3118 -0.6756  0.4919
  821MOL0     H 8334  12.402  -0.782   5.611  1.1036 -0.0720  1.9383
  821MOL0     H 8335  12.272  -0.986   5.583 -0.0510  0.6311 -0.7431
  821MOL0     H 8336  12.445  -1.559   5.825 -0.2072 -1.3191  0.7280
  821MOL0     H 8337  12.294  -1.714   5.975 -0.0005 -0.4447  0.6639
  821MOL0     H 8338  11.856  -1.613   5.960  2.6782 -1.2363 -2.0532
  821MOL0     H 8339  11.923  -1.526   6.097 -1.6645 -0.0276  0.7489
  821MOL0     H 8340  11.916  -1.729   6.232 -1.5524 -4.0519  0.0400
  821MOL0     H 8341  11.866  -1.831   6.110 -1.9691 -0.5077  0.9007
  821MOL0     H 8342  11.697  -1.589   6.209 -1.2924 -1.1355  2.1590
  821MOL0     H 8343  11.683  -1.766   6.246  0.2705  0.6301  1.4368
  821MOL0     H 8344  11.632  -1.637   5.978  0.5916 -0.8323 -0.5626
  821MOL0     H 8345  11.634  -1.818   6.012 -0.7219 -0.2295 -0.1417
  821MOL0     H 8346  11.444  -1.623   6.129 -1.1123 -1.2531  3.4684
  821MOL0     H 8347  11.454  -1.782   6.190 -1.4976 -0.7075 -0.4482
  821MOL0     H 8348  11.397  -1.874   5.966 -1.2016  0.2802 -1.0654
  821MOL0     H 8349  11.412  -1.712   5.885 -0.4533  1.4417 -0.4541
  821MOL0     H 8350  11.204  -1.753   6.114  0.8629 -0.1507  0.0852
  821MOL0     H 8351  11.222  -1.632   6.000  3.9161 -0.3477 -2.8722
  821MOL0     H 8352  11.173  -1.783   5.807 -0.8926  0.0350  0.3984
  821MOL0     H 8353  11.043  -1.779   5.926 -0.5672 -0.0040  2.2416
  821MOL0     H 8354  11.964  -1.469   5.833 -0.3026  1.1850 -0.3825
  821MOL0     H 8355  12.107  -1.321   5.725 -0.6260  0.3713  0.0776
  821MOL0     H 8356  12.613  -1.205   5.721 -0.9892 -0.3042 -0.1659
  821MOL0     H 8357  12.741  -0.992   5.733 -0.0099  0.1479  1.1445
  821MOL0     H 8358  10.925   0.261   6.066 -0.9060  0.2803 -0.4416
  821MOL0     H 8359  10.712   0.221   6.106 -1.5748 -1.1082 -1.2609
  821MOL0     H 8360  10.318   0.055   6.367  0.1905 -0.1950  0.7080
  821MOL0     H 8361  10.100  -0.050   6.375 -0.9024 -3.6855  1.1902
  821MOL0     H 8362   9.973  -0.346   6.303 -0.1644 -2.0635  0.9956
  821MOL0     H 8363  10.038  -0.399   6.148 -1.1338 -0.8162 -0.1339
  821MOL0     H 8364   9.741  -0.349   6.223  1.3003  2.3968  0.1569
  821MOL0     H 8365   9.789  -0.323   6.057  1.4921  1.0835  1.0467
  821MOL0     H 8366   9.703  -0.564   6.157 -0.4723  2.0956  1.5256
  821MOL0     H 8367   9.872  -0.587   6.183 -0.3528 -2.7637 -1.2352
  821MOL0     H 8368   9.823  -0.648   5.948  0.9298 -0.4973  0.3468
  821MOL0     H 8369   9.744  -0.484   5.923 -1.7445 -1.8064 -0.0235
  821MOL0     H 8370  10.165  -0.452   5.865  1.3939  1.2934  4.4054
  821MOL0     H 8371  10.176  -0.270   6.014 -0.2131  1.5953 -1.6485
  821MOL0     H 8372  10.393  -0.162   5.996  1.0880 -1.2436  1.7643
  822MOL0     O 8373   8.619   0.132   6.406 -0.1657  0.0406  0.2111
  822MOL0     C 8374   8.690   0.034   6.411 -0.1648  0.1749 -0.9322
  822MOL0     O 8375   8.829   0.029   6.418 -0.8328 -0.1336  0.2903
  822MOL0     C 8376   8.905   0.140   6.421 -0.4323 -0.3033  1.0180
  822MOL0     C 8377   8.869   0.256   6.361 -0.3959 -0.9744  0.2040
  822MOL0     C 8378   8.959   0.367   6.355  0.7848  0.2669 -1.2913
  822MOL0     C 8379   9.082   0.359   6.407  0.0243  0.2719 -0.0646
  822MOL0     O 8380   9.179   0.462   6.404  0.4367  0.3261 -0.1339
  822MOL0     C 8381   9.156   0.572   6.491  0.3430  0.1432 -0.6110
  822MOL0     C 8382   9.261   0.677   6.460  0.4489 -0.1143  0.2649
  822MOL0     C 8383   9.401   0.624   6.417  0.2950  0.5451 -0.2482
  822MOL0     C 8384   9.500   0.739   6.410  0.4972 -0.7025  0.4212
  822MOL0     C 8385   9.635   0.685   6.357  0.4428 -0.1997 -0.3813
  822MOL0     C 8386   9.737   0.797   6.361 -0.1356  0.5476 -0.5374
  822MOL0     C 8387   9.868   0.737   6.320  0.6180 -0.4209  0.5062
  822MOL0     C 8388   9.980   0.842   6.322 -0.5742  0.1003  0.5191
  822MOL0     N 8389  10.122   0.798   6.324  0.2032  0.4009  0.1870
  822MOL0     C 8390  10.213   0.794   6.220  0.0449 -0.1679  0.4546
  822MOL0     C 8391  10.331   0.758   6.283  0.1175  0.7615  0.3987
  822MOL0     C 8392  10.468   0.760   6.217 -0.1768 -0.1279 -0.2214
  822MOL0     C 8393  10.542   0.622   6.232  0.0514 -0.6471  0.0077
  822MOL0     C 8394  10.479   0.509   6.155  0.2261 -0.5629 -0.4623
  822MOL0     C 8395  10.497   0.507   6.003 -0.4196 -0.3783  0.9283
  822MOL0     O 8396  10.413   0.598   5.927 -0.8156 -0.0209 -0.4066
  822MOL0     C 8397  10.277   0.576   5.929 -0.2246 -0.3282 -0.2242
  822MOL0     C 8398  10.195   0.687   5.905  0.1500 -0.3011  0.2335
  822MOL0     C 8399  10.058   0.679   5.904  0.8134  0.6583 -0.7969
  822MOL0     C 8400   9.987   0.566   5.937  0.3155  0.3803  0.0372
  822MOL0     C 8401   9.840   0.567   5.948  0.1188 -0.3031 -1.0471
  822MOL0     O 8402   9.789   0.447   6.000  1.3691 -1.5885  0.3793
  822MOL0     C 8403   9.652   0.425   5.981  0.0653 -0.3853  0.2607
  822MOL0     C 8404   9.586   0.371   6.094  0.4261 -0.3545 -0.0403
  822MOL0     C 8405   9.463   0.298   6.075 -0.0965 -0.7007 -0.3628
  822MOL0     C 8406   9.389   0.312   5.952 -1.5010  0.2558 -1.3152
  822MOL0     O 8407   9.261   0.267   5.935  0.5182 -0.0626 -0.6111
  822MOL0     C 8408   9.187   0.243   6.057 -0.0657 -0.2882 -0.0103
  822MOL0     C 8409   9.050   0.185   6.025 -0.5846  0.0916  0.2648
  822MOL0     C 8410   9.037   0.047   5.970  0.9742 -0.6994  0.3166
  822MOL0     C 8411   8.894  -0.001   6.015 -0.2097  1.0915  0.0522
  822MOL0     C 8412   8.870  -0.154   6.015 -0.1668  0.4829 -0.6430
  822MOL0     C 8413   8.962  -0.234   6.109 -0.5525  0.2967  0.1228
  822MOL0     C 8414   8.907  -0.376   6.149  0.8418 -0.6614  0.4193
  822MOL0     C 8415   8.986  -0.435   6.269 -0.1804  0.0104  0.2451
  822MOL0    Cl 8416   8.934  -0.614   6.252 -0.0883 -0.1783  0.1018
  822MOL0     C 8417   9.453   0.382   5.848  0.2764 -0.1220  0.0555
  822MOL0     C 8418   9.588   0.432   5.860  0.3813 -0.1532 -0.1567
  822MOL0     O 8419   9.778   0.657   5.902 -0.4113  0.1113 -0.2186
  822MOL0     C 8420  10.067   0.455   5.960 -0.7869  0.0753  0.6359
  822MOL0     C 8421  10.213   0.458   5.958  0.7442  0.4111  0.0383
  822MOL0     N 8422  10.305   0.731   6.414 -0.1023 -0.4383  0.5165
  822MOL0     N 8423  10.187   0.760   6.435 -0.1881  0.0864 -0.5109
  822MOL0     C 8424   9.122   0.236   6.449 -0.1996  0.1493  0.4597
  822MOL0     C 8425   9.039   0.127   6.442 -0.2015  0.3543 -0.1288
  822MOL0     C 8426   8.617  -0.097   6.434 -0.2462 -0.0580 -0.0875
  822MOL0     C 8427   8.686  -0.221   6.449 -0.4738 -0.0081  0.4928
  822MOL0     C 8428   8.606  -0.332   6.489 -0.2197 -0.0824 -0.6644
  822MOL0     C 8429   8.468  -0.326   6.498 -0.0713 -0.0734 -0.8530
  822MOL0     O 8430   8.404  -0.438   6.541  0.4726 -0.1471  0.1686
  822MOL0     C 8431   8.293  -0.481   6.462  0.6057 -0.2846 -0.4715
  822MOL0     C 8432   8.226  -0.608   6.517 -0.7866  0.9363 -1.2234
  822MOL0     C 8433   8.202  -0.605   6.669 -0.3519  0.1956  0.8231
  822MOL0     C 8434   8.150  -0.743   6.723 -0.1826 -0.4074  0.6817
  822MOL0     C 8435   8.123  -0.745   6.873  0.6418  1.3036  0.1040
  822MOL0     C 8436   8.126  -0.737   6.995  0.7932  0.5095  0.5760
  822MOL0     C 8437   8.404  -0.204   6.466  0.0300 -0.0606  0.6005
  822MOL0     C 8438   8.472  -0.091   6.439  0.0024 -0.1032 -0.1352
  822MOL0     H 8439   8.767   0.276   6.328 -1.0118 -2.5709  1.0557
  822MOL0     H 8440   8.908   0.460   6.332  0.3068  0.8166  1.5830
  822MOL0     H 8441   9.160   0.546   6.597 -1.0773 -0.2131 -0.6286
  822MOL0     H 8442   9.051   0.596   6.474 -0.4434 -2.7177 -0.3371
  822MOL0     H 8443   9.270   0.731   6.554 -2.2463 -2.7008  2.1651
  822MOL0     H 8444   9.220   0.755   6.394  0.6491 -0.6219 -0.4815
  822MOL0     H 8445   9.401   0.569   6.322 -3.3397  0.2989 -0.2504
  822MOL0     H 8446   9.435   0.559   6.499 -0.5632 -0.2484 -0.4965
  822MOL0     H 8447   9.457   0.815   6.344 -2.2396 -2.4568 -0.0038
  822MOL0     H 8448   9.513   0.782   6.510 -1.8420  0.6948  0.1955
  822MOL0     H 8449   9.615   0.640   6.259  0.3111  0.1640 -0.5244
  822MOL0     H 8450   9.683   0.624   6.434  4.3462  0.6016 -1.9600
  822MOL0     H 8451   9.745   0.834   6.464  0.3915  2.4951 -1.2266
  822MOL0     H 8452   9.702   0.880   6.299 -0.6909  1.1775  0.5814
  822MOL0     H 8453   9.902   0.662   6.392 -1.6211 -0.9582  1.0929
  822MOL0     H 8454   9.851   0.696   6.220 -4.5463  1.5490  0.2622
  822MOL0     H 8455   9.968   0.898   6.415 -0.7610  2.5222 -0.8655
  822MOL0     H 8456   9.979   0.919   6.244  1.1138  0.3845  0.7424
  822MOL0     H 8457  10.193   0.811   6.115 -2.7568  0.8687  1.0572
  822MOL0     H 8458  10.522   0.840   6.267 -1.5641  1.1076 -0.6089
  822MOL0     H 8459  10.462   0.792   6.112  0.9036  0.4350 -0.1218
  822MOL0     H 8460  10.534   0.600   6.339  0.4025 -0.9448 -0.0239
  822MOL0     H 8461  10.650   0.631   6.214  0.2402 -1.5305  0.6014
  822MOL0     H 8462  10.513   0.410   6.186 -0.4864 -1.9219 -3.5923
  822MOL0     H 8463  10.371   0.508   6.174  0.4568 -0.6175  0.9615
  822MOL0     H 8464  10.471   0.408   5.964  0.6102  0.4576 -2.1523
  822MOL0     H 8465  10.605   0.511   5.987 -0.3096 -0.4020  1.6068
  822MOL0     H 8466  10.241   0.781   5.878 -1.0793  0.4012  0.4807
  822MOL0     H 8467  10.004   0.770   5.882 -0.8722 -0.2122 -0.4130
  822MOL0     H 8468   9.641   0.362   6.187 -2.5087  0.4526  1.8913
  822MOL0     H 8469   9.428   0.240   6.159  2.3432 -1.0714  0.4761
  822MOL0     H 8470   9.174   0.336   6.114  0.5234 -0.7538  0.9079
  822MOL0     H 8471   9.242   0.180   6.128  1.5216  3.1401  2.1129
  822MOL0     H 8472   8.997   0.251   5.956  1.0498  2.3712  1.0670
  822MOL0     H 8473   9.007   0.190   6.125  0.1820 -1.4791  0.7082
  822MOL0     H 8474   9.104  -0.024   6.019 -2.0150 -2.8707  1.5957
  822MOL0     H 8475   9.051   0.047   5.862 -0.5987 -1.6714  0.0832
  822MOL0     H 8476   8.875   0.042   6.114 -0.2301  4.6436 -1.3249
  822MOL0     H 8477   8.824   0.040   5.941 -0.9723 -1.9996 -1.1084
  822MOL0     H 8478   8.887  -0.187   5.913 -2.5363 -1.0587 -0.6307
  822MOL0     H 8479   8.769  -0.192   6.033  0.6678 -0.8266  1.9011
  822MOL0     H 8480   8.975  -0.181   6.203 -0.2621 -0.5261  0.5596
  822MOL0     H 8481   9.056  -0.250   6.055 -0.7110 -2.9912  0.6075
  822MOL0     H 8482   8.799  -0.379   6.164  0.6067 -1.9594 -1.3073
  822MOL0     H 8483   8.935  -0.433   6.060  0.9305  0.4332 -0.2860
  822MOL0     H 8484   8.955  -0.407   6.370 -2.2253 -1.6694  0.1403
  822MOL0     H 8485   9.094  -0.425   6.255 -0.1466  1.4118  1.2893
  822MOL0     H 8486   9.403   0.388   5.752  1.3080 -0.9489 -0.5596
  822MOL0     H 8487   9.626   0.464   5.763 -1.1644 -1.6242 -1.3370
  822MOL0     H 8488  10.019   0.360   5.983 -1.7765 -0.1768 -2.1126
  822MOL0     H 8489  10.260   0.364   5.987 -1.3312 -1.0182 -1.0207
  822MOL0     H 8490   9.221   0.235   6.493 -0.0696 -0.3884  0.1646
  822MOL0     H 8491   9.083   0.031   6.467  0.4935  0.8862  0.7573
  822MOL0     H 8492   8.794  -0.224   6.451 -0.4854 -0.8458  0.2775
  822MOL0     H 8493   8.650  -0.428   6.512  2.2788  1.4168  1.3227
  822MOL0     H 8494   8.334  -0.502   6.363  2.5119  1.8736 -0.2290
  822MOL0     H 8495   8.208  -0.413   6.451  0.4715 -0.3305  0.2436
  822MOL0     H 8496   8.127  -0.619   6.473 -2.1705  2.1514  1.3964
  822MOL0     H 8497   8.284  -0.696   6.485  0.7871  1.2312  0.6260
  822MOL0     H 8498   8.138  -0.519   6.691  0.1967  0.8519 -0.0644
  822MOL0     H 8499   8.306  -0.595   6.701  0.5395  0.3701 -1.8882
  822MOL0     H 8500   8.063  -0.760   6.657  2.3009 -3.3833 -2.1809
  822MOL0     H 8501   8.227  -0.818   6.708  2.7209  2.3046  1.0739
  822MOL0     H 8502   8.146  -0.733   7.100 -0.7330 -0.4282  0.9448
  822MOL0     H 8503   8.296  -0.204   6.464  0.0365  0.2547  0.3109
  822MOL0     H 8504   8.408  -0.008   6.414 -0.3000 -0.6148 -1.1032
  823MOL0     O 8505   9.579   4.012  10.261 -0.5593 -0.5432  0.3061
  823MOL0     C 8506   9.475   4.057  10.208 -0.0917  0.1300 -0.8792
  823MOL0     O 8507   9.436   4.187  10.220  0.1135  0.7591 -0.0270
  823MOL0     C 8508   9.529   4.276  10.265  0.4414 -0.2225  0.5174
  823MOL0     C 8509   9.505   4.352  10.381 -0.4855  0.5228 -0.1906
  823MOL0     C 8510   9.596   4.450  10.431  0.4916 -0.0640 -0.1337
  823MOL0     C 8511   9.716   4.474  10.365  0.0021  0.2206 -0.9445
  823MOL0     O 8512   9.801   4.577  10.405  0.5960 -0.2717  0.2950
  823MOL0     C 8513   9.883   4.629  10.298 -0.7570  0.7493  0.1651
  823MOL0     C 8514   9.929   4.767  10.352  0.3484 -0.0760 -0.9142
  823MOL0     C 8515  10.036   4.824  10.268  0.1154 -1.1721 -0.2994
  823MOL0     C 8516  10.085   4.954  10.346  0.0959  0.7616 -0.6218
  823MOL0     C 8517  10.180   5.037  10.267 -0.6134  0.3107 -0.2708
  823MOL0     C 8518  10.112   5.103  10.144  0.4220  0.2021  0.0506
  823MOL0     C 8519  10.197   5.213  10.073 -0.6262 -0.1956 -0.2387
  823MOL0     C 8520  10.134   5.276   9.941  0.3849  0.0114  0.6518
  823MOL0     N 8521  10.219   5.380   9.889 -0.0714  0.2410 -0.5632
  823MOL0     C 8522  10.193   5.517   9.883 -0.0697  0.3333  0.0083
  823MOL0     C 8523  10.303   5.573   9.831  0.9928  0.3185 -0.2048
  823MOL0     C 8524  10.323   5.713   9.791 -0.2473  0.4066  0.4904
  823MOL0     C 8525  10.219   5.805   9.858 -0.6619  0.5505 -0.5828
  823MOL0     C 8526  10.254   5.824  10.008  0.1702 -0.6041  0.0834
  823MOL0     C 8527  10.152   5.917  10.061 -0.0436  0.5075  0.3989
  823MOL0     O 8528  10.015   5.882  10.023  0.0490 -0.0205  0.1132
  823MOL0     C 8529   9.956   5.765  10.062  0.1767 -0.1325 -0.1836
  823MOL0     C 8530   9.859   5.708   9.966 -0.0955  0.9595  0.2337
  823MOL0     C 8531   9.786   5.589   9.988  0.1916 -0.4622  0.4156
  823MOL0     C 8532   9.795   5.525  10.108 -0.1723  0.6650 -0.3802
  823MOL0     C 8533   9.707   5.404  10.148 -0.5651  0.2716 -0.8372
  823MOL0     O 8534   9.617   5.372  10.057  0.1250  1.2695 -0.3804
  823MOL0     C 8535   9.539   5.268  10.093 -0.2626 -0.4653 -0.4066
  823MOL0     C 8536   9.606   5.141  10.094 -0.2497  1.1329 -0.0176
  823MOL0     C 8537   9.535   5.032  10.144 -0.2159  0.0962 -0.6503
  823MOL0     C 8538   9.397   5.045  10.180  0.5348  0.5126 -1.0146
  823MOL0     O 8539   9.325   4.929  10.212  0.5603  0.0165  0.2303
  823MOL0     C 8540   9.382   4.816  10.291  0.5839  1.0770  0.4068
  823MOL0     C 8541   9.285   4.783  10.403  0.8447  0.4816  0.3547
  823MOL0     C 8542   9.345   4.673  10.487 -0.2105 -0.6539 -0.2313
  823MOL0     C 8543   9.269   4.651  10.614  0.5354  0.0274  0.6396
  823MOL0     C 8544   9.316   4.532  10.700 -0.3848 -0.6809  0.7329
  823MOL0     C 8545   9.224   4.482  10.810  1.1043 -0.1492  1.0085
  823MOL0     C 8546   9.162   4.588  10.908  1.0819 -0.5973  1.2640
  823MOL0     C 8547   9.067   4.526  11.012 -0.4953 -0.1675  0.5200
  823MOL0    Cl 8548   8.931   4.477  10.923 -0.2095  0.0906  0.1642
  823MOL0     C 8549   9.344   5.173  10.195 -1.1997  0.6169  0.8543
  823MOL0     C 8550   9.410   5.286  10.148  0.2499  1.2571  0.8360
  823MOL0     O 8551   9.738   5.347  10.254 -0.7921  0.0021 -0.6381
  823MOL0     C 8552   9.896   5.569  10.201  0.0662 -0.1733  0.7530
  823MOL0     C 8553   9.967   5.688  10.180  0.0549  0.2391 -0.2261
  823MOL0     N 8554  10.388   5.475   9.798 -0.2388  0.0932  0.6783
  823MOL0     N 8555  10.336   5.357   9.830 -0.4838 -1.6827  0.6140
  823MOL0     C 8556   9.741   4.384  10.257 -0.3764 -0.6073  0.4778
  823MOL0     C 8557   9.648   4.296  10.200 -0.1784 -0.5620  0.0460
  823MOL0     C 8558   9.403   3.954  10.126  1.2097  0.1078 -0.1488
  823MOL0     C 8559   9.439   3.819  10.121  0.4333  0.2514  0.1781
  823MOL0     C 8560   9.358   3.719  10.061  0.2487  0.0062 -0.2382
  823MOL0     C 8561   9.239   3.770  10.000 -0.5946 -0.4477 -0.8062
  823MOL0     O 8562   9.139   3.687   9.945  0.3113  0.7387 -0.5664
  823MOL0     C 8563   9.112   3.558  10.009 -0.1792 -0.4214  0.5624
  823MOL0     C 8564   9.092   3.439   9.909  0.4053  0.7299 -0.3407
  823MOL0     C 8565   9.002   3.472   9.783 -0.1345  0.5999 -0.5483
  823MOL0     C 8566   8.869   3.400   9.796  0.4353  0.3380 -0.0134
  823MOL0     C 8567   8.779   3.456   9.693  0.5955  0.1679 -0.3206
  823MOL0     C 8568   8.699   3.501   9.612 -0.8752 -0.3191  0.3803
  823MOL0     C 8569   9.213   3.908   9.996 -0.9219  0.0744  0.2764
  823MOL0     C 8570   9.297   4.004  10.062 -0.2932 -0.3289  1.1906
  823MOL0     H 8571   9.410   4.337  10.433 -1.1663  1.1482 -1.2348
  823MOL0     H 8572   9.588   4.509  10.522 -1.5120  0.6850 -0.7375
  823MOL0     H 8573   9.824   4.654  10.210  1.4649  0.9352 -1.3424
  823MOL0     H 8574   9.965   4.561  10.273 -1.0469  0.3563  0.2674
  823MOL0     H 8575   9.963   4.746  10.454 -1.1401  1.0833 -0.1407
  823MOL0     H 8576   9.849   4.842  10.357 -0.3972 -0.8699 -0.8314
  823MOL0     H 8577   9.994   4.859  10.173  1.4114  1.7473  0.0892
  823MOL0     H 8578  10.122   4.760  10.251  0.5192 -0.3931 -1.2880
  823MOL0     H 8579  10.007   5.012  10.396  1.4206  1.2214  1.0134
  823MOL0     H 8580  10.157   4.922  10.423  0.2719 -0.6977 -1.3592
  823MOL0     H 8581  10.272   4.989  10.234 -0.1918  1.8908 -1.5385
  823MOL0     H 8582  10.218   5.117  10.331  0.9168  0.9279 -1.8675
  823MOL0     H 8583  10.015   5.146  10.169 -0.1392 -0.9198 -0.1463
  823MOL0     H 8584  10.105   5.020  10.073  2.7027 -2.6204  2.8516
  823MOL0     H 8585  10.217   5.299  10.137 -2.7769  1.4244 -1.5914
  823MOL0     H 8586  10.288   5.167  10.035 -0.5136 -1.1275  1.1202
  823MOL0     H 8587  10.035   5.317   9.965  0.1723  2.2848 -3.2773
  823MOL0     H 8588  10.122   5.199   9.865 -0.5411 -0.4519  1.2413
  823MOL0     H 8589  10.111   5.571   9.929  1.4070  1.4230  1.4725
  823MOL0     H 8590  10.314   5.711   9.682 -0.0166  0.8452  0.4585
  823MOL0     H 8591  10.425   5.748   9.812 -1.8273  4.0327  3.1234
  823MOL0     H 8592  10.118   5.762   9.853 -0.7965  0.4444  2.0115
  823MOL0     H 8593  10.216   5.903   9.809  0.6465  0.7607 -0.2652
  823MOL0     H 8594  10.247   5.738  10.074  0.3901  0.0467  0.9752
  823MOL0     H 8595  10.349   5.876  10.024  0.4973 -1.6711  1.8653
  823MOL0     H 8596  10.183   6.012  10.016  0.6748  0.1163  0.0614
  823MOL0     H 8597  10.155   5.927  10.170 -1.5079 -4.1695  1.0997
  823MOL0     H 8598   9.835   5.759   9.873 -0.1422 -1.9034 -1.4402
  823MOL0     H 8599   9.722   5.551   9.909 -1.4050  1.6165  0.6099
  823MOL0     H 8600   9.703   5.126  10.047 -0.6490  0.6263 -0.6957
  823MOL0     H 8601   9.575   4.931  10.136 -0.0852 -0.0554  1.3709
  823MOL0     H 8602   9.479   4.833  10.338 -0.7536  1.2432  3.3558
  823MOL0     H 8603   9.395   4.725  10.233  0.1026  0.8456  0.6557
  823MOL0     H 8604   9.191   4.758  10.352  0.6064 -0.0206  1.0207
  823MOL0     H 8605   9.277   4.877  10.457 -4.0931  0.9490 -0.6797
  823MOL0     H 8606   9.449   4.700  10.508 -0.4668  0.9332 -0.8997
  823MOL0     H 8607   9.348   4.587  10.420  1.0775  0.8294 -2.2017
  823MOL0     H 8608   9.282   4.742  10.674  0.3357  0.3811  0.1488
  823MOL0     H 8609   9.162   4.656  10.593  0.5458 -1.6378  0.0336
  823MOL0     H 8610   9.403   4.571  10.754  0.0710  0.9554 -1.0898
  823MOL0     H 8611   9.356   4.452  10.637 -1.3990  0.9978 -2.2427
  823MOL0     H 8612   9.269   4.399  10.865  1.0610 -1.5229 -0.9199
  823MOL0     H 8613   9.141   4.453  10.745 -0.7056  2.6744  1.8899
  823MOL0     H 8614   9.234   4.651  10.961  0.5241  1.0052  0.1921
  823MOL0     H 8615   9.116   4.661  10.841 -0.3269 -2.3012  0.2648
  823MOL0     H 8616   9.036   4.608  11.077 -1.1923  1.2490 -1.4796
  823MOL0     H 8617   9.122   4.440  11.050  1.0974  0.6958  0.2352
  823MOL0     H 8618   9.244   5.178  10.237 -0.8869 -1.9074  2.0605
  823MOL0     H 8619   9.364   5.384  10.146  1.4914  1.8483  0.3271
  823MOL0     H 8620   9.916   5.521  10.297  0.0242  0.3110  1.0079
  823MOL0     H 8621  10.038   5.711  10.259  1.5474 -0.7078 -1.2421
  823MOL0     H 8622   9.837   4.387  10.205  1.4008  1.5070  3.5269
  823MOL0     H 8623   9.672   4.245  10.107  1.9338 -1.4805  1.0391
  823MOL0     H 8624   9.533   3.788  10.165  1.9437  1.9343 -1.7048
  823MOL0     H 8625   9.385   3.615  10.072  2.5689  0.7303  1.9145
  823MOL0     H 8626   9.021   3.563  10.069 -2.3349 -0.1422 -2.5164
  823MOL0     H 8627   9.188   3.526  10.080 -1.3121 -1.8200  1.1719
  823MOL0     H 8628   9.193   3.413   9.875  0.7670 -0.3919  1.4933
  823MOL0     H 8629   9.063   3.347   9.960 -0.3184  1.0807 -0.1112
  823MOL0     H 8630   9.052   3.430   9.695  0.5569 -0.8875  0.5024
  823MOL0     H 8631   9.004   3.576   9.749 -0.4521  0.1765 -1.9087
  823MOL0     H 8632   8.878   3.292   9.781 -0.5537  0.4659 -1.9122
  823MOL0     H 8633   8.829   3.438   9.890 -2.0061  3.3039 -2.0393
  823MOL0     H 8634   8.642   3.548   9.534  1.5497  1.1923 -0.6039
  823MOL0     H 8635   9.121   3.931   9.944 -1.7711 -2.0843  0.7046
  823MOL0     H 8636   9.267   4.108  10.049 -1.0703 -0.7885 -1.0797
  824MOL0     O 8637   8.084   6.875   6.517 -0.3035 -0.7103  0.7776
  824MOL0     C 8638   8.017   6.774   6.504 -0.0943  0.0649  0.2596
  824MOL0     O 8639   7.878   6.764   6.520 -0.2278 -0.2550 -0.1608
  824MOL0     C 8640   7.798   6.877   6.522  1.4618  0.2788 -0.5894
  824MOL0     C 8641   7.664   6.863   6.463  0.0162 -0.8388  0.5172
  824MOL0     C 8642   7.571   6.966   6.476  0.0564  0.0504  1.4481
  824MOL0     C 8643   7.604   7.083   6.540 -0.6374 -1.2447 -0.0731
  824MOL0     O 8644   7.521   7.190   6.555  1.2763  0.6362 -0.5536
  824MOL0     C 8645   7.460   7.228   6.429 -0.1968  0.1306  0.1149
  824MOL0     C 8646   7.450   7.374   6.438 -0.2727  0.2685  0.0848
  824MOL0     C 8647   7.428   7.433   6.295  0.2608 -0.0579  0.2413
  824MOL0     C 8648   7.338   7.562   6.279 -0.9302 -0.0883 -0.4320
  824MOL0     C 8649   7.328   7.601   6.131  0.7066 -0.3935 -0.3441
  824MOL0     C 8650   7.300   7.748   6.101  0.3924 -0.1098  0.0524
  824MOL0     C 8651   7.291   7.784   5.952 -0.4941  0.0453  0.1170
  824MOL0     C 8652   7.263   7.933   5.924  0.0800  1.5900  0.3649
  824MOL0     N 8653   7.379   8.013   5.936  0.0989  0.7483 -0.3844
  824MOL0     C 8654   7.500   7.983   5.879  0.0391 -0.7837  0.5669
  824MOL0     C 8655   7.586   8.079   5.908  0.3899  0.6008 -1.0123
  824MOL0     C 8656   7.723   8.105   5.841 -0.2993 -0.4684 -0.4007
  824MOL0     C 8657   7.831   8.056   5.942 -0.3944 -0.0427  0.3158
  824MOL0     C 8658   7.852   8.160   6.050 -0.0273 -0.0476  0.4771
  824MOL0     C 8659   7.963   8.268   6.038 -0.3561 -0.8760  0.6156
  824MOL0     O 8660   7.914   8.394   5.987 -0.6872 -1.1869  0.2405
  824MOL0     C 8661   8.017   8.473   5.947  0.1914  0.0321  0.0591
  824MOL0     C 8662   8.085   8.564   6.034  0.8896 -1.1365 -0.2597
  824MOL0     C 8663   8.176   8.658   5.978  0.0734  0.1774 -0.7898
  824MOL0     C 8664   8.221   8.648   5.847  0.5836  0.3847 -0.3385
  824MOL0     C 8665   8.330   8.736   5.815  0.3548 -0.9474  0.5043
  824MOL0     O 8666   8.336   8.846   5.898  0.9629 -0.3247  0.2102
  824MOL0     C 8667   8.424   8.943   5.853  0.4776  0.1853 -1.0298
  824MOL0     C 8668   8.547   8.960   5.921  0.8435  0.2217  1.0004
  824MOL0     C 8669   8.624   9.075   5.877 -0.1163 -0.0856 -0.2553
  824MOL0     C 8670   8.595   9.159   5.766  0.3476  0.7613 -0.5093
  824MOL0     O 8671   8.681   9.254   5.728 -0.2919 -0.7378  0.7145
  824MOL0     C 8672   8.660   9.330   5.606 -0.1830 -0.4942  0.3434
  824MOL0     C 8673   8.759   9.448   5.603  0.4338  0.4697  0.1164
  824MOL0     C 8674   8.747   9.533   5.722 -1.2742  0.0339  0.1976
  824MOL0     C 8675   8.873   9.624   5.724  0.0935  0.0801  0.1761
  824MOL0     C 8676   8.915   9.640   5.864 -0.1443 -0.9006 -0.6850
  824MOL0     C 8677   9.012   9.759   5.878  0.0113 -0.1970  0.0951
  824MOL0     C 8678   9.105   9.754   6.000 -0.8322  1.1493 -0.2977
  824MOL0     C 8679   9.224   9.677   5.957 -1.2149 -0.1391  0.3018
  824MOL0    Cl 8680   9.334   9.672   6.090 -0.2139  0.2755  0.2474
  824MOL0     C 8681   8.472   9.124   5.698 -0.0255  0.1437 -0.5979
  824MOL0     C 8682   8.393   9.020   5.745 -0.7887  0.1335  0.4098
  824MOL0     O 8683   8.408   8.715   5.722  1.2506  0.2747 -0.1551
  824MOL0     C 8684   8.162   8.544   5.767  1.1386  0.4332 -0.9923
  824MOL0     C 8685   8.058   8.462   5.817  0.1589 -0.2623  0.5383
  824MOL0     N 8686   7.512   8.170   5.990 -0.2024 -1.1094  0.4357
  824MOL0     N 8687   7.396   8.126   6.004  0.3225  0.1724  0.0107
  824MOL0     C 8688   7.730   7.096   6.587 -0.5926 -0.4222  0.3144
  824MOL0     C 8689   7.824   6.996   6.587 -0.0504 -0.3545  0.3152
  824MOL0     C 8690   8.092   6.649   6.472  0.0079  0.3327 -0.8678
  824MOL0     C 8691   8.228   6.649   6.444 -0.4341  0.8477  0.2989
  824MOL0     C 8692   8.291   6.533   6.409  0.8455 -0.6082 -0.2886
  824MOL0     C 8693   8.226   6.407   6.395 -0.5223 -0.5616  0.6950
  824MOL0     O 8694   8.306   6.301   6.355  0.7445 -0.4392  0.8639
  824MOL0     C 8695   8.231   6.196   6.282  0.2536  0.1791  1.0567
  824MOL0     C 8696   8.316   6.070   6.276 -0.2150 -0.6010 -0.0611
  824MOL0     C 8697   8.421   6.086   6.168 -0.4251 -0.3374 -0.3955
  824MOL0     C 8698   8.496   5.950   6.166  0.2788  0.0951 -0.1108
  824MOL0     C 8699   8.622   5.972   6.095 -0.1430  0.8795 -0.0896
  824MOL0     C 8700   8.735   5.956   6.051  0.7367  0.4419  0.7869
  824MOL0     C 8701   8.087   6.404   6.422  0.4231  0.4386  0.1366
  824MOL0     C 8702   8.020   6.523   6.461 -0.3765  0.0227  0.1856
  824MOL0     H 8703   7.633   6.767   6.424  0.7873 -0.8886 -0.0033
  824MOL0     H 8704   7.476   6.953   6.426  1.3434  1.2633 -1.5510
  824MOL0     H 8705   7.355   7.198   6.424 -0.2367  0.2076  0.4441
  824MOL0     H 8706   7.520   7.193   6.345  0.7836  2.1182 -0.0763
  824MOL0     H 8707   7.525   7.424   6.500 -1.8672  4.0860 -0.8096
  824MOL0     H 8708   7.353   7.380   6.488 -0.0028 -1.2155  0.8597
  824MOL0     H 8709   7.379   7.361   6.229 -0.5186  1.0596 -0.4324
  824MOL0     H 8710   7.529   7.455   6.256  0.6280 -1.9299  0.0449
  824MOL0     H 8711   7.241   7.551   6.327 -1.0616 -1.1215 -0.9029
  824MOL0     H 8712   7.392   7.643   6.328  0.7586  1.4828 -4.4411
  824MOL0     H 8713   7.262   7.521   6.097  2.1569 -3.3994  3.1517
  824MOL0     H 8714   7.426   7.584   6.085  0.1626 -0.7285 -1.3955
  824MOL0     H 8715   7.389   7.796   6.143  1.4520 -3.5701  2.1667
  824MOL0     H 8716   7.212   7.772   6.161 -0.1147 -0.8498 -0.3706
  824MOL0     H 8717   7.385   7.751   5.909  2.2308  1.5695  4.3105
  824MOL0     H 8718   7.207   7.730   5.908 -1.4619  0.8246  0.9407
  824MOL0     H 8719   7.180   7.973   5.984 -3.5442 -2.4435 -1.3911
  824MOL0     H 8720   7.228   7.930   5.821  2.4097 -2.4048 -0.5136
  824MOL0     H 8721   7.512   7.897   5.813  1.1633  1.4038 -2.3074
  824MOL0     H 8722   7.732   8.212   5.816 -0.5416 -0.6208 -1.1571
  824MOL0     H 8723   7.730   8.047   5.749  3.3739 -2.7637  1.1174
  824MOL0     H 8724   7.925   8.036   5.889 -2.0028  0.4900 -3.0044
  824MOL0     H 8725   7.791   7.965   5.987 -1.3457  0.3562  0.2839
  824MOL0     H 8726   7.756   8.203   6.082  1.1057  3.4723 -0.3773
  824MOL0     H 8727   7.884   8.098   6.134  2.1155  0.2093 -0.0936
  824MOL0     H 8728   8.036   8.224   5.970  0.4144 -1.0526  1.5335
  824MOL0     H 8729   8.012   8.292   6.133  0.9752  1.1995 -0.5326
  824MOL0     H 8730   8.055   8.565   6.138  1.6328  0.5394 -0.0279
  824MOL0     H 8731   8.217   8.722   6.056 -2.6824 -1.9692  2.7764
  824MOL0     H 8732   8.577   8.894   6.002 -4.8633 -0.1234  3.3533
  824MOL0     H 8733   8.725   9.090   5.914  1.0175  0.2544 -3.2398
  824MOL0     H 8734   8.558   9.372   5.604 -1.6045 -3.7052 -0.2966
  824MOL0     H 8735   8.675   9.264   5.520  3.0195  3.0017 -2.1029
  824MOL0     H 8736   8.758   9.501   5.507  0.8394 -0.2609 -0.2976
  824MOL0     H 8737   8.857   9.400   5.600  0.0619 -0.4219 -4.4569
  824MOL0     H 8738   8.749   9.478   5.817  1.3372 -1.0385 -0.3849
  824MOL0     H 8739   8.658   9.595   5.723 -1.6054 -0.4357  1.0281
  824MOL0     H 8740   8.945   9.577   5.657 -1.3837 -1.1048 -0.6645
  824MOL0     H 8741   8.848   9.722   5.680 -4.1847  0.2307  2.4029
  824MOL0     H 8742   8.960   9.546   5.897  1.1618 -0.6396 -1.6689
  824MOL0     H 8743   8.827   9.652   5.928 -0.2287 -0.5986 -0.8601
  824MOL0     H 8744   8.957   9.854   5.880  0.7826  0.2725  2.7292
  824MOL0     H 8745   9.076   9.755   5.790  3.1327 -1.0010  2.2482
  824MOL0     H 8746   9.147   9.853   6.017  0.8506  0.6126 -1.0770
  824MOL0     H 8747   9.065   9.697   6.084  0.8698  0.4921  0.1084
  824MOL0     H 8748   9.260   9.718   5.863  0.1576  0.9466  1.2598
  824MOL0     H 8749   9.199   9.575   5.926 -2.3443 -0.2448  1.4423
  824MOL0     H 8750   8.447   9.175   5.606 -2.1776  1.5776  0.6929
  824MOL0     H 8751   8.305   8.984   5.692  1.2629 -1.7693 -1.9535
  824MOL0     H 8752   8.209   8.531   5.670  1.2017 -1.3689 -0.7491
  824MOL0     H 8753   7.993   8.406   5.750 -1.6476  2.9330 -0.6446
  824MOL0     H 8754   7.762   7.185   6.639 -0.5682 -0.2700  0.0423
  824MOL0     H 8755   7.922   7.011   6.632  1.1712  1.1915 -2.6074
  824MOL0     H 8756   8.287   6.739   6.459  3.2287 -1.1468 -0.9315
  824MOL0     H 8757   8.396   6.536   6.380  1.3786  2.5173  1.5355
  824MOL0     H 8758   8.213   6.226   6.179  1.3236 -1.2716  0.4320
  824MOL0     H 8759   8.130   6.186   6.324  0.0428 -0.1252  0.4831
  824MOL0     H 8760   8.341   6.045   6.379 -0.9140 -0.4104  0.1605
  824MOL0     H 8761   8.269   5.977   6.242  2.5831 -1.9301 -0.6304
  824MOL0     H 8762   8.485   6.171   6.195 -2.0304  0.4199  1.1831
  824MOL0     H 8763   8.387   6.108   6.066 -0.6862 -0.0805 -0.2550
  824MOL0     H 8764   8.503   5.916   6.270 -0.8691  0.9861  0.2758
  824MOL0     H 8765   8.445   5.874   6.106 -1.5989  0.4253  0.9859
  824MOL0     H 8766   8.828   5.943   5.999  1.5757  2.0891  1.7831
  824MOL0     H 8767   8.028   6.314   6.416 -0.3425  0.8596  1.1624
  824MOL0     H 8768   7.915   6.500   6.474  0.2576 -3.4077  0.1394
  825MOL0     O 8769   3.709   3.040  10.825  0.2589 -0.5049 -0.4384
  825MOL0     C 8770   3.663   3.060  10.942 -0.5534  0.7183 -0.0745
  825MOL0     O 8771   3.534   3.094  10.980  0.4558  0.4484 -0.8636
  825MOL0     C 8772   3.447   3.109  10.876  0.9886 -0.0512 -0.8062
  825MOL0     C 8773   3.326   3.031  10.878 -0.5190  0.6397  0.8496
  825MOL0     C 8774   3.225   3.041  10.783  0.3650 -1.1549  0.4895
  825MOL0     C 8775   3.246   3.137  10.681 -0.5164  0.6533 -0.1439
  825MOL0     O 8776   3.142   3.153  10.587  0.6604 -0.4517 -0.7210
  825MOL0     C 8777   3.175   3.158  10.451 -0.1878 -0.5563  0.5937
  825MOL0     C 8778   3.092   3.041  10.386  0.0265 -0.3577 -0.2466
  825MOL0     C 8779   2.950   3.096  10.351 -0.2530  0.4267  0.2173
  825MOL0     C 8780   2.880   2.969  10.292 -0.3805  0.0039  0.3372
  825MOL0     C 8781   2.745   3.010  10.239 -0.6105 -0.5790  0.2398
  825MOL0     C 8782   2.634   3.000  10.338 -0.7015 -0.6868  0.3883
  825MOL0     C 8783   2.507   2.979  10.270 -1.1804 -0.1319  0.6080
  825MOL0     C 8784   2.403   2.972  10.377 -0.3550 -0.7786  0.0560
  825MOL0     N 8785   2.270   2.950  10.326  0.1949 -0.0002  0.6818
  825MOL0     C 8786   2.227   2.871  10.218  0.1761 -0.4737 -0.2135
  825MOL0     C 8787   2.087   2.894  10.206 -0.3253  0.3708  0.4884
  825MOL0     C 8788   1.985   2.838  10.114 -0.2813 -0.0212  0.7379
  825MOL0     C 8789   2.037   2.875   9.974  0.1652 -1.1778 -0.2842
  825MOL0     C 8790   1.940   2.827   9.869  0.3294 -0.0464 -0.7871
  825MOL0     C 8791   1.923   2.679   9.867  0.4208 -0.2357 -0.1117
  825MOL0     O 8792   1.834   2.649   9.763 -0.4411  0.5020  0.5500
  825MOL0     C 8793   1.703   2.664   9.795 -0.1806 -0.1729  0.4140
  825MOL0     C 8794   1.612   2.629   9.690  0.1335  0.4420 -0.1529
  825MOL0     C 8795   1.475   2.650   9.699  0.2029 -0.5718  0.7223
  825MOL0     C 8796   1.419   2.712   9.813 -0.0705 -0.2064 -0.7659
  825MOL0     C 8797   1.277   2.745   9.815 -0.7435  1.2820  0.9332
  825MOL0     O 8798   1.195   2.689   9.717 -0.3397 -0.3758  0.8277
  825MOL0     C 8799   1.059   2.656   9.737  0.6149 -0.3217  0.0646
  825MOL0     C 8800   0.970   2.735   9.814 -0.1188 -0.3187 -1.2068
  825MOL0     C 8801   0.835   2.700   9.836  1.3844  0.3703 -0.5548
  825MOL0     C 8802   0.781   2.577   9.781  0.8897 -1.0027 -0.9978
  825MOL0     O 8803   0.643   2.555   9.789 -0.5394  0.5673  0.4054
  825MOL0     C 8804   0.587   2.437   9.739  0.7224  0.5289  0.3175
  825MOL0     C 8805   0.446   2.453   9.690  0.3333 -1.0194  0.4593
  825MOL0     C 8806   0.367   2.324   9.661 -0.1334 -0.0737 -0.3650
  825MOL0     C 8807   0.246   2.335   9.571 -1.4267 -0.1679  0.6813
  825MOL0     C 8808   0.129   2.415   9.637 -0.3118  0.4810  0.6760
  825MOL0     C 8809   0.071   2.345   9.765  0.2287 -0.5718  1.2274
  825MOL0     C 8810  -0.070   2.391   9.786 -0.4087 -0.6815  0.3600
  825MOL0     C 8811  -0.111   2.344   9.927 -0.1546 -0.0084 -0.6590
  825MOL0    Cl 8812  -0.166   2.169   9.943  0.6934  0.4768 -0.1925
  825MOL0     C 8813   0.872   2.511   9.697  0.4770 -0.0183 -0.1604
  825MOL0     C 8814   1.011   2.537   9.682 -0.2330 -0.8873  0.5295
  825MOL0     O 8815   1.238   2.783   9.922  0.5703 -0.6807 -0.5603
  825MOL0     C 8816   1.508   2.739   9.921  0.8425 -0.5546 -0.4343
  825MOL0     C 8817   1.647   2.724   9.914 -0.4846  0.8374  0.0393
  825MOL0     N 8818   2.059   2.987  10.305  0.0919  0.6597 -0.4441
  825MOL0     N 8819   2.161   3.002  10.381 -0.2623 -0.4398  0.0456
  825MOL0     C 8820   3.360   3.212  10.673  0.2888 -1.9394 -0.1994
  825MOL0     C 8821   3.460   3.204  10.771  1.0079 -0.1804 -0.1871
  825MOL0     C 8822   3.756   3.051  11.061  0.6767 -0.0624  0.3716
  825MOL0     C 8823   3.724   3.124  11.181  0.6007  0.5606  0.4989
  825MOL0     C 8824   3.806   3.125  11.293  0.8228 -0.2857  0.1122
  825MOL0     C 8825   3.926   3.060  11.280 -0.3847 -0.2115 -0.6095
  825MOL0     O 8826   4.025   3.060  11.371  0.2005  0.2352 -0.0811
  825MOL0     C 8827   4.001   3.109  11.505 -1.0735 -0.9100 -0.4965
  825MOL0     C 8828   4.088   3.047  11.614  0.0978 -0.4195 -0.3064
  825MOL0     C 8829   4.065   3.128  11.738 -0.1976  0.7590  0.1578
  825MOL0     C 8830   4.088   3.045  11.870  0.0964  0.8088  0.4898
  825MOL0     C 8831   3.964   2.978  11.907 -0.4065 -1.2283  0.0291
  825MOL0     C 8832   3.868   2.924  11.952  0.3856 -0.7802  0.4057
  825MOL0     C 8833   3.961   2.997  11.164 -0.6061  0.4327 -0.0193
  825MOL0     C 8834   3.869   2.981  11.056 -0.7368 -0.5782  0.6134
  825MOL0     H 8835   3.310   2.964  10.961 -1.1960 -0.3156 -0.0332
  825MOL0     H 8836   3.142   2.972  10.791 -1.2900  0.5065 -1.2245
  825MOL0     H 8837   3.282   3.148  10.431 -0.1626  0.6620  0.0190
  825MOL0     H 8838   3.133   3.246  10.400 -0.0193 -1.3247 -0.9108
  825MOL0     H 8839   3.098   2.957  10.455  3.9585  0.6801  0.9056
  825MOL0     H 8840   3.152   3.014  10.299 -0.5128 -0.0218 -0.7332
  825MOL0     H 8841   2.951   3.168  10.269  2.5846 -1.0746 -1.2446
  825MOL0     H 8842   2.893   3.139  10.433  0.6523  0.8030  0.6684
  825MOL0     H 8843   2.942   2.932  10.211 -0.2926 -0.6285  0.6896
  825MOL0     H 8844   2.874   2.892  10.369 -1.6783 -1.8270 -1.4883
  825MOL0     H 8845   2.726   2.931  10.165 -0.6668  1.1098 -1.6290
  825MOL0     H 8846   2.749   3.105  10.185  2.5517 -2.0906 -2.5277
  825MOL0     H 8847   2.648   3.096  10.389 -0.1810 -0.6903  0.2652
  825MOL0     H 8848   2.651   2.919  10.409  0.9815 -0.8990 -0.2052
  825MOL0     H 8849   2.481   3.060  10.201 -1.7877 -3.0812 -2.9547
  825MOL0     H 8850   2.508   2.883  10.217 -3.8417  0.6854 -1.1089
  825MOL0     H 8851   2.407   3.069  10.428 -2.1130 -0.5746 -0.1221
  825MOL0     H 8852   2.419   2.897  10.454 -0.4132 -0.6303  0.2139
  825MOL0     H 8853   2.285   2.792  10.174  1.1032 -0.8179  1.5163
  825MOL0     H 8854   1.890   2.890  10.119 -0.9026 -0.7011 -2.0750
  825MOL0     H 8855   1.980   2.729  10.121  3.9121 -0.5156 -0.9873
  825MOL0     H 8856   2.132   2.830   9.943 -0.2803  0.4487 -4.7098
  825MOL0     H 8857   2.043   2.984   9.971 -3.0078 -0.9143 -3.6789
  825MOL0     H 8858   1.848   2.884   9.883  0.0244  0.1407 -3.1662
  825MOL0     H 8859   1.966   2.866   9.770 -2.9213  2.6740 -0.7688
  825MOL0     H 8860   1.890   2.637   9.962  2.1475 -0.2980  0.4975
  825MOL0     H 8861   2.017   2.627   9.846  0.1283 -0.9415  0.3214
  825MOL0     H 8862   1.644   2.583   9.597 -1.2653  1.6569 -1.2937
  825MOL0     H 8863   1.423   2.611   9.612  2.2003  0.4723 -1.0520
  825MOL0     H 8864   1.017   2.815   9.871  0.0369 -0.1332 -1.5967
  825MOL0     H 8865   0.782   2.767   9.903  2.3124 -0.8084  1.4491
  825MOL0     H 8866   0.580   2.355   9.811  2.9238 -2.5956 -2.6872
  825MOL0     H 8867   0.647   2.405   9.653  3.0409  2.3909  1.1302
  825MOL0     H 8868   0.449   2.521   9.604 -2.0143 -1.1415  0.2066
  825MOL0     H 8869   0.399   2.512   9.769 -1.4043 -2.6967  0.7288
  825MOL0     H 8870   0.331   2.271   9.750 -0.5415  1.2281  0.2640
  825MOL0     H 8871   0.434   2.259   9.603 -0.4894 -1.5358  0.8072
  825MOL0     H 8872   0.275   2.386   9.478 -1.2766 -0.5365  0.5243
  825MOL0     H 8873   0.218   2.234   9.540 -1.1317 -0.0650  0.0611
  825MOL0     H 8874   0.049   2.425   9.564  1.8696 -0.3878 -1.9831
  825MOL0     H 8875   0.172   2.513   9.663  3.3833  0.8895 -5.2016
  825MOL0     H 8876   0.124   2.385   9.852  0.3691 -2.0999  1.8906
  825MOL0     H 8877   0.074   2.235   9.764 -0.1237 -0.5917 -0.6181
  825MOL0     H 8878  -0.076   2.500   9.779  1.1227 -0.3314  3.1553
  825MOL0     H 8879  -0.140   2.359   9.708  1.3404  0.2287 -1.6983
  825MOL0     H 8880  -0.195   2.405   9.961  0.0218 -0.4441  0.6299
  825MOL0     H 8881  -0.034   2.355  10.005 -0.9255 -0.8366  0.2389
  825MOL0     H 8882   0.852   2.419   9.642 -0.4215 -0.0448  0.1889
  825MOL0     H 8883   1.070   2.473   9.618  3.0139  2.2309  0.1388
  825MOL0     H 8884   1.477   2.803  10.002  3.5335 -1.7452  1.6837
  825MOL0     H 8885   1.711   2.760   9.994  0.6988  2.2198 -1.4557
  825MOL0     H 8886   3.370   3.285  10.594 -0.4486 -4.0541 -2.3605
  825MOL0     H 8887   3.539   3.278  10.778 -1.7601  2.8444  2.2141
  825MOL0     H 8888   3.628   3.175  11.182  0.6805  1.1405 -3.4918
  825MOL0     H 8889   3.776   3.181  11.380 -0.3310  0.7645 -0.9228
  825MOL0     H 8890   3.902   3.077  11.538 -0.2046 -2.8229  0.4240
  825MOL0     H 8891   4.014   3.217  11.518 -2.0703 -0.9432  1.1550
  825MOL0     H 8892   4.056   2.942  11.624  2.1882 -1.1147 -0.3709
  825MOL0     H 8893   4.192   3.049  11.581 -0.1996  0.8768 -1.2392
  825MOL0     H 8894   3.961   3.164  11.740  0.3237  2.3262  0.4218
  825MOL0     H 8895   4.118   3.224  11.733  0.4915  0.4247  0.9073
  825MOL0     H 8896   4.157   2.963  11.845 -0.0864  0.5534  0.8101
  825MOL0     H 8897   4.129   3.099  11.955 -0.2591  0.1895  1.0678
  825MOL0     H 8898   3.776   2.884  11.989  1.9433 -4.5478  0.5947
  825MOL0     H 8899   4.059   2.952  11.165 -0.3737  0.6925 -2.7500
  825MOL0     H 8900   3.900   2.930  10.965  1.9186  1.9371 -0.0350
  826MOL0     O 8901   4.192   1.276   7.932 -0.2009  0.2368  0.7361
  826MOL0     C 8902   4.281   1.354   7.894  0.2552  1.0007  0.0646
  826MOL0     O 8903   4.277   1.435   7.788 -0.3867  1.0052 -0.6881
  826MOL0     C 8904   4.154   1.442   7.730  1.2668 -0.2387 -0.5699
  826MOL0     C 8905   4.056   1.528   7.797 -0.2775  0.7097  0.2176
  826MOL0     C 8906   3.937   1.548   7.739 -0.2892  0.0332 -0.0238
  826MOL0     C 8907   3.902   1.490   7.618 -1.1383  0.5749 -0.4031
  826MOL0     O 8908   3.775   1.504   7.571 -0.1300 -0.6180 -0.4620
  826MOL0     C 8909   3.745   1.641   7.534 -0.4579 -0.3914  0.5202
  826MOL0     C 8910   3.619   1.663   7.459  0.5522  0.5726  0.2973
  826MOL0     C 8911   3.517   1.740   7.545  0.0863 -0.6379 -0.4171
  826MOL0     C 8912   3.375   1.717   7.485  0.4175 -0.2426 -0.2117
  826MOL0     C 8913   3.272   1.756   7.590  0.0735 -0.0563  0.2649
  826MOL0     C 8914   3.258   1.903   7.616 -0.3948  0.1734  0.7136
  826MOL0     C 8915   3.203   1.962   7.752 -0.0813  0.0342  0.3269
  826MOL0     C 8916   3.172   2.108   7.742  0.8441  1.0169  0.3822
  826MOL0     N 8917   3.028   2.133   7.709  0.2450  0.2828  0.7288
  826MOL0     C 8918   2.924   2.148   7.791  0.1445  0.0418  0.1594
  826MOL0     C 8919   2.809   2.166   7.706 -0.1995  0.7811  0.1950
  826MOL0     C 8920   2.667   2.192   7.752 -0.8872  0.2468 -0.0118
  826MOL0     C 8921   2.561   2.099   7.691  0.4565  0.4059  1.3313
  826MOL0     C 8922   2.595   1.939   7.718  0.0379 -0.1361 -1.0398
  826MOL0     C 8923   2.581   1.901   7.867  0.7911  0.0633 -0.8423
  826MOL0     O 8924   2.710   1.931   7.944  0.7930 -0.2551 -0.1151
  826MOL0     C 8925   2.818   1.841   7.945 -0.0004 -0.3113  0.3667
  826MOL0     C 8926   2.923   1.855   8.034  0.4593 -0.1807 -0.2182
  826MOL0     C 8927   3.035   1.775   8.039 -0.5678  0.2379  0.1494
  826MOL0     C 8928   3.044   1.672   7.945  0.1019  0.0945  0.1510
  826MOL0     C 8929   3.167   1.582   7.944  0.2207 -0.2650  0.7638
  826MOL0     O 8930   3.175   1.477   7.848  0.1954 -0.3891 -0.3495
  826MOL0     C 8931   3.284   1.398   7.853 -0.4775 -0.5154 -0.0997
  826MOL0     C 8932   3.416   1.447   7.851  0.4428 -0.2016 -0.5164
  826MOL0     C 8933   3.522   1.352   7.863 -0.4465 -0.2198  0.1098
  826MOL0     C 8934   3.493   1.207   7.881  0.7826  0.0706 -0.3711
  826MOL0     O 8935   3.586   1.109   7.891  0.0800 -0.6488 -0.2264
  826MOL0     C 8936   3.718   1.142   7.832 -0.3179  0.1871 -0.2361
  826MOL0     C 8937   3.811   1.024   7.843 -0.6109  0.3787  0.8690
  826MOL0     C 8938   3.960   1.051   7.808 -0.4676  1.0239  0.2713
  826MOL0     C 8939   4.031   0.903   7.808  0.4972  0.2648 -0.0781
  826MOL0     C 8940   4.175   0.888   7.750 -0.3253  0.4058 -0.7095
  826MOL0     C 8941   4.187   0.949   7.607  0.3640 -0.4502 -0.2859
  826MOL0     C 8942   4.309   0.899   7.535 -1.0125  0.0352  0.8566
  826MOL0     C 8943   4.326   0.883   7.386 -0.2755  0.3941  0.6441
  826MOL0    Cl 8944   4.229   0.754   7.325  0.6552 -0.1813  0.1864
  826MOL0     C 8945   3.361   1.167   7.882  0.1724  0.2070  0.9377
  826MOL0     C 8946   3.256   1.258   7.864  0.1833 -0.4522 -0.1372
  826MOL0     O 8947   3.252   1.613   8.029  0.6069  0.4928  0.3247
  826MOL0     C 8948   2.939   1.654   7.850 -0.8146  0.3085 -0.5099
  826MOL0     C 8949   2.828   1.738   7.852 -0.3697  0.6188  0.1588
  826MOL0     N 8950   2.857   2.173   7.575  1.0060 -0.5893  0.4152
  826MOL0     N 8951   2.988   2.159   7.578  0.5526  0.0379  0.1453
  826MOL0     C 8952   3.992   1.401   7.556 -0.0628  0.5162 -0.0245
  826MOL0     C 8953   4.113   1.370   7.613 -0.4226  0.0802  0.3291
  826MOL0     C 8954   4.412   1.338   7.956  0.2875  1.0419 -0.1357
  826MOL0     C 8955   4.443   1.224   8.039 -0.7219 -0.4084  0.5222
  826MOL0     C 8956   4.562   1.201   8.097 -0.0813 -0.3918 -0.3622
  826MOL0     C 8957   4.670   1.294   8.063  0.1079  0.4837  1.2540
  826MOL0     O 8958   4.793   1.294   8.112 -0.5530  0.6883 -0.2955
  826MOL0     C 8959   4.832   1.198   8.208  0.3889  0.4745 -0.6850
  826MOL0     C 8960   4.942   1.248   8.297 -0.0656  1.0684 -0.4240
  826MOL0     C 8961   5.081   1.272   8.235  0.1363 -1.1519 -0.1935
  826MOL0     C 8962   5.147   1.145   8.171 -0.4088 -0.5777  0.7629
  826MOL0     C 8963   5.180   1.038   8.268  0.0992  0.0890  0.3942
  826MOL0     C 8964   5.210   0.959   8.359  0.4716  0.1034  0.1854
  826MOL0     C 8965   4.641   1.398   7.972 -0.1429 -0.4687 -0.1080
  826MOL0     C 8966   4.517   1.421   7.925  0.5375  0.2151 -0.3370
  826MOL0     H 8967   4.085   1.596   7.877  0.3069  2.6929 -1.5674
  826MOL0     H 8968   3.860   1.607   7.787 -0.9840 -1.6856  1.0928
  826MOL0     H 8969   3.824   1.690   7.476 -1.2948  3.9604  2.6478
  826MOL0     H 8970   3.732   1.700   7.625  1.8525  0.3863  0.4181
  826MOL0     H 8971   3.578   1.562   7.447 -0.6824  1.3361 -2.8873
  826MOL0     H 8972   3.631   1.704   7.358 -2.4041  1.0949  0.0783
  826MOL0     H 8973   3.536   1.848   7.547 -1.2335 -0.3662 -1.1494
  826MOL0     H 8974   3.515   1.702   7.647 -1.8235 -1.1053 -0.5922
  826MOL0     H 8975   3.360   1.783   7.399  0.4606  1.4938  1.0664
  826MOL0     H 8976   3.364   1.613   7.452 -1.1221 -0.4957  1.0266
  826MOL0     H 8977   3.290   1.699   7.682 -1.8820 -1.7475 -0.3198
  826MOL0     H 8978   3.171   1.723   7.564 -0.1246  1.1929 -0.6413
  826MOL0     H 8979   3.206   1.953   7.534 -0.0513  0.2172  0.5211
  826MOL0     H 8980   3.358   1.948   7.610 -1.3567  2.3125 -0.3725
  826MOL0     H 8981   3.120   1.904   7.792 -0.8227 -0.0647 -1.2736
  826MOL0     H 8982   3.279   1.952   7.830 -1.2864 -0.3581  1.4859
  826MOL0     H 8983   3.241   2.147   7.667  1.9116 -3.2301 -1.1161
  826MOL0     H 8984   3.175   2.162   7.837 -0.1637 -1.1325  1.7292
  826MOL0     H 8985   2.920   2.137   7.899 -2.4695 -2.0407 -0.0562
  826MOL0     H 8986   2.638   2.292   7.718 -1.2042 -0.0060 -0.4904
  826MOL0     H 8987   2.663   2.188   7.861  1.3029  2.1010  0.2390
  826MOL0     H 8988   2.564   2.115   7.583 -3.7896  1.2682  1.1657
  826MOL0     H 8989   2.463   2.127   7.730  0.1459  0.0661  0.8217
  826MOL0     H 8990   2.524   1.871   7.671 -1.0341 -0.8733  1.4496
  826MOL0     H 8991   2.695   1.916   7.679  0.5565  1.3463 -0.6440
  826MOL0     H 8992   2.569   1.792   7.870  0.7195  0.0606 -1.2789
  826MOL0     H 8993   2.495   1.946   7.918 -1.5124 -2.5530 -2.1444
  826MOL0     H 8994   2.921   1.925   8.117  1.3899  1.6285 -1.6425
  826MOL0     H 8995   3.105   1.795   8.119  0.4960  1.8298 -1.1114
  826MOL0     H 8996   3.441   1.553   7.857 -1.5396  0.3867 -1.8217
  826MOL0     H 8997   3.626   1.384   7.869 -0.7467  1.1450 -1.4427
  826MOL0     H 8998   3.771   1.214   7.894  1.0316 -0.6510 -0.3629
  826MOL0     H 8999   3.702   1.187   7.734  1.5779 -1.2367 -1.2809
  826MOL0     H 9000   3.774   0.945   7.777  0.1178  1.3536 -0.7660
  826MOL0     H 9001   3.811   0.990   7.947 -0.6911 -1.6307  0.2623
  826MOL0     H 9002   3.996   1.128   7.876  1.5216 -0.5733  1.1275
  826MOL0     H 9003   3.962   1.084   7.703  1.2668 -1.3730 -0.5480
  826MOL0     H 9004   4.030   0.862   7.910  1.0899  0.5714  0.0563
  826MOL0     H 9005   3.963   0.846   7.745 -1.2914  0.5999  1.4673
  826MOL0     H 9006   4.194   0.781   7.746  0.7071  0.5575 -0.0928
  826MOL0     H 9007   4.238   0.933   7.828 -0.3424 -1.0038  0.1520
  826MOL0     H 9008   4.197   1.058   7.613 -1.5957 -0.2965  1.0836
  826MOL0     H 9009   4.102   0.913   7.548  0.7034 -1.3307 -0.2534
  826MOL0     H 9010   4.395   0.957   7.570 -1.0377  1.0726 -0.6774
  826MOL0     H 9011   4.336   0.801   7.576 -0.0423 -0.0863 -0.0276
  826MOL0     H 9012   4.431   0.866   7.363  0.2405  1.2520  2.1972
  826MOL0     H 9013   4.300   0.975   7.333 -0.4975  0.9781  1.7278
  826MOL0     H 9014   3.334   1.063   7.903 -1.7818  0.2795 -0.8904
  826MOL0     H 9015   3.155   1.219   7.861 -1.0910  2.1757  2.8767
  826MOL0     H 9016   2.935   1.572   7.779 -0.6129  2.1126 -2.7286
  826MOL0     H 9017   2.737   1.721   7.796 -3.2407  4.4166  3.1072
  826MOL0     H 9018   3.962   1.350   7.466 -0.7888 -2.3472  1.7057
  826MOL0     H 9019   4.187   1.307   7.564  0.0149  1.7726 -1.3183
  826MOL0     H 9020   4.366   1.151   8.062 -0.9847 -0.4232 -0.3934
  826MOL0     H 9021   4.582   1.109   8.150 -0.9940  1.2751  3.1916
  826MOL0     H 9022   4.870   1.106   8.162 -0.0914  0.7471 -1.6520
  826MOL0     H 9023   4.746   1.171   8.271  0.3799  0.9049 -0.5115
  826MOL0     H 9024   4.912   1.350   8.324  0.0758  1.4242 -1.5753
  826MOL0     H 9025   4.960   1.187   8.386 -0.0978 -4.1999 -3.5810
  826MOL0     H 9026   5.146   1.293   8.321  0.4221  3.9801 -1.3558
  826MOL0     H 9027   5.079   1.367   8.182 -1.7039  0.0215  1.8335
  826MOL0     H 9028   5.074   1.112   8.095 -1.1981  1.3550  0.6304
  826MOL0     H 9029   5.229   1.182   8.109 -0.3761 -0.3343  0.9505
  826MOL0     H 9030   5.229   0.892   8.440 -2.1450  0.7195  1.4186
  826MOL0     H 9031   4.726   1.462   7.951  1.0225 -2.8301 -3.3995
  826MOL0     H 9032   4.510   1.509   7.862  3.0193  1.9580  1.6072
  827MOL0     O 9033   7.345   1.955   9.557  0.2035  0.0430 -0.5029
  827MOL0     C 9034   7.288   1.966   9.666  0.9055  0.0597 -0.3295
  827MOL0     O 9035   7.149   1.953   9.678  0.8248 -0.3153 -0.2362
  827MOL0     C 9036   7.082   1.918   9.565  0.2557 -0.4762  0.3996
  827MOL0     C 9037   7.091   1.987   9.443 -0.4467 -0.0630  0.9757
  827MOL0     C 9038   7.010   1.963   9.329  0.4983 -1.2984  0.1756
  827MOL0     C 9039   6.895   1.886   9.349 -0.2447  0.4095  0.3847
  827MOL0     O 9040   6.809   1.865   9.247 -0.2987 -0.2006  0.1598
  827MOL0     C 9041   6.728   1.971   9.208  0.4041 -0.3917  0.1993
  827MOL0     C 9042   6.703   1.974   9.050  0.0146 -0.7589 -0.3213
  827MOL0     C 9043   6.596   1.855   9.010 -0.4896 -1.4588 -0.3613
  827MOL0     C 9044   6.461   1.893   9.062 -0.2084 -0.1499 -0.0455
  827MOL0     C 9045   6.342   1.809   8.995 -0.8401 -0.5932  0.2600
  827MOL0     C 9046   6.209   1.838   9.066  0.2404 -0.0838 -0.3853
  827MOL0     C 9047   6.159   1.988   9.071  0.5107  0.0244  0.2298
  827MOL0     C 9048   6.030   2.000   9.157 -0.6465  0.7214  0.4067
  827MOL0     N 9049   5.914   2.006   9.068  0.2667  0.0753 -0.6048
  827MOL0     C 9050   5.867   2.110   9.001  0.7609 -0.4647  0.4688
  827MOL0     C 9051   5.737   2.078   8.970  0.2531  0.2854 -1.0090
  827MOL0     C 9052   5.634   2.166   8.898 -0.1378 -0.1183  0.2678
  827MOL0     C 9053   5.602   2.138   8.752 -0.4376  1.1498  0.4955
  827MOL0     C 9054   5.533   2.000   8.734 -0.2767  0.6442  0.5302
  827MOL0     C 9055   5.393   1.985   8.804 -0.6459  1.2847  0.5291
  827MOL0     O 9056   5.294   2.086   8.786  0.1616  0.0901 -0.3384
  827MOL0     C 9057   5.232   2.104   8.670  0.6028 -0.1221 -0.0484
  827MOL0     C 9058   5.168   2.221   8.647 -0.5509  0.1474  0.7982
  827MOL0     C 9059   5.096   2.236   8.524 -0.0686 -0.4918  0.4117
  827MOL0     C 9060   5.093   2.136   8.431  0.5801  0.8950  0.0249
  827MOL0     C 9061   5.009   2.159   8.319 -0.5841  0.5915 -0.3843
  827MOL0     O 9062   5.050   2.110   8.201 -0.7527  0.0134 -0.3639
  827MOL0     C 9063   4.965   2.123   8.090 -0.8949  0.2523  0.9331
  827MOL0     C 9064   4.956   2.251   8.030 -0.6913  0.2140 -0.3334
  827MOL0     C 9065   4.879   2.267   7.916 -0.3637  1.3287  0.2605
  827MOL0     C 9066   4.810   2.149   7.858  0.2184 -0.9317 -0.2744
  827MOL0     O 9067   4.754   2.152   7.730  0.1588  1.0026  0.2876
  827MOL0     C 9068   4.660   2.259   7.688 -0.6820  0.5481 -0.2515
  827MOL0     C 9069   4.592   2.239   7.554  0.8631  0.8620  0.1015
  827MOL0     C 9070   4.683   2.260   7.436 -0.5086 -0.8534 -0.5549
  827MOL0     C 9071   4.654   2.163   7.313 -0.0148 -0.0399 -0.8369
  827MOL0     C 9072   4.535   2.205   7.223  0.4534 -0.5217  0.0837
  827MOL0     C 9073   4.397   2.168   7.292 -0.3757 -0.3379 -0.6654
  827MOL0     C 9074   4.287   2.199   7.189  0.1604 -0.3362 -0.0380
  827MOL0     C 9075   4.169   2.268   7.256 -0.5082 -0.3884 -1.2870
  827MOL0    Cl 9076   4.035   2.289   7.141 -0.3572  0.4473  0.2591
  827MOL0     C 9077   4.815   2.017   7.917 -0.6166 -1.2353  0.5237
  827MOL0     C 9078   4.898   2.008   8.033  0.1497 -0.2298 -0.0330
  827MOL0     O 9079   4.902   2.210   8.336 -0.1549 -0.4361 -0.0949
  827MOL0     C 9080   5.146   2.008   8.464 -0.7347 -0.1979  0.4011
  827MOL0     C 9081   5.214   1.991   8.585 -1.2264 -0.2141 -0.6921
  827MOL0     N 9082   5.710   1.943   9.015 -0.8231 -0.2822  0.4351
  827MOL0     N 9083   5.821   1.898   9.070 -0.3666 -0.4278  0.0167
  827MOL0     C 9084   6.882   1.808   9.465 -0.5671 -0.9162 -0.0678
  827MOL0     C 9085   6.978   1.827   9.567 -0.6226  0.3268  0.3617
  827MOL0     C 9086   7.374   1.964   9.783 -0.0974 -0.5426 -0.4347
  827MOL0     C 9087   7.517   1.989   9.770 -0.3267 -0.0253 -0.6785
  827MOL0     C 9088   7.585   2.011   9.899  0.8835 -0.1837 -0.6684
  827MOL0     C 9089   7.525   2.009  10.031  1.2879  0.3207  0.6778
  827MOL0     O 9090   7.569   2.041  10.152  0.2638 -0.1801  0.0515
  827MOL0     C 9091   7.692   2.114  10.159 -0.1407 -0.3554  0.3458
  827MOL0     C 9092   7.738   2.143  10.296  0.5572  0.0800 -0.3092
  827MOL0     C 9093   7.657   2.253  10.370  0.3616 -0.6404  0.2593
  827MOL0     C 9094   7.697   2.269  10.519  0.7307 -0.9208 -0.3445
  827MOL0     C 9095   7.838   2.322  10.535 -0.0328  0.2148  0.1254
  827MOL0     C 9096   7.952   2.363  10.545  0.1930 -0.0636 -0.3432
  827MOL0     C 9097   7.393   1.970  10.025  0.3009  0.1471  0.5910
  827MOL0     C 9098   7.319   1.961   9.906  0.3712  0.5135  0.4640
  827MOL0     H 9099   7.164   2.067   9.442 -0.5287  0.0111  0.1651
  827MOL0     H 9100   7.038   2.004   9.232 -0.8324  0.8655  0.6269
  827MOL0     H 9101   6.774   2.065   9.244  1.3349 -0.8723  0.3083
  827MOL0     H 9102   6.635   1.961   9.264 -0.5412 -1.4051 -1.5129
  827MOL0     H 9103   6.803   1.953   9.012 -1.1124 -0.8817 -3.5296
  827MOL0     H 9104   6.675   2.076   9.023  0.8070  0.2386  2.3370
  827MOL0     H 9105   6.620   1.752   9.035 -1.1489 -1.2320  1.3813
  827MOL0     H 9106   6.587   1.851   8.901  2.7440 -0.0352 -0.7777
  827MOL0     H 9107   6.457   1.882   9.171  1.5461 -0.5155 -0.0000
  827MOL0     H 9108   6.440   1.999   9.047 -1.6062 -0.2661  0.8850
  827MOL0     H 9109   6.373   1.704   8.991  0.6634 -0.1577  0.0813
  827MOL0     H 9110   6.332   1.853   8.896  0.9814  2.4152  1.2936
  827MOL0     H 9111   6.213   1.799   9.168 -0.0538 -2.5734 -1.2599
  827MOL0     H 9112   6.138   1.780   9.007  1.5590 -2.7566  0.4729
  827MOL0     H 9113   6.231   2.050   9.125  0.8903 -2.9624  3.5603
  827MOL0     H 9114   6.146   2.029   8.970  4.2907 -0.8947 -0.8203
  827MOL0     H 9115   6.038   2.090   9.219 -0.2907  2.7506 -2.3857
  827MOL0     H 9116   6.006   1.914   9.220 -3.2532  1.9985  1.3091
  827MOL0     H 9117   5.914   2.204   8.977 -0.8135  0.8041  2.0895
  827MOL0     H 9118   5.651   2.275   8.902  1.4606 -0.3631  1.0643
  827MOL0     H 9119   5.545   2.160   8.962  0.5546  0.4984  1.3304
  827MOL0     H 9120   5.698   2.146   8.700 -1.2243  3.1714 -0.8126
  827MOL0     H 9121   5.529   2.213   8.717 -1.4403  0.9866  2.1221
  827MOL0     H 9122   5.515   1.996   8.626  1.7341  1.0684  0.1368
  827MOL0     H 9123   5.608   1.924   8.756 -0.4308  0.1189 -0.6828
  827MOL0     H 9124   5.418   1.969   8.909 -1.3090 -2.0796  0.2944
  827MOL0     H 9125   5.349   1.889   8.775 -1.6528  2.0347 -0.4905
  827MOL0     H 9126   5.190   2.314   8.697  0.4790  0.2478  0.1803
  827MOL0     H 9127   5.042   2.328   8.504  1.0932  0.4135  1.3207
  827MOL0     H 9128   5.008   2.339   8.065 -1.0034  0.7749 -1.2482
  827MOL0     H 9129   4.854   2.364   7.875 -1.9078  0.0686 -1.9588
  827MOL0     H 9130   4.708   2.358   7.697 -0.8456  0.6357 -0.3471
  827MOL0     H 9131   4.577   2.249   7.758 -0.7541  0.8795 -0.2869
  827MOL0     H 9132   4.505   2.305   7.546 -0.6214 -1.1647 -1.5878
  827MOL0     H 9133   4.557   2.136   7.560 -1.1784  1.5490  0.8505
  827MOL0     H 9134   4.778   2.223   7.477 -0.0219  2.9803  2.3630
  827MOL0     H 9135   4.680   2.367   7.412  1.2490 -0.4038  1.0243
  827MOL0     H 9136   4.743   2.158   7.250  0.0958 -2.8155 -0.5806
  827MOL0     H 9137   4.633   2.064   7.353 -0.5430  0.1491 -0.6389
  827MOL0     H 9138   4.537   2.155   7.126  0.5767  0.0354 -0.2032
  827MOL0     H 9139   4.544   2.313   7.204 -0.1976 -0.9424 -3.1525
  827MOL0     H 9140   4.374   2.224   7.383 -3.8300 -0.2102 -1.4499
  827MOL0     H 9141   4.399   2.067   7.335  0.5480  0.0634  0.2756
  827MOL0     H 9142   4.306   2.274   7.112 -1.1393 -0.8996 -0.9373
  827MOL0     H 9143   4.250   2.106   7.144 -0.4629 -0.0279 -0.1678
  827MOL0     H 9144   4.198   2.370   7.285  0.5347 -0.4399 -2.1169
  827MOL0     H 9145   4.138   2.212   7.345  1.3032 -0.5772 -0.7246
  827MOL0     H 9146   4.758   1.935   7.874  1.4912 -1.6789 -1.6849
  827MOL0     H 9147   4.902   1.911   8.081  0.2012  0.3466  1.1741
  827MOL0     H 9148   5.156   1.916   8.408  0.3611 -1.8155  3.0720
  827MOL0     H 9149   5.246   1.890   8.607 -2.4369 -0.8337 -1.6498
  827MOL0     H 9150   6.795   1.744   9.471 -1.1547 -0.4068 -2.1746
  827MOL0     H 9151   6.975   1.768   9.658 -0.9655 -1.5811 -0.8284
  827MOL0     H 9152   7.573   1.995   9.677  1.3670  0.4420  0.3300
  827MOL0     H 9153   7.691   2.033   9.901  0.9602 -0.1856 -2.4795
  827MOL0     H 9154   7.664   2.206  10.108  1.7492  0.2543  0.3278
  827MOL0     H 9155   7.775   2.065  10.106 -0.6164 -0.9062  0.0957
  827MOL0     H 9156   7.727   2.057  10.362  2.3221  1.0033  1.3061
  827MOL0     H 9157   7.844   2.169  10.283  0.1694  1.9444 -0.0510
  827MOL0     H 9158   7.549   2.236  10.361  0.1974  1.2283 -2.3142
  827MOL0     H 9159   7.678   2.345  10.314  5.2446 -0.2424  2.2254
  827MOL0     H 9160   7.637   2.355  10.551 -0.1686 -0.2264 -3.5026
  827MOL0     H 9161   7.675   2.182  10.580  1.1571 -0.7621  0.0389
  827MOL0     H 9162   8.049   2.400  10.522  0.7758 -0.5166  1.2626
  827MOL0     H 9163   7.328   1.964  10.112 -1.6112  2.3321 -0.5913
  827MOL0     H 9164   7.214   1.937   9.915  0.8282 -1.1173  1.8157
  828MOL0     O 9165   9.813   5.789   6.850  0.2692  0.0976 -0.3147
  828MOL0     C 9166   9.795   5.668   6.888 -0.4105 -0.1775 -0.4428
  828MOL0     O 9167   9.685   5.617   6.968  0.1434  0.8855  0.4932
  828MOL0     C 9168   9.591   5.708   7.015  0.7825 -0.4754 -0.4318
  828MOL0     C 9169   9.530   5.684   7.144 -0.0568 -0.6372 -0.5278
  828MOL0     C 9170   9.417   5.762   7.192 -0.3292  0.1637  0.8290
  828MOL0     C 9171   9.364   5.870   7.113 -0.3752 -0.8961 -0.1703
  828MOL0     O 9172   9.261   5.938   7.159  0.4378  0.1818  0.3253
  828MOL0     C 9173   9.190   5.892   7.280 -0.0704 -0.4661 -0.0935
  828MOL0     C 9174   9.088   5.776   7.259  0.2163 -0.1573  0.8128
  828MOL0     C 9175   8.991   5.763   7.376  0.5392  0.0046 -0.9259
  828MOL0     C 9176   8.900   5.634   7.370 -0.0813  0.0241  0.5809
  828MOL0     C 9177   8.818   5.626   7.494 -0.1568 -0.1869  0.9151
  828MOL0     C 9178   8.729   5.500   7.489 -0.5826 -0.7700  0.5284
  828MOL0     C 9179   8.636   5.506   7.614 -1.4050  0.0761 -0.8866
  828MOL0     C 9180   8.559   5.375   7.624  0.4064  0.5317  0.0356
  828MOL0     N 9181   8.464   5.374   7.509  0.1784 -0.3375  0.5834
  828MOL0     C 9182   8.346   5.446   7.493 -0.3230  1.2927 -0.2381
  828MOL0     C 9183   8.293   5.409   7.372  0.0075  0.4062 -0.0164
  828MOL0     C 9184   8.171   5.477   7.309 -0.0671  0.4235  0.2481
  828MOL0     C 9185   8.050   5.386   7.309 -0.1320  0.4383  0.0586
  828MOL0     C 9186   7.948   5.429   7.199 -0.5696 -0.0208  0.0744
  828MOL0     C 9187   7.812   5.358   7.182 -1.0217  0.5255  1.2860
  828MOL0     O 9188   7.743   5.385   7.304 -0.6336  0.7851  0.0972
  828MOL0     C 9189   7.606   5.365   7.308 -0.7068 -0.3573 -0.6242
  828MOL0     C 9190   7.540   5.258   7.250  0.1663  0.1425 -0.3959
  828MOL0     C 9191   7.405   5.238   7.280 -0.7521  0.2557  0.3464
  828MOL0     C 9192   7.329   5.327   7.358  0.2290 -0.6698  0.5461
  828MOL0     C 9193   7.197   5.288   7.401  0.7515  0.6300 -0.2007
  828MOL0     O 9194   7.154   5.342   7.518  0.5423  0.1781 -0.2566
  828MOL0     C 9195   7.037   5.297   7.575 -0.4716 -0.5491  0.3991
  828MOL0     C 9196   7.041   5.211   7.680  0.4414 -0.5106 -0.6469
  828MOL0     C 9197   6.925   5.155   7.736  0.3904  0.0379  0.0813
  828MOL0     C 9198   6.802   5.180   7.674  0.6985  0.1877 -0.2294
  828MOL0     O 9199   6.690   5.134   7.739  0.0814 -0.6779 -1.1943
  828MOL0     C 9200   6.552   5.162   7.706 -0.0581  0.1398 -1.2956
  828MOL0     C 9201   6.475   5.161   7.832 -0.2555  0.4096  0.1255
  828MOL0     C 9202   6.344   5.078   7.842 -0.0392 -0.5614  1.1696
  828MOL0     C 9203   6.335   4.940   7.769 -1.2947  1.2711  0.0022
  828MOL0     C 9204   6.212   4.858   7.804  0.4648 -0.8120  0.0791
  828MOL0     C 9205   6.212   4.712   7.758  1.4980 -0.5666  1.3643
  828MOL0     C 9206   6.088   4.638   7.805  0.4684  0.5558  0.7047
  828MOL0     C 9207   5.953   4.706   7.768 -0.1346  0.0582  0.4779
  828MOL0    Cl 9208   5.956   4.781   7.604 -0.3561  0.0102 -0.2882
  828MOL0     C 9209   6.786   5.266   7.561 -0.7663  0.3017 -0.9210
  828MOL0     C 9210   6.908   5.325   7.517 -0.2923 -0.0948 -0.9047
  828MOL0     O 9211   7.126   5.216   7.333 -0.1982  0.2149  1.0378
  828MOL0     C 9212   7.399   5.437   7.413 -0.1136 -0.2917  0.6110
  828MOL0     C 9213   7.533   5.457   7.381 -0.9265 -0.3615  0.8560
  828MOL0     N 9214   8.369   5.310   7.319 -0.4707  0.0585 -0.2358
  828MOL0     N 9215   8.467   5.294   7.401  0.6207 -0.1333 -0.0589
  828MOL0     C 9216   9.431   5.893   6.988 -0.1772 -0.5711  0.4040
  828MOL0     C 9217   9.535   5.811   6.940  0.2122  0.2320 -0.3281
  828MOL0     C 9218   9.895   5.572   6.852 -0.7587 -0.2359  0.7850
  828MOL0     C 9219   9.895   5.441   6.902  0.5710  1.1492 -0.4962
  828MOL0     C 9220   9.983   5.341   6.861 -0.3816 -0.4637 -0.2632
  828MOL0     C 9221  10.069   5.351   6.751 -0.1558  0.8589  0.9040
  828MOL0     O 9222  10.145   5.249   6.714 -0.5026  0.0369 -0.2904
  828MOL0     C 9223  10.144   5.220   6.573  0.8349  0.3130 -0.0697
  828MOL0     C 9224  10.280   5.251   6.502 -0.5508 -0.5119  1.4091
  828MOL0     C 9225  10.406   5.187   6.564  0.1724  0.2653 -0.0588
  828MOL0     C 9226  10.513   5.187   6.454 -0.2227 -0.4800 -0.3736
  828MOL0     C 9227  10.616   5.091   6.488  0.3214  0.6326  0.3929
  828MOL0     C 9228  10.723   5.032   6.489  1.0684  0.2607  0.2063
  828MOL0     C 9229  10.080   5.481   6.709  0.1086 -0.0663 -0.8105
  828MOL0     C 9230  10.008   5.589   6.758 -0.3148 -0.6649  0.5371
  828MOL0     H 9231   9.550   5.585   7.184  1.3260  0.6057  2.0903
  828MOL0     H 9232   9.382   5.723   7.287  1.1661  0.5478  1.5629
  828MOL0     H 9233   9.154   5.991   7.309  2.8934  1.1034 -1.2856
  828MOL0     H 9234   9.247   5.873   7.372 -1.6873  2.0746  1.5556
  828MOL0     H 9235   9.145   5.683   7.253  0.6502 -0.1055  3.1707
  828MOL0     H 9236   9.034   5.782   7.164  2.5789  0.7464 -0.5619
  828MOL0     H 9237   8.922   5.848   7.380 -1.8945 -1.9214  1.6046
  828MOL0     H 9238   9.054   5.776   7.465  0.3268  1.2980 -0.9365
  828MOL0     H 9239   8.832   5.626   7.284 -0.7645  1.2248  0.9987
  828MOL0     H 9240   8.962   5.544   7.364 -2.2076 -1.4254 -1.5240
  828MOL0     H 9241   8.759   5.717   7.508 -0.8730 -0.4138 -0.4665
  828MOL0     H 9242   8.880   5.608   7.582 -2.4443 -2.0043  2.2394
  828MOL0     H 9243   8.794   5.412   7.493  1.3203  0.6301  1.5333
  828MOL0     H 9244   8.691   5.506   7.387  3.9675 -0.5654 -1.3969
  828MOL0     H 9245   8.709   5.505   7.696  1.7841 -1.9339 -3.4501
  828MOL0     H 9246   8.569   5.591   7.627  1.6281  2.2929  1.9001
  828MOL0     H 9247   8.507   5.384   7.719 -0.8731  0.0226 -0.5970
  828MOL0     H 9248   8.629   5.291   7.631 -1.1249 -0.7455  0.5788
  828MOL0     H 9249   8.319   5.520   7.567 -0.4322  0.8522  0.1660
  828MOL0     H 9250   8.199   5.490   7.204 -2.4455  1.7537 -0.2930
  828MOL0     H 9251   8.142   5.574   7.351 -2.7636 -0.2363  0.0843
  828MOL0     H 9252   7.991   5.398   7.401 -2.5535 -0.6276 -1.2475
  828MOL0     H 9253   8.082   5.283   7.289  1.4345  0.6257  1.4192
  828MOL0     H 9254   7.924   5.536   7.205 -0.5665  0.0216 -0.5640
  828MOL0     H 9255   8.002   5.414   7.105 -0.8331  2.2414 -0.5095
  828MOL0     H 9256   7.821   5.250   7.166 -1.2029  0.7006 -0.0886
  828MOL0     H 9257   7.749   5.389   7.098 -0.4958  2.0594  1.4397
  828MOL0     H 9258   7.597   5.174   7.214  1.0553  1.2900 -1.8009
  828MOL0     H 9259   7.377   5.134   7.262  1.7582 -0.6339  1.1844
  828MOL0     H 9260   7.135   5.176   7.723 -0.8172 -0.3455  2.5457
  828MOL0     H 9261   6.932   5.087   7.821 -2.0983 -2.3956 -1.4970
  828MOL0     H 9262   6.502   5.102   7.629  1.2888 -0.6299 -1.5933
  828MOL0     H 9263   6.560   5.262   7.661  0.3350  0.3983 -0.6611
  828MOL0     H 9264   6.462   5.267   7.857 -0.2330 -0.3069  3.5769
  828MOL0     H 9265   6.537   5.114   7.910  1.5952  0.6289 -1.1319
  828MOL0     H 9266   6.257   5.131   7.802 -0.5388 -3.5314 -2.2598
  828MOL0     H 9267   6.322   5.060   7.948 -1.5224  1.1474  1.1974
  828MOL0     H 9268   6.335   4.942   7.660  3.6313  2.1567 -0.2215
  828MOL0     H 9269   6.423   4.875   7.776 -3.0758 -1.2805  0.0279
  828MOL0     H 9270   6.122   4.906   7.766  1.0288 -2.5488 -3.9398
  828MOL0     H 9271   6.206   4.852   7.913  0.6989 -0.5887  0.1069
  828MOL0     H 9272   6.301   4.665   7.801  1.9529 -1.5430 -0.5379
  828MOL0     H 9273   6.208   4.705   7.649 -3.8429 -0.1685  1.2592
  828MOL0     H 9274   6.079   4.547   7.744 -1.6374  2.2837 -1.7628
  828MOL0     H 9275   6.097   4.596   7.905  1.8065  1.3076  0.9194
  828MOL0     H 9276   5.940   4.788   7.839 -1.0904 -1.2291  1.8657
  828MOL0     H 9277   5.870   4.636   7.783  0.4895 -0.0452  4.4033
  828MOL0     H 9278   6.692   5.289   7.511 -0.5403  0.7805 -1.1387
  828MOL0     H 9279   6.919   5.381   7.425 -0.5501 -0.5715 -1.2301
  828MOL0     H 9280   7.351   5.504   7.483 -2.5155  1.6882 -2.6488
  828MOL0     H 9281   7.594   5.530   7.434  1.2406 -2.5291  1.5500
  828MOL0     H 9282   9.402   5.977   6.926 -0.8563 -0.3135  1.0496
  828MOL0     H 9283   9.570   5.810   6.837  1.4251  1.1870  0.0498
  828MOL0     H 9284   9.829   5.406   6.981  0.5627  1.0265 -0.5586
  828MOL0     H 9285   9.983   5.244   6.910 -1.5876 -1.4239 -2.0465
  828MOL0     H 9286  10.066   5.275   6.521  2.6439  0.2919 -3.0141
  828MOL0     H 9287  10.120   5.115   6.559  0.5728  0.2205  0.9608
  828MOL0     H 9288  10.268   5.220   6.398  1.6678  1.1384  0.5665
  828MOL0     H 9289  10.280   5.361   6.498  1.5572 -0.4922 -3.2142
  828MOL0     H 9290  10.397   5.084   6.599  2.5823  0.7311  2.2287
  828MOL0     H 9291  10.426   5.249   6.652 -2.8067  1.5774 -0.1929
  828MOL0     H 9292  10.474   5.162   6.355  1.2768  1.0456 -1.4092
  828MOL0     H 9293  10.555   5.286   6.438 -2.0336  0.3243 -0.4135
  828MOL0     H 9294  10.811   4.971   6.486  0.1623 -1.0552 -1.7413
  828MOL0     H 9295  10.171   5.505   6.654  0.7717  0.5720  0.5406
  828MOL0     H 9296  10.033   5.691   6.731 -0.9691 -0.0961  1.9345
  829MOL0     O 9297   9.768   9.598  10.995 -0.1230  0.0071 -0.4710
  829MOL0     C 9298   9.791   9.716  10.971 -0.4839 -0.4164  0.0635
  829MOL0     O 9299   9.701   9.820  10.995  0.3170 -0.6406 -0.0946
  829MOL0     C 9300   9.587   9.779  11.061 -0.2283  0.2849  0.2659
  829MOL0     C 9301   9.556   9.844  11.178 -0.8315  0.6204 -0.6023
  829MOL0     C 9302   9.433   9.822  11.241 -0.1858 -0.0516 -0.0650
  829MOL0     C 9303   9.341   9.743  11.186  0.2348 -0.0657  0.0693
  829MOL0     O 9304   9.222   9.728  11.259 -0.4850 -0.4521  0.5022
  829MOL0     C 9305   9.123   9.736  11.162  0.7935  0.7532  0.8089
  829MOL0     C 9306   8.994   9.778  11.232 -0.7791  0.7845 -0.1210
  829MOL0     C 9307   9.003   9.932  11.256 -0.1420 -0.1905 -0.0890
  829MOL0     C 9308   8.870   9.985  11.310 -0.1521  0.4603  0.5796
  829MOL0     C 9309   8.768  10.003  11.211 -1.1093 -0.1372 -0.7240
  829MOL0     C 9310   8.632  10.004  11.286  0.3689 -0.7181  0.8105
  829MOL0     C 9311   8.512  10.037  11.194 -0.5658 -0.2562 -0.4939
  829MOL0     C 9312   8.477   9.902  11.141 -0.4635  0.8082  0.7837
  829MOL0     N 9313   8.344   9.899  11.075  0.1270  0.7836 -0.2397
  829MOL0     C 9314   8.222   9.922  11.140 -0.5146  0.5225  0.3989
  829MOL0     C 9315   8.131   9.882  11.045  0.3797 -0.0777  0.8767
  829MOL0     C 9316   7.982   9.884  11.056 -0.5025 -0.4326 -0.7184
  829MOL0     C 9317   7.908   9.756  11.066  0.6295 -0.4733 -1.0262
  829MOL0     C 9318   7.754   9.763  11.067  0.5746 -0.4053  0.3554
  829MOL0     C 9319   7.694   9.836  10.948  0.2090  0.0278  0.4858
  829MOL0     O 9320   7.557   9.810  10.975  0.1586  0.3934  0.2715
  829MOL0     C 9321   7.456   9.872  10.901 -0.3903  0.1105 -1.0188
  829MOL0     C 9322   7.463   9.975  10.810  0.7190 -0.7935 -0.7080
  829MOL0     C 9323   7.344  10.025  10.755  0.4115  0.3561 -0.5860
  829MOL0     C 9324   7.222   9.959  10.775 -0.2473  0.1777 -0.3582
  829MOL0     C 9325   7.088  10.006  10.710 -0.0089 -0.5714 -0.2131
  829MOL0     O 9326   6.975   9.941  10.748 -0.2066  0.4085 -0.6408
  829MOL0     C 9327   6.860   9.954  10.678 -0.1774  0.8111  0.1292
  829MOL0     C 9328   6.840   9.999  10.545 -0.8265  0.4182 -0.7345
  829MOL0     C 9329   6.717  10.011  10.484  1.0555 -0.2296 -0.7520
  829MOL0     C 9330   6.597   9.981  10.561  0.1605  0.0589 -0.5517
  829MOL0     O 9331   6.477   9.969  10.497 -0.1719 -0.3280 -0.2722
  829MOL0     C 9332   6.356   9.923  10.563 -0.0658  0.3898  0.6642
  829MOL0     C 9333   6.234   9.945  10.464 -0.2090  0.2190  0.0407
  829MOL0     C 9334   6.098   9.902  10.518 -0.1732 -0.8313 -0.1328
  829MOL0     C 9335   5.975   9.969  10.451 -0.7004 -0.1549 -0.9896
  829MOL0     C 9336   5.854   9.906  10.523 -0.1630  0.4291 -0.0658
  829MOL0     C 9337   5.729   9.936  10.437  0.5648 -0.4950 -0.2493
  829MOL0     C 9338   5.609   9.887  10.525  0.5042  0.2975 -1.3657
  829MOL0     C 9339   5.478   9.960  10.490  0.5849 -0.5400  0.4034
  829MOL0    Cl 9340   5.482  10.117  10.560 -0.2837  0.0772 -0.4956
  829MOL0     C 9341   6.623   9.945  10.694  0.5043 -0.3322  0.5121
  829MOL0     C 9342   6.747   9.925  10.749  0.7340  0.3407 -0.3217
  829MOL0     O 9343   7.100  10.095  10.622  0.1369 -0.3325 -0.6373
  829MOL0     C 9344   7.212   9.868  10.872 -0.1846  0.5014 -0.3881
  829MOL0     C 9345   7.329   9.822  10.938 -0.0229  0.9193 -0.5446
  829MOL0     N 9346   8.200   9.853  10.924  0.5094 -0.1444  0.5529
  829MOL0     N 9347   8.327   9.862  10.944  0.2362 -0.5115  0.3117
  829MOL0     C 9348   9.365   9.691  11.059  0.2970  0.5776  0.5681
  829MOL0     C 9349   9.493   9.700  11.000 -0.2685 -0.6865  0.3901
  829MOL0     C 9350   9.929   9.755  10.941 -0.3913 -0.5215 -0.4556
  829MOL0     C 9351   9.985   9.883  10.916 -0.3381 -0.5595 -0.0779
  829MOL0     C 9352  10.123   9.909  10.886  0.2092  0.6808 -0.0866
  829MOL0     C 9353  10.206   9.797  10.878  0.7894  0.4939 -0.5284
  829MOL0     O 9354  10.336   9.807  10.855  0.0638 -0.1893 -0.5305
  829MOL0     C 9355  10.362   9.792  10.718  0.0312  0.0866 -0.8898
  829MOL0     C 9356  10.467   9.902  10.672  0.5707  1.0704  0.1629
  829MOL0     C 9357  10.523   9.873  10.537 -0.2671 -0.2392 -0.5307
  829MOL0     C 9358  10.661   9.947  10.514 -0.6199  0.0251 -0.2755
  829MOL0     C 9359  10.767   9.890  10.600 -0.7778  0.5509  0.4750
  829MOL0     C 9360  10.844   9.835  10.677  0.3833  0.6275  0.1006
  829MOL0     C 9361  10.153   9.672  10.896 -0.0717  0.0907 -0.2917
  829MOL0     C 9362  10.024   9.647  10.934  0.0042  0.7924  0.8481
  829MOL0     H 9363   9.625   9.911  11.228  2.8641 -2.2659 -1.3380
  829MOL0     H 9364   9.403   9.875  11.331 -1.8841  1.8182 -1.6310
  829MOL0     H 9365   9.111   9.634  11.122 -4.2445  1.7949 -1.0632
  829MOL0     H 9366   9.137   9.811  11.083  1.7507 -1.7916 -1.6349
  829MOL0     H 9367   8.986   9.718  11.323 -3.4621 -0.2623 -0.9416
  829MOL0     H 9368   8.901   9.762  11.178 -1.3548  3.0915  0.0566
  829MOL0     H 9369   9.026   9.989  11.165  1.1513 -3.3351 -1.9036
  829MOL0     H 9370   9.079   9.962  11.328  1.9539 -1.2493 -1.7342
  829MOL0     H 9371   8.851   9.914  11.391 -1.1666 -2.5233 -2.0765
  829MOL0     H 9372   8.887  10.079  11.364  0.3201  1.4604 -1.2341
  829MOL0     H 9373   8.775   9.922  11.138 -0.8386  2.4730 -3.7914
  829MOL0     H 9374   8.787  10.091  11.149  0.8769  0.0117  0.0211
  829MOL0     H 9375   8.639  10.076  11.368  2.1875 -2.1641  1.9940
  829MOL0     H 9376   8.605   9.915  11.343 -0.1618 -1.4993 -0.6330
  829MOL0     H 9377   8.438  10.090  11.255 -1.3335 -1.2657 -0.5231
  829MOL0     H 9378   8.529  10.111  11.116  2.4890  1.3081  1.4331
  829MOL0     H 9379   8.475   9.818  11.210 -1.8737 -1.0123 -1.3281
  829MOL0     H 9380   8.548   9.880  11.061 -0.7968  2.1158  0.1050
  829MOL0     H 9381   8.210   9.950  11.244 -1.2727  2.5704 -0.1833
  829MOL0     H 9382   7.953   9.942  10.968  2.2912 -1.3904 -2.4300
  829MOL0     H 9383   7.968   9.943  11.147 -0.1597  1.0206 -1.5708
  829MOL0     H 9384   7.933   9.697  11.155 -0.0478  1.0337  0.2065
  829MOL0     H 9385   7.937   9.689  10.985  1.0575 -0.6328 -0.7514
  829MOL0     H 9386   7.712   9.663  11.079 -1.4360  0.4716  0.9773
  829MOL0     H 9387   7.725   9.812  11.160  0.9309 -1.3304  0.9667
  829MOL0     H 9388   7.739   9.791  10.859  2.1555  0.2546  1.2900
  829MOL0     H 9389   7.720   9.942  10.956  1.1126 -0.3403  4.0200
  829MOL0     H 9390   7.557  10.009  10.769  0.8799 -1.1273 -0.6152
  829MOL0     H 9391   7.352  10.113  10.692  2.5259 -0.4243 -1.4932
  829MOL0     H 9392   6.923  10.030  10.482 -0.8105 -2.1189 -2.1019
  829MOL0     H 9393   6.710  10.042  10.380 -0.2365  0.2098 -0.5455
  829MOL0     H 9394   6.340   9.983  10.654 -0.1887 -1.9560  2.2783
  829MOL0     H 9395   6.368   9.817  10.588  1.5399  0.0662 -1.3058
  829MOL0     H 9396   6.253   9.898  10.367  1.3887  3.2677 -1.2398
  829MOL0     H 9397   6.210  10.051  10.452  1.8337  0.8164  0.7511
  829MOL0     H 9398   6.101   9.928  10.624  0.5310 -1.6000  0.0545
  829MOL0     H 9399   6.078   9.795  10.505 -0.5481 -0.7793  0.0276
  829MOL0     H 9400   5.982  10.078  10.453  1.9538 -0.2643  1.5076
  829MOL0     H 9401   5.973   9.929  10.349  1.7540 -0.6467 -0.8984
  829MOL0     H 9402   5.858   9.936  10.628 -2.6245  0.7991 -0.0168
  829MOL0     H 9403   5.852   9.798  10.512 -0.6511  0.2831  1.3054
  829MOL0     H 9404   5.738   9.880  10.344  1.8124 -1.0204  0.1678
  829MOL0     H 9405   5.715  10.041  10.410  0.1621 -0.7367 -0.9982
  829MOL0     H 9406   5.595   9.780  10.507  1.2192 -0.1537  0.5886
  829MOL0     H 9407   5.639   9.898  10.629 -0.0577  1.4268 -1.3123
  829MOL0     H 9408   5.391   9.914  10.537 -0.1330  1.5531  1.2079
  829MOL0     H 9409   5.464   9.964  10.381  5.5929 -0.0191 -0.4920
  829MOL0     H 9410   6.532   9.924  10.750 -0.7156  1.2938 -0.7516
  829MOL0     H 9411   6.757   9.886  10.850 -0.9135  0.4483 -0.1008
  829MOL0     H 9412   7.115   9.832  10.906  0.5350 -2.2900 -1.0106
  829MOL0     H 9413   7.317   9.744  11.013 -0.3233  1.3207 -0.1780
  829MOL0     H 9414   9.289   9.628  11.015 -0.9675  2.9298 -0.8435
  829MOL0     H 9415   9.499   9.672  10.896 -3.3105 -0.2434 -0.0026
  829MOL0     H 9416   9.924   9.973  10.914 -0.2567 -0.4931  0.3629
  829MOL0     H 9417  10.153  10.013  10.885 -1.6893  1.4043  3.3600
  829MOL0     H 9418  10.280   9.791  10.645 -2.2943  1.0084  1.5452
  829MOL0     H 9419  10.414   9.697  10.710 -0.1534 -0.2812  1.5672
  829MOL0     H 9420  10.416   9.999  10.662 -0.0652  1.0344  2.4762
  829MOL0     H 9421  10.551   9.904  10.742  1.1283  3.2657 -0.4666
  829MOL0     H 9422  10.450   9.911  10.466 -1.3066  2.4628  1.7871
  829MOL0     H 9423  10.536   9.764  10.529 -0.8373 -0.5417  1.7858
  829MOL0     H 9424  10.698   9.933  10.412 -1.8937 -0.6425 -0.6711
  829MOL0     H 9425  10.653  10.054  10.536  0.4676 -0.1357  1.0570
  829MOL0     H 9426  10.920   9.780  10.730 -2.0207 -0.0225  3.1301
  829MOL0     H 9427  10.213   9.582  10.888 -2.1001 -1.3185 -0.5908
  829MOL0     H 9428   9.999   9.542  10.946 -0.5266  1.1670  3.5290
  830MOL0     O 9429   2.282   5.962  10.234 -0.0706 -0.2741  0.3400
  830MOL0     C 9430   2.306   5.852  10.271  0.8719  0.6935 -0.3054
  830MOL0     O 9431   2.400   5.769  10.217  0.9176 -0.0210 -0.5110
  830MOL0     C 9432   2.518   5.826  10.167  0.3382  0.6139 -0.5278
  830MOL0     C 9433   2.602   5.894  10.251 -0.2794 -0.3845  0.6298
  830MOL0     C 9434   2.723   5.949  10.199  0.7069 -0.3449 -1.5175
  830MOL0     C 9435   2.762   5.933  10.068 -1.3278  0.3551  0.3681
  830MOL0     O 9436   2.876   6.001  10.023  0.3820  0.4617  0.5893
  830MOL0     C 9437   2.949   5.951   9.912  0.7060  0.2440  0.0666
  830MOL0     C 9438   3.080   6.021   9.889 -0.0148  0.8441  0.5381
  830MOL0     C 9439   3.162   6.006  10.019 -0.4571 -0.5220 -0.1502
  830MOL0     C 9440   3.211   5.860  10.049  0.0797 -0.1553 -0.4334
  830MOL0     C 9441   3.363   5.846  10.070  0.5161 -0.7575  0.3203
  830MOL0     C 9442   3.405   5.706  10.103  0.2345 -0.2287 -0.4238
  830MOL0     C 9443   3.544   5.706  10.153 -0.3381 -0.1983 -0.0865
  830MOL0     C 9444   3.588   5.565  10.189  0.7952 -0.1133  1.9697
  830MOL0     N 9445   3.724   5.569  10.254 -0.8135 -0.5381  0.7120
  830MOL0     C 9446   3.763   5.514  10.372 -0.9311  0.6046  0.5048
  830MOL0     C 9447   3.894   5.540  10.389  0.2661 -0.7868  0.3951
  830MOL0     C 9448   3.979   5.489  10.506  0.6730 -0.6745  0.1335
  830MOL0     C 9449   3.934   5.549  10.641  0.4849 -0.7713  0.4900
  830MOL0     C 9450   4.033   5.514  10.753 -0.1455  0.1345  0.3567
  830MOL0     C 9451   4.002   5.391  10.840  0.8612 -0.3384  0.0634
  830MOL0     O 9452   3.866   5.412  10.892  0.8318  0.7899  1.3518
  830MOL0     C 9453   3.834   5.328  10.991  0.2655  0.1350  1.4673
  830MOL0     C 9454   3.733   5.379  11.071  0.1132  0.6988 -0.5288
  830MOL0     C 9455   3.696   5.313  11.192  0.9282 -1.3302  0.2967
  830MOL0     C 9456   3.752   5.186  11.226 -0.7991 -0.7896 -0.3795
  830MOL0     C 9457   3.714   5.119  11.344 -0.6052  0.3943 -0.6582
  830MOL0     O 9458   3.745   4.991  11.364 -0.5787  1.0254  0.1705
  830MOL0     C 9459   3.699   4.936  11.476  0.2941 -0.7755  0.4023
  830MOL0     C 9460   3.790   4.887  11.562 -0.9059 -0.1077 -0.3924
  830MOL0     C 9461   3.743   4.813  11.678  1.5472  0.4886 -0.3090
  830MOL0     C 9462   3.611   4.785  11.703  1.3322  0.3043  1.0845
  830MOL0     O 9463   3.580   4.705  11.810 -0.0005 -0.7406 -0.0401
  830MOL0     C 9464   3.444   4.665  11.821 -0.2319 -1.2325  0.5710
  830MOL0     C 9465   3.407   4.578  11.939  0.9875  0.2562 -0.2841
  830MOL0     C 9466   3.431   4.646  12.077  0.6621  0.3280 -0.0811
  830MOL0     C 9467   3.342   4.760  12.123 -0.6789  0.2606  0.0468
  830MOL0     C 9468   3.210   4.710  12.178 -0.2887 -0.2931 -0.1339
  830MOL0     C 9469   3.116   4.824  12.205  0.8219 -0.6723  0.2822
  830MOL0     C 9470   3.170   4.920  12.301 -1.2323  0.2588 -0.6806
  830MOL0     C 9471   3.187   4.862  12.440  0.6087 -0.1157  0.4070
  830MOL0    Cl 9472   3.023   4.819  12.504  0.3265  0.1710  0.2138
  830MOL0     C 9473   3.515   4.835  11.613 -0.1712 -0.6588  0.3598
  830MOL0     C 9474   3.560   4.912  11.500  0.0908  0.2029 -0.2240
  830MOL0     O 9475   3.644   5.187  11.417  0.2427 -0.3873  0.9151
  830MOL0     C 9476   3.854   5.131  11.136 -0.5332  0.2471 -0.6701
  830MOL0     C 9477   3.894   5.205  11.029  1.0173  0.1736  0.5561
  830MOL0     N 9478   3.939   5.611  10.272  0.0827  0.2267  0.5829
  830MOL0     N 9479   3.840   5.625  10.194  0.0329  0.1689 -0.7710
  830MOL0     C 9480   2.683   5.844   9.989 -0.2123  0.3942 -0.3951
  830MOL0     C 9481   2.558   5.787  10.031  0.3645  0.6594 -0.6877
  830MOL0     C 9482   2.216   5.769  10.353 -0.2470 -0.5693  0.0963
  830MOL0     C 9483   2.083   5.803  10.373  0.2421 -0.6109  0.2343
  830MOL0     C 9484   2.012   5.731  10.458  0.1933  0.9939  0.0635
  830MOL0     C 9485   2.054   5.615  10.533  0.0185 -0.4804  0.5012
  830MOL0     O 9486   1.973   5.536  10.616  0.1485 -0.0188 -0.3087
  830MOL0     C 9487   1.832   5.556  10.631  0.4989 -0.3244 -0.7420
  830MOL0     C 9488   1.755   5.476  10.722  0.4221  0.8040 -0.9286
  830MOL0     C 9489   1.821   5.332  10.727 -0.4637 -0.4311 -1.5443
  830MOL0     C 9490   1.814   5.247  10.600 -0.0416 -0.5764  0.0705
  830MOL0     C 9491   1.686   5.191  10.586  1.2901  0.3261 -0.3090
  830MOL0     C 9492   1.585   5.122  10.576  0.4373 -0.9551  0.7331
  830MOL0     C 9493   2.197   5.588  10.516 -0.5794 -0.2049 -1.0179
  830MOL0     C 9494   2.273   5.665  10.433  0.2935 -1.4808 -0.1965
  830MOL0     H 9495   2.568   5.923  10.350 -3.8248  2.4626 -1.1950
  830MOL0     H 9496   2.772   6.003  10.279  0.5936 -1.2467 -0.8276
  830MOL0     H 9497   2.880   5.971   9.829 -2.5547  0.5645  2.6539
  830MOL0     H 9498   2.961   5.845   9.936 -0.6808  0.0195 -0.1491
  830MOL0     H 9499   3.078   6.127   9.863 -0.6530  0.9914  1.1439
  830MOL0     H 9500   3.133   5.962   9.814  1.1625 -1.9638  3.3537
  830MOL0     H 9501   3.100   6.027  10.107  2.0207 -2.1634  2.1640
  830MOL0     H 9502   3.247   6.075  10.023  0.0832 -0.9669 -2.5370
  830MOL0     H 9503   3.158   5.820  10.136 -0.0466 -2.0608 -1.3249
  830MOL0     H 9504   3.186   5.795   9.964 -1.7204 -4.2906  2.8698
  830MOL0     H 9505   3.412   5.907  10.146  2.5053 -1.6347 -0.1877
  830MOL0     H 9506   3.413   5.873   9.976  0.9113 -1.6505  0.2525
  830MOL0     H 9507   3.400   5.654  10.007  0.4017  0.8993 -1.0707
  830MOL0     H 9508   3.335   5.671  10.180  0.3167 -1.9905 -1.1113
  830MOL0     H 9509   3.610   5.753  10.079 -2.9439 -0.4283 -2.7505
  830MOL0     H 9510   3.552   5.763  10.246  1.6256 -1.6846  0.7328
  830MOL0     H 9511   3.588   5.523  10.088  0.6330  2.1595  0.9612
  830MOL0     H 9512   3.508   5.525  10.252  0.1537 -0.6534  0.8410
  830MOL0     H 9513   3.703   5.461  10.446 -0.5129  0.7877  0.9792
  830MOL0     H 9514   4.083   5.513  10.483  0.5869 -2.2164 -2.0875
  830MOL0     H 9515   3.972   5.380  10.498 -0.6058 -0.4675 -2.3433
  830MOL0     H 9516   3.829   5.521  10.650 -0.3562  0.7823 -2.7424
  830MOL0     H 9517   3.940   5.657  10.625  2.0537 -1.3330 -5.3292
  830MOL0     H 9518   4.137   5.510  10.720  0.4541  2.6311  1.6653
  830MOL0     H 9519   4.041   5.602  10.818  1.4268  0.7375 -0.5967
  830MOL0     H 9520   4.084   5.388  10.912  0.8575 -1.9918  0.0450
  830MOL0     H 9521   4.007   5.292  10.793 -0.7249 -1.3177  1.8333
  830MOL0     H 9522   3.682   5.472  11.050 -0.1209  1.1499  1.8273
  830MOL0     H 9523   3.615   5.367  11.241 -0.3401 -1.4826 -1.5312
  830MOL0     H 9524   3.897   4.905  11.551 -0.9528 -0.7611 -2.3645
  830MOL0     H 9525   3.804   4.765  11.754 -1.9410 -0.7153  1.9833
  830MOL0     H 9526   3.423   4.607  11.730 -2.5519  0.6029 -0.1749
  830MOL0     H 9527   3.377   4.751  11.825 -0.8710 -1.5423 -1.8963
  830MOL0     H 9528   3.467   4.486  11.932 -0.6401 -0.8063 -0.7893
  830MOL0     H 9529   3.305   4.541  11.927  1.0350  0.1936 -0.4985
  830MOL0     H 9530   3.534   4.681  12.078  1.9032 -2.8978 -2.1512
  830MOL0     H 9531   3.419   4.569  12.153 -1.9127  1.4813  0.8283
  830MOL0     H 9532   3.411   4.806  12.195  0.0199 -0.1777 -0.3325
  830MOL0     H 9533   3.336   4.818  12.030  0.8303  0.0227 -0.2157
  830MOL0     H 9534   3.239   4.666  12.274 -2.5485  1.6926  1.5657
  830MOL0     H 9535   3.178   4.626  12.114  1.3627  0.2879 -1.8037
  830MOL0     H 9536   3.016   4.785  12.226  1.1873 -4.4879 -3.6226
  830MOL0     H 9537   3.107   4.870  12.106  1.6612 -3.2560 -1.0830
  830MOL0     H 9538   3.272   4.952  12.275 -0.4183  1.9564  3.7220
  830MOL0     H 9539   3.101   5.005  12.310 -0.0234  1.1014  1.5495
  830MOL0     H 9540   3.256   4.927  12.494  2.3326 -2.3624  1.0722
  830MOL0     H 9541   3.234   4.763  12.440 -1.7082 -1.3380  2.5667
  830MOL0     H 9542   3.408   4.815  11.619  0.0827 -2.0150  0.5901
  830MOL0     H 9543   3.504   4.950  11.415  2.8776 -0.6521 -2.6070
  830MOL0     H 9544   3.900   5.038  11.169 -1.7322 -0.3769 -0.7142
  830MOL0     H 9545   3.974   5.172  10.963  1.3184 -0.0286  1.0144
  830MOL0     H 9546   2.707   5.833   9.884 -1.3130  3.0048 -0.9888
  830MOL0     H 9547   2.497   5.727   9.963  3.2155 -2.1348 -1.0115
  830MOL0     H 9548   2.034   5.889  10.328 -0.6711 -1.4713 -0.4700
  830MOL0     H 9549   1.906   5.753  10.453  0.3812  1.8211 -0.5604
  830MOL0     H 9550   1.792   5.537  10.531  3.3304 -1.7940 -1.6887
  830MOL0     H 9551   1.815   5.663  10.646  2.8334 -0.1619  1.3201
  830MOL0     H 9552   1.755   5.508  10.827 -0.5332  0.4846 -0.8184
  830MOL0     H 9553   1.652   5.466  10.687  1.8548 -3.7664 -4.9613
  830MOL0     H 9554   1.779   5.277  10.812  2.3571  0.8302  0.8471
  830MOL0     H 9555   1.926   5.342  10.757  0.1433 -1.4679 -3.1820
  830MOL0     H 9556   1.848   5.294  10.507 -0.2245 -5.0277 -2.5751
  830MOL0     H 9557   1.882   5.161  10.611 -0.7987 -1.6400 -2.6743
  830MOL0     H 9558   1.498   5.060  10.581  1.7081 -2.9129 -0.0081
  830MOL0     H 9559   2.235   5.502  10.570 -0.2715  0.1012 -0.7376
  830MOL0     H 9560   2.377   5.640  10.411  0.1719 -1.0672 -1.2838
  831MOL0     O 9561  11.294   8.498   1.160 -0.3815 -0.6830 -0.8091
  831MOL0     C 9562  11.305   8.590   1.090  0.0116 -0.9166  0.3268
  831MOL0     O 9563  11.212   8.683   1.069 -0.0974 -0.1875  0.4618
  831MOL0     C 9564  11.111   8.696   1.147  1.2186  0.4950  0.6645
  831MOL0     C 9565  11.012   8.593   1.153 -1.0038  0.3364  0.0739
  831MOL0     C 9566  10.914   8.596   1.255  0.7175 -0.7684 -0.0327
  831MOL0     C 9567  10.909   8.699   1.345  0.6533  0.7966  0.4629
  831MOL0     O 9568  10.814   8.715   1.444 -0.6127  0.7229 -0.1157
  831MOL0     C 9569  10.720   8.619   1.483 -0.3522 -0.4500 -0.2048
  831MOL0     C 9570  10.599   8.683   1.571 -1.4116  0.4668  0.1996
  831MOL0     C 9571  10.479   8.758   1.503  0.4591  0.7209  0.1679
  831MOL0     C 9572  10.410   8.675   1.389  0.1721  0.0046  0.1028
  831MOL0     C 9573  10.265   8.715   1.378  0.2704 -0.0960 -0.9231
  831MOL0     C 9574  10.176   8.637   1.269  0.0830 -0.4189  0.3061
  831MOL0     C 9575  10.032   8.687   1.265  0.3194 -0.0231  0.4379
  831MOL0     C 9576   9.946   8.604   1.173  0.2106 -0.1523  0.0957
  831MOL0     N 9577   9.812   8.654   1.129 -0.0876 -0.0195  0.0540
  831MOL0     C 9578   9.794   8.768   1.055  0.7534 -0.6584 -0.3048
  831MOL0     C 9579   9.655   8.788   1.040  0.2909 -0.6948  1.2623
  831MOL0     C 9580   9.604   8.906   0.968  0.0387 -0.1241  0.6455
  831MOL0     C 9581   9.456   8.924   0.975 -0.5082 -0.1658 -0.1562
  831MOL0     C 9582   9.408   9.040   0.891 -0.1525  0.7147  0.5397
  831MOL0     C 9583   9.256   9.065   0.897 -0.7176 -0.4300 -0.0161
  831MOL0     O 9584   9.207   9.162   0.805  0.3681  0.3860  0.1417
  831MOL0     C 9585   9.088   9.225   0.839 -0.7130 -0.3684 -0.5614
  831MOL0     C 9586   9.060   9.356   0.795 -0.3426 -0.5979 -0.4445
  831MOL0     C 9587   8.934   9.421   0.820  0.1094  0.3055 -0.5821
  831MOL0     C 9588   8.840   9.355   0.907 -0.4185  0.1554  0.0514
  831MOL0     C 9589   8.715   9.429   0.964  0.4483 -0.4661 -0.0816
  831MOL0     O 9590   8.696   9.560   0.929 -0.2712 -0.6718  1.0892
  831MOL0     C 9591   8.607   9.633   1.001  0.0110 -0.7730 -0.4160
  831MOL0     C 9592   8.467   9.601   1.001 -0.5193 -0.4077  0.4336
  831MOL0     C 9593   8.364   9.662   1.068 -0.4696 -0.9311 -0.0223
  831MOL0     C 9594   8.408   9.760   1.164  0.2923 -0.5502  0.1001
  831MOL0     O 9595   8.334   9.826   1.256  0.2668  0.2988  0.4663
  831MOL0     C 9596   8.203   9.772   1.289  0.2457 -0.3880 -0.1375
  831MOL0     C 9597   8.168   9.829   1.430  0.3449 -0.2500 -0.3831
  831MOL0     C 9598   8.273   9.787   1.537 -0.2708  0.2390  0.7660
  831MOL0     C 9599   8.233   9.846   1.675  0.4724 -0.1575 -0.1810
  831MOL0     C 9600   8.314   9.780   1.793 -1.1663 -1.1610  0.6388
  831MOL0     C 9601   8.411   9.875   1.866  0.3708  0.5906 -0.2246
  831MOL0     C 9602   8.508   9.809   1.966  0.0737  0.6160 -0.3190
  831MOL0     C 9603   8.571   9.920   2.057  0.7338  0.0552  1.0166
  831MOL0    Cl 9604   8.693  10.009   1.950  0.0447 -0.2190 -0.1291
  831MOL0     C 9605   8.545   9.791   1.172 -0.1122 -0.4002 -0.2221
  831MOL0     C 9606   8.643   9.728   1.095 -0.8054 -0.0372 -0.3636
  831MOL0     O 9607   8.635   9.361   1.021  0.2301 -1.0312  0.1130
  831MOL0     C 9608   8.867   9.221   0.944  0.1963  0.0734 -0.0349
  831MOL0     C 9609   8.987   9.161   0.906 -0.3053 -0.1608  0.8066
  831MOL0     N 9610   9.590   8.679   1.101  0.5246  0.8532  0.9433
  831MOL0     N 9611   9.684   8.606   1.159 -0.2082  0.3458 -0.2323
  831MOL0     C 9612  10.998   8.799   1.339  0.0935  0.9780  0.3598
  831MOL0     C 9613  11.097   8.800   1.235  0.4847 -0.5559 -0.2950
  831MOL0     C 9614  11.430   8.608   1.023 -0.2566  0.6992 -0.0805
  831MOL0     C 9615  11.538   8.529   1.060  0.1196  0.4688 -0.4541
  831MOL0     C 9616  11.657   8.548   1.001  0.4447  0.8374 -0.1458
  831MOL0     C 9617  11.688   8.652   0.916 -0.7793  0.3968  0.0623
  831MOL0     O 9618  11.817   8.641   0.858 -0.3834 -1.0358  0.5219
  831MOL0     C 9619  11.868   8.754   0.774  0.3102 -0.0055 -0.4897
  831MOL0     C 9620  12.014   8.769   0.772 -0.6144 -0.2441  0.1805
  831MOL0     C 9621  12.078   8.646   0.698  0.2968 -0.1111 -0.1115
  831MOL0     C 9622  12.233   8.658   0.701 -0.0131  0.0814  0.1622
  831MOL0     C 9623  12.279   8.795   0.666 -0.3871 -0.2013  1.1254
  831MOL0     C 9624  12.308   8.903   0.627 -0.8127  0.2503 -0.3097
  831MOL0     C 9625  11.584   8.746   0.887  0.9260  0.3541 -0.3121
  831MOL0     C 9626  11.457   8.719   0.938  0.2694  0.1674 -0.1103
  831MOL0     H 9627  10.997   8.520   1.074  0.1849 -2.1654  1.9906
  831MOL0     H 9628  10.829   8.528   1.248 -0.1701  0.3881 -0.8178
  831MOL0     H 9629  10.777   8.552   1.547  3.2571  1.5517 -1.0278
  831MOL0     H 9630  10.686   8.562   1.396 -0.1138 -0.4082 -0.3265
  831MOL0     H 9631  10.641   8.755   1.643 -0.7760  2.5353 -2.0782
  831MOL0     H 9632  10.549   8.598   1.618  0.1964 -0.4332  0.3562
  831MOL0     H 9633  10.510   8.853   1.458  0.1549  0.5171 -0.4923
  831MOL0     H 9634  10.407   8.788   1.580  1.2928  1.6766  0.5884
  831MOL0     H 9635  10.454   8.692   1.290 -0.8714 -2.3286 -0.8371
  831MOL0     H 9636  10.417   8.569   1.416  1.5132  0.2776  0.9553
  831MOL0     H 9637  10.256   8.822   1.357 -2.0697 -0.0507 -0.0609
  831MOL0     H 9638  10.217   8.703   1.476  2.3998  0.6195  0.2746
  831MOL0     H 9639  10.182   8.529   1.287 -0.6787 -0.1707  2.2805
  831MOL0     H 9640  10.233   8.643   1.175  0.1626 -0.0487  0.3798
  831MOL0     H 9641   9.987   8.691   1.364 -0.7741  0.4234 -0.0565
  831MOL0     H 9642  10.038   8.790   1.227 -1.7972 -0.0109  0.0271
  831MOL0     H 9643   9.929   8.509   1.225  0.6994  0.3838  1.2849
  831MOL0     H 9644   9.986   8.583   1.073 -3.6228  0.4986 -1.7512
  831MOL0     H 9645   9.867   8.837   1.013 -1.0756  1.6435  0.0661
  831MOL0     H 9646   9.632   8.901   0.863 -1.9666  2.6426 -0.1348
  831MOL0     H 9647   9.643   8.996   1.018  0.5738  0.1722 -0.2786
  831MOL0     H 9648   9.446   8.929   1.084  2.6193 -2.2191  0.3553
  831MOL0     H 9649   9.412   8.830   0.940 -1.4766 -0.4013  1.5817
  831MOL0     H 9650   9.462   9.133   0.915 -0.1662  0.7910  0.2769
  831MOL0     H 9651   9.430   9.020   0.786 -1.4620  2.2738 -0.0813
  831MOL0     H 9652   9.227   9.090   0.999  0.9926 -2.3449  1.0164
  831MOL0     H 9653   9.222   8.962   0.877  0.5955 -0.4947 -2.3874
  831MOL0     H 9654   9.132   9.417   0.742 -1.3490  3.4965  2.4403
  831MOL0     H 9655   8.920   9.517   0.772  1.8417  1.2484  0.6957
  831MOL0     H 9656   8.424   9.522   0.939  0.3569 -0.2249 -0.4298
  831MOL0     H 9657   8.260   9.632   1.063 -1.1998  1.6286 -1.7900
  831MOL0     H 9658   8.209   9.663   1.290 -5.2120 -0.9857  1.8379
  831MOL0     H 9659   8.128   9.809   1.218 -0.0438 -1.8318 -0.6034
  831MOL0     H 9660   8.073   9.783   1.461  0.0939 -0.3163 -1.2312
  831MOL0     H 9661   8.161   9.938   1.433  1.1156 -0.2117  2.1242
  831MOL0     H 9662   8.370   9.826   1.504  0.6886 -3.0444 -0.7342
  831MOL0     H 9663   8.275   9.678   1.533  0.0596  0.2665 -2.3866
  831MOL0     H 9664   8.252   9.954   1.672  0.1416 -0.1160 -2.3041
  831MOL0     H 9665   8.127   9.834   1.701  0.7801  2.4301  2.9754
  831MOL0     H 9666   8.367   9.700   1.741 -0.2321  0.1161 -0.4417
  831MOL0     H 9667   8.247   9.726   1.861  0.8494 -1.4095  2.5341
  831MOL0     H 9668   8.355   9.957   1.912  1.4368  2.0677 -1.4468
  831MOL0     H 9669   8.466   9.935   1.793 -1.6481  0.6482 -1.7998
  831MOL0     H 9670   8.456   9.738   2.031  1.9535  0.3866  1.0324
  831MOL0     H 9671   8.586   9.754   1.913 -0.1784 -0.6551  0.5740
  831MOL0     H 9672   8.615   9.864   2.140 -0.6962 -1.1070  1.0220
  831MOL0     H 9673   8.497   9.992   2.094 -0.8696 -1.2712  0.5063
  831MOL0     H 9674   8.582   9.857   1.250  2.9036  0.4462 -2.2201
  831MOL0     H 9675   8.751   9.741   1.096 -0.7597 -0.2475  1.9078
  831MOL0     H 9676   8.804   9.171   1.016  0.0111 -0.2192 -0.3975
  831MOL0     H 9677   8.994   9.058   0.937 -0.7205 -1.2017 -2.2342
  831MOL0     H 9678  10.994   8.881   1.410  2.2538  0.4453  1.1758
  831MOL0     H 9679  11.170   8.880   1.236  1.3140 -1.3064  0.9627
  831MOL0     H 9680  11.522   8.440   1.120 -1.0528  0.4027 -0.8330
  831MOL0     H 9681  11.725   8.466   1.018 -1.5966 -0.6927  1.0605
  831MOL0     H 9682  11.829   8.849   0.812 -1.4383 -0.7485 -0.3072
  831MOL0     H 9683  11.830   8.740   0.672 -1.0729 -0.5911  0.0822
  831MOL0     H 9684  12.037   8.857   0.711 -1.5773 -1.1009 -1.4941
  831MOL0     H 9685  12.065   8.778   0.868  2.1197 -2.0459 -0.9904
  831MOL0     H 9686  12.049   8.644   0.593 -0.3642  0.2357  0.0592
  831MOL0     H 9687  12.039   8.557   0.749 -3.4605  1.3813 -0.0873
  831MOL0     H 9688  12.272   8.643   0.802  1.4153  1.3791 -0.1506
  831MOL0     H 9689  12.281   8.587   0.632  2.4323  0.3077  1.5353
  831MOL0     H 9690  12.346   8.993   0.584  1.4946 -0.1570  0.7265
  831MOL0     H 9691  11.603   8.825   0.815  1.5965 -0.0272 -0.5670
  831MOL0     H 9692  11.379   8.791   0.914 -0.3256 -0.2860  0.4345
  832MOL0     O 9693   8.952   7.806   0.249 -1.3121 -0.2078 -0.0850
  832MOL0     C 9694   8.916   7.806   0.139  0.0821 -1.5375  0.2065
  832MOL0     O 9695   8.834   7.722   0.079 -0.0960  0.1151  0.7291
  832MOL0     C 9696   8.743   7.634   0.130  0.0158 -0.0568  0.5359
  832MOL0     C 9697   8.694   7.640   0.266 -0.1210  0.8743  0.6134
  832MOL0     C 9698   8.592   7.557   0.306  1.3434  0.1922  0.0717
  832MOL0     C 9699   8.525   7.493   0.208  1.4056 -0.2655  0.0773
  832MOL0     O 9700   8.409   7.416   0.232 -0.8230 -0.0800  0.4435
  832MOL0     C 9701   8.310   7.488   0.300  0.0215  1.7392  0.0371
  832MOL0     C 9702   8.272   7.413   0.431  0.8256 -0.6729  0.2600
  832MOL0     C 9703   8.171   7.494   0.520 -0.9389  0.2875  0.9948
  832MOL0     C 9704   8.090   7.390   0.597  0.2955  0.3435 -0.4660
  832MOL0     C 9705   8.003   7.459   0.707  0.1736  0.0033 -0.1962
  832MOL0     C 9706   7.891   7.534   0.642  0.6792 -0.8681 -0.4748
  832MOL0     C 9707   7.775   7.569   0.728 -0.1689 -0.3659 -0.5760
  832MOL0     C 9708   7.662   7.457   0.725  0.1239  0.0926 -0.3429
  832MOL0     N 9709   7.560   7.484   0.825  0.1043 -0.0919 -0.2535
  832MOL0     C 9710   7.577   7.447   0.957  0.3709  0.0541  0.1954
  832MOL0     C 9711   7.455   7.457   1.009  0.5651  0.3243 -0.5975
  832MOL0     C 9712   7.401   7.430   1.147 -0.5451 -0.4990 -0.6921
  832MOL0     C 9713   7.514   7.451   1.258  0.1130 -0.1702 -0.4313
  832MOL0     C 9714   7.598   7.585   1.229 -0.2678  0.0893  1.1870
  832MOL0     C 9715   7.516   7.711   1.188  0.5514 -0.2518  0.2813
  832MOL0     O 9716   7.414   7.726   1.285  0.3656 -0.3464  0.1647
  832MOL0     C 9717   7.325   7.830   1.275  0.6068 -0.3574 -0.3092
  832MOL0     C 9718   7.363   7.966   1.244 -0.1648  0.0323 -0.2459
  832MOL0     C 9719   7.266   8.064   1.229  0.8091  0.1326 -0.2562
  832MOL0     C 9720   7.131   8.031   1.247 -0.3646  0.3211  0.1293
  832MOL0     C 9721   7.030   8.136   1.232 -0.3009  0.0983 -0.5630
  832MOL0     O 9722   6.895   8.095   1.216  0.0178  0.6251  0.6414
  832MOL0     C 9723   6.815   8.207   1.218  0.1097  0.2771  0.4817
  832MOL0     C 9724   6.804   8.285   1.105  0.4713 -0.3388  0.2327
  832MOL0     C 9725   6.724   8.400   1.101  1.0056  0.3867 -0.6418
  832MOL0     C 9726   6.643   8.437   1.211 -0.1674  0.8893  0.3261
  832MOL0     O 9727   6.570   8.554   1.186  0.0414  0.5284 -0.8488
  832MOL0     C 9728   6.434   8.564   1.246 -0.1875 -0.8672  0.2947
  832MOL0     C 9729   6.372   8.698   1.205  0.6702 -1.3069 -0.1175
  832MOL0     C 9730   6.321   8.691   1.059  0.3811 -0.4520  0.3602
  832MOL0     C 9731   6.301   8.833   0.993 -0.3505 -0.4410  0.1630
  832MOL0     C 9732   6.179   8.900   1.047 -0.8214 -0.2678  0.7278
  832MOL0     C 9733   6.156   9.036   0.972 -0.3141  0.4201 -0.0787
  832MOL0     C 9734   6.013   9.077   0.980 -0.6133 -0.1507  0.7734
  832MOL0     C 9735   5.959   9.092   0.838  0.4719 -0.3387  0.4709
  832MOL0    Cl 9736   6.033   9.242   0.757 -0.2660  0.4935 -0.4170
  832MOL0     C 9737   6.640   8.347   1.318 -0.1643  0.4593 -1.2171
  832MOL0     C 9738   6.728   8.242   1.320 -0.9779 -0.0152 -0.0702
  832MOL0     O 9739   7.068   8.253   1.240  0.5156  0.1343 -0.2699
  832MOL0     C 9740   7.093   7.899   1.265  0.3884 -0.6273  0.3639
  832MOL0     C 9741   7.187   7.796   1.280  0.4867 -0.5758  0.7661
  832MOL0     N 9742   7.367   7.490   0.909 -0.4712  0.3129  0.3754
  832MOL0     N 9743   7.428   7.507   0.799 -0.1045 -0.4577 -0.5291
  832MOL0     C 9744   8.566   7.487   0.069 -0.8817 -0.9614 -0.3997
  832MOL0     C 9745   8.676   7.562   0.028 -0.0130  0.7382 -0.8094
  832MOL0     C 9746   8.961   7.921   0.058 -0.3814 -1.0814 -0.3797
  832MOL0     C 9747   8.882   7.975  -0.050  0.0372 -0.1776  0.1153
  832MOL0     C 9748   8.918   8.095  -0.116  0.8105  0.2296  0.6135
  832MOL0     C 9749   9.030   8.175  -0.070 -0.2283 -0.8221 -0.6575
  832MOL0     O 9750   9.080   8.299  -0.115  0.7510  0.6235 -0.6539
  832MOL0     C 9751   9.025   8.350  -0.236 -0.7156 -0.1913  0.9842
  832MOL0     C 9752   9.120   8.305  -0.354  0.6409  0.0284 -0.3855
  832MOL0     C 9753   9.279   8.334  -0.326  0.7014  0.4255 -0.1709
  832MOL0     C 9754   9.314   8.476  -0.329 -0.1301  0.3721 -0.0919
  832MOL0     C 9755   9.453   8.520  -0.306  0.1205  0.1573  0.1026
  832MOL0     C 9756   9.569   8.558  -0.290  0.4672  0.6271  0.4066
  832MOL0     C 9757   9.095   8.125   0.036 -0.5813 -0.1954  0.8206
  832MOL0     C 9758   9.068   8.010   0.100  0.9547  0.1026  0.7944
  832MOL0     H 9759   8.736   7.709   0.339 -3.1383 -0.8339  4.3860
  832MOL0     H 9760   8.556   7.558   0.408  1.2950 -0.4244  0.0659
  832MOL0     H 9761   8.224   7.498   0.233 -0.0939 -1.3554 -0.4323
  832MOL0     H 9762   8.338   7.592   0.316  0.2410  2.5481 -4.2370
  832MOL0     H 9763   8.369   7.389   0.475  0.4253 -3.3460 -0.1650
  832MOL0     H 9764   8.224   7.319   0.403 -0.9936 -0.3232  1.9993
  832MOL0     H 9765   8.102   7.558   0.464 -2.3326  0.2108  2.5331
  832MOL0     H 9766   8.232   7.564   0.577  2.2835 -0.6242 -1.0707
  832MOL0     H 9767   8.023   7.333   0.533  0.6855  0.0630 -0.6256
  832MOL0     H 9768   8.167   7.327   0.643 -0.3474  0.7981  1.3421
  832MOL0     H 9769   8.064   7.516   0.777 -0.0049 -1.3562  1.1024
  832MOL0     H 9770   7.969   7.374   0.767 -0.6291 -0.3227 -1.0857
  832MOL0     H 9771   7.842   7.486   0.557 -1.7806 -0.8450  0.8191
  832MOL0     H 9772   7.938   7.627   0.609  0.0988  1.1152  3.6702
  832MOL0     H 9773   7.816   7.575   0.829  0.8782 -0.1212 -1.0026
  832MOL0     H 9774   7.741   7.669   0.699  1.0724  0.4359  0.6066
  832MOL0     H 9775   7.694   7.353   0.739 -1.3656 -0.3618 -0.1673
  832MOL0     H 9776   7.615   7.454   0.627  0.9300  0.5692 -0.7543
  832MOL0     H 9777   7.672   7.422   1.002  1.2574  1.9138 -0.5358
  832MOL0     H 9778   7.360   7.329   1.144 -1.6767 -0.0600 -0.3865
  832MOL0     H 9779   7.323   7.505   1.160  0.0275  0.1246 -0.7675
  832MOL0     H 9780   7.576   7.364   1.281  1.0395  0.3890 -0.7496
  832MOL0     H 9781   7.450   7.460   1.346  0.3167 -1.9327 -0.0627
  832MOL0     H 9782   7.657   7.602   1.320  4.0187  2.4019 -1.7178
  832MOL0     H 9783   7.678   7.560   1.159  0.4360 -1.2605  2.4106
  832MOL0     H 9784   7.479   7.697   1.086 -0.6197  0.1003  0.6379
  832MOL0     H 9785   7.578   7.800   1.186  0.0326  0.2566  2.9080
  832MOL0     H 9786   7.468   7.991   1.246 -1.1442  5.1188 -0.0567
  832MOL0     H 9787   7.289   8.167   1.203 -2.6428  0.4500 -2.7578
  832MOL0     H 9788   6.861   8.248   1.021  3.7260  1.2489  1.5685
  832MOL0     H 9789   6.724   8.470   1.018  2.8890  3.5252  1.7680
  832MOL0     H 9790   6.447   8.569   1.354  2.8086 -1.2309  0.0565
  832MOL0     H 9791   6.379   8.477   1.210 -1.3664 -0.2503  0.5708
  832MOL0     H 9792   6.446   8.778   1.212 -0.8725  0.1334  0.7801
  832MOL0     H 9793   6.299   8.716   1.285  1.9066  0.8768  0.6061
  832MOL0     H 9794   6.229   8.633   1.062  0.6324 -0.9561 -1.0872
  832MOL0     H 9795   6.392   8.635   0.998 -2.7867 -2.3133 -1.8643
  832MOL0     H 9796   6.375   8.908   1.024 -2.1115  0.3929  2.6346
  832MOL0     H 9797   6.298   8.805   0.887  2.7473 -1.9149  0.3561
  832MOL0     H 9798   6.206   8.909   1.153  2.1972 -1.7859  0.2021
  832MOL0     H 9799   6.094   8.833   1.030 -1.8990  1.8694 -3.8790
  832MOL0     H 9800   6.184   9.031   0.866 -1.1941 -2.2500 -0.2472
  832MOL0     H 9801   6.216   9.113   1.022  1.0874 -0.0592 -0.9673
  832MOL0     H 9802   5.951   8.990   1.007 -0.5810 -0.5188 -0.2982
  832MOL0     H 9803   5.998   9.161   1.049 -0.6674  0.4533  0.0340
  832MOL0     H 9804   5.851   9.083   0.852  0.5779  0.6634  2.0519
  832MOL0     H 9805   5.978   9.007   0.771 -1.7492  0.9150 -1.9166
  832MOL0     H 9806   6.578   8.364   1.405 -0.6225 -0.2920 -1.3824
  832MOL0     H 9807   6.721   8.174   1.405  2.9458 -1.1924 -0.4723
  832MOL0     H 9808   6.985   7.883   1.263 -0.1745  2.5079 -1.4432
  832MOL0     H 9809   7.147   7.696   1.270 -3.0308  0.7820 -0.3199
  832MOL0     H 9810   8.520   7.421  -0.004  0.7984 -0.3755 -2.0732
  832MOL0     H 9811   8.718   7.568  -0.072 -0.1152 -2.3301 -1.1099
  832MOL0     H 9812   8.794   7.925  -0.091 -3.3740  3.2704  2.4763
  832MOL0     H 9813   8.868   8.117  -0.210 -2.0628  2.1019  2.4311
  832MOL0     H 9814   9.016   8.459  -0.236 -0.1897 -0.0283 -2.5032
  832MOL0     H 9815   8.926   8.307  -0.255 -1.0646  1.1177 -0.3831
  832MOL0     H 9816   9.107   8.198  -0.374  1.6482  0.1178 -1.6496
  832MOL0     H 9817   9.082   8.361  -0.440  1.4356  3.1814  1.1510
  832MOL0     H 9818   9.320   8.283  -0.414 -1.2825  0.7583 -1.3303
  832MOL0     H 9819   9.303   8.291  -0.228 -1.8860  0.3013  0.4703
  832MOL0     H 9820   9.277   8.524  -0.419  1.9994 -0.3902 -1.4664
  832MOL0     H 9821   9.262   8.524  -0.246 -0.0893  0.5324 -0.1599
  832MOL0     H 9822   9.662   8.599  -0.258 -0.4140  1.4359  2.0508
  832MOL0     H 9823   9.168   8.192   0.081 -2.1353  2.7573 -0.7762
  832MOL0     H 9824   9.123   7.994   0.192  0.0218  1.7767  1.6719
  833MOL0     O 9825   7.202   5.003  10.158  0.0400 -1.1301 -0.1725
  833MOL0     C 9826   7.167   5.123  10.148 -0.4784  0.0203  0.3998
  833MOL0     O 9827   7.041   5.168  10.141  0.2696  0.8443  0.1889
  833MOL0     C 9828   6.928   5.088  10.129  0.1569 -0.3995  1.0715
  833MOL0     C 9829   6.916   4.980  10.037 -0.4448  0.6750  0.7606
  833MOL0     C 9830   6.799   4.910  10.021  0.6554  0.4398  0.5459
  833MOL0     C 9831   6.686   4.928  10.105 -0.7378 -1.0856 -0.1799
  833MOL0     O 9832   6.574   4.860  10.075 -0.5909  0.1440  0.1121
  833MOL0     C 9833   6.472   4.866  10.167  0.3628  0.2551 -0.7016
  833MOL0     C 9834   6.393   4.740  10.153  0.1042 -0.6642  0.1747
  833MOL0     C 9835   6.271   4.735  10.239 -0.4014  0.5722 -0.3770
  833MOL0     C 9836   6.179   4.617  10.198 -0.5384  0.0397 -0.1265
  833MOL0     C 9837   6.041   4.652  10.258 -0.5484 -0.6608 -0.2477
  833MOL0     C 9838   5.951   4.536  10.259  0.3062  0.4908 -0.0353
  833MOL0     C 9839   5.800   4.569  10.272 -0.2411  0.5298 -0.3925
  833MOL0     C 9840   5.757   4.602  10.410 -0.8986 -0.0340  0.4213
  833MOL0     N 9841   5.615   4.623  10.426  0.7131  0.3048 -0.3011
  833MOL0     C 9842   5.516   4.532  10.438 -0.3029 -0.3306  0.5559
  833MOL0     C 9843   5.393   4.603  10.444 -0.9862  0.9730 -0.6719
  833MOL0     C 9844   5.254   4.537  10.453  0.8214  0.8903 -0.5583
  833MOL0     C 9845   5.158   4.616  10.539 -0.8276 -0.0461 -0.1530
  833MOL0     C 9846   5.030   4.531  10.525 -0.5511 -0.2723  0.0533
  833MOL0     C 9847   4.917   4.557  10.630  0.4607  0.4614 -0.1548
  833MOL0     O 9848   4.810   4.478  10.589 -0.0016 -0.0958 -0.5395
  833MOL0     C 9849   4.693   4.497  10.668 -0.1019  0.2851  0.5231
  833MOL0     C 9850   4.604   4.596  10.651 -0.5502 -1.4411  0.5395
  833MOL0     C 9851   4.481   4.595  10.715  0.6035  0.2093  0.2219
  833MOL0     C 9852   4.450   4.488  10.805  0.2188 -0.2664 -0.1400
  833MOL0     C 9853   4.324   4.489  10.880  0.5806  0.2919  0.4059
  833MOL0     O 9854   4.261   4.609  10.885  0.6103  0.0899  0.6026
  833MOL0     C 9855   4.128   4.600  10.929 -0.0439 -0.2470  0.5244
  833MOL0     C 9856   4.096   4.677  11.045 -0.4416 -0.3165  0.1000
  833MOL0     C 9857   3.984   4.648  11.121 -0.3653  0.2413 -0.2637
  833MOL0     C 9858   3.888   4.573  11.074  0.1145 -0.0260  0.2633
  833MOL0     O 9859   3.773   4.534  11.139  0.2058  0.5752  0.7369
  833MOL0     C 9860   3.767   4.547  11.280 -0.1495  0.0790  0.5399
  833MOL0     C 9861   3.631   4.501  11.318 -0.4009  0.7690  0.4625
  833MOL0     C 9862   3.614   4.480  11.469  0.0214 -0.5120 -0.5924
  833MOL0     C 9863   3.703   4.376  11.530 -0.5947  0.8021 -0.3797
  833MOL0     C 9864   3.694   4.371  11.682 -0.1420 -1.0247 -0.1122
  833MOL0     C 9865   3.734   4.234  11.734 -0.3675 -0.4845  0.4204
  833MOL0     C 9866   3.726   4.230  11.882  0.1503 -0.3289  0.7460
  833MOL0     C 9867   3.816   4.340  11.940  0.3582 -0.9294  0.1420
  833MOL0    Cl 9868   3.833   4.308  12.127 -0.2688  0.2227 -0.3281
  833MOL0     C 9869   3.909   4.495  10.955 -0.0528  0.1597 -0.3933
  833MOL0     C 9870   4.024   4.512  10.875 -0.1975 -0.3645 -0.2797
  833MOL0     O 9871   4.281   4.379  10.922 -0.3481  0.2911  1.2018
  833MOL0     C 9872   4.542   4.388  10.826 -0.1366  0.0359  0.7266
  833MOL0     C 9873   4.666   4.397  10.761  0.6485 -0.1892 -0.8777
  833MOL0     N 9874   5.428   4.737  10.424 -0.2918  0.5504 -0.0133
  833MOL0     N 9875   5.556   4.748  10.417  0.4191  0.9802  0.3645
  833MOL0     C 9876   6.710   5.029  10.205  0.7143 -0.3922  0.0246
  833MOL0     C 9877   6.819   5.112  10.209 -0.7651  0.6471 -0.6969
  833MOL0     C 9878   7.286   5.217  10.143  0.1203  0.7119 -0.4287
  833MOL0     C 9879   7.408   5.184  10.208  0.7696  0.4797  0.4290
  833MOL0     C 9880   7.505   5.272  10.235  0.1620 -0.8072  0.0144
  833MOL0     C 9881   7.498   5.400  10.179 -0.4192  0.1821 -0.9313
  833MOL0     O 9882   7.604   5.481  10.197  0.0010  0.9061 -0.4189
  833MOL0     C 9883   7.584   5.626  10.169 -0.1058 -0.5919 -0.5942
  833MOL0     C 9884   7.715   5.701  10.141 -0.2665  0.3881 -0.4926
  833MOL0     C 9885   7.764   5.686   9.992  0.5889 -0.5196 -0.4696
  833MOL0     C 9886   7.887   5.764   9.957 -0.4362  0.1381  0.0368
  833MOL0     C 9887   8.008   5.705  10.014 -0.2894 -0.3273  0.0316
  833MOL0     C 9888   8.101   5.656  10.076 -0.7102 -1.0283  0.3833
  833MOL0     C 9889   7.377   5.442  10.114  0.6135  0.6446  0.2854
  833MOL0     C 9890   7.268   5.354  10.099  0.1509  0.1085  0.3875
  833MOL0     H 9891   7.007   4.979   9.978 -0.5664 -0.4077  0.5672
  833MOL0     H 9892   6.804   4.829   9.948 -1.8697  0.9089 -0.2582
  833MOL0     H 9893   6.407   4.950  10.141 -0.8224 -0.6749 -0.8296
  833MOL0     H 9894   6.506   4.870  10.271 -3.2205  2.3836  0.5616
  833MOL0     H 9895   6.461   4.657  10.174  0.4753 -1.1026 -2.3871
  833MOL0     H 9896   6.365   4.729  10.048  0.8437  0.5916 -0.1740
  833MOL0     H 9897   6.222   4.833  10.251  0.8088  0.9834  1.7906
  833MOL0     H 9898   6.301   4.709  10.341  0.8290 -2.2459 -1.3599
  833MOL0     H 9899   6.164   4.606  10.090  1.9931 -2.1062 -0.3351
  833MOL0     H 9900   6.207   4.522  10.243  0.2050  1.3089  2.2334
  833MOL0     H 9901   5.986   4.725  10.198 -0.8438  1.4909  2.4284
  833MOL0     H 9902   6.053   4.694  10.358  0.9974  0.0054 -0.6797
  833MOL0     H 9903   5.982   4.472  10.342 -1.5595  0.1078  0.4095
  833MOL0     H 9904   5.972   4.468  10.176  3.4676 -0.4113  1.3579
  833MOL0     H 9905   5.778   4.641  10.193 -3.1293 -1.7462 -1.8785
  833MOL0     H 9906   5.734   4.482  10.265 -2.5384  1.9914  1.4822
  833MOL0     H 9907   5.800   4.698  10.438  0.3914 -1.6971  5.0123
  833MOL0     H 9908   5.785   4.522  10.479 -1.1544 -0.8826 -0.4304
  833MOL0     H 9909   5.544   4.427  10.438  1.0217 -0.0567 -2.2725
  833MOL0     H 9910   5.274   4.440  10.498  0.7553 -0.3878 -3.1548
  833MOL0     H 9911   5.206   4.516  10.358 -1.7405 -0.7905  1.0024
  833MOL0     H 9912   5.144   4.722  10.518 -0.6083  0.0626  0.2442
  833MOL0     H 9913   5.203   4.615  10.639 -0.0543 -0.0219 -0.4948
  833MOL0     H 9914   4.992   4.551  10.425 -1.9316  0.8953  0.7619
  833MOL0     H 9915   5.048   4.423  10.527 -1.7139 -0.4974 -0.5874
  833MOL0     H 9916   4.884   4.661  10.631 -2.0609 -0.2640  1.3685
  833MOL0     H 9917   4.945   4.520  10.729 -1.3975 -0.0302  0.2243
  833MOL0     H 9918   4.624   4.683  10.589 -0.9172 -0.3854  1.8361
  833MOL0     H 9919   4.421   4.682  10.689  0.9361  0.1943 -0.6035
  833MOL0     H 9920   4.170   4.747  11.084 -1.9328  0.1419  2.2912
  833MOL0     H 9921   3.988   4.696  11.219  2.7640 -0.7805  0.2157
  833MOL0     H 9922   3.787   4.648  11.318  0.9931 -0.3919  1.2336
  833MOL0     H 9923   3.848   4.484  11.316  1.1868  1.8879  0.8559
  833MOL0     H 9924   3.612   4.403  11.272  0.3378  1.6139 -1.7628
  833MOL0     H 9925   3.559   4.575  11.279  2.8611  2.9534 -1.9236
  833MOL0     H 9926   3.509   4.466  11.496 -0.2783  1.7074 -0.4215
  833MOL0     H 9927   3.652   4.573  11.512  5.7490 -2.9233  0.5001
  833MOL0     H 9928   3.685   4.281  11.479  3.7559 -0.2527 -0.2821
  833MOL0     H 9929   3.807   4.404  11.511 -0.5255  1.0649  0.3529
  833MOL0     H 9930   3.588   4.385  11.706 -0.1905 -1.2225 -0.2116
  833MOL0     H 9931   3.756   4.447  11.731 -0.3921 -2.6242  2.9305
  833MOL0     H 9932   3.839   4.218  11.708 -0.0247  0.4193  1.1942
  833MOL0     H 9933   3.667   4.169  11.677 -1.2902  3.2133 -3.1311
  833MOL0     H 9934   3.623   4.221  11.916 -0.3960 -5.2013 -1.3575
  833MOL0     H 9935   3.765   4.132  11.913  0.3530 -0.5858 -0.2809
  833MOL0     H 9936   3.773   4.440  11.941  4.0307  0.8327 -0.3157
  833MOL0     H 9937   3.911   4.344  11.885 -0.9070  0.6548 -2.0973
  833MOL0     H 9938   3.824   4.436  10.920 -1.0593  1.1868  0.2573
  833MOL0     H 9939   4.023   4.472  10.774 -0.2712 -0.2287 -0.3329
  833MOL0     H 9940   4.528   4.316  10.905  1.0496 -1.0767 -0.0354
  833MOL0     H 9941   4.739   4.316  10.771 -0.9997 -1.5315  1.0818
  833MOL0     H 9942   6.633   5.043  10.281  2.4296 -2.1186  2.2177
  833MOL0     H 9943   6.829   5.192  10.282 -1.0912 -0.2728  0.3772
  833MOL0     H 9944   7.429   5.086  10.251  4.0426  2.5921  4.4181
  833MOL0     H 9945   7.599   5.246  10.282 -0.1318  0.5540  1.4509
  833MOL0     H 9946   7.541   5.674  10.258  1.2268  1.3527 -0.9377
  833MOL0     H 9947   7.531   5.643  10.075 -0.8785  2.2458  0.2625
  833MOL0     H 9948   7.692   5.807  10.156 -3.3902 -0.1186 -0.9874
  833MOL0     H 9949   7.798   5.685  10.211 -1.4340  0.1589  0.8913
  833MOL0     H 9950   7.679   5.715   9.930 -0.2818  1.9402  1.6954
  833MOL0     H 9951   7.779   5.580   9.970 -0.6141 -0.5686 -1.1668
  833MOL0     H 9952   7.907   5.770   9.849  2.4389 -1.2731  0.3944
  833MOL0     H 9953   7.882   5.865   9.999  0.9862  1.7209 -3.2242
  833MOL0     H 9954   8.185   5.619  10.131 -1.3553 -0.4060  1.8235
  833MOL0     H 9955   7.357   5.541  10.074 -4.9338  0.7223  2.3556
  833MOL0     H 9956   7.177   5.389  10.052 -1.7312 -3.5925  0.8620
  834MOL0     O 9957   2.105   1.307   7.562 -0.4219  0.1514  0.0673
  834MOL0     C 9958   2.070   1.407   7.616  0.2848 -0.2038  0.1647
  834MOL0     O 9959   2.150   1.500   7.674  0.3372  0.2313 -0.2912
  834MOL0     C 9960   2.288   1.487   7.669  0.2478 -0.2777 -0.0006
  834MOL0     C 9961   2.366   1.595   7.610 -0.2187 -0.8756  0.1125
  834MOL0     C 9962   2.501   1.566   7.587 -0.8744 -0.7135  0.8674
  834MOL0     C 9963   2.574   1.458   7.635  0.0940 -0.3384 -0.6013
  834MOL0     O 9964   2.709   1.438   7.636 -0.3513 -0.4037  0.0127
  834MOL0     C 9965   2.789   1.488   7.526 -0.5278  1.0628  0.1489
  834MOL0     C 9966   2.909   1.394   7.516  1.1696  0.2977  0.0422
  834MOL0     C 9967   2.995   1.435   7.403  0.7987 -0.1632 -0.0647
  834MOL0     C 9968   3.110   1.339   7.374 -0.4720  0.4943 -0.6051
  834MOL0     C 9969   3.219   1.335   7.486 -0.5187 -0.0786  0.0521
  834MOL0     C 9970   3.346   1.251   7.440 -0.9765 -0.8088 -0.7598
  834MOL0     C 9971   3.468   1.263   7.543  0.1602  0.2438  0.1801
  834MOL0     C 9972   3.591   1.239   7.457  0.2035 -0.5292 -0.7285
  834MOL0     N 9973   3.591   1.110   7.390  0.0079  0.1188 -0.0609
  834MOL0     C 9974   3.616   0.987   7.458  0.1230 -0.2587 -0.0961
  834MOL0     C 9975   3.659   0.900   7.356 -0.9753  0.0513 -0.2908
  834MOL0     C 9976   3.711   0.762   7.369  0.7839 -0.0229  0.1238
  834MOL0     C 9977   3.594   0.666   7.395  0.6954 -0.5604  0.0482
  834MOL0     C 9978   3.635   0.533   7.465  0.2161  0.3945  0.4004
  834MOL0     C 9979   3.540   0.453   7.572  0.6581 -1.2712  0.1302
  834MOL0     O 9980   3.510   0.545   7.682  0.1461 -0.3788  0.5065
  834MOL0     C 9981   3.614   0.585   7.766 -0.5066  0.6234 -0.0123
  834MOL0     C 9982   3.598   0.707   7.835  0.6802 -0.4185  0.0300
  834MOL0     C 9983   3.685   0.754   7.931  0.0433 -0.2544 -0.9409
  834MOL0     C 9984   3.797   0.678   7.972 -0.2133 -0.4217 -0.3787
  834MOL0     C 9985   3.891   0.718   8.081 -0.7950  0.1543 -0.0145
  834MOL0     O 9986   3.984   0.622   8.127 -0.3537 -0.3846  0.2894
  834MOL0     C 9987   4.053   0.626   8.243 -0.8136 -0.5541  0.0839
  834MOL0     C 9988   4.007   0.703   8.352  0.1204  0.1781 -0.2596
  834MOL0     C 9989   4.069   0.698   8.483 -0.2269  0.8000 -0.4817
  834MOL0     C 9990   4.180   0.614   8.494 -0.5042  0.0767  0.0208
  834MOL0     O 9991   4.251   0.618   8.613 -0.2819 -0.6604  0.1738
  834MOL0     C 9992   4.342   0.730   8.624  0.5112  0.4562 -0.2142
  834MOL0     C 9993   4.470   0.683   8.684 -0.3059 -0.2097  0.1648
  834MOL0     C 9994   4.439   0.631   8.829  0.5764  0.3878 -0.2579
  834MOL0     C 9995   4.567   0.570   8.883  1.2566  0.0053  0.0106
  834MOL0     C 9996   4.564   0.544   9.033  0.6273  0.3325  0.9258
  834MOL0     C 9997   4.696   0.493   9.085 -0.0312 -0.4491 -0.5493
  834MOL0     C 9998   4.805   0.596   9.072 -0.8151 -0.3700 -0.0701
  834MOL0     C 9999   4.943   0.557   9.118  0.2230 -0.3149 -0.6770
  834MOL0    Cl10000   4.986   0.389   9.078  0.3851 -0.0506  0.0429
  834MOL0     C10001   4.227   0.529   8.390  0.1469  0.1286  0.5528
  834MOL0     C10002   4.162   0.536   8.265 -0.1161 -0.1312  0.2883
  834MOL0     O10003   3.894   0.835   8.118 -0.9073  0.3044  0.4959
  834MOL0     C10004   3.818   0.557   7.901  0.3847  0.5994 -0.6319
  834MOL0     C10005   3.733   0.517   7.797  0.2985  0.9383 -0.2210
  834MOL0     N10006   3.659   0.971   7.236  0.4459  0.6964 -0.2219
  834MOL0     N10007   3.621   1.090   7.257 -0.2918 -0.0403 -0.7787
  834MOL0     C10008   2.488   1.369   7.707 -0.9085 -0.4043 -0.3330
  834MOL0     C10009   2.350   1.375   7.719  0.5160 -0.0077  0.4529
  834MOL0     C10010   1.923   1.431   7.608  0.3063  0.2646 -0.6088
  834MOL0     C10011   1.830   1.320   7.599 -0.5358 -0.1226 -0.5292
  834MOL0     C10012   1.694   1.341   7.574  0.2895 -0.1014 -0.1596
  834MOL0     C10013   1.641   1.470   7.545 -1.6019  0.6881  0.1723
  834MOL0     O10014   1.509   1.490   7.537 -0.2199  0.4009  0.2638
  834MOL0     C10015   1.439   1.522   7.663  0.2247 -0.2515  0.6670
  834MOL0     C10016   1.304   1.588   7.636  0.2699 -1.3754  0.0722
  834MOL0     C10017   1.308   1.720   7.550 -0.6700 -0.2521 -0.5165
  834MOL0     C10018   1.346   1.830   7.648  0.3607 -0.0717 -0.0977
  834MOL0     C10019   1.233   1.868   7.733  0.2726 -0.6359 -1.3244
  834MOL0     C10020   1.147   1.887   7.809  1.5086  0.5698  0.3410
  834MOL0     C10021   1.730   1.577   7.573 -0.1521  0.2981 -0.4800
  834MOL0     C10022   1.870   1.556   7.601  0.3528  0.5535 -0.7377
  834MOL0     H10023   2.314   1.684   7.576  1.8289  1.8600  3.5071
  834MOL0     H10024   2.558   1.645   7.538  2.1386 -2.7908  0.7929
  834MOL0     H10025   2.815   1.590   7.557 -3.8115  1.6950  1.2318
  834MOL0     H10026   2.737   1.488   7.430 -0.7161 -1.5424  0.1637
  834MOL0     H10027   2.872   1.291   7.514 -6.4837  2.1719  4.6728
  834MOL0     H10028   2.962   1.390   7.612  1.3025 -2.2515 -0.0635
  834MOL0     H10029   3.020   1.541   7.416 -1.3650  0.6743 -1.9958
  834MOL0     H10030   2.938   1.430   7.310  2.9893 -0.9587 -1.4569
  834MOL0     H10031   3.072   1.238   7.356  0.3006 -0.2993  1.8050
  834MOL0     H10032   3.147   1.376   7.278 -0.3998 -2.1975 -1.6935
  834MOL0     H10033   3.178   1.295   7.579 -0.3521  2.0145  1.1028
  834MOL0     H10034   3.256   1.431   7.523  2.3449 -1.1154  0.1233
  834MOL0     H10035   3.371   1.295   7.343 -0.9243  1.2718  0.1457
  834MOL0     H10036   3.320   1.145   7.427 -0.1780 -1.1030 -0.0286
  834MOL0     H10037   3.466   1.359   7.595 -0.3204  1.1682 -1.4530
  834MOL0     H10038   3.473   1.182   7.616  3.7056  0.0309 -0.0985
  834MOL0     H10039   3.682   1.250   7.517  0.0121 -0.4060 -0.4569
  834MOL0     H10040   3.612   1.324   7.391 -1.8982  0.8530  0.2826
  834MOL0     H10041   3.623   0.969   7.565 -0.2618 -0.1756 -0.0550
  834MOL0     H10042   3.794   0.752   7.438  1.5329  0.5186 -0.6683
  834MOL0     H10043   3.766   0.734   7.278 -0.0432 -0.5842 -0.2203
  834MOL0     H10044   3.552   0.650   7.295 -1.1821 -2.2559  1.0327
  834MOL0     H10045   3.512   0.719   7.443  0.1307  0.0901 -1.5712
  834MOL0     H10046   3.655   0.461   7.386  4.0145  2.4572 -0.7851
  834MOL0     H10047   3.733   0.549   7.511 -0.6421 -0.0887  2.5296
  834MOL0     H10048   3.588   0.365   7.616 -0.2270 -0.6500  2.4552
  834MOL0     H10049   3.453   0.410   7.520 -0.1786  0.5105  0.0004
  834MOL0     H10050   3.518   0.769   7.796  2.1368  1.1492 -0.5675
  834MOL0     H10051   3.662   0.853   7.967 -1.6083 -0.1937 -2.0654
  834MOL0     H10052   3.926   0.774   8.345 -1.7713 -1.7105  1.2669
  834MOL0     H10053   4.036   0.762   8.564 -2.4307 -1.2949  0.4060
  834MOL0     H10054   4.306   0.819   8.677 -0.0253  0.6657 -0.9028
  834MOL0     H10055   4.368   0.768   8.525 -1.1268 -2.2985 -1.8190
  834MOL0     H10056   4.537   0.768   8.694  0.5392 -0.4644 -2.5002
  834MOL0     H10057   4.516   0.606   8.621  0.1798 -0.2491  0.5637
  834MOL0     H10058   4.361   0.554   8.829 -0.4387  1.3470 -2.1255
  834MOL0     H10059   4.413   0.712   8.897  0.7570  0.4367 -0.2444
  834MOL0     H10060   4.591   0.480   8.826  0.7857 -0.2703  0.2313
  834MOL0     H10061   4.644   0.647   8.876  1.0127  0.1738 -1.0505
  834MOL0     H10062   4.488   0.466   9.042  1.4795 -0.9288 -1.6968
  834MOL0     H10063   4.536   0.638   9.082  0.2699  0.9502 -0.4307
  834MOL0     H10064   4.729   0.400   9.038  3.0956 -1.3632  2.9054
  834MOL0     H10065   4.706   0.473   9.192  2.8163  2.9726  0.0162
  834MOL0     H10066   4.825   0.626   8.968  1.4972 -0.4282  0.2910
  834MOL0     H10067   4.776   0.687   9.126  1.5971  1.7318 -2.0168
  834MOL0     H10068   4.942   0.553   9.228  1.6034 -1.2619 -0.6588
  834MOL0     H10069   5.029   0.617   9.087  1.0278 -2.5085 -3.0545
  834MOL0     H10070   4.320   0.472   8.394 -1.5952 -2.8402  2.3898
  834MOL0     H10071   4.200   0.482   8.179  1.1941  2.1541 -0.6784
  834MOL0     H10072   3.901   0.496   7.936 -0.2297 -0.6920 -1.3647
  834MOL0     H10073   3.742   0.420   7.749  1.0103 -0.5845  2.7369
  834MOL0     H10074   2.527   1.277   7.750  2.2878  1.4020  0.9965
  834MOL0     H10075   2.294   1.286   7.745 -0.1633  0.1641 -0.3769
  834MOL0     H10076   1.871   1.220   7.594  2.7311  1.0449  0.4730
  834MOL0     H10077   1.631   1.255   7.555  0.1063 -0.3187  1.3117
  834MOL0     H10078   1.509   1.583   7.720  0.0621  1.4705 -0.9072
  834MOL0     H10079   1.438   1.427   7.717  0.8584 -0.9347 -0.4847
  834MOL0     H10080   1.227   1.524   7.592  0.2027 -1.3407  0.1387
  834MOL0     H10081   1.267   1.612   7.736 -0.8323 -3.5955  0.2457
  834MOL0     H10082   1.214   1.741   7.499 -1.3795  1.1491  1.2574
  834MOL0     H10083   1.386   1.705   7.475  0.5178 -0.2399  0.6746
  834MOL0     H10084   1.429   1.795   7.710  0.6942 -2.0797 -1.5736
  834MOL0     H10085   1.387   1.920   7.603  1.9338  0.2580  1.8367
  834MOL0     H10086   1.065   1.907   7.875  0.1413  0.8060 -1.3540
  834MOL0     H10087   1.679   1.673   7.572 -1.8695 -0.4009  3.0912
  834MOL0     H10088   1.944   1.634   7.614  2.1546 -1.3506  1.2535
  835MOL0     O10089   0.575   5.318   4.720 -0.4886 -0.6575  0.3525
  835MOL0     C10090   0.564   5.210   4.661  1.3287 -0.4226 -0.3450
  835MOL0     O10091   0.663   5.123   4.641 -0.0430 -0.1096 -0.0141
  835MOL0     C10092   0.788   5.136   4.700 -0.3203 -0.3793  0.3252
  835MOL0     C10093   0.904   5.157   4.629  0.8129  0.3838  0.1858
  835MOL0     C10094   1.024   5.183   4.685  0.2009  0.1727  0.3234
  835MOL0     C10095   1.032   5.192   4.831  0.1791  0.5706 -0.0132
  835MOL0     O10096   1.152   5.231   4.899  0.0896  0.0112  0.1348
  835MOL0     C10097   1.278   5.224   4.826  0.2260  0.4661  0.3421
  835MOL0     C10098   1.395   5.258   4.918 -0.0819  0.1047 -0.4363
  835MOL0     C10099   1.410   5.408   4.944  0.8404  0.3111 -0.2145
  835MOL0     C10100   1.510   5.428   5.052 -0.1635 -0.4279  0.4262
  835MOL0     C10101   1.607   5.548   5.023 -0.1679  0.7337 -0.1120
  835MOL0     C10102   1.547   5.691   5.060 -0.4113 -0.5141  0.3325
  835MOL0     C10103   1.655   5.784   5.115 -0.3082 -0.1151 -0.4875
  835MOL0     C10104   1.749   5.838   5.004  0.0128 -0.2600 -0.1190
  835MOL0     N10105   1.854   5.745   4.971 -0.2203 -0.2201  0.9305
  835MOL0     C10106   1.983   5.756   5.010 -0.1649  0.3614 -0.9883
  835MOL0     C10107   2.055   5.670   4.934  0.5813 -0.0657  0.8723
  835MOL0     C10108   2.200   5.655   4.955  0.1418 -0.0041  0.1790
  835MOL0     C10109   2.286   5.591   4.840  0.0096  0.3482 -0.0728
  835MOL0     C10110   2.438   5.637   4.824  0.2462  0.2335 -0.0743
  835MOL0     C10111   2.535   5.608   4.948  0.6544  0.4857  0.1534
  835MOL0     O10112   2.665   5.650   4.909 -0.0047  0.2622 -0.4055
  835MOL0     C10113   2.752   5.560   4.854 -0.2881  0.9988 -0.0166
  835MOL0     C10114   2.744   5.421   4.874  0.9881  0.9171  0.0955
  835MOL0     C10115   2.828   5.336   4.812 -0.0818 -0.2659  0.2538
  835MOL0     C10116   2.907   5.386   4.700  0.2037 -0.1224 -0.3625
  835MOL0     C10117   2.989   5.298   4.620  0.0980 -0.4864  0.3585
  835MOL0     O10118   2.942   5.160   4.620 -0.6649  0.1110  0.1663
  835MOL0     C10119   2.989   5.068   4.534  0.2085  0.3038  0.3668
  835MOL0     C10120   2.914   4.966   4.484 -0.4384 -0.8854  0.7294
  835MOL0     C10121   2.969   4.870   4.394  0.6561  0.8124 -0.0692
  835MOL0     C10122   3.094   4.870   4.340  0.3230 -0.0747  0.1479
  835MOL0     O10123   3.110   4.774   4.244 -0.2834  0.2222 -0.4650
  835MOL0     C10124   3.247   4.736   4.210  1.1371 -1.0459 -0.1126
  835MOL0     C10125   3.322   4.664   4.326 -0.1702  0.1296 -0.3362
  835MOL0     C10126   3.457   4.609   4.292  0.1742  0.2283  1.2865
  835MOL0     C10127   3.507   4.516   4.404  0.2656 -0.2144  0.6606
  835MOL0     C10128   3.663   4.486   4.408 -0.4750  0.5497 -1.1607
  835MOL0     C10129   3.705   4.353   4.477  0.6166 -0.6100  0.0704
  835MOL0     C10130   3.844   4.310   4.438 -0.1227 -0.2270 -0.2321
  835MOL0     C10131   3.839   4.252   4.292  0.0165  0.4366  0.5201
  835MOL0    Cl10132   3.791   4.071   4.300 -0.1824 -0.0909 -0.4612
  835MOL0     C10133   3.176   4.969   4.388  0.0047 -0.5061 -0.6138
  835MOL0     C10134   3.123   5.069   4.478 -0.1312 -0.4552 -0.6055
  835MOL0     O10135   3.095   5.341   4.575 -0.0283 -0.0535  0.6049
  835MOL0     C10136   2.927   5.529   4.701 -0.0466  0.9028  0.0741
  835MOL0     C10137   2.846   5.614   4.776 -0.1688 -0.3614  0.6451
  835MOL0     N10138   1.964   5.610   4.839  0.2524  0.4556  0.3364
  835MOL0     N10139   1.850   5.651   4.866 -0.7799  0.2420  0.2855
  835MOL0     C10140   0.919   5.178   4.904  0.5596  1.0422  0.6614
  835MOL0     C10141   0.801   5.149   4.839 -1.0303 -1.2924 -0.6733
  835MOL0     C10142   0.431   5.183   4.600 -0.4822  0.6083 -0.5561
  835MOL0     C10143   0.406   5.051   4.550  0.7131 -0.4596 -0.9877
  835MOL0     C10144   0.297   5.025   4.473  1.0223 -0.0709 -0.7814
  835MOL0     C10145   0.220   5.130   4.426  0.1666 -0.2241 -0.5402
  835MOL0     O10146   0.116   5.084   4.345 -0.2539  0.2816 -0.0899
  835MOL0     C10147  -0.007   5.139   4.372 -0.0249  0.3013  0.8496
  835MOL0     C10148  -0.094   5.006   4.372  0.1598 -0.2122 -0.0629
  835MOL0     C10149  -0.228   5.030   4.441 -0.6022 -0.4055  0.2261
  835MOL0     C10150  -0.319   4.905   4.425 -0.0998  0.7662 -0.1661
  835MOL0     C10151  -0.389   4.918   4.299 -0.3405  0.0753 -0.1316
  835MOL0     C10152  -0.429   4.927   4.184 -0.5017  0.2693  0.3993
  835MOL0     C10153   0.238   5.265   4.467  0.6054 -0.1913 -0.2882
  835MOL0     C10154   0.347   5.287   4.558  1.2931 -0.5915 -0.5972
  835MOL0     H10155   0.907   5.132   4.523 -0.3957 -0.6640  0.3813
  835MOL0     H10156   1.113   5.186   4.623 -0.2669 -0.0941 -0.3778
  835MOL0     H10157   1.286   5.303   4.750  3.7501  1.0205  1.1270
  835MOL0     H10158   1.293   5.122   4.791  0.0041  0.2835  0.7660
  835MOL0     H10159   1.487   5.219   4.872 -0.8959 -0.4888 -1.5989
  835MOL0     H10160   1.369   5.204   5.010  0.2754 -0.7515 -0.8264
  835MOL0     H10161   1.312   5.451   4.966  0.4412 -0.5278 -0.2981
  835MOL0     H10162   1.444   5.452   4.850 -2.1519  0.7453 -1.2201
  835MOL0     H10163   1.471   5.445   5.153 -1.3297  0.6981 -0.1814
  835MOL0     H10164   1.574   5.340   5.063 -1.5181 -1.6768 -1.1466
  835MOL0     H10165   1.632   5.539   4.917  2.2625 -2.6343  0.5672
  835MOL0     H10166   1.700   5.524   5.075 -0.1664  1.1432  0.0742
  835MOL0     H10167   1.478   5.673   5.143  0.6395 -0.5823  1.2190
  835MOL0     H10168   1.502   5.740   4.974 -0.1917 -1.1145 -0.1309
  835MOL0     H10169   1.611   5.879   5.149 -0.3076  0.3320 -1.6868
  835MOL0     H10170   1.708   5.744   5.202  1.7539  3.0662 -0.0936
  835MOL0     H10171   1.794   5.935   5.027 -0.9601  0.4289 -1.0057
  835MOL0     H10172   1.697   5.861   4.910 -0.9787 -0.6278  0.3292
  835MOL0     H10173   2.010   5.824   5.090 -0.9669  0.1379 -0.5176
  835MOL0     H10174   2.232   5.608   5.048 -0.2014  0.5931  0.6054
  835MOL0     H10175   2.231   5.760   4.961  0.4783 -0.0750 -0.2235
  835MOL0     H10176   2.237   5.605   4.744 -0.9984 -1.1184  0.1821
  835MOL0     H10177   2.281   5.486   4.870 -1.0558  1.5622  4.9978
  835MOL0     H10178   2.483   5.573   4.748  0.1133  1.9136 -1.6306
  835MOL0     H10179   2.440   5.737   4.780  1.0344  1.7331  3.0735
  835MOL0     H10180   2.529   5.505   4.984  2.0652  0.6109  0.7985
  835MOL0     H10181   2.511   5.683   5.024  1.5977  1.4285 -0.4526
  835MOL0     H10182   2.667   5.372   4.932 -0.5715  1.6923 -1.2448
  835MOL0     H10183   2.827   5.229   4.832  1.1652 -0.5063 -0.8442
  835MOL0     H10184   2.815   4.977   4.527  0.4637  0.9824  2.5040
  835MOL0     H10185   2.902   4.787   4.381 -0.3543  1.1816  2.2506
  835MOL0     H10186   3.302   4.829   4.189 -0.4388 -0.0400  0.0283
  835MOL0     H10187   3.243   4.682   4.116 -0.2256  0.9096 -1.2543
  835MOL0     H10188   3.259   4.581   4.359 -0.1398  0.8517  1.6367
  835MOL0     H10189   3.333   4.745   4.398  1.8361 -0.3272 -0.0731
  835MOL0     H10190   3.529   4.689   4.274  0.1364  0.0188  0.1216
  835MOL0     H10191   3.440   4.549   4.202  1.2848 -2.1173  2.5537
  835MOL0     H10192   3.488   4.575   4.494  2.1344 -0.1696  1.0584
  835MOL0     H10193   3.448   4.427   4.423 -0.1306  0.4881  3.0136
  835MOL0     H10194   3.701   4.577   4.455 -1.9683  0.2407  0.7659
  835MOL0     H10195   3.694   4.489   4.303  3.5065 -0.7861 -0.2156
  835MOL0     H10196   3.637   4.276   4.442 -1.8250  1.7042 -0.6352
  835MOL0     H10197   3.705   4.353   4.587 -0.3862 -0.9664  0.0794
  835MOL0     H10198   3.913   4.394   4.450 -2.2433  1.1362  4.3773
  835MOL0     H10199   3.878   4.227   4.500 -2.1467 -0.5388  0.5505
  835MOL0     H10200   3.932   4.269   4.237  0.7640 -1.7724  0.9743
  835MOL0     H10201   3.766   4.304   4.230 -0.2602 -1.3463 -0.7487
  835MOL0     H10202   3.271   4.990   4.341 -0.1207  0.8996 -0.2966
  835MOL0     H10203   3.192   5.146   4.510  0.1620 -0.8643 -0.2424
  835MOL0     H10204   2.999   5.575   4.634  0.6675 -1.6585 -1.0004
  835MOL0     H10205   2.856   5.719   4.751  0.3367 -0.6781 -0.5976
  835MOL0     H10206   0.921   5.171   5.012 -0.9620 -1.2173  0.6020
  835MOL0     H10207   0.715   5.138   4.904 -0.3933  3.0048  1.2404
  835MOL0     H10208   0.485   4.981   4.573  2.2215  0.6946 -2.3887
  835MOL0     H10209   0.257   4.929   4.443 -1.0541  0.4743  0.0761
  835MOL0     H10210  -0.038   5.201   4.288 -3.9791 -2.7737 -0.2970
  835MOL0     H10211  -0.005   5.186   4.471 -0.4626 -0.0061  1.0068
  835MOL0     H10212  -0.110   4.965   4.272 -2.8601  1.7509 -0.5037
  835MOL0     H10213  -0.039   4.926   4.423  1.2468  0.2521 -0.4673
  835MOL0     H10214  -0.281   5.113   4.393  1.6007  0.0175 -1.6243
  835MOL0     H10215  -0.206   5.061   4.543  2.9585 -1.4202 -0.0955
  835MOL0     H10216  -0.265   4.810   4.427 -0.1811  0.7060 -0.7442
  835MOL0     H10217  -0.392   4.898   4.507  2.0529  0.8100  1.8628
  835MOL0     H10218  -0.462   4.954   4.086 -1.4401  3.3870  1.4437
  835MOL0     H10219   0.182   5.349   4.428  1.5789 -0.0290 -1.4085
  835MOL0     H10220   0.359   5.391   4.587  0.7143 -0.8325  0.5803
  836MOL0     O10221   8.856   4.487   4.856  0.0987 -0.4880  0.2246
  836MOL0     C10222   8.877   4.552   4.756  0.6295  0.2579  0.7054
  836MOL0     O10223   8.808   4.544   4.641  0.4672 -0.4270  0.0030
  836MOL0     C10224   8.682   4.489   4.658 -0.1130 -0.2349 -0.2862
  836MOL0     C10225   8.638   4.409   4.557  0.1814  0.1700  0.2923
  836MOL0     C10226   8.507   4.368   4.548  1.3571 -0.4376 -0.5509
  836MOL0     C10227   8.413   4.406   4.641 -0.8645  0.4854  0.7750
  836MOL0     O10228   8.288   4.358   4.619  0.4934  0.2592 -0.4570
  836MOL0     C10229   8.202   4.357   4.725  0.3178  0.4789 -1.2947
  836MOL0     C10230   8.067   4.312   4.678 -0.3972  0.8460 -0.1137
  836MOL0     C10231   7.962   4.295   4.789 -0.6702 -0.7969 -0.5709
  836MOL0     C10232   7.832   4.262   4.716  1.0648  0.5198 -0.0866
  836MOL0     C10233   7.719   4.247   4.817 -1.0582  0.4946  1.2120
  836MOL0     C10234   7.656   4.377   4.855 -0.0826  0.7690 -0.5933
  836MOL0     C10235   7.523   4.342   4.925 -0.4390 -0.3810 -0.4395
  836MOL0     C10236   7.439   4.463   4.921 -0.1801 -0.6111 -0.3550
  836MOL0     N10237   7.299   4.426   4.965  1.0465 -0.3769 -0.3362
  836MOL0     C10238   7.239   4.504   5.058  0.1062  0.8444  0.2987
  836MOL0     C10239   7.118   4.442   5.075 -0.8390 -0.4045 -0.0184
  836MOL0     C10240   7.037   4.455   5.196  1.2795 -0.5730 -0.9710
  836MOL0     C10241   6.902   4.522   5.162 -0.5627  0.0992 -0.0641
  836MOL0     C10242   6.803   4.534   5.274 -0.5818  0.0481  0.7405
  836MOL0     C10243   6.746   4.672   5.297  0.3992  0.5222 -0.4431
  836MOL0     O10244   6.658   4.710   5.196  0.0772 -0.0039  0.6375
  836MOL0     C10245   6.521   4.715   5.218 -0.4501  0.3157  0.1922
  836MOL0     C10246   6.451   4.633   5.311  0.4446 -0.3004  0.9072
  836MOL0     C10247   6.311   4.660   5.339  0.2859 -0.3490 -1.0612
  836MOL0     C10248   6.248   4.769   5.273 -0.2885 -0.2506  0.3180
  836MOL0     C10249   6.110   4.803   5.302  0.6554 -0.4582  0.2091
  836MOL0     O10250   6.073   4.934   5.255  0.3442 -0.0893 -0.2171
  836MOL0     C10251   5.941   4.980   5.249  0.5390  0.2326  0.3585
  836MOL0     C10252   5.856   4.973   5.362 -0.8644 -0.4247  0.2180
  836MOL0     C10253   5.724   5.024   5.370  0.6980  0.7134 -0.0794
  836MOL0     C10254   5.669   5.084   5.257  0.2874  0.1638  0.6972
  836MOL0     O10255   5.540   5.143   5.271 -0.4793 -0.2713  0.1924
  836MOL0     C10256   5.446   5.132   5.167  0.1214 -0.4551  0.4522
  836MOL0     C10257   5.374   5.254   5.114  0.7250 -1.2520 -0.5023
  836MOL0     C10258   5.304   5.326   5.233  0.2530  0.1414 -0.8012
  836MOL0     C10259   5.209   5.441   5.195  0.2395  0.0611 -0.9234
  836MOL0     C10260   5.119   5.493   5.315 -0.5673  0.4109 -0.2287
  836MOL0     C10261   5.035   5.606   5.263 -0.7913  0.0208 -0.1004
  836MOL0     C10262   4.930   5.646   5.357 -0.8487  0.1345 -0.3566
  836MOL0     C10263   4.985   5.727   5.475  0.0127  0.1767 -1.1315
  836MOL0    Cl10264   4.893   5.704   5.630  0.1215 -0.0916  0.6619
  836MOL0     C10265   5.753   5.103   5.145  0.4714 -0.3476  0.1128
  836MOL0     C10266   5.884   5.048   5.137 -0.6977  0.1201  0.3280
  836MOL0     O10267   6.037   4.725   5.374  0.0156  0.3708  0.1562
  836MOL0     C10268   6.318   4.854   5.181  0.7771 -0.1154  0.1482
  836MOL0     C10269   6.459   4.822   5.149  0.9529 -0.6820 -0.7753
  836MOL0     N10270   7.097   4.347   4.974 -0.1320 -0.3242  0.1406
  836MOL0     N10271   7.216   4.331   4.917  0.6552  1.0886 -0.5897
  836MOL0     C10272   8.460   4.485   4.747  0.6591  0.6337  0.6842
  836MOL0     C10273   8.588   4.529   4.753 -0.6840  0.5275  0.0086
  836MOL0     C10274   8.997   4.633   4.759  0.0572  0.4755 -0.6096
  836MOL0     C10275   9.052   4.683   4.639 -0.3018 -0.7605 -0.6450
  836MOL0     C10276   9.176   4.756   4.640 -0.0631  0.1422 -1.2243
  836MOL0     C10277   9.237   4.791   4.759  0.2843 -0.0337  1.5264
  836MOL0     O10278   9.350   4.865   4.748 -0.5723 -1.0330  0.5549
  836MOL0     C10279   9.413   4.914   4.868  0.1985  0.3904  0.1484
  836MOL0     C10280   9.514   5.025   4.843 -0.1407  0.6623 -0.0654
  836MOL0     C10281   9.650   4.957   4.783  0.5738 -0.6112 -0.0191
  836MOL0     C10282   9.756   5.069   4.766 -0.1238  1.3536  0.1112
  836MOL0     C10283   9.801   5.123   4.895  0.3176  0.8702  1.1049
  836MOL0     C10284   9.860   5.153   4.991  0.4764 -0.4972  0.0969
  836MOL0     C10285   9.183   4.742   4.878  0.0819 -0.7499 -0.2043
  836MOL0     C10286   9.059   4.670   4.879  0.2669  0.0629 -0.0127
  836MOL0     H10287   8.702   4.380   4.474  0.2172 -0.7247  0.6204
  836MOL0     H10288   8.476   4.291   4.477 -1.5626 -0.4448  0.6340
  836MOL0     H10289   8.203   4.458   4.767  2.3789  0.0144 -0.0930
  836MOL0     H10290   8.239   4.286   4.800 -1.6014 -1.9076 -2.4827
  836MOL0     H10291   8.082   4.215   4.629 -1.9791  0.9346 -0.8389
  836MOL0     H10292   8.023   4.391   4.616 -0.9194 -0.0389 -0.8988
  836MOL0     H10293   7.959   4.393   4.837 -2.3691  0.0353 -2.2318
  836MOL0     H10294   7.990   4.215   4.858 -2.0696 -2.7939 -2.1820
  836MOL0     H10295   7.797   4.339   4.646 -3.7032 -1.6716 -0.5227
  836MOL0     H10296   7.834   4.173   4.653  0.4324 -0.0178  0.6290
  836MOL0     H10297   7.756   4.198   4.908 -1.8729  1.5544  2.1388
  836MOL0     H10298   7.639   4.192   4.767  0.8695  1.2653 -3.1955
  836MOL0     H10299   7.627   4.434   4.766 -0.9901 -0.3361 -1.0252
  836MOL0     H10300   7.721   4.438   4.919 -0.1016 -0.8747  1.0657
  836MOL0     H10301   7.464   4.267   4.872  1.1060 -0.4888 -2.1051
  836MOL0     H10302   7.543   4.308   5.027  4.6451  0.0836 -1.0233
  836MOL0     H10303   7.436   4.498   4.817  0.7247 -0.2835 -0.2738
  836MOL0     H10304   7.474   4.542   4.988  2.3953 -1.7359 -0.2578
  836MOL0     H10305   7.285   4.579   5.122  2.4157  1.9593 -2.4232
  836MOL0     H10306   7.094   4.504   5.275  1.9207 -1.5469 -0.8184
  836MOL0     H10307   7.007   4.360   5.241  0.9014  1.1891  2.9014
  836MOL0     H10308   6.856   4.461   5.084  2.1754 -1.8540 -0.2903
  836MOL0     H10309   6.930   4.620   5.121  0.6310 -0.7590 -1.3837
  836MOL0     H10310   6.719   4.463   5.271 -1.6166  1.2587 -1.6122
  836MOL0     H10311   6.873   4.509   5.354  0.9631  1.6671 -0.0251
  836MOL0     H10312   6.825   4.745   5.313  0.1803  0.6710 -0.0296
  836MOL0     H10313   6.707   4.671   5.399  0.7953  1.0422 -0.2833
  836MOL0     H10314   6.502   4.554   5.366 -0.1935 -1.8549 -0.6721
  836MOL0     H10315   6.261   4.605   5.418  0.0829  0.3952 -0.6692
  836MOL0     H10316   5.904   4.918   5.443  2.3805  1.0366 -0.5233
  836MOL0     H10317   5.665   5.013   5.460  1.9527 -0.2342  0.6666
  836MOL0     H10318   5.369   5.064   5.207 -0.3054 -0.0649  0.2971
  836MOL0     H10319   5.482   5.079   5.078 -1.1229  0.8520 -0.8773
  836MOL0     H10320   5.313   5.247   5.024  1.3608 -1.5956 -0.9140
  836MOL0     H10321   5.453   5.320   5.077  0.9284 -0.7366  0.8232
  836MOL0     H10322   5.372   5.359   5.312  1.0228  0.8202 -1.7268
  836MOL0     H10323   5.236   5.256   5.284  0.2100  1.6705  1.3985
  836MOL0     H10324   5.264   5.527   5.157  0.5906  0.8199  1.1259
  836MOL0     H10325   5.140   5.405   5.118 -0.5300  2.4299 -1.4123
  836MOL0     H10326   5.179   5.515   5.404 -0.1507 -1.2634 -0.0638
  836MOL0     H10327   5.048   5.413   5.339  0.8625 -0.7944  0.0661
  836MOL0     H10328   4.985   5.581   5.169  1.7040  0.6647 -1.6842
  836MOL0     H10329   5.111   5.679   5.235  0.3856 -1.5640 -1.2661
  836MOL0     H10330   4.841   5.695   5.315 -1.9117  3.0712  4.4377
  836MOL0     H10331   4.899   5.546   5.387 -0.5332  0.0571 -0.2963
  836MOL0     H10332   4.977   5.833   5.450 -1.8106  1.5484  3.9224
  836MOL0     H10333   5.090   5.710   5.503 -0.2914  3.0403  2.5350
  836MOL0     H10334   5.701   5.163   5.072  1.2214  0.5912  0.3292
  836MOL0     H10335   5.941   5.068   5.046 -2.0600 -2.2585 -1.1579
  836MOL0     H10336   6.271   4.940   5.134  0.9462  0.5848  1.2240
  836MOL0     H10337   6.516   4.882   5.078  1.6757 -0.8071 -0.3152
  836MOL0     H10338   8.398   4.494   4.835  0.7995 -1.1330  0.9913
  836MOL0     H10339   8.626   4.588   4.836 -2.0411 -2.0570  2.6157
  836MOL0     H10340   9.008   4.657   4.543  0.0545  0.4517 -1.1510
  836MOL0     H10341   9.213   4.796   4.546  1.1929 -2.1080 -1.7828
  836MOL0     H10342   9.460   4.834   4.926  0.0271  1.8708  2.4876
  836MOL0     H10343   9.344   4.957   4.941 -0.4663 -0.5140  0.0623
  836MOL0     H10344   9.474   5.105   4.780 -1.7652 -0.8181 -1.0286
  836MOL0     H10345   9.538   5.068   4.940 -2.5521  2.6626 -0.2621
  836MOL0     H10346   9.638   4.906   4.687  0.4936  2.0488 -1.5304
  836MOL0     H10347   9.692   4.884   4.853 -1.7860 -0.9330  1.1517
  836MOL0     H10348   9.842   5.019   4.721 -1.2477 -0.8781  0.3179
  836MOL0     H10349   9.715   5.143   4.696  1.0754  1.0126 -0.9819
  836MOL0     H10350   9.916   5.185   5.076  1.4075 -4.3142  1.1419
  836MOL0     H10351   9.231   4.761   4.973  0.4083  0.7644 -0.6430
  836MOL0     H10352   9.027   4.621   4.971  2.4392 -1.6140 -0.0610
  837MOL0     O10353   1.580   7.381   2.582 -0.3229 -0.3274  0.2843
  837MOL0     C10354   1.572   7.320   2.480  0.2165  0.8081 -0.8715
  837MOL0     O10355   1.462   7.277   2.423 -0.3602 -0.0275 -0.4516
  837MOL0     C10356   1.336   7.297   2.479 -0.4429 -0.3911 -0.5077
  837MOL0     C10357   1.237   7.233   2.410  0.0134  0.0611 -0.4190
  837MOL0     C10358   1.103   7.255   2.444  0.5125  0.0088  0.9173
  837MOL0     C10359   1.062   7.319   2.557 -0.3743  0.4389  0.6127
  837MOL0     O10360   0.933   7.310   2.607 -0.0211 -0.4881  0.5156
  837MOL0     C10361   0.866   7.443   2.621 -0.6191 -0.1888  0.7561
  837MOL0     C10362   0.825   7.485   2.760 -0.0035  0.9481  0.5990
  837MOL0     C10363   0.740   7.609   2.745 -0.6786  0.1767  0.0816
  837MOL0     C10364   0.639   7.615   2.859  0.9565 -1.1292 -0.1613
  837MOL0     C10365   0.564   7.761   2.856  0.4069  0.5770  0.3146
  837MOL0     C10366   0.471   7.770   2.976  0.2701  0.3379  0.3069
  837MOL0     C10367   0.334   7.698   2.955 -0.4109 -0.3873 -0.7545
  837MOL0     C10368   0.250   7.726   3.075 -0.2289 -0.5435  0.6764
  837MOL0     N10369   0.106   7.678   3.054 -0.8724 -0.3021 -0.2650
  837MOL0     C10370   0.005   7.762   3.013  0.0650 -0.0445 -0.1736
  837MOL0     C10371  -0.104   7.679   2.995 -0.2339  0.0883  0.5337
  837MOL0     C10372  -0.240   7.722   2.937  0.6173 -0.3437 -0.3501
  837MOL0     C10373  -0.238   7.787   2.797 -0.2754 -0.6861 -0.3220
  837MOL0     C10374  -0.209   7.683   2.686  0.2642 -1.1692 -0.1844
  837MOL0     C10375  -0.065   7.695   2.651  0.0341  1.3548 -0.2562
  837MOL0     O10376  -0.044   7.601   2.547 -0.0928  0.1893 -0.2847
  837MOL0     C10377   0.075   7.597   2.488 -0.0621  0.3113  0.5309
  837MOL0     C10378   0.187   7.672   2.524 -0.7849  0.0926 -0.5899
  837MOL0     C10379   0.316   7.653   2.477  0.9640 -0.4123  0.3386
  837MOL0     C10380   0.342   7.549   2.391 -1.1636 -0.2499 -0.3698
  837MOL0     C10381   0.480   7.507   2.343 -0.1329 -0.5888  0.0660
  837MOL0     O10382   0.574   7.603   2.365 -0.3377  0.2775 -0.6437
  837MOL0     C10383   0.700   7.597   2.330 -0.1067  0.4819  0.2564
  837MOL0     C10384   0.769   7.716   2.341 -0.0864 -0.5360  1.1734
  837MOL0     C10385   0.904   7.725   2.314 -0.4620  0.2635 -0.9469
  837MOL0     C10386   0.969   7.618   2.252  0.3765 -0.0117 -0.8390
  837MOL0     O10387   1.107   7.632   2.228  0.3642 -0.6912 -0.2048
  837MOL0     C10388   1.190   7.526   2.182 -0.1116 -0.3452  0.3062
  837MOL0     C10389   1.328   7.584   2.147 -0.2980  0.6208  0.6808
  837MOL0     C10390   1.422   7.488   2.082 -0.5693  0.3745 -0.1909
  837MOL0     C10391   1.572   7.523   2.114  0.3398  0.5021  0.0141
  837MOL0     C10392   1.663   7.408   2.069  0.0678  0.0019  0.2168
  837MOL0     C10393   1.816   7.427   2.069 -0.0391 -0.2712  0.1655
  837MOL0     C10394   1.881   7.315   1.987  0.3028  0.1920 -0.4422
  837MOL0     C10395   1.893   7.318   1.835 -0.4363  0.1800 -1.1389
  837MOL0    Cl10396   1.960   7.477   1.778  0.2661 -0.6382  0.3048
  837MOL0     C10397   0.899   7.496   2.228  0.1441  0.6777  0.0933
  837MOL0     C10398   0.773   7.481   2.280  0.0482 -1.2289 -0.1614
  837MOL0     O10399   0.502   7.394   2.298  0.4945  0.5160  0.5072
  837MOL0     C10400   0.227   7.482   2.335  0.0088 -0.3366 -0.7546
  837MOL0     C10401   0.098   7.512   2.381 -0.2418 -1.3417  0.1657
  837MOL0     N10402  -0.057   7.544   3.012 -0.3745  0.1032  0.9050
  837MOL0     N10403   0.067   7.550   3.052  0.6970 -0.1842  0.7786
  837MOL0     C10404   1.161   7.380   2.630  0.1174  0.4695 -0.5342
  837MOL0     C10405   1.301   7.380   2.592  0.5245 -0.4006 -0.1761
  837MOL0     C10406   1.698   7.263   2.432 -0.1348 -0.0382 -0.4609
  837MOL0     C10407   1.821   7.314   2.476  0.0684 -0.3291  0.3991
  837MOL0     C10408   1.941   7.255   2.432 -0.0521 -0.3197 -0.0383
  837MOL0     C10409   1.955   7.150   2.349  0.4753  0.3436 -1.1535
  837MOL0     O10410   2.072   7.096   2.304 -0.0851  0.1257 -0.0143
  837MOL0     C10411   2.196   7.135   2.365  0.4030  0.0551 -0.1266
  837MOL0     C10412   2.234   7.278   2.319 -0.4620  0.0824  0.9692
  837MOL0     C10413   2.254   7.261   2.165 -0.9091  0.2042 -0.7389
  837MOL0     C10414   2.290   7.402   2.108  0.1044  0.0402 -0.3185
  837MOL0     C10415   2.169   7.483   2.090 -0.6436  0.0174  0.2832
  837MOL0     C10416   2.092   7.577   2.083  0.3126  0.4178  0.2979
  837MOL0     C10417   1.835   7.102   2.306  0.6231  0.4639  1.6634
  837MOL0     C10418   1.709   7.151   2.344  0.1638  0.3232  0.2324
  837MOL0     H10419   1.261   7.175   2.321  0.6828  0.4500 -0.5004
  837MOL0     H10420   1.016   7.206   2.402 -0.0771  3.9864 -3.2567
  837MOL0     H10421   0.776   7.442   2.559 -0.1502  0.4101  0.0520
  837MOL0     H10422   0.928   7.519   2.572 -2.2958 -0.0901 -1.3591
  837MOL0     H10423   0.915   7.506   2.819  0.6638  1.0606 -0.4352
  837MOL0     H10424   0.766   7.406   2.808  1.5890 -1.2242 -0.7925
  837MOL0     H10425   0.695   7.626   2.646 -0.6893  3.5788  0.5596
  837MOL0     H10426   0.812   7.691   2.749 -0.6374  0.2447 -1.3599
  837MOL0     H10427   0.565   7.534   2.858 -1.2274  0.7107 -2.4379
  837MOL0     H10428   0.681   7.615   2.960 -1.7066  1.8762  1.0977
  837MOL0     H10429   0.524   7.778   2.755 -1.1331 -1.4938  0.5076
  837MOL0     H10430   0.638   7.841   2.867  1.6154 -0.5944  0.8936
  837MOL0     H10431   0.449   7.878   2.981 -1.7177  0.0050 -0.3017
  837MOL0     H10432   0.530   7.747   3.065  0.9335 -0.7822 -0.3973
  837MOL0     H10433   0.287   7.726   2.861 -1.1725  1.9346  0.2443
  837MOL0     H10434   0.359   7.591   2.952  0.8702 -0.0863 -2.0627
  837MOL0     H10435   0.239   7.834   3.081 -0.7304 -0.6652  2.1397
  837MOL0     H10436   0.295   7.677   3.162 -0.9415  1.6500  2.3633
  837MOL0     H10437   0.004   7.870   3.018  0.7437 -0.0749  1.1256
  837MOL0     H10438  -0.275   7.793   3.013 -0.2588  0.2389 -1.2680
  837MOL0     H10439  -0.304   7.634   2.930  2.2080 -1.4366 -2.4718
  837MOL0     H10440  -0.166   7.869   2.796 -2.5256  1.4374 -1.0834
  837MOL0     H10441  -0.334   7.835   2.776  0.3489  0.5011 -0.5408
  837MOL0     H10442  -0.238   7.582   2.717 -0.0908 -0.7145  1.0523
  837MOL0     H10443  -0.281   7.702   2.606 -0.0557  0.3643  0.4345
  837MOL0     H10444  -0.006   7.666   2.739 -1.9873 -1.7171  0.2575
  837MOL0     H10445  -0.049   7.795   2.610  1.3587  0.0185 -3.3486
  837MOL0     H10446   0.173   7.739   2.609 -0.8725 -3.4474  2.4280
  837MOL0     H10447   0.389   7.729   2.502 -2.1112  3.1920 -0.6688
  837MOL0     H10448   0.714   7.804   2.374  0.0836 -0.2933  0.8106
  837MOL0     H10449   0.948   7.823   2.332 -1.3302  0.6918 -1.0694
  837MOL0     H10450   1.162   7.477   2.088  1.7402 -0.3948 -0.2644
  837MOL0     H10451   1.182   7.451   2.260 -1.1945  1.0511  1.5937
  837MOL0     H10452   1.372   7.613   2.243 -0.3960  2.8916  0.0988
  837MOL0     H10453   1.315   7.681   2.098  0.5227  0.9172  1.0447
  837MOL0     H10454   1.401   7.490   1.974  0.7503 -1.7067 -0.5471
  837MOL0     H10455   1.402   7.387   2.119 -0.2742  0.9029  1.4840
  837MOL0     H10456   1.602   7.617   2.067 -2.3954  1.7055  0.4734
  837MOL0     H10457   1.587   7.536   2.222 -1.8008  1.4343  0.2542
  837MOL0     H10458   1.639   7.386   1.965 -1.1781 -2.8182  1.0239
  837MOL0     H10459   1.631   7.316   2.118 -1.7509 -1.8468 -3.9577
  837MOL0     H10460   1.850   7.424   2.173 -2.9026 -2.1290  1.1927
  837MOL0     H10461   1.840   7.525   2.028 -1.9947 -0.1753 -0.8677
  837MOL0     H10462   1.980   7.292   2.028  0.7182 -1.1803 -2.1181
  837MOL0     H10463   1.817   7.229   2.006  0.4533  0.1406 -0.1611
  837MOL0     H10464   1.793   7.301   1.794 -1.4669  4.1178 -0.7100
  837MOL0     H10465   1.968   7.244   1.806 -0.1522  0.4198 -1.0284
  837MOL0     H10466   0.942   7.403   2.191  0.3583  0.0975  1.7254
  837MOL0     H10467   0.740   7.378   2.281 -0.1866 -1.1562 -0.3857
  837MOL0     H10468   0.249   7.403   2.264  0.1472 -1.2897  0.3222
  837MOL0     H10469   0.016   7.446   2.354  0.7895 -2.4220 -0.4463
  837MOL0     H10470   1.132   7.443   2.714 -0.6153  1.1928 -1.3105
  837MOL0     H10471   1.371   7.442   2.647  2.9240 -0.4678 -2.9565
  837MOL0     H10472   1.826   7.394   2.550 -0.7413 -2.0262  2.3687
  837MOL0     H10473   2.027   7.283   2.493  0.0801 -2.8523  1.0742
  837MOL0     H10474   2.264   7.068   2.311  0.1803 -0.9617  0.8048
  837MOL0     H10475   2.209   7.104   2.469  0.6545 -2.8982 -0.9358
  837MOL0     H10476   2.173   7.362   2.354  0.2408  0.3581  1.5760
  837MOL0     H10477   2.333   7.307   2.355  0.8992 -0.7326 -1.7749
  837MOL0     H10478   2.162   7.223   2.121  0.7412 -4.0147 -1.0075
  837MOL0     H10479   2.337   7.194   2.142 -2.3327 -1.1303 -2.2119
  837MOL0     H10480   2.343   7.456   2.187  2.5000 -1.1080 -1.0485
  837MOL0     H10481   2.357   7.407   2.022 -0.9667  0.5512 -1.1486
  837MOL0     H10482   2.021   7.656   2.071 -1.5037 -0.8475  1.9696
  837MOL0     H10483   1.840   7.015   2.241  0.6244  1.4309  0.3321
  837MOL0     H10484   1.619   7.105   2.304 -0.5224  2.4747 -0.8617
  838MOL0     O10485   5.485   3.830   6.059  0.0737  0.1034 -0.0967
  838MOL0     C10486   5.376   3.792   6.109 -0.4734  1.0393 -0.1110
  838MOL0     O10487   5.357   3.664   6.171 -0.4569 -0.4710 -0.0325
  838MOL0     C10488   5.469   3.593   6.205  0.8130  0.5987  1.0126
  838MOL0     C10489   5.583   3.645   6.257 -1.0831  0.4079 -0.2240
  838MOL0     C10490   5.684   3.566   6.308  0.7792 -0.1246 -0.1837
  838MOL0     C10491   5.678   3.428   6.287  0.1482  0.7548  0.3562
  838MOL0     O10492   5.778   3.342   6.320  0.7706  0.1025 -0.3844
  838MOL0     C10493   5.912   3.395   6.357  0.5584  0.1654 -0.0658
  838MOL0     C10494   5.989   3.457   6.234  0.9256  0.9313 -0.1124
  838MOL0     C10495   5.994   3.363   6.115 -0.6425 -0.4024  0.2829
  838MOL0     C10496   6.059   3.228   6.146 -0.3714  0.4360 -1.0352
  838MOL0     C10497   6.065   3.124   6.037  0.4292 -0.1723 -0.1114
  838MOL0     C10498   5.932   3.087   5.981 -0.5576 -0.0299  1.1858
  838MOL0     C10499   5.938   2.953   5.907 -1.2453  0.3493  0.8026
  838MOL0     C10500   5.995   2.953   5.767  0.6378 -0.7995 -0.1306
  838MOL0     N10501   5.968   2.825   5.713  0.4157  0.8393  0.2047
  838MOL0     C10502   6.045   2.717   5.738 -0.2136 -0.7646  0.3596
  838MOL0     C10503   5.989   2.614   5.674  0.8208  0.5543  0.3348
  838MOL0     C10504   6.049   2.474   5.673 -0.3739 -0.3122 -0.1540
  838MOL0     C10505   5.990   2.386   5.791 -0.1850 -0.4830 -0.6596
  838MOL0     C10506   6.041   2.244   5.784  0.4478  0.0115  0.4931
  838MOL0     C10507   6.197   2.219   5.806 -0.3190 -0.2641 -0.3667
  838MOL0     O10508   6.296   2.235   5.704  0.1337 -0.6952  0.3381
  838MOL0     C10509   6.417   2.189   5.728 -0.2331 -0.4513 -0.4024
  838MOL0     C10510   6.461   2.106   5.832 -0.6271 -0.0913  0.1616
  838MOL0     C10511   6.588   2.065   5.836 -1.2152  0.0885  0.1046
  838MOL0     C10512   6.682   2.109   5.741  0.1013 -0.4346 -0.3685
  838MOL0     C10513   6.830   2.074   5.755  0.0537  0.7049 -0.1467
  838MOL0     O10514   6.872   2.003   5.871 -0.0817  0.1856 -0.2218
  838MOL0     C10515   7.007   2.021   5.893  0.2764  0.4483 -0.8698
  838MOL0     C10516   7.069   2.141   5.924 -0.2725 -0.4902  0.4143
  838MOL0     C10517   7.209   2.147   5.956  0.3918 -0.6769 -0.3457
  838MOL0     C10518   7.289   2.035   5.957 -0.6149 -0.3579 -0.6116
  838MOL0     O10519   7.421   2.045   5.993 -0.0941 -0.1299  0.0129
  838MOL0     C10520   7.502   1.928   6.004 -0.2054  0.1150  0.4735
  838MOL0     C10521   7.649   1.974   5.982 -0.5341 -0.5008 -0.6229
  838MOL0     C10522   7.698   2.059   6.094 -0.7553  0.4652  0.1997
  838MOL0     C10523   7.842   2.096   6.064  0.2599 -0.1817  0.4932
  838MOL0     C10524   7.924   2.163   6.177 -0.4152 -0.0411  0.3663
  838MOL0     C10525   8.062   2.177   6.125  0.5853 -0.8975  0.0163
  838MOL0     C10526   8.159   2.067   6.094  0.9934  0.9153  0.2654
  838MOL0     C10527   8.298   2.120   6.084  0.3561 -0.6930  0.7033
  838MOL0    Cl10528   8.365   2.152   6.239 -0.1885  0.1847 -0.1222
  838MOL0     C10529   7.227   1.913   5.929  0.1061  0.0640 -0.2584
  838MOL0     C10530   7.088   1.907   5.892  0.5226 -0.1157  1.0347
  838MOL0     O10531   6.909   2.106   5.662  0.1156  0.1384  0.3513
  838MOL0     C10532   6.640   2.190   5.628 -0.2937 -0.6226 -0.6363
  838MOL0     C10533   6.513   2.235   5.630  0.0121  0.4002 -0.1103
  838MOL0     N10534   5.876   2.666   5.606 -0.2237 -0.0513  0.2694
  838MOL0     N10535   5.863   2.794   5.625  0.1795  0.2417  0.2951
  838MOL0     C10536   5.562   3.373   6.233 -0.1136  0.1687  0.0629
  838MOL0     C10537   5.450   3.456   6.201 -0.3992  0.7055  1.3987
  838MOL0     C10538   5.248   3.867   6.111 -0.4792 -0.4391  0.5642
  838MOL0     C10539   5.250   4.004   6.068  0.2876 -0.6796 -0.5856
  838MOL0     C10540   5.131   4.083   6.076 -0.7897 -0.4464  0.3790
  838MOL0     C10541   5.010   4.033   6.109  0.4114 -0.4089  0.4997
  838MOL0     O10542   4.903   4.121   6.129 -0.2767  0.6097 -0.7106
  838MOL0     C10543   4.785   4.062   6.156  0.6753 -0.0477  0.6646
  838MOL0     C10544   4.666   4.155   6.168 -0.3972 -0.7017  0.2990
  838MOL0     C10545   4.678   4.250   6.294  0.1540 -0.3568  0.9687
  838MOL0     C10546   4.555   4.339   6.337  0.5043 -0.9337  0.9238
  838MOL0     C10547   4.564   4.417   6.464  0.0221  0.5171  0.8363
  838MOL0     C10548   4.582   4.486   6.563 -0.8578 -0.6958 -0.0351
  838MOL0     C10549   5.006   3.895   6.135  0.3044  0.1294 -1.1061
  838MOL0     C10550   5.121   3.818   6.136 -0.1288 -1.0855  0.4609
  838MOL0     H10551   5.574   3.752   6.274  1.2527  0.3544  1.9039
  838MOL0     H10552   5.767   3.624   6.348  1.8543 -1.0361 -1.0324
  838MOL0     H10553   5.976   3.319   6.403  1.4390  3.1322  4.2289
  838MOL0     H10554   5.897   3.473   6.432 -0.3388  1.0594 -1.1415
  838MOL0     H10555   6.085   3.484   6.280  0.3981 -2.1047  3.2529
  838MOL0     H10556   5.937   3.544   6.193 -0.2147 -0.7104 -2.3380
  838MOL0     H10557   6.060   3.410   6.041  1.6236 -3.2995  0.3115
  838MOL0     H10558   5.894   3.342   6.076 -0.9627  2.0423 -0.3565
  838MOL0     H10559   6.167   3.235   6.156  0.0498 -0.8701 -3.8399
  838MOL0     H10560   6.027   3.182   6.240 -0.6176  0.4462 -1.1107
  838MOL0     H10561   6.109   3.042   6.095  2.0266  1.5730  1.2491
  838MOL0     H10562   6.129   3.158   5.955 -2.7051  0.9083 -2.2887
  838MOL0     H10563   5.883   3.161   5.917 -1.0846 -0.7344  0.7497
  838MOL0     H10564   5.854   3.070   6.055 -0.9608 -2.0182  0.3692
  838MOL0     H10565   5.998   2.880   5.961 -0.1534  0.8108  0.2297
  838MOL0     H10566   5.833   2.923   5.899 -1.5854  1.5942  0.3508
  838MOL0     H10567   6.101   2.979   5.766  0.3688  0.3824 -1.6215
  838MOL0     H10568   5.945   3.029   5.705 -1.2036 -0.1494  2.0038
  838MOL0     H10569   6.144   2.718   5.782  0.5211 -3.0020 -1.0650
  838MOL0     H10570   6.158   2.468   5.680 -0.2409 -0.7914 -2.0338
  838MOL0     H10571   6.020   2.423   5.581 -1.7799 -0.3285  0.2816
  838MOL0     H10572   5.882   2.401   5.794 -0.0233  0.5793  0.8652
  838MOL0     H10573   6.039   2.429   5.878  2.8865  1.3673 -3.0674
  838MOL0     H10574   5.986   2.173   5.848  2.1616 -1.9495 -0.0890
  838MOL0     H10575   6.016   2.198   5.688 -1.4490  0.0138  0.9370
  838MOL0     H10576   6.200   2.112   5.831 -2.6250 -0.9939 -2.7058
  838MOL0     H10577   6.220   2.275   5.897  1.0597  2.1593 -2.0955
  838MOL0     H10578   6.401   2.068   5.914  0.0103  2.2031  1.7852
  838MOL0     H10579   6.621   2.003   5.919  2.3144  2.6020  0.8088
  838MOL0     H10580   7.010   2.231   5.913  1.6055  0.5903 -1.4832
  838MOL0     H10581   7.255   2.244   5.975  0.0695 -0.3998 -0.9318
  838MOL0     H10582   7.489   1.861   5.919  1.9134 -0.9324  0.9146
  838MOL0     H10583   7.502   1.870   6.097  1.0007  1.2015  1.1905
  838MOL0     H10584   7.644   2.013   5.880  1.6390 -2.1573 -1.4391
  838MOL0     H10585   7.706   1.881   5.971 -3.2963 -2.6063  1.4431
  838MOL0     H10586   7.692   1.991   6.179 -0.2982 -3.3629 -2.5620
  838MOL0     H10587   7.643   2.154   6.099  1.8695  2.2475 -1.6036
  838MOL0     H10588   7.902   2.008   6.037 -0.7849 -0.7291 -0.1217
  838MOL0     H10589   7.836   2.177   5.990 -1.7159 -0.1340  0.6485
  838MOL0     H10590   7.923   2.105   6.269  3.4253  0.8355  1.1271
  838MOL0     H10591   7.886   2.264   6.195 -0.8231  0.3439 -2.1882
  838MOL0     H10592   8.112   2.209   6.217 -0.1954 -1.7587  0.7438
  838MOL0     H10593   8.072   2.263   6.057 -1.5704  1.1252  2.0679
  838MOL0     H10594   8.163   1.986   6.168 -0.1349 -0.0326 -0.6641
  838MOL0     H10595   8.145   2.013   6.000  0.0272 -0.6330  1.2517
  838MOL0     H10596   8.312   2.205   6.016 -0.5715 -2.1868 -1.4558
  838MOL0     H10597   8.368   2.045   6.046  2.2148  0.5695  1.4836
  838MOL0     H10598   7.279   1.818   5.925  1.7730  0.8440  1.2699
  838MOL0     H10599   7.057   1.806   5.867  4.0549 -1.2403  0.6106
  838MOL0     H10600   6.696   2.235   5.547  0.0531 -0.8967 -0.5496
  838MOL0     H10601   6.480   2.293   5.543  0.4641  0.5887 -0.1601
  838MOL0     H10602   5.554   3.265   6.226  2.4564 -0.0047 -1.4176
  838MOL0     H10603   5.356   3.410   6.171 -0.0069 -1.0222  2.6542
  838MOL0     H10604   5.348   4.044   6.045  0.1482  1.6054  2.3675
  838MOL0     H10605   5.140   4.185   6.039  0.4217 -0.6169  0.1594
  838MOL0     H10606   4.785   4.003   6.248 -2.3087  1.2955  1.6378
  838MOL0     H10607   4.759   3.993   6.075  0.8870  1.2556 -0.5527
  838MOL0     H10608   4.659   4.206   6.071 -1.7484  0.2977  0.8931
  838MOL0     H10609   4.575   4.097   6.188 -0.2240 -0.7026  1.1014
  838MOL0     H10610   4.759   4.320   6.271 -1.0090  0.7439  0.0047
  838MOL0     H10611   4.705   4.182   6.375 -1.4445  1.5309  3.2371
  838MOL0     H10612   4.536   4.410   6.256 -2.8946 -1.2136  1.3278
  838MOL0     H10613   4.466   4.276   6.351  1.2076 -1.4454  3.7835
  838MOL0     H10614   4.603   4.549   6.648  0.2528 -0.1412 -0.6918
  838MOL0     H10615   4.918   3.834   6.155  0.7468  0.2007  1.5337
  838MOL0     H10616   5.102   3.712   6.154  0.5116 -1.0777  1.2608
  839MOL0     O10617   9.193   9.328  10.755 -0.2888 -0.2283  0.4915
  839MOL0     C10618   9.220   9.288  10.869  0.0684  0.2213  0.4923
  839MOL0     O10619   9.340   9.249  10.918 -0.4472  0.6043 -0.3304
  839MOL0     C10620   9.452   9.253  10.842 -0.3911  0.8369  0.4796
  839MOL0     C10621   9.524   9.370  10.838 -0.2032 -0.3611  0.2297
  839MOL0     C10622   9.642   9.376  10.767 -0.2712 -0.0710  0.2083
  839MOL0     C10623   9.687   9.254  10.702 -0.4380  0.3782  0.8332
  839MOL0     O10624   9.802   9.241  10.626  0.2429  0.4926  0.2404
  839MOL0     C10625   9.917   9.302  10.694 -0.4355  0.3456  0.0193
  839MOL0     C10626  10.041   9.282  10.613 -0.1782 -0.0548  0.2617
  839MOL0     C10627  10.167   9.317  10.687  0.9124 -0.6591 -0.3522
  839MOL0     C10628  10.287   9.334  10.591  0.3144  0.0427 -0.0640
  839MOL0     C10629  10.401   9.399  10.666 -0.3424  0.0387  0.1246
  839MOL0     C10630  10.452   9.318  10.787  0.7632 -0.1476  0.4423
  839MOL0     C10631  10.572   9.389  10.843 -0.4646  0.9989 -0.0102
  839MOL0     C10632  10.546   9.537  10.880  0.3187  0.0369 -0.3974
  839MOL0     N10633  10.634   9.561  10.992 -0.5566 -0.2663 -0.6126
  839MOL0     C10634  10.759   9.633  10.991 -0.1085  0.7771  0.1850
  839MOL0     C10635  10.796   9.626  11.117 -0.1547 -0.4036 -0.2613
  839MOL0     C10636  10.927   9.673  11.168  0.4052  0.4287  0.2863
  839MOL0     C10637  10.956   9.815  11.143 -0.3667 -0.3150 -0.5292
  839MOL0     C10638  11.043   9.885  11.254  1.3056 -0.2125  0.1635
  839MOL0     C10639  11.165   9.802  11.302 -0.8896  0.4812 -0.3269
  839MOL0     O10640  11.237   9.785  11.182 -0.6295 -0.3333 -0.0979
  839MOL0     C10641  11.368   9.739  11.187 -0.0696  0.8792  0.0021
  839MOL0     C10642  11.414   9.711  11.062 -0.3539  0.4226  0.3729
  839MOL0     C10643  11.538   9.645  11.057 -0.9557  0.4121 -0.7750
  839MOL0     C10644  11.631   9.626  11.172 -0.8865  0.2081  0.2204
  839MOL0     C10645  11.757   9.572  11.160  0.2617 -0.0749  1.6235
  839MOL0     O10646  11.831   9.578  11.268  1.4726 -0.1652  0.6522
  839MOL0     C10647  11.949   9.524  11.270  0.3774  0.0140  0.3821
  839MOL0     C10648  12.050   9.574  11.184  0.6685  0.9618  0.5919
  839MOL0     C10649  12.179   9.517  11.198  1.0947 -1.0132 -0.4783
  839MOL0     C10650  12.199   9.419  11.290  0.1184 -0.2944 -0.1329
  839MOL0     O10651  12.326   9.379  11.318 -0.3402  0.3339  0.7556
  839MOL0     C10652  12.372   9.281  11.216 -0.6813  0.2255 -0.0740
  839MOL0     C10653  12.505   9.221  11.237 -0.0223  0.3961 -0.4863
  839MOL0     C10654  12.504   9.109  11.341 -0.5329  0.6624 -0.7630
  839MOL0     C10655  12.513   9.151  11.484 -0.5167 -0.4151 -0.2504
  839MOL0     C10656  12.489   9.046  11.591 -0.1237 -0.2287 -0.2435
  839MOL0     C10657  12.593   8.933  11.592 -0.3504 -0.0378  0.3853
  839MOL0     C10658  12.736   8.970  11.607 -0.0764  0.7059  0.3875
  839MOL0     C10659  12.761   9.039  11.741 -0.6725 -0.2980  0.1889
  839MOL0    Cl10660  12.708   8.942  11.877  0.0090 -0.2932  0.0636
  839MOL0     C10661  12.101   9.370  11.374  0.5848 -0.3169  0.2953
  839MOL0     C10662  11.967   9.422  11.364 -0.7386 -0.4460  0.0145
  839MOL0     O10663  11.786   9.508  11.058 -0.5683  0.4063  0.1143
  839MOL0     C10664  11.577   9.668  11.300 -0.6408  0.5602  0.7496
  839MOL0     C10665  11.450   9.715  11.303  0.2597 -0.0426  0.6011
  839MOL0     N10666  10.698   9.567  11.193  0.5968  0.8207  0.0235
  839MOL0     N10667  10.608   9.525  11.117 -0.0000  0.0248  0.6041
  839MOL0     C10668   9.612   9.138  10.712 -0.3306  0.8413  0.7027
  839MOL0     C10669   9.496   9.128  10.780  0.6158  0.0443  0.2301
  839MOL0     C10670   9.107   9.255  10.950  0.3808  0.7373 -0.1881
  839MOL0     C10671   9.098   9.277  11.086  0.5054  0.9150  0.2445
  839MOL0     C10672   8.988   9.237  11.155  0.3897  0.8937  0.1997
  839MOL0     C10673   8.884   9.171  11.095  0.7190 -0.1069 -0.9682
  839MOL0     O10674   8.771   9.133  11.166 -0.1833  0.3699  0.5511
  839MOL0     C10675   8.657   9.081  11.093  0.1979 -0.5289  0.1203
  839MOL0     C10676   8.568   9.011  11.194  0.2351 -0.2742  0.1655
  839MOL0     C10677   8.472   8.909  11.120  0.6466  0.0490 -0.1882
  839MOL0     C10678   8.372   8.857  11.225  0.0438  0.0711 -0.2210
  839MOL0     C10679   8.427   8.804  11.343 -0.7231  0.2342 -0.6442
  839MOL0     C10680   8.472   8.763  11.450  0.2509  0.4001 -0.0157
  839MOL0     C10681   8.891   9.149  10.955 -0.1882 -0.4201 -0.7700
  839MOL0     C10682   8.997   9.195  10.882 -0.3760  0.0120 -0.4079
  839MOL0     H10683   9.488   9.450  10.901 -3.3450 -1.0691 -0.5230
  839MOL0     H10684   9.695   9.468  10.745 -0.8726  0.7323  1.9714
  839MOL0     H10685   9.930   9.261  10.795  3.8241 -2.6147 -1.4375
  839MOL0     H10686   9.906   9.410  10.690  0.5770  0.4779  0.6348
  839MOL0     H10687  10.021   9.342  10.524 -0.7833 -0.3848  0.1706
  839MOL0     H10688  10.053   9.176  10.586  1.8917  0.3166 -0.4306
  839MOL0     H10689  10.209   9.253  10.765  2.6727  1.3174  0.4232
  839MOL0     H10690  10.149   9.414  10.732 -3.2932 -1.1939 -0.4903
  839MOL0     H10691  10.310   9.234  10.554  0.1725 -1.2523  3.0573
  839MOL0     H10692  10.258   9.390  10.501 -2.5800 -1.8908 -0.4949
  839MOL0     H10693  10.372   9.500  10.695  0.0489 -0.0092  0.6967
  839MOL0     H10694  10.475   9.411  10.586 -0.8024  3.0301  0.0596
  839MOL0     H10695  10.467   9.217  10.748  1.2936 -0.4209  1.3241
  839MOL0     H10696  10.376   9.305  10.864  0.1898  1.0037  0.0866
  839MOL0     H10697  10.615   9.335  10.929  4.6994  1.8836 -1.6890
  839MOL0     H10698  10.652   9.386  10.768 -0.6807  1.5420 -0.2623
  839MOL0     H10699  10.448   9.565  10.921  0.6705  2.1707 -0.9121
  839MOL0     H10700  10.576   9.588  10.788  1.5071 -2.7594 -1.6948
  839MOL0     H10701  10.808   9.706  10.926  1.4221  0.3310  0.7770
  839MOL0     H10702  11.009   9.609  11.132  0.5094  0.9958 -0.4956
  839MOL0     H10703  10.922   9.660  11.277 -0.8480  1.2262  0.3351
  839MOL0     H10704  10.863   9.872  11.134  0.3209  1.1452  1.0038
  839MOL0     H10705  10.999   9.826  11.043 -0.8926  1.9620 -0.5577
  839MOL0     H10706  11.086   9.981  11.225  1.3399 -0.0174  0.8410
  839MOL0     H10707  10.983   9.911  11.342  0.6825  0.7121 -0.5155
  839MOL0     H10708  11.134   9.703  11.335  2.1403 -0.6122 -0.4909
  839MOL0     H10709  11.226   9.856  11.375  0.3787  1.6532 -2.1556
  839MOL0     H10710  11.356   9.703  10.971  0.5273 -2.0028 -0.0521
  839MOL0     H10711  11.589   9.633  10.962  0.3369 -0.6474  0.0185
  839MOL0     H10712  12.018   9.642  11.106 -2.5895 -0.2434  0.7043
  839MOL0     H10713  12.264   9.542  11.135  0.0389  0.6296 -1.3136
  839MOL0     H10714  12.382   9.333  11.120 -0.2207  3.2353  1.4668
  839MOL0     H10715  12.295   9.204  11.210  0.5082 -0.9225 -1.2072
  839MOL0     H10716  12.579   9.298  11.257 -0.5664  1.0896 -1.1005
  839MOL0     H10717  12.521   9.159  11.148  0.7423 -1.2428  0.7353
  839MOL0     H10718  12.586   9.040  11.325 -0.1321  1.0626 -0.4718
  839MOL0     H10719  12.407   9.060  11.326  0.2229 -0.9121 -0.6918
  839MOL0     H10720  12.605   9.203  11.511  1.0388 -4.2167  2.8032
  839MOL0     H10721  12.440   9.230  11.508  1.0263  0.5275  1.6243
  839MOL0     H10722  12.393   8.996  11.576  0.7533 -1.9906 -0.2912
  839MOL0     H10723  12.489   9.085  11.693 -1.2031  1.6786 -0.9330
  839MOL0     H10724  12.583   8.892  11.491  2.8769  1.8774 -0.8669
  839MOL0     H10725  12.568   8.866  11.675  1.5822  0.3004  1.2908
  839MOL0     H10726  12.803   8.884  11.601  1.4754  1.8614  0.3472
  839MOL0     H10727  12.747   9.029  11.516 -2.1033 -1.3219 -1.2822
  839MOL0     H10728  12.712   9.137  11.735  2.1818  1.1331 -2.4009
  839MOL0     H10729  12.868   9.057  11.755 -0.0040 -3.2355 -0.4567
  839MOL0     H10730  12.126   9.289  11.442  1.2544 -1.4320 -1.2336
  839MOL0     H10731  11.892   9.382  11.431  0.3020 -1.6327  0.5263
  839MOL0     H10732  11.639   9.663  11.389 -0.6781  0.5958  0.7775
  839MOL0     H10733  11.410   9.742  11.400 -3.1442  0.4955 -0.8043
  839MOL0     H10734   9.650   9.042  10.680 -1.2699 -0.2262  2.6402
  839MOL0     H10735   9.450   9.030  10.788  0.8851 -0.6154 -4.2394
  839MOL0     H10736   9.182   9.309  11.147  1.1692 -1.3809  0.6551
  839MOL0     H10737   8.980   9.244  11.263 -1.7635  3.7708 -0.0413
  839MOL0     H10738   8.697   9.003  11.027  0.2301  0.5055 -1.1329
  839MOL0     H10739   8.610   9.163  11.037  1.3111  0.8486  1.1157
  839MOL0     H10740   8.624   8.944  11.261 -0.1837 -2.0256 -1.1573
  839MOL0     H10741   8.503   9.082  11.244  2.1973  0.6091  1.6259
  839MOL0     H10742   8.536   8.831  11.077 -0.6983 -1.9574  1.2905
  839MOL0     H10743   8.429   8.959  11.033  0.5734  0.7980  0.2645
  839MOL0     H10744   8.298   8.934  11.251 -0.9631  0.2696 -3.3061
  839MOL0     H10745   8.305   8.781  11.186 -1.5255  1.8127 -1.0683
  839MOL0     H10746   8.509   8.733  11.547  0.4279  0.4114 -0.0789
  839MOL0     H10747   8.813   9.106  10.893 -0.5395 -2.6754  1.1026
  839MOL0     H10748   9.001   9.197  10.774 -0.2647  1.1363 -0.4024
  840MOL0     O10749  10.572   7.512   4.654  0.2727 -1.0012 -0.3458
  840MOL0     C10750  10.499   7.532   4.559 -0.2760 -0.4318  0.3723
  840MOL0     O10751  10.526   7.497   4.432 -0.2244  0.5939  0.2448
  840MOL0     C10752  10.642   7.440   4.380  0.7222 -0.5325 -0.5260
  840MOL0     C10753  10.769   7.462   4.434  0.0358 -0.1159 -0.6257
  840MOL0     C10754  10.889   7.429   4.361  0.6160  0.6691 -0.1016
  840MOL0     C10755  10.872   7.386   4.227  0.0493  0.0249  0.4023
  840MOL0     O10756  10.981   7.376   4.147 -0.0886  0.0773  0.2875
  840MOL0     C10757  11.092   7.293   4.190  0.5638  0.7981  0.5679
  840MOL0     C10758  11.060   7.149   4.171  0.0754 -0.4386  0.1825
  840MOL0     C10759  11.055   7.074   4.298  0.3019 -0.4111 -0.3723
  840MOL0     C10760  11.023   6.924   4.279  0.3183 -1.1179 -0.0986
  840MOL0     C10761  11.118   6.849   4.369  0.3662 -0.5181  0.0932
  840MOL0     C10762  11.247   6.796   4.305  0.2779 -0.0671  0.0948
  840MOL0     C10763  11.220   6.679   4.201  0.1513 -0.5227 -0.1865
  840MOL0     C10764  11.349   6.631   4.129  0.0638  0.1158  0.4781
  840MOL0     N10765  11.417   6.724   4.032  0.7632 -0.1608  0.3668
  840MOL0     C10766  11.357   6.785   3.925  0.5112 -0.4979  0.4115
  840MOL0     C10767  11.448   6.866   3.870 -0.0049 -0.4305 -0.2485
  840MOL0     C10768  11.443   6.968   3.763 -0.7672  0.0384 -0.2323
  840MOL0     C10769  11.362   7.078   3.802 -0.3913 -1.2433  0.6051
  840MOL0     C10770  11.394   7.148   3.934  1.1773  0.1814 -0.3344
  840MOL0     C10771  11.532   7.213   3.958 -0.4821  0.1403  1.0775
  840MOL0     O10772  11.524   7.301   4.063  0.2362  0.5107  0.6039
  840MOL0     C10773  11.489   7.242   4.183 -0.0511 -0.0306  0.5820
  840MOL0     C10774  11.430   7.324   4.279  0.6014 -0.0580  0.0047
  840MOL0     C10775  11.402   7.281   4.405  0.7372 -0.1408 -0.1668
  840MOL0     C10776  11.436   7.158   4.448 -0.0206  0.5483 -0.8024
  840MOL0     C10777  11.399   7.116   4.581 -0.5290 -0.5363  0.0912
  840MOL0     O10778  11.344   7.211   4.662  0.3268 -0.4577 -0.0315
  840MOL0     C10779  11.258   7.161   4.759  0.2468  0.5221 -0.0076
  840MOL0     C10780  11.177   7.052   4.743  0.2241  0.4393  0.3093
  840MOL0     C10781  11.069   7.023   4.824 -1.0439  0.6772 -0.5472
  840MOL0     C10782  11.061   7.095   4.938 -0.2849 -0.5973 -0.7912
  840MOL0     O10783  10.942   7.076   5.014 -0.0477 -0.2316  0.1930
  840MOL0     C10784  10.852   7.178   5.046 -0.7525  0.0073 -0.7006
  840MOL0     C10785  10.860   7.213   5.200  0.0491 -0.1887 -0.3659
  840MOL0     C10786  10.739   7.303   5.239  0.1488 -0.3660  0.4873
  840MOL0     C10787  10.730   7.439   5.158 -0.2151  0.0025  0.1976
  840MOL0     C10788  10.651   7.544   5.234 -0.4612 -0.9429  0.5982
  840MOL0     C10789  10.623   7.661   5.143 -0.3310  0.4148 -0.1760
  840MOL0     C10790  10.532   7.759   5.231  0.0496  0.5046 -0.2034
  840MOL0     C10791  10.518   7.886   5.145  0.5217 -0.8732 -0.5077
  840MOL0    Cl10792  10.443   7.843   4.989  0.7393 -0.3783 -0.1148
  840MOL0     C10793  11.145   7.206   4.966 -0.2966  0.3038 -0.1308
  840MOL0     C10794  11.238   7.243   4.873  0.0445  0.7847  0.3109
  840MOL0     O10795  11.433   7.002   4.621  0.0364  0.5759 -0.7819
  840MOL0     C10796  11.506   7.070   4.357  0.0014 -0.0494 -0.6133
  840MOL0     C10797  11.535   7.110   4.229 -0.1357 -0.2223 -1.2268
  840MOL0     N10798  11.566   6.847   3.941 -0.6257 -0.0453  0.0007
  840MOL0     N10799  11.549   6.760   4.037 -0.0741 -0.1258  0.1537
  840MOL0     C10800  10.732   7.379   4.172 -0.2621 -0.8436  0.4966
  840MOL0     C10801  10.625   7.391   4.252 -0.3395 -0.5509 -0.3700
  840MOL0     C10802  10.368   7.583   4.591 -0.1207 -0.0771 -0.0975
  840MOL0     C10803  10.364   7.687   4.691 -0.2721  0.8193 -0.1074
  840MOL0     C10804  10.235   7.747   4.702 -0.2051 -0.5612 -0.3030
  840MOL0     C10805  10.120   7.717   4.629  1.1244  0.7226  1.9719
  840MOL0     O10806  10.007   7.786   4.670  0.0830  0.6100 -0.2803
  840MOL0     C10807   9.886   7.761   4.597  0.6880  0.4016 -0.3355
  840MOL0     C10808   9.821   7.638   4.662 -0.6677 -0.0479  0.1196
  840MOL0     C10809   9.820   7.648   4.815  0.1565 -0.5708 -0.3089
  840MOL0     C10810   9.726   7.761   4.855 -0.1229  0.3723  0.2838
  840MOL0     C10811   9.723   7.759   5.007  0.3669  0.2131 -0.0888
  840MOL0     C10812   9.706   7.761   5.128 -0.3249 -0.1804  0.3709
  840MOL0     C10813  10.124   7.612   4.532 -0.0520 -0.9033 -0.8647
  840MOL0     C10814  10.248   7.549   4.512 -0.4814  0.3725 -0.2790
  840MOL0     H10815  10.786   7.509   4.530 -0.2038  1.9455 -1.5428
  840MOL0     H10816  10.985   7.453   4.405  1.3192 -3.0224  0.6741
  840MOL0     H10817  11.113   7.319   4.294  0.3634  2.1960  0.2757
  840MOL0     H10818  11.181   7.324   4.135  0.9723  1.1656  1.4104
  840MOL0     H10819  11.119   7.091   4.100 -1.9209 -2.3994  0.0220
  840MOL0     H10820  10.964   7.144   4.120  0.2297 -3.6810  0.0173
  840MOL0     H10821  10.971   7.124   4.349  1.2266  4.1845 -2.7974
  840MOL0     H10822  11.147   7.091   4.353 -1.0420  1.5421  1.4411
  840MOL0     H10823  10.919   6.908   4.308  0.3902  0.5493  1.2352
  840MOL0     H10824  11.036   6.885   4.177 -1.1916 -0.0919 -0.7208
  840MOL0     H10825  11.076   6.750   4.389  1.5940 -0.9059  0.8522
  840MOL0     H10826  11.130   6.908   4.460 -0.9833  1.2813 -0.8252
  840MOL0     H10827  11.310   6.754   4.384  1.1644 -1.2482 -1.2039
  840MOL0     H10828  11.289   6.880   4.249 -1.2113 -0.4889 -1.7520
  840MOL0     H10829  11.196   6.593   4.264 -1.2986 -0.9580 -1.2803
  840MOL0     H10830  11.136   6.698   4.134  0.6254  0.4778 -0.5054
  840MOL0     H10831  11.347   6.527   4.094  0.1321 -0.5124  2.2540
  840MOL0     H10832  11.426   6.614   4.204  0.9024  1.5170 -0.0204
  840MOL0     H10833  11.253   6.769   3.897  1.1669 -5.3008 -0.0159
  840MOL0     H10834  11.401   6.908   3.682 -0.8319  1.6875 -1.4523
  840MOL0     H10835  11.544   7.001   3.737 -1.3893  2.5760  0.2974
  840MOL0     H10836  11.256   7.052   3.803 -1.0932  1.3774  2.0291
  840MOL0     H10837  11.366   7.148   3.718  2.8425  0.2598  1.8590
  840MOL0     H10838  11.325   7.231   3.955  0.4337 -0.9985  2.3432
  840MOL0     H10839  11.371   7.081   4.017 -1.3623 -0.0424 -1.1424
  840MOL0     H10840  11.567   7.264   3.868 -1.6519 -1.2653 -0.2380
  840MOL0     H10841  11.601   7.130   3.979  1.0719  0.9850 -0.4219
  840MOL0     H10842  11.404   7.421   4.239  2.3492  0.3326 -0.2735
  840MOL0     H10843  11.359   7.360   4.466 -0.2599 -0.5334 -0.3487
  840MOL0     H10844  11.189   6.991   4.654  0.6821  0.3634  0.4240
  840MOL0     H10845  11.006   6.938   4.801  0.7566 -0.5033 -1.3136
  840MOL0     H10846  10.749   7.150   5.021 -2.0181 -1.1182  4.6030
  840MOL0     H10847  10.873   7.270   4.991 -0.7082 -0.1450 -0.9416
  840MOL0     H10848  10.950   7.272   5.220 -0.8601  1.6383 -1.3340
  840MOL0     H10849  10.876   7.123   5.259 -0.0873 -1.4307 -2.1527
  840MOL0     H10850  10.767   7.315   5.344  1.2212 -1.0299  0.3003
  840MOL0     H10851  10.649   7.241   5.243 -3.2094  3.3324 -4.8943
  840MOL0     H10852  10.833   7.467   5.135 -0.2867  1.8841  1.8669
  840MOL0     H10853  10.679   7.419   5.064 -2.1278 -2.5697  1.6455
  840MOL0     H10854  10.708   7.576   5.321 -1.5336  0.6002  0.7617
  840MOL0     H10855  10.556   7.494   5.255 -1.0246 -0.4840 -0.7250
  840MOL0     H10856  10.565   7.622   5.059  0.9023 -2.1317  0.0562
  840MOL0     H10857  10.711   7.721   5.118  1.1764 -1.1375  1.1078
  840MOL0     H10858  10.430   7.723   5.245 -0.7505  1.4495 -2.9200
  840MOL0     H10859  10.574   7.779   5.330 -0.5884 -0.0435  0.1817
  840MOL0     H10860  10.611   7.940   5.127 -1.2379  2.2877 -0.7889
  840MOL0     H10861  10.457   7.956   5.201 -0.1030 -1.8668  0.0764
  840MOL0     H10862  11.131   7.262   5.058 -1.7342 -1.0660  0.5107
  840MOL0     H10863  11.305   7.327   4.885  1.9547  0.2134 -4.2833
  840MOL0     H10864  11.537   6.974   4.396 -2.8558 -1.1130 -0.6743
  840MOL0     H10865  11.582   7.038   4.162 -0.3172 -1.1280 -0.4150
  840MOL0     H10866  10.711   7.360   4.068  2.3494 -0.0484 -0.2589
  840MOL0     H10867  10.523   7.368   4.225 -0.3894 -1.7614  0.7247
  840MOL0     H10868  10.446   7.710   4.758 -1.0147 -1.2909  1.6718
  840MOL0     H10869  10.229   7.825   4.777  0.4850 -1.5366  0.8021
  840MOL0     H10870   9.904   7.738   4.492  0.3024 -0.8066 -0.1552
  840MOL0     H10871   9.824   7.851   4.606  1.3225  0.8942 -0.7348
  840MOL0     H10872   9.718   7.620   4.629  0.2771 -0.1126 -3.1773
  840MOL0     H10873   9.869   7.546   4.630  0.6003 -1.0003  4.2083
  840MOL0     H10874   9.917   7.665   4.863 -1.2212  0.2215  2.3751
  840MOL0     H10875   9.777   7.555   4.852  0.4280  0.1121  1.8418
  840MOL0     H10876   9.767   7.859   4.827  0.3662 -0.1765 -1.0077
  840MOL0     H10877   9.621   7.754   4.826 -0.7470  0.5395  2.3391
  840MOL0     H10878   9.691   7.783   5.232 -1.3561  0.4918  0.0944
  840MOL0     H10879  10.031   7.586   4.483 -1.7413  0.0888  1.6343
  840MOL0     H10880  10.259   7.473   4.436 -0.4156  2.2235 -2.2008
  841MOL0     O10881   1.689   1.871   6.289 -0.1074 -0.2211  0.6300
  841MOL0     C10882   1.723   1.868   6.405 -0.2199 -1.0051 -0.2101
  841MOL0     O10883   1.855   1.825   6.443 -0.0956 -0.5846 -0.0917
  841MOL0     C10884   1.968   1.817   6.366  0.1402  0.5302  0.6512
  841MOL0     C10885   2.078   1.757   6.424  0.6389 -0.0589  0.7216
  841MOL0     C10886   2.201   1.745   6.357 -0.5021 -0.5433  1.1244
  841MOL0     C10887   2.207   1.803   6.228 -0.5899  0.4893 -0.8702
  841MOL0     O10888   2.322   1.799   6.152 -0.2167 -0.4646  0.2117
  841MOL0     C10889   2.419   1.691   6.166  0.3015 -0.2921  0.8931
  841MOL0     C10890   2.521   1.722   6.051 -0.8282 -0.4512 -0.7177
  841MOL0     C10891   2.586   1.587   6.008 -0.2591  0.4283  0.2303
  841MOL0     C10892   2.689   1.611   5.894  0.9535 -0.1019  0.3694
  841MOL0     C10893   2.766   1.485   5.860  0.3187 -0.0796  0.4254
  841MOL0     C10894   2.872   1.507   5.748 -1.0020 -0.9908 -0.0827
  841MOL0     C10895   2.951   1.388   5.712 -0.3380  0.3466  0.6101
  841MOL0     C10896   3.081   1.360   5.800  0.9762  0.0206 -0.4027
  841MOL0     N10897   3.147   1.228   5.802  0.7153  0.1390  0.1029
  841MOL0     C10898   3.156   1.157   5.685  0.1677 -0.7680 -0.3760
  841MOL0     C10899   3.241   1.059   5.714  0.4553 -0.4040  0.6378
  841MOL0     C10900   3.280   0.935   5.636  0.0481  0.6684 -0.1245
  841MOL0     C10901   3.162   0.865   5.567 -0.3526  0.1440  0.2281
  841MOL0     C10902   3.074   0.776   5.666  0.2500  0.0677  0.3118
  841MOL0     C10903   3.031   0.845   5.793  0.1664 -0.0766  0.4895
  841MOL0     O10904   2.941   0.959   5.786 -0.6112 -0.2174 -0.2224
  841MOL0     C10905   2.823   0.938   5.848  0.2077  0.0781  0.3786
  841MOL0     C10906   2.787   1.045   5.933 -0.1723  0.5474  0.5056
  841MOL0     C10907   2.668   1.041   5.995 -0.0144 -0.7137 -1.0598
  841MOL0     C10908   2.577   0.939   5.977  0.1751 -0.1267  0.5623
  841MOL0     C10909   2.437   0.941   6.022  0.2010  0.0133  0.2084
  841MOL0     O10910   2.379   1.062   6.065 -0.1682 -0.1722  0.7955
  841MOL0     C10911   2.262   1.052   6.131  0.2599 -0.2278 -0.3790
  841MOL0     C10912   2.269   1.040   6.271 -0.1564 -0.5416 -0.2349
  841MOL0     C10913   2.152   1.039   6.351  1.2526  0.6522 -0.0928
  841MOL0     C10914   2.031   1.070   6.283 -0.4021 -0.0428  0.2455
  841MOL0     O10915   1.910   1.064   6.353  0.2766 -0.9772 -0.4068
  841MOL0     C10916   1.795   1.007   6.294  0.6287 -0.0782 -0.1046
  841MOL0     C10917   1.696   0.973   6.405  0.2790  0.7647  0.4103
  841MOL0     C10918   1.577   0.889   6.360  0.2296  0.2549 -0.0100
  841MOL0     C10919   1.484   0.952   6.254  0.4592 -0.6865  1.0101
  841MOL0     C10920   1.348   0.863   6.254  0.2801  0.1392  0.4682
  841MOL0     C10921   1.374   0.707   6.243 -0.3252 -0.3818  0.0771
  841MOL0     C10922   1.254   0.632   6.177  0.9287  0.0804  0.1900
  841MOL0     C10923   1.287   0.476   6.159 -0.1458  0.4752  0.0746
  841MOL0    Cl10924   1.338   0.382   6.314  0.1757  0.0437  0.5841
  841MOL0     C10925   2.025   1.095   6.147  0.0909 -0.2543  0.1199
  841MOL0     C10926   2.143   1.082   6.070 -0.3008 -0.7039 -0.5818
  841MOL0     O10927   2.378   0.830   6.028 -0.5583  0.0476 -0.2563
  841MOL0     C10928   2.612   0.835   5.893 -0.6368 -0.7791  0.4021
  841MOL0     C10929   2.735   0.834   5.819  0.9109 -0.7138 -0.0534
  841MOL0     N10930   3.292   1.087   5.833  0.3050  0.5300  1.0085
  841MOL0     N10931   3.245   1.190   5.889 -0.7026  0.1491 -0.0102
  841MOL0     C10932   2.103   1.882   6.181  0.3028  0.0058  0.2446
  841MOL0     C10933   1.991   1.896   6.250 -0.1276 -0.4323  0.3945
  841MOL0     C10934   1.626   1.936   6.499 -0.5141 -0.1927  0.8596
  841MOL0     C10935   1.530   2.025   6.450  0.4895  0.1332 -0.4241
  841MOL0     C10936   1.456   2.102   6.542 -0.0572 -0.5209 -0.1608
  841MOL0     C10937   1.469   2.093   6.680 -0.7256 -0.8113 -0.9475
  841MOL0     O10938   1.400   2.166   6.773  0.1110 -0.1236  0.2796
  841MOL0     C10939   1.279   2.236   6.714 -0.2482 -0.6421 -0.2302
  841MOL0     C10940   1.215   2.302   6.833 -0.6381  0.2817 -0.4502
  841MOL0     C10941   1.157   2.205   6.935 -0.2020  0.5085  0.1412
  841MOL0     C10942   1.120   2.275   7.063  0.0851 -0.0113  0.6477
  841MOL0     C10943   1.066   2.166   7.150 -1.0893  0.4717  0.4599
  841MOL0     C10944   1.016   2.078   7.228 -0.0577 -0.1871 -0.2202
  841MOL0     C10945   1.575   2.019   6.721  0.1024  0.2715 -0.9074
  841MOL0     C10946   1.649   1.941   6.640 -0.2260 -0.6101  0.3694
  841MOL0     H10947   2.069   1.726   6.528 -1.8782 -2.3685 -0.0901
  841MOL0     H10948   2.295   1.707   6.397  1.9796  3.0636 -0.7248
  841MOL0     H10949   2.365   1.596   6.164  0.5200 -0.4231  1.0687
  841MOL0     H10950   2.466   1.691   6.265  1.4303  0.2123  0.3805
  841MOL0     H10951   2.595   1.796   6.084 -1.3524 -1.0433  2.0604
  841MOL0     H10952   2.462   1.756   5.966 -3.9442 -2.2317  0.5923
  841MOL0     H10953   2.514   1.513   5.971 -1.2920  0.8683  1.3164
  841MOL0     H10954   2.635   1.536   6.092 -1.6284  0.3908  1.0449
  841MOL0     H10955   2.635   1.644   5.805 -0.3897  2.8884  2.1347
  841MOL0     H10956   2.751   1.697   5.921 -1.4099  1.0982  2.3157
  841MOL0     H10957   2.700   1.401   5.838 -0.3046 -0.1053  2.2404
  841MOL0     H10958   2.824   1.472   5.951 -0.4094  2.4835  1.3592
  841MOL0     H10959   2.941   1.588   5.775 -2.6625  0.1008  1.1024
  841MOL0     H10960   2.819   1.555   5.665 -0.4793  3.7566  1.9905
  841MOL0     H10961   2.881   1.304   5.722  0.6876 -0.4365  1.4905
  841MOL0     H10962   2.976   1.392   5.605  0.5973 -1.3105  0.7187
  841MOL0     H10963   3.047   1.378   5.902 -1.8717  0.4337 -1.3374
  841MOL0     H10964   3.162   1.429   5.772 -1.3808  2.9433 -0.5306
  841MOL0     H10965   3.100   1.180   5.595  0.5909  0.1761 -0.4048
  841MOL0     H10966   3.338   0.869   5.702  0.8267  0.1291 -1.3097
  841MOL0     H10967   3.349   0.969   5.557  1.6698 -1.4608  0.2734
  841MOL0     H10968   3.222   0.800   5.503  2.8904 -0.1831  3.2963
  841MOL0     H10969   3.106   0.943   5.514  0.3662  0.2897 -0.3313
  841MOL0     H10970   2.989   0.735   5.611 -0.7797  0.5119  1.5282
  841MOL0     H10971   3.135   0.693   5.703 -0.9404 -0.3905  1.3074
  841MOL0     H10972   3.123   0.882   5.839  0.6044  3.1821 -2.5890
  841MOL0     H10973   2.991   0.769   5.861  2.4554  0.1645  2.2412
  841MOL0     H10974   2.870   1.116   5.939 -0.5319  1.1557 -1.1546
  841MOL0     H10975   2.644   1.121   6.064 -4.1694 -1.6846 -1.1270
  841MOL0     H10976   2.365   1.029   6.320 -0.4227 -1.4500  0.1145
  841MOL0     H10977   2.153   1.007   6.454  0.7566 -3.3862 -1.1827
  841MOL0     H10978   1.825   0.911   6.250 -1.3841 -0.4548 -0.7656
  841MOL0     H10979   1.757   1.072   6.214  2.9363 -1.6642 -2.7060
  841MOL0     H10980   1.666   1.071   6.444  2.1949  1.1368  1.0473
  841MOL0     H10981   1.750   0.918   6.482  1.8404  0.1916 -1.0436
  841MOL0     H10982   1.521   0.873   6.453 -2.1918 -0.3794 -1.4765
  841MOL0     H10983   1.602   0.791   6.319 -0.3152  0.2280 -0.2826
  841MOL0     H10984   1.458   1.055   6.279  1.7909 -0.7024  2.6803
  841MOL0     H10985   1.522   0.945   6.152 -2.0707  0.4582 -0.0997
  841MOL0     H10986   1.299   0.895   6.162  1.2994 -1.0155 -0.5054
  841MOL0     H10987   1.290   0.892   6.342  0.5548 -1.8235  1.3508
  841MOL0     H10988   1.397   0.670   6.344 -1.4110 -0.0578  0.4541
  841MOL0     H10989   1.464   0.695   6.182 -1.1232 -0.3455 -1.1415
  841MOL0     H10990   1.164   0.654   6.235  0.7887  0.8161 -0.2975
  841MOL0     H10991   1.242   0.669   6.075  1.9908 -2.6257 -1.0210
  841MOL0     H10992   1.378   0.463   6.099 -0.5855 -4.3073  0.0099
  841MOL0     H10993   1.192   0.437   6.121 -1.8772  2.1305  2.3859
  841MOL0     H10994   1.936   1.125   6.091  1.2283  0.2133 -1.5141
  841MOL0     H10995   2.136   1.100   5.963 -0.2401 -0.1058 -0.4865
  841MOL0     H10996   2.538   0.760   5.867 -1.8970  0.0812  1.4186
  841MOL0     H10997   2.760   0.753   5.752  4.6007 -1.4953  2.0039
  841MOL0     H10998   2.098   1.923   6.080 -3.0792  1.1588  0.7589
  841MOL0     H10999   1.918   1.960   6.202 -0.2387 -1.9489 -1.6448
  841MOL0     H11000   1.519   2.023   6.342 -1.8613 -2.7417 -0.2790
  841MOL0     H11001   1.379   2.169   6.504 -0.2995 -1.1385 -0.7727
  841MOL0     H11002   1.205   2.165   6.676  1.4167 -2.0661 -0.9476
  841MOL0     H11003   1.295   2.319   6.644  3.6617 -0.8494  0.1864
  841MOL0     H11004   1.293   2.367   6.873 -0.0717 -0.0828 -0.9449
  841MOL0     H11005   1.139   2.363   6.782  0.0921 -0.9464 -3.2096
  841MOL0     H11006   1.230   2.127   6.958 -0.2436  0.4829  0.1860
  841MOL0     H11007   1.067   2.161   6.891 -1.5418  0.9776  2.2394
  841MOL0     H11008   1.207   2.332   7.096 -0.6037 -0.4258  3.4412
  841MOL0     H11009   1.056   2.361   7.039  0.4195  0.0612 -0.0171
  841MOL0     H11010   0.967   2.004   7.289 -2.4627  0.8203 -0.8335
  841MOL0     H11011   1.595   2.026   6.828  1.1078  3.0224 -1.1883
  841MOL0     H11012   1.737   1.891   6.677  1.0662  0.2949 -1.2988
  842MOL0     O11013   9.826   4.239   3.392 -0.3791  0.0839 -0.0189
  842MOL0     C11014   9.804   4.193   3.507  0.7658 -0.8273 -0.0400
  842MOL0     O11015   9.888   4.197   3.612 -0.3992  0.3514  0.1059
  842MOL0     C11016  10.004   4.266   3.610  0.7870  0.1181 -0.3982
  842MOL0     C11017  10.035   4.349   3.719  0.1056 -0.0531  0.0690
  842MOL0     C11018  10.166   4.403   3.725  0.4735 -0.8603  0.4348
  842MOL0     C11019  10.262   4.367   3.624  0.8168  0.2309 -0.5479
  842MOL0     O11020  10.381   4.437   3.629 -0.6030 -0.4793 -0.2624
  842MOL0     C11021  10.446   4.465   3.505  0.3496 -0.1125  0.0941
  842MOL0     C11022  10.544   4.575   3.535  1.0286 -0.5478  0.3155
  842MOL0     C11023  10.654   4.519   3.616  0.5642  0.3998 -0.5662
  842MOL0     C11024  10.772   4.617   3.621 -0.1344  0.4998  0.4829
  842MOL0     C11025  10.895   4.551   3.691 -0.0476  0.7035 -0.2867
  842MOL0     C11026  11.028   4.630   3.681  0.3069 -0.2226 -0.2849
  842MOL0     C11027  11.028   4.755   3.771  0.2067 -0.3535 -0.9401
  842MOL0     C11028  11.156   4.829   3.757  0.6099  0.5748  0.4608
  842MOL0     N11029  11.161   4.960   3.820 -0.3152 -0.6659 -0.2292
  842MOL0     C11030  11.188   5.072   3.744 -0.5872 -0.6391  0.4904
  842MOL0     C11031  11.225   5.167   3.825 -0.6486  0.5852  0.2510
  842MOL0     C11032  11.263   5.303   3.774  0.4065 -1.0570  0.4606
  842MOL0     C11033  11.352   5.357   3.892  0.3868 -0.2940  0.2546
  842MOL0     C11034  11.381   5.504   3.864  0.8549 -0.1787  0.9919
  842MOL0     C11035  11.481   5.577   3.945 -0.3527 -0.4597 -0.7025
  842MOL0     O11036  11.476   5.707   3.891 -0.5042  0.0108 -0.1578
  842MOL0     C11037  11.547   5.814   3.947 -0.4122 -0.0867  0.2666
  842MOL0     C11038  11.624   5.808   4.060  0.6390  0.4861  0.8086
  842MOL0     C11039  11.700   5.918   4.099 -0.6482  0.4778  0.1116
  842MOL0     C11040  11.693   6.040   4.036  1.7537 -1.0039  0.2844
  842MOL0     C11041  11.760   6.158   4.089  0.7530  0.1125  0.2241
  842MOL0     O11042  11.796   6.159   4.217 -0.2204 -0.6024  0.3409
  842MOL0     C11043  11.875   6.246   4.279 -0.1353  0.6450  0.1638
  842MOL0     C11044  11.974   6.324   4.216 -0.1188  0.2127  0.6052
  842MOL0     C11045  12.063   6.410   4.283  0.1282  0.3458  0.0588
  842MOL0     C11046  12.070   6.395   4.427 -0.0144  0.1338  0.0263
  842MOL0     O11047  12.148   6.472   4.499  1.1213 -0.0282  0.7536
  842MOL0     C11048  12.244   6.406   4.580 -0.0453  0.2787  0.2609
  842MOL0     C11049  12.327   6.498   4.674  0.0442  0.0466  1.2181
  842MOL0     C11050  12.250   6.557   4.792 -0.0093 -0.0184 -0.6787
  842MOL0     C11051  12.326   6.669   4.857  0.1090 -0.0074  0.2570
  842MOL0     C11052  12.222   6.747   4.955  0.2410 -0.5338 -0.1010
  842MOL0     C11053  12.299   6.831   5.059  0.2036  0.5612 -0.3421
  842MOL0     C11054  12.383   6.751   5.170  0.1216 -0.7552 -0.2976
  842MOL0     C11055  12.371   6.811   5.313 -0.1471  0.4463  0.1047
  842MOL0    Cl11056  12.458   6.698   5.409  0.2518  0.0641 -0.3368
  842MOL0     C11057  11.982   6.300   4.496 -0.2160 -1.1169 -0.3432
  842MOL0     C11058  11.883   6.232   4.422 -0.8107 -0.5610  0.5857
  842MOL0     O11059  11.770   6.252   4.016  0.6771 -0.9489  1.0627
  842MOL0     C11060  11.609   6.051   3.922  0.4462  0.3693 -0.7607
  842MOL0     C11061  11.540   5.937   3.880 -0.4843 -0.0794 -0.3917
  842MOL0     N11062  11.244   5.105   3.944  0.1405  0.7154 -0.1969
  842MOL0     N11063  11.206   4.982   3.944  0.1833 -0.6464  0.0070
  842MOL0     C11064  10.228   4.280   3.524  0.0168 -0.2846  0.1686
  842MOL0     C11065  10.100   4.233   3.518 -0.2709 -1.1673  0.0777
  842MOL0     C11066   9.670   4.140   3.540  0.6573  0.7107 -0.3448
  842MOL0     C11067   9.641   4.119   3.676 -0.4730  0.4488  0.3859
  842MOL0     C11068   9.513   4.095   3.722  0.9513 -1.1305 -0.3513
  842MOL0     C11069   9.415   4.064   3.631  0.1566  0.0616 -0.2441
  842MOL0     O11070   9.289   4.052   3.683 -0.4087 -0.3600 -0.8418
  842MOL0     C11071   9.182   4.005   3.604 -0.3650  1.0403 -0.8043
  842MOL0     C11072   9.085   3.952   3.712  0.3702  1.2069  0.2047
  842MOL0     C11073   9.021   4.062   3.790 -0.7812 -0.5284  0.0114
  842MOL0     C11074   8.874   4.074   3.779 -0.0879  0.7172  0.1247
  842MOL0     C11075   8.839   4.200   3.841 -0.5419 -0.0912 -0.1454
  842MOL0     C11076   8.808   4.306   3.896 -1.3845 -0.1216  0.3963
  842MOL0     C11077   9.446   4.068   3.494  0.2230  1.0118  0.1712
  842MOL0     C11078   9.573   4.107   3.447  0.4405 -0.3259 -0.4744
  842MOL0     H11079   9.965   4.373   3.798 -0.2269 -1.4852  0.2389
  842MOL0     H11080  10.190   4.466   3.809 -1.7407 -1.2107  1.4251
  842MOL0     H11081  10.369   4.508   3.440 -0.4206 -1.8078 -0.1852
  842MOL0     H11082  10.490   4.381   3.450  0.1597 -0.5738  0.6432
  842MOL0     H11083  10.511   4.667   3.583  1.4911  1.5419 -3.0268
  842MOL0     H11084  10.586   4.609   3.440  0.1209  1.0838  0.4731
  842MOL0     H11085  10.684   4.424   3.571 -1.1341  0.8078 -2.7003
  842MOL0     H11086  10.621   4.499   3.719 -1.5694 -1.3953 -1.5314
  842MOL0     H11087  10.804   4.643   3.519  5.3291 -2.4564  1.0483
  842MOL0     H11088  10.743   4.708   3.673  0.0427 -0.6577  2.7293
  842MOL0     H11089  10.903   4.452   3.647 -2.1028  0.1929  0.3726
  842MOL0     H11090  10.875   4.547   3.798  2.5306  0.7402  0.2574
  842MOL0     H11091  11.042   4.663   3.578 -4.3596  4.5478  0.2134
  842MOL0     H11092  11.114   4.571   3.716  0.2636 -1.4621 -2.1219
  842MOL0     H11093  10.952   4.827   3.737 -1.2632 -0.6034  1.5504
  842MOL0     H11094  11.013   4.736   3.878  1.1603  0.0714 -0.7167
  842MOL0     H11095  11.167   4.835   3.648  0.3820 -0.4386  0.3680
  842MOL0     H11096  11.241   4.767   3.786 -1.5676 -2.0344  1.8505
  842MOL0     H11097  11.170   5.089   3.638  4.0639 -0.9381 -0.5611
  842MOL0     H11098  11.180   5.371   3.751  2.4456  1.1666 -0.8646
  842MOL0     H11099  11.330   5.292   3.688  0.7769 -0.5953  0.6836
  842MOL0     H11100  11.444   5.300   3.899 -0.1173 -1.1088  0.3801
  842MOL0     H11101  11.294   5.353   3.985 -0.0573 -0.4546 -0.0271
  842MOL0     H11102  11.405   5.517   3.758  0.0255  0.9064  0.9276
  842MOL0     H11103  11.287   5.558   3.870  0.8801  0.4382 -2.1054
  842MOL0     H11104  11.582   5.533   3.942  0.6313  1.6983 -2.3596
  842MOL0     H11105  11.450   5.574   4.050 -3.9236 -0.7785 -1.6352
  842MOL0     H11106  11.624   5.711   4.109  2.5929 -0.8625 -1.6857
  842MOL0     H11107  11.752   5.905   4.194  1.8497  2.5632 -0.8624
  842MOL0     H11108  11.981   6.330   4.108  2.1367  4.6669  0.7755
  842MOL0     H11109  12.121   6.488   4.234 -1.3506  1.0230 -0.7001
  842MOL0     H11110  12.306   6.352   4.508 -0.1004 -2.0779  1.8795
  842MOL0     H11111  12.187   6.330   4.634 -1.1068  0.5419 -0.4516
  842MOL0     H11112  12.364   6.577   4.608 -1.1152  1.0105  1.7039
  842MOL0     H11113  12.416   6.441   4.705  1.9453  1.5408 -1.1181
  842MOL0     H11114  12.226   6.491   4.876 -1.1338  2.1765  0.8549
  842MOL0     H11115  12.150   6.589   4.760 -1.5259  0.3799  3.7107
  842MOL0     H11116  12.412   6.629   4.911 -0.8470 -0.9189  1.1532
  842MOL0     H11117  12.351   6.736   4.774  2.1963 -1.8658 -0.7047
  842MOL0     H11118  12.150   6.686   5.011 -1.0991 -1.1069 -2.3107
  842MOL0     H11119  12.157   6.814   4.897 -0.1652  0.7705  1.7912
  842MOL0     H11120  12.230   6.894   5.116 -1.3973 -0.4687 -1.0586
  842MOL0     H11121  12.358   6.911   5.014  2.7663  1.1271  3.5853
  842MOL0     H11122  12.348   6.647   5.173  0.1130 -0.7450 -0.0175
  842MOL0     H11123  12.486   6.756   5.135 -0.1339  0.6037 -0.9253
  842MOL0     H11124  12.267   6.822   5.343 -0.3708  0.1674 -0.5579
  842MOL0     H11125  12.420   6.909   5.306  3.3825 -1.2457 -1.1817
  842MOL0     H11126  11.979   6.297   4.605  0.3307  1.0556 -0.2095
  842MOL0     H11127  11.809   6.168   4.469  1.7295 -2.4440  2.2492
  842MOL0     H11128  11.604   6.154   3.885  1.2681  1.8835  2.9403
  842MOL0     H11129  11.480   5.950   3.790  0.4180 -0.2877 -1.0472
  842MOL0     H11130  10.303   4.253   3.451  0.6287 -3.1970  1.7255
  842MOL0     H11131  10.083   4.162   3.437  1.6670 -3.1549  1.2970
  842MOL0     H11132   9.709   4.126   3.761  1.1193 -3.9614 -0.2551
  842MOL0     H11133   9.486   4.097   3.828 -0.9664 -0.6612 -0.8010
  842MOL0     H11134   9.203   3.912   3.550 -2.7543 -0.4218  0.6103
  842MOL0     H11135   9.135   4.077   3.536 -1.6226  0.3353 -0.7171
  842MOL0     H11136   9.005   3.889   3.674  1.7099 -0.6472  0.3149
  842MOL0     H11137   9.151   3.886   3.770  0.4026  2.0912  1.2083
  842MOL0     H11138   9.063   4.158   3.756 -0.1643 -0.4817  0.8717
  842MOL0     H11139   9.049   4.049   3.895 -0.7233  1.7121  0.3323
  842MOL0     H11140   8.841   4.075   3.675 -1.2623 -1.2060  0.4217
  842MOL0     H11141   8.822   3.996   3.836  0.2117  0.7212  0.4044
  842MOL0     H11142   8.770   4.399   3.931  2.0363  1.2927  0.7673
  842MOL0     H11143   9.365   4.061   3.422 -2.0517  3.5971  2.2560
  842MOL0     H11144   9.600   4.127   3.344  1.0572  1.8843  0.0745
  843MOL0     O11145   0.242   3.254  10.365  0.7751  0.3256  0.8479
  843MOL0     C11146   0.156   3.197  10.304 -0.5539 -0.1061 -0.7156
  843MOL0     O11147   0.174   3.128  10.185 -0.4708 -0.2704 -0.7648
  843MOL0     C11148   0.294   3.093  10.127 -0.0359 -0.5002 -1.1859
  843MOL0     C11149   0.402   3.048  10.203 -0.3247 -0.5143  0.4837
  843MOL0     C11150   0.526   3.021  10.148  0.1959  0.9150 -0.6567
  843MOL0     C11151   0.537   3.021  10.010 -0.7260  0.5209 -0.3107
  843MOL0     O11152   0.665   3.016   9.966  0.5601  0.8468 -1.1555
  843MOL0     C11153   0.704   3.120   9.869 -0.2668  0.2265  0.9261
  843MOL0     C11154   0.726   3.062   9.737  0.2043 -0.1889  0.7346
  843MOL0     C11155   0.849   3.126   9.663 -0.6510 -0.3108  0.4432
  843MOL0     C11156   0.880   3.076   9.523 -0.0434  1.1150 -0.9116
  843MOL0     C11157   1.028   3.106   9.486 -0.3235 -0.2625 -0.4679
  843MOL0     C11158   1.131   3.020   9.559  0.0702 -0.8878 -0.3240
  843MOL0     C11159   1.255   2.989   9.478 -1.0286  1.2707  0.3907
  843MOL0     C11160   1.370   3.082   9.468 -1.0386 -0.2457 -0.8733
  843MOL0     N11161   1.477   3.040   9.375 -0.9785 -0.0092 -0.4583
  843MOL0     C11162   1.589   2.957   9.409 -0.0967 -0.1181 -0.0455
  843MOL0     C11163   1.648   2.935   9.295 -0.0438  0.6167  0.7706
  843MOL0     C11164   1.768   2.832   9.263 -0.8816 -0.8617  0.2366
  843MOL0     C11165   1.904   2.910   9.282 -0.1449  0.3579 -0.1020
  843MOL0     C11166   2.028   2.828   9.300  0.3034 -0.7724  0.3106
  843MOL0     C11167   2.050   2.754   9.428 -0.1380 -0.4871 -0.1296
  843MOL0     O11168   2.145   2.649   9.428 -1.0977  1.0047 -0.7059
  843MOL0     C11169   2.281   2.677   9.436 -0.1529 -0.0567 -0.6070
  843MOL0     C11170   2.337   2.804   9.414  0.0904 -0.7185 -0.0906
  843MOL0     C11171   2.475   2.819   9.422 -0.0467  0.0425 -0.2470
  843MOL0     C11172   2.558   2.706   9.449 -0.3106 -0.8814 -0.4377
  843MOL0     C11173   2.703   2.727   9.467 -0.5495  1.2348  1.4522
  843MOL0     O11174   2.786   2.614   9.454 -0.1857 -0.3353 -1.0585
  843MOL0     C11175   2.915   2.629   9.496  0.3073 -0.7095  0.6579
  843MOL0     C11176   2.946   2.692   9.614  0.2478  0.2217 -0.4706
  843MOL0     C11177   3.073   2.699   9.654 -0.1319 -0.1649 -0.3505
  843MOL0     C11178   3.173   2.627   9.579  0.3601 -0.2247  0.6846
  843MOL0     O11179   3.303   2.615   9.608 -0.6013  0.7489  0.0343
  843MOL0     C11180   3.352   2.647   9.735  0.0494 -0.1068 -0.4143
  843MOL0     C11181   3.489   2.584   9.739 -0.0774 -0.4064 -0.2705
  843MOL0     C11182   3.562   2.629   9.868  0.1812  0.4897 -0.7741
  843MOL0     C11183   3.597   2.787   9.877  0.2482  0.1807  0.3735
  843MOL0     C11184   3.630   2.820  10.019  0.3009  0.1219 -1.0391
  843MOL0     C11185   3.747   2.747  10.075  0.3238 -0.5854 -0.4618
  843MOL0     C11186   3.768   2.768  10.224 -0.1781 -0.6856  0.0330
  843MOL0     C11187   3.912   2.720  10.267 -0.2369  0.6644 -0.7678
  843MOL0    Cl11188   3.908   2.540  10.254  0.0183 -0.3594 -0.4869
  843MOL0     C11189   3.142   2.578   9.453 -0.8896  0.4661  0.5172
  843MOL0     C11190   3.008   2.581   9.407 -0.1215 -0.0254 -0.3167
  843MOL0     O11191   2.745   2.840   9.487 -0.2759  0.3412  0.4651
  843MOL0     C11192   2.501   2.581   9.461 -0.4474  0.4205  0.4415
  843MOL0     C11193   2.362   2.573   9.462 -0.0297  0.6280 -0.4411
  843MOL0     N11194   1.586   3.014   9.192  0.7116  0.1064  0.0769
  843MOL0     N11195   1.484   3.068   9.237 -0.5029  0.2956 -0.2343
  843MOL0     C11196   0.423   3.057   9.931  0.0811  0.4564  0.5286
  843MOL0     C11197   0.299   3.097   9.988  0.5448 -0.9561  0.2918
  843MOL0     C11198   0.015   3.204  10.348 -0.1293 -0.3123  0.0835
  843MOL0     C11199  -0.082   3.112  10.301  0.4057 -0.4126 -1.3438
  843MOL0     C11200  -0.218   3.113  10.350  0.6714  0.3057 -0.0074
  843MOL0     C11201  -0.258   3.211  10.434  0.3749  0.3513 -1.2785
  843MOL0     O11202  -0.393   3.225  10.450 -0.1939 -0.4192  0.2441
  843MOL0     C11203  -0.438   3.305  10.558  0.0544  1.2949 -0.4571
  843MOL0     C11204  -0.569   3.244  10.593 -0.3772 -0.1397 -0.4928
  843MOL0     C11205  -0.667   3.340  10.663  0.3496 -0.2688 -0.3504
  843MOL0     C11206  -0.802   3.264  10.695  0.7649  0.5057  0.4700
  843MOL0     C11207  -0.883   3.356  10.768  0.5823 -0.4884 -0.2434
  843MOL0     C11208  -0.955   3.443  10.824  0.1717  0.1121  0.1591
  843MOL0     C11209  -0.166   3.298  10.489  0.3357 -0.1948  0.3183
  843MOL0     C11210  -0.034   3.291  10.445 -0.7048  0.0077  0.4735
  843MOL0     H11211   0.411   3.051  10.311  1.0032 -1.1505  0.4142
  843MOL0     H11212   0.610   2.999  10.212 -0.5050 -1.4598 -0.4492
  843MOL0     H11213   0.800   3.167   9.893 -0.1452  2.0060 -2.4379
  843MOL0     H11214   0.639   3.208   9.869 -0.3665  0.1622  0.0522
  843MOL0     H11215   0.635   3.083   9.680 -0.0796 -0.1546  1.1930
  843MOL0     H11216   0.737   2.954   9.738  1.6091 -0.1323 -1.3637
  843MOL0     H11217   0.942   3.112   9.720  1.5079 -1.0462 -2.9870
  843MOL0     H11218   0.835   3.234   9.648 -0.3208  0.0320  2.2698
  843MOL0     H11219   0.862   2.970   9.503 -1.4031  0.9090  1.0223
  843MOL0     H11220   0.804   3.113   9.453 -1.5087 -1.1746 -0.6415
  843MOL0     H11221   1.053   3.211   9.499 -0.4306 -0.2580 -0.2869
  843MOL0     H11222   1.031   3.094   9.377  0.0558  0.8377 -0.5839
  843MOL0     H11223   1.097   2.918   9.577  0.9296 -0.9704  1.0042
  843MOL0     H11224   1.153   3.062   9.658 -1.3839 -0.7730 -0.0272
  843MOL0     H11225   1.285   2.890   9.511 -0.2063  0.7444 -1.7481
  843MOL0     H11226   1.213   2.966   9.380 -0.6912 -1.2169  0.7754
  843MOL0     H11227   1.413   3.099   9.567  0.9775 -1.3162 -1.5132
  843MOL0     H11228   1.323   3.174   9.432  2.5250  1.6768 -1.0877
  843MOL0     H11229   1.616   2.906   9.501 -0.3733 -1.4281 -0.6665
  843MOL0     H11230   1.752   2.791   9.163 -1.9328  0.6902 -0.2654
  843MOL0     H11231   1.771   2.746   9.331  2.9708 -2.2701 -1.4030
  843MOL0     H11232   1.897   2.977   9.368  1.5858 -0.1166  0.4448
  843MOL0     H11233   1.916   2.971   9.192 -1.6825  1.5737  0.4743
  843MOL0     H11234   2.047   2.757   9.219 -1.3226 -1.1701  0.2395
  843MOL0     H11235   2.110   2.901   9.295  1.6764 -2.3284 -1.4456
  843MOL0     H11236   1.961   2.707   9.469 -0.2273 -1.3781 -1.2770
  843MOL0     H11237   2.080   2.824   9.506 -1.1813 -2.1276  1.8377
  843MOL0     H11238   2.271   2.888   9.395 -1.5065 -1.4511  1.8737
  843MOL0     H11239   2.503   2.920   9.394  0.1710  0.3231  0.9384
  843MOL0     H11240   2.867   2.736   9.674 -2.1887 -4.2325  0.0607
  843MOL0     H11241   3.109   2.750   9.743  1.8054 -0.3568 -0.9848
  843MOL0     H11242   3.289   2.611   9.818 -0.2154 -0.4892 -0.7783
  843MOL0     H11243   3.355   2.756   9.747 -0.7469 -0.0548 -0.6314
  843MOL0     H11244   3.547   2.622   9.655  1.6107 -1.9421  0.1347
  843MOL0     H11245   3.488   2.475   9.743 -1.3677 -0.4168 -0.5715
  843MOL0     H11246   3.660   2.582   9.873  0.6164  1.4166 -0.3949
  843MOL0     H11247   3.503   2.595   9.954 -0.4933 -1.7233 -2.0281
  843MOL0     H11248   3.686   2.817   9.819  0.9229  0.5401  1.5576
  843MOL0     H11249   3.512   2.851   9.852 -0.7811 -0.3488  2.3162
  843MOL0     H11250   3.549   2.802  10.089  0.3755  2.3920 -0.2933
  843MOL0     H11251   3.648   2.928  10.025  1.9621 -0.1093 -1.1433
  843MOL0     H11252   3.832   2.777  10.013  0.7611 -0.6184  0.1134
  843MOL0     H11253   3.730   2.640  10.060 -1.5634 -0.3806 -0.0389
  843MOL0     H11254   3.765   2.876  10.243  2.5353  0.2087 -3.4993
  843MOL0     H11255   3.697   2.719  10.292  1.1910 -0.1103  1.9717
  843MOL0     H11256   3.924   2.748  10.372 -2.3562 -1.3376  0.0896
  843MOL0     H11257   3.983   2.767  10.198  0.7813  2.6071  1.4512
  843MOL0     H11258   3.219   2.532   9.393 -1.1406  0.4594  0.1999
  843MOL0     H11259   2.975   2.533   9.316  0.0970 -3.5223  1.2854
  843MOL0     H11260   2.573   2.501   9.470  0.6999  1.1868 -1.2869
  843MOL0     H11261   2.309   2.479   9.459 -2.5670  1.9963 -1.0729
  843MOL0     H11262   0.422   3.052   9.823 -0.2772 -1.0446  0.5839
  843MOL0     H11263   0.221   3.135   9.923  0.0652  0.0773  1.4385
  843MOL0     H11264  -0.058   3.051  10.214 -1.4542  0.4186 -2.5038
  843MOL0     H11265  -0.278   3.046  10.290  2.6155  1.6034 -3.7306
  843MOL0     H11266  -0.448   3.409  10.527 -3.6131  1.2163 -0.0265
  843MOL0     H11267  -0.367   3.287  10.640  1.6270  1.5330 -1.7253
  843MOL0     H11268  -0.617   3.212  10.500  0.5620 -3.4984  0.0542
  843MOL0     H11269  -0.548   3.156  10.654  0.3510 -0.9160 -1.8175
  843MOL0     H11270  -0.695   3.431  10.607  0.6237  0.4658  0.6760
  843MOL0     H11271  -0.618   3.378  10.753 -0.6245 -3.8985  1.9156
  843MOL0     H11272  -0.862   3.230  10.609 -2.8524 -1.4458  3.4586
  843MOL0     H11273  -0.785   3.169  10.746  2.1771 -0.7313 -2.1131
  843MOL0     H11274  -1.002   3.519  10.884  2.0215  1.5946 -0.1825
  843MOL0     H11275  -0.182   3.386  10.549  1.8234  0.1469  0.2591
  843MOL0     H11276   0.038   3.364  10.481 -0.8865  1.2399 -1.5196
  844MOL0     O11277   2.211  11.053   6.399 -0.1180 -0.1523 -0.0510
  844MOL0     C11278   2.262  10.979   6.315  1.0579 -0.3772 -0.3941
  844MOL0     O11279   2.206  10.856   6.280 -0.3018  0.6210  0.7370
  844MOL0     C11280   2.085  10.815   6.322  0.7868  0.4032  0.7671
  844MOL0     C11281   1.984  10.816   6.236 -0.2960  1.0425 -1.0222
  844MOL0     C11282   1.859  10.760   6.271 -0.5449 -0.1668 -0.3487
  844MOL0     C11283   1.822  10.713   6.402 -0.2331  0.1519 -0.6469
  844MOL0     O11284   1.697  10.665   6.429  0.4071 -0.5153  0.1647
  844MOL0     C11285   1.586  10.747   6.389  0.5003  0.3083 -0.2232
  844MOL0     C11286   1.455  10.672   6.391 -1.7550  0.2610  0.5183
  844MOL0     C11287   1.342  10.758   6.350  0.0634 -0.2183  0.3942
  844MOL0     C11288   1.208  10.687   6.388 -0.7676  1.0166  1.4207
  844MOL0     C11289   1.089  10.779   6.398  0.9936 -0.7430  0.3723
  844MOL0     C11290   1.062  10.855   6.260 -0.3639 -0.7481  0.0851
  844MOL0     C11291   0.957  10.970   6.289 -0.0820  0.6411 -0.7627
  844MOL0     C11292   0.899  11.041   6.172  0.4510 -0.0499 -0.0617
  844MOL0     N11293   0.806  11.143   6.220  0.2793  0.4130  0.0572
  844MOL0     C11294   0.842  11.274   6.253  0.1924 -0.1068 -0.1148
  844MOL0     C11295   0.729  11.320   6.307 -0.1547  0.6002 -0.3224
  844MOL0     C11296   0.702  11.448   6.367  0.3685  0.1210  0.4086
  844MOL0     C11297   0.621  11.522   6.267 -0.2897  0.1678 -0.3126
  844MOL0     C11298   0.609  11.667   6.315  0.4911 -0.1793 -0.6305
  844MOL0     C11299   0.527  11.750   6.210 -0.3193  0.5217  0.4030
  844MOL0     O11300   0.399  11.730   6.260 -0.1612  0.0242  1.0351
  844MOL0     C11301   0.296  11.759   6.181  0.6183  0.1618  1.0205
  844MOL0     C11302   0.170  11.758   6.252  1.0133 -0.5358  0.3816
  844MOL0     C11303   0.048  11.805   6.192  0.0199 -0.1887  0.4069
  844MOL0     C11304   0.049  11.837   6.054  0.4727 -0.6489 -0.2438
  844MOL0     C11305  -0.082  11.888   6.008  0.4855 -0.0918 -0.7247
  844MOL0     O11306  -0.200  11.840   6.053  0.0860 -0.0210  0.3829
  844MOL0     C11307  -0.317  11.905   6.011 -0.4032 -0.4965 -0.1820
  844MOL0     C11308  -0.399  11.846   5.912 -1.4007  0.6577 -1.5836
  844MOL0     C11309  -0.510  11.925   5.869  0.0292  0.9150 -0.5145
  844MOL0     C11310  -0.545  12.057   5.908  0.1478 -0.2513  0.4464
  844MOL0     O11311  -0.643  12.130   5.836 -0.0738 -0.3239 -0.2174
  844MOL0     C11312  -0.701  12.246   5.901  0.2214 -0.2695  1.0392
  844MOL0     C11313  -0.812  12.314   5.823 -0.4968  0.0885  0.5646
  844MOL0     C11314  -0.904  12.400   5.922  0.1891  0.1584  0.7663
  844MOL0     C11315  -0.833  12.499   6.024  0.4124  0.3429 -0.2762
  844MOL0     C11316  -0.740  12.602   5.962 -0.4743  0.7043  0.2728
  844MOL0     C11317  -0.641  12.665   6.057 -0.6228  0.4444 -1.0006
  844MOL0     C11318  -0.715  12.720   6.183 -0.1971 -0.0803 -0.4150
  844MOL0     C11319  -0.610  12.772   6.283  0.0062 -0.1514 -0.2226
  844MOL0    Cl11320  -0.500  12.902   6.210  0.2483 -0.5264  0.1086
  844MOL0     C11321  -0.458  12.111   5.997 -0.7459  0.9744  0.0466
  844MOL0     C11322  -0.350  12.036   6.053  0.4960 -0.1539 -0.2582
  844MOL0     O11323  -0.073  11.984   5.930  0.4673 -0.1289  0.4217
  844MOL0     C11324   0.168  11.833   5.976 -0.1494 -0.3246 -0.5936
  844MOL0     C11325   0.296  11.798   6.048  0.1668  0.1807  1.0021
  844MOL0     N11326   0.625  11.220   6.323  0.5897 -1.2846  0.1582
  844MOL0     N11327   0.673  11.118   6.256  0.2266 -0.1906 -0.8517
  844MOL0     C11328   1.925  10.733   6.496  0.3265  0.3778 -1.1964
  844MOL0     C11329   2.053  10.776   6.454  0.1501  0.2787  0.8739
  844MOL0     C11330   2.376  11.031   6.251 -0.5103 -0.7834  1.3188
  844MOL0     C11331   2.437  10.972   6.132 -0.2976 -0.5018  0.6074
  844MOL0     C11332   2.544  11.025   6.060  0.2344 -1.1165 -0.6869
  844MOL0     C11333   2.606  11.141   6.112  0.0990 -0.4531  0.5965
  844MOL0     O11334   2.703  11.198   6.033 -0.0134  1.0522 -0.6591
  844MOL0     C11335   2.784  11.300   6.087  2.2869 -0.4447  0.6165
  844MOL0     C11336   2.892  11.332   5.990 -0.4899 -0.0797 -0.3401
  844MOL0     C11337   2.990  11.213   5.972 -0.6512  0.5327 -0.0281
  844MOL0     C11338   3.117  11.228   5.888 -0.0009  0.3317 -0.8822
  844MOL0     C11339   3.195  11.342   5.943 -0.3712 -0.6460 -0.1209
  844MOL0     C11340   3.261  11.437   5.986  0.5513 -0.7651 -0.6715
  844MOL0     C11341   2.563  11.197   6.234 -1.1294 -0.4943  0.2146
  844MOL0     C11342   2.447  11.144   6.299 -0.6861 -0.3127  0.7999
  844MOL0     H11343   2.014  10.837   6.134  2.5998 -0.5197 -0.5953
  844MOL0     H11344   1.792  10.752   6.186  1.3200  3.7021 -2.4145
  844MOL0     H11345   1.600  10.806   6.298  0.9049  4.1019  2.0731
  844MOL0     H11346   1.575  10.827   6.463 -3.4211 -0.4760  0.2707
  844MOL0     H11347   1.450  10.616   6.485 -0.2925  3.1089  2.4648
  844MOL0     H11348   1.460  10.595   6.314  0.7689 -1.0128  1.8206
  844MOL0     H11349   1.340  10.788   6.245 -0.8245  3.3116  1.2850
  844MOL0     H11350   1.352  10.859   6.390  1.7096 -0.0780 -0.3066
  844MOL0     H11351   1.190  10.617   6.306 -0.3677  1.7764  0.6630
  844MOL0     H11352   1.217  10.620   6.474 -0.3490 -1.7707 -0.6629
  844MOL0     H11353   1.094  10.847   6.484  0.6863  1.3813 -1.1987
  844MOL0     H11354   1.001  10.715   6.414 -0.0353  0.2849 -0.9471
  844MOL0     H11355   1.030  10.786   6.181 -0.5655 -0.2704 -0.2559
  844MOL0     H11356   1.152  10.912   6.237 -1.8950  2.5716  1.6812
  844MOL0     H11357   0.876  10.916   6.341  0.4189 -1.1391 -1.7404
  844MOL0     H11358   1.004  11.041   6.357 -1.3809  1.3541 -0.5852
  844MOL0     H11359   0.848  10.969   6.107 -1.0010  0.9905 -0.1319
  844MOL0     H11360   0.984  11.087   6.120 -0.8340 -0.1284 -2.3393
  844MOL0     H11361   0.933  11.333   6.241  1.5761 -2.3187 -1.0460
  844MOL0     H11362   0.796  11.500   6.386  0.3085  0.8446 -1.1246
  844MOL0     H11363   0.653  11.432   6.463  1.7249 -4.9337  0.5385
  844MOL0     H11364   0.524  11.474   6.251 -1.4237  2.4799 -0.8036
  844MOL0     H11365   0.673  11.523   6.171 -0.8318  0.6963 -0.6093
  844MOL0     H11366   0.566  11.678   6.415  0.0497 -0.3722 -0.7953
  844MOL0     H11367   0.703  11.722   6.325 -0.1371  0.6222  1.3230
  844MOL0     H11368   0.538  11.717   6.107 -3.3429 -0.9463  0.4297
  844MOL0     H11369   0.542  11.857   6.226 -2.6118  0.8557  0.6572
  844MOL0     H11370   0.163  11.737   6.358 -1.1896  3.2053  1.1796
  844MOL0     H11371  -0.040  11.814   6.255 -0.3560  0.7314 -0.2292
  844MOL0     H11372  -0.366  11.752   5.869 -2.1565  0.3681 -1.5313
  844MOL0     H11373  -0.577  11.886   5.792 -0.1140  0.9681 -0.4177
  844MOL0     H11374  -0.620  12.318   5.917  0.4216  0.2144 -1.7265
  844MOL0     H11375  -0.742  12.212   5.997 -1.9200  1.7739  0.9556
  844MOL0     H11376  -0.876  12.230   5.796  1.6526 -2.3626  2.4328
  844MOL0     H11377  -0.770  12.365   5.735  0.3119 -0.5264  0.5772
  844MOL0     H11378  -0.965  12.328   5.977 -1.5127 -0.0600 -1.2788
  844MOL0     H11379  -0.973  12.452   5.854 -2.3610 -0.8997  2.3940
  844MOL0     H11380  -0.913  12.557   6.070  1.3873  2.1064 -0.7407
  844MOL0     H11381  -0.766  12.448   6.093  1.2092  2.3612  0.4925
  844MOL0     H11382  -0.801  12.686   5.928  0.7754  1.9912  1.0778
  844MOL0     H11383  -0.688  12.570   5.871 -1.8341  1.2291 -0.7259
  844MOL0     H11384  -0.589  12.745   6.005  1.9719  0.4403  1.3668
  844MOL0     H11385  -0.570  12.590   6.094 -2.2732 -0.1487  1.2463
  844MOL0     H11386  -0.770  12.809   6.149  0.6993  0.6200 -0.0895
  844MOL0     H11387  -0.775  12.648   6.239  0.9440 -1.1880 -0.5957
  844MOL0     H11388  -0.548  12.685   6.309  1.2249  1.1481  1.4630
  844MOL0     H11389  -0.658  12.810   6.374  1.3623  0.3950  0.2878
  844MOL0     H11390  -0.480  12.211   6.035  2.1173  1.5648  0.3978
  844MOL0     H11391  -0.292  12.089   6.128 -0.4233 -0.7869  0.9461
  844MOL0     H11392   0.172  11.858   5.871  2.5764  1.7416 -0.1138
  844MOL0     H11393   0.386  11.806   5.987  0.1094  0.8130  0.9971
  844MOL0     H11394   1.900  10.722   6.601  3.0000  2.6564 -0.1993
  844MOL0     H11395   2.133  10.780   6.528  1.6378 -0.1799 -0.6491
  844MOL0     H11396   2.402  10.874   6.103 -1.5181  0.9874 -3.5682
  844MOL0     H11397   2.571  10.976   5.967 -0.1925 -0.8278 -0.9692
  844MOL0     H11398   2.827  11.274   6.184  1.8636  2.2199  1.6040
  844MOL0     H11399   2.718  11.387   6.095  0.6921 -1.4895 -0.4560
  844MOL0     H11400   2.858  11.358   5.890 -1.6076 -0.8359 -0.1740
  844MOL0     H11401   2.949  11.417   6.030 -0.9824 -1.5215  3.9021
  844MOL0     H11402   2.942  11.124   5.931 -1.8537  0.6338  1.1003
  844MOL0     H11403   3.027  11.182   6.070 -0.0026  1.1225 -0.0743
  844MOL0     H11404   3.178  11.137   5.881 -2.7008 -1.8108  1.1837
  844MOL0     H11405   3.090  11.265   5.789 -0.2203  1.7883 -0.2994
  844MOL0     H11406   3.311  11.521   6.030  0.7455 -0.0706 -2.1394
  844MOL0     H11407   2.593  11.296   6.269 -1.0695 -0.8838  1.3113
  844MOL0     H11408   2.424  11.183   6.398 -0.8477  2.1930 -0.1284
  845MOL0     O11409   3.559   7.762   4.838 -1.1536 -0.0533 -0.3994
  845MOL0     C11410   3.443   7.765   4.807  0.9178  0.3302  0.2946
  845MOL0     O11411   3.373   7.859   4.720  0.2365 -0.4425 -0.3333
  845MOL0     C11412   3.445   7.970   4.678  0.1732  0.2659 -0.4819
  845MOL0     C11413   3.436   8.080   4.772  0.3343 -0.1168  0.3281
  845MOL0     C11414   3.501   8.198   4.739 -0.9004 -0.1138 -0.3144
  845MOL0     C11415   3.581   8.203   4.620 -0.4661  0.1639  0.7453
  845MOL0     O11416   3.655   8.318   4.585 -0.6627  0.9255  0.2917
  845MOL0     C11417   3.694   8.418   4.681  0.4865  0.5247  0.1901
  845MOL0     C11418   3.781   8.527   4.615  0.5896 -0.2963 -0.3744
  845MOL0     C11419   3.897   8.487   4.521  0.4181 -0.8572 -0.4566
  845MOL0     C11420   3.946   8.609   4.440 -1.0772  0.3414  0.4189
  845MOL0     C11421   3.960   8.581   4.290 -0.9989  0.7075 -0.6093
  845MOL0     C11422   3.851   8.638   4.197  0.6375 -0.0689 -0.3232
  845MOL0     C11423   3.865   8.793   4.195 -0.4024  0.6708 -0.4156
  845MOL0     C11424   3.737   8.854   4.142  0.0027  0.4271 -0.2949
  845MOL0     N11425   3.635   8.851   4.237  0.0741  0.4959 -0.1476
  845MOL0     C11426   3.506   8.808   4.203  0.0794  0.0123  0.4834
  845MOL0     C11427   3.433   8.845   4.309 -0.0645 -0.3827  0.6007
  845MOL0     C11428   3.290   8.831   4.328  1.2834 -0.3589 -0.3243
  845MOL0     C11429   3.216   8.967   4.375 -0.4585 -0.4111  0.4681
  845MOL0     C11430   3.241   9.093   4.296  0.6177  1.1071  0.2635
  845MOL0     C11431   3.221   9.061   4.142  0.1166 -0.1116 -0.0481
  845MOL0     O11432   3.103   8.988   4.110  0.0740 -0.1591 -0.3830
  845MOL0     C11433   2.983   9.038   4.145 -0.4796 -0.5272  0.3074
  845MOL0     C11434   2.946   9.171   4.139  0.6677  0.2806  0.3335
  845MOL0     C11435   2.805   9.207   4.185 -0.1338 -0.3095 -0.7660
  845MOL0     C11436   2.706   9.118   4.229  0.0006  0.3582  0.9094
  845MOL0     C11437   2.568   9.161   4.271 -0.9125  0.5746 -0.2132
  845MOL0     O11438   2.525   9.291   4.247 -0.2926 -0.5015 -0.3593
  845MOL0     C11439   2.398   9.322   4.300 -0.6461 -0.2115 -0.1319
  845MOL0     C11440   2.281   9.304   4.232 -0.5848 -0.6304  0.2554
  845MOL0     C11441   2.158   9.364   4.272  0.3687  0.2342 -0.2289
  845MOL0     C11442   2.146   9.423   4.400 -0.3562 -0.1630 -0.6772
  845MOL0     O11443   2.038   9.485   4.449  0.6267 -0.8965  0.2590
  845MOL0     C11444   1.902   9.437   4.440 -0.0568  1.3733  0.3693
  845MOL0     C11445   1.825   9.478   4.316  0.9433  0.5345 -0.5453
  845MOL0     C11446   1.881   9.609   4.267 -0.3129 -0.5028  0.8539
  845MOL0     C11447   1.786   9.651   4.160 -0.3701  0.0136 -0.3751
  845MOL0     C11448   1.669   9.719   4.229  0.5602  0.1780 -0.5209
  845MOL0     C11449   1.556   9.761   4.131 -0.3734 -0.3832 -0.1913
  845MOL0     C11450   1.417   9.762   4.189  0.1665  0.5629  0.2974
  845MOL0     C11451   1.340   9.626   4.200 -0.1020 -0.4395 -0.1580
  845MOL0    Cl11452   1.291   9.577   4.038 -0.0095  0.8269  0.0741
  845MOL0     C11453   2.268   9.436   4.467  0.3342 -0.5224  0.2079
  845MOL0     C11454   2.392   9.383   4.424  1.4501  0.3095  0.7087
  845MOL0     O11455   2.494   9.064   4.300  0.2625  0.4708  0.3635
  845MOL0     C11456   2.750   8.984   4.222 -0.2925 -1.0740 -0.0496
  845MOL0     C11457   2.884   8.954   4.179 -0.2475 -0.3920  0.2033
  845MOL0     N11458   3.522   8.891   4.405 -0.0035 -0.2083  0.2235
  845MOL0     N11459   3.648   8.901   4.363  0.3117 -0.1846  0.1111
  845MOL0     C11460   3.596   8.092   4.535 -0.0183  0.1161 -1.5391
  845MOL0     C11461   3.535   7.971   4.565 -0.6268  0.5552 -0.2628
  845MOL0     C11462   3.353   7.655   4.867  0.3185  0.3495  0.8227
  845MOL0     C11463   3.215   7.667   4.868  0.0608 -0.3713  0.5785
  845MOL0     C11464   3.135   7.568   4.924 -0.1946  0.1748 -0.2250
  845MOL0     C11465   3.189   7.460   4.992 -1.4997 -0.9591 -1.0340
  845MOL0     O11466   3.126   7.379   5.084 -0.4864  0.3196 -0.2930
  845MOL0     C11467   2.995   7.420   5.131 -0.3935 -0.0044 -0.3690
  845MOL0     C11468   3.015   7.529   5.234  0.8286  0.0727  0.3675
  845MOL0     C11469   3.096   7.475   5.347 -0.0163  0.7186  0.0790
  845MOL0     C11470   3.093   7.588   5.453 -0.3652 -0.3065 -0.3288
  845MOL0     C11471   3.198   7.585   5.555  0.0315 -0.4058 -0.8525
  845MOL0     C11472   3.304   7.592   5.619  0.6508  0.2873  0.7729
  845MOL0     C11473   3.320   7.440   4.986  0.2928 -0.0449  1.0311
  845MOL0     C11474   3.405   7.531   4.929  0.9253 -0.2764  1.0743
  845MOL0     H11475   3.384   8.062   4.865  0.9620 -0.9810  0.5302
  845MOL0     H11476   3.490   8.284   4.804 -0.3414  0.0378 -0.4173
  845MOL0     H11477   3.753   8.359   4.752 -1.5184 -1.6448  0.1729
  845MOL0     H11478   3.608   8.457   4.735  0.0204  1.5057 -1.2080
  845MOL0     H11479   3.824   8.575   4.703 -0.9647  0.8944 -0.2206
  845MOL0     H11480   3.715   8.604   4.572  0.8251 -1.3984 -2.8821
  845MOL0     H11481   3.865   8.404   4.457 -4.1311  0.0057  0.4070
  845MOL0     H11482   3.979   8.444   4.580 -1.4893  0.2604  3.3479
  845MOL0     H11483   3.874   8.690   4.451  0.0408  1.3058  0.7945
  845MOL0     H11484   4.041   8.652   4.471 -1.1352  1.0205 -0.3069
  845MOL0     H11485   3.958   8.474   4.267 -0.4421  0.6192 -0.2619
  845MOL0     H11486   4.054   8.617   4.245 -1.1370 -0.1034 -1.5994
  845MOL0     H11487   3.754   8.605   4.233  0.7427  1.5409  1.5632
  845MOL0     H11488   3.875   8.606   4.094  0.5499 -2.3235  0.3042
  845MOL0     H11489   3.886   8.828   4.296 -1.6996  2.4827 -0.6985
  845MOL0     H11490   3.945   8.830   4.130  0.4034  0.7923  0.6384
  845MOL0     H11491   3.709   8.791   4.057 -1.0888 -1.1075  1.1169
  845MOL0     H11492   3.742   8.958   4.110 -2.4424  1.1704  1.4016
  845MOL0     H11493   3.469   8.777   4.105 -3.7948  0.4667  1.6435
  845MOL0     H11494   3.283   8.763   4.414 -0.0077 -0.3092 -0.3716
  845MOL0     H11495   3.235   8.793   4.241  0.8805  1.8754 -1.1244
  845MOL0     H11496   3.255   8.993   4.473 -1.4803 -1.2787  1.1274
  845MOL0     H11497   3.109   8.948   4.366 -0.2995 -0.3029 -3.2391
  845MOL0     H11498   3.168   9.164   4.336 -0.6380  0.3990 -0.6951
  845MOL0     H11499   3.345   9.128   4.305  0.6911  1.0100 -0.1737
  845MOL0     H11500   3.309   9.005   4.108  1.0017  1.3417 -0.2260
  845MOL0     H11501   3.209   9.155   4.089 -1.2505  1.1290  2.2947
  845MOL0     H11502   3.016   9.250   4.112 -0.1085  1.3436  1.2900
  845MOL0     H11503   2.780   9.313   4.189 -5.7099 -1.3605  1.4530
  845MOL0     H11504   2.279   9.257   4.134 -0.0928  2.5369 -1.3965
  845MOL0     H11505   2.071   9.338   4.214  1.2915 -1.9845 -0.7273
  845MOL0     H11506   1.860   9.482   4.530 -0.6356  1.7140 -0.0647
  845MOL0     H11507   1.894   9.331   4.466  4.3735  1.4358  2.9094
  845MOL0     H11508   1.726   9.492   4.362  1.0814  0.3563 -0.1874
  845MOL0     H11509   1.815   9.394   4.247  0.9357 -0.1460  0.2692
  845MOL0     H11510   1.980   9.600   4.220 -0.8986 -1.7650 -0.1851
  845MOL0     H11511   1.884   9.673   4.356  1.9187 -1.4425  1.5497
  845MOL0     H11512   1.823   9.725   4.088 -2.1415  1.3562  0.0302
  845MOL0     H11513   1.742   9.566   4.107  1.9558 -2.2610  1.0894
  845MOL0     H11514   1.700   9.802   4.293  0.4050 -0.2196  0.0895
  845MOL0     H11515   1.619   9.649   4.298  0.5544  0.5794 -0.1119
  845MOL0     H11516   1.569   9.710   4.036 -0.0831  1.9191 -1.4688
  845MOL0     H11517   1.578   9.864   4.101 -0.1456 -0.6376 -0.9028
  845MOL0     H11518   1.426   9.818   4.282 -1.4113 -1.2777  1.6374
  845MOL0     H11519   1.357   9.822   4.121  2.0627 -1.0311 -3.0560
  845MOL0     H11520   1.250   9.629   4.263  0.3956 -0.1549  0.5447
  845MOL0     H11521   1.411   9.567   4.258  0.2797  1.7200  1.7428
  845MOL0     H11522   2.266   9.500   4.554  0.3358  0.6730 -0.6394
  845MOL0     H11523   2.481   9.406   4.482  0.3416 -0.0884  2.6575
  845MOL0     H11524   2.681   8.901   4.238 -0.5087 -1.0264 -0.7078
  845MOL0     H11525   2.911   8.849   4.177  2.0884  0.0535  2.7973
  845MOL0     H11526   3.660   8.099   4.448 -1.9335 -3.7144 -3.4872
  845MOL0     H11527   3.544   7.888   4.496 -0.3254  1.7721 -1.7444
  845MOL0     H11528   3.173   7.753   4.816  1.5706 -0.6547 -1.2392
  845MOL0     H11529   3.028   7.583   4.928 -0.0231  1.3406  0.9246
  845MOL0     H11530   2.950   7.330   5.173 -1.1333  0.6691  0.3156
  845MOL0     H11531   2.933   7.462   5.051  1.1194  1.7864 -0.6828
  845MOL0     H11532   3.073   7.611   5.193  4.5678 -3.8049 -3.0385
  845MOL0     H11533   2.923   7.577   5.269  1.0959  0.1946  0.9242
  845MOL0     H11534   3.196   7.452   5.309 -0.8218 -0.1907 -1.5655
  845MOL0     H11535   3.047   7.386   5.388  1.9577 -0.8169 -0.7338
  845MOL0     H11536   3.109   7.689   5.413  0.2156  0.5290  1.8844
  845MOL0     H11537   2.998   7.589   5.507  0.9626 -0.6334  2.1540
  845MOL0     H11538   3.394   7.612   5.674  2.5998  1.0711 -2.3842
  845MOL0     H11539   3.363   7.346   5.020 -0.9609 -1.0380 -0.0091
  845MOL0     H11540   3.513   7.517   4.937  0.6937 -2.8954  0.4932
  846MOL0     O11541   6.426   5.677  10.349 -0.8728 -0.3785 -0.3581
  846MOL0     C11542   6.395   5.561  10.368  0.1722  0.1708  0.4779
  846MOL0     O11543   6.481   5.457  10.365  0.2518 -0.1448 -0.2067
  846MOL0     C11544   6.612   5.473  10.336  0.7481  0.9361  0.6006
  846MOL0     C11545   6.653   5.420  10.206 -0.8499  0.3626 -0.5228
  846MOL0     C11546   6.784   5.448  10.169  0.0609  0.2727 -0.6501
  846MOL0     C11547   6.866   5.526  10.250  0.6517  0.1601 -0.2696
  846MOL0     O11548   7.000   5.540  10.209  0.4868  0.6961  0.6326
  846MOL0     C11549   7.086   5.625  10.283 -1.2034 -0.4944  0.3327
  846MOL0     C11550   7.136   5.540  10.399 -0.0559  0.2966  0.6297
  846MOL0     C11551   7.280   5.572  10.442  0.0148  0.8438  0.0875
  846MOL0     C11552   7.282   5.707  10.495  0.7282  0.0303  0.8436
  846MOL0     C11553   7.415   5.760  10.540  0.0761  0.1503  0.0316
  846MOL0     C11554   7.441   5.914  10.523 -0.3461 -0.6532 -0.3943
  846MOL0     C11555   7.592   5.930  10.515 -0.3987 -0.2577  0.5186
  846MOL0     C11556   7.625   6.083  10.516 -0.0262 -0.3223 -0.2259
  846MOL0     N11557   7.774   6.109  10.498  0.4056  0.0963 -0.7073
  846MOL0     C11558   7.847   6.112  10.384 -0.5953 -0.4385 -0.0563
  846MOL0     C11559   7.977   6.150  10.422 -0.2599  0.2372  0.0706
  846MOL0     C11560   8.094   6.141  10.333  0.8092 -0.2147  0.2182
  846MOL0     C11561   8.191   6.035  10.378  0.2689  0.9173 -0.0075
  846MOL0     C11562   8.144   5.891  10.346  0.3808 -0.2076  0.2047
  846MOL0     C11563   8.075   5.823  10.471  0.1442 -0.0711  0.1339
  846MOL0     O11564   8.040   5.690  10.435 -0.6700 -0.0234 -0.6403
  846MOL0     C11565   7.945   5.629  10.518 -0.7570  0.3702 -0.6119
  846MOL0     C11566   7.847   5.532  10.470 -0.0156  0.6778 -0.9512
  846MOL0     C11567   7.762   5.478  10.563  0.3575 -0.4896  0.3000
  846MOL0     C11568   7.752   5.504  10.699 -0.2409 -0.5742  0.0712
  846MOL0     C11569   7.666   5.436  10.792 -0.0549 -0.1664  0.6050
  846MOL0     O11570   7.546   5.418  10.737  0.2006  0.9748 -0.3781
  846MOL0     C11571   7.462   5.347  10.810 -0.2761 -0.1757  0.5808
  846MOL0     C11572   7.490   5.214  10.849  0.5442  0.4431  0.0803
  846MOL0     C11573   7.386   5.137  10.905  0.2520  0.4739 -1.0522
  846MOL0     C11574   7.255   5.187  10.908 -0.1806  0.9181  0.4296
  846MOL0     O11575   7.169   5.097  10.969 -1.0070 -0.0147  0.3621
  846MOL0     C11576   7.043   5.057  10.907  0.5776 -0.3372 -0.0497
  846MOL0     C11577   6.980   4.967  11.010  0.0854  0.3573  0.8014
  846MOL0     C11578   6.839   4.925  10.966 -0.1102  0.5702 -0.1948
  846MOL0     C11579   6.774   4.836  11.074 -0.6450 -0.0845  0.0252
  846MOL0     C11580   6.620   4.819  11.038 -0.4787  0.7111 -0.0968
  846MOL0     C11581   6.549   4.727  11.125 -1.0899  1.1064  0.7043
  846MOL0     C11582   6.568   4.737  11.275  0.5734  0.7925  0.2318
  846MOL0     C11583   6.473   4.653  11.357  0.7152  0.4362 -0.6473
  846MOL0    Cl11584   6.463   4.490  11.297  0.4827 -0.0357 -0.0503
  846MOL0     C11585   7.230   5.320  10.864 -0.6508  0.1521  0.0714
  846MOL0     C11586   7.332   5.389  10.811  0.2881  0.1364  0.5121
  846MOL0     O11587   7.695   5.416  10.912  0.6381 -0.1792 -0.5591
  846MOL0     C11588   7.847   5.598  10.749  0.5990 -1.0055 -0.3379
  846MOL0     C11589   7.946   5.658  10.656  0.3595 -0.3057  0.5012
  846MOL0     N11590   7.975   6.142  10.563  0.6603  0.4360  0.4179
  846MOL0     N11591   7.853   6.120  10.607 -0.3704  0.1317  0.1729
  846MOL0     C11592   6.816   5.573  10.374  0.7221  0.3157  0.2242
  846MOL0     C11593   6.692   5.549  10.426  0.2136  0.6975 -0.3838
  846MOL0     C11594   6.253   5.532  10.416 -0.3205 -0.0957 -0.6134
  846MOL0     C11595   6.213   5.404  10.446  0.0623  0.6720  0.5707
  846MOL0     C11596   6.078   5.382  10.480  0.6163 -0.4878 -0.2735
  846MOL0     C11597   5.983   5.488  10.483  0.1676 -0.6182  0.1220
  846MOL0     O11598   5.853   5.458  10.517 -0.2577  0.2167 -0.4194
  846MOL0     C11599   5.754   5.551  10.496 -0.6261  0.2955  0.1196
  846MOL0     C11600   5.623   5.497  10.562 -0.7929 -0.3096  0.4994
  846MOL0     C11601   5.506   5.586  10.542  0.8107  0.2371 -0.0750
  846MOL0     C11602   5.506   5.712  10.626 -0.7174  0.0310  0.0073
  846MOL0     C11603   5.375   5.764  10.626  0.2765 -0.0305 -0.1048
  846MOL0     C11604   5.258   5.815  10.642 -0.5830  0.2097 -0.3171
  846MOL0     C11605   6.026   5.613  10.449  1.3438 -0.5773 -0.5405
  846MOL0     C11606   6.162   5.642  10.422  0.6186  0.3266  0.6138
  846MOL0     H11607   6.583   5.362  10.147  0.6437  0.1320 -2.1370
  846MOL0     H11608   6.825   5.409  10.077 -1.0760 -0.5011 -0.8404
  846MOL0     H11609   7.046   5.724  10.309  3.6743  1.3711  1.9410
  846MOL0     H11610   7.178   5.648  10.228  0.0109 -2.2328  1.5587
  846MOL0     H11611   7.137   5.433  10.375 -0.1554  0.0771  1.5665
  846MOL0     H11612   7.068   5.543  10.485 -1.6801 -0.3088 -0.5932
  846MOL0     H11613   7.351   5.564  10.359 -0.1952 -2.3889  0.1096
  846MOL0     H11614   7.310   5.501  10.519  0.7588 -0.2262 -1.1514
  846MOL0     H11615   7.249   5.779  10.419 -0.5254 -0.5770  0.7823
  846MOL0     H11616   7.206   5.706  10.573  0.9055 -1.5637  1.0405
  846MOL0     H11617   7.491   5.709  10.478 -1.0069  0.9291 -2.0306
  846MOL0     H11618   7.427   5.719  10.641  3.5963  1.2836  0.2181
  846MOL0     H11619   7.388   5.960  10.608 -3.2320  1.3693 -3.0419
  846MOL0     H11620   7.391   5.956  10.435 -2.6307 -0.7464  0.7678
  846MOL0     H11621   7.643   5.872  10.592  2.2144 -1.1533 -1.6829
  846MOL0     H11622   7.628   5.888  10.420 -0.7905 -2.3708  1.2552
  846MOL0     H11623   7.594   6.128  10.611  0.9380 -2.1393  1.0051
  846MOL0     H11624   7.574   6.131  10.431 -0.6369 -2.4879 -1.1552
  846MOL0     H11625   7.801   6.089  10.288  3.7580 -0.4784 -2.4019
  846MOL0     H11626   8.145   6.238  10.337  0.8108 -0.2205  0.3660
  846MOL0     H11627   8.066   6.126  10.229 -1.5301  0.7191  0.6612
  846MOL0     H11628   8.204   6.029  10.486 -3.6088 -2.6216  0.5225
  846MOL0     H11629   8.292   6.052  10.338  0.9380 -0.3430  1.0645
  846MOL0     H11630   8.073   5.896  10.262 -1.6185  2.2498  1.8995
  846MOL0     H11631   8.234   5.834  10.321  2.2240  2.1686  1.0134
  846MOL0     H11632   7.987   5.880  10.502  0.8708  0.6073  1.0010
  846MOL0     H11633   8.143   5.810  10.556  1.1187  0.7185 -0.5019
  846MOL0     H11634   7.840   5.514  10.363  2.5294  0.8383 -1.2081
  846MOL0     H11635   7.699   5.401  10.519  1.5674 -0.8858 -0.8140
  846MOL0     H11636   7.593   5.178  10.844  0.0904 -1.5444  2.8623
  846MOL0     H11637   7.409   5.033  10.926 -1.5708  0.3555  0.6646
  846MOL0     H11638   7.064   5.001  10.815  5.3795  1.7813 -0.5505
  846MOL0     H11639   6.979   5.144  10.887 -0.2026 -0.8300  0.2873
  846MOL0     H11640   6.978   5.018  11.107  0.1100 -1.9374  2.0659
  846MOL0     H11641   7.042   4.879  11.024 -1.2625 -0.7436  0.0773
  846MOL0     H11642   6.851   4.863  10.877 -0.2631 -1.2756  1.0209
  846MOL0     H11643   6.777   5.014  10.954 -0.3647  0.1570 -2.2818
  846MOL0     H11644   6.821   4.737  11.068  1.1954  0.7764 -0.6411
  846MOL0     H11645   6.791   4.874  11.175 -0.0084 -0.8337  0.2086
  846MOL0     H11646   6.611   4.773  10.939  3.3063  0.8916 -0.6737
  846MOL0     H11647   6.558   4.909  11.031  0.2078  1.3381  1.4772
  846MOL0     H11648   6.591   4.629  11.099 -1.7846  1.1528 -0.6423
  846MOL0     H11649   6.442   4.721  11.103 -1.0597  2.2619  0.1864
  846MOL0     H11650   6.668   4.701  11.302  0.9992 -1.1252 -3.3315
  846MOL0     H11651   6.572   4.842  11.306  0.5828  0.3615  1.7855
  846MOL0     H11652   6.371   4.694  11.362  0.3517 -0.5199 -0.0758
  846MOL0     H11653   6.511   4.649  11.460  0.9482  4.3981 -0.4234
  846MOL0     H11654   7.136   5.375  10.871 -0.7404  0.1902 -1.2355
  846MOL0     H11655   7.312   5.486  10.765  0.6176  1.2806  2.6503
  846MOL0     H11656   7.846   5.617  10.855 -1.9104 -1.4933 -0.2134
  846MOL0     H11657   8.033   5.714  10.688 -1.4597  2.4750  0.9259
  846MOL0     H11658   6.873   5.639  10.438 -1.1514 -0.0478  2.4025
  846MOL0     H11659   6.656   5.582  10.523  1.0636  0.1715  0.1282
  846MOL0     H11660   6.271   5.313  10.444  0.8530  1.0151 -4.5871
  846MOL0     H11661   6.041   5.285  10.514  2.5738 -0.9895  0.5711
  846MOL0     H11662   5.745   5.566  10.388 -2.1778  2.1412  0.4460
  846MOL0     H11663   5.779   5.651  10.534 -1.3210  1.5083 -2.3677
  846MOL0     H11664   5.598   5.402  10.515  2.5549 -0.0621 -2.1447
  846MOL0     H11665   5.640   5.478  10.669 -0.0209 -0.9106  0.2783
  846MOL0     H11666   5.417   5.527  10.566 -0.5169  3.7765  5.2820
  846MOL0     H11667   5.500   5.608  10.435 -0.6855 -0.3202 -0.1295
  846MOL0     H11668   5.549   5.686  10.724  0.3805  0.2313 -0.4083
  846MOL0     H11669   5.566   5.788  10.575 -1.7481  0.9598  0.1483
  846MOL0     H11670   5.167   5.868  10.657 -1.0200 -0.0794 -1.7951
  846MOL0     H11671   5.963   5.701  10.444  3.0273  0.7519  0.5201
  846MOL0     H11672   6.195   5.743  10.399 -0.8052  0.5496 -0.6711
  847MOL0     O11673   7.137   3.156   6.831  0.9773  0.9155 -0.3450
  847MOL0     C11674   7.249   3.157   6.783  0.4016  1.2365  0.4467
  847MOL0     O11675   7.364   3.156   6.860  0.2322 -0.1397  0.1563
  847MOL0     C11676   7.360   3.179   6.994  0.5515 -0.3158 -1.3238
  847MOL0     C11677   7.325   3.080   7.092 -0.3863 -0.0822 -0.0955
  847MOL0     C11678   7.328   3.106   7.231 -0.0729  0.0379 -0.2187
  847MOL0     C11679   7.390   3.221   7.273 -0.0931 -0.3943  0.1399
  847MOL0     O11680   7.393   3.241   7.412  0.2260 -0.3373  0.3362
  847MOL0     C11681   7.516   3.308   7.459 -0.1895 -1.8175 -0.0836
  847MOL0     C11682   7.504   3.458   7.492 -1.2077  0.4712  0.2223
  847MOL0     C11683   7.425   3.470   7.621 -0.0062 -0.7003 -0.4045
  847MOL0     C11684   7.412   3.612   7.651  0.4863  0.2527  0.1810
  847MOL0     C11685   7.361   3.649   7.784  0.3681 -0.6048  0.1551
  847MOL0     C11686   7.393   3.790   7.829  0.0077  0.2608  0.3299
  847MOL0     C11687   7.314   3.821   7.955 -0.0432  0.3296  0.2131
  847MOL0     C11688   7.348   3.966   7.997  0.1612  0.3456 -0.2239
  847MOL0     N11689   7.285   4.005   8.129  0.1428 -0.5332  0.4854
  847MOL0     C11690   7.327   3.957   8.247  0.0966  0.1443  1.0761
  847MOL0     C11691   7.229   3.972   8.339 -0.2083  0.3422  0.4863
  847MOL0     C11692   7.223   3.936   8.492  0.1399  0.0700  0.1869
  847MOL0     C11693   7.081   3.918   8.535  0.3474  1.2472 -0.1182
  847MOL0     C11694   7.064   3.864   8.678 -0.9912 -0.6015 -0.3082
  847MOL0     C11695   6.920   3.824   8.716 -0.8539 -1.7181  0.4359
  847MOL0     O11696   6.893   3.705   8.638  0.2727  0.6780 -0.0961
  847MOL0     C11697   6.757   3.660   8.651 -0.3347 -0.5149  0.2685
  847MOL0     C11698   6.713   3.557   8.564 -0.0619 -0.2575  0.4423
  847MOL0     C11699   6.581   3.518   8.548  0.8752 -1.2201  0.3035
  847MOL0     C11700   6.476   3.581   8.624  0.4532 -0.8046 -0.7393
  847MOL0     C11701   6.330   3.535   8.612 -0.4387 -0.2299  0.5920
  847MOL0     O11702   6.235   3.597   8.682  0.2313  0.1197 -0.9841
  847MOL0     C11703   6.104   3.583   8.639 -0.6967 -1.3020  0.6150
  847MOL0     C11704   5.998   3.545   8.721 -0.3618  0.5794 -0.0883
  847MOL0     C11705   5.862   3.535   8.669 -0.1232  0.2779 -0.1221
  847MOL0     C11706   5.827   3.575   8.540  0.4850 -0.6669 -0.8850
  847MOL0     O11707   5.702   3.576   8.492 -0.2201  0.2479 -0.4196
  847MOL0     C11708   5.603   3.531   8.580  0.6968 -0.1656 -0.0555
  847MOL0     C11709   5.464   3.522   8.515 -0.4076 -0.3015 -0.6946
  847MOL0     C11710   5.460   3.548   8.366 -1.0948  0.5097  0.1946
  847MOL0     C11711   5.330   3.519   8.293 -0.7980  0.0759 -0.7958
  847MOL0     C11712   5.197   3.566   8.360  0.0900 -0.6129  0.6391
  847MOL0     C11713   5.084   3.616   8.258  0.1388 -0.5968 -0.4665
  847MOL0     C11714   5.023   3.496   8.182 -0.0147  1.0646 -0.2477
  847MOL0     C11715   4.868   3.466   8.199 -0.3981 -0.0973  0.5616
  847MOL0    Cl11716   4.825   3.441   8.371 -0.4424  0.0015  0.1461
  847MOL0     C11717   5.931   3.638   8.469  1.2622  0.4267  0.8695
  847MOL0     C11718   6.066   3.632   8.511  0.7272 -1.3675  0.0347
  847MOL0     O11719   6.316   3.433   8.540 -0.5273  0.1810  0.2198
  847MOL0     C11720   6.523   3.685   8.711 -0.5455  0.1770  0.0287
  847MOL0     C11721   6.659   3.729   8.714  0.2903  0.0050 -0.8000
  847MOL0     N11722   7.117   4.024   8.269 -1.2828 -0.1033  0.3335
  847MOL0     N11723   7.150   4.041   8.146  0.0177  0.7293  0.1078
  847MOL0     C11724   7.423   3.323   7.178 -1.2047 -0.0923 -0.1308
  847MOL0     C11725   7.405   3.307   7.040 -0.5927  0.0948 -0.1163
  847MOL0     C11726   7.254   3.137   6.638  0.3788 -0.6915 -0.8189
  847MOL0     C11727   7.142   3.131   6.559  0.3446  0.4051 -1.1842
  847MOL0     C11728   7.149   3.104   6.421  0.9539 -0.5253 -0.5248
  847MOL0     C11729   7.273   3.076   6.353  0.9812  0.4203 -0.5624
  847MOL0     O11730   7.291   3.049   6.219 -0.1182  0.1927  0.1967
  847MOL0     C11731   7.241   3.153   6.136  0.2912  0.0573 -0.5493
  847MOL0     C11732   7.354   3.244   6.102  0.1621 -0.1566  1.3000
  847MOL0     C11733   7.333   3.370   6.004  0.1073  0.1954 -0.2648
  847MOL0     C11734   7.452   3.424   5.943  0.0645  0.9931  0.2106
  847MOL0     C11735   7.422   3.476   5.805 -0.5376 -0.1641 -0.0872
  847MOL0     C11736   7.404   3.539   5.701  0.1704  0.7126 -0.0411
  847MOL0     C11737   7.384   3.089   6.435 -0.7426  0.1188 -0.7084
  847MOL0     C11738   7.376   3.104   6.575 -1.0141  0.0717  0.6421
  847MOL0     H11739   7.289   2.985   7.053  1.2329 -0.6176 -0.4029
  847MOL0     H11740   7.293   3.046   7.315 -0.6676  0.3477 -0.2432
  847MOL0     H11741   7.595   3.303   7.384  1.6886  0.3553  1.5915
  847MOL0     H11742   7.560   3.264   7.549 -1.5164 -0.2909  1.3908
  847MOL0     H11743   7.450   3.496   7.405  0.0498  0.3397 -0.6348
  847MOL0     H11744   7.603   3.503   7.500 -0.5556 -0.8731 -0.0110
  847MOL0     H11745   7.471   3.411   7.700 -0.2129  1.2752  1.2697
  847MOL0     H11746   7.322   3.433   7.612 -0.8412  1.1154  1.0067
  847MOL0     H11747   7.510   3.660   7.646  0.2127  0.9225  1.0951
  847MOL0     H11748   7.357   3.667   7.574  1.4225  1.2825  0.2180
  847MOL0     H11749   7.405   3.580   7.856 -0.4295 -1.7392 -0.4187
  847MOL0     H11750   7.253   3.636   7.777  0.1418  1.6167 -2.2024
  847MOL0     H11751   7.367   3.859   7.748  3.0734 -0.9750 -1.9074
  847MOL0     H11752   7.499   3.799   7.856 -0.0606 -2.8647  2.0362
  847MOL0     H11753   7.208   3.821   7.929 -0.0466  0.6865  0.2219
  847MOL0     H11754   7.341   3.745   8.029 -0.9953  0.3686  0.6133
  847MOL0     H11755   7.318   4.039   7.922 -1.2779  0.6818  0.6291
  847MOL0     H11756   7.455   3.982   8.006  0.2050 -1.0023  3.1877
  847MOL0     H11757   7.420   3.910   8.275  0.1873  0.6031  1.5733
  847MOL0     H11758   7.272   4.008   8.559 -4.0242  1.9362  1.5572
  847MOL0     H11759   7.273   3.839   8.502  0.6055 -0.0246 -2.4688
  847MOL0     H11760   7.031   3.856   8.460 -1.0393  0.1808  1.5806
  847MOL0     H11761   7.034   4.016   8.532 -2.5025  0.1096  2.2422
  847MOL0     H11762   7.137   3.785   8.697  1.0802  1.1549 -0.6867
  847MOL0     H11763   7.086   3.945   8.749 -1.5361  0.0021 -0.8105
  847MOL0     H11764   6.856   3.910   8.696  0.4830 -0.5285  1.0336
  847MOL0     H11765   6.914   3.794   8.821  1.7125 -2.7089  0.3767
  847MOL0     H11766   6.788   3.512   8.499  1.6864  1.9666  0.8067
  847MOL0     H11767   6.569   3.442   8.471 -1.3493  0.2463 -0.9148
  847MOL0     H11768   6.017   3.503   8.820 -0.4849 -1.6423 -0.9556
  847MOL0     H11769   5.788   3.485   8.731 -1.2154  1.8136 -0.1363
  847MOL0     H11770   5.613   3.591   8.671  2.2335  0.3940 -0.5610
  847MOL0     H11771   5.611   3.428   8.614 -2.6739 -0.0424  1.5897
  847MOL0     H11772   5.397   3.583   8.577 -1.1726 -2.3587  0.6138
  847MOL0     H11773   5.428   3.419   8.527 -0.2010 -0.0866  3.2191
  847MOL0     H11774   5.539   3.497   8.310  0.6138  2.0203  1.1034
  847MOL0     H11775   5.492   3.651   8.347  4.3596 -0.8641  0.2262
  847MOL0     H11776   5.334   3.585   8.206  0.1238  1.0351 -0.0565
  847MOL0     H11777   5.315   3.412   8.276  0.3594  0.1312 -2.4616
  847MOL0     H11778   5.216   3.653   8.424 -1.5116 -1.7464  2.7870
  847MOL0     H11779   5.151   3.489   8.422 -2.5629 -0.5286 -1.0979
  847MOL0     H11780   5.133   3.684   8.187 -0.5419 -1.8254 -2.1784
  847MOL0     H11781   5.010   3.680   8.308  3.7596  1.5309  2.7395
  847MOL0     H11782   5.053   3.502   8.077 -0.9929 -1.4197 -0.7425
  847MOL0     H11783   5.067   3.402   8.219 -0.0985  1.0720 -0.1297
  847MOL0     H11784   4.838   3.377   8.144 -1.4825  1.5305 -1.6434
  847MOL0     H11785   4.817   3.555   8.160  2.6061  0.5303 -2.4121
  847MOL0     H11786   5.898   3.681   8.375 -1.9361 -1.7876  0.8351
  847MOL0     H11787   6.119   3.695   8.440  1.3085 -0.0675  1.5589
  847MOL0     H11788   6.443   3.720   8.776 -3.3057 -1.6011 -2.1465
  847MOL0     H11789   6.681   3.809   8.784 -0.4097 -0.2361 -0.2896
  847MOL0     H11790   7.468   3.418   7.205  1.5218 -0.3128 -3.3076
  847MOL0     H11791   7.440   3.385   6.972 -2.9215  1.9097  0.6573
  847MOL0     H11792   7.044   3.159   6.598 -0.1032  0.8202 -2.5567
  847MOL0     H11793   7.053   3.102   6.370  2.1589 -1.7544 -2.8681
  847MOL0     H11794   7.166   3.210   6.192 -0.8913 -3.0011  1.2318
  847MOL0     H11795   7.184   3.103   6.058 -1.0123 -3.5615  2.4192
  847MOL0     H11796   7.396   3.295   6.189  1.0596  4.6485 -1.5728
  847MOL0     H11797   7.441   3.192   6.060 -1.0759  0.1622 -2.0047
  847MOL0     H11798   7.290   3.458   6.053  2.5181  0.5395  1.4143
  847MOL0     H11799   7.267   3.331   5.926  0.6820 -3.2522  0.8062
  847MOL0     H11800   7.497   3.510   5.993  0.3847  0.8915  0.0990
  847MOL0     H11801   7.528   3.347   5.932 -0.2518  0.6870  0.1536
  847MOL0     H11802   7.406   3.583   5.604 -0.6900 -1.1697 -0.9441
  847MOL0     H11803   7.483   3.073   6.395  0.8098 -1.0486  3.0984
  847MOL0     H11804   7.467   3.107   6.634  0.1706  1.0969 -1.1571
  848MOL0     O11805   6.428   0.367  10.454 -0.4480  0.9247  0.0080
  848MOL0     C11806   6.383   0.271  10.394 -0.6929 -0.0743  0.0339
  848MOL0     O11807   6.265   0.274  10.329  0.6787  0.7458  0.5004
  848MOL0     C11808   6.184   0.387  10.313  0.1013 -0.2442 -0.8267
  848MOL0     C11809   6.226   0.519  10.278 -0.2009  0.4953  1.0774
  848MOL0     C11810   6.129   0.627  10.279  0.1601 -0.5486  0.0075
  848MOL0     C11811   5.995   0.599  10.297  0.5235  0.6394  0.3681
  848MOL0     O11812   5.903   0.698  10.312 -0.1375 -0.5533  0.7456
  848MOL0     C11813   5.943   0.821  10.372  0.9647 -0.1068  0.1567
  848MOL0     C11814   5.840   0.859  10.483  0.4000 -0.0183 -0.0851
  848MOL0     C11815   5.720   0.939  10.415 -0.1021  0.2425  0.3108
  848MOL0     C11816   5.594   0.928  10.501  0.3869 -0.1093 -0.2278
  848MOL0     C11817   5.543   0.788  10.536 -0.6192 -0.9502  0.5564
  848MOL0     C11818   5.547   0.688  10.428  0.1666 -0.2474 -0.7028
  848MOL0     C11819   5.488   0.557  10.484  0.8408  0.4535  0.6381
  848MOL0     C11820   5.530   0.448  10.381  0.5231 -1.2288 -0.5341
  848MOL0     N11821   5.477   0.469  10.244  0.3436 -1.4030 -0.0939
  848MOL0     C11822   5.549   0.478  10.126 -0.4651  0.5392  0.1067
  848MOL0     C11823   5.460   0.429  10.028 -0.3797  0.5236 -0.4007
  848MOL0     C11824   5.491   0.425   9.881 -0.7205 -0.2001  0.8183
  848MOL0     C11825   5.405   0.526   9.799 -0.6027 -0.7251 -0.7691
  848MOL0     C11826   5.283   0.444   9.743  0.3758  0.4982  0.3429
  848MOL0     C11827   5.169   0.532   9.689  0.6624  0.3695  1.5629
  848MOL0     O11828   5.209   0.618   9.578 -0.2466 -0.1497 -0.0446
  848MOL0     C11829   5.133   0.727   9.555  0.1636 -0.4993 -0.5012
  848MOL0     C11830   5.183   0.828   9.467  0.6646 -1.7750  0.0693
  848MOL0     C11831   5.095   0.924   9.416 -1.4697 -0.0694 -1.0077
  848MOL0     C11832   4.969   0.935   9.468  0.4292 -0.1004 -0.0572
  848MOL0     C11833   4.884   1.057   9.430  0.0441 -0.0337 -1.3501
  848MOL0     O11834   4.940   1.157   9.360 -0.0853  1.0061 -0.4522
  848MOL0     C11835   4.864   1.264   9.316  0.8537  0.2755 -0.4649
  848MOL0     C11836   4.733   1.241   9.269  0.0638  0.0630  0.4448
  848MOL0     C11837   4.638   1.344   9.248  0.2447 -0.5068  1.2841
  848MOL0     C11838   4.697   1.476   9.230  0.0568  0.6135  0.0292
  848MOL0     O11839   4.622   1.589   9.200  0.2449 -0.4464 -0.1624
  848MOL0     C11840   4.539   1.569   9.090 -0.4486 -0.1123  0.3451
  848MOL0     C11841   4.541   1.707   9.025  0.1171  0.2326 -0.0933
  848MOL0     C11842   4.463   1.710   8.895  0.6482  0.4533  0.5414
  848MOL0     C11843   4.509   1.626   8.780 -0.2487  0.6194 -0.0246
  848MOL0     C11844   4.424   1.657   8.658  0.5611 -0.6478  0.6033
  848MOL0     C11845   4.409   1.543   8.566  0.3046  0.8409 -0.3417
  848MOL0     C11846   4.293   1.583   8.467 -0.5363 -0.0818  0.1153
  848MOL0     C11847   4.291   1.473   8.352  0.6644 -0.3820 -0.7302
  848MOL0    Cl11848   4.140   1.467   8.266 -0.0925 -0.0738  0.0447
  848MOL0     C11849   4.832   1.496   9.253 -0.8581 -0.1338 -0.4111
  848MOL0     C11850   4.916   1.389   9.303 -0.5227 -0.4582 -1.1208
  848MOL0     O11851   4.780   1.061   9.495  0.4182 -0.2579  1.0209
  848MOL0     C11852   4.925   0.840   9.564  0.2163  0.4745  0.0333
  848MOL0     C11853   5.004   0.734   9.601  0.0703 -0.4656  0.7386
  848MOL0     N11854   5.341   0.400  10.086  1.0049  0.3728 -0.1162
  848MOL0     N11855   5.350   0.430  10.214 -0.0704 -0.1800 -0.9244
  848MOL0     C11856   5.947   0.469  10.323  0.1364 -0.0215  0.3990
  848MOL0     C11857   6.044   0.368  10.335  0.4934  0.2072  0.7696
  848MOL0     C11858   6.473   0.152  10.386  1.1257  0.2450  0.1548
  848MOL0     C11859   6.439   0.038  10.314  0.3527  1.2635  0.9927
  848MOL0     C11860   6.526  -0.073  10.299  0.3580 -0.6416  0.2718
  848MOL0     C11861   6.655  -0.064  10.353  0.3217  0.7647  0.4093
  848MOL0     O11862   6.744  -0.169  10.346  0.5311  0.4654 -0.5970
  848MOL0     C11863   6.817  -0.161  10.220  0.2752 -0.1938 -0.4626
  848MOL0     C11864   6.730  -0.190  10.098  0.0566  0.7498 -0.9538
  848MOL0     C11865   6.823  -0.197   9.981  0.0195 -0.2270 -0.4826
  848MOL0     C11866   6.747  -0.205   9.843 -0.9064 -0.8063  0.5558
  848MOL0     C11867   6.710  -0.343   9.813  0.9204  0.1990  0.0076
  848MOL0     C11868   6.677  -0.457   9.794  0.5095 -0.3546 -0.4128
  848MOL0     C11869   6.690   0.034  10.439  0.3562 -0.9880  0.1737
  848MOL0     C11870   6.597   0.148  10.453 -0.8568  0.1955 -0.0899
  848MOL0     H11871   6.328   0.546  10.252 -0.3837 -1.0665 -1.5179
  848MOL0     H11872   6.171   0.723  10.253  0.6944 -0.7985 -0.0641
  848MOL0     H11873   5.956   0.905  10.304 -0.3628  1.4114  1.6831
  848MOL0     H11874   6.042   0.810  10.418  0.2528  0.0916  1.8153
  848MOL0     H11875   5.880   0.929  10.557  0.7857  1.0837 -1.3161
  848MOL0     H11876   5.806   0.768  10.533  0.4989  0.0019  0.0202
  848MOL0     H11877   5.684   0.908  10.316 -0.4338  2.1035 -0.1928
  848MOL0     H11878   5.744   1.045  10.408  0.0271  0.1121 -3.2626
  848MOL0     H11879   5.609   0.991  10.589  3.0697 -4.5371  2.9331
  848MOL0     H11880   5.527   0.971  10.426  1.8742  0.1423 -1.4557
  848MOL0     H11881   5.443   0.800  10.577 -1.0074  1.0169 -0.8456
  848MOL0     H11882   5.600   0.750  10.621 -0.8340 -0.9512  0.7002
  848MOL0     H11883   5.648   0.666  10.393 -0.6308 -3.9043 -1.0654
  848MOL0     H11884   5.499   0.735  10.341  1.9617  1.5055 -0.8214
  848MOL0     H11885   5.524   0.531  10.584  0.2550 -1.0993  0.4768
  848MOL0     H11886   5.381   0.561  10.505  0.6077 -0.3932 -0.2859
  848MOL0     H11887   5.509   0.350  10.425  1.4890 -0.3569  2.0466
  848MOL0     H11888   5.639   0.462  10.380  0.2136  2.0449 -1.8422
  848MOL0     H11889   5.648   0.516  10.104 -0.5007  0.1838 -0.7039
  848MOL0     H11890   5.487   0.322   9.845 -0.0043 -1.4316  3.8809
  848MOL0     H11891   5.596   0.455   9.872 -0.9443 -0.0342 -2.1641
  848MOL0     H11892   5.466   0.574   9.722  0.3123  0.3610  0.5681
  848MOL0     H11893   5.363   0.608   9.858 -0.9707 -3.8798  3.9459
  848MOL0     H11894   5.324   0.383   9.662  4.5386  2.4569  0.6894
  848MOL0     H11895   5.250   0.375   9.821 -3.0825 -1.5564 -2.6224
  848MOL0     H11896   5.111   0.572   9.773  0.1106 -2.5633  2.6952
  848MOL0     H11897   5.096   0.463   9.645  0.0654  1.5747  0.5801
  848MOL0     H11898   5.289   0.814   9.448  0.8358 -4.5836  2.4167
  848MOL0     H11899   5.139   0.987   9.339  1.4427 -0.3784  0.2713
  848MOL0     H11900   4.704   1.137   9.251 -0.1262  0.2563 -0.4069
  848MOL0     H11901   4.541   1.326   9.204  0.3498  2.4381 -0.3482
  848MOL0     H11902   4.436   1.542   9.114 -0.0410 -3.7076 -1.3559
  848MOL0     H11903   4.595   1.506   9.021  1.9897 -0.5944  2.5804
  848MOL0     H11904   4.642   1.731   8.992  0.4842 -1.3462 -0.1767
  848MOL0     H11905   4.508   1.788   9.091 -0.8167  0.5820 -0.9556
  848MOL0     H11906   4.466   1.815   8.866 -0.6509  0.3491  0.0030
  848MOL0     H11907   4.361   1.675   8.913  0.4451  1.5341  1.6258
  848MOL0     H11908   4.612   1.651   8.753 -0.5501 -1.0121 -3.0110
  848MOL0     H11909   4.507   1.521   8.811  0.2437  0.0731 -1.7734
  848MOL0     H11910   4.471   1.734   8.596 -3.7153  0.0299 -2.2014
  848MOL0     H11911   4.324   1.689   8.688  0.4185 -0.1063 -0.3944
  848MOL0     H11912   4.376   1.462   8.631 -0.7841  0.6011 -1.1510
  848MOL0     H11913   4.502   1.518   8.514 -0.3142  0.8924 -1.5163
  848MOL0     H11914   4.193   1.583   8.513 -0.8317 -0.4458 -0.5092
  848MOL0     H11915   4.310   1.682   8.424  0.8589  0.8037  2.5502
  848MOL0     H11916   4.297   1.378   8.406 -1.7357 -0.1137  0.1317
  848MOL0     H11917   4.369   1.470   8.275 -0.5307 -1.1623 -1.9580
  848MOL0     H11918   4.869   1.597   9.242 -2.0324  0.3639  0.0570
  848MOL0     H11919   5.024   1.394   9.315 -0.2942 -0.1656 -2.9449
  848MOL0     H11920   4.824   0.849   9.604  0.1745  0.1683 -0.0029
  848MOL0     H11921   4.961   0.659   9.666  1.2829 -0.6980  1.3130
  848MOL0     H11922   5.840   0.458  10.332 -0.6042  2.4520 -3.4151
  848MOL0     H11923   6.013   0.268  10.362 -0.8177  0.5747  0.6959
  848MOL0     H11924   6.345   0.038  10.259  0.1625  2.5160  1.2870
  848MOL0     H11925   6.486  -0.163  10.253 -0.5546 -0.4868  0.7447
  848MOL0     H11926   6.891  -0.242  10.222  0.0849 -0.4681  3.3408
  848MOL0     H11927   6.875  -0.068  10.213  0.8149 -0.2491  2.1948
  848MOL0     H11928   6.680  -0.286  10.117 -1.3976  1.6282 -0.1864
  848MOL0     H11929   6.656  -0.110  10.093 -0.6033  0.0936 -2.3299
  848MOL0     H11930   6.894  -0.279   9.997  0.5912  0.2532 -0.5441
  848MOL0     H11931   6.874  -0.100   9.974 -1.8288  0.9117  0.9585
  848MOL0     H11932   6.663  -0.137   9.856  1.2719  1.5874  3.3798
  848MOL0     H11933   6.809  -0.164   9.763 -0.7856  1.5003  1.7641
  848MOL0     H11934   6.656  -0.562   9.796 -0.1827 -0.2517 -1.4376
  848MOL0     H11935   6.793   0.022  10.471  1.0303  1.9048 -0.5697
  848MOL0     H11936   6.625   0.234  10.512 -1.4881  1.0770 -1.0340
  849MOL0     O11937   0.139  10.773   3.673  0.4012  0.2566  0.3810
  849MOL0     C11938   0.118  10.690   3.762 -0.3718 -0.1210  1.1482
  849MOL0     O11939   0.218  10.660   3.851  0.2644 -0.3803  0.2099
  849MOL0     C11940   0.350  10.689   3.823  0.1652  0.9192 -0.0554
  849MOL0     C11941   0.425  10.735   3.930  0.1810 -0.1972 -0.8977
  849MOL0     C11942   0.560  10.753   3.913  0.0198  0.0367  0.0514
  849MOL0     C11943   0.625  10.718   3.789  0.5715 -0.1981  0.6552
  849MOL0     O11944   0.755  10.754   3.780  0.1330  0.3842 -0.0567
  849MOL0     C11945   0.850  10.654   3.746 -0.4079 -0.5337  0.0478
  849MOL0     C11946   0.891  10.587   3.876 -0.2036 -0.1745  0.7975
  849MOL0     C11947   0.820  10.451   3.872  0.4681 -0.9178  0.5149
  849MOL0     C11948   0.838  10.355   3.993 -0.7559  0.3192  0.9969
  849MOL0     C11949   0.851  10.420   4.128 -0.4306  0.4703  0.3959
  849MOL0     C11950   0.722  10.496   4.176  0.5148  0.2932 -0.0509
  849MOL0     C11951   0.589  10.423   4.163 -0.2121  0.6258 -0.6146
  849MOL0     C11952   0.483  10.497   4.242 -0.7471 -0.2342 -0.3740
  849MOL0     N11953   0.357  10.420   4.236 -0.6310 -0.3541  0.3574
  849MOL0     C11954   0.297  10.358   4.342 -0.0683  0.0720 -0.5944
  849MOL0     C11955   0.189  10.302   4.293  0.6322 -0.2568 -0.1165
  849MOL0     C11956   0.095  10.213   4.373  0.2251 -1.0304 -0.5356
  849MOL0     C11957   0.135  10.068   4.384 -0.0820  0.9372  0.2811
  849MOL0     C11958   0.251  10.036   4.473  0.0388  0.2404 -0.6010
  849MOL0     C11959   0.311   9.901   4.418 -0.5490  0.4420  0.0374
  849MOL0     O11960   0.420   9.874   4.504 -0.4576 -0.7038  0.2080
  849MOL0     C11961   0.468   9.744   4.527 -0.1091  0.5175  1.0521
  849MOL0     C11962   0.550   9.717   4.639  0.6236  0.2307 -0.0812
  849MOL0     C11963   0.601   9.597   4.654  0.8474  0.7802  0.4142
  849MOL0     C11964   0.567   9.491   4.570 -0.0784 -0.5329 -0.1284
  849MOL0     C11965   0.628   9.362   4.597  0.0219  0.6298  0.5578
  849MOL0     O11966   0.568   9.241   4.564  0.2115 -0.4201  0.0628
  849MOL0     C11967   0.619   9.126   4.612  0.4452 -0.7879  0.2185
  849MOL0     C11968   0.614   9.017   4.525  0.1714  0.4763  1.0517
  849MOL0     C11969   0.653   8.886   4.565  0.0075 -0.3632  0.5197
  849MOL0     C11970   0.700   8.866   4.695 -0.2033 -0.0060  0.3416
  849MOL0     O11971   0.725   8.737   4.737 -0.0627 -0.3421  0.5595
  849MOL0     C11972   0.647   8.682   4.845  0.5888 -0.5377 -0.1296
  849MOL0     C11973   0.642   8.529   4.826  0.6059 -0.5754  0.2526
  849MOL0     C11974   0.774   8.466   4.852 -0.3680  0.4334  0.3263
  849MOL0     C11975   0.766   8.310   4.868  0.2351 -0.2005  0.5683
  849MOL0     C11976   0.755   8.241   4.727  0.1756  0.5780 -0.2419
  849MOL0     C11977   0.726   8.092   4.745 -0.3589  0.1170 -0.7726
  849MOL0     C11978   0.577   8.060   4.796 -0.8365 -0.2846 -0.6779
  849MOL0     C11979   0.522   7.914   4.791  0.0208 -0.8372  0.2070
  849MOL0    Cl11980   0.616   7.801   4.895  0.1798 -0.2063 -0.2771
  849MOL0     C11981   0.718   8.976   4.772 -0.1577 -0.0754  0.2172
  849MOL0     C11982   0.678   9.106   4.737 -0.5376 -0.0670 -0.4022
  849MOL0     O11983   0.740   9.370   4.659  0.2276 -0.7058 -0.6505
  849MOL0     C11984   0.475   9.509   4.467 -0.2011 -0.0202  0.8789
  849MOL0     C11985   0.426   9.638   4.447  0.4814 -0.3047  0.3449
  849MOL0     N11986   0.180  10.321   4.159 -0.3766 -0.5202  1.0444
  849MOL0     N11987   0.283  10.395   4.125 -1.0317 -0.0468 -0.1370
  849MOL0     C11988   0.544  10.667   3.690  0.3601  0.3103  0.6264
  849MOL0     C11989   0.406  10.654   3.701  0.7659  0.0778 -0.3834
  849MOL0     C11990  -0.003  10.610   3.770  0.1219 -1.0581 -0.4115
  849MOL0     C11991  -0.011  10.492   3.851  0.6183 -0.3545 -0.7516
  849MOL0     C11992  -0.128  10.409   3.848  0.8750 -0.1903  0.7407
  849MOL0     C11993  -0.235  10.437   3.755 -1.1408  0.5024 -0.2266
  849MOL0     O11994  -0.334  10.357   3.709 -0.6037 -0.0211  0.6724
  849MOL0     C11995  -0.355  10.227   3.753 -0.2770  0.0316 -0.5049
  849MOL0     C11996  -0.436  10.215   3.885  0.4148  0.3214 -0.6269
  849MOL0     C11997  -0.576  10.272   3.875 -0.2416  0.5277  0.2106
  849MOL0     C11998  -0.636  10.321   4.011 -0.9582  0.1235 -0.3631
  849MOL0     C11999  -0.686  10.206   4.084  0.2345  1.1270 -0.1099
  849MOL0     C12000  -0.729  10.120   4.155  0.3416  0.4668  0.6470
  849MOL0     C12001  -0.221  10.560   3.685 -0.0476 -0.7595 -0.4111
  849MOL0     C12002  -0.111  10.638   3.686 -0.2319  0.0860  0.2115
  849MOL0     H12003   0.381  10.747   4.028  2.9882  0.5794  0.3567
  849MOL0     H12004   0.623  10.800   3.987  2.1268  0.2512 -1.7784
  849MOL0     H12005   0.936  10.710   3.709 -0.3741 -0.1067  0.7670
  849MOL0     H12006   0.814  10.583   3.670  2.5042 -2.1400  0.0423
  849MOL0     H12007   0.867  10.649   3.962 -0.8181  2.4287 -1.1353
  849MOL0     H12008   1.000  10.578   3.887  0.0085  1.5627  0.3404
  849MOL0     H12009   0.845  10.395   3.781 -3.5486 -1.5293 -0.4301
  849MOL0     H12010   0.714  10.476   3.860  1.4133  2.7950 -1.3194
  849MOL0     H12011   0.776  10.264   3.986 -0.3808 -0.1329  3.0039
  849MOL0     H12012   0.942  10.322   3.980 -0.0388  1.8139  2.6214
  849MOL0     H12013   0.942  10.481   4.136 -1.2029  1.6061  0.8165
  849MOL0     H12014   0.862  10.342   4.204 -0.6703  1.0752  1.0645
  849MOL0     H12015   0.718  10.588   4.117  0.7382  1.3818  1.5769
  849MOL0     H12016   0.735  10.525   4.281  0.4991  1.3148 -0.3202
  849MOL0     H12017   0.556  10.424   4.059  2.6335  1.5685 -1.6234
  849MOL0     H12018   0.604  10.320   4.196 -1.4574  0.7005  0.2524
  849MOL0     H12019   0.463  10.592   4.191  2.0438  0.6273 -0.0281
  849MOL0     H12020   0.515  10.533   4.340  0.3109 -0.8942 -0.4686
  849MOL0     H12021   0.333  10.358   4.444 -3.3305 -0.7591  0.7137
  849MOL0     H12022  -0.007  10.217   4.335 -1.2100  0.3057  2.9748
  849MOL0     H12023   0.094  10.254   4.475 -2.7050 -3.7359  0.6846
  849MOL0     H12024   0.158  10.038   4.282 -0.9625  1.3927 -0.0546
  849MOL0     H12025   0.045  10.010   4.407 -0.8624  2.9360  2.7305
  849MOL0     H12026   0.326  10.116   4.480 -2.1907  2.3663  0.6822
  849MOL0     H12027   0.222  10.026   4.577  0.1697  3.0527 -0.2203
  849MOL0     H12028   0.337   9.905   4.312  1.4099  0.7342  0.5007
  849MOL0     H12029   0.232   9.826   4.431 -3.2916  3.4512  3.0305
  849MOL0     H12030   0.578   9.806   4.694 -0.6838  1.0540 -0.7121
  849MOL0     H12031   0.675   9.588   4.732 -0.1398  0.9853  1.3920
  849MOL0     H12032   0.585   9.032   4.422  1.9257  0.6163  0.5388
  849MOL0     H12033   0.626   8.803   4.500 -0.1821  0.3263 -0.2957
  849MOL0     H12034   0.543   8.715   4.829  0.0528 -2.8394 -2.0362
  849MOL0     H12035   0.679   8.705   4.946  0.8334  0.5036 -0.4322
  849MOL0     H12036   0.612   8.491   4.727  3.0953 -2.3802  0.0963
  849MOL0     H12037   0.564   8.483   4.887  1.5793  0.6186  2.4989
  849MOL0     H12038   0.815   8.503   4.947  1.8538 -1.5099  0.2351
  849MOL0     H12039   0.840   8.499   4.771  2.7054 -2.3264  1.4843
  849MOL0     H12040   0.847   8.264   4.925  1.1658 -0.7591 -1.1217
  849MOL0     H12041   0.677   8.279   4.925  0.4125  0.6083  1.3111
  849MOL0     H12042   0.851   8.246   4.673 -0.3567  3.2270 -1.1119
  849MOL0     H12043   0.683   8.273   4.651  2.0905 -1.3719 -3.0905
  849MOL0     H12044   0.798   8.052   4.817 -0.9426 -2.2091 -1.3922
  849MOL0     H12045   0.744   8.042   4.649 -2.3393  1.2556 -1.8267
  849MOL0     H12046   0.575   8.092   4.900  2.7358  1.0207 -0.8334
  849MOL0     H12047   0.509   8.112   4.728 -2.2076 -3.1868 -1.6539
  849MOL0     H12048   0.527   7.874   4.689 -5.4692  1.7689 -1.5058
  849MOL0     H12049   0.418   7.909   4.826  0.2781 -1.4750  0.9182
  849MOL0     H12050   0.766   8.951   4.866 -0.4080 -0.6787  0.1927
  849MOL0     H12051   0.683   9.180   4.815  1.4700  0.1300 -0.6783
  849MOL0     H12052   0.441   9.437   4.394 -1.8262  1.0748  0.5042
  849MOL0     H12053   0.357   9.645   4.363  1.5967  0.2818 -0.5356
  849MOL0     H12054   0.584  10.635   3.595 -2.4393  1.5843 -1.1090
  849MOL0     H12055   0.340  10.612   3.626 -0.6509 -0.9539  1.3737
  849MOL0     H12056   0.078  10.469   3.910  1.3354  1.4762 -1.0560
  849MOL0     H12057  -0.137  10.320   3.908 -0.6751  1.1876  2.6911
  849MOL0     H12058  -0.263  10.168   3.767 -1.0274 -0.9266  0.5898
  849MOL0     H12059  -0.410  10.192   3.666 -1.2700  2.6276 -1.0077
  849MOL0     H12060  -0.459  10.109   3.900 -4.8346  0.7449 -3.3632
  849MOL0     H12061  -0.384  10.259   3.971  0.6140  0.7220 -0.9486
  849MOL0     H12062  -0.644  10.201   3.827  1.7469 -1.8376  0.7252
  849MOL0     H12063  -0.573  10.364   3.816  1.8578  0.4763  0.1802
  849MOL0     H12064  -0.555  10.377   4.059 -0.8139  0.5574 -1.1036
  849MOL0     H12065  -0.716  10.392   3.989  0.8721  1.5156 -2.9738
  849MOL0     H12066  -0.798  10.049   4.195 -3.2340  2.5493 -1.3213
  849MOL0     H12067  -0.300  10.596   3.620  1.1942 -0.6865 -1.9339
  849MOL0     H12068  -0.092  10.725   3.623 -0.1786 -0.4892 -0.5850
  850MOL0     O12069  11.116  10.485   1.278  0.7457  0.1235  0.3887
  850MOL0     C12070  11.164  10.473   1.167  0.3633  0.2892 -1.0820
  850MOL0     O12071  11.135  10.379   1.081  0.3654  0.1362  0.0951
  850MOL0     C12072  11.026  10.307   1.110 -0.6012  0.7036 -0.0089
  850MOL0     C12073  11.050  10.198   1.182 -0.1165 -0.1641 -0.4772
  850MOL0     C12074  10.961  10.098   1.195  0.5312 -0.4929  0.1498
  850MOL0     C12075  10.832  10.116   1.137 -0.1861  0.2682  0.3942
  850MOL0     O12076  10.733  10.019   1.136 -0.7784 -0.0045  0.0354
  850MOL0     C12077  10.752   9.885   1.184  0.1802  0.2265  0.3454
  850MOL0     C12078  10.727   9.858   1.339 -0.9666  0.0423  1.0589
  850MOL0     C12079  10.595   9.903   1.399 -0.0233 -0.1406 -0.1206
  850MOL0     C12080  10.471   9.889   1.307 -0.0209  0.5551 -0.0455
  850MOL0     C12081  10.347   9.911   1.373  0.5821  0.1274 -0.4881
  850MOL0     C12082  10.215   9.887   1.316  0.3591  0.5545  1.1997
  850MOL0     C12083  10.101   9.925   1.401  0.4201  0.3087  0.5845
  850MOL0     C12084  10.072  10.079   1.386 -0.7930  0.4664  0.9954
  850MOL0     N12085   9.952  10.128   1.454  0.1092  0.3129  0.1162
  850MOL0     C12086   9.830  10.060   1.426  0.2156 -1.3825  0.3097
  850MOL0     C12087   9.757  10.101   1.532 -0.9174  0.4268 -0.1736
  850MOL0     C12088   9.620  10.051   1.577  0.6631  0.9825 -0.0025
  850MOL0     C12089   9.622   9.945   1.682  0.5071 -1.0786  0.7162
  850MOL0     C12090   9.696   9.824   1.628  0.3141  0.6432  0.6892
  850MOL0     C12091   9.708   9.719   1.731  0.3903 -0.4361  0.1803
  850MOL0     O12092   9.790   9.774   1.835 -0.5112 -0.4310 -0.9376
  850MOL0     C12093   9.922   9.790   1.835  0.2119  0.3282  0.5013
  850MOL0     C12094   9.964   9.838   1.954  0.2569  0.5011  0.3790
  850MOL0     C12095  10.101   9.871   1.979  0.2170 -0.1225  0.0507
  850MOL0     C12096  10.196   9.844   1.874 -0.8419  0.3903  0.7565
  850MOL0     C12097  10.336   9.864   1.898 -1.0601  0.7276 -0.1819
  850MOL0     O12098  10.372   9.945   2.001 -0.1379  0.5837 -0.3241
  850MOL0     C12099  10.505   9.963   2.032  0.5655 -0.0432 -0.1818
  850MOL0     C12100  10.533  10.009   2.165  0.2639  0.6064  0.4761
  850MOL0     C12101  10.657  10.073   2.194  0.3876 -0.1638  0.4985
  850MOL0     C12102  10.764  10.073   2.104  0.1760 -0.2422  1.0050
  850MOL0     O12103  10.882  10.134   2.134 -0.4162 -0.3204  0.0649
  850MOL0     C12104  10.956  10.099   2.246  0.1669  0.4030 -0.3855
  850MOL0     C12105  10.992  10.229   2.324 -0.2952  0.0105 -0.5414
  850MOL0     C12106  11.067  10.194   2.452  0.6424  0.4247 -0.8000
  850MOL0     C12107  11.120  10.321   2.516 -0.3373 -0.1722 -0.0597
  850MOL0     C12108  11.187  10.301   2.655  0.5264 -0.0075  0.5864
  850MOL0     C12109  11.296  10.198   2.661 -0.3941 -0.7933  0.5713
  850MOL0     C12110  11.398  10.232   2.776  0.4930  0.6231  0.7187
  850MOL0     C12111  11.469  10.109   2.831  0.7257  0.3475 -0.0405
  850MOL0    Cl12112  11.355   9.993   2.896 -0.4151  0.2661 -0.1721
  850MOL0     C12113  10.738  10.027   1.973 -0.5151  0.1490 -0.0031
  850MOL0     C12114  10.605   9.977   1.941  0.5406 -0.2849  0.2304
  850MOL0     O12115  10.412   9.798   1.828  0.3849  0.5793  0.0063
  850MOL0     C12116  10.155   9.791   1.749 -0.1861  1.1579  0.2989
  850MOL0     C12117  10.010   9.763   1.732 -0.5165  0.1733  0.6082
  850MOL0     N12118   9.828  10.191   1.608 -0.1979 -0.5007  0.0137
  850MOL0     N12119   9.946  10.205   1.563  0.1722 -0.6269  0.3328
  850MOL0     C12120  10.799  10.228   1.061  0.4894 -0.5672  0.0342
  850MOL0     C12121  10.908  10.310   1.036  0.1757 -0.4281  0.2806
  850MOL0     C12122  11.273  10.571   1.140  0.5244  0.2859 -0.8848
  850MOL0     C12123  11.345  10.642   1.240  0.2706  0.5541 -0.2806
  850MOL0     C12124  11.454  10.728   1.211 -0.7088  0.5256  0.5303
  850MOL0     C12125  11.474  10.755   1.073  0.7432 -0.0947  0.2440
  850MOL0     O12126  11.566  10.837   1.020  0.1197 -0.4977 -0.1593
  850MOL0     C12127  11.658  10.903   1.112  0.8304 -0.6545 -1.1389
  850MOL0     C12128  11.743  11.012   1.070  0.2845 -0.0633  1.5119
  850MOL0     C12129  11.822  11.074   1.184 -0.2509  0.3946 -1.3439
  850MOL0     C12130  11.942  11.154   1.149  0.6289 -0.8298 -0.6201
  850MOL0     C12131  12.039  11.085   1.075 -0.2475 -0.2504 -0.2145
  850MOL0     C12132  12.120  11.048   0.996 -0.1236 -0.4384 -0.5885
  850MOL0     C12133  11.387  10.690   0.979 -0.1896  0.1805 -1.2080
  850MOL0     C12134  11.290  10.599   1.008 -0.7281 -1.0017  0.3324
  850MOL0     H12135  11.147  10.196   1.231 -0.3097  2.3916  0.1196
  850MOL0     H12136  10.985   9.999   1.234  1.3510 -1.2621 -2.1547
  850MOL0     H12137  10.847   9.845   1.147  0.3247  2.6519 -2.2763
  850MOL0     H12138  10.674   9.832   1.128  0.3300  1.6409 -1.2809
  850MOL0     H12139  10.808   9.907   1.394 -1.3567  0.3061  1.4065
  850MOL0     H12140  10.741   9.750   1.344 -3.3889 -0.5144 -1.6952
  850MOL0     H12141  10.591  10.004   1.442 -2.4718 -0.2621  0.1317
  850MOL0     H12142  10.585   9.824   1.474  0.2355 -1.5760 -1.5551
  850MOL0     H12143  10.489   9.953   1.220 -0.8282  0.7228 -0.0976
  850MOL0     H12144  10.482   9.786   1.273  4.6862  0.7025  0.3181
  850MOL0     H12145  10.343  10.012   1.415 -0.3197 -0.1542  0.1369
  850MOL0     H12146  10.353   9.847   1.462  2.8910 -0.2981 -0.8943
  850MOL0     H12147  10.201   9.786   1.276  0.2359  0.0754  2.4353
  850MOL0     H12148  10.210   9.949   1.226 -0.2844  1.2058  1.6729
  850MOL0     H12149  10.013   9.867   1.371  1.2011 -2.0097  2.4100
  850MOL0     H12150  10.125   9.897   1.504  0.1477 -2.6795 -0.0722
  850MOL0     H12151  10.057  10.101   1.280 -1.4833 -1.7702  0.5721
  850MOL0     H12152  10.162  10.129   1.424 -0.9066  0.3853  1.3767
  850MOL0     H12153   9.798   9.998   1.342 -0.3817  0.0154 -0.5337
  850MOL0     H12154   9.565  10.009   1.493  1.8455 -1.1636  0.2259
  850MOL0     H12155   9.558  10.131   1.619 -1.7840  0.0805 -1.7059
  850MOL0     H12156   9.519   9.919   1.709  0.8014 -0.2068  2.8475
  850MOL0     H12157   9.673   9.986   1.770 -1.9437 -1.3747  2.3739
  850MOL0     H12158   9.648   9.773   1.544  0.3774 -0.4259  1.2927
  850MOL0     H12159   9.799   9.855   1.607  0.8693 -0.8091  1.1822
  850MOL0     H12160   9.753   9.625   1.697  0.6132  0.0902 -0.9999
  850MOL0     H12161   9.607   9.691   1.762 -0.7752 -0.5149 -3.3418
  850MOL0     H12162   9.902   9.850   2.042 -1.5919  2.2776 -1.0706
  850MOL0     H12163  10.135   9.909   2.076 -0.5083 -1.1934  0.7412
  850MOL0     H12164  10.461  10.010   2.246  0.6938  0.0117  0.8742
  850MOL0     H12165  10.651  10.129   2.287 -1.2820  1.6084 -0.6136
  850MOL0     H12166  11.046  10.043   2.218 -0.3237  0.9148 -3.2906
  850MOL0     H12167  10.904  10.022   2.304 -0.7850 -0.3057 -2.1238
  850MOL0     H12168  10.900  10.282   2.351  0.0151  0.3784 -0.1986
  850MOL0     H12169  11.053  10.292   2.258 -1.8612 -1.2209 -3.3610
  850MOL0     H12170  11.145  10.121   2.425  0.9609 -1.2119  3.7344
  850MOL0     H12171  10.996  10.146   2.521  1.0749  1.1649  0.1839
  850MOL0     H12172  11.178  10.380   2.445  0.9776  0.2615  1.3080
  850MOL0     H12173  11.027  10.375   2.536 -2.9934 -3.9983 -1.0412
  850MOL0     H12174  11.109  10.278   2.728 -1.0509  1.5414 -0.5121
  850MOL0     H12175  11.221  10.401   2.685 -3.2851  1.4851  0.5837
  850MOL0     H12176  11.356  10.204   2.570  0.5795 -0.6025  1.2090
  850MOL0     H12177  11.252  10.098   2.675  0.2846 -1.3627 -1.0859
  850MOL0     H12178  11.471  10.303   2.738  2.2982 -1.9082 -0.8474
  850MOL0     H12179  11.343  10.280   2.858 -0.3715  0.7999  0.0570
  850MOL0     H12180  11.536  10.148   2.908 -1.4909  0.4372  1.9643
  850MOL0     H12181  11.528  10.066   2.749  0.2803  0.1223 -0.2480
  850MOL0     H12182  10.820  10.036   1.902  0.1867 -0.4769  0.7156
  850MOL0     H12183  10.585   9.957   1.836  1.1128 -1.3315  0.3134
  850MOL0     H12184  10.225   9.766   1.670 -2.1471 -0.8320 -0.9227
  850MOL0     H12185   9.970   9.710   1.645  1.0995 -0.4130  0.1857
  850MOL0     H12186  10.704  10.230   1.010  3.0730 -0.3973 -5.4922
  850MOL0     H12187  10.898  10.385   0.959  2.4685  0.1289  0.4576
  850MOL0     H12188  11.324  10.615   1.343 -1.2933 -1.5088 -1.0557
  850MOL0     H12189  11.520  10.783   1.278 -0.1818  1.2612 -0.5747
  850MOL0     H12190  11.724  10.833   1.164 -0.9345 -0.8788  0.9269
  850MOL0     H12191  11.593  10.943   1.190  0.6955  0.5485 -1.8477
  850MOL0     H12192  11.811  10.972   0.994 -1.4046 -0.8887  0.3682
  850MOL0     H12193  11.679  11.088   1.025 -0.4050  0.3844  3.1708
  850MOL0     H12194  11.849  10.991   1.249 -1.4887  2.4346  2.0040
  850MOL0     H12195  11.752  11.125   1.251  2.8956  0.0701  2.5347
  850MOL0     H12196  11.913  11.227   1.073  0.9771 -2.3018 -2.2625
  850MOL0     H12197  11.978  11.190   1.245 -0.3358 -0.2052 -0.4752
  850MOL0     H12198  12.188  10.998   0.931  1.2868  0.9568 -0.2364
  850MOL0     H12199  11.405  10.711   0.874  0.8573 -0.4153 -1.1634
  850MOL0     H12200  11.212  10.565   0.941 -0.6419 -0.6609  0.0541
  851MOL0     O12201   8.352   2.180   0.638 -0.6411  0.5661  0.6244
  851MOL0     C12202   8.246   2.241   0.613  0.2453 -1.1613 -0.5000
  851MOL0     O12203   8.144   2.199   0.532  0.0586  0.6933  0.0053
  851MOL0     C12204   8.165   2.082   0.455 -0.2742 -0.1921 -0.3819
  851MOL0     C12205   8.052   2.005   0.431 -0.6985 -0.0547  0.4994
  851MOL0     C12206   8.051   1.886   0.354 -0.2351 -0.3518  0.3693
  851MOL0     C12207   8.168   1.837   0.300 -0.1223 -0.0108 -0.7739
  851MOL0     O12208   8.165   1.710   0.237  0.0045 -0.4795  0.0425
  851MOL0     C12209   8.070   1.611   0.281  0.6453 -1.1946  0.1482
  851MOL0     C12210   8.112   1.478   0.231  0.0364  0.7071  0.7248
  851MOL0     C12211   8.127   1.469   0.078  0.1013 -0.8539  0.3085
  851MOL0     C12212   8.148   1.333   0.012 -0.2717 -0.0779  0.3885
  851MOL0     C12213   8.232   1.332  -0.119 -0.6532  0.5905  0.2770
  851MOL0     C12214   8.374   1.358  -0.088 -0.7265  1.2741 -0.2831
  851MOL0     C12215   8.457   1.348  -0.214 -0.1530  0.2302 -0.7623
  851MOL0     C12216   8.598   1.388  -0.166 -0.4842  0.1744 -0.1555
  851MOL0     N12217   8.682   1.367  -0.280 -0.2758  0.0427 -0.4699
  851MOL0     C12218   8.749   1.250  -0.307  0.0554 -0.2104  0.4187
  851MOL0     C12219   8.797   1.251  -0.429  0.3567  0.5375  0.8040
  851MOL0     C12220   8.885   1.162  -0.509 -0.2233  1.1430  0.0407
  851MOL0     C12221   8.840   1.135  -0.653  0.3680  0.5558 -1.0466
  851MOL0     C12222   8.929   1.026  -0.707  0.0185  0.3001 -0.0649
  851MOL0     C12223   9.080   1.055  -0.739  0.0021 -0.4890 -0.2348
  851MOL0     O12224   9.129   1.195  -0.757  0.3074  1.0494  1.1833
  851MOL0     C12225   9.257   1.211  -0.710 -0.0984 -0.5663 -0.0142
  851MOL0     C12226   9.351   1.123  -0.714  0.5013 -0.2855 -0.4240
  851MOL0     C12227   9.486   1.176  -0.699  0.4166 -0.4663  0.1807
  851MOL0     C12228   9.516   1.309  -0.665 -0.2508 -0.7294  0.2661
  851MOL0     C12229   9.643   1.365  -0.641 -1.5935  0.5142 -0.3424
  851MOL0     O12230   9.749   1.287  -0.677 -0.1368  0.0154 -0.0267
  851MOL0     C12231   9.879   1.335  -0.663  0.3039  1.1232  0.2340
  851MOL0     C12232   9.923   1.456  -0.718  0.1947  0.1797  0.1223
  851MOL0     C12233  10.053   1.500  -0.717  0.2764 -0.0738  0.5338
  851MOL0     C12234  10.149   1.429  -0.648  0.9247  1.5251 -0.1777
  851MOL0     O12235  10.281   1.454  -0.668  0.2727 -0.5920 -0.2713
  851MOL0     C12236  10.357   1.495  -0.547  0.1059  0.6348  0.3183
  851MOL0     C12237  10.508   1.495  -0.549  0.1650 -1.2825  0.4619
  851MOL0     C12238  10.574   1.386  -0.626  0.5378  0.8707  0.0592
  851MOL0     C12239  10.726   1.394  -0.631 -0.5191 -0.2206  0.6615
  851MOL0     C12240  10.774   1.523  -0.698  0.3457  0.0920  0.0323
  851MOL0     C12241  10.927   1.513  -0.735  0.2429  0.8304  0.4910
  851MOL0     C12242  10.949   1.456  -0.876  0.0943  0.0235  0.5885
  851MOL0     C12243  11.075   1.380  -0.891 -0.1170  0.3184 -0.1642
  851MOL0    Cl12244  11.215   1.484  -0.838 -0.5216  0.7619 -0.1134
  851MOL0     C12245  10.106   1.317  -0.575  0.1188  0.1970  0.1532
  851MOL0     C12246   9.970   1.263  -0.586 -0.2044 -0.0843  0.0344
  851MOL0     O12247   9.651   1.483  -0.619 -0.1409  0.2911  0.0777
  851MOL0     C12248   9.407   1.395  -0.662 -0.6399  0.1411 -0.1008
  851MOL0     C12249   9.279   1.345  -0.689 -0.0916  0.3684 -0.2116
  851MOL0     N12250   8.752   1.372  -0.478  0.3879 -0.3974 -0.1149
  851MOL0     N12251   8.693   1.439  -0.389  0.0279  0.5940 -0.4160
  851MOL0     C12252   8.286   1.906   0.319 -0.5893 -0.1536  0.2158
  851MOL0     C12253   8.289   2.032   0.387 -0.6648  0.8056  0.4143
  851MOL0     C12254   8.227   2.373   0.673 -0.1122  0.2327 -0.2085
  851MOL0     C12255   8.274   2.411   0.795 -0.4231 -1.1330 -0.1852
  851MOL0     C12256   8.232   2.530   0.861  0.1856  0.8107 -0.0934
  851MOL0     C12257   8.135   2.612   0.798  0.3245  0.5178  1.3791
  851MOL0     O12258   8.079   2.724   0.853 -0.2555 -0.2172 -0.1094
  851MOL0     C12259   8.141   2.796   0.966 -0.7000 -0.3638  0.3767
  851MOL0     C12260   8.064   2.923   1.012 -0.0315 -0.3936 -0.2520
  851MOL0     C12261   7.938   2.882   1.092 -0.4870  0.9623  0.0703
  851MOL0     C12262   7.817   2.977   1.099 -0.3827  0.0764  0.5454
  851MOL0     C12263   7.864   3.091   1.166  0.6396 -0.2452 -0.0390
  851MOL0     C12264   7.908   3.180   1.238 -0.0972 -1.3987 -0.3582
  851MOL0     C12265   8.079   2.579   0.675 -0.9135 -1.2370  0.4824
  851MOL0     C12266   8.133   2.459   0.616  0.6270 -0.5701  0.0428
  851MOL0     H12267   7.959   2.045   0.471 -1.3292  1.4469 -2.2197
  851MOL0     H12268   7.956   1.837   0.339 -0.7154  1.0719 -1.6823
  851MOL0     H12269   7.968   1.641   0.255 -0.3902 -0.5085  4.2707
  851MOL0     H12270   8.081   1.612   0.390 -0.3111 -1.8733  0.2518
  851MOL0     H12271   8.030   1.410   0.256 -2.2926  2.9417 -0.4239
  851MOL0     H12272   8.203   1.452   0.287  3.1624  1.8548 -3.3569
  851MOL0     H12273   8.212   1.533   0.053 -1.7118  1.8394  0.6156
  851MOL0     H12274   8.033   1.516   0.045  0.7103  1.2542  1.4239
  851MOL0     H12275   8.196   1.262   0.079  2.9377 -0.1412 -1.7637
  851MOL0     H12276   8.045   1.308  -0.013 -0.3812  3.4738 -4.0226
  851MOL0     H12277   8.200   1.402  -0.197  0.6969 -1.2483 -2.0804
  851MOL0     H12278   8.234   1.231  -0.163  2.6959  0.7853 -0.2980
  851MOL0     H12279   8.402   1.280  -0.017 -1.7473  1.2502  0.1136
  851MOL0     H12280   8.378   1.455  -0.038 -2.8682  2.6783 -2.5698
  851MOL0     H12281   8.452   1.245  -0.249 -0.3103 -0.2341  0.5768
  851MOL0     H12282   8.423   1.430  -0.278  0.7592  0.7572 -0.5832
  851MOL0     H12283   8.644   1.322  -0.092  0.8513 -0.0450 -1.1364
  851MOL0     H12284   8.614   1.484  -0.115  0.4507  0.8987 -1.7434
  851MOL0     H12285   8.767   1.171  -0.234 -1.2055 -0.3239  0.6463
  851MOL0     H12286   8.889   1.071  -0.447  1.7827 -1.4329 -3.4810
  851MOL0     H12287   8.989   1.194  -0.516  0.2560 -0.3844 -0.1769
  851MOL0     H12288   8.851   1.225  -0.715  0.7153 -0.6873 -2.8963
  851MOL0     H12289   8.738   1.098  -0.644  1.0816 -1.1998  0.2465
  851MOL0     H12290   8.918   0.936  -0.646 -2.7477 -1.6772 -3.1169
  851MOL0     H12291   8.876   1.007  -0.801 -0.2575  0.7950 -0.0120
  851MOL0     H12292   9.112   0.998  -0.827 -4.8832 -0.0052 -2.6196
  851MOL0     H12293   9.129   1.020  -0.647 -1.5507  0.2613  0.9110
  851MOL0     H12294   9.332   1.021  -0.748  2.2380 -0.7888  0.0215
  851MOL0     H12295   9.574   1.113  -0.706  0.2316 -1.2814  3.4021
  851MOL0     H12296   9.865   1.519  -0.785 -2.9352 -3.3016 -0.8244
  851MOL0     H12297  10.069   1.582  -0.785  3.2959  1.5199  2.8990
  851MOL0     H12298  10.349   1.415  -0.472  3.3129  0.2035  0.3413
  851MOL0     H12299  10.317   1.587  -0.504 -1.8539 -0.2196  0.4093
  851MOL0     H12300  10.558   1.502  -0.452  1.6658  1.5526 -0.3972
  851MOL0     H12301  10.539   1.593  -0.586 -1.3683  0.4536  3.4278
  851MOL0     H12302  10.540   1.398  -0.729 -4.9591 -0.2646  1.4266
  851MOL0     H12303  10.550   1.287  -0.586  0.7661  0.4482 -0.8280
  851MOL0     H12304  10.766   1.390  -0.529 -0.6946 -2.8356  0.6910
  851MOL0     H12305  10.765   1.299  -0.668 -2.2132  0.0324 -2.0276
  851MOL0     H12306  10.762   1.595  -0.617  1.3153 -0.1086  0.3751
  851MOL0     H12307  10.711   1.536  -0.787  0.9195 -2.7417 -0.9173
  851MOL0     H12308  10.979   1.468  -0.650 -0.0615  2.1867  1.4345
  851MOL0     H12309  10.975   1.610  -0.751  1.2386  0.2162 -0.4098
  851MOL0     H12310  10.869   1.387  -0.904  0.4072 -0.0274 -0.2001
  851MOL0     H12311  10.947   1.545  -0.940  2.6450 -1.2616 -1.4777
  851MOL0     H12312  11.093   1.350  -0.995  1.4495  2.2072 -0.5010
  851MOL0     H12313  11.065   1.296  -0.822 -0.2704  1.4947  1.2838
  851MOL0     H12314  10.177   1.253  -0.524 -0.1580 -1.1364 -1.0894
  851MOL0     H12315   9.938   1.169  -0.542 -1.6437 -0.1073 -0.9889
  851MOL0     H12316   9.406   1.499  -0.630  2.5800 -0.1242  1.3312
  851MOL0     H12317   9.194   1.411  -0.672 -0.2529 -0.1433  1.0846
  851MOL0     H12318   8.373   1.863   0.271 -1.6602  0.5403 -2.5512
  851MOL0     H12319   8.378   2.089   0.411 -0.8092  2.0369 -1.7673
  851MOL0     H12320   8.339   2.350   0.857 -0.2949 -1.8401 -0.9912
  851MOL0     H12321   8.260   2.550   0.964 -2.8013  0.7276  0.8335
  851MOL0     H12322   8.238   2.820   0.922 -0.8833 -0.6615 -0.2030
  851MOL0     H12323   8.149   2.726   1.050 -0.2513 -0.1325  0.5253
  851MOL0     H12324   8.124   2.996   1.067 -1.7332  0.3141  0.7380
  851MOL0     H12325   8.030   2.984   0.928  1.2557 -0.7335 -1.0457
  851MOL0     H12326   7.968   2.861   1.195 -0.3094 -1.7589 -0.4780
  851MOL0     H12327   7.908   2.784   1.054  1.7475  0.1824  0.2218
  851MOL0     H12328   7.776   2.995   0.999 -1.6867 -0.0693  1.0327
  851MOL0     H12329   7.735   2.938   1.160  0.8472  1.5841  3.3428
  851MOL0     H12330   7.948   3.260   1.297 -2.9246  0.3826 -0.6740
  851MOL0     H12331   8.010   2.645   0.623  0.0487 -0.7300 -0.1940
  851MOL0     H12332   8.094   2.428   0.520  0.2726 -0.2990  0.0977
  852MOL0     O12333   5.005   2.660   0.933 -0.2391 -0.2446  0.5064
  852MOL0     C12334   4.978   2.658   1.053 -0.4960  0.2045 -0.3862
  852MOL0     O12335   4.866   2.604   1.114  0.2318  0.2614  0.1346
  852MOL0     C12336   4.773   2.563   1.023 -0.5512  0.0400 -0.2040
  852MOL0     C12337   4.669   2.651   1.010 -0.6968  0.9859  0.2880
  852MOL0     C12338   4.562   2.625   0.930  0.0287  0.3559  0.0273
  852MOL0     C12339   4.552   2.504   0.861 -0.5483  0.3112  0.4624
  852MOL0     O12340   4.459   2.468   0.768 -0.2447 -0.2052 -0.8644
  852MOL0     C12341   4.329   2.527   0.768  0.6267  0.0416  0.5736
  852MOL0     C12342   4.253   2.483   0.648 -0.2459 -0.1271  0.0940
  852MOL0     C12343   4.098   2.521   0.637 -0.7874 -0.5317 -0.3294
  852MOL0     C12344   4.050   2.510   0.489  1.0054 -0.0546  0.2433
  852MOL0     C12345   3.899   2.544   0.484 -0.6030 -0.0050  0.1176
  852MOL0     C12346   3.806   2.440   0.572  0.7487  0.0160  0.6901
  852MOL0     C12347   3.836   2.291   0.533 -0.3782 -0.2801 -0.5247
  852MOL0     C12348   3.727   2.205   0.587  0.0848 -0.2729  0.1159
  852MOL0     N12349   3.772   2.061   0.577 -0.1787 -0.6795 -0.6816
  852MOL0     C12350   3.836   1.990   0.676  0.4228  1.3947  0.5485
  852MOL0     C12351   3.862   1.871   0.611  0.0754  0.5043 -0.6956
  852MOL0     C12352   3.946   1.762   0.675 -0.5378  0.2460 -0.6387
  852MOL0     C12353   3.886   1.693   0.790  0.5370  0.6082  0.6215
  852MOL0     C12354   3.988   1.607   0.877  0.4803 -0.4761 -0.0552
  852MOL0     C12355   4.049   1.695   0.993  0.0698  0.7269 -0.8162
  852MOL0     O12356   4.151   1.792   0.941 -0.2838  0.8843 -0.6084
  852MOL0     C12357   4.278   1.744   0.897  0.9067 -0.9163 -0.1484
  852MOL0     C12358   4.337   1.809   0.787  1.0664 -1.1845  0.3587
  852MOL0     C12359   4.467   1.772   0.739  0.6641  1.8773 -0.0722
  852MOL0     C12360   4.526   1.670   0.807 -0.4938  0.0145  0.4070
  852MOL0     C12361   4.658   1.605   0.760  1.2149  0.2474 -0.6491
  852MOL0     O12362   4.685   1.623   0.632 -0.2705 -0.9447 -0.5907
  852MOL0     C12363   4.809   1.590   0.580  0.3931  0.1893 -1.0080
  852MOL0     C12364   4.822   1.491   0.480  0.9299  0.7744  0.1826
  852MOL0     C12365   4.941   1.463   0.414 -0.2490 -0.1330 -0.0512
  852MOL0     C12366   5.056   1.540   0.433  0.1362 -1.4065 -0.2821
  852MOL0     O12367   5.167   1.509   0.368  0.3710  0.3529  1.0061
  852MOL0     C12368   5.293   1.543   0.424 -0.4276 -0.7520 -0.4889
  852MOL0     C12369   5.390   1.542   0.308 -0.2361  0.0542  0.1722
  852MOL0     C12370   5.364   1.635   0.189 -0.0741 -0.2302 -0.5377
  852MOL0     C12371   5.400   1.780   0.215  0.4664 -0.3255 -0.4178
  852MOL0     C12372   5.432   1.862   0.095 -0.9714 -0.4553  0.0366
  852MOL0     C12373   5.320   1.876  -0.003 -0.1572  0.7067  0.3501
  852MOL0     C12374   5.365   1.963  -0.127  0.4261  0.6470 -0.0385
  852MOL0     C12375   5.241   1.954  -0.229 -1.1167  0.2337  0.2585
  852MOL0    Cl12376   5.237   1.780  -0.289 -0.0749  0.2590  0.1186
  852MOL0     C12377   5.042   1.629   0.543 -0.5633  0.1029  0.3466
  852MOL0     C12378   4.923   1.660   0.610 -0.4849 -0.5051  0.8892
  852MOL0     O12379   4.725   1.551   0.843  0.0430 -0.3422  0.4783
  852MOL0     C12380   4.462   1.611   0.912  0.7236 -0.3942  0.1605
  852MOL0     C12381   4.337   1.646   0.967  0.6449 -0.6519 -0.2166
  852MOL0     N12382   3.824   1.869   0.482  1.3176 -0.2610 -0.0964
  852MOL0     N12383   3.779   1.989   0.460  0.2228 -0.0111  0.4034
  852MOL0     C12384   4.659   2.418   0.869  0.0836  0.2036 -0.4419
  852MOL0     C12385   4.767   2.444   0.950 -0.3715 -0.0529 -0.4682
  852MOL0     C12386   5.076   2.722   1.144  0.7152 -0.9709 -0.3048
  852MOL0     C12387   5.029   2.804   1.253  0.2849  0.6060 -0.0551
  852MOL0     C12388   5.110   2.859   1.343 -0.4183 -0.1339  0.0887
  852MOL0     C12389   5.247   2.860   1.319 -0.8729  0.7848 -0.0375
  852MOL0     O12390   5.329   2.931   1.399  0.3081  0.8112  0.0674
  852MOL0     C12391   5.387   2.865   1.512  0.0409  0.1070 -0.2604
  852MOL0     C12392   5.480   2.762   1.459 -0.4285 -0.4205  0.3337
  852MOL0     C12393   5.554   2.675   1.565  0.0364  0.5925 -0.5329
  852MOL0     C12394   5.697   2.637   1.526 -0.4461 -0.1403 -0.2123
  852MOL0     C12395   5.782   2.753   1.547  0.7747 -0.5728  1.0674
  852MOL0     C12396   5.847   2.853   1.533 -0.5862 -0.7536  0.2612
  852MOL0     C12397   5.303   2.796   1.199 -0.0163  0.2672 -0.0479
  852MOL0     C12398   5.214   2.727   1.117  0.0981 -0.2797 -0.0563
  852MOL0     H12399   4.675   2.740   1.072 -2.8486  1.0269  0.5211
  852MOL0     H12400   4.490   2.707   0.931 -1.9774 -1.3250 -0.6375
  852MOL0     H12401   4.345   2.636   0.763  1.5144 -0.1352 -0.9396
  852MOL0     H12402   4.279   2.504   0.862  1.1364  2.3560  1.4864
  852MOL0     H12403   4.266   2.375   0.641 -0.5454 -0.7055  4.9217
  852MOL0     H12404   4.310   2.526   0.566  0.1968 -3.3997 -1.4629
  852MOL0     H12405   4.086   2.628   0.660 -0.5998 -0.6930  0.5871
  852MOL0     H12406   4.039   2.452   0.698 -0.0789 -0.7382  0.1365
  852MOL0     H12407   4.113   2.578   0.432 -0.1972  1.5768  0.7846
  852MOL0     H12408   4.062   2.407   0.453 -3.3516  0.1711 -2.5620
  852MOL0     H12409   3.863   2.536   0.381 -0.8827 -1.5145  0.3094
  852MOL0     H12410   3.881   2.649   0.509 -3.1443 -0.8108  2.2402
  852MOL0     H12411   3.707   2.474   0.542  2.0662  2.7878 -0.9858
  852MOL0     H12412   3.810   2.456   0.680 -0.5911  2.0999  0.4804
  852MOL0     H12413   3.842   2.281   0.425  0.5028 -2.4581 -0.3125
  852MOL0     H12414   3.928   2.267   0.587 -0.3874  0.8153  0.0026
  852MOL0     H12415   3.641   2.222   0.522  1.3594  2.8316 -0.9299
  852MOL0     H12416   3.705   2.227   0.692  0.9698 -4.1251  1.2980
  852MOL0     H12417   3.861   2.017   0.778 -0.9947 -0.8917  1.5598
  852MOL0     H12418   4.039   1.801   0.717  1.3972 -3.1407 -1.3822
  852MOL0     H12419   3.976   1.682   0.606 -2.1701 -3.8610  2.9211
  852MOL0     H12420   3.809   1.619   0.765  1.1443 -0.2380  1.1847
  852MOL0     H12421   3.826   1.753   0.859 -1.4345 -2.4474  1.7491
  852MOL0     H12422   3.926   1.526   0.918 -2.1082  2.5090  2.5263
  852MOL0     H12423   4.065   1.571   0.809 -0.2046 -1.8630 -0.1176
  852MOL0     H12424   4.078   1.633   1.078 -1.8623  0.7151 -0.1100
  852MOL0     H12425   3.965   1.749   1.037 -0.6157  0.8334 -2.1929
  852MOL0     H12426   4.275   1.877   0.729  0.4255 -0.9446  1.2953
  852MOL0     H12427   4.503   1.805   0.643 -0.8670 -1.9775 -2.2258
  852MOL0     H12428   4.742   1.423   0.452  1.7240 -1.6524  3.3212
  852MOL0     H12429   4.943   1.382   0.342 -0.4172 -2.1378  2.0564
  852MOL0     H12430   5.312   1.468   0.501  1.5902 -0.7416 -0.9178
  852MOL0     H12431   5.296   1.645   0.464 -1.5642 -0.3655 -1.3369
  852MOL0     H12432   5.375   1.437   0.280 -0.7895  0.5422 -1.4625
  852MOL0     H12433   5.490   1.549   0.351 -1.1731 -0.2011  2.5549
  852MOL0     H12434   5.258   1.653   0.169 -0.7819 -0.8954  2.1281
  852MOL0     H12435   5.416   1.600   0.100  0.9701 -1.6866  0.5884
  852MOL0     H12436   5.315   1.829   0.262  1.0189  2.2774 -1.9639
  852MOL0     H12437   5.484   1.779   0.285  0.6849 -0.3966 -0.6774
  852MOL0     H12438   5.523   1.829   0.044 -0.8851 -0.6726  0.3322
  852MOL0     H12439   5.459   1.965   0.120 -1.8087  0.2952 -1.9498
  852MOL0     H12440   5.237   1.931   0.042  1.1036  1.9400  1.2694
  852MOL0     H12441   5.298   1.777  -0.043  1.3689 -0.1347  1.4888
  852MOL0     H12442   5.381   2.062  -0.083 -2.7511  0.9571  0.6486
  852MOL0     H12443   5.458   1.927  -0.172 -1.1654 -1.8082 -1.6516
  852MOL0     H12444   5.249   2.016  -0.319  3.3078 -0.9867 -0.3887
  852MOL0     H12445   5.161   1.998  -0.168 -0.1140  1.9412  0.4114
  852MOL0     H12446   5.130   1.677   0.586  1.0887 -2.3577 -0.1237
  852MOL0     H12447   4.920   1.709   0.707 -0.2443 -0.4440  0.8649
  852MOL0     H12448   4.510   1.542   0.980 -2.3459 -2.3906  0.5282
  852MOL0     H12449   4.300   1.603   1.060  0.2396 -0.0247 -0.0744
  852MOL0     H12450   4.653   2.320   0.823 -2.6080  0.3913 -0.6257
  852MOL0     H12451   4.839   2.373   0.992  0.2477  2.2581  2.7437
  852MOL0     H12452   4.922   2.802   1.268  0.2710 -2.8924  0.2151
  852MOL0     H12453   5.072   2.907   1.432 -2.5923 -0.9014 -0.3710
  852MOL0     H12454   5.304   2.821   1.569  0.7344  1.0186  1.5358
  852MOL0     H12455   5.442   2.928   1.583  0.3846 -0.8758  0.3756
  852MOL0     H12456   5.425   2.686   1.403  0.0845 -2.2225  2.1739
  852MOL0     H12457   5.545   2.809   1.385 -1.3428  0.0239 -0.2038
  852MOL0     H12458   5.494   2.588   1.593 -0.7182  1.6017  1.0922
  852MOL0     H12459   5.559   2.740   1.652  0.7692  1.2973 -1.0822
  852MOL0     H12460   5.713   2.562   1.603 -3.0777 -0.7203 -0.1189
  852MOL0     H12461   5.711   2.586   1.430  0.9934 -1.2461  0.5577
  852MOL0     H12462   5.915   2.935   1.535 -1.1731 -0.2679  0.7405
  852MOL0     H12463   5.408   2.785   1.174 -0.3610 -1.1519 -0.9509
  852MOL0     H12464   5.257   2.665   1.039  6.2025  0.2223  2.3522
  853MOL0     O12465   9.449   0.849  11.075 -0.0023  0.5575  0.9707
  853MOL0     C12466   9.418   0.969  11.042 -0.6952  0.5368 -0.5920
  853MOL0     O12467   9.294   1.010  11.002 -0.4253  0.6833 -0.0011
  853MOL0     C12468   9.200   0.925  10.971  0.7769 -0.3017 -0.5610
  853MOL0     C12469   9.075   0.951  11.035  0.3937 -0.7394 -0.5486
  853MOL0     C12470   8.961   0.879  11.019 -0.1150 -0.1362  0.2193
  853MOL0     C12471   8.979   0.762  10.934  1.0152 -0.0439 -0.5891
  853MOL0     O12472   8.877   0.676  10.914  0.0373  0.0588 -0.0576
  853MOL0     C12473   8.837   0.601  11.029 -1.6290  0.1252 -0.1889
  853MOL0     C12474   8.703   0.526  11.005  0.5656  0.7075  0.1570
  853MOL0     C12475   8.606   0.554  11.122  0.7992  0.8046 -0.4761
  853MOL0     C12476   8.469   0.485  11.112 -0.3441  0.2295 -0.1978
  853MOL0     C12477   8.455   0.333  11.142  0.2583 -0.5036 -0.3761
  853MOL0     C12478   8.501   0.302  11.293  1.3176  0.3551  0.2345
  853MOL0     C12479   8.521   0.162  11.343 -0.2130 -0.3978  0.3876
  853MOL0     C12480   8.550   0.063  11.229  0.5595  0.4868 -0.9343
  853MOL0     N12481   8.689   0.076  11.170  0.3124 -0.4964 -0.3404
  853MOL0     C12482   8.804   0.063  11.240 -0.7283 -0.1523  0.4999
  853MOL0     C12483   8.897   0.049  11.147 -0.7033 -0.3387  0.8093
  853MOL0     C12484   9.045   0.027  11.170 -0.3162 -0.0549 -0.4659
  853MOL0     C12485   9.128   0.146  11.222 -0.2846  0.0417  0.5815
  853MOL0     C12486   9.105   0.261  11.145 -0.3124 -1.5905 -0.2355
  853MOL0     C12487   9.207   0.370  11.191  0.4878  0.2735  0.6378
  853MOL0     O12488   9.177   0.396  11.335  0.3886 -0.1943 -0.6280
  853MOL0     C12489   9.250   0.496  11.386  0.5289 -1.3027 -0.0918
  853MOL0     C12490   9.277   0.490  11.523  0.5936  0.2419 -0.4364
  853MOL0     C12491   9.354   0.590  11.580 -0.4929  0.2870 -0.2348
  853MOL0     C12492   9.388   0.702  11.512  0.1902  0.3124 -0.2886
  853MOL0     C12493   9.463   0.813  11.567  0.6717  0.3998 -0.5671
  853MOL0     O12494   9.500   0.813  11.698 -0.0896  0.5603 -0.6486
  853MOL0     C12495   9.584   0.915  11.748 -0.2394 -0.1049  0.0377
  853MOL0     C12496   9.546   0.995  11.855 -0.4393 -0.2771  0.2112
  853MOL0     C12497   9.631   1.089  11.908 -0.4034 -0.4237 -0.1879
  853MOL0     C12498   9.769   1.091  11.871  0.9268 -0.3910 -0.7200
  853MOL0     O12499   9.863   1.175  11.919  1.1158  0.4495  0.0654
  853MOL0     C12500   9.825   1.275  12.014 -0.1962 -0.1025 -0.5655
  853MOL0     C12501   9.934   1.366  12.087  0.0919  0.1767  0.6200
  853MOL0     C12502   9.857   1.456  12.181  0.1135  0.5608 -0.7188
  853MOL0     C12503   9.954   1.516  12.280 -0.1492 -0.9250  0.2244
  853MOL0     C12504   9.895   1.629  12.350 -0.1861 -0.7460  0.4637
  853MOL0     C12505   9.995   1.715  12.441 -0.5161 -0.0583  0.7718
  853MOL0     C12506   9.936   1.827  12.515  0.4417  0.2945 -0.2083
  853MOL0     C12507   9.904   1.807  12.661  0.0054 -0.3628  0.5051
  853MOL0    Cl12508   9.781   1.925  12.701 -0.0963  0.1704  0.0222
  853MOL0     C12509   9.809   1.009  11.770 -0.4552  0.6684  0.1107
  853MOL0     C12510   9.720   0.920  11.710  1.5527 -0.5618  1.0703
  853MOL0     O12511   9.499   0.904  11.491  0.1807  0.6985  0.1101
  853MOL0     C12512   9.345   0.711  11.380  0.0531 -0.1636  0.0618
  853MOL0     C12513   9.283   0.608  11.316 -0.3012  0.6192  0.3772
  853MOL0     N12514   8.847   0.075  11.025 -0.1539  1.4430  0.8414
  853MOL0     N12515   8.718   0.094  11.040  0.2195 -0.2944  0.9753
  853MOL0     C12516   9.094   0.747  10.861 -0.2606 -0.2626  0.0493
  853MOL0     C12517   9.207   0.822  10.877 -0.3989  0.8930 -0.4437
  853MOL0     C12518   9.529   1.064  11.060 -0.7483 -0.2505  0.4020
  853MOL0     C12519   9.523   1.195  11.016 -0.4398  0.9535 -0.5126
  853MOL0     C12520   9.618   1.288  11.025 -0.0540 -0.1097  0.0990
  853MOL0     C12521   9.748   1.267  11.073 -0.7600  0.0771 -1.2873
  853MOL0     O12522   9.854   1.355  11.085  0.7305  0.1580  0.0031
  853MOL0     C12523   9.836   1.480  11.012  0.2781 -0.0456  1.1915
  853MOL0     C12524   9.953   1.571  11.036  0.3973  0.1399  0.5018
  853MOL0     C12525   9.958   1.617  11.186 -0.1278  0.2414 -0.7509
  853MOL0     C12526  10.073   1.711  11.226  1.0762  0.3273 -0.6361
  853MOL0     C12527  10.188   1.626  11.235 -0.8335 -0.6662 -0.8044
  853MOL0     C12528  10.286   1.563  11.240 -0.6855 -0.3582 -0.0415
  853MOL0     C12529   9.756   1.134  11.128  0.0011  0.6171  0.6023
  853MOL0     C12530   9.657   1.037  11.111  0.5355  0.4692 -0.1064
  853MOL0     H12531   9.070   1.036  11.103 -0.4251 -1.1129 -0.1244
  853MOL0     H12532   8.862   0.884  11.063 -0.3961 -4.0701  0.3099
  853MOL0     H12533   8.817   0.656  11.121 -1.5596 -0.3832  0.1385
  853MOL0     H12534   8.918   0.531  11.053 -0.0286  1.8333 -0.3948
  853MOL0     H12535   8.711   0.417  10.997 -1.4878  0.4781  0.6788
  853MOL0     H12536   8.660   0.561  10.911 -1.7159 -0.0024  0.8698
  853MOL0     H12537   8.591   0.662  11.121 -0.3596  0.6740  0.4371
  853MOL0     H12538   8.644   0.544  11.224 -0.5655  2.7961  0.2993
  853MOL0     H12539   8.401   0.534  11.183  0.0344  2.1064 -1.0593
  853MOL0     H12540   8.431   0.512  11.013 -3.2723  1.6866  1.1967
  853MOL0     H12541   8.520   0.277  11.074  0.8474 -0.6093  0.2681
  853MOL0     H12542   8.355   0.304  11.111  0.3385  0.8694 -2.0684
  853MOL0     H12543   8.424   0.353  11.350 -2.6393 -1.7223 -2.7205
  853MOL0     H12544   8.598   0.349  11.311  0.9378  0.8894  0.9621
  853MOL0     H12545   8.589   0.158  11.429 -0.4513  0.4558  0.6246
  853MOL0     H12546   8.424   0.140  11.389  1.5560 -0.0429  4.8410
  853MOL0     H12547   8.476   0.066  11.149 -1.3024  1.5130  0.7615
  853MOL0     H12548   8.542  -0.035  11.276 -1.4674  0.1459 -1.8901
  853MOL0     H12549   8.811   0.046  11.347 -1.9845  0.7403  0.7352
  853MOL0     H12550   9.094  -0.017  11.083 -0.6179  0.4957 -0.9156
  853MOL0     H12551   9.057  -0.049  11.248  0.3171 -0.7213 -1.2003
  853MOL0     H12552   9.235   0.128  11.236  0.0378  0.5855 -1.0089
  853MOL0     H12553   9.095   0.174  11.322 -2.6394  1.3391 -0.4791
  853MOL0     H12554   9.130   0.242  11.041  1.8561  0.6218 -0.2211
  853MOL0     H12555   9.004   0.302  11.159  0.7593  1.2516 -0.0565
  853MOL0     H12556   9.177   0.457  11.131  0.2235 -0.2910 -0.0585
  853MOL0     H12557   9.308   0.340  11.159  1.3394  2.4700  1.0922
  853MOL0     H12558   9.241   0.403  11.578  0.8679 -1.8125 -3.3005
  853MOL0     H12559   9.401   0.574  11.677 -0.2443  0.2370 -0.3628
  853MOL0     H12560   9.439   0.988  11.873 -0.7753 -2.0115 -2.0347
  853MOL0     H12561   9.596   1.169  11.972  1.0877  2.2305 -2.4579
  853MOL0     H12562   9.767   1.228  12.094  0.2471 -0.6927 -0.5832
  853MOL0     H12563   9.761   1.348  11.962 -2.2111 -0.4670  1.2779
  853MOL0     H12564   9.991   1.422  12.012 -1.0644 -0.0310 -0.4471
  853MOL0     H12565   9.996   1.293  12.141 -2.1938 -0.9433  1.8911
  853MOL0     H12566   9.784   1.399  12.239  0.0780  0.9400 -0.3824
  853MOL0     H12567   9.816   1.540  12.124  2.1275  1.6578 -0.6331
  853MOL0     H12568  10.006   1.449  12.349  1.0473 -1.0152 -0.7286
  853MOL0     H12569  10.016   1.567  12.206 -1.8856  3.4598  1.4993
  853MOL0     H12570   9.815   1.591  12.414  0.2866  1.1659  2.3124
  853MOL0     H12571   9.861   1.695  12.269 -1.0868 -2.5285 -0.6545
  853MOL0     H12572  10.078   1.747  12.377  0.5738  0.4931  2.4130
  853MOL0     H12573  10.028   1.644  12.517  0.8784  2.5606  2.7462
  853MOL0     H12574   9.998   1.916  12.498 -0.7858  0.9309 -1.5579
  853MOL0     H12575   9.842   1.851  12.464 -0.8676 -1.0191  1.4649
  853MOL0     H12576   9.998   1.820  12.714  1.3979 -0.6404 -1.7774
  853MOL0     H12577   9.859   1.710  12.682 -0.5646 -0.2369 -0.0616
  853MOL0     H12578   9.915   1.003  11.746 -0.2979 -1.2770  1.0857
  853MOL0     H12579   9.748   0.846  11.636  0.1779  0.6937 -0.7847
  853MOL0     H12580   9.380   0.794  11.319 -1.7861 -0.4390 -1.4675
  853MOL0     H12581   9.255   0.635  11.215  1.9016  0.2091 -0.4134
  853MOL0     H12582   9.098   0.679  10.777  2.2653  0.0837 -0.1820
  853MOL0     H12583   9.298   0.803  10.821  1.3376 -1.3432  2.8310
  853MOL0     H12584   9.429   1.230  10.974 -0.3628  0.2398 -1.3248
  853MOL0     H12585   9.584   1.386  10.994 -1.6427 -0.3024  1.1093
  853MOL0     H12586   9.743   1.530  11.042 -0.4127 -0.0955 -0.7347
  853MOL0     H12587   9.841   1.463  10.904  0.4300 -1.0749  1.3508
  853MOL0     H12588  10.044   1.515  11.013  0.9618  0.7365  1.2459
  853MOL0     H12589   9.924   1.649  10.965  1.1135 -0.6738 -0.7411
  853MOL0     H12590   9.953   1.531  11.254 -1.4765  0.0007 -1.1314
  853MOL0     H12591   9.869   1.679  11.196  1.0813  1.6745  2.6957
  853MOL0     H12592  10.093   1.790  11.152  0.0131 -0.7080 -2.0951
  853MOL0     H12593  10.041   1.755  11.321 -2.8291 -1.9923 -0.6363
  853MOL0     H12594  10.382   1.520  11.260  0.1867  1.9240  1.0841
  853MOL0     H12595   9.848   1.105  11.177 -0.4308 -0.4498  0.8057
  853MOL0     H12596   9.678   0.939  11.153  1.9399 -0.2030 -2.2435
  854MOL0     O12597   3.070   1.057  10.402  0.4207 -0.1186  0.6768
  854MOL0     C12598   3.089   1.177  10.392 -0.2493  1.0160  0.4540
  854MOL0     O12599   2.999   1.268  10.422 -0.5389 -0.2813  0.1905
  854MOL0     C12600   2.871   1.249  10.467 -0.5836  0.5652  0.2188
  854MOL0     C12601   2.822   1.161  10.563 -0.4564  0.7520  0.2654
  854MOL0     C12602   2.691   1.147  10.585  0.1190  0.7446 -0.3174
  854MOL0     C12603   2.596   1.222  10.518  0.0026 -0.4459  0.0219
  854MOL0     O12604   2.463   1.214  10.553  0.2772 -0.6377 -0.2035
  854MOL0     C12605   2.372   1.218  10.440  0.4397 -0.2633 -0.4279
  854MOL0     C12606   2.217   1.223  10.487 -0.0166  0.2838 -1.0705
  854MOL0     C12607   2.175   1.097  10.564 -0.9036 -0.2338  0.6711
  854MOL0     C12608   2.020   1.102  10.589 -0.0670  0.1271  0.3112
  854MOL0     C12609   1.966   0.970  10.657  0.4072  0.8687  0.6378
  854MOL0     C12610   1.920   0.877  10.538  0.1578 -0.1512 -0.2595
  854MOL0     C12611   1.863   0.751  10.598  0.8679  0.3709  0.9864
  854MOL0     C12612   1.705   0.745  10.603 -0.7457  1.3947  0.8625
  854MOL0     N12613   1.666   0.608  10.660 -0.4609 -0.7508 -0.8707
  854MOL0     C12614   1.662   0.481  10.606 -0.0211  0.4054 -0.7264
  854MOL0     C12615   1.614   0.398  10.708  0.0503  0.7045 -0.3892
  854MOL0     C12616   1.581   0.254  10.704  0.7395  0.3627  0.4577
  854MOL0     C12617   1.446   0.239  10.629 -0.0044  1.6118 -0.8056
  854MOL0     C12618   1.345   0.300  10.729  0.7121 -0.2496  0.4931
  854MOL0     C12619   1.194   0.263  10.684  0.2298 -0.4708 -0.9662
  854MOL0     O12620   1.179   0.127  10.679 -0.6544  0.2088 -0.0162
  854MOL0     C12621   1.060   0.074  10.646  0.0010 -0.2700  0.2218
  854MOL0     C12622   1.039  -0.062  10.638 -0.4694 -0.3035 -0.5402
  854MOL0     C12623   0.915  -0.107  10.584 -0.3109  0.2758 -0.5952
  854MOL0     C12624   0.811  -0.015  10.549 -0.0637  0.8973 -0.1791
  854MOL0     C12625   0.684  -0.056  10.485 -0.3589  1.0139 -0.4485
  854MOL0     O12626   0.682  -0.180  10.429 -0.1835 -0.5065 -0.7503
  854MOL0     C12627   0.573  -0.232  10.363 -0.4623 -0.2113  0.4302
  854MOL0     C12628   0.543  -0.360  10.403 -0.2165  0.8007  0.3526
  854MOL0     C12629   0.431  -0.413  10.351  1.2705  0.2333  0.0642
  854MOL0     C12630   0.361  -0.356  10.245 -0.3536  0.4524 -0.7630
  854MOL0     O12631   0.253  -0.425  10.201  0.6031  0.5759  0.5177
  854MOL0     C12632   0.166  -0.367  10.102 -0.0788  0.1449  0.4177
  854MOL0     C12633   0.050  -0.471  10.090  0.0209  0.3681  0.7663
  854MOL0     C12634  -0.026  -0.496  10.215 -0.4459 -0.5559  0.0243
  854MOL0     C12635  -0.154  -0.568  10.191 -0.5344  0.0873 -0.8026
  854MOL0     C12636  -0.262  -0.532  10.295 -0.5716  0.5748 -1.4776
  854MOL0     C12637  -0.228  -0.568  10.442 -0.2404 -0.8396  0.2871
  854MOL0     C12638  -0.359  -0.591  10.517 -1.3484  0.8222  0.4007
  854MOL0     C12639  -0.323  -0.651  10.655  0.0133 -0.0408  0.6773
  854MOL0    Cl12640  -0.239  -0.521  10.758 -0.2937  0.3719 -0.0095
  854MOL0     C12641   0.407  -0.237  10.185 -1.3980 -1.1512 -0.2741
  854MOL0     C12642   0.511  -0.167  10.256  0.8967 -0.0336 -0.3425
  854MOL0     O12643   0.586   0.014  10.492 -0.5455  0.1626  1.5466
  854MOL0     C12644   0.829   0.114  10.581 -0.9780 -0.7066  0.3333
  854MOL0     C12645   0.951   0.160  10.618 -0.3068  0.3504 -0.3948
  854MOL0     N12646   1.598   0.476  10.820  0.1844  0.3812  0.2119
  854MOL0     N12647   1.618   0.598  10.791  0.2963 -0.2218  0.4389
  854MOL0     C12648   2.650   1.320  10.429  1.5501  0.1540  1.1575
  854MOL0     C12649   2.786   1.337  10.405 -0.0562  0.3515  0.5369
  854MOL0     C12650   3.226   1.209  10.355  1.0702  0.6445 -0.2129
  854MOL0     C12651   3.267   1.340  10.318 -0.7106  0.0641 -0.6016
  854MOL0     C12652   3.381   1.368  10.261  0.2087  0.0242 -0.2615
  854MOL0     C12653   3.471   1.261  10.235 -0.2557 -0.4954 -0.6552
  854MOL0     O12654   3.592   1.290  10.185  0.0178  0.3727  0.1881
  854MOL0     C12655   3.694   1.189  10.167  0.7437 -0.1701 -0.8649
  854MOL0     C12656   3.834   1.246  10.184 -0.2239  0.5601 -0.4753
  854MOL0     C12657   3.876   1.365  10.088  0.8174 -0.2811  0.0616
  854MOL0     C12658   4.001   1.444  10.134 -0.4963 -0.9782 -0.0017
  854MOL0     C12659   4.121   1.370  10.093  0.8440  0.3745 -1.0430
  854MOL0     C12660   4.201   1.287  10.062  0.1108  0.2836 -0.0346
  854MOL0     C12661   3.429   1.132  10.252  0.1383  0.3428 -0.2739
  854MOL0     C12662   3.306   1.099  10.320 -1.1976  0.1872 -0.2331
  854MOL0     H12663   2.888   1.096  10.619 -1.2496  1.9218  2.6731
  854MOL0     H12664   2.658   1.086  10.669  0.8572  0.2503 -0.3792
  854MOL0     H12665   2.378   1.128  10.379  0.9440  0.0550 -0.8547
  854MOL0     H12666   2.387   1.305  10.376 -0.2477 -0.6717 -1.1537
  854MOL0     H12667   2.159   1.232  10.394  0.3240 -3.0718 -1.7284
  854MOL0     H12668   2.208   1.305  10.558  3.6242 -0.9537  1.0409
  854MOL0     H12669   2.232   1.079  10.655  0.2941 -4.4439 -0.6898
  854MOL0     H12670   2.193   1.014  10.495 -0.6855 -0.7259  1.3235
  854MOL0     H12671   2.009   1.181  10.664  3.3407  0.0689  1.0533
  854MOL0     H12672   1.968   1.136  10.499  0.3620  2.6480  0.9184
  854MOL0     H12673   1.877   0.985  10.720  2.3145  0.4895  3.6199
  854MOL0     H12674   2.039   0.925  10.724  1.4187  1.3454 -0.1159
  854MOL0     H12675   2.000   0.846  10.471 -1.1692 -1.8955 -1.1174
  854MOL0     H12676   1.834   0.917  10.484 -2.0096 -0.0621  2.9372
  854MOL0     H12677   1.893   0.662  10.541 -0.8862 -0.6650  1.5916
  854MOL0     H12678   1.907   0.742  10.697 -1.0372  0.1019  1.8550
  854MOL0     H12679   1.669   0.769  10.503  0.9686  1.9317  0.3373
  854MOL0     H12680   1.673   0.823  10.673 -0.1966  2.3785  0.0643
  854MOL0     H12681   1.681   0.457  10.502 -1.3708  3.3803 -1.7783
  854MOL0     H12682   1.596   0.213  10.804  4.4357 -1.4054 -0.6655
  854MOL0     H12683   1.657   0.202  10.645 -1.1897 -0.6681 -1.2871
  854MOL0     H12684   1.423   0.132  10.621 -1.4701  1.7630  0.9245
  854MOL0     H12685   1.451   0.285  10.530 -1.4990  3.2094 -0.1968
  854MOL0     H12686   1.352   0.270  10.835  1.8747  1.7249  1.0215
  854MOL0     H12687   1.359   0.408  10.730 -0.6670 -0.0072 -1.2402
  854MOL0     H12688   1.163   0.325  10.600  0.0177  0.0253 -0.5299
  854MOL0     H12689   1.142   0.310  10.768  3.4488  0.5110  0.6709
  854MOL0     H12690   1.111  -0.126  10.688 -1.0787 -1.3131 -0.9417
  854MOL0     H12691   0.897  -0.214  10.577 -1.1510  0.3968 -0.3593
  854MOL0     H12692   0.584  -0.410  10.489  0.4580  0.3580 -0.2124
  854MOL0     H12693   0.388  -0.501  10.397 -1.7513  2.4204  1.7623
  854MOL0     H12694   0.211  -0.353  10.003  0.0065  0.2315  0.4683
  854MOL0     H12695   0.119  -0.270  10.121 -3.4117 -1.1636 -0.3569
  854MOL0     H12696   0.090  -0.566  10.054 -0.0746 -0.7903  3.4840
  854MOL0     H12697  -0.020  -0.429  10.018  2.2390  1.0435 -1.1255
  854MOL0     H12698  -0.049  -0.399  10.260  1.6329  0.0264 -0.0732
  854MOL0     H12699   0.042  -0.553  10.278  1.1466 -0.4286 -1.4759
  854MOL0     H12700  -0.189  -0.533  10.094 -0.6468  1.6566 -0.2299
  854MOL0     H12701  -0.147  -0.677  10.183 -0.7471  0.1650 -2.4811
  854MOL0     H12702  -0.354  -0.585  10.267 -0.3148  0.0019 -1.2324
  854MOL0     H12703  -0.282  -0.425  10.306  2.4616  0.9101  4.7229
  854MOL0     H12704  -0.177  -0.486  10.493 -0.4752 -0.8303  0.5119
  854MOL0     H12705  -0.163  -0.655  10.429  0.1712 -0.5386  0.3516
  854MOL0     H12706  -0.408  -0.494  10.522  1.4845  2.3223  1.1699
  854MOL0     H12707  -0.418  -0.662  10.458  0.4959 -0.1095 -0.4254
  854MOL0     H12708  -0.254  -0.735  10.645  0.0091 -0.3270  2.6190
  854MOL0     H12709  -0.417  -0.679  10.702 -1.4604  0.0336 -2.0284
  854MOL0     H12710   0.354  -0.204  10.096 -2.1626 -0.3750  0.4540
  854MOL0     H12711   0.525  -0.062  10.231 -1.2733  0.6111  0.8788
  854MOL0     H12712   0.751   0.182  10.552 -1.0726 -1.5063 -1.4223
  854MOL0     H12713   0.951   0.268  10.613  2.3366  0.3866 -1.0094
  854MOL0     H12714   2.586   1.385  10.371  4.7149  2.4972 -0.0013
  854MOL0     H12715   2.815   1.410  10.331 -0.2660  1.1305  1.2051
  854MOL0     H12716   3.196   1.420  10.334 -0.1399  0.1241  2.3158
  854MOL0     H12717   3.403   1.470  10.231 -1.2173  1.2943  2.5853
  854MOL0     H12718   3.670   1.143  10.071 -1.6827  1.4557 -1.1450
  854MOL0     H12719   3.696   1.122  10.254  2.5914  0.7848 -0.1205
  854MOL0     H12720   3.850   1.273  10.289  4.9415  0.6543 -1.0146
  854MOL0     H12721   3.904   1.167  10.158 -1.4877 -0.9477  0.5636
  854MOL0     H12722   3.790   1.434  10.092  0.5936 -0.5264 -0.4519
  854MOL0     H12723   3.893   1.323   9.989 -3.6278  0.4526 -1.2524
  854MOL0     H12724   4.003   1.539  10.080  1.7295 -1.5346 -1.0097
  854MOL0     H12725   4.001   1.472  10.240 -0.0981  1.5391 -0.5984
  854MOL0     H12726   4.274   1.212  10.040 -0.0012 -0.2060  1.1492
  854MOL0     H12727   3.479   1.036  10.240 -2.7531 -1.4532  0.9900
  854MOL0     H12728   3.286   0.993  10.323  0.0763 -0.2919 -3.9905
  855MOL0     O12729   5.083   0.781   4.528  0.2278 -0.5275 -0.1229
  855MOL0     C12730   5.092   0.799   4.404  0.7905  0.2433  0.5396
  855MOL0     O12731   4.985   0.824   4.319 -0.3024  0.2091 -0.4914
  855MOL0     C12732   4.860   0.813   4.364 -0.5694 -0.5672  0.7499
  855MOL0     C12733   4.766   0.733   4.299 -0.0300  0.2283 -0.2463
  855MOL0     C12734   4.631   0.732   4.333 -0.4547  0.2311  0.4234
  855MOL0     C12735   4.576   0.821   4.424  0.4563  0.3677  0.1387
  855MOL0     O12736   4.440   0.802   4.444  0.0635  0.2378 -0.7390
  855MOL0     C12737   4.349   0.912   4.411 -0.3466 -1.1625  0.5240
  855MOL0     C12738   4.345   1.028   4.520  0.6167  0.3347  0.2372
  855MOL0     C12739   4.310   0.981   4.663 -0.0921 -1.4407  0.0717
  855MOL0     C12740   4.295   1.114   4.745 -0.5226  0.4559  0.0547
  855MOL0     C12741   4.219   1.078   4.879 -0.1538 -0.1188 -0.9499
  855MOL0     C12742   4.300   0.987   4.975  0.3322 -0.0912 -0.1821
  855MOL0     C12743   4.454   1.031   4.988  0.0239 -0.0065 -1.1267
  855MOL0     C12744   4.483   1.164   5.054 -0.2807  0.2021  0.2417
  855MOL0     N12745   4.469   1.166   5.199  1.1927  0.1481  0.6867
  855MOL0     C12746   4.348   1.189   5.262 -0.3214 -0.6639  0.1263
  855MOL0     C12747   4.381   1.192   5.392  0.0202 -1.3797 -0.7500
  855MOL0     C12748   4.271   1.194   5.502  0.7057 -1.1594  0.5277
  855MOL0     C12749   4.157   1.303   5.488  0.5218  0.2648  0.4751
  855MOL0     C12750   4.196   1.453   5.506 -0.3609  0.8339  0.2612
  855MOL0     C12751   4.070   1.534   5.537 -0.8607  0.5098  0.6528
  855MOL0     O12752   4.022   1.538   5.677  0.1129  0.1202  0.0149
  855MOL0     C12753   3.919   1.621   5.696  0.0707  0.1034  0.5367
  855MOL0     C12754   3.831   1.665   5.595  0.2106 -0.3438 -0.2639
  855MOL0     C12755   3.723   1.739   5.636  0.1866 -0.2560  0.7086
  855MOL0     C12756   3.699   1.779   5.764  0.7855 -1.5217 -0.0067
  855MOL0     C12757   3.576   1.859   5.806  0.2813 -0.0773 -0.0216
  855MOL0     O12758   3.582   1.934   5.922 -0.3149 -0.1373  0.6440
  855MOL0     C12759   3.476   2.020   5.961 -0.0841  0.3525 -0.2973
  855MOL0     C12760   3.518   2.129   6.028  0.5199 -0.2643  0.5019
  855MOL0     C12761   3.420   2.233   6.054  0.5775 -0.5020  0.4000
  855MOL0     C12762   3.283   2.213   6.033  0.0864  0.4893 -0.0962
  855MOL0     O12763   3.198   2.309   6.083  0.1454  0.2041 -0.3742
  855MOL0     C12764   3.089   2.329   5.996  0.2021 -0.7446 -0.2052
  855MOL0     C12765   3.018   2.461   6.026 -0.4610 -0.1608 -0.7235
  855MOL0     C12766   2.991   2.536   5.890  0.7714  0.0108  0.2502
  855MOL0     C12767   3.118   2.610   5.832 -0.9483 -0.1658  0.1489
  855MOL0     C12768   3.128   2.663   5.684 -0.6198  0.3896 -0.2022
  855MOL0     C12769   3.069   2.569   5.586  0.3581  0.8772  0.2952
  855MOL0     C12770   3.108   2.595   5.438 -0.4354 -0.6388  0.3541
  855MOL0     C12771   3.220   2.505   5.398 -0.2094  1.2861 -0.0653
  855MOL0    Cl12772   3.280   2.558   5.241  0.5209  0.1600  0.3823
  855MOL0     C12773   3.244   2.102   5.961  1.0776 -0.9077  1.1920
  855MOL0     C12774   3.341   2.009   5.926  0.3156 -1.1094 -0.3561
  855MOL0     O12775   3.483   1.859   5.725 -0.0034  0.0038  0.0959
  855MOL0     C12776   3.776   1.734   5.865 -0.8990 -0.3581 -0.6757
  855MOL0     C12777   3.891   1.647   5.834 -1.0110  0.6912  0.0524
  855MOL0     N12778   4.517   1.179   5.401 -0.5627 -0.1807  0.6766
  855MOL0     N12779   4.574   1.157   5.288  0.1245  0.5478 -0.5454
  855MOL0     C12780   4.663   0.899   4.502 -0.4297  0.4133 -0.3932
  855MOL0     C12781   4.801   0.896   4.467  0.0357  0.4806 -0.5458
  855MOL0     C12782   5.219   0.773   4.330 -0.0922  0.0759  0.1643
  855MOL0     C12783   5.334   0.739   4.395  0.5118  0.6274 -0.4658
  855MOL0     C12784   5.454   0.709   4.319 -0.1229  0.4511  0.4638
  855MOL0     C12785   5.456   0.724   4.177  0.2455  0.3257 -0.2687
  855MOL0     O12786   5.566   0.679   4.111 -0.4464  0.7561  0.1992
  855MOL0     C12787   5.573   0.669   3.970 -0.3260 -0.9904 -0.2810
  855MOL0     C12788   5.716   0.645   3.918  0.2368  0.1274  0.0670
  855MOL0     C12789   5.763   0.502   3.959  0.0283  0.1879 -0.3159
  855MOL0     C12790   5.902   0.474   3.899 -0.0080 -1.2835 -0.1041
  855MOL0     C12791   5.973   0.357   3.950  0.3775 -1.0313 -0.3529
  855MOL0     C12792   6.040   0.261   3.977  0.2908  0.5200  0.0837
  855MOL0     C12793   5.338   0.768   4.111  0.3651 -0.1276  0.0669
  855MOL0     C12794   5.217   0.787   4.181  1.0739  0.0154 -0.7259
  855MOL0     H12795   4.801   0.670   4.218  0.0732  0.3608 -0.3048
  855MOL0     H12796   4.564   0.663   4.282 -0.9786  0.9918  0.0640
  855MOL0     H12797   4.248   0.875   4.392 -2.0885  3.5371 -0.8359
  855MOL0     H12798   4.387   0.950   4.316  1.6782 -2.2788  0.8361
  855MOL0     H12799   4.271   1.103   4.488 -0.5882  1.0056  4.1393
  855MOL0     H12800   4.442   1.078   4.522  0.6355  0.2782  2.5708
  855MOL0     H12801   4.385   0.913   4.703  2.3690  0.4032 -1.0706
  855MOL0     H12802   4.216   0.927   4.665 -2.8241  2.7387  4.0337
  855MOL0     H12803   4.386   1.174   4.755 -0.6299  0.2929  2.9439
  855MOL0     H12804   4.224   1.174   4.686  1.0166 -0.5267 -2.9815
  855MOL0     H12805   4.123   1.027   4.876 -0.5759  0.3145  2.0427
  855MOL0     H12806   4.198   1.170   4.933  0.1015 -1.3148  1.2848
  855MOL0     H12807   4.293   0.889   4.926  3.4740  0.4887 -2.0066
  855MOL0     H12808   4.250   0.990   5.073 -1.8644 -3.6728 -0.9778
  855MOL0     H12809   4.513   0.963   5.051 -1.0248  0.7853  0.7769
  855MOL0     H12810   4.498   1.027   4.887  2.3555 -1.9005 -0.1575
  855MOL0     H12811   4.425   1.245   5.008 -2.5926 -1.3320  0.3063
  855MOL0     H12812   4.589   1.187   5.038  0.7332 -1.3355  3.8423
  855MOL0     H12813   4.248   1.193   5.219  0.0937 -2.4421 -1.1282
  855MOL0     H12814   4.317   1.202   5.601 -1.6322 -1.3933  1.6948
  855MOL0     H12815   4.218   1.099   5.490 -1.2250 -0.0103 -0.5632
  855MOL0     H12816   4.078   1.276   5.559  0.2669 -0.7514 -0.1772
  855MOL0     H12817   4.108   1.278   5.393 -2.1094  0.2423  1.7367
  855MOL0     H12818   4.273   1.471   5.581 -1.8721 -1.6695  2.6088
  855MOL0     H12819   4.229   1.498   5.411  1.3100 -0.8113  0.0050
  855MOL0     H12820   3.998   1.497   5.463  2.4677  0.7018 -3.0069
  855MOL0     H12821   4.087   1.638   5.510 -2.6518  1.5872  3.2564
  855MOL0     H12822   3.829   1.641   5.490 -1.5933  0.9732 -0.5923
  855MOL0     H12823   3.665   1.777   5.553  1.2740  3.1208  1.3266
  855MOL0     H12824   3.622   2.118   6.055  1.6896 -2.4482 -3.8920
  855MOL0     H12825   3.450   2.327   6.100  2.5547 -0.8775 -0.0157
  855MOL0     H12826   3.023   2.243   6.009 -1.8489  0.5466 -1.5825
  855MOL0     H12827   3.110   2.329   5.889 -2.2146 -1.5860 -0.7286
  855MOL0     H12828   3.087   2.524   6.083 -1.5475  0.2153  0.2049
  855MOL0     H12829   2.937   2.431   6.092 -0.0125  0.7849  0.2920
  855MOL0     H12830   2.912   2.609   5.909  1.0338  0.3666 -0.0056
  855MOL0     H12831   2.945   2.464   5.821 -3.8149 -0.2782  3.1651
  855MOL0     H12832   3.155   2.688   5.899 -0.4862  0.6485 -1.0132
  855MOL0     H12833   3.189   2.527   5.826  1.2133  1.6567 -1.0548
  855MOL0     H12834   3.230   2.670   5.644  0.3788  0.3576  2.1440
  855MOL0     H12835   3.087   2.764   5.673  0.8350  1.2866  1.8072
  855MOL0     H12836   2.961   2.584   5.590  0.0566 -0.6298 -1.2169
  855MOL0     H12837   3.086   2.464   5.612  1.3093  1.0153  0.2808
  855MOL0     H12838   3.033   2.597   5.359 -0.0735  1.3211  0.0100
  855MOL0     H12839   3.147   2.697   5.431  0.6594 -0.9189  1.8449
  855MOL0     H12840   3.190   2.400   5.400  0.8669  0.9500  2.2807
  855MOL0     H12841   3.307   2.504   5.464  0.3665 -0.1400 -0.8059
  855MOL0     H12842   3.144   2.082   5.926 -0.0172  1.4878  2.7133
  855MOL0     H12843   3.306   1.914   5.886 -1.8566 -0.4408 -0.1860
  855MOL0     H12844   3.766   1.772   5.966 -0.0975  2.0573 -1.4317
  855MOL0     H12845   3.956   1.598   5.906 -2.5527 -1.8674 -0.1721
  855MOL0     H12846   4.631   0.960   4.586  0.5410 -0.4006  0.6059
  855MOL0     H12847   4.873   0.946   4.532  1.8493 -1.5638 -0.8649
  855MOL0     H12848   5.339   0.747   4.503 -1.8608  2.9744 -0.4167
  855MOL0     H12849   5.538   0.666   4.373 -0.5270 -1.4009 -0.2885
  855MOL0     H12850   5.537   0.761   3.923 -2.2891 -0.9002  1.2565
  855MOL0     H12851   5.511   0.586   3.933  2.2380 -2.2164 -2.0859
  855MOL0     H12852   5.719   0.652   3.808 -1.4697 -0.1019 -0.0288
  855MOL0     H12853   5.787   0.723   3.948 -1.7334  2.5177 -1.0671
  855MOL0     H12854   5.696   0.425   3.919  1.6380 -0.7906 -1.1926
  855MOL0     H12855   5.782   0.499   4.067  1.1070  0.5811 -0.4849
  855MOL0     H12856   5.895   0.468   3.790  1.9105  0.1018 -0.3570
  855MOL0     H12857   5.966   0.561   3.913  0.4648 -1.4881 -0.9209
  855MOL0     H12858   6.099   0.174   3.999 -0.7461 -0.0702  0.6323
  855MOL0     H12859   5.343   0.779   4.003  0.9663 -3.7635 -0.3854
  855MOL0     H12860   5.133   0.824   4.123  0.0454  0.1991  0.8196
  856MOL0     O12861   1.053   7.577   5.112  0.5889 -0.0348 -0.1227
  856MOL0     C12862   1.167   7.562   5.073 -0.0814  0.6020  0.0891
  856MOL0     O12863   1.209   7.468   4.980  0.2265  0.1291 -0.2459
  856MOL0     C12864   1.121   7.368   4.923  0.2528  0.0131  0.5395
  856MOL0     C12865   1.052   7.278   5.003  0.2772 -0.3424 -0.1891
  856MOL0     C12866   0.979   7.181   4.943  0.6377  0.2660  0.2936
  856MOL0     C12867   0.979   7.167   4.801  0.1565  0.5554  0.0589
  856MOL0     O12868   0.914   7.063   4.739 -0.1348 -0.0437 -0.1344
  856MOL0     C12869   0.820   7.095   4.639 -0.7060  0.7787 -0.6032
  856MOL0     C12870   0.739   6.968   4.614  0.3874 -0.4594  1.3235
  856MOL0     C12871   0.673   6.981   4.469 -0.0232  0.1952 -0.6925
  856MOL0     C12872   0.604   6.849   4.442 -0.8292 -0.3376  0.1411
  856MOL0     C12873   0.549   6.823   4.298 -0.6586 -0.1902 -0.2955
  856MOL0     C12874   0.660   6.837   4.188  1.1020 -0.4090  0.2573
  856MOL0     C12875   0.601   6.815   4.050 -0.1989 -0.1008  0.3510
  856MOL0     C12876   0.556   6.666   4.029 -0.6572  0.6233  0.4292
  856MOL0     N12877   0.517   6.641   3.892 -0.4900  0.1274  0.3759
  856MOL0     C12878   0.392   6.595   3.843 -0.1409 -0.0648  0.2133
  856MOL0     C12879   0.405   6.600   3.712 -0.4410  0.5741 -0.1200
  856MOL0     C12880   0.302   6.545   3.622  0.6721 -0.2334  0.9093
  856MOL0     C12881   0.172   6.626   3.629 -0.1352 -1.0049 -0.0854
  856MOL0     C12882   0.078   6.584   3.521 -0.6147 -0.2881  0.3001
  856MOL0     C12883  -0.062   6.652   3.532 -0.0630 -0.6134 -0.2827
  856MOL0     O12884  -0.108   6.617   3.661  1.1532  0.2243  0.6410
  856MOL0     C12885  -0.237   6.587   3.686  0.0330 -0.0647 -0.9234
  856MOL0     C12886  -0.348   6.600   3.600 -0.0616 -0.0918  0.3172
  856MOL0     C12887  -0.476   6.572   3.627  0.2331 -0.6713 -0.2629
  856MOL0     C12888  -0.507   6.519   3.765  0.4766 -0.6180  1.0260
  856MOL0     C12889  -0.652   6.489   3.797 -0.1864  0.0734 -0.4661
  856MOL0     O12890  -0.750   6.558   3.724  0.0986 -0.1272  0.0371
  856MOL0     C12891  -0.873   6.521   3.749  1.3980 -0.2005 -0.7441
  856MOL0     C12892  -0.946   6.564   3.865  0.3638 -0.3585  0.2113
  856MOL0     C12893  -1.084   6.549   3.880  0.2655 -0.6043 -0.1023
  856MOL0     C12894  -1.168   6.489   3.782 -0.1773 -0.3224 -0.5076
  856MOL0     O12895  -1.300   6.482   3.798  0.0992 -0.8846  0.4623
  856MOL0     C12896  -1.345   6.354   3.829 -0.3670 -0.7194  0.0933
  856MOL0     C12897  -1.488   6.365   3.851  0.3076 -0.1384 -1.1491
  856MOL0     C12898  -1.581   6.427   3.751 -0.2420  0.2177  0.2614
  856MOL0     C12899  -1.723   6.377   3.763  0.5157  0.7822 -0.0025
  856MOL0     C12900  -1.788   6.442   3.874  0.7428  0.0061 -0.5740
  856MOL0     C12901  -1.929   6.381   3.894  0.5673 -0.7510 -0.2486
  856MOL0     C12902  -1.921   6.246   3.968 -1.3126  0.5284 -0.2094
  856MOL0     C12903  -2.058   6.193   3.988  0.4610 -1.2524  0.0724
  856MOL0    Cl12904  -2.127   6.158   3.830 -0.1297  0.0183 -0.2750
  856MOL0     C12905  -1.099   6.444   3.666  1.1867  0.3595  0.3293
  856MOL0     C12906  -0.954   6.449   3.657  0.0543  0.7055  0.3540
  856MOL0     O12907  -0.673   6.406   3.888  0.3643  0.5775 -0.3066
  856MOL0     C12908  -0.401   6.499   3.848  0.1352 -1.0898 -0.3911
  856MOL0     C12909  -0.266   6.541   3.813  0.4113  0.0274  0.1539
  856MOL0     N12910   0.540   6.637   3.681  0.2013 -0.5411  0.0001
  856MOL0     N12911   0.600   6.665   3.789  1.3056 -0.1808 -0.5951
  856MOL0     C12912   1.049   7.262   4.723  0.1014  0.3240 -1.1047
  856MOL0     C12913   1.119   7.367   4.783 -1.4591  0.4047  0.3863
  856MOL0     C12914   1.269   7.656   5.124 -0.0266  0.0995 -0.2412
  856MOL0     C12915   1.240   7.752   5.225  0.0648  0.5923 -0.0506
  856MOL0     C12916   1.339   7.837   5.264  0.9039 -1.0398  0.1271
  856MOL0     C12917   1.465   7.840   5.209  0.2785 -0.8437  0.4405
  856MOL0     O12918   1.546   7.938   5.254  0.1423 -0.1339 -0.1844
  856MOL0     C12919   1.688   7.908   5.251  0.0394  0.8335  0.7476
  856MOL0     C12920   1.757   8.027   5.318  0.2462 -0.9860 -1.1162
  856MOL0     C12921   1.798   8.139   5.214 -0.2617  0.2238 -0.7125
  856MOL0     C12922   1.902   8.237   5.279 -0.3581 -1.2177 -0.4006
  856MOL0     C12923   1.997   8.260   5.169 -0.4773  0.0382 -0.1046
  856MOL0     C12924   2.059   8.278   5.066  0.8774 -0.3423 -0.4368
  856MOL0     C12925   1.499   7.742   5.113  0.8026 -0.0240  0.2099
  856MOL0     C12926   1.404   7.648   5.080  0.5064 -0.9703  0.1916
  856MOL0     H12927   1.072   7.298   5.108  0.8839  0.9760 -0.5366
  856MOL0     H12928   0.935   7.100   5.000  1.3678  0.6612  1.4643
  856MOL0     H12929   0.877   7.130   4.551 -1.8202  0.4145 -1.4906
  856MOL0     H12930   0.754   7.177   4.667 -1.2656  0.0797  0.1592
  856MOL0     H12931   0.663   6.945   4.689 -0.5874  0.8351  0.7760
  856MOL0     H12932   0.801   6.879   4.607 -0.8014 -1.1971 -1.8719
  856MOL0     H12933   0.755   7.002   4.399 -1.2571  0.9622 -1.9643
  856MOL0     H12934   0.607   7.067   4.459  0.9522  0.9265 -1.0954
  856MOL0     H12935   0.676   6.766   4.443 -1.7373 -1.1512 -0.1974
  856MOL0     H12936   0.519   6.829   4.507 -0.1190 -4.2316  0.1514
  856MOL0     H12937   0.479   6.899   4.264 -0.1216  0.6467  0.4223
  856MOL0     H12938   0.495   6.728   4.304  0.0694 -0.6207 -0.4535
  856MOL0     H12939   0.737   6.760   4.197 -0.2650 -2.0124 -1.0307
  856MOL0     H12940   0.701   6.938   4.183  0.4905 -0.2186 -2.6537
  856MOL0     H12941   0.515   6.879   4.027  1.3423  1.1650 -2.4140
  856MOL0     H12942   0.674   6.837   3.972  0.2148  0.7645  0.9670
  856MOL0     H12943   0.472   6.655   4.098  0.1820  5.6487  2.7014
  856MOL0     H12944   0.637   6.599   4.060 -0.2915  1.0846  0.4997
  856MOL0     H12945   0.305   6.564   3.900 -0.4211 -1.0168 -0.6961
  856MOL0     H12946   0.285   6.440   3.648  1.1078 -1.4453 -3.0626
  856MOL0     H12947   0.336   6.544   3.518 -2.8383 -0.8731 -0.3825
  856MOL0     H12948   0.200   6.728   3.600 -1.7611 -1.4832 -4.0672
  856MOL0     H12949   0.125   6.614   3.727  1.1316 -1.4926  0.4779
  856MOL0     H12950   0.122   6.609   3.424  0.1425  0.8472  0.9201
  856MOL0     H12951   0.076   6.475   3.521  0.7916 -0.3429  1.5420
  856MOL0     H12952  -0.128   6.624   3.450 -2.7468  2.7488  0.5011
  856MOL0     H12953  -0.052   6.760   3.520  1.3021 -0.9047 -2.2093
  856MOL0     H12954  -0.326   6.639   3.501 -0.7701  0.7176  0.4631
  856MOL0     H12955  -0.553   6.601   3.557 -1.4645 -1.2627  1.2869
  856MOL0     H12956  -0.879   6.622   3.928  2.1369  1.7346 -3.2615
  856MOL0     H12957  -1.130   6.593   3.968 -0.8615  1.3462 -1.5722
  856MOL0     H12958  -1.298   6.311   3.918 -1.0092 -2.2813 -0.2861
  856MOL0     H12959  -1.331   6.274   3.756 -0.4468 -5.2967  4.5206
  856MOL0     H12960  -1.496   6.422   3.944 -0.4051  0.4006 -1.5274
  856MOL0     H12961  -1.526   6.264   3.866  2.6420 -0.8407  0.5138
  856MOL0     H12962  -1.546   6.409   3.649 -1.8488  1.6175 -0.5826
  856MOL0     H12963  -1.589   6.533   3.775  1.6994  0.4780 -0.0784
  856MOL0     H12964  -1.785   6.396   3.675  0.0391 -0.2557  0.0930
  856MOL0     H12965  -1.718   6.268   3.773 -2.0062  0.6031 -0.1040
  856MOL0     H12966  -1.796   6.550   3.862  2.8190  0.1851 -0.7090
  856MOL0     H12967  -1.723   6.423   3.960  1.3498 -0.3113 -1.0929
  856MOL0     H12968  -1.966   6.366   3.792 -2.2471 -0.6648  0.6733
  856MOL0     H12969  -1.993   6.449   3.950  1.6429 -2.2676  3.0879
  856MOL0     H12970  -1.867   6.168   3.913 -2.1986 -0.9712  0.9849
  856MOL0     H12971  -1.867   6.264   4.062 -2.7860  1.8313  0.4300
  856MOL0     H12972  -2.125   6.267   4.032  1.8266  0.4806 -0.6488
  856MOL0     H12973  -2.060   6.099   4.045 -3.3805 -1.4026 -0.0499
  856MOL0     H12974  -1.146   6.395   3.581 -1.9367  1.2686  1.4121
  856MOL0     H12975  -0.913   6.406   3.566  0.9125  1.3811  0.4151
  856MOL0     H12976  -0.414   6.455   3.946  0.0419  0.8655  0.5192
  856MOL0     H12977  -0.184   6.521   3.881  0.6134 -0.2478 -0.1660
  856MOL0     H12978   1.050   7.239   4.617 -0.7480 -2.9708 -0.5359
  856MOL0     H12979   1.177   7.436   4.724  1.1660 -0.2552  2.0222
  856MOL0     H12980   1.140   7.768   5.264 -0.5518  1.3457 -1.8190
  856MOL0     H12981   1.310   7.918   5.331  1.4489  3.1829 -4.1800
  856MOL0     H12982   1.727   7.883   5.152 -1.4589  0.1802  0.2968
  856MOL0     H12983   1.703   7.813   5.303  3.2732  0.9147  0.1370
  856MOL0     H12984   1.697   8.062   5.402 -1.7995 -4.3445 -0.9835
  856MOL0     H12985   1.844   7.986   5.370  1.9880  2.9881 -0.5677
  856MOL0     H12986   1.704   8.193   5.198  1.0587  3.3119  1.0611
  856MOL0     H12987   1.833   8.101   5.118 -0.9126  0.3383 -1.0021
  856MOL0     H12988   1.845   8.327   5.306 -0.1917 -1.6991  1.7375
  856MOL0     H12989   1.937   8.187   5.370 -2.2134 -2.9047 -0.5435
  856MOL0     H12990   2.114   8.287   4.974  2.2409  2.2374  0.5229
  856MOL0     H12991   1.600   7.733   5.075  0.0841  0.7380 -2.0524
  856MOL0     H12992   1.432   7.564   5.017 -3.5458 -0.5349 -2.6355
  857MOL0     O12993   8.295   4.888   9.978  0.2694 -0.0469 -0.2653
  857MOL0     C12994   8.337   4.917  10.086 -0.1543  0.3074  0.9344
  857MOL0     O12995   8.382   4.837  10.179  0.4924 -0.1121 -0.5821
  857MOL0     C12996   8.379   4.698  10.163 -0.0882 -0.6800 -0.1508
  857MOL0     C12997   8.276   4.619  10.105  0.2442 -0.0366  1.0681
  857MOL0     C12998   8.293   4.485  10.080 -0.1390  0.6640 -0.3431
  857MOL0     C12999   8.416   4.419  10.119  0.0121 -0.6698  0.1893
  857MOL0     O13000   8.422   4.276  10.121 -0.7955  1.0438 -0.3383
  857MOL0     C13001   8.325   4.205  10.046 -0.4608  1.0767 -0.6512
  857MOL0     C13002   8.322   4.055  10.093 -0.6270 -0.7111  0.0185
  857MOL0     C13003   8.249   4.044  10.228  0.0933 -0.0523 -0.5211
  857MOL0     C13004   8.097   4.070  10.216 -0.4141 -1.0865 -0.5541
  857MOL0     C13005   8.042   4.204  10.287  0.6159  0.0677 -0.4225
  857MOL0     C13006   7.881   4.217  10.277  0.1576 -0.2681  1.2313
  857MOL0     C13007   7.812   4.293  10.382  0.3070 -0.6842  0.7375
  857MOL0     C13008   7.662   4.273  10.367 -0.2288  0.9759  1.8043
  857MOL0     N13009   7.571   4.344  10.454 -0.4207  1.0285  0.0354
  857MOL0     C13010   7.449   4.314  10.490  0.6870 -0.6075  0.0696
  857MOL0     C13011   7.410   4.418  10.563  0.1228 -0.8788 -0.1240
  857MOL0     C13012   7.269   4.439  10.618 -0.3858  0.2044 -0.4293
  857MOL0     C13013   7.243   4.582  10.688 -0.1132 -0.4339 -0.4324
  857MOL0     C13014   7.162   4.571  10.812  0.9440 -0.1439 -0.3170
  857MOL0     C13015   7.017   4.539  10.785  0.4677 -0.7172 -0.2645
  857MOL0     O13016   6.952   4.531  10.914  0.3397  0.0923 -0.1120
  857MOL0     C13017   6.843   4.445  10.935  0.7361 -0.0741  0.7145
  857MOL0     C13018   6.768   4.385  10.831  0.4121  0.5965  0.3917
  857MOL0     C13019   6.654   4.306  10.862 -0.1428 -0.3413 -0.6517
  857MOL0     C13020   6.616   4.284  10.994 -0.8499  0.9367  0.4901
  857MOL0     C13021   6.482   4.221  11.023  0.9741  0.3296  0.9618
  857MOL0     O13022   6.442   4.192  11.150  0.6680  0.4047 -0.3257
  857MOL0     C13023   6.314   4.169  11.192  0.2930 -0.3010 -0.1862
  857MOL0     C13024   6.298   4.092  11.306 -0.1618 -0.1622  0.6739
  857MOL0     C13025   6.184   4.059  11.369 -0.0246  0.0515 -0.8291
  857MOL0     C13026   6.064   4.108  11.314 -0.8261 -0.0236 -0.1067
  857MOL0     O13027   5.954   4.071  11.382  0.1223  0.2251  0.7131
  857MOL0     C13028   5.825   4.072  11.318  0.6356  1.1003  0.4103
  857MOL0     C13029   5.733   3.975  11.391  0.3148 -0.0991  0.2550
  857MOL0     C13030   5.585   4.016  11.402  0.0314  0.4728  0.5179
  857MOL0     C13031   5.531   4.005  11.261  0.0651  0.4258  0.3098
  857MOL0     C13032   5.375   4.036  11.245 -0.1175  0.0464  0.4256
  857MOL0     C13033   5.331   4.020  11.104  0.4629  0.4020 -0.6576
  857MOL0     C13034   5.182   3.995  11.089  0.3867 -0.0745 -0.0747
  857MOL0     C13035   5.094   4.107  11.144 -0.8848  0.0453 -0.8062
  857MOL0    Cl13036   5.090   4.234  11.018 -0.0367 -0.1003  0.4204
  857MOL0     C13037   6.073   4.190  11.198 -0.2295  1.1718 -0.1424
  857MOL0     C13038   6.198   4.206  11.126  0.6860 -0.1780 -0.8176
  857MOL0     O13039   6.409   4.207  10.923  0.3155 -0.1730  0.2658
  857MOL0     C13040   6.697   4.337  11.092 -0.6426 -0.2726 -0.8982
  857MOL0     C13041   6.798   4.420  11.068  0.2537 -0.5162  1.0026
  857MOL0     N13042   7.523   4.507  10.586 -0.4147 -0.7868  0.5327
  857MOL0     N13043   7.618   4.456  10.523 -0.9137  0.4656 -0.3580
  857MOL0     C13044   8.521   4.495  10.170  0.2007 -0.1169 -0.7578
  857MOL0     C13045   8.500   4.632  10.195 -0.3681 -0.0221  0.1680
  857MOL0     C13046   8.354   5.059  10.117  0.0294 -0.8311  0.0855
  857MOL0     C13047   8.372   5.162  10.009  0.2405  0.7384  0.0405
  857MOL0     C13048   8.402   5.295  10.046  0.1195  0.2461 -0.1754
  857MOL0     C13049   8.409   5.335  10.177  0.3539  0.8817 -0.3970
  857MOL0     O13050   8.416   5.472  10.209 -0.3947  0.2388  0.4148
  857MOL0     C13051   8.536   5.511  10.266  0.8763  0.1001  0.1856
  857MOL0     C13052   8.606   5.596  10.159  0.4521 -0.1719  0.8262
  857MOL0     C13053   8.539   5.736  10.157  0.4379 -0.2330  0.3439
  857MOL0     C13054   8.591   5.828  10.266  0.5476 -0.2718 -0.3150
  857MOL0     C13055   8.726   5.864  10.239 -0.5833  0.1292  0.0170
  857MOL0     C13056   8.842   5.888  10.231  0.3605 -1.3884  0.1871
  857MOL0     C13057   8.382   5.240  10.276  0.0630 -0.3213 -0.3163
  857MOL0     C13058   8.360   5.104  10.249  0.6754 -0.2567 -0.0098
  857MOL0     H13059   8.193   4.679  10.071  1.1012 -0.2910 -1.7112
  857MOL0     H13060   8.207   4.442  10.029 -0.2675 -1.6031  1.6163
  857MOL0     H13061   8.355   4.207   9.941  1.4759  0.9031 -0.1432
  857MOL0     H13062   8.227   4.246  10.069 -0.9384  0.7238 -1.9480
  857MOL0     H13063   8.426   4.025  10.107 -0.3373  0.7108  1.1376
  857MOL0     H13064   8.274   3.999  10.012 -3.8182  2.0655 -0.2225
  857MOL0     H13065   8.299   4.111  10.298 -1.3489  0.5830 -0.0610
  857MOL0     H13066   8.259   3.944  10.269 -1.6162  0.0538  0.2148
  857MOL0     H13067   8.059   4.068  10.113  0.3615 -3.9644 -0.8655
  857MOL0     H13068   8.049   3.981  10.258 -2.9724 -0.7051 -2.4069
  857MOL0     H13069   8.089   4.282  10.227 -0.3900  1.0613  0.0270
  857MOL0     H13070   8.064   4.208  10.394 -0.8310  1.8484 -0.1389
  857MOL0     H13071   7.844   4.115  10.289  1.2302 -0.6310  1.5630
  857MOL0     H13072   7.854   4.260  10.180 -2.4260 -0.9437  1.5784
  857MOL0     H13073   7.845   4.259  10.481  0.6772  0.0181  0.8652
  857MOL0     H13074   7.846   4.396  10.367 -0.2463 -0.9749 -3.7704
  857MOL0     H13075   7.644   4.165  10.372 -1.4274  0.3610 -5.5273
  857MOL0     H13076   7.642   4.306  10.265  1.1140 -0.5665  0.9994
  857MOL0     H13077   7.381   4.230  10.477  0.5629 -0.5100  0.0857
  857MOL0     H13078   7.251   4.365  10.697  0.8301  1.1820  0.8034
  857MOL0     H13079   7.218   4.415  10.524  0.9627 -0.9330 -0.9115
  857MOL0     H13080   7.189   4.649  10.620 -0.8417  1.2983  1.7536
  857MOL0     H13081   7.338   4.632  10.706 -0.0410 -0.4844 -0.6661
  857MOL0     H13082   7.195   4.494  10.882  0.1534  0.0366  0.2631
  857MOL0     H13083   7.155   4.667  10.865 -0.2575  1.5866 -3.3375
  857MOL0     H13084   7.006   4.444  10.732 -1.0065 -1.4068  1.2088
  857MOL0     H13085   6.981   4.629  10.735 -1.4115 -0.6830  1.0519
  857MOL0     H13086   6.789   4.400  10.725 -0.6210  2.2970  0.3868
  857MOL0     H13087   6.589   4.273  10.781 -2.3480 -3.2641  2.0715
  857MOL0     H13088   6.393   4.066  11.353  0.7929  3.4994  1.0912
  857MOL0     H13089   6.193   4.014  11.467  2.8048 -4.0598 -2.6888
  857MOL0     H13090   5.833   4.035  11.215 -1.1213 -0.0596  0.6515
  857MOL0     H13091   5.787   4.175  11.310 -0.1085  0.6662 -3.1560
  857MOL0     H13092   5.763   3.965  11.495 -0.5881  0.7532  0.6174
  857MOL0     H13093   5.739   3.877  11.342 -3.0151  0.5261 -1.7283
  857MOL0     H13094   5.563   4.116  11.439 -2.6641  0.6192 -1.2528
  857MOL0     H13095   5.525   3.943  11.458 -1.2275  1.0217 -0.0827
  857MOL0     H13096   5.579   4.083  11.201  1.1048 -0.5225 -0.1278
  857MOL0     H13097   5.559   3.912  11.210 -0.3887  1.5662 -2.1855
  857MOL0     H13098   5.350   4.133  11.290 -1.8029 -0.0542 -0.2458
  857MOL0     H13099   5.319   3.960  11.301 -1.3975  0.5874 -0.0728
  857MOL0     H13100   5.383   3.933  11.064 -1.1156 -1.3035  0.8448
  857MOL0     H13101   5.368   4.104  11.043  0.3644  1.4298  0.6502
  857MOL0     H13102   5.156   3.982  10.983  2.0797  2.9580 -0.9977
  857MOL0     H13103   5.148   3.907  11.144  1.2018  0.2347  0.9645
  857MOL0     H13104   5.130   4.145  11.240 -3.4097  0.0629  0.2308
  857MOL0     H13105   4.996   4.066  11.171  0.2178 -0.9398  1.9858
  857MOL0     H13106   5.985   4.233  11.152  1.2086  2.6733 -1.6036
  857MOL0     H13107   6.217   4.254  11.030  2.2619 -3.8058 -2.5208
  857MOL0     H13108   6.664   4.311  11.192 -1.9134 -1.2256 -1.5329
  857MOL0     H13109   6.859   4.472  11.142  1.8111  0.8551 -1.1477
  857MOL0     H13110   8.601   4.436  10.216 -2.8477 -3.0087  1.3425
  857MOL0     H13111   8.580   4.691  10.237 -0.2350 -0.9240  1.2152
  857MOL0     H13112   8.330   5.133   9.913 -2.4369  2.4887  0.5616
  857MOL0     H13113   8.415   5.365   9.964  0.2468  1.0604  0.5180
  857MOL0     H13114   8.594   5.422  10.292  1.3131  0.2268 -0.3559
  857MOL0     H13115   8.508   5.563  10.358 -0.4539 -1.3872  0.6592
  857MOL0     H13116   8.709   5.604  10.197  1.2167 -0.2612 -1.0810
  857MOL0     H13117   8.612   5.540  10.065 -0.3455 -1.5445  1.5669
  857MOL0     H13118   8.432   5.719  10.170 -0.3790  1.7250 -2.7627
  857MOL0     H13119   8.559   5.780  10.059  0.7878 -1.4363 -0.1393
  857MOL0     H13120   8.525   5.915  10.275 -2.1620 -2.0510 -1.7280
  857MOL0     H13121   8.593   5.775  10.362  0.8222  0.3508  0.0315
  857MOL0     H13122   8.945   5.917  10.238 -0.1406  0.3273  0.9716
  857MOL0     H13123   8.388   5.270  10.381  0.6881 -2.0255  0.1653
  857MOL0     H13124   8.346   5.034  10.331  0.1964 -1.7967 -1.3358
  858MOL0     O13125   2.532   6.403   7.339 -0.0212  0.1705  0.5562
  858MOL0     C13126   2.506   6.281   7.354 -0.6562  1.4684  0.3978
  858MOL0     O13127   2.406   6.228   7.430 -0.0757  0.6424 -0.5677
  858MOL0     C13128   2.322   6.306   7.505  0.1271  0.0679  0.1314
  858MOL0     C13129   2.359   6.430   7.562 -0.2871 -0.5189 -0.8984
  858MOL0     C13130   2.273   6.511   7.645  0.3580 -0.1140  0.0675
  858MOL0     C13131   2.145   6.450   7.684 -0.9047 -0.6967 -0.7393
  858MOL0     O13132   2.069   6.524   7.770 -0.3404 -0.0776  0.1646
  858MOL0     C13133   1.934   6.504   7.798 -0.0216 -0.1082  0.2136
  858MOL0     C13134   1.840   6.504   7.663 -0.1597 -0.5057 -0.9676
  858MOL0     C13135   1.691   6.467   7.700 -1.0751 -0.7267 -0.3559
  858MOL0     C13136   1.604   6.508   7.579  0.5500  0.0517  0.5559
  858MOL0     C13137   1.457   6.468   7.618 -0.3554  0.2260  0.7445
  858MOL0     C13138   1.353   6.465   7.506 -0.7050  0.1802 -0.6457
  858MOL0     C13139   1.215   6.424   7.554 -0.8914  0.6457  0.1582
  858MOL0     C13140   1.109   6.397   7.438 -0.2552 -0.1432 -0.9147
  858MOL0     N13141   1.013   6.293   7.469  0.5618  0.0039  0.9780
  858MOL0     C13142   1.026   6.157   7.484  0.3040  0.0910 -0.1366
  858MOL0     C13143   0.907   6.115   7.540  0.2533  0.8267  0.8344
  858MOL0     C13144   0.867   5.968   7.549  1.0832 -0.1745  0.3983
  858MOL0     C13145   0.875   5.903   7.692 -0.2867  0.7202 -0.7633
  858MOL0     C13146   0.750   5.831   7.712 -0.2500 -0.3168  0.4867
  858MOL0     C13147   0.755   5.772   7.842  0.2203  0.4202  0.0357
  858MOL0     O13148   0.624   5.709   7.871 -0.5740  0.7146  0.5103
  858MOL0     C13149   0.532   5.786   7.934 -0.3729  0.0415  0.3845
  858MOL0     C13150   0.407   5.751   7.902  0.3970  1.1808  0.8743
  858MOL0     C13151   0.304   5.842   7.933  0.0400 -0.2812  0.5965
  858MOL0     C13152   0.330   5.960   8.007 -0.1111 -1.3207 -0.3600
  858MOL0     C13153   0.213   6.052   8.034  0.0775  0.7275 -0.1660
  858MOL0     O13154   0.089   5.997   7.987 -0.6943 -0.1612  0.0905
  858MOL0     C13155  -0.031   6.052   8.031  0.1936 -0.2530  0.0376
  858MOL0     C13156  -0.058   6.107   8.157 -0.0963 -0.1730  0.2144
  858MOL0     C13157  -0.197   6.134   8.189 -0.6190  0.0716  1.0917
  858MOL0     C13158  -0.294   6.121   8.091 -0.4698 -0.8787  0.7428
  858MOL0     O13159  -0.419   6.173   8.128 -0.6382  0.1469  0.2417
  858MOL0     C13160  -0.532   6.085   8.100  1.7641  0.0983 -0.8306
  858MOL0     C13161  -0.644   6.121   8.202 -0.3278 -0.0818 -0.2681
  858MOL0     C13162  -0.625   6.081   8.353  0.4340  0.0031 -0.1038
  858MOL0     C13163  -0.713   6.146   8.460 -0.0170  1.1410  0.5052
  858MOL0     C13164  -0.859   6.172   8.410 -0.3676 -0.2733  0.7262
  858MOL0     C13165  -0.929   6.232   8.538 -0.0994  0.2992 -0.7260
  858MOL0     C13166  -1.076   6.259   8.511  0.6171  0.2694  0.9872
  858MOL0     C13167  -1.163   6.129   8.491 -0.0811 -0.0217 -0.3930
  858MOL0    Cl13168  -1.335   6.171   8.470 -0.3761  0.0794 -0.5638
  858MOL0     C13169  -0.272   6.053   7.972 -0.2980 -0.1410  0.5162
  858MOL0     C13170  -0.139   6.025   7.933 -0.1195 -0.0469  0.0718
  858MOL0     O13171   0.221   6.153   8.103 -1.1182 -0.6018 -0.3303
  858MOL0     C13172   0.459   5.986   8.049 -0.6891 -0.6570  0.2527
  858MOL0     C13173   0.555   5.900   8.011  0.5456 -0.8001  0.6012
  858MOL0     N13174   0.823   6.226   7.545  0.1318  0.5132 -0.7410
  858MOL0     N13175   0.890   6.332   7.508  0.4942  0.4443 -0.9479
  858MOL0     C13176   2.114   6.325   7.621  0.4263  0.1293 -0.4488
  858MOL0     C13177   2.196   6.261   7.531  0.9165  0.5046  0.0123
  858MOL0     C13178   2.598   6.187   7.284 -0.2981  0.5303 -0.6688
  858MOL0     C13179   2.556   6.050   7.273  0.7137  0.2629 -0.1123
  858MOL0     C13180   2.630   5.950   7.213 -0.1738 -0.5105 -0.8098
  858MOL0     C13181   2.754   5.983   7.166 -0.0460 -0.5865 -0.5588
  858MOL0     O13182   2.830   5.884   7.111 -0.3602  0.0969 -0.0338
  858MOL0     C13183   2.792   5.848   6.979  0.4678  0.1376  0.9233
  858MOL0     C13184   2.864   5.721   6.945 -1.0802  0.0149 -0.1891
  858MOL0     C13185   3.014   5.751   6.929 -0.1924 -0.1749 -1.0568
  858MOL0     C13186   3.048   5.848   6.813 -0.0749 -0.1745 -0.5437
  858MOL0     C13187   3.193   5.856   6.794  0.2947  1.0058 -0.0258
  858MOL0     C13188   3.316   5.849   6.779 -0.1377 -0.6546 -0.5360
  858MOL0     C13189   2.799   6.122   7.168  0.5493  0.6656  0.2244
  858MOL0     C13190   2.710   6.216   7.223  0.0336 -0.8989 -0.2303
  858MOL0     H13191   2.457   6.474   7.548 -0.1793  1.2309  3.5266
  858MOL0     H13192   2.301   6.605   7.691 -2.5076  0.3015  1.1649
  858MOL0     H13193   1.891   6.584   7.859 -3.1328 -1.2947 -0.2282
  858MOL0     H13194   1.932   6.412   7.856  1.5024 -1.0846 -1.2115
  858MOL0     H13195   1.867   6.431   7.586 -6.0528 -3.1506 -1.0057
  858MOL0     H13196   1.851   6.608   7.631 -2.3110 -0.3785 -1.4166
  858MOL0     H13197   1.662   6.523   7.790 -1.6818  0.5622 -1.3244
  858MOL0     H13198   1.681   6.360   7.719 -3.6852 -0.6218 -0.7739
  858MOL0     H13199   1.604   6.616   7.559 -1.3639 -0.0098  0.0690
  858MOL0     H13200   1.626   6.453   7.487 -1.9839  0.6811 -0.4987
  858MOL0     H13201   1.415   6.538   7.691  2.3722  1.6459  1.0949
  858MOL0     H13202   1.459   6.374   7.673  3.6882  0.0988  0.6513
  858MOL0     H13203   1.394   6.392   7.435 -0.5352  0.5342 -0.9179
  858MOL0     H13204   1.354   6.564   7.459 -0.5729 -0.6046 -2.3708
  858MOL0     H13205   1.235   6.332   7.609  3.6106  1.8667  1.0506
  858MOL0     H13206   1.174   6.491   7.631 -0.9402 -0.1899  0.8722
  858MOL0     H13207   1.163   6.358   7.351 -1.8127  2.3615 -3.1523
  858MOL0     H13208   1.067   6.495   7.414  0.4616  0.1671 -0.9185
  858MOL0     H13209   1.106   6.095   7.444  0.8705  0.6832  0.0660
  858MOL0     H13210   0.925   5.905   7.481 -0.0363 -1.1189  0.2913
  858MOL0     H13211   0.762   5.955   7.521 -0.1064  0.7497  3.8817
  858MOL0     H13212   0.876   5.974   7.775  0.0205  0.7213 -0.7702
  858MOL0     H13213   0.967   5.844   7.688  0.1702  1.1157  2.1085
  858MOL0     H13214   0.659   5.891   7.700 -1.7892 -2.6611 -0.4333
  858MOL0     H13215   0.738   5.747   7.643  2.3045  0.2497 -0.7597
  858MOL0     H13216   0.788   5.838   7.923  2.5208 -0.5448 -0.0496
  858MOL0     H13217   0.825   5.689   7.844  0.3408  0.5274  0.4675
  858MOL0     H13218   0.388   5.657   7.849  1.4201  1.6583 -0.3784
  858MOL0     H13219   0.206   5.807   7.904 -0.4248  1.2892  0.1590
  858MOL0     H13220   0.007   6.134   8.240 -0.6803  2.4390 -0.1001
  858MOL0     H13221  -0.221   6.173   8.287  0.4764  4.5542 -0.1952
  858MOL0     H13222  -0.506   5.979   8.106  2.8654  0.1221 -3.5998
  858MOL0     H13223  -0.574   6.110   8.002 -2.5772 -0.8071  0.5448
  858MOL0     H13224  -0.736   6.071   8.168  0.1157  0.6278 -2.7595
  858MOL0     H13225  -0.681   6.224   8.197  0.5446  0.1965 -2.6766
  858MOL0     H13226  -0.528   6.094   8.401  0.2671  0.7703  0.0489
  858MOL0     H13227  -0.640   5.973   8.361 -1.5883  0.3059  1.1292
  858MOL0     H13228  -0.715   6.079   8.546  2.2811 -0.5382 -0.6495
  858MOL0     H13229  -0.662   6.239   8.485  1.0950  0.9493 -0.9179
  858MOL0     H13230  -0.899   6.073   8.385  1.3814 -1.3894  2.0317
  858MOL0     H13231  -0.868   6.250   8.334  0.2875  1.7528  2.6164
  858MOL0     H13232  -0.888   6.331   8.558 -1.4335  0.9340 -1.0386
  858MOL0     H13233  -0.909   6.172   8.627 -1.0663 -0.4369 -0.9789
  858MOL0     H13234  -1.116   6.314   8.597  1.2895  1.1836  0.7245
  858MOL0     H13235  -1.084   6.321   8.421 -0.6966 -3.1884 -1.5106
  858MOL0     H13236  -1.154   6.059   8.574  1.6693  0.2193 -0.3488
  858MOL0     H13237  -1.135   6.075   8.400 -2.3039 -0.9324 -0.6067
  858MOL0     H13238  -0.354   6.043   7.903 -1.3465  0.7944  1.5810
  858MOL0     H13239  -0.113   6.006   7.829  2.8460 -0.6608  0.8406
  858MOL0     H13240   0.471   6.069   8.117  1.9167 -0.1977 -0.6409
  858MOL0     H13241   0.649   5.929   8.057  1.3576 -2.0946 -0.1559
  858MOL0     H13242   2.023   6.267   7.636 -0.5049  1.8917  1.0818
  858MOL0     H13243   2.173   6.168   7.479  3.5322  0.0214 -0.4396
  858MOL0     H13244   2.459   6.022   7.311 -1.2951  2.4304 -3.1630
  858MOL0     H13245   2.608   5.844   7.205  1.7112 -0.9532 -0.5480
  858MOL0     H13246   2.821   5.929   6.912  1.9357  1.6238  3.2236
  858MOL0     H13247   2.684   5.837   6.962  0.2311  1.0895  1.7268
  858MOL0     H13248   2.864   5.643   7.022  4.6861  0.0921  0.3605
  858MOL0     H13249   2.823   5.682   6.852 -0.3373 -3.7029  0.8623
  858MOL0     H13250   3.077   5.663   6.915  1.4052  1.1737 -3.0303
  858MOL0     H13251   3.048   5.803   7.019  0.1915 -1.7367 -0.2647
  858MOL0     H13252   2.996   5.818   6.721  0.2673  0.8089 -1.0715
  858MOL0     H13253   3.022   5.950   6.842 -1.3545 -1.1711  2.1741
  858MOL0     H13254   3.422   5.862   6.777 -0.3477  1.3663 -1.1298
  858MOL0     H13255   2.903   6.134   7.139  1.3509 -2.4680  1.4116
  858MOL0     H13256   2.749   6.317   7.218 -1.6990 -0.2357 -2.0276
  859MOL0     O13257   3.168   3.241  10.019  0.3320 -0.4417 -0.0750
  859MOL0     C13258   3.273   3.174  10.000  0.1849  0.3497 -0.5093
  859MOL0     O13259   3.287   3.036  10.001  0.0523 -0.0509  0.2212
  859MOL0     C13260   3.178   2.943  10.010 -0.1488 -0.9112 -0.5948
  859MOL0     C13261   3.046   2.971   9.961  0.5220  0.4155 -0.3862
  859MOL0     C13262   2.944   2.869   9.970 -0.4161  0.2640  0.8173
  859MOL0     C13263   2.977   2.748  10.025 -0.8261  1.0754  0.4903
  859MOL0     O13264   2.885   2.645  10.019  0.1367 -0.4410  0.1686
  859MOL0     C13265   2.920   2.499  10.030  0.1306 -0.1862 -0.6948
  859MOL0     C13266   3.000   2.441   9.908  0.0306 -0.2092  0.5787
  859MOL0     C13267   3.079   2.315   9.941  1.1211 -0.0286  0.9417
  859MOL0     C13268   3.212   2.341  10.020  1.0148 -0.3353  1.0154
  859MOL0     C13269   3.291   2.215  10.060  0.3209 -0.1845 -0.2407
  859MOL0     C13270   3.333   2.143   9.939 -0.8384  1.5387 -0.0447
  859MOL0     C13271   3.424   2.016   9.958  0.9432  0.5372 -0.4873
  859MOL0     C13272   3.346   1.901  10.031  0.0695  0.7137  0.5213
  859MOL0     N13273   3.204   1.889   9.993 -0.0102 -0.8873  1.1110
  859MOL0     C13274   3.175   1.875   9.857 -0.2471 -0.1404 -0.0414
  859MOL0     C13275   3.042   1.888   9.863  0.5565 -0.0429  1.0265
  859MOL0     C13276   2.958   1.899   9.738  0.7070 -0.0700  0.2405
  859MOL0     C13277   2.917   1.752   9.692 -0.5100 -0.5629 -0.7367
  859MOL0     C13278   2.791   1.743   9.615  0.0620  0.1809 -0.3597
  859MOL0     C13279   2.793   1.773   9.470  0.7138 -0.3726  0.9874
  859MOL0     O13280   2.666   1.733   9.409 -0.1139 -0.5613  0.0373
  859MOL0     C13281   2.623   1.806   9.294 -0.5779 -0.0528 -0.5650
  859MOL0     C13282   2.719   1.854   9.204 -0.5850  0.3998 -0.0594
  859MOL0     C13283   2.679   1.928   9.094 -0.6332 -0.1712 -0.3207
  859MOL0     C13284   2.539   1.962   9.068  0.1766  0.6959 -1.1823
  859MOL0     C13285   2.505   2.015   8.936  0.2074  0.0305  0.5161
  859MOL0     O13286   2.387   1.985   8.886 -0.1113  0.4320  0.3097
  859MOL0     C13287   2.318   2.063   8.806  0.4565  0.2715  0.7329
  859MOL0     C13288   2.222   1.995   8.738  0.8726  1.1300  0.6929
  859MOL0     C13289   2.121   2.057   8.667 -0.3119 -0.1581 -0.8450
  859MOL0     C13290   2.122   2.191   8.655 -0.1903 -0.7505  0.1955
  859MOL0     O13291   2.024   2.268   8.590  0.1150  0.2456  0.0371
  859MOL0     C13292   1.897   2.200   8.559 -1.0577 -1.0394  0.1887
  859MOL0     C13293   1.800   2.298   8.486  0.1121  0.4360 -0.0038
  859MOL0     C13294   1.652   2.269   8.494 -0.2330  0.0545 -0.3901
  859MOL0     C13295   1.579   2.371   8.408  0.2101 -0.2183 -1.4215
  859MOL0     C13296   1.421   2.365   8.440 -0.3656  0.5047 -1.0046
  859MOL0     C13297   1.348   2.450   8.343  0.4473  0.3816  0.7794
  859MOL0     C13298   1.199   2.471   8.383  0.3470 -0.1747 -0.7028
  859MOL0     C13299   1.140   2.344   8.412  0.3417  0.6194  0.3849
  859MOL0    Cl13300   0.960   2.358   8.419  0.4940 -0.3936 -0.1196
  859MOL0     C13301   2.218   2.273   8.714 -0.6552  0.8480  0.5121
  859MOL0     C13302   2.311   2.203   8.794  0.0821 -0.5164  0.0163
  859MOL0     O13303   2.594   2.080   8.874 -0.1199 -0.0330 -0.2950
  859MOL0     C13304   2.450   1.922   9.169 -0.2611  1.2353  0.3145
  859MOL0     C13305   2.494   1.850   9.282 -0.0143  0.9288 -0.4811
  859MOL0     N13306   2.991   1.904   9.986  0.3204 -0.0392  0.1545
  859MOL0     N13307   3.093   1.902  10.067  0.5842 -0.5353  0.9361
  859MOL0     C13308   3.106   2.724  10.076 -0.4645  0.0856  0.9251
  859MOL0     C13309   3.207   2.823  10.060 -0.3787  1.2001 -0.3778
  859MOL0     C13310   3.400   3.256   9.977  0.2614  0.5602  0.5539
  859MOL0     C13311   3.404   3.393  10.019  0.0407 -0.2785  0.6541
  859MOL0     C13312   3.521   3.471   9.995  0.1728  0.3331  0.1829
  859MOL0     C13313   3.635   3.413   9.945 -0.2345 -0.2742 -0.0939
  859MOL0     O13314   3.743   3.494   9.922 -0.0782  0.1179 -0.8374
  859MOL0     C13315   3.872   3.433   9.924 -0.1257  0.4774  0.0688
  859MOL0     C13316   3.978   3.542   9.932  0.1959 -0.5698  0.9881
  859MOL0     C13317   3.974   3.617  10.061  0.2460 -0.2304  0.0736
  859MOL0     C13318   4.017   3.762  10.040  0.3276  0.8974 -0.0955
  859MOL0     C13319   3.916   3.837   9.970  0.0459 -0.4808 -0.0699
  859MOL0     C13320   3.852   3.906   9.896  0.1055  0.6536 -0.7385
  859MOL0     C13321   3.629   3.276   9.902  0.0147  0.1146 -0.6846
  859MOL0     C13322   3.516   3.206   9.917 -0.2792  0.3447  0.6602
  859MOL0     H13323   3.013   3.067   9.924 -1.5000  0.1675  0.6573
  859MOL0     H13324   2.844   2.884   9.931  1.2418 -0.5508 -4.6826
  859MOL0     H13325   2.831   2.438  10.047 -0.9731  1.3788 -0.6625
  859MOL0     H13326   2.989   2.477  10.112  0.3123  1.2885 -0.4192
  859MOL0     H13327   3.077   2.511   9.876  1.5549 -0.9905  2.3664
  859MOL0     H13328   2.933   2.419   9.825 -1.0555 -0.9826  1.6302
  859MOL0     H13329   3.101   2.267   9.845  2.1313 -1.6041  1.9155
  859MOL0     H13330   3.017   2.243   9.994  0.0063 -0.2066 -0.5198
  859MOL0     H13331   3.281   2.394   9.954  1.3614 -3.1144 -1.0010
  859MOL0     H13332   3.192   2.403  10.109  0.1514  1.9074 -0.6364
  859MOL0     H13333   3.230   2.151  10.124 -1.1826  0.4320 -1.0215
  859MOL0     H13334   3.386   2.241  10.107  1.3533 -2.6330 -0.7898
  859MOL0     H13335   3.395   2.213   9.882  0.7144  0.9131  0.8153
  859MOL0     H13336   3.247   2.126   9.874 -1.4561 -2.1284  1.5097
  859MOL0     H13337   3.436   1.986   9.853 -0.6250  2.4204 -1.2864
  859MOL0     H13338   3.518   2.044  10.005  0.7061  3.1485 -1.3867
  859MOL0     H13339   3.367   1.918  10.137 -0.9786  2.6632  0.4552
  859MOL0     H13340   3.406   1.813  10.002  0.2625  0.7952  0.6730
  859MOL0     H13341   3.242   1.873   9.771 -0.0321  0.9084  0.0973
  859MOL0     H13342   3.024   1.937   9.660 -2.1847  2.2582 -1.2438
  859MOL0     H13343   2.875   1.969   9.744  2.1988  1.7082  4.1126
  859MOL0     H13344   2.893   1.695   9.782 -1.6781  1.0117  0.0134
  859MOL0     H13345   2.999   1.701   9.641 -1.4227 -2.2632 -0.5586
  859MOL0     H13346   2.753   1.641   9.620  2.6418 -0.7744  1.4218
  859MOL0     H13347   2.713   1.801   9.666 -0.2001 -1.4359  1.1463
  859MOL0     H13348   2.876   1.722   9.421  0.2944 -0.1010 -0.0170
  859MOL0     H13349   2.796   1.881   9.452 -3.3489 -0.2501  0.0697
  859MOL0     H13350   2.826   1.846   9.221 -0.0347  3.0166 -1.6592
  859MOL0     H13351   2.757   1.966   9.028 -0.2791  0.6848  0.5638
  859MOL0     H13352   2.212   1.888   8.754  1.1813  0.7661 -1.3362
  859MOL0     H13353   2.039   2.003   8.619 -1.4265 -0.5876  1.3833
  859MOL0     H13354   1.856   2.152   8.649 -0.6225 -0.7100  0.5719
  859MOL0     H13355   1.920   2.126   8.482 -0.3019 -0.3812 -0.2258
  859MOL0     H13356   1.826   2.297   8.380  1.7918 -2.3480  0.3470
  859MOL0     H13357   1.814   2.393   8.540  0.2989  0.9019 -0.8527
  859MOL0     H13358   1.613   2.274   8.597 -1.1707  3.0837 -0.8086
  859MOL0     H13359   1.642   2.166   8.458  1.7568 -0.1550 -0.4257
  859MOL0     H13360   1.625   2.468   8.429  1.4299 -0.8424 -1.0986
  859MOL0     H13361   1.597   2.350   8.302 -0.0709  0.7638 -1.6687
  859MOL0     H13362   1.403   2.401   8.541  1.1846 -1.0761 -0.1144
  859MOL0     H13363   1.386   2.261   8.447  0.5955  0.2906  2.4812
  859MOL0     H13364   1.355   2.401   8.246  3.2451  0.0331  1.0860
  859MOL0     H13365   1.398   2.547   8.334 -1.0465  1.4005  2.5379
  859MOL0     H13366   1.186   2.537   8.469 -0.5156 -1.5423  0.2499
  859MOL0     H13367   1.140   2.520   8.304  0.9748  1.2062 -0.3506
  859MOL0     H13368   1.176   2.309   8.509 -0.4013  3.0620  1.6193
  859MOL0     H13369   1.166   2.271   8.335  2.6862  0.4338  1.2782
  859MOL0     H13370   2.216   2.381   8.720  1.7827  0.8856  2.7172
  859MOL0     H13371   2.377   2.255   8.864  0.7751  0.0822 -1.0635
  859MOL0     H13372   2.341   1.926   9.169 -0.4464 -1.0550 -2.0001
  859MOL0     H13373   2.415   1.834   9.354 -0.1539  1.7381 -0.4517
  859MOL0     H13374   3.133   2.627  10.117 -3.5423 -0.7565  1.1814
  859MOL0     H13375   3.312   2.809  10.085 -0.5732 -2.8019 -1.1821
  859MOL0     H13376   3.317   3.436  10.068  1.4750  3.0885  0.4835
  859MOL0     H13377   3.522   3.577  10.017  0.2650  0.2060  0.8131
  859MOL0     H13378   3.892   3.380   9.830 -1.4347 -1.7219  0.9580
  859MOL0     H13379   3.873   3.351   9.996  0.2066  0.3733 -0.0518
  859MOL0     H13380   4.074   3.491   9.924  1.2075  1.4898 -3.0718
  859MOL0     H13381   3.965   3.613   9.849 -1.4141  1.5052  2.9022
  859MOL0     H13382   4.038   3.560  10.129 -3.8668 -1.3631  3.4411
  859MOL0     H13383   3.879   3.612  10.115  0.1564 -3.7536 -0.1383
  859MOL0     H13384   4.043   3.807  10.137  1.3464 -1.6924  0.9183
  859MOL0     H13385   4.108   3.769   9.979 -0.9898 -0.4396 -2.3277
  859MOL0     H13386   3.803   3.981   9.837 -0.8071 -0.8053 -1.9293
  859MOL0     H13387   3.704   3.229   9.840  0.2665  0.2061 -0.4551
  859MOL0     H13388   3.513   3.104   9.879  2.3396  1.0217 -1.7117
  860MOL0     O13389   1.986   4.621   4.656  0.6232  0.0372 -0.5368
  860MOL0     C13390   1.984   4.509   4.709  0.1243  0.2310  1.0362
  860MOL0     O13391   2.100   4.440   4.738  0.0915  0.1093  0.8739
  860MOL0     C13392   2.217   4.506   4.706 -0.6149 -0.5952  0.1312
  860MOL0     C13393   2.279   4.476   4.585 -1.0232 -0.1217  0.4547
  860MOL0     C13394   2.405   4.528   4.558 -1.4321  0.4869 -0.1451
  860MOL0     C13395   2.476   4.611   4.655 -0.9674  0.0690 -0.1314
  860MOL0     O13396   2.607   4.642   4.642  0.0377 -0.4257 -0.3582
  860MOL0     C13397   2.685   4.529   4.690  0.1261 -0.5141  0.2209
  860MOL0     C13398   2.809   4.522   4.605 -0.1557  0.3993 -0.0746
  860MOL0     C13399   2.901   4.406   4.648 -0.3053  0.0957  0.3758
  860MOL0     C13400   3.051   4.435   4.641  0.5208  0.6297  1.1175
  860MOL0     C13401   3.137   4.311   4.659  0.5394 -0.3283 -1.0381
  860MOL0     C13402   3.281   4.348   4.715  0.2234 -0.1297  0.9023
  860MOL0     C13403   3.373   4.218   4.732 -0.3766 -0.1404 -1.2456
  860MOL0     C13404   3.400   4.136   4.604 -0.2364 -0.5129 -0.2007
  860MOL0     N13405   3.497   4.030   4.622 -0.1491 -0.4819  0.6013
  860MOL0     C13406   3.476   3.910   4.689  0.4098 -0.0397  0.1729
  860MOL0     C13407   3.604   3.863   4.695  0.2594  0.3065 -0.7587
  860MOL0     C13408   3.636   3.737   4.776 -0.1232 -0.2410 -0.1321
  860MOL0     C13409   3.662   3.774   4.926  0.3302 -0.4499  0.0674
  860MOL0     C13410   3.659   3.650   5.015 -1.2407  0.0930 -0.5975
  860MOL0     C13411   3.528   3.615   5.087 -0.3902 -0.5246 -0.3396
  860MOL0     O13412   3.434   3.571   4.986 -0.8061 -0.0960  0.1190
  860MOL0     C13413   3.305   3.582   5.021 -0.1258 -0.5429 -0.0065
  860MOL0     C13414   3.234   3.655   4.927  0.8959 -0.9825 -0.4562
  860MOL0     C13415   3.102   3.692   4.938 -0.9651  0.4481  0.1018
  860MOL0     C13416   3.040   3.635   5.046 -0.2484  0.4961  0.0476
  860MOL0     C13417   2.901   3.671   5.079  0.3988  0.3663 -0.3554
  860MOL0     O13418   2.866   3.793   5.070  0.4658 -0.8161 -0.5062
  860MOL0     C13419   2.748   3.829   5.137  0.2466  0.5593  0.4124
  860MOL0     C13420   2.617   3.837   5.076 -0.1293 -0.4695  0.2441
  860MOL0     C13421   2.512   3.899   5.144 -0.0479 -0.6289 -0.1865
  860MOL0     C13422   2.533   3.936   5.279  0.3637  1.5687  0.6474
  860MOL0     O13423   2.420   3.975   5.350 -0.1203  0.5973 -0.0382
  860MOL0     C13424   2.397   3.928   5.486 -0.0185 -0.2439  0.0495
  860MOL0     C13425   2.337   3.792   5.511  0.0455  0.1938 -0.9171
  860MOL0     C13426   2.337   3.671   5.411 -0.0173 -0.3777 -0.5521
  860MOL0     C13427   2.223   3.699   5.302  0.4449 -0.7160 -0.6518
  860MOL0     C13428   2.205   3.568   5.213 -0.3495 -0.4538 -0.0757
  860MOL0     C13429   2.074   3.589   5.136  0.1231  1.6960 -0.1761
  860MOL0     C13430   2.074   3.483   5.017  0.2153  0.0132  0.0551
  860MOL0     C13431   1.958   3.526   4.931 -0.3556  0.2959 -0.1809
  860MOL0    Cl13432   1.798   3.513   5.009  0.3956 -0.1533 -0.0942
  860MOL0     C13433   2.655   3.912   5.347  0.7408  0.6377  0.0975
  860MOL0     C13434   2.761   3.873   5.271  0.3109 -0.0942  0.5378
  860MOL0     O13435   2.834   3.581   5.127 -0.7003 -0.0145  0.2949
  860MOL0     C13436   3.105   3.554   5.142  0.3375  0.9968 -0.2502
  860MOL0     C13437   3.239   3.530   5.132  0.8950  0.0468  0.6061
  860MOL0     N13438   3.692   3.946   4.638 -1.0873  0.7966 -0.3111
  860MOL0     N13439   3.637   4.045   4.606  0.5126 -0.4607 -0.0481
  860MOL0     C13440   2.417   4.629   4.774  1.3142 -0.7601 -0.3810
  860MOL0     C13441   2.285   4.586   4.800  0.5935  0.2535  0.4988
  860MOL0     C13442   1.852   4.446   4.734 -0.1396  0.7396  0.4655
  860MOL0     C13443   1.734   4.516   4.718 -0.8582 -0.2224  0.2141
  860MOL0     C13444   1.614   4.453   4.758  0.1230 -0.0450 -0.0556
  860MOL0     C13445   1.603   4.324   4.807  0.2117  0.4705 -0.1226
  860MOL0     O13446   1.490   4.254   4.846  0.0669  0.0538 -0.3516
  860MOL0     C13447   1.357   4.310   4.832 -0.6066 -0.5106  0.0823
  860MOL0     C13448   1.320   4.391   4.959 -0.8544  0.0459  0.7959
  860MOL0     C13449   1.339   4.316   5.089  0.5523 -0.0764  0.1643
  860MOL0     C13450   1.243   4.377   5.195  0.5075 -0.4246 -0.3817
  860MOL0     C13451   1.105   4.349   5.155  0.4636  0.0063  0.2434
  860MOL0     C13452   0.983   4.340   5.127  0.0633  0.2948 -0.1283
  860MOL0     C13453   1.725   4.251   4.810  0.3088  0.1414  0.6443
  860MOL0     C13454   1.844   4.312   4.774  0.6801 -0.6094  0.5001
  860MOL0     H13455   2.227   4.421   4.508 -2.2200  2.2707 -0.5526
  860MOL0     H13456   2.446   4.508   4.460 -0.6481  3.3744 -0.4818
  860MOL0     H13457   2.634   4.434   4.672  1.0762 -0.9966  0.0018
  860MOL0     H13458   2.708   4.536   4.796 -1.1491 -1.1151  0.5500
  860MOL0     H13459   2.869   4.613   4.610 -0.2604  0.4661 -0.0279
  860MOL0     H13460   2.778   4.499   4.502  0.1824  3.3060 -0.9049
  860MOL0     H13461   2.884   4.320   4.583  1.6632 -0.6646  0.8122
  860MOL0     H13462   2.861   4.369   4.744  0.4287  0.5034  0.8478
  860MOL0     H13463   3.063   4.488   4.546 -1.8527  1.9040  1.4371
  860MOL0     H13464   3.052   4.510   4.721 -1.7108  2.6381 -0.5740
  860MOL0     H13465   3.144   4.262   4.561  0.7519 -1.7649 -0.3301
  860MOL0     H13466   3.093   4.243   4.732 -1.4495 -0.9243 -2.6792
  860MOL0     H13467   3.277   4.406   4.808 -1.7802  1.3539 -0.0290
  860MOL0     H13468   3.332   4.411   4.642  0.2073 -1.6380 -0.4546
  860MOL0     H13469   3.470   4.242   4.776 -1.4945 -0.9550  1.9605
  860MOL0     H13470   3.317   4.157   4.803 -0.2060  1.3794  0.2635
  860MOL0     H13471   3.433   4.207   4.528 -2.5142 -2.0274 -2.7779
  860MOL0     H13472   3.304   4.099   4.567 -1.1386  1.7465 -0.2247
  860MOL0     H13473   3.385   3.878   4.739  0.4778  1.5128  1.3332
  860MOL0     H13474   3.722   3.676   4.749  1.0610  0.1256  2.5405
  860MOL0     H13475   3.545   3.676   4.785 -1.3362  1.4423 -0.4537
  860MOL0     H13476   3.587   3.846   4.961  1.7281  0.9596  0.2721
  860MOL0     H13477   3.762   3.815   4.943 -0.3023  0.8953  0.7152
  860MOL0     H13478   3.698   3.564   4.959  1.4794  1.0817 -0.3641
  860MOL0     H13479   3.735   3.666   5.092 -2.0946  0.2206  0.2391
  860MOL0     H13480   3.490   3.694   5.152 -0.9562 -2.2285  1.4797
  860MOL0     H13481   3.549   3.532   5.155 -0.7460 -0.9547 -0.7523
  860MOL0     H13482   3.287   3.709   4.850  2.8154 -1.2898  0.5839
  860MOL0     H13483   3.053   3.761   4.870  0.5167  1.1557 -0.3047
  860MOL0     H13484   2.593   3.811   4.973  0.5362 -1.1122  0.2455
  860MOL0     H13485   2.420   3.920   5.090  0.0596  1.4869  0.3814
  860MOL0     H13486   2.324   3.991   5.536  0.7032  0.3383  0.3947
  860MOL0     H13487   2.484   3.936   5.552 -0.5939  1.5663  0.6405
  860MOL0     H13488   2.232   3.812   5.537  0.5408  1.6343  0.1141
  860MOL0     H13489   2.396   3.746   5.591 -1.2541  1.8417  1.0805
  860MOL0     H13490   2.304   3.584   5.469  2.7884  0.6415  2.9354
  860MOL0     H13491   2.432   3.642   5.364 -1.0280 -2.1715 -1.6022
  860MOL0     H13492   2.128   3.716   5.353  0.1639 -0.7535 -1.1621
  860MOL0     H13493   2.238   3.789   5.243  0.3283 -0.3167 -0.0797
  860MOL0     H13494   2.203   3.474   5.270  3.1030 -1.2216 -1.0068
  860MOL0     H13495   2.286   3.554   5.141 -0.7841 -0.3174 -0.6013
  860MOL0     H13496   2.069   3.693   5.102 -1.8989  1.8386  0.4190
  860MOL0     H13497   1.989   3.578   5.204  0.7577  0.0502  0.4112
  860MOL0     H13498   2.169   3.474   4.964  1.4333 -1.2706  2.3118
  860MOL0     H13499   2.064   3.379   5.047  1.1516  0.1443  0.8706
  860MOL0     H13500   1.955   3.474   4.835 -4.5013 -1.9171  0.9002
  860MOL0     H13501   1.972   3.631   4.905  2.5198 -0.5399 -2.6419
  860MOL0     H13502   2.658   3.942   5.451 -0.3856  1.3674 -0.0678
  860MOL0     H13503   2.856   3.853   5.320 -1.1402 -3.5140  2.3174
  860MOL0     H13504   3.049   3.512   5.224  1.9017  2.1449  1.4841
  860MOL0     H13505   3.297   3.482   5.210 -0.6977  1.1368  2.5933
  860MOL0     H13506   2.475   4.679   4.851 -0.9480 -1.4679  1.9073
  860MOL0     H13507   2.233   4.599   4.895  0.2103 -2.4839  0.7484
  860MOL0     H13508   1.717   4.616   4.680  0.3469 -0.5692 -1.3401
  860MOL0     H13509   1.527   4.517   4.764  0.5498  0.4505  1.5250
  860MOL0     H13510   1.290   4.225   4.821 -0.9500  0.0991 -6.3881
  860MOL0     H13511   1.347   4.357   4.733 -2.5490 -1.3011 -0.1433
  860MOL0     H13512   1.388   4.477   4.958 -0.1310 -0.4676 -1.9964
  860MOL0     H13513   1.219   4.427   4.942 -0.4588  1.1748  0.7389
  860MOL0     H13514   1.444   4.319   5.121  0.2871  0.1334  1.0403
  860MOL0     H13515   1.318   4.209   5.081 -2.8233  0.3465  1.6068
  860MOL0     H13516   1.255   4.330   5.293 -3.1950 -0.4453  0.1710
  860MOL0     H13517   1.260   4.485   5.200 -1.3847 -0.1533  3.2212
  860MOL0     H13518   0.888   4.324   5.079  1.5361 -1.7347 -2.5876
  860MOL0     H13519   1.725   4.149   4.845 -0.4374 -0.5661 -1.2563
  860MOL0     H13520   1.932   4.249   4.781 -0.0381 -1.7796 -0.5686
  861MOL0     O13521   8.533   0.569   2.924  0.5104 -0.3939  0.3952
  861MOL0     C13522   8.585   0.637   3.011 -0.0186 -0.1967 -0.3355
  861MOL0     O13523   8.554   0.765   3.049  0.2000 -0.4865 -0.7170
  861MOL0     C13524   8.493   0.859   2.962 -0.5742  0.3100 -0.0755
  861MOL0     C13525   8.469   0.989   3.012  0.1301 -0.7187  0.0622
  861MOL0     C13526   8.436   1.100   2.932  0.1153  0.0253  0.6190
  861MOL0     C13527   8.397   1.077   2.793 -0.3649 -0.5240 -0.3838
  861MOL0     O13528   8.357   1.176   2.712  0.1995  0.7008 -0.2577
  861MOL0     C13529   8.462   1.233   2.625 -0.6649 -0.1277  0.5077
  861MOL0     C13530   8.386   1.237   2.486 -0.3425  0.3113  0.2752
  861MOL0     C13531   8.256   1.308   2.502  1.1456 -0.0898 -0.6555
  861MOL0     C13532   8.193   1.317   2.359  0.5324 -0.0660  0.0344
  861MOL0     C13533   8.064   1.404   2.345  0.1921 -0.7177  0.3029
  861MOL0     C13534   7.940   1.365   2.430 -0.0556  0.2086 -0.6149
  861MOL0     C13535   7.799   1.419   2.393  0.5497  0.4513  0.0624
  861MOL0     C13536   7.728   1.356   2.268 -0.3297 -0.3004  1.0577
  861MOL0     N13537   7.594   1.424   2.238  0.7269  0.2993 -0.0940
  861MOL0     C13538   7.484   1.431   2.326  0.8920  0.0861 -0.2267
  861MOL0     C13539   7.390   1.509   2.279  0.2201 -0.4411  0.4373
  861MOL0     C13540   7.266   1.564   2.347  0.1569  0.2606  0.5200
  861MOL0     C13541   7.305   1.669   2.439  0.2804  0.6007 -0.5322
  861MOL0     C13542   7.357   1.796   2.372 -0.0026 -0.4665  0.0040
  861MOL0     C13543   7.255   1.882   2.296  0.3412 -0.0001  0.6542
  861MOL0     O13544   7.208   1.990   2.379 -0.0855 -0.3617 -0.0010
  861MOL0     C13545   7.127   2.082   2.319 -0.2009  0.2373 -0.4719
  861MOL0     C13546   7.070   2.177   2.407 -0.8027 -0.2868  0.7096
  861MOL0     C13547   6.998   2.282   2.360 -0.1676 -1.6932  0.3854
  861MOL0     C13548   6.976   2.305   2.224  0.4249 -0.0312  0.1891
  861MOL0     C13549   6.882   2.405   2.177  0.8949 -0.8673 -0.4423
  861MOL0     O13550   6.825   2.385   2.054 -0.0001 -0.6538  0.0873
  861MOL0     C13551   6.729   2.471   1.996  0.3884  0.2407  1.0772
  861MOL0     C13552   6.719   2.607   2.029 -0.4704  0.2947 -0.2257
  861MOL0     C13553   6.630   2.696   1.966 -0.7193  0.0414 -1.1129
  861MOL0     C13554   6.553   2.651   1.863 -0.3971 -0.7791  0.7823
  861MOL0     O13555   6.469   2.743   1.801  0.9521 -0.7558  0.0646
  861MOL0     C13556   6.337   2.690   1.776 -0.8490 -0.7890  0.6125
  861MOL0     C13557   6.271   2.799   1.695  0.9968 -0.4292  1.3257
  861MOL0     C13558   6.326   2.811   1.551 -0.2390 -0.1566 -0.9234
  861MOL0     C13559   6.242   2.891   1.452 -0.1583 -0.1159 -0.5267
  861MOL0     C13560   6.229   3.040   1.475  0.0434 -1.1187 -1.7778
  861MOL0     C13561   6.362   3.107   1.495 -0.0805 -0.9543 -0.3145
  861MOL0     C13562   6.344   3.260   1.531  0.2120  0.0559 -0.5116
  861MOL0     C13563   6.323   3.271   1.683 -0.2559 -0.1573 -0.3120
  861MOL0    Cl13564   6.326   3.440   1.711  0.3598  0.4178 -0.4789
  861MOL0     C13565   6.550   2.516   1.834  0.4495  0.1076 -1.0762
  861MOL0     C13566   6.639   2.426   1.891 -0.3407  0.2230 -0.5608
  861MOL0     O13567   6.847   2.494   2.254 -0.1097  0.6935 -0.7738
  861MOL0     C13568   7.040   2.208   2.143 -0.1008  0.4712  0.0066
  861MOL0     C13569   7.120   2.110   2.185  0.5611 -0.5120  0.2170
  861MOL0     N13570   7.443   1.548   2.163  0.0278  0.0441  0.0319
  861MOL0     N13571   7.565   1.496   2.128 -0.2898 -0.0760  0.2452
  861MOL0     C13572   8.404   0.945   2.745  0.1529 -1.0882 -1.0160
  861MOL0     C13573   8.457   0.842   2.827 -0.7750 -0.4560  0.1963
  861MOL0     C13574   8.710   0.572   3.059 -0.1391 -0.5778  0.4861
  861MOL0     C13575   8.770   0.463   2.990 -0.8498  0.2957 -0.1337
  861MOL0     C13576   8.886   0.404   3.042 -0.1691 -0.5697  0.3432
  861MOL0     C13577   8.952   0.462   3.149 -0.5685  0.2511 -0.6125
  861MOL0     O13578   9.076   0.403   3.176  0.8173  0.2451  0.6200
  861MOL0     C13579   9.158   0.477   3.268 -0.2578 -0.0129  0.6805
  861MOL0     C13580   9.214   0.615   3.209 -0.1086  0.2439 -0.7587
  861MOL0     C13581   9.299   0.574   3.087 -0.6237  0.4212 -0.0900
  861MOL0     C13582   9.317   0.693   2.998  0.2871  0.8869 -0.2777
  861MOL0     C13583   9.392   0.800   3.068  0.0379 -0.1905  0.8595
  861MOL0     C13584   9.437   0.878   3.151  0.6114  0.0639  0.0782
  861MOL0     C13585   8.887   0.570   3.215  0.0827  0.0362  0.4926
  861MOL0     C13586   8.764   0.622   3.176 -0.7517  0.3044  0.5958
  861MOL0     H13587   8.496   1.013   3.114 -0.5641  0.2111  0.0412
  861MOL0     H13588   8.440   1.198   2.978  1.8297 -1.0760  3.0479
  861MOL0     H13589   8.556   1.180   2.608  1.3390  4.0798 -4.4577
  861MOL0     H13590   8.503   1.329   2.657  0.7919 -0.2597 -0.8323
  861MOL0     H13591   8.361   1.135   2.456 -1.4424  0.5296  0.4181
  861MOL0     H13592   8.448   1.286   2.409  0.7442  2.4462  2.3790
  861MOL0     H13593   8.273   1.407   2.546 -0.2618  0.2859 -0.9067
  861MOL0     H13594   8.181   1.257   2.563  1.3781 -0.3633 -0.5986
  861MOL0     H13595   8.274   1.368   2.306 -0.7047  3.0013  0.8310
  861MOL0     H13596   8.174   1.216   2.321 -2.4836 -0.2934  1.7447
  861MOL0     H13597   8.027   1.408   2.242 -0.7811 -0.0399  0.6561
  861MOL0     H13598   8.099   1.503   2.377  1.2859 -0.8427 -0.4457
  861MOL0     H13599   7.958   1.407   2.529  0.1380 -2.0311  0.3598
  861MOL0     H13600   7.933   1.257   2.443 -0.2076  0.3338  0.4153
  861MOL0     H13601   7.735   1.406   2.481 -0.4772  1.4978 -0.4908
  861MOL0     H13602   7.811   1.528   2.383  0.1706  0.5217  0.3220
  861MOL0     H13603   7.706   1.253   2.295 -0.1993 -0.4668  0.5375
  861MOL0     H13604   7.796   1.352   2.183 -4.1947 -1.9783 -2.2618
  861MOL0     H13605   7.497   1.392   2.427  0.3099  1.8924  0.5923
  861MOL0     H13606   7.220   1.486   2.408 -2.9983  1.0064 -0.6833
  861MOL0     H13607   7.186   1.592   2.277  1.1350  3.2074  0.4555
  861MOL0     H13608   7.377   1.631   2.512  0.2712  1.8844  0.1623
  861MOL0     H13609   7.216   1.700   2.494 -0.4349  0.9351 -1.8382
  861MOL0     H13610   7.404   1.860   2.447  0.5839 -1.0303  0.1269
  861MOL0     H13611   7.446   1.776   2.313  0.8062 -1.8841  1.6195
  861MOL0     H13612   7.164   1.840   2.251  0.2885  0.7714  0.0124
  861MOL0     H13613   7.316   1.924   2.216  1.2245 -0.7166  0.9403
  861MOL0     H13614   7.104   2.170   2.510  2.2301  2.7849  0.1263
  861MOL0     H13615   6.975   2.357   2.435 -3.9368 -1.7195 -0.5275
  861MOL0     H13616   6.786   2.649   2.103  4.3319 -5.0890 -0.6997
  861MOL0     H13617   6.622   2.800   1.997  0.3322 -1.1265  4.0169
  861MOL0     H13618   6.300   2.643   1.868  4.4572 -5.1333  1.0430
  861MOL0     H13619   6.330   2.604   1.709 -0.6787  0.1313 -0.6072
  861MOL0     H13620   6.271   2.896   1.747 -1.3755 -0.9837  2.4905
  861MOL0     H13621   6.165   2.774   1.683  1.1927  0.1522 -3.2588
  861MOL0     H13622   6.333   2.712   1.505 -4.6404 -1.8003  1.3112
  861MOL0     H13623   6.430   2.843   1.556 -0.1754 -0.5954  1.8784
  861MOL0     H13624   6.274   2.879   1.348 -0.0002  3.8666 -1.1007
  861MOL0     H13625   6.137   2.863   1.466 -0.4630  0.9708 -0.5302
  861MOL0     H13626   6.174   3.054   1.568  2.9680 -2.8605  0.3846
  861MOL0     H13627   6.175   3.081   1.389 -2.0006  3.1089  1.1578
  861MOL0     H13628   6.421   3.103   1.402 -0.0632 -0.0284 -0.3559
  861MOL0     H13629   6.420   3.063   1.576  1.6327  1.4015 -0.1492
  861MOL0     H13630   6.438   3.309   1.504  0.6110  0.4601  1.4734
  861MOL0     H13631   6.255   3.312   1.494 -2.3931 -1.4664  2.9721
  861MOL0     H13632   6.392   3.216   1.747 -3.1052 -1.3466  1.9851
  861MOL0     H13633   6.223   3.228   1.701 -0.7170  2.1237  3.5515
  861MOL0     H13634   6.490   2.464   1.760  0.2965 -2.1852  0.5731
  861MOL0     H13635   6.638   2.324   1.855 -0.8929  0.9269 -2.6521
  861MOL0     H13636   7.036   2.229   2.037  2.0838  1.6130  0.1029
  861MOL0     H13637   7.174   2.043   2.119 -1.5130  0.1819 -2.3470
  861MOL0     H13638   8.368   0.931   2.643 -1.5817  0.5324 -0.6957
  861MOL0     H13639   8.474   0.742   2.787  7.7018  0.1255  0.5667
  861MOL0     H13640   8.724   0.443   2.894 -2.1155  0.0008  0.5034
  861MOL0     H13641   8.939   0.331   2.982  1.0580 -0.8801  1.7402
  861MOL0     H13642   9.245   0.412   3.279 -0.5187 -0.0103  3.1817
  861MOL0     H13643   9.108   0.469   3.365  1.9749 -1.6175  1.7716
  861MOL0     H13644   9.131   0.677   3.174 -0.4047  0.5673  0.4893
  861MOL0     H13645   9.267   0.673   3.284  2.1679  1.3769 -3.0785
  861MOL0     H13646   9.245   0.497   3.032 -3.3846  1.2167  1.3421
  861MOL0     H13647   9.394   0.529   3.119 -0.8796 -0.1305 -0.0885
  861MOL0     H13648   9.374   0.662   2.910 -1.8306  0.0318 -1.4484
  861MOL0     H13649   9.216   0.715   2.960 -0.4074 -0.6996  0.5490
  861MOL0     H13650   9.474   0.945   3.226 -1.1738 -0.5734  1.5976
  861MOL0     H13651   8.937   0.626   3.293 -0.2983  1.5959 -0.3466
  861MOL0     H13652   8.734   0.702   3.243  0.3183  1.8175 -0.6359
  862MOL0     O13653   3.219   1.570   5.998 -0.2549 -0.1475 -0.9417
  862MOL0     C13654   3.284   1.625   6.085  0.5677  0.1371 -1.1374
  862MOL0     O13655   3.241   1.724   6.167  1.2883  0.1095  0.5138
  862MOL0     C13656   3.120   1.775   6.161 -0.1220  0.1845 -0.0843
  862MOL0     C13657   3.012   1.688   6.183 -0.5368 -0.0957  0.0914
  862MOL0     C13658   2.885   1.732   6.207  0.4874  0.4976  0.2189
  862MOL0     C13659   2.860   1.872   6.218  0.1418  0.8159 -0.6696
  862MOL0     O13660   2.739   1.935   6.256 -0.5788  0.0402  0.6838
  862MOL0     C13661   2.686   1.900   6.383 -0.5716  0.4013 -0.5152
  862MOL0     C13662   2.569   1.990   6.412 -0.0150 -0.1098 -0.3558
  862MOL0     C13663   2.616   2.135   6.448 -0.9981  0.2994  0.4741
  862MOL0     C13664   2.505   2.239   6.447  1.2491 -0.5647 -0.8621
  862MOL0     C13665   2.399   2.221   6.554  0.0378  0.0149  0.8738
  862MOL0     C13666   2.298   2.336   6.548 -0.7268 -0.0494  0.7960
  862MOL0     C13667   2.357   2.457   6.625  0.5917 -0.2451  0.0389
  862MOL0     C13668   2.247   2.565   6.665  0.7183  0.4072 -0.6848
  862MOL0     N13669   2.230   2.654   6.552  0.4335 -0.5881 -0.2450
  862MOL0     C13670   2.227   2.784   6.570 -0.1526  0.1691 -0.0014
  862MOL0     C13671   2.175   2.829   6.451 -0.9757 -1.0513 -0.2876
  862MOL0     C13672   2.157   2.970   6.415  0.5822  0.5289 -0.8330
  862MOL0     C13673   2.024   3.010   6.480  0.3399  0.2436 -0.6116
  862MOL0     C13674   1.976   3.143   6.414  0.3256  0.1531  0.8386
  862MOL0     C13675   1.846   3.202   6.476 -0.3108  0.0243  0.5805
  862MOL0     O13676   1.873   3.266   6.600  1.2728  0.8050  0.7441
  862MOL0     C13677   1.781   3.359   6.632 -0.2740 -0.2274  0.3677
  862MOL0     C13678   1.816   3.460   6.715  0.2588 -0.8150 -0.4221
  862MOL0     C13679   1.723   3.546   6.763 -0.1869  0.3225  0.2201
  862MOL0     C13680   1.584   3.542   6.730 -0.1996 -0.5203 -0.8510
  862MOL0     C13681   1.489   3.632   6.787 -0.0899  0.0478 -0.2693
  862MOL0     O13682   1.350   3.611   6.761  0.2588 -0.1339  0.0812
  862MOL0     C13683   1.242   3.687   6.803 -0.4050  0.1232 -0.3184
  862MOL0     C13684   1.248   3.764   6.928  0.3663  0.6335  0.9222
  862MOL0     C13685   1.136   3.838   6.953 -0.0169 -0.3665  0.1508
  862MOL0     C13686   1.019   3.830   6.873 -0.7380 -0.2754  0.0038
  862MOL0     O13687   0.911   3.908   6.915  0.3961  0.5594  0.7720
  862MOL0     C13688   0.840   3.970   6.810 -1.0672  0.6094 -0.4723
  862MOL0     C13689   0.736   4.064   6.853  0.8544 -0.3016 -0.2059
  862MOL0     C13690   0.791   4.174   6.961 -0.1921 -0.3872 -0.0047
  862MOL0     C13691   0.689   4.195   7.072 -1.4994 -0.6850  0.1210
  862MOL0     C13692   0.725   4.288   7.179  0.0759 -0.7337 -0.0538
  862MOL0     C13693   0.621   4.314   7.283  0.2342 -0.0898  0.5189
  862MOL0     C13694   0.508   4.399   7.235  1.5717 -0.4623 -0.2780
  862MOL0     C13695   0.402   4.420   7.348  0.7655 -0.2451 -1.1930
  862MOL0    Cl13696   0.260   4.503   7.286  0.1550  0.4690 -0.4626
  862MOL0     C13697   1.015   3.748   6.761 -0.3617  0.2670 -0.1595
  862MOL0     C13698   1.124   3.679   6.725 -0.3459  0.1502 -0.1502
  862MOL0     O13699   1.541   3.722   6.861  0.5322 -0.0820  0.0248
  862MOL0     C13700   1.548   3.432   6.649 -0.4839  0.0823 -0.7425
  862MOL0     C13701   1.641   3.347   6.592 -0.8603  0.8044  0.0368
  862MOL0     N13702   2.147   2.719   6.375  0.0934  1.1934  0.7123
  862MOL0     N13703   2.178   2.609   6.433  0.6029 -0.8841 -0.7660
  862MOL0     C13704   2.970   1.954   6.195  1.1368 -0.6764 -0.2967
  862MOL0     C13705   3.100   1.905   6.180  0.4963  0.3420  0.0531
  862MOL0     C13706   3.428   1.574   6.101 -0.0807 -0.0003  0.5391
  862MOL0     C13707   3.526   1.675   6.146 -0.1688  0.1003  1.1344
  862MOL0     C13708   3.656   1.629   6.194  1.0575 -0.5310  1.3689
  862MOL0     C13709   3.689   1.495   6.187  0.0822  0.1113 -0.1933
  862MOL0     O13710   3.819   1.466   6.215 -0.1008 -0.5184 -0.3564
  862MOL0     C13711   3.872   1.332   6.244  0.1692 -0.1684 -0.5065
  862MOL0     C13712   4.021   1.344   6.287  1.0322 -0.1037 -0.3952
  862MOL0     C13713   4.029   1.421   6.420 -0.0403  0.4719 -0.7702
  862MOL0     C13714   4.152   1.392   6.499 -0.7355 -0.4066  0.6001
  862MOL0     C13715   4.138   1.467   6.621 -0.0563 -0.1682  0.3657
  862MOL0     C13716   4.142   1.518   6.725 -0.2824  0.9098 -0.4411
  862MOL0     C13717   3.595   1.395   6.147  0.3614  0.4160  0.3424
  862MOL0     C13718   3.467   1.439   6.104 -0.4899  0.6408 -0.1391
  862MOL0     H13719   3.034   1.582   6.189  0.6064 -0.1443 -3.1161
  862MOL0     H13720   2.803   1.665   6.228  1.7851 -1.1827  0.1477
  862MOL0     H13721   2.746   1.908   6.474 -1.1507  0.1377 -0.0999
  862MOL0     H13722   2.653   1.797   6.365 -2.0364  1.0100 -1.5265
  862MOL0     H13723   2.509   1.956   6.497  0.6698 -2.1644 -0.6444
  862MOL0     H13724   2.508   1.992   6.321 -2.6891 -1.0845  1.3076
  862MOL0     H13725   2.689   2.167   6.374 -1.5981 -0.4634 -0.4744
  862MOL0     H13726   2.654   2.120   6.550 -2.6801 -1.4235  0.9213
  862MOL0     H13727   2.558   2.334   6.455  2.8645 -1.4245 -0.9362
  862MOL0     H13728   2.449   2.240   6.354 -1.8125 -1.3608  0.8361
  862MOL0     H13729   2.441   2.216   6.655 -1.3487 -1.2018  1.4332
  862MOL0     H13730   2.343   2.128   6.540 -0.2946 -0.1437  2.9339
  862MOL0     H13731   2.203   2.313   6.597 -0.4061 -1.4789  0.7865
  862MOL0     H13732   2.272   2.373   6.449 -0.4836  1.7310  1.3617
  862MOL0     H13733   2.416   2.425   6.712  2.7797  0.6395 -1.0414
  862MOL0     H13734   2.429   2.509   6.562 -0.6636  2.4176  0.6274
  862MOL0     H13735   2.275   2.616   6.758  1.9853 -1.2928 -0.0739
  862MOL0     H13736   2.146   2.522   6.673 -1.2059  4.2368 -1.9442
  862MOL0     H13737   2.253   2.831   6.664 -2.0263  1.2979 -0.0158
  862MOL0     H13738   2.166   2.984   6.307  2.0808 -0.4442 -0.8659
  862MOL0     H13739   2.229   3.030   6.473  0.7773 -1.9847  1.7591
  862MOL0     H13740   2.030   3.035   6.586  0.2153  2.6395 -1.1133
  862MOL0     H13741   1.945   2.937   6.459  0.7092 -0.2982 -0.1470
  862MOL0     H13742   2.059   3.214   6.415  0.2486  0.2610  2.3024
  862MOL0     H13743   1.957   3.115   6.310  0.4144  0.6174  0.6922
  862MOL0     H13744   1.773   3.122   6.488  2.2763 -2.3237  1.7388
  862MOL0     H13745   1.802   3.275   6.406 -0.7894 -0.7034  0.1070
  862MOL0     H13746   1.917   3.460   6.755  0.5192 -4.0772 -0.8599
  862MOL0     H13747   1.763   3.621   6.830  2.1629 -1.8343  1.4038
  862MOL0     H13748   1.335   3.755   6.993  2.8682  0.3360 -2.2110
  862MOL0     H13749   1.136   3.900   7.042 -1.3338  0.2588 -0.2564
  862MOL0     H13750   0.782   3.903   6.746 -1.0117 -0.1462  0.2552
  862MOL0     H13751   0.913   4.027   6.751 -1.3027 -0.2632 -1.6494
  862MOL0     H13752   0.651   4.007   6.890  0.5906  0.2733  0.0875
  862MOL0     H13753   0.704   4.115   6.761  2.1933 -2.1968 -1.8229
  862MOL0     H13754   0.808   4.270   6.911 -2.8325 -0.0211 -0.3355
  862MOL0     H13755   0.883   4.131   7.001  1.1237 -0.7683 -3.1290
  862MOL0     H13756   0.605   4.234   7.014  0.0913  1.9217 -0.6084
  862MOL0     H13757   0.665   4.100   7.121  1.5322 -1.4630  0.2883
  862MOL0     H13758   0.751   4.381   7.128  2.2948 -1.5858 -0.6109
  862MOL0     H13759   0.815   4.243   7.221  0.5011 -1.1723 -1.3676
  862MOL0     H13760   0.663   4.374   7.364  0.5089  2.1976 -1.2116
  862MOL0     H13761   0.577   4.216   7.305 -1.5536 -0.3554 -3.4370
  862MOL0     H13762   0.542   4.500   7.209 -0.9562  0.1282 -1.5672
  862MOL0     H13763   0.446   4.382   7.147 -1.1025  1.8089  1.0015
  862MOL0     H13764   0.447   4.470   7.435 -0.2794 -1.5850  0.1641
  862MOL0     H13765   0.382   4.318   7.381  0.7817 -0.2296 -1.1346
  862MOL0     H13766   0.918   3.742   6.712 -1.4104  0.7487  1.7828
  862MOL0     H13767   1.130   3.621   6.633  1.0784 -0.2128  0.1384
  862MOL0     H13768   1.443   3.417   6.626 -0.5725 -1.5989  0.5620
  862MOL0     H13769   1.615   3.268   6.522 -0.5195  1.0084 -0.3213
  862MOL0     H13770   2.954   2.058   6.224  1.9555 -0.4752 -0.5163
  862MOL0     H13771   3.188   1.968   6.179 -1.3611  3.1469 -1.0741
  862MOL0     H13772   3.498   1.779   6.156 -1.6369 -0.0428 -0.8147
  862MOL0     H13773   3.730   1.707   6.206 -0.2002  1.1503 -0.8841
  862MOL0     H13774   3.861   1.278   6.150 -0.4737  1.5021 -1.4390
  862MOL0     H13775   3.814   1.276   6.317  1.0290  1.0553  1.1904
  862MOL0     H13776   4.056   1.242   6.303  0.1393 -1.1846 -4.2551
  862MOL0     H13777   4.071   1.405   6.211  1.2757 -0.2356 -0.3423
  862MOL0     H13778   3.942   1.399   6.483 -2.9708  2.7351 -3.6976
  862MOL0     H13779   4.024   1.529   6.405 -1.7453  0.4661 -0.4088
  862MOL0     H13780   4.162   1.285   6.520 -0.4758 -0.7561 -1.1700
  862MOL0     H13781   4.237   1.431   6.442 -1.4059  3.9293  2.2288
  862MOL0     H13782   4.142   1.574   6.817 -2.0291  1.9246 -1.0174
  862MOL0     H13783   3.622   1.291   6.130  0.2448  0.5266 -0.5297
  862MOL0     H13784   3.400   1.365   6.063  1.5536 -1.4319  0.0611
  863MOL0     O13785   8.467   2.052  10.638  0.4415 -0.6450 -0.5829
  863MOL0     C13786   8.478   1.939  10.683 -0.2488  0.0484 -0.2153
  863MOL0     O13787   8.373   1.847  10.694 -0.2054 -0.3289  0.3124
  863MOL0     C13788   8.252   1.859  10.632  0.3961 -0.4673  0.2003
  863MOL0     C13789   8.213   1.934  10.522 -0.8212  0.0057 -0.2915
  863MOL0     C13790   8.080   1.925  10.467 -0.5871 -0.3990 -0.0500
  863MOL0     C13791   7.991   1.832  10.522 -0.0545 -0.2217 -1.3533
  863MOL0     O13792   7.862   1.807  10.475  0.3415 -0.4992  0.2340
  863MOL0     C13793   7.858   1.801  10.332 -0.5061  0.4495 -0.1416
  863MOL0     C13794   7.730   1.743  10.284  0.5341 -0.9949 -0.5334
  863MOL0     C13795   7.724   1.753  10.134  0.7800  1.0628 -0.2938
  863MOL0     C13796   7.595   1.673  10.101 -0.0014  0.9451  1.1210
  863MOL0     C13797   7.559   1.641   9.949 -0.1001 -0.4424  0.0188
  863MOL0     C13798   7.420   1.589   9.934  0.6291 -0.1302 -0.6651
  863MOL0     C13799   7.396   1.566   9.781 -0.1445 -0.1390  0.3635
  863MOL0     C13800   7.247   1.575   9.745  0.5991 -0.3397 -0.0684
  863MOL0     N13801   7.212   1.489   9.627 -0.0808  0.6405 -0.9837
  863MOL0     C13802   7.159   1.544   9.507 -0.3000 -0.6115  0.3543
  863MOL0     C13803   7.153   1.440   9.422  0.8251  0.3409  0.2789
  863MOL0     C13804   7.117   1.438   9.279  0.5432  0.4167 -0.6149
  863MOL0     C13805   7.006   1.537   9.244  0.3656 -0.2423  0.6066
  863MOL0     C13806   6.953   1.509   9.105  0.5429 -0.4112  0.5802
  863MOL0     C13807   6.839   1.399   9.114 -0.0430  0.4279  0.1261
  863MOL0     O13808   6.810   1.379   8.979  0.2173  0.7388 -0.1725
  863MOL0     C13809   6.683   1.392   8.939 -0.0181  0.0046  0.1246
  863MOL0     C13810   6.663   1.494   8.844 -0.4803  0.2998 -0.0013
  863MOL0     C13811   6.536   1.519   8.804 -0.8028  0.0029 -0.2890
  863MOL0     C13812   6.422   1.429   8.838 -0.6666 -0.4927 -0.0020
  863MOL0     C13813   6.287   1.442   8.787 -0.4114  0.0560 -1.2870
  863MOL0     O13814   6.192   1.363   8.841 -0.7352  0.0385 -0.1046
  863MOL0     C13815   6.065   1.401   8.826 -0.9273  0.0755  0.5828
  863MOL0     C13816   6.028   1.518   8.885  0.7725 -0.4483  0.4602
  863MOL0     C13817   5.894   1.545   8.880  0.6712 -0.3352 -0.5409
  863MOL0     C13818   5.798   1.468   8.804  0.6624 -0.7154 -0.0857
  863MOL0     O13819   5.660   1.488   8.803  0.6140  0.3514  0.6239
  863MOL0     C13820   5.592   1.595   8.870 -0.5559 -0.3579 -1.2982
  863MOL0     C13821   5.441   1.589   8.883  0.8235 -0.2492 -0.0938
  863MOL0     C13822   5.405   1.461   8.963 -0.8421  0.0102 -0.1405
  863MOL0     C13823   5.251   1.438   8.993 -0.7749  0.1247 -0.1262
  863MOL0     C13824   5.174   1.390   8.867  0.1350 -0.3448  0.1152
  863MOL0     C13825   5.025   1.421   8.873  0.2971 -0.7342  0.9617
  863MOL0     C13826   4.954   1.390   8.735 -0.4951 -0.0304 -0.5309
  863MOL0     C13827   4.816   1.443   8.723 -0.2918 -0.4209  0.4623
  863MOL0    Cl13828   4.732   1.388   8.586 -0.3457 -0.2832 -0.5570
  863MOL0     C13829   5.843   1.350   8.747 -0.9609  0.2018  0.9783
  863MOL0     C13830   5.972   1.313   8.767 -0.5353  0.5116 -1.2097
  863MOL0     O13831   6.276   1.522   8.697 -0.5329  0.3496 -0.5935
  863MOL0     C13832   6.450   1.325   8.924 -0.1861  0.7162  0.2252
  863MOL0     C13833   6.579   1.313   8.980  0.0591  0.6275 -0.3523
  863MOL0     N13834   7.181   1.320   9.495  1.0141  0.3405 -0.4063
  863MOL0     N13835   7.201   1.352   9.622 -0.2408 -0.1163 -0.0540
  863MOL0     C13836   8.028   1.751  10.631 -0.5301 -0.7302  0.0868
  863MOL0     C13837   8.161   1.766  10.682  0.6933 -0.0995  0.1067
  863MOL0     C13838   8.615   1.904  10.738 -0.7944 -0.4417  0.0217
  863MOL0     C13839   8.632   1.797  10.823 -0.6581  0.5750  0.7185
  863MOL0     C13840   8.755   1.771  10.886  0.1003  1.0204 -0.0132
  863MOL0     C13841   8.865   1.843  10.851 -0.5402  0.9778  0.3016
  863MOL0     O13842   8.995   1.825  10.904  1.0763  0.2067 -0.7760
  863MOL0     C13843   9.007   1.761  11.030  0.3702 -0.7916 -0.5255
  863MOL0     C13844   9.055   1.621  10.998 -0.3830 -0.1930 -0.1767
  863MOL0     C13845   9.103   1.546  11.116  0.0490 -0.1290  0.5636
  863MOL0     C13846   9.171   1.418  11.067 -0.3652 -0.1869 -0.2011
  863MOL0     C13847   9.201   1.330  11.174 -0.2294  0.2996 -0.0378
  863MOL0     C13848   9.229   1.241  11.253 -0.7194 -0.4004 -0.2168
  863MOL0     C13849   8.851   1.949  10.759  0.2953 -0.1265 -0.0955
  863MOL0     C13850   8.730   1.982  10.703 -0.8870  1.0128  0.8190
  863MOL0     H13851   8.286   2.003  10.481 -0.9838 -1.3298 -3.0467
  863MOL0     H13852   8.071   1.983  10.376  2.3839 -1.1728 -0.9330
  863MOL0     H13853   7.934   1.731  10.295  0.2312 -0.2862  2.5262
  863MOL0     H13854   7.884   1.897  10.287  1.3677 -0.1733 -0.4709
  863MOL0     H13855   7.645   1.798  10.325  0.2116 -0.6882 -1.5620
  863MOL0     H13856   7.729   1.636  10.305 -0.4050 -1.1529 -1.2819
  863MOL0     H13857   7.810   1.705  10.087  0.6362  0.2554  0.2399
  863MOL0     H13858   7.732   1.856  10.098 -0.9680  0.1663 -3.6510
  863MOL0     H13859   7.604   1.573  10.147  3.8445 -1.2321 -3.5052
  863MOL0     H13860   7.508   1.716  10.152 -0.4896 -0.0475  1.1666
  863MOL0     H13861   7.637   1.579   9.903 -1.0909 -1.6919 -0.0456
  863MOL0     H13862   7.567   1.735   9.894  1.5753  0.5899  1.8700
  863MOL0     H13863   7.348   1.666   9.966  0.6374 -0.2513 -0.3547
  863MOL0     H13864   7.404   1.493   9.984 -1.5827 -2.4509 -5.1641
  863MOL0     H13865   7.439   1.635   9.708  0.0485  0.0205  0.6277
  863MOL0     H13866   7.446   1.471   9.759  2.0462  0.9558  0.4214
  863MOL0     H13867   7.199   1.673   9.736 -0.8096 -0.9344  0.6404
  863MOL0     H13868   7.204   1.532   9.837  1.6140 -0.0821  0.5408
  863MOL0     H13869   7.146   1.648   9.478 -2.1622 -0.5080  1.3603
  863MOL0     H13870   7.078   1.339   9.253  2.2723 -0.9015  1.4629
  863MOL0     H13871   7.206   1.458   9.219 -0.1797  1.2825 -1.4454
  863MOL0     H13872   7.053   1.635   9.246  0.3520 -0.2363  2.2754
  863MOL0     H13873   6.926   1.537   9.319 -0.7333 -1.4366 -0.5071
  863MOL0     H13874   6.912   1.603   9.069  0.6863 -0.5072  0.1694
  863MOL0     H13875   7.031   1.473   9.038  0.8837  0.1237  0.6835
  863MOL0     H13876   6.756   1.437   9.175  0.8171 -0.5089  1.9596
  863MOL0     H13877   6.877   1.306   9.158  0.6796  0.4588 -0.4145
  863MOL0     H13878   6.757   1.536   8.811  0.3209 -0.1633  1.5616
  863MOL0     H13879   6.527   1.590   8.722  1.6528 -0.8679 -1.3894
  863MOL0     H13880   6.090   1.586   8.943  4.4980 -2.9369 -0.2270
  863MOL0     H13881   5.855   1.635   8.927  0.7050 -1.3387  1.5485
  863MOL0     H13882   5.607   1.693   8.822  0.1377 -0.7640 -1.9258
  863MOL0     H13883   5.629   1.595   8.973 -3.5094 -0.4319 -0.1298
  863MOL0     H13884   5.403   1.578   8.781  2.5094  2.2918 -1.0809
  863MOL0     H13885   5.396   1.683   8.917  2.4757  0.3493  0.5214
  863MOL0     H13886   5.449   1.479   9.061  1.6965 -1.9945 -0.7991
  863MOL0     H13887   5.443   1.369   8.919 -4.7675 -3.8213  3.5498
  863MOL0     H13888   5.244   1.372   9.080  1.1779  1.0636  0.7984
  863MOL0     H13889   5.214   1.536   9.025 -3.1398 -1.2308  1.5373
  863MOL0     H13890   5.189   1.282   8.861  1.5652 -0.3097  2.0410
  863MOL0     H13891   5.215   1.434   8.775 -0.4908 -0.5166 -0.2515
  863MOL0     H13892   5.005   1.528   8.883 -2.9646 -0.7474 -2.9123
  863MOL0     H13893   4.982   1.369   8.959 -0.3468 -0.6661  0.6866
  863MOL0     H13894   5.014   1.421   8.648 -1.5595 -1.4102 -1.8299
  863MOL0     H13895   4.950   1.280   8.734  3.0886 -0.2793 -0.3364
  863MOL0     H13896   4.824   1.552   8.718  0.5677 -0.4789  0.3737
  863MOL0     H13897   4.757   1.413   8.810 -1.7787  0.8041 -0.0737
  863MOL0     H13898   5.777   1.279   8.698  1.1647 -2.2878  1.5200
  863MOL0     H13899   6.009   1.212   8.757  1.5483  0.7559  2.2877
  863MOL0     H13900   6.378   1.252   8.959  2.0201 -0.3671  2.9311
  863MOL0     H13901   6.608   1.239   9.054  0.9455  2.3062  1.0502
  863MOL0     H13902   7.950   1.683  10.665  1.1086 -3.9700 -2.0499
  863MOL0     H13903   8.187   1.704  10.767 -3.4540  0.6651  2.2088
  863MOL0     H13904   8.545   1.735  10.840 -1.1334  0.5986 -1.3866
  863MOL0     H13905   8.763   1.688  10.956  1.3896  0.2764 -0.9894
  863MOL0     H13906   8.912   1.770  11.084  0.1946  0.5962 -1.0251
  863MOL0     H13907   9.071   1.828  11.088  2.2269 -1.9635 -1.1259
  863MOL0     H13908   8.975   1.565  10.951  1.1816 -2.2632 -0.5071
  863MOL0     H13909   9.129   1.637  10.919 -0.2834  2.0222  0.2921
  863MOL0     H13910   9.012   1.540  11.178  0.3595 -0.5523  0.9871
  863MOL0     H13911   9.173   1.617  11.159  0.7286  0.6513 -1.7303
  863MOL0     H13912   9.091   1.378  11.004 -1.2516  3.6353 -1.7820
  863MOL0     H13913   9.261   1.434  11.006  0.6365 -1.8925  0.7336
  863MOL0     H13914   9.260   1.167  11.324 -0.4431 -0.9496 -0.8973
  863MOL0     H13915   8.939   2.008  10.735  1.4647 -2.2118 -1.1235
  863MOL0     H13916   8.725   2.067  10.637  1.7846  1.7844  1.4821
  864MOL0     O13917   9.210   5.878   9.763 -0.6725 -0.0683  0.8983
  864MOL0     C13918   9.260   5.988   9.745 -0.8959 -0.3227  0.8529
  864MOL0     O13919   9.198   6.109   9.758 -0.5323 -0.2741  0.5275
  864MOL0     C13920   9.066   6.121   9.792  0.3011  0.0280  0.8448
  864MOL0     C13921   9.000   6.238   9.749 -0.0220  0.0304  0.2396
  864MOL0     C13922   8.864   6.269   9.787 -0.9655  0.7586 -0.4169
  864MOL0     C13923   8.793   6.177   9.866  0.6591 -0.8857  0.9928
  864MOL0     O13924   8.657   6.202   9.885 -0.2919  0.5126 -0.6047
  864MOL0     C13925   8.564   6.094   9.895 -0.0330  0.0331 -0.2348
  864MOL0     C13926   8.421   6.145   9.925 -0.2574 -0.2804 -0.5123
  864MOL0     C13927   8.312   6.050   9.882  0.1995 -0.4489 -0.4288
  864MOL0     C13928   8.181   6.136   9.888 -0.0664  0.6760  0.0753
  864MOL0     C13929   8.063   6.071   9.815 -0.6031  0.0911  0.3011
  864MOL0     C13930   7.941   6.155   9.851  0.1268 -0.4749  0.3530
  864MOL0     C13931   7.814   6.120   9.772  0.7787 -0.4956  0.4484
  864MOL0     C13932   7.690   6.196   9.838  0.6403 -0.2580  0.9365
  864MOL0     N13933   7.622   6.126   9.953  0.6153  0.6173  0.1540
  864MOL0     C13934   7.511   6.042   9.948  0.8972  0.5326 -0.5485
  864MOL0     C13935   7.499   5.989  10.069 -0.0266 -0.5484  0.4096
  864MOL0     C13936   7.385   5.899  10.115  0.5473  0.0213 -0.2080
  864MOL0     C13937   7.254   5.967  10.145 -0.5544  0.1048  0.2574
  864MOL0     C13938   7.170   5.968  10.013  0.1227 -0.5272  0.4359
  864MOL0     C13939   7.035   6.029  10.038 -0.4266 -0.5310  0.8336
  864MOL0     O13940   6.949   5.924  10.090  0.6188 -0.5328 -0.1001
  864MOL0     C13941   6.818   5.959  10.099 -0.1998  0.2215 -0.9786
  864MOL0     C13942   6.765   6.096  10.111 -0.0693 -0.6075 -0.7015
  864MOL0     C13943   6.634   6.123  10.128  0.2405  0.0308  0.7662
  864MOL0     C13944   6.536   6.025  10.127 -1.9511  0.8253  0.3493
  864MOL0     C13945   6.383   6.056  10.134  0.6837  0.0871 -0.4314
  864MOL0     O13946   6.290   5.946  10.110  0.0723  0.1092  0.4140
  864MOL0     C13947   6.159   5.942  10.155  1.1399 -0.2001 -0.5679
  864MOL0     C13948   6.105   6.015  10.264  0.0221  0.0795  0.9799
  864MOL0     C13949   5.969   6.010  10.302  0.8928 -0.1144 -0.1479
  864MOL0     C13950   5.880   5.931  10.232  0.3096 -0.3067  0.0777
  864MOL0     O13951   5.751   5.941  10.265  0.5512 -0.0943  1.0118
  864MOL0     C13952   5.661   5.877  10.173 -0.3784  0.5960 -0.1781
  864MOL0     C13953   5.524   5.919  10.225 -0.1180 -0.3778 -0.7771
  864MOL0     C13954   5.416   5.864  10.141 -0.5208  0.0645 -0.5797
  864MOL0     C13955   5.279   5.870  10.210  0.2020  0.3603  0.4487
  864MOL0     C13956   5.158   5.820  10.128  0.4890  0.5553 -0.3742
  864MOL0     C13957   5.039   5.868  10.200 -0.1157  0.8380 -0.3096
  864MOL0     C13958   4.916   5.881  10.112  0.0053 -0.1384  0.1683
  864MOL0     C13959   4.863   5.752  10.042 -0.7163 -0.5341 -0.1473
  864MOL0    Cl13960   4.803   5.805   9.887 -0.2793 -0.6005 -0.5222
  864MOL0     C13961   5.925   5.873  10.111 -0.6031  0.4941 -0.6166
  864MOL0     C13962   6.065   5.864  10.086  0.2074 -0.6877  0.2178
  864MOL0     O13963   6.348   6.160  10.185 -0.6489 -0.8206  0.3883
  864MOL0     C13964   6.587   5.891  10.109 -0.6067 -0.3317  0.0514
  864MOL0     C13965   6.728   5.856  10.102  0.5673  0.3388 -0.2003
  864MOL0     N13966   7.607   6.029  10.150 -0.2483  0.2333 -0.7365
  864MOL0     N13967   7.675   6.111  10.078 -0.3619 -0.1248 -0.0783
  864MOL0     C13968   8.859   6.060   9.911 -0.9417 -0.0557  0.7104
  864MOL0     C13969   8.989   6.036   9.873 -0.2485 -0.4766 -0.4770
  864MOL0     C13970   9.398   5.979   9.707 -0.1357 -0.4689 -0.5673
  864MOL0     C13971   9.475   5.857   9.730  0.1511  0.4594  1.5438
  864MOL0     C13972   9.602   5.849   9.677 -0.1696 -0.3939  0.1508
  864MOL0     C13973   9.671   5.957   9.614 -0.2710  0.5616  0.2212
  864MOL0     O13974   9.791   5.921   9.559  0.6113  0.0034  0.0603
  864MOL0     C13975   9.853   6.016   9.471  1.3964 -0.9240 -0.1816
  864MOL0     C13976   9.942   5.947   9.361 -0.0843  0.5418 -1.1516
  864MOL0     C13977  10.003   6.050   9.266 -0.5254 -0.6233  0.3871
  864MOL0     C13978  10.060   5.989   9.134  0.9044 -0.0554 -0.0997
  864MOL0     C13979  10.133   6.074   9.036  0.1358 -0.0718  0.1774
  864MOL0     C13980  10.169   6.157   8.960 -0.1294 -0.0717  0.6222
  864MOL0     C13981   9.589   6.071   9.600 -0.9873 -0.5166 -0.4065
  864MOL0     C13982   9.461   6.084   9.649 -0.5134 -0.7670  1.4296
  864MOL0     H13983   9.067   6.298   9.688 -2.1034  2.7789  0.4757
  864MOL0     H13984   8.817   6.357   9.744 -0.0747  0.3955 -2.2053
  864MOL0     H13985   8.588   6.028   9.980  1.1778  1.2130  0.3644
  864MOL0     H13986   8.571   6.039   9.801 -0.6059  0.3671 -0.4763
  864MOL0     H13987   8.410   6.249   9.892  0.8896  0.2417  0.6437
  864MOL0     H13988   8.430   6.154  10.034  0.5643 -0.4863 -0.5595
  864MOL0     H13989   8.315   5.961   9.945 -0.1184 -0.6693 -0.7214
  864MOL0     H13990   8.310   6.017   9.778 -0.3282 -2.5575  0.2031
  864MOL0     H13991   8.149   6.140   9.993 -0.5047 -1.3795  0.0647
  864MOL0     H13992   8.194   6.238   9.850  0.5864  0.4060 -0.4436
  864MOL0     H13993   8.070   5.966   9.844  1.3738 -0.8246 -2.8727
  864MOL0     H13994   8.091   6.083   9.709  2.7186 -0.7000  0.9700
  864MOL0     H13995   7.963   6.262   9.841  1.4280 -0.6140  1.4616
  864MOL0     H13996   7.921   6.150   9.958  2.8448 -0.0412  0.9456
  864MOL0     H13997   7.820   6.157   9.669  0.7118  0.4942  0.7938
  864MOL0     H13998   7.797   6.012   9.776  0.4282 -0.6184 -2.1915
  864MOL0     H13999   7.617   6.203   9.756 -1.2824 -1.3739  2.4688
  864MOL0     H14000   7.725   6.294   9.871 -3.2511  1.1081  1.4568
  864MOL0     H14001   7.458   6.019   9.856 -1.6770 -2.5383  1.4739
  864MOL0     H14002   7.423   5.855  10.208  1.6692  0.7847 -0.2871
  864MOL0     H14003   7.362   5.811  10.054  0.3850 -2.5101  3.1811
  864MOL0     H14004   7.274   6.064  10.191  2.7160 -1.4861  2.5330
  864MOL0     H14005   7.199   5.910  10.221 -0.5516  1.5034  1.3445
  864MOL0     H14006   7.222   6.023   9.933 -1.7381 -1.0759 -1.2191
  864MOL0     H14007   7.148   5.866   9.982  0.8389 -1.3549  2.4919
  864MOL0     H14008   6.999   6.066   9.942  0.7163  1.3546  1.0949
  864MOL0     H14009   7.044   6.114  10.106 -0.9691 -0.2005  0.4978
  864MOL0     H14010   6.827   6.185  10.114 -0.2184 -0.4109 -2.5987
  864MOL0     H14011   6.610   6.228  10.146 -3.6803 -0.5088 -0.5057
  864MOL0     H14012   6.173   6.085  10.312  0.3920 -0.3395  1.0657
  864MOL0     H14013   5.944   6.059  10.395  3.3061  0.7268  0.1279
  864MOL0     H14014   5.666   5.768  10.184 -3.6264  0.3327 -0.2325
  864MOL0     H14015   5.678   5.906  10.069  1.5115 -2.8954 -0.9997
  864MOL0     H14016   5.510   6.026  10.209 -0.4590 -0.5202 -1.4331
  864MOL0     H14017   5.509   5.891  10.330  0.0128 -0.2869 -0.7330
  864MOL0     H14018   5.432   5.757  10.128 -0.9668 -0.5680  2.9369
  864MOL0     H14019   5.416   5.911  10.042 -1.8877 -2.5761 -1.9428
  864MOL0     H14020   5.283   5.819  10.307  1.0237  2.6727  1.6961
  864MOL0     H14021   5.271   5.976  10.233  0.9140  0.8694 -1.5164
  864MOL0     H14022   5.154   5.711  10.136  0.1530  0.4572 -1.6127
  864MOL0     H14023   5.163   5.856  10.025  1.6745  2.4002  0.2787
  864MOL0     H14024   5.067   5.970  10.230 -0.1451  1.3377 -1.8925
  864MOL0     H14025   5.016   5.816  10.293  1.3541  1.7836  0.6346
  864MOL0     H14026   4.839   5.929  10.174  0.2985  0.5315  0.0247
  864MOL0     H14027   4.933   5.959  10.037  1.1259  1.7201  2.2254
  864MOL0     H14028   4.787   5.707  10.107  2.3461 -2.8049  2.2018
  864MOL0     H14029   4.946   5.683  10.022  0.0117  0.3049 -0.0657
  864MOL0     H14030   5.858   5.834  10.035 -1.7549  0.1387  0.5466
  864MOL0     H14031   6.097   5.807  10.000  0.0374 -0.3013 -0.1042
  864MOL0     H14032   6.522   5.810  10.077  1.4665 -1.0269 -2.8616
  864MOL0     H14033   6.765   5.755  10.087 -1.8441 -0.8310  1.1087
  864MOL0     H14034   8.799   5.986   9.963 -0.8537 -0.4388  0.2641
  864MOL0     H14035   9.032   5.938   9.897 -1.1694 -1.0895 -1.2813
  864MOL0     H14036   9.444   5.768   9.783  1.3224 -1.5554 -0.9334
  864MOL0     H14037   9.644   5.751   9.697 -2.3300 -1.5048 -0.4452
  864MOL0     H14038   9.912   6.089   9.527 -3.8277  1.8722  2.4025
  864MOL0     H14039   9.776   6.075   9.420 -0.5975 -1.0416  2.4545
  864MOL0     H14040  10.027   5.892   9.402  1.3737  1.9428 -2.1615
  864MOL0     H14041   9.890   5.870   9.302  1.2817 -1.6164  0.3316
  864MOL0     H14042  10.082   6.106   9.317 -0.9463  2.3243 -1.9082
  864MOL0     H14043   9.927   6.126   9.244 -0.6651 -1.4627 -2.4875
  864MOL0     H14044  10.124   5.908   9.172  0.0722 -0.5738  0.2256
  864MOL0     H14045   9.983   5.939   9.074  2.6656  0.0606 -2.6073
  864MOL0     H14046  10.205   6.243   8.907 -4.1487  1.5144  0.0596
  864MOL0     H14047   9.633   6.154   9.547  3.0647 -0.3460  2.7197
  864MOL0     H14048   9.427   6.187   9.649 -3.4050 -1.6164  2.3482
  865MOL0     O14049   7.104  10.109   1.079  0.8747 -0.3717  0.3420
  865MOL0     C14050   7.175  10.179   1.008  0.2330 -0.5823  0.2257
  865MOL0     O14051   7.143  10.221   0.884  0.5554  0.0896  0.0175
  865MOL0     C14052   7.011  10.278   0.883 -0.2111  0.0397 -0.7794
  865MOL0     C14053   6.957  10.359   0.987  0.0271  0.0611 -0.0765
  865MOL0     C14054   6.837  10.427   0.964 -0.1209  0.7365  0.7448
  865MOL0     C14055   6.763  10.412   0.843  0.7198 -0.6133 -0.0066
  865MOL0     O14056   6.656  10.489   0.807 -0.8080 -0.5459  0.0113
  865MOL0     C14057   6.544  10.498   0.907 -0.8823  0.4519  0.5424
  865MOL0     C14058   6.412  10.495   0.832  1.0963 -0.2661 -0.5179
  865MOL0     C14059   6.293  10.466   0.926 -0.6642  0.4399 -1.3248
  865MOL0     C14060   6.163  10.537   0.873 -1.1321  0.4486 -0.2205
  865MOL0     C14061   6.041  10.508   0.945  0.2310  0.9587 -0.2185
  865MOL0     C14062   5.919  10.547   0.857  0.9062 -0.6932  0.0752
  865MOL0     C14063   5.801  10.531   0.943  0.0312  0.3557  1.3436
  865MOL0     C14064   5.666  10.567   0.883  0.9707  0.3149  0.2154
  865MOL0     N14065   5.562  10.567   0.985 -0.6035 -0.0559 -0.4643
  865MOL0     C14066   5.542  10.679   1.073 -0.3900  0.5812  0.0161
  865MOL0     C14067   5.472  10.614   1.171 -0.5833 -0.1149  0.1906
  865MOL0     C14068   5.440  10.678   1.301 -0.9227 -1.0530  0.7469
  865MOL0     C14069   5.293  10.732   1.298 -0.5070  0.7797  1.1775
  865MOL0     C14070   5.289  10.869   1.239 -0.3390  0.3740 -0.6929
  865MOL0     C14071   5.142  10.922   1.257 -0.2674 -0.3832  0.5306
  865MOL0     O14072   5.137  11.050   1.187 -0.5169  0.0828 -0.8694
  865MOL0     C14073   5.031  11.136   1.213  1.4212 -0.5545 -0.5333
  865MOL0     C14074   5.037  11.253   1.144  0.1516  0.7383  0.4634
  865MOL0     C14075   4.936  11.344   1.154  0.4994  0.2032 -0.8242
  865MOL0     C14076   4.818  11.321   1.237  0.1564 -0.4167  0.0950
  865MOL0     C14077   4.711  11.424   1.253 -0.3973 -0.5255 -0.0431
  865MOL0     O14078   4.728  11.552   1.195 -0.1691 -0.5995 -1.1129
  865MOL0     C14079   4.621  11.645   1.205  0.5936  1.1616  0.6708
  865MOL0     C14080   4.572  11.689   1.084 -0.3176 -0.3187 -0.2622
  865MOL0     C14081   4.479  11.790   1.071  0.4132  0.6784 -0.1294
  865MOL0     C14082   4.433  11.858   1.181 -0.2263 -0.4520 -0.0828
  865MOL0     O14083   4.371  11.987   1.170  0.7841  0.2177 -0.6948
  865MOL0     C14084   4.377  12.088   1.274 -0.1119  0.1201  0.1805
  865MOL0     C14085   4.241  12.105   1.343  0.3743 -0.6407  0.4150
  865MOL0     C14086   4.200  12.245   1.409  0.5624  0.1011 -0.2765
  865MOL0     C14087   4.217  12.364   1.317 -0.6499 -0.0296 -0.1986
  865MOL0     C14088   4.185  12.509   1.377  0.4629 -0.2488  0.7429
  865MOL0     C14089   4.041  12.530   1.426  0.7461 -0.2144 -0.4248
  865MOL0     C14090   4.009  12.673   1.464  0.1784 -0.1854 -0.2424
  865MOL0     C14091   4.023  12.773   1.353 -0.2205  0.4467  0.4365
  865MOL0    Cl14092   4.014  12.942   1.422 -0.0069  0.1812 -0.1032
  865MOL0     C14093   4.482  11.817   1.305 -0.9229 -0.6953 -0.4116
  865MOL0     C14094   4.576  11.712   1.321  1.1317 -0.0213 -0.8638
  865MOL0     O14095   4.611  11.390   1.310  0.6577 -0.4865 -0.3642
  865MOL0     C14096   4.809  11.200   1.309  0.5178  0.3163  0.8234
  865MOL0     C14097   4.913  11.104   1.284 -0.3572  0.4953  0.3428
  865MOL0     N14098   5.448  10.485   1.134  0.1510  0.5524 -0.6572
  865MOL0     N14099   5.495  10.460   1.029  0.4897  0.2051  0.0435
  865MOL0     C14100   6.815  10.320   0.744  0.6530 -0.0109 -0.1284
  865MOL0     C14101   6.934  10.258   0.764  0.5064  0.6834 -0.2259
  865MOL0     C14102   7.302  10.213   1.061  0.7355  0.3768  0.1645
  865MOL0     C14103   7.371  10.328   1.025 -0.2898  1.2432 -0.5750
  865MOL0     C14104   7.491  10.364   1.090 -0.2093  0.5886 -0.4559
  865MOL0     C14105   7.539  10.292   1.205 -0.0864  0.4849 -0.5977
  865MOL0     O14106   7.646  10.338   1.281  0.9689 -0.0582  0.2233
  865MOL0     C14107   7.734  10.432   1.223  0.7211 -0.1102 -0.2330
  865MOL0     C14108   7.852  10.449   1.323  0.3701  0.4631  0.3680
  865MOL0     C14109   7.937  10.323   1.338  0.3471 -0.3300 -1.0992
  865MOL0     C14110   8.071  10.337   1.407  0.7010 -0.5923 -0.8887
  865MOL0     C14111   8.171  10.235   1.357  0.0479 -0.3044  0.8410
  865MOL0     C14112   8.245  10.147   1.333 -0.2230  0.9729 -1.1718
  865MOL0     C14113   7.479  10.175   1.235 -0.6768 -0.6070 -0.3749
  865MOL0     C14114   7.359  10.143   1.166 -0.2103 -0.5863 -0.0400
  865MOL0     H14115   7.016  10.383   1.075 -0.5666 -1.6099  0.8108
  865MOL0     H14116   6.789  10.490   1.038 -2.1378 -1.0676  1.0941
  865MOL0     H14117   6.551  10.584   0.973 -2.5492 -2.4250  4.9457
  865MOL0     H14118   6.544  10.408   0.970  1.5301 -1.1919 -1.5330
  865MOL0     H14119   6.403  10.414   0.760  0.1439  0.0499 -0.7563
  865MOL0     H14120   6.393  10.585   0.774 -4.5930 -0.0106  1.2027
  865MOL0     H14121   6.308  10.502   1.028  0.3417  1.6803 -1.8791
  865MOL0     H14122   6.293  10.357   0.936  0.8893  0.1992 -3.2564
  865MOL0     H14123   6.185  10.644   0.863 -2.2318  0.8946  1.7087
  865MOL0     H14124   6.146  10.498   0.772 -0.2065 -0.0936 -0.1793
  865MOL0     H14125   6.043  10.567   1.037  0.3732 -1.8448  1.7004
  865MOL0     H14126   6.026  10.403   0.971 -2.9661  1.6686  1.3186
  865MOL0     H14127   5.903  10.492   0.765 -0.1907  0.4138 -0.4177
  865MOL0     H14128   5.934  10.652   0.831 -2.7446 -0.1279 -0.2652
  865MOL0     H14129   5.801  10.424   0.968 -0.1698  0.2014  0.7065
  865MOL0     H14130   5.820  10.593   1.031 -1.5463  3.6393 -0.4651
  865MOL0     H14131   5.640  10.514   0.791  2.2668  0.8313 -0.4782
  865MOL0     H14132   5.670  10.670   0.845  0.3278 -0.4679 -2.1666
  865MOL0     H14133   5.584  10.778   1.058  2.6814  0.4141  5.1665
  865MOL0     H14134   5.514  10.757   1.314 -0.0832 -1.7571  0.3248
  865MOL0     H14135   5.457  10.617   1.389  0.4330  0.5882  1.6695
  865MOL0     H14136   5.255  10.750   1.399 -1.5815 -0.9014  1.1018
  865MOL0     H14137   5.228  10.657   1.253  0.8612 -0.1718  0.7149
  865MOL0     H14138   5.361  10.930   1.295  1.2803 -1.5416 -0.5816
  865MOL0     H14139   5.335  10.869   1.140  4.6003  1.0854  1.2885
  865MOL0     H14140   5.130  10.939   1.364  0.0044 -0.2775  0.5451
  865MOL0     H14141   5.068  10.852   1.216 -2.0685  0.1771  2.6158
  865MOL0     H14142   5.117  11.286   1.078 -3.3890  3.9764 -2.7482
  865MOL0     H14143   4.946  11.447   1.121  1.8355  1.4301  2.9338
  865MOL0     H14144   4.619  11.639   1.001  1.9346  1.7695 -0.3915
  865MOL0     H14145   4.455  11.822   0.969  0.5129 -0.4187 -0.5055
  865MOL0     H14146   4.398  12.180   1.219  3.6558  0.9848  2.6576
  865MOL0     H14147   4.462  12.075   1.343  1.9483  0.6766 -2.1196
  865MOL0     H14148   4.214  12.020   1.407  0.8527 -1.2563 -0.1891
  865MOL0     H14149   4.180  12.112   1.253  2.7457  2.6752 -1.1832
  865MOL0     H14150   4.263  12.271   1.494 -2.2311  0.2686  1.9262
  865MOL0     H14151   4.091  12.239   1.419  0.1941  2.1395 -2.1848
  865MOL0     H14152   4.322  12.368   1.287  0.0034  1.4200  1.9928
  865MOL0     H14153   4.157  12.355   1.226 -1.7287  2.0582  0.2396
  865MOL0     H14154   4.215  12.588   1.307 -2.4948 -1.4532 -2.1742
  865MOL0     H14155   4.249  12.515   1.465  0.8129  0.5637  0.4451
  865MOL0     H14156   4.024  12.457   1.505  0.8439 -1.4966 -1.5361
  865MOL0     H14157   3.980  12.499   1.340  0.5368  0.3307 -0.4782
  865MOL0     H14158   3.905  12.669   1.499 -0.2031 -1.1770 -1.4003
  865MOL0     H14159   4.065  12.703   1.552  1.2140 -0.5707 -0.7576
  865MOL0     H14160   3.942  12.752   1.283  0.2852  0.4452 -0.1562
  865MOL0     H14161   4.120  12.771   1.303 -1.1207  3.8667 -1.7620
  865MOL0     H14162   4.455  11.863   1.399  0.3822 -0.0690 -0.3201
  865MOL0     H14163   4.608  11.688   1.422 -1.4971  0.3083  0.1083
  865MOL0     H14164   4.716  11.168   1.354  0.3769 -1.4952 -0.6237
  865MOL0     H14165   4.908  11.004   1.324  1.2684 -0.0128 -0.6365
  865MOL0     H14166   6.760  10.312   0.651 -0.1565  0.5429  0.2950
  865MOL0     H14167   6.973  10.190   0.689  1.2015 -1.3547  1.9005
  865MOL0     H14168   7.330  10.382   0.940  0.5959 -2.0970 -3.3235
  865MOL0     H14169   7.542  10.449   1.044  0.0315 -0.4673 -2.2597
  865MOL0     H14170   7.675  10.524   1.224  1.0824  0.1354 -0.8888
  865MOL0     H14171   7.777  10.403   1.127 -2.3957 -4.3739 -0.6310
  865MOL0     H14172   7.908  10.536   1.290 -1.4155  1.3290 -0.5427
  865MOL0     H14173   7.805  10.473   1.419 -2.0266 -3.3400  0.3680
  865MOL0     H14174   7.963  10.299   1.234  1.8507  0.1048 -0.8447
  865MOL0     H14175   7.888  10.243   1.395  0.7292 -1.6656 -2.5639
  865MOL0     H14176   8.105  10.436   1.375  0.1950 -0.0371  0.2461
  865MOL0     H14177   8.076  10.330   1.516 -3.2550  0.4661 -0.4700
  865MOL0     H14178   8.310  10.070   1.296  0.0995  1.4253 -1.5573
  865MOL0     H14179   7.509  10.119   1.323 -0.8120 -0.6678 -0.3664
  865MOL0     H14180   7.305  10.062   1.214  1.7589 -0.3774  2.7734
  866MOL0     O14181   5.640   3.923   1.459  0.3784  0.2232  0.2935
  866MOL0     C14182   5.533   3.871   1.480  0.3120  0.8709 -1.2321
  866MOL0     O14183   5.504   3.814   1.603  0.4384 -0.0757 -0.2465
  866MOL0     C14184   5.614   3.775   1.676  0.3071  0.8615 -0.4359
  866MOL0     C14185   5.671   3.865   1.761 -0.1730 -0.7154 -0.8389
  866MOL0     C14186   5.785   3.828   1.834 -0.1539 -0.5449 -0.3755
  866MOL0     C14187   5.837   3.702   1.829 -0.7647 -0.2883  0.3075
  866MOL0     O14188   5.952   3.661   1.895  0.3419  0.8011 -0.3264
  866MOL0     C14189   6.016   3.751   1.986  0.0855 -0.3989 -1.2242
  866MOL0     C14190   6.138   3.714   2.066 -1.7097 -0.7362 -0.1308
  866MOL0     C14191   6.269   3.710   1.969  0.1476 -0.1159  0.2149
  866MOL0     C14192   6.387   3.631   2.031 -0.1995  0.1481 -0.2511
  866MOL0     C14193   6.468   3.714   2.127  0.3767 -0.2235 -0.8424
  866MOL0     C14194   6.551   3.619   2.218  0.3411 -0.6140 -0.6451
  866MOL0     C14195   6.638   3.696   2.322 -0.7127  0.0531  1.2580
  866MOL0     C14196   6.714   3.628   2.429  0.3695 -0.6577 -0.0365
  866MOL0     N14197   6.816   3.532   2.369  0.5506  0.0863 -0.7965
  866MOL0     C14198   6.927   3.561   2.298 -0.1125  0.1040 -0.1386
  866MOL0     C14199   6.987   3.443   2.270 -0.0625 -0.3101 -0.0782
  866MOL0     C14200   7.105   3.427   2.183 -0.2093  0.4568  0.1205
  866MOL0     C14201   7.055   3.438   2.037 -0.1045 -0.8716 -1.1368
  866MOL0     C14202   7.075   3.582   1.983  0.5317  0.4487  1.1862
  866MOL0     C14203   7.217   3.605   1.935  0.3937  0.6447 -0.1897
  866MOL0     O14204   7.222   3.728   1.859  0.5866 -0.3606 -0.6825
  866MOL0     C14205   7.334   3.765   1.794 -0.4623 -0.8532  0.0132
  866MOL0     C14206   7.314   3.852   1.687 -1.0294 -0.4157 -1.0496
  866MOL0     C14207   7.419   3.886   1.606 -0.2591  0.5435 -0.0568
  866MOL0     C14208   7.549   3.857   1.644  0.6585  0.9201 -0.0745
  866MOL0     C14209   7.670   3.902   1.568 -0.6087 -0.0352  0.4907
  866MOL0     O14210   7.794   3.900   1.629 -0.5017 -0.0308  0.2261
  866MOL0     C14211   7.897   3.951   1.555  0.6386  0.1212 -0.1675
  866MOL0     C14212   7.947   4.076   1.584  0.6782 -0.4622  0.6232
  866MOL0     C14213   8.074   4.107   1.530  0.6169  0.1204 -0.1394
  866MOL0     C14214   8.138   4.017   1.448 -0.1391  0.9841 -0.8493
  866MOL0     O14215   8.253   4.043   1.377 -0.2435  0.5552  0.9193
  866MOL0     C14216   8.344   4.147   1.424 -0.3927 -0.3852  0.7402
  866MOL0     C14217   8.488   4.103   1.381  1.1270 -0.3379  0.5231
  866MOL0     C14218   8.585   4.225   1.357  0.0563 -0.0232 -0.0358
  866MOL0     C14219   8.733   4.182   1.352  0.3296  0.2673 -0.1177
  866MOL0     C14220   8.831   4.295   1.367 -0.1433 -0.9665  0.3459
  866MOL0     C14221   8.961   4.291   1.290  0.4182  0.1470  0.1212
  866MOL0     C14222   9.046   4.177   1.334  0.2720  0.5895 -0.0526
  866MOL0     C14223   9.099   4.198   1.477  1.0056 -0.0140 -0.4791
  866MOL0    Cl14224   9.201   4.346   1.474 -0.0804 -0.0933  0.1512
  866MOL0     C14225   8.089   3.888   1.426  0.5267 -0.9867 -0.7236
  866MOL0     C14226   7.964   3.858   1.481  0.5247  0.0496  0.5698
  866MOL0     O14227   7.650   3.931   1.450  0.1789 -0.3603  0.8988
  866MOL0     C14228   7.576   3.793   1.762 -1.1736  0.3149  0.6495
  866MOL0     C14229   7.465   3.736   1.833 -1.2586 -0.5639 -0.1897
  866MOL0     N14230   6.908   3.335   2.317  0.7741  0.7391 -0.0599
  866MOL0     N14231   6.808   3.392   2.378  0.2977 -0.1489  0.2663
  866MOL0     C14232   5.776   3.610   1.732 -1.0741  0.8402  0.4824
  866MOL0     C14233   5.665   3.645   1.657 -0.1259 -0.2560 -0.3216
  866MOL0     C14234   5.419   3.890   1.387 -0.9704 -0.7041  0.3507
  866MOL0     C14235   5.294   3.822   1.395  0.0065 -0.3936  0.5635
  866MOL0     C14236   5.194   3.855   1.305 -0.3109 -0.0156 -0.4202
  866MOL0     C14237   5.208   3.949   1.208  0.8388  0.3587  0.0033
  866MOL0     O14238   5.090   3.988   1.149  0.3814  0.2807  0.5148
  866MOL0     C14239   5.110   4.070   1.033  0.5394  0.7346 -0.1232
  866MOL0     C14240   4.975   4.102   0.968  0.0815  0.8467 -0.1238
  866MOL0     C14241   4.877   3.985   0.965 -0.6217  0.4813  0.0047
  866MOL0     C14242   4.758   3.990   0.870  0.2449  0.7373 -0.0959
  866MOL0     C14243   4.682   3.869   0.884 -0.4630  0.1630  0.0459
  866MOL0     C14244   4.602   3.780   0.867  0.2916 -0.6193 -0.2703
  866MOL0     C14245   5.337   4.003   1.182  0.4205 -0.5930  0.0868
  866MOL0     C14246   5.436   3.988   1.276 -0.2802  0.6504 -0.8194
  866MOL0     H14247   5.631   3.965   1.775  1.3269 -0.2569  0.4454
  866MOL0     H14248   5.832   3.904   1.896 -1.5605 -0.0432  0.1172
  866MOL0     H14249   5.955   3.767   2.075  0.0073  0.0595 -1.3562
  866MOL0     H14250   6.043   3.849   1.945 -0.1386 -0.1367 -0.7547
  866MOL0     H14251   6.118   3.620   2.118 -1.5532  0.4600  2.1930
  866MOL0     H14252   6.160   3.784   2.147 -1.2971  0.0992 -0.9423
  866MOL0     H14253   6.300   3.813   1.953 -2.9141  0.5900 -2.1272
  866MOL0     H14254   6.249   3.664   1.871  0.6155  3.6919 -1.8592
  866MOL0     H14255   6.344   3.539   2.073  0.0800 -0.3277 -0.9959
  866MOL0     H14256   6.455   3.604   1.950  1.1852  1.6199  0.3957
  866MOL0     H14257   6.404   3.765   2.199  1.5071 -1.7073  1.3457
  866MOL0     H14258   6.535   3.776   2.066 -2.4433  1.5689 -2.3095
  866MOL0     H14259   6.620   3.549   2.169  1.2543  0.2596 -0.6192
  866MOL0     H14260   6.480   3.551   2.267  1.6565 -1.6746 -0.1493
  866MOL0     H14261   6.720   3.743   2.268  0.4019 -0.8037  2.1597
  866MOL0     H14262   6.583   3.780   2.366 -0.4344  1.9366 -1.7338
  866MOL0     H14263   6.645   3.571   2.491 -1.4836  1.9170  0.4275
  866MOL0     H14264   6.756   3.705   2.495  0.1712 -0.7519  0.2011
  866MOL0     H14265   6.950   3.662   2.266  1.2771 -0.2484 -0.3222
  866MOL0     H14266   7.140   3.327   2.212  0.1884  0.4670 -0.3096
  866MOL0     H14267   7.185   3.498   2.200  0.4037 -0.0253 -0.6544
  866MOL0     H14268   6.946   3.428   2.038 -0.2838  0.3923  1.4373
  866MOL0     H14269   7.108   3.355   1.988 -0.2977 -0.2755 -2.3823
  866MOL0     H14270   7.012   3.596   1.895  0.1683  1.8317  1.6516
  866MOL0     H14271   7.046   3.661   2.053 -0.7985  1.2254 -0.1913
  866MOL0     H14272   7.231   3.527   1.859 -0.8068 -0.6477  0.8519
  866MOL0     H14273   7.294   3.587   2.010  0.5487 -1.2403 -0.7615
  866MOL0     H14274   7.209   3.868   1.667 -1.0558 -0.6241 -1.0767
  866MOL0     H14275   7.395   3.946   1.518 -3.0588 -0.7101 -0.2768
  866MOL0     H14276   7.880   4.142   1.639 -1.9749 -1.5661 -1.0768
  866MOL0     H14277   8.119   4.204   1.547  1.8841 -0.1530 -1.7930
  866MOL0     H14278   8.339   4.159   1.533 -2.9782 -4.0227  1.1830
  866MOL0     H14279   8.321   4.244   1.378  0.7994 -0.8834 -0.9947
  866MOL0     H14280   8.464   4.051   1.288 -0.4070  2.0915 -0.5385
  866MOL0     H14281   8.527   4.038   1.460  3.9025  1.5414  0.8305
  866MOL0     H14282   8.560   4.292   1.440 -1.7816  1.0797 -1.3766
  866MOL0     H14283   8.555   4.277   1.265 -0.6624 -0.5289 -0.0967
  866MOL0     H14284   8.756   4.109   1.430 -1.2051  1.0597  1.1586
  866MOL0     H14285   8.748   4.149   1.249 -0.0822 -0.7146  0.1243
  866MOL0     H14286   8.843   4.308   1.475 -4.7069  1.4849  0.7618
  866MOL0     H14287   8.794   4.394   1.339  0.7030 -0.1801  1.8289
  866MOL0     H14288   9.015   4.386   1.302  0.8817 -0.2973  1.8949
  866MOL0     H14289   8.927   4.283   1.187  0.8590  1.6103 -0.1648
  866MOL0     H14290   8.996   4.080   1.323  1.2047  0.2981 -2.0876
  866MOL0     H14291   9.131   4.161   1.268  1.1607 -0.2208  1.2277
  866MOL0     H14292   9.157   4.110   1.506  0.9795  0.7327  2.1168
  866MOL0     H14293   9.018   4.197   1.552  2.8151  1.0316  1.6021
  866MOL0     H14294   8.138   3.806   1.374  0.4501 -2.0381  0.7863
  866MOL0     H14295   7.917   3.761   1.468 -2.1078  1.1032  1.4306
  866MOL0     H14296   7.677   3.781   1.799 -0.5544  3.5322  0.3143
  866MOL0     H14297   7.485   3.670   1.916  0.4496  0.9666  0.7014
  866MOL0     H14298   5.807   3.509   1.708  0.1593  2.1953 -4.7269
  866MOL0     H14299   5.612   3.579   1.589  1.5505 -3.2685  1.1129
  866MOL0     H14300   5.269   3.751   1.473 -0.7962 -0.2662  0.4356
  866MOL0     H14301   5.097   3.807   1.316 -1.2633  1.5610 -1.5351
  866MOL0     H14302   5.168   4.007   0.965  1.3006 -0.5739  1.6614
  866MOL0     H14303   5.169   4.159   1.057  0.0033  0.1170  4.3771
  866MOL0     H14304   4.922   4.163   1.042  1.5138  1.0972  0.7328
  866MOL0     H14305   4.993   4.153   0.874 -0.3167 -0.7238 -1.0912
  866MOL0     H14306   4.834   3.970   1.065  1.0402  5.2393  1.7415
  866MOL0     H14307   4.934   3.895   0.942  2.8784  2.6512 -0.6399
  866MOL0     H14308   4.693   4.075   0.894 -0.0695 -0.0131  1.8786
  866MOL0     H14309   4.796   4.015   0.770  1.0275  2.5869  0.6081
  866MOL0     H14310   4.534   3.703   0.838 -2.4384  0.8676  1.7051
  866MOL0     H14311   5.352   4.069   1.098  1.3172 -1.5616 -0.5533
  866MOL0     H14312   5.528   4.046   1.271  0.6451 -0.6996 -0.0430
  867MOL0     O14313  10.845   8.189   5.371  0.2948 -0.2477 -0.6720
  867MOL0     C14314  10.852   8.155   5.256 -0.2606 -0.1945  0.6814
  867MOL0     O14315  10.840   8.235   5.149  0.2301 -0.2101 -0.4324
  867MOL0     C14316  10.797   8.367   5.173 -0.7629  0.3220  0.4091
  867MOL0     C14317  10.675   8.410   5.109 -0.8059 -0.5529 -0.7903
  867MOL0     C14318  10.623   8.534   5.135 -0.8113  1.1597  0.8653
  867MOL0     C14319  10.686   8.616   5.234 -0.7933  0.5275  0.0625
  867MOL0     O14320  10.617   8.733   5.254 -0.4961 -0.1028  0.6343
  867MOL0     C14321  10.702   8.850   5.264  0.1156 -0.0715 -0.2742
  867MOL0     C14322  10.626   8.981   5.284 -0.2586  0.3557  0.7815
  867MOL0     C14323  10.733   9.077   5.347 -0.0587  0.8459 -0.3393
  867MOL0     C14324  10.692   9.226   5.337 -0.3607  0.3729  0.4641
  867MOL0     C14325  10.789   9.313   5.257 -0.6554 -0.0589 -0.2383
  867MOL0     C14326  10.814   9.266   5.109  0.2208 -0.6281  0.7273
  867MOL0     C14327  10.694   9.293   5.011  0.2072 -0.6006 -0.1443
  867MOL0     C14328  10.668   9.445   4.996  0.1860 -0.5603 -0.4333
  867MOL0     N14329  10.546   9.472   4.910  0.4123  1.2594 -0.1859
  867MOL0     C14330  10.432   9.538   4.945 -0.3776 -0.5753 -0.3826
  867MOL0     C14331  10.346   9.522   4.838  0.4248 -0.4108 -0.0648
  867MOL0     C14332  10.211   9.590   4.824 -0.2425  0.6017 -0.1978
  867MOL0     C14333  10.199   9.686   4.698  1.2966 -0.7867  0.4458
  867MOL0     C14334  10.052   9.735   4.684  0.2681  0.4778  0.3117
  867MOL0     C14335   9.966   9.620   4.628  0.5311 -0.0992  0.8756
  867MOL0     O14336   9.852   9.694   4.580  0.2913 -0.0210 -0.0662
  867MOL0     C14337   9.730   9.637   4.613 -0.5054 -0.2088  1.4282
  867MOL0     C14338   9.655   9.576   4.514  0.0461 -0.2315  0.0762
  867MOL0     C14339   9.525   9.546   4.541  0.9619  0.2036  0.7531
  867MOL0     C14340   9.469   9.569   4.666  0.6574  0.3333 -0.0066
  867MOL0     C14341   9.340   9.508   4.697  0.3603 -1.1378 -0.6281
  867MOL0     O14342   9.288   9.527   4.825  0.3242 -0.1519 -0.2648
  867MOL0     C14343   9.161   9.489   4.837 -0.8238 -0.4038  1.1219
  867MOL0     C14344   9.048   9.547   4.768  0.1973 -0.1261 -0.0690
  867MOL0     C14345   8.911   9.520   4.813  0.0303 -0.0340  0.0252
  867MOL0     C14346   8.887   9.414   4.899 -0.6386  1.1827  0.5659
  867MOL0     O14347   8.753   9.376   4.915 -0.4556 -0.0875  0.3909
  867MOL0     C14348   8.737   9.259   4.996 -0.4341 -0.5121 -0.3882
  867MOL0     C14349   8.583   9.227   4.998  0.7666  0.8521 -0.1226
  867MOL0     C14350   8.575   9.076   5.046  0.9304  0.0213  0.2631
  867MOL0     C14351   8.428   9.036   5.039 -0.0938  0.9251 -0.4374
  867MOL0     C14352   8.345   9.050   5.164 -0.2360 -0.4652 -0.2036
  867MOL0     C14353   8.382   8.971   5.289 -0.1836 -0.1608 -0.5511
  867MOL0     C14354   8.345   8.825   5.269 -1.0015  0.4293  0.6450
  867MOL0     C14355   8.363   8.742   5.398  0.1215  0.0333 -0.2597
  867MOL0    Cl14356   8.316   8.563   5.400  0.0954  0.1084  0.2276
  867MOL0     C14357   8.998   9.359   4.963 -0.1145  0.1048  0.0283
  867MOL0     C14358   9.131   9.399   4.942  0.3320  0.1824 -0.3581
  867MOL0     O14359   9.283   9.441   4.610  0.0088  0.2660 -0.9689
  867MOL0     C14360   9.549   9.634   4.771  0.0196 -0.6835  0.2336
  867MOL0     C14361   9.681   9.667   4.737 -0.4145  0.5115  0.7020
  867MOL0     N14362  10.413   9.447   4.749  0.0669 -0.0442 -0.1425
  867MOL0     N14363  10.533   9.430   4.786 -0.8325  0.6811 -0.0126
  867MOL0     C14364  10.815   8.573   5.284 -0.5767 -0.1717  0.2333
  867MOL0     C14365  10.865   8.452   5.251 -0.5614  0.9667  0.5435
  867MOL0     C14366  10.881   8.015   5.232 -0.2704  0.8396  0.1117
  867MOL0     C14367  10.886   7.923   5.338 -0.6352 -0.6413 -0.1870
  867MOL0     C14368  10.942   7.798   5.318 -1.1594 -0.5923 -0.4428
  867MOL0     C14369  10.982   7.748   5.193  0.0316 -0.5730 -0.7731
  867MOL0     O14370  11.028   7.626   5.170  0.2991 -0.2190 -0.7740
  867MOL0     C14371  11.079   7.542   5.279  0.1813 -0.4316  0.5606
  867MOL0     C14372  11.219   7.587   5.327  0.5724 -0.2913 -0.7786
  867MOL0     C14373  11.316   7.639   5.220 -0.7180 -0.2049  0.4823
  867MOL0     C14374  11.369   7.528   5.128 -0.1446 -0.5766  0.0516
  867MOL0     C14375  11.420   7.412   5.205  0.3461  0.4230 -0.0003
  867MOL0     C14376  11.464   7.308   5.250 -0.8412 -0.1906 -0.7550
  867MOL0     C14377  10.965   7.832   5.082  0.2882 -0.2275 -0.4744
  867MOL0     C14378  10.924   7.963   5.105 -0.7276  0.4821  0.2947
  867MOL0     H14379  10.629   8.340   5.040 -3.3708 -1.6072  1.7644
  867MOL0     H14380  10.540   8.570   5.074  1.1179  0.2260 -2.6270
  867MOL0     H14381  10.765   8.866   5.176  1.2858  0.4826  0.6327
  867MOL0     H14382  10.774   8.833   5.345  1.1364 -0.7987 -1.3061
  867MOL0     H14383  10.544   8.967   5.355 -2.1734  4.6516 -0.2783
  867MOL0     H14384  10.596   9.015   5.185  2.6261 -0.0320 -0.3522
  867MOL0     H14385  10.827   9.055   5.296 -0.2463  0.9162 -0.7200
  867MOL0     H14386  10.735   9.056   5.454 -1.9460  2.4218  0.0631
  867MOL0     H14387  10.595   9.229   5.287 -0.0592 -0.9319 -0.2435
  867MOL0     H14388  10.689   9.270   5.437 -0.3153 -1.7211  1.4535
  867MOL0     H14389  10.884   9.310   5.311 -0.7544  3.0097  0.2582
  867MOL0     H14390  10.765   9.420   5.255  0.8473  0.2906 -1.0947
  867MOL0     H14391  10.856   9.167   5.089  1.4461  0.4545 -2.9750
  867MOL0     H14392  10.892   9.331   5.068 -1.5855 -0.3821 -2.6884
  867MOL0     H14393  10.718   9.236   4.921  0.6805 -0.1853 -0.2856
  867MOL0     H14394  10.606   9.246   5.055  2.1074 -3.3241  1.0687
  867MOL0     H14395  10.755   9.493   4.950 -0.0328 -1.0865 -1.4269
  867MOL0     H14396  10.638   9.492   5.090 -3.0094 -1.2027 -1.0341
  867MOL0     H14397  10.415   9.590   5.039 -3.2880 -2.2246  0.1338
  867MOL0     H14398  10.193   9.644   4.918  2.0176  0.8300  0.1807
  867MOL0     H14399  10.132   9.517   4.809 -2.7537  2.9061  0.9436
  867MOL0     H14400  10.225   9.630   4.607  0.3981  0.1654 -0.4279
  867MOL0     H14401  10.263   9.774   4.707 -1.6464  1.9340 -2.3952
  867MOL0     H14402  10.023   9.763   4.786  1.3065 -2.3699  1.4698
  867MOL0     H14403  10.056   9.823   4.618  1.4189 -1.5179 -2.5183
  867MOL0     H14404   9.943   9.554   4.713 -1.0422  0.3416  0.8373
  867MOL0     H14405  10.020   9.574   4.545  0.3622  3.9821 -1.7812
  867MOL0     H14406   9.697   9.579   4.415  0.9672  0.1470  0.4733
  867MOL0     H14407   9.476   9.492   4.460  2.6808 -1.3695  0.6856
  867MOL0     H14408   9.057   9.618   4.687  0.2791  0.7086  0.6568
  867MOL0     H14409   8.828   9.561   4.755  1.0281  0.2468 -1.2562
  867MOL0     H14410   8.770   9.288   5.096  1.7872 -2.2871 -0.5229
  867MOL0     H14411   8.812   9.184   4.969  1.3857  0.2065  2.2624
  867MOL0     H14412   8.541   9.244   4.899  2.0424 -2.9487 -1.5221
  867MOL0     H14413   8.536   9.293   5.071 -0.1342 -0.3845  0.4437
  867MOL0     H14414   8.627   9.060   5.141  0.1564  0.7178  0.8189
  867MOL0     H14415   8.635   9.013   4.979  1.0440  0.0264  0.3597
  867MOL0     H14416   8.366   9.083   4.962 -3.4711  0.8335  1.9584
  867MOL0     H14417   8.427   8.931   5.010 -1.6582  0.1288  2.0997
  867MOL0     H14418   8.245   9.026   5.125 -0.5205  1.7125 -0.9718
  867MOL0     H14419   8.347   9.155   5.193 -0.0752 -0.2405 -0.9967
  867MOL0     H14420   8.334   8.995   5.384 -0.5744 -1.0993 -0.5016
  867MOL0     H14421   8.486   8.999   5.309 -0.8800  0.7893  2.0262
  867MOL0     H14422   8.238   8.820   5.244 -0.9974 -1.1387  0.8484
  867MOL0     H14423   8.412   8.791   5.190 -2.3913  1.9500 -1.3141
  867MOL0     H14424   8.312   8.800   5.475 -0.6829  2.5235 -2.5090
  867MOL0     H14425   8.471   8.745   5.414  0.3375  3.1848 -1.5816
  867MOL0     H14426   8.988   9.299   5.052  0.4689  3.6656  2.7164
  867MOL0     H14427   9.202   9.355   5.010  0.1330  0.6303  0.1497
  867MOL0     H14428   9.500   9.667   4.862  2.5351 -2.5677  2.4108
  867MOL0     H14429   9.738   9.730   4.804 -0.2231 -0.7462  1.7611
  867MOL0     H14430  10.873   8.636   5.352  4.2708 -1.0666 -2.5853
  867MOL0     H14431  10.957   8.419   5.297 -1.3431 -0.8991  0.8926
  867MOL0     H14432  10.853   7.955   5.436 -1.9198  1.5561 -1.2560
  867MOL0     H14433  10.969   7.738   5.404 -0.1622  2.3676  1.4575
  867MOL0     H14434  11.095   7.441   5.240  0.0318 -0.2126 -0.0682
  867MOL0     H14435  11.008   7.532   5.361  1.9905  2.2577  2.6295
  867MOL0     H14436  11.200   7.671   5.394 -0.7710 -0.1060 -1.3558
  867MOL0     H14437  11.257   7.498   5.378 -0.6705 -0.0399  0.6638
  867MOL0     H14438  11.403   7.685   5.267 -1.6044  0.6954  1.2934
  867MOL0     H14439  11.272   7.718   5.158  0.6895 -0.3815 -0.7973
  867MOL0     H14440  11.281   7.493   5.072 -1.1876  0.6352  0.8597
  867MOL0     H14441  11.434   7.580   5.058 -1.6597  1.8501  0.3284
  867MOL0     H14442  11.501   7.219   5.296  0.3458  0.4924 -0.3401
  867MOL0     H14443  11.013   7.797   4.992  3.4995  1.6100  0.3513
  867MOL0     H14444  10.924   8.030   5.019  0.3945 -1.6927 -1.4987
  868MOL0     O14445  10.856   1.585   1.772  0.0007  0.1123  0.2679
  868MOL0     C14446  10.948   1.615   1.840 -0.0358 -0.1624 -0.3432
  868MOL0     O14447  10.949   1.604   1.973  0.6159  0.1021  0.0997
  868MOL0     C14448  10.838   1.569   2.049 -0.0418 -0.0747  0.6639
  868MOL0     C14449  10.873   1.500   2.163  0.4608  0.3249 -0.5143
  868MOL0     C14450  10.776   1.460   2.252  0.0274  0.5452  0.1261
  868MOL0     C14451  10.645   1.495   2.236 -0.6114 -0.1740  0.6985
  868MOL0     O14452  10.556   1.461   2.328 -0.0255  0.0061 -0.1995
  868MOL0     C14453  10.593   1.404   2.457 -0.2651  0.1196  0.9327
  868MOL0     C14454  10.462   1.348   2.528  0.1698  0.9096 -0.3340
  868MOL0     C14455  10.369   1.455   2.585  0.2655  0.3120 -0.0218
  868MOL0     C14456  10.252   1.389   2.651 -0.0934 -0.4975  0.6466
  868MOL0     C14457  10.167   1.467   2.739  0.3409 -0.1937  0.4786
  868MOL0     C14458  10.101   1.586   2.666 -0.4667 -0.3449 -0.2103
  868MOL0     C14459  10.161   1.730   2.706 -0.2884  0.1088  0.0770
  868MOL0     C14460  10.119   1.850   2.627 -0.1694 -0.5425 -0.1528
  868MOL0     N14461   9.975   1.870   2.620 -0.4728 -1.1156 -0.2979
  868MOL0     C14462   9.882   1.808   2.541  0.0646 -0.7940  0.1203
  868MOL0     C14463   9.767   1.823   2.606  0.4708 -0.2684  0.1436
  868MOL0     C14464   9.656   1.740   2.565  0.5609  0.5947  0.0281
  868MOL0     C14465   9.557   1.728   2.681 -0.0414  0.9716  0.0409
  868MOL0     C14466   9.427   1.648   2.642  0.3459 -1.0474  0.0422
  868MOL0     C14467   9.347   1.627   2.770 -0.4110  0.5092  0.5394
  868MOL0     O14468   9.239   1.550   2.727 -0.7812  0.6489  0.0451
  868MOL0     C14469   9.121   1.536   2.798  0.5848 -0.1223 -0.1467
  868MOL0     C14470   9.027   1.454   2.738  0.6270 -0.2008  0.0547
  868MOL0     C14471   8.907   1.421   2.812 -0.4574 -1.2142  0.6069
  868MOL0     C14472   8.882   1.465   2.943  0.1473  0.3294 -0.9611
  868MOL0     C14473   8.769   1.414   3.017 -0.8330  0.1350  0.0190
  868MOL0     O14474   8.723   1.497   3.118  0.4554 -0.0540  0.6112
  868MOL0     C14475   8.615   1.468   3.199  0.6829  0.4699 -0.7749
  868MOL0     C14476   8.568   1.581   3.270  0.4186  0.1404 -0.4981
  868MOL0     C14477   8.461   1.568   3.355  0.4824  0.3625 -0.2099
  868MOL0     C14478   8.380   1.449   3.358 -0.1349  0.2661 -0.6300
  868MOL0     O14479   8.256   1.433   3.424 -0.2895 -0.7275 -0.6545
  868MOL0     C14480   8.216   1.542   3.506 -0.2679  0.1253 -0.6377
  868MOL0     C14481   8.088   1.517   3.581  0.1451 -0.3771 -0.8965
  868MOL0     C14482   7.960   1.497   3.490  0.5766 -1.2911  0.5257
  868MOL0     C14483   7.844   1.488   3.588  0.1667  0.7301  0.0630
  868MOL0     C14484   7.700   1.478   3.523  0.2305 -0.6809  0.3655
  868MOL0     C14485   7.620   1.607   3.530  0.3669  0.1100  0.3860
  868MOL0     C14486   7.476   1.588   3.474  0.1455  0.5144  0.2689
  868MOL0     C14487   7.465   1.532   3.332  0.1183  0.8902 -0.3003
  868MOL0    Cl14488   7.299   1.576   3.262 -0.0989  0.0989  0.0821
  868MOL0     C14489   8.418   1.341   3.278 -0.1416 -0.2492  0.3888
  868MOL0     C14490   8.540   1.344   3.212 -0.2243 -0.6766  0.2530
  868MOL0     O14491   8.713   1.314   2.977 -0.1808 -0.2202  0.0046
  868MOL0     C14492   8.974   1.553   2.999  0.8369 -0.5732  1.1495
  868MOL0     C14493   9.089   1.588   2.927 -0.0980 -0.6681  0.8080
  868MOL0     N14494   9.787   1.888   2.727 -0.1682 -0.4659  0.3824
  868MOL0     N14495   9.914   1.926   2.725  0.5181  0.7747  0.0251
  868MOL0     C14496  10.611   1.565   2.122 -0.5786 -0.7553  0.5867
  868MOL0     C14497  10.706   1.604   2.028 -1.0995  0.1743  0.8343
  868MOL0     C14498  11.055   1.696   1.783  0.0586 -0.3054 -0.0148
  868MOL0     C14499  11.131   1.793   1.847 -0.3970 -0.0868  0.3225
  868MOL0     C14500  11.226   1.880   1.784 -0.1448  0.2248  0.4050
  868MOL0     C14501  11.247   1.865   1.651 -0.8397  0.2333  0.0751
  868MOL0     O14502  11.335   1.952   1.594 -0.5055  0.7466  0.4418
  868MOL0     C14503  11.403   1.920   1.474  0.4532 -1.0383 -0.0598
  868MOL0     C14504  11.495   1.798   1.505  0.1752  0.3229 -0.3212
  868MOL0     C14505  11.602   1.841   1.613 -0.1037 -0.6537 -0.8895
  868MOL0     C14506  11.700   1.960   1.566 -0.8246 -0.6349  0.0594
  868MOL0     C14507  11.769   1.922   1.439 -0.6848  0.6579  0.9418
  868MOL0     C14508  11.838   1.880   1.351 -0.0226  0.6519 -0.6576
  868MOL0     C14509  11.184   1.761   1.582  0.3590  0.4282  0.2224
  868MOL0     C14510  11.089   1.684   1.648 -0.2496  0.8582 -0.5664
  868MOL0     H14511  10.979   1.479   2.167  1.1655  3.0965 -1.9084
  868MOL0     H14512  10.802   1.395   2.335 -0.0881 -2.1804 -1.8534
  868MOL0     H14513  10.633   1.488   2.515  5.2619 -2.3308  1.2561
  868MOL0     H14514  10.661   1.319   2.456 -3.4602 -2.6789 -1.6392
  868MOL0     H14515  10.481   1.275   2.607 -0.1960 -1.0767 -1.9912
  868MOL0     H14516  10.413   1.292   2.448  0.1495  2.3290 -1.3553
  868MOL0     H14517  10.331   1.522   2.508  0.7830 -0.6087 -1.1142
  868MOL0     H14518  10.435   1.515   2.649  3.0013  0.4420 -2.7156
  868MOL0     H14519  10.189   1.346   2.572  2.0254  0.4628 -1.7098
  868MOL0     H14520  10.277   1.290   2.689 -1.7487 -2.3094 -2.4794
  868MOL0     H14521  10.241   1.495   2.815  2.7213 -2.4821 -0.8528
  868MOL0     H14522  10.096   1.405   2.794 -0.1799  0.1696  0.2267
  868MOL0     H14523  10.000   1.603   2.704  1.6144 -0.2629  6.8014
  868MOL0     H14524  10.097   1.577   2.557  2.9718  3.0485 -0.8478
  868MOL0     H14525  10.136   1.739   2.812 -4.0936  1.4549 -0.8041
  868MOL0     H14526  10.268   1.710   2.695 -0.6277 -3.6518  1.6939
  868MOL0     H14527  10.164   1.858   2.527 -2.8904  1.1087 -1.3716
  868MOL0     H14528  10.171   1.928   2.684  0.4243 -1.3179  0.3772
  868MOL0     H14529   9.900   1.744   2.455 -0.2071 -0.9193  0.1571
  868MOL0     H14530   9.692   1.639   2.540  3.0853  1.5535 -0.5676
  868MOL0     H14531   9.622   1.788   2.473 -0.4239  0.3239  0.2390
  868MOL0     H14532   9.524   1.831   2.701 -1.0305  0.7912 -0.5945
  868MOL0     H14533   9.618   1.693   2.765 -1.9699 -1.9664  0.3549
  868MOL0     H14534   9.368   1.712   2.576 -0.6883  1.0643  2.8100
  868MOL0     H14535   9.456   1.554   2.593 -0.7855 -1.1946 -0.3639
  868MOL0     H14536   9.310   1.722   2.811 -0.9614  0.0508  1.1172
  868MOL0     H14537   9.414   1.588   2.846  0.3284  0.6213 -0.0416
  868MOL0     H14538   9.035   1.412   2.639  1.0097  2.2120 -1.0035
  868MOL0     H14539   8.834   1.358   2.763  0.8858 -0.6684 -2.3625
  868MOL0     H14540   8.606   1.678   3.243  0.1716  0.8606  1.5831
  868MOL0     H14541   8.430   1.659   3.405 -0.7204  0.4299 -1.0555
  868MOL0     H14542   8.206   1.624   3.435  1.7184  2.3795  1.4864
  868MOL0     H14543   8.297   1.568   3.575  0.4347  0.6877 -1.6461
  868MOL0     H14544   8.091   1.601   3.650  1.2826 -2.2107  1.4168
  868MOL0     H14545   8.100   1.425   3.639 -1.2004  1.0570  1.8221
  868MOL0     H14546   7.971   1.401   3.439  0.7475 -0.0296 -1.9628
  868MOL0     H14547   7.944   1.575   3.415 -0.0092 -3.0410 -1.2529
  868MOL0     H14548   7.845   1.393   3.641  0.2018  1.3022  1.1038
  868MOL0     H14549   7.843   1.568   3.662  0.5693  0.6305  0.1767
  868MOL0     H14550   7.639   1.398   3.567 -1.0146 -0.4102 -0.8067
  868MOL0     H14551   7.712   1.457   3.416 -0.1289  0.0011  0.1841
  868MOL0     H14552   7.678   1.677   3.468 -0.2379 -0.3740 -0.7579
  868MOL0     H14553   7.604   1.638   3.634  0.1636 -1.0713  0.7204
  868MOL0     H14554   7.409   1.531   3.540 -1.0503  0.3258 -1.0518
  868MOL0     H14555   7.451   1.694   3.481  1.9828  0.9430  0.7620
  868MOL0     H14556   7.475   1.424   3.346 -0.6278  0.7807 -0.5467
  868MOL0     H14557   7.543   1.561   3.261  1.3601  0.6184  0.8997
  868MOL0     H14558   8.349   1.257   3.278  0.3811 -0.6882 -0.4398
  868MOL0     H14559   8.569   1.253   3.162  0.3437 -0.5123  0.2779
  868MOL0     H14560   8.966   1.581   3.104 -3.0357 -0.1225  0.8778
  868MOL0     H14561   9.167   1.645   2.976 -1.0518 -0.0092  1.6120
  868MOL0     H14562  10.506   1.583   2.101 -0.3518  1.6690  1.2487
  868MOL0     H14563  10.675   1.652   1.936  1.3314 -0.8582 -0.6381
  868MOL0     H14564  11.109   1.809   1.952  1.2230 -1.1553  0.8721
  868MOL0     H14565  11.277   1.957   1.840 -1.9742 -1.4301  4.8743
  868MOL0     H14566  11.455   2.007   1.433 -1.4385 -1.2832 -3.3883
  868MOL0     H14567  11.327   1.900   1.398 -0.9427  1.8128  0.4619
  868MOL0     H14568  11.439   1.710   1.538  1.0152 -0.4120 -0.8250
  868MOL0     H14569  11.557   1.760   1.423 -0.7848 -0.7319 -0.5734
  868MOL0     H14570  11.663   1.752   1.633  3.0016  1.0130 -2.3170
  868MOL0     H14571  11.563   1.879   1.708  0.1340 -0.7928 -0.7326
  868MOL0     H14572  11.637   2.048   1.549 -0.5867 -0.6861 -1.2069
  868MOL0     H14573  11.778   1.973   1.641  0.7764  0.7264 -1.7183
  868MOL0     H14574  11.904   1.842   1.276 -0.1112  0.4511 -0.6347
  868MOL0     H14575  11.212   1.742   1.479 -1.4747  0.6774 -0.3583
  868MOL0     H14576  11.051   1.600   1.592  1.6478 -0.8553  0.5810
  869MOL0     O14577  10.944   9.525   7.095 -0.3180 -0.2704  0.2869
  869MOL0     C14578  10.883   9.434   7.050 -0.3862  0.5451 -0.5993
  869MOL0     O14579  10.839   9.325   7.125 -0.3342 -0.0265  0.5973
  869MOL0     C14580  10.891   9.306   7.253 -0.3686  0.0715 -0.9528
  869MOL0     C14581  11.030   9.304   7.290  1.0358 -0.0757 -0.1445
  869MOL0     C14582  11.066   9.289   7.423 -0.4860 -0.5317 -0.0257
  869MOL0     C14583  10.973   9.272   7.526  1.0432 -0.8344  0.1081
  869MOL0     O14584  11.011   9.293   7.662 -0.0598  0.4420  0.1429
  869MOL0     C14585  11.128   9.236   7.724 -0.5406  0.2776 -0.3584
  869MOL0     C14586  11.167   9.311   7.851 -0.4522 -0.2443  0.1602
  869MOL0     C14587  11.189   9.456   7.821 -0.3242  0.9531  0.2346
  869MOL0     C14588  11.217   9.532   7.950  0.4449 -0.3099  0.5412
  869MOL0     C14589  11.249   9.681   7.913  0.7156  0.1329  0.3159
  869MOL0     C14590  11.292   9.771   8.028  0.1481 -0.4063 -0.7539
  869MOL0     C14591  11.435   9.741   8.088  0.0745 -0.4063  0.4026
  869MOL0     C14592  11.470   9.816   8.215 -0.4830 -0.0828 -0.1835
  869MOL0     N14593  11.612   9.816   8.245  0.3731  0.2715 -0.1292
  869MOL0     C14594  11.724   9.874   8.181  0.2070 -0.0173 -0.2565
  869MOL0     C14595  11.837   9.809   8.226  0.5714 -1.3042  0.4280
  869MOL0     C14596  11.979   9.843   8.202  0.2510 -0.8951  0.4348
  869MOL0     C14597  12.017   9.769   8.066  0.1554 -0.3899  1.0934
  869MOL0     C14598  11.962   9.836   7.935 -0.1349 -0.7655  0.1357
  869MOL0     C14599  12.012   9.767   7.805 -0.2760  0.1755  0.6476
  869MOL0     O14600  11.979   9.833   7.682 -0.5693 -0.2749  0.2344
  869MOL0     C14601  12.002   9.770   7.562 -0.1552  0.0784 -0.3019
  869MOL0     C14602  11.972   9.837   7.451  0.5785  0.1466  0.0491
  869MOL0     C14603  11.980   9.786   7.321 -0.7913 -0.2291 -0.6059
  869MOL0     C14604  12.039   9.655   7.303 -0.7078 -0.3514  0.7904
  869MOL0     C14605  12.051   9.598   7.168  0.2175  0.0278  0.4828
  869MOL0     O14606  12.124   9.478   7.174 -0.1882  0.2820  0.6909
  869MOL0     C14607  12.143   9.384   7.072  0.7957 -0.1947 -0.2182
  869MOL0     C14608  12.213   9.269   7.111  0.5112 -0.4751 -0.2025
  869MOL0     C14609  12.253   9.178   7.016  0.7721 -0.3875 -0.5783
  869MOL0     C14610  12.221   9.181   6.879  0.3765 -0.5198  0.2015
  869MOL0     O14611  12.249   9.094   6.780  0.1045  0.2787  0.2728
  869MOL0     C14612  12.350   8.992   6.793  0.8098 -0.2096  0.5374
  869MOL0     C14613  12.391   8.916   6.664 -0.4058 -0.3217 -0.1570
  869MOL0     C14614  12.504   8.821   6.692  0.5949  0.7439  0.0937
  869MOL0     C14615  12.529   8.741   6.568 -0.1408 -0.1763  0.9905
  869MOL0     C14616  12.672   8.683   6.575 -0.0752 -1.2715 -0.7792
  869MOL0     C14617  12.731   8.653   6.437 -0.5354 -0.1424 -0.3207
  869MOL0     C14618  12.881   8.661   6.432 -0.0917  0.4718  0.3864
  869MOL0     C14619  12.959   8.589   6.543 -0.0454  0.3793  0.1338
  869MOL0    Cl14620  13.143   8.583   6.501  0.2868  0.5956  0.0153
  869MOL0     C14621  12.152   9.300   6.844  0.1572 -0.6967 -0.2064
  869MOL0     C14622  12.113   9.395   6.936  0.4303 -1.0506 -0.1244
  869MOL0     O14623  11.995   9.646   7.071 -0.3812 -0.2830 -0.1252
  869MOL0     C14624  12.081   9.583   7.417  0.2398  1.1071 -0.3542
  869MOL0     C14625  12.058   9.642   7.544 -0.8374  0.4714  0.1245
  869MOL0     N14626  11.798   9.699   8.294 -0.6785  0.0532 -0.4711
  869MOL0     N14627  11.665   9.703   8.309 -0.2994 -0.0548  0.4282
  869MOL0     C14628  10.838   9.290   7.490  0.4550 -0.9926 -0.2991
  869MOL0     C14629  10.798   9.301   7.351  0.2549  0.4970 -0.9430
  869MOL0     C14630  10.827   9.437   6.913 -0.0407 -0.8079 -0.0850
  869MOL0     C14631  10.718   9.362   6.892  0.3467 -0.4116  0.5038
  869MOL0     C14632  10.662   9.362   6.764  1.0787 -0.1061  0.6945
  869MOL0     C14633  10.715   9.431   6.660  0.0320  0.4694  0.2214
  869MOL0     O14634  10.639   9.443   6.545 -0.8651  0.6580 -0.2531
  869MOL0     C14635  10.712   9.490   6.428 -0.1851  0.1874  0.1141
  869MOL0     C14636  10.622   9.492   6.299  0.7168  0.1431  0.4028
  869MOL0     C14637  10.696   9.546   6.174 -1.0080  1.0302  0.1035
  869MOL0     C14638  10.725   9.436   6.073  0.3377 -0.4508 -0.1518
  869MOL0     C14639  10.842   9.358   6.121  0.1217  0.1948  0.1502
  869MOL0     C14640  10.951   9.324   6.155  0.1948 -0.6004 -0.0120
  869MOL0     C14641  10.832   9.503   6.687 -0.3280  0.5176  0.4930
  869MOL0     C14642  10.888   9.515   6.816  0.1000 -0.4343 -1.1041
  869MOL0     H14643  11.102   9.317   7.211  2.5349 -2.5711  0.6682
  869MOL0     H14644  11.172   9.290   7.443 -0.4476 -1.5305 -0.1277
  869MOL0     H14645  11.213   9.236   7.656  0.6132 -0.6761  1.0144
  869MOL0     H14646  11.101   9.136   7.761 -2.2409  0.1169 -1.8643
  869MOL0     H14647  11.261   9.273   7.892  0.5523  4.4884  3.1323
  869MOL0     H14648  11.097   9.304   7.934 -0.4498 -1.5186  0.0719
  869MOL0     H14649  11.096   9.494   7.778  0.1341  1.7104 -0.0926
  869MOL0     H14650  11.265   9.478   7.745 -1.1902 -2.6928 -1.9124
  869MOL0     H14651  11.126   9.528   8.011 -0.3491 -1.2808 -0.6554
  869MOL0     H14652  11.301   9.489   8.005  1.2763  0.7916  0.1522
  869MOL0     H14653  11.166   9.726   7.858  2.4819  0.6980 -2.0858
  869MOL0     H14654  11.325   9.687   7.834 -2.1144 -1.4878 -2.7421
  869MOL0     H14655  11.219   9.771   8.109 -0.6278  2.3652 -1.3399
  869MOL0     H14656  11.308   9.873   7.992  2.5633  1.0697  3.6869
  869MOL0     H14657  11.444   9.633   8.102 -1.4784 -0.6989 -0.5650
  869MOL0     H14658  11.508   9.761   8.009 -1.8884 -0.8344 -1.6292
  869MOL0     H14659  11.413   9.768   8.295 -1.2851  0.6416 -0.3053
  869MOL0     H14660  11.429   9.918   8.208 -1.1594 -0.3830 -0.7061
  869MOL0     H14661  11.707   9.968   8.129 -1.8706  0.4149  1.0675
  869MOL0     H14662  12.047   9.818   8.284  3.0109 -0.9076 -1.7057
  869MOL0     H14663  11.983   9.950   8.182 -0.2299 -0.5733  1.9587
  869MOL0     H14664  11.971   9.670   8.060  0.3716 -0.4160 -2.6572
  869MOL0     H14665  12.125   9.753   8.070  0.4605  1.2704  0.5402
  869MOL0     H14666  11.852   9.834   7.937 -0.1382 -0.3273  1.0288
  869MOL0     H14667  12.002   9.938   7.939  0.9937 -1.2300  1.7573
  869MOL0     H14668  11.974   9.664   7.805 -0.8201  0.2975  3.4477
  869MOL0     H14669  12.121   9.762   7.813 -0.3145 -1.2079  0.4791
  869MOL0     H14670  11.934   9.938   7.460 -0.8671 -0.5602  2.7941
  869MOL0     H14671  11.943   9.842   7.236 -1.4582 -3.0845 -2.3398
  869MOL0     H14672  12.249   9.254   7.212 -1.7619  0.2928  0.7799
  869MOL0     H14673  12.312   9.094   7.052  1.4375  0.9225  1.5784
  869MOL0     H14674  12.311   8.930   6.875  0.7142  1.2886  1.6738
  869MOL0     H14675  12.442   9.040   6.827  1.0974 -1.9440  2.4501
  869MOL0     H14676  12.425   8.987   6.588  0.7615  0.2468  0.8589
  869MOL0     H14677  12.298   8.869   6.631 -1.8635  1.1093  1.7270
  869MOL0     H14678  12.469   8.757   6.773  0.4246 -2.0578 -2.0226
  869MOL0     H14679  12.591   8.878   6.726  1.9525 -0.7596 -0.7154
  869MOL0     H14680  12.451   8.665   6.554  1.0686 -1.5557  1.4672
  869MOL0     H14681  12.521   8.808   6.481  1.4287 -0.1729  0.8067
  869MOL0     H14682  12.682   8.597   6.642  1.1752 -1.2451 -0.9040
  869MOL0     H14683  12.735   8.761   6.619 -1.7252 -0.3859  0.0784
  869MOL0     H14684  12.694   8.725   6.363 -4.2121 -2.9955 -1.5831
  869MOL0     H14685  12.705   8.555   6.396  3.3665  0.0361 -4.0004
  869MOL0     H14686  12.908   8.616   6.336 -0.9129  0.5121  0.1267
  869MOL0     H14687  12.911   8.766   6.433  0.2996  0.4083 -1.3377
  869MOL0     H14688  12.912   8.491   6.546 -2.6270  1.5452  1.7330
  869MOL0     H14689  12.930   8.639   6.636 -1.3909 -0.1065  0.0035
  869MOL0     H14690  12.113   9.300   6.743 -5.3355  0.0289  1.6025
  869MOL0     H14691  12.044   9.473   6.904  1.6522  1.3272  2.5834
  869MOL0     H14692  12.106   9.480   7.398 -0.2670  1.1905 -1.5575
  869MOL0     H14693  12.098   9.591   7.632  1.1056 -0.7827 -1.3835
  869MOL0     H14694  10.761   9.291   7.567 -0.9382 -0.1903 -1.6189
  869MOL0     H14695  10.694   9.289   7.322 -0.1064  0.3328  0.3530
  869MOL0     H14696  10.660   9.301   6.960 -2.0325  1.2680  0.1024
  869MOL0     H14697  10.572   9.305   6.746  2.0870 -1.3462 -0.6629
  869MOL0     H14698  10.791   9.418   6.406 -0.5917 -0.1545 -0.2333
  869MOL0     H14699  10.758   9.588   6.443  0.6727  0.2550 -2.5456
  869MOL0     H14700  10.576   9.396   6.276 -1.7814  1.4796 -0.6141
  869MOL0     H14701  10.536   9.559   6.308  0.3057 -0.5492  2.1754
  869MOL0     H14702  10.787   9.594   6.214 -0.2022 -1.0539  0.9084
  869MOL0     H14703  10.631   9.615   6.120 -0.4337  0.9290 -0.7292
  869MOL0     H14704  10.645   9.363   6.052 -0.8546  0.7680  0.0417
  869MOL0     H14705  10.746   9.491   5.981  1.1689  0.0349  0.3220
  869MOL0     H14706  11.051   9.298   6.185  0.4237  0.8940  0.5920
  869MOL0     H14707  10.880   9.542   6.597  2.8883 -1.9914  0.9136
  869MOL0     H14708  10.977   9.576   6.829 -0.4580  0.4767 -1.4558
  870MOL0     O14709   4.855   1.653   8.158  1.2325  0.4347  0.5218
  870MOL0     C14710   4.876   1.696   8.273 -0.7950 -1.2082 -0.0309
  870MOL0     O14711   4.781   1.773   8.345  0.4106 -0.2896 -0.0769
  870MOL0     C14712   4.663   1.822   8.283 -0.1180 -0.2009 -0.6017
  870MOL0     C14713   4.642   1.964   8.271 -0.4471  1.0071  0.1184
  870MOL0     C14714   4.530   2.010   8.200 -0.3932 -0.5115 -0.9258
  870MOL0     C14715   4.434   1.931   8.149 -0.1640  0.4915  0.9386
  870MOL0     O14716   4.319   1.985   8.092  0.2676  0.2692 -0.0526
  870MOL0     C14717   4.217   1.889   8.067 -0.3665  0.5079  0.1207
  870MOL0     C14718   4.081   1.960   8.043  0.0950 -0.8139 -0.0060
  870MOL0     C14719   3.967   1.865   8.021 -0.3617  0.9844  0.2723
  870MOL0     C14720   3.844   1.939   7.975 -0.3403  0.2402  0.1310
  870MOL0     C14721   3.721   1.854   7.978 -0.1700  0.3085  0.4831
  870MOL0     C14722   3.586   1.914   7.922  1.0740 -0.4366 -0.2613
  870MOL0     C14723   3.501   2.006   8.020 -0.6707  0.0368  0.8525
  870MOL0     C14724   3.429   1.928   8.133 -0.3549  0.1804 -0.2778
  870MOL0     N14725   3.354   2.021   8.208  0.3452  0.7662 -0.0476
  870MOL0     C14726   3.386   2.129   8.294  0.8179 -0.4093 -0.5395
  870MOL0     C14727   3.264   2.174   8.337  0.4557 -0.3953  0.0632
  870MOL0     C14728   3.223   2.295   8.420 -0.6547  0.4508  0.0296
  870MOL0     C14729   3.234   2.277   8.573 -0.0589  0.1818 -0.2634
  870MOL0     C14730   3.126   2.183   8.627 -0.4353  1.2339 -0.2577
  870MOL0     C14731   2.981   2.236   8.623 -0.1732  0.1974 -0.2029
  870MOL0     O14732   2.959   2.340   8.720  0.1796 -0.0499 -0.6094
  870MOL0     C14733   2.833   2.404   8.714  0.5712  0.4406 -0.9912
  870MOL0     C14734   2.722   2.360   8.646  0.2991  0.0441  0.8038
  870MOL0     C14735   2.599   2.426   8.642  0.3055  0.5931  0.6071
  870MOL0     C14736   2.589   2.552   8.716 -0.0390  0.6869  0.5754
  870MOL0     C14737   2.453   2.622   8.709  0.1723 -0.1688 -0.7931
  870MOL0     O14738   2.367   2.586   8.615 -0.0406  0.2415 -0.1782
  870MOL0     C14739   2.245   2.651   8.591 -0.5343  1.1709  0.0301
  870MOL0     C14740   2.203   2.779   8.628 -0.2825 -0.0890  0.6962
  870MOL0     C14741   2.074   2.818   8.583 -0.0461  0.0146 -1.4778
  870MOL0     C14742   1.990   2.742   8.498 -0.4257  0.4025  0.2486
  870MOL0     O14743   1.868   2.790   8.447  0.0442 -0.2874  0.4776
  870MOL0     C14744   1.866   2.928   8.405 -0.4921 -0.6290 -1.3308
  870MOL0     C14745   1.747   2.963   8.314 -1.0483 -0.0190  0.1978
  870MOL0     C14746   1.624   2.910   8.387  0.1809  0.2190  0.7930
  870MOL0     C14747   1.498   2.966   8.322  0.3729  0.5958  0.2866
  870MOL0     C14748   1.373   2.892   8.353 -0.0205 -0.3234  0.4063
  870MOL0     C14749   1.252   2.944   8.274  0.1143 -0.2659 -0.2511
  870MOL0     C14750   1.112   2.957   8.344 -0.4630 -0.7065  0.7574
  870MOL0     C14751   1.005   3.017   8.252 -0.7493 -0.1138  0.3857
  870MOL0    Cl14752   0.876   3.088   8.359 -0.2380 -0.4467  0.0059
  870MOL0     C14753   2.029   2.613   8.477  0.9856  0.6475 -0.1164
  870MOL0     C14754   2.145   2.563   8.531  0.0032 -0.3273 -0.3970
  870MOL0     O14755   2.434   2.716   8.791 -1.1570  0.1497 -0.3372
  870MOL0     C14756   2.695   2.599   8.792 -0.0508 -1.3417 -0.1405
  870MOL0     C14757   2.813   2.521   8.794 -0.8212  0.6191 -1.2124
  870MOL0     N14758   3.166   2.090   8.294 -0.6302 -0.6323  1.4200
  870MOL0     N14759   3.220   2.006   8.212  0.7003  0.4124 -0.5102
  870MOL0     C14760   4.460   1.788   8.156 -0.2067 -0.0441 -0.5340
  870MOL0     C14761   4.571   1.738   8.225  0.2546  0.4424 -0.6124
  870MOL0     C14762   5.002   1.668   8.346 -0.0085  1.3785  0.3689
  870MOL0     C14763   5.113   1.641   8.264  1.4978 -0.7848 -0.1280
  870MOL0     C14764   5.242   1.632   8.323  0.2070 -0.4277 -0.3443
  870MOL0     C14765   5.254   1.661   8.457 -0.7277  0.9530 -1.1251
  870MOL0     O14766   5.371   1.659   8.526  0.3269  0.1348 -0.6716
  870MOL0     C14767   5.489   1.612   8.457  0.5623  0.2918  0.3599
  870MOL0     C14768   5.484   1.455   8.432  0.1508 -0.5916 -1.1476
  870MOL0     C14769   5.444   1.366   8.553 -0.2779  0.2451 -0.2163
  870MOL0     C14770   5.409   1.222   8.516 -0.4109  0.2472 -0.0079
  870MOL0     C14771   5.509   1.148   8.443 -0.2027 -0.0748 -1.1558
  870MOL0     C14772   5.593   1.096   8.373  0.4841 -0.2071 -0.2859
  870MOL0     C14773   5.140   1.666   8.539  0.8894  0.8689 -0.3459
  870MOL0     C14774   5.014   1.664   8.480  0.0573 -0.0024 -0.5513
  870MOL0     H14775   4.722   2.028   8.305  0.5807  2.4900 -4.4296
  870MOL0     H14776   4.516   2.118   8.198 -3.5656 -0.7569  0.9593
  870MOL0     H14777   4.181   1.829   8.151 -1.7311  0.3609 -0.5427
  870MOL0     H14778   4.242   1.827   7.981  0.8055 -2.5571  2.4822
  870MOL0     H14779   4.078   2.019   7.951  0.3202 -1.1356 -0.2201
  870MOL0     H14780   4.059   2.022   8.131  1.7956  1.9401 -1.3876
  870MOL0     H14781   3.953   1.814   8.116 -0.5168  4.3949  2.2512
  870MOL0     H14782   3.989   1.796   7.939  0.5486 -1.7019  2.6226
  870MOL0     H14783   3.823   2.032   8.030 -2.4976 -0.5687  0.7907
  870MOL0     H14784   3.858   1.971   7.872 -0.0918  0.5471  0.2579
  870MOL0     H14785   3.710   1.827   8.083  1.5522  3.0126  1.4423
  870MOL0     H14786   3.730   1.769   7.909 -2.5575  0.3000  0.0832
  870MOL0     H14787   3.519   1.835   7.887  1.3472 -0.0734 -1.6526
  870MOL0     H14788   3.623   1.967   7.833  2.1469 -2.5620 -1.1407
  870MOL0     H14789   3.570   2.084   8.053 -0.1039  0.5890 -1.4236
  870MOL0     H14790   3.425   2.058   7.961 -0.0766  0.0683  0.0820
  870MOL0     H14791   3.508   1.883   8.195 -1.3959 -2.4333 -0.7590
  870MOL0     H14792   3.368   1.845   8.097  1.0948 -1.8273  1.5739
  870MOL0     H14793   3.485   2.168   8.314  1.0017  1.3942 -4.1896
  870MOL0     H14794   3.123   2.332   8.398 -0.2811  1.5737  0.1830
  870MOL0     H14795   3.296   2.369   8.389 -0.6730 -1.3284 -5.1544
  870MOL0     H14796   3.210   2.371   8.624 -1.9545 -0.9505  1.0424
  870MOL0     H14797   3.332   2.234   8.599 -0.1469 -0.5048 -1.0279
  870MOL0     H14798   3.137   2.083   8.585  4.3893  1.3181  0.3111
  870MOL0     H14799   3.154   2.165   8.731 -1.6829  0.4719 -0.0322
  870MOL0     H14800   2.919   2.149   8.642  0.6582  0.0346  2.2200
  870MOL0     H14801   2.963   2.276   8.523 -4.7209 -0.7056  0.0460
  870MOL0     H14802   2.718   2.263   8.596 -1.7649 -0.2889  1.4785
  870MOL0     H14803   2.517   2.388   8.582 -1.2808  1.7666  1.8969
  870MOL0     H14804   2.263   2.849   8.685  0.5874  0.6167 -1.0278
  870MOL0     H14805   2.018   2.901   8.625  3.0970  1.8107 -0.4896
  870MOL0     H14806   1.953   2.957   8.345  0.8864 -1.1615  0.3321
  870MOL0     H14807   1.857   2.991   8.494  1.6516 -2.9510  0.6924
  870MOL0     H14808   1.770   2.922   8.215  2.4418 -0.7112  1.1282
  870MOL0     H14809   1.755   3.072   8.308 -0.4980 -0.1025 -0.8460
  870MOL0     H14810   1.620   2.931   8.494  0.0890 -0.4521  0.9238
  870MOL0     H14811   1.621   2.803   8.363  1.5173 -0.2794  2.5788
  870MOL0     H14812   1.502   3.070   8.354  3.3972  0.9419 -0.8754
  870MOL0     H14813   1.521   2.969   8.215 -3.1852  1.0624 -0.6012
  870MOL0     H14814   1.344   2.899   8.458 -1.4216 -2.7763  0.2530
  870MOL0     H14815   1.380   2.785   8.330 -0.5624  0.0886 -1.8734
  870MOL0     H14816   1.236   2.890   8.181  0.2660  0.0809 -0.4813
  870MOL0     H14817   1.272   3.046   8.238 -2.2534 -0.5865 -2.7769
  870MOL0     H14818   1.085   2.854   8.367  2.5705 -2.2077 -1.6352
  870MOL0     H14819   1.123   3.024   8.430 -0.4247  0.1196  0.1261
  870MOL0     H14820   0.957   2.943   8.188  1.7898 -2.3133  0.8488
  870MOL0     H14821   1.041   3.100   8.190  2.0634 -0.3943  1.4861
  870MOL0     H14822   1.955   2.553   8.425 -2.0546  2.2241  2.0819
  870MOL0     H14823   2.175   2.463   8.504  1.0869  0.9055 -4.3794
  870MOL0     H14824   2.677   2.693   8.842  0.8669 -1.2827  0.0946
  870MOL0     H14825   2.903   2.546   8.849 -0.5018 -1.6455 -0.6270
  870MOL0     H14826   4.386   1.724   8.110 -2.7122  1.3697  1.3429
  870MOL0     H14827   4.594   1.632   8.220 -0.5283  0.2288  0.1021
  870MOL0     H14828   5.111   1.622   8.157 -0.3157  0.6619 -0.4187
  870MOL0     H14829   5.322   1.609   8.254  1.1821  0.2284  0.5305
  870MOL0     H14830   5.575   1.624   8.523  1.1981 -4.0970  0.6147
  870MOL0     H14831   5.511   1.666   8.364  0.3489  0.1926  0.2505
  870MOL0     H14832   5.413   1.425   8.354 -0.8792 -1.5460  0.1042
  870MOL0     H14833   5.587   1.428   8.406  1.0000  2.4541 -1.2865
  870MOL0     H14834   5.358   1.421   8.592 -0.0113  1.0376 -0.7089
  870MOL0     H14835   5.529   1.367   8.621 -1.6944  0.6879  1.6283
  870MOL0     H14836   5.374   1.157   8.597 -0.2483 -0.2148 -0.3078
  870MOL0     H14837   5.320   1.235   8.454  0.7956  1.0316 -1.6706
  870MOL0     H14838   5.677   1.050   8.325 -0.0356  0.1902 -1.6266
  870MOL0     H14839   5.142   1.680   8.647  1.3345 -2.2889  0.1486
  870MOL0     H14840   4.932   1.684   8.549 -2.1600  3.3560 -3.7645
  871MOL0     O14841   2.789   3.276   3.215 -0.2949 -0.6090 -0.0908
  871MOL0     C14842   2.706   3.362   3.186  0.1017  1.0066  0.8810
  871MOL0     O14843   2.709   3.496   3.225  0.3694  0.0750  1.0119
  871MOL0     C14844   2.816   3.548   3.305  0.1545 -0.1610  1.1022
  871MOL0     C14845   2.937   3.488   3.341  0.4432  0.9531 -0.9996
  871MOL0     C14846   3.024   3.552   3.424 -0.1701 -0.4000  0.3166
  871MOL0     C14847   2.995   3.678   3.486 -1.1504  0.7932  0.7159
  871MOL0     O14848   3.073   3.735   3.582  0.8412 -1.3063 -0.3199
  871MOL0     C14849   3.157   3.654   3.667 -0.1713  0.0218 -0.6052
  871MOL0     C14850   3.217   3.740   3.779 -0.1236 -1.1733  0.0416
  871MOL0     C14851   3.110   3.787   3.879 -0.2976  0.2546  0.3662
  871MOL0     C14852   3.059   3.924   3.855 -0.2285 -0.5827  0.1642
  871MOL0     C14853   2.925   3.944   3.911  0.7509 -0.2816  0.6132
  871MOL0     C14854   2.911   3.911   4.060  0.0539 -0.3866 -0.1809
  871MOL0     C14855   2.793   3.963   4.135  0.2413  0.4317 -0.7564
  871MOL0     C14856   2.673   3.868   4.148 -0.2232 -0.0945  0.0784
  871MOL0     N14857   2.586   3.869   4.026  0.8747  0.4442 -0.0874
  871MOL0     C14858   2.607   3.786   3.923 -0.1098  0.4077 -0.0578
  871MOL0     C14859   2.504   3.815   3.838  0.9452  0.2335  0.1537
  871MOL0     C14860   2.504   3.746   3.705 -0.2276  0.1515  0.2406
  871MOL0     C14861   2.531   3.841   3.592 -0.1347 -0.2273  0.8350
  871MOL0     C14862   2.406   3.908   3.532 -0.6450 -0.9157  0.3699
  871MOL0     C14863   2.322   3.824   3.445  1.3303 -0.6562  0.2890
  871MOL0     O14864   2.392   3.752   3.343 -0.1272 -0.3550  0.1782
  871MOL0     C14865   2.325   3.732   3.216  0.1691  0.0204  1.3838
  871MOL0     C14866   2.397   3.740   3.094  0.4664 -0.1224 -0.2246
  871MOL0     C14867   2.333   3.727   2.966 -0.1878  0.4841  0.5076
  871MOL0     C14868   2.196   3.708   2.956  0.3401  0.2828  0.7450
  871MOL0     C14869   2.123   3.701   2.824  0.3624  0.8034 -0.0543
  871MOL0     O14870   2.194   3.718   2.717 -0.6079  0.2017  0.2835
  871MOL0     C14871   2.151   3.676   2.588  0.4704 -0.2546  0.5907
  871MOL0     C14872   2.033   3.593   2.559  0.1057 -0.0810  0.8160
  871MOL0     C14873   1.996   3.571   2.425  0.0284  0.5928  0.2561
  871MOL0     C14874   2.077   3.605   2.317 -0.3733  0.1508 -0.7031
  871MOL0     O14875   2.041   3.567   2.190  0.4059  0.2475 -0.3519
  871MOL0     C14876   2.135   3.580   2.082  0.4963 -0.1105  0.2664
  871MOL0     C14877   2.243   3.462   2.079 -0.2194 -0.9627  0.1198
  871MOL0     C14878   2.331   3.477   1.955 -0.7862 -0.7385 -0.2700
  871MOL0     C14879   2.477   3.429   1.980 -0.1084  0.2983  0.3380
  871MOL0     C14880   2.551   3.409   1.843  0.8488  0.2484  0.6173
  871MOL0     C14881   2.492   3.301   1.746 -0.4536  0.0437 -0.4749
  871MOL0     C14882   2.579   3.286   1.616  0.7624 -0.9149 -0.2232
  871MOL0     C14883   2.535   3.168   1.537 -0.1157 -0.3565  0.1059
  871MOL0    Cl14884   2.559   3.020   1.636 -0.0694 -0.1171  0.3111
  871MOL0     C14885   2.201   3.676   2.345  0.0217 -0.0728 -0.2303
  871MOL0     C14886   2.223   3.718   2.479 -0.1720  0.5949 -0.0522
  871MOL0     O14887   2.001   3.673   2.822  0.3947  0.0255  1.2057
  871MOL0     C14888   2.121   3.703   3.077  0.1867  0.1389 -0.4772
  871MOL0     C14889   2.183   3.717   3.199 -0.3804 -0.2776  1.0326
  871MOL0     N14890   2.416   3.905   3.904  0.5839 -0.4364 -0.1985
  871MOL0     N14891   2.461   3.929   4.021  0.0205  0.7104  0.7524
  871MOL0     C14892   2.880   3.729   3.450  0.1320 -0.6621 -0.5547
  871MOL0     C14893   2.794   3.670   3.360  1.1459  0.4874 -0.3835
  871MOL0     C14894   2.598   3.326   3.090 -0.2981 -0.8398 -0.2984
  871MOL0     C14895   2.482   3.407   3.081 -0.1679 -0.0364 -0.1014
  871MOL0     C14896   2.372   3.371   2.998 -0.1024  0.1722 -0.2076
  871MOL0     C14897   2.377   3.248   2.930  0.3969  0.2380 -0.0996
  871MOL0     O14898   2.275   3.203   2.847  0.2462 -0.2492 -0.2989
  871MOL0     C14899   2.150   3.272   2.856  1.3869  0.2526  0.7082
  871MOL0     C14900   2.076   3.260   2.992  0.9840  0.3611  0.4388
  871MOL0     C14901   1.960   3.358   3.005  0.0465 -0.0977  0.2255
  871MOL0     C14902   1.883   3.339   3.144 -0.6745 -0.5506  0.8479
  871MOL0     C14903   1.849   3.474   3.197 -0.0924  0.3853  0.5001
  871MOL0     C14904   1.834   3.577   3.265 -0.5079 -0.3100  0.0840
  871MOL0     C14905   2.494   3.179   2.934 -1.3415  0.4456 -0.1010
  871MOL0     C14906   2.605   3.209   3.013  0.3417 -1.0660  0.5248
  871MOL0     H14907   2.968   3.392   3.302  0.2102 -0.5168  2.1746
  871MOL0     H14908   3.121   3.507   3.437  0.0040 -0.4021 -0.9132
  871MOL0     H14909   3.237   3.614   3.604  1.8394  0.6412  1.4102
  871MOL0     H14910   3.098   3.575   3.712 -1.4577  0.9888 -0.5351
  871MOL0     H14911   3.278   3.825   3.745  3.2076 -2.3799  2.4555
  871MOL0     H14912   3.291   3.677   3.829 -0.8991 -2.9200 -0.9036
  871MOL0     H14913   3.153   3.782   3.980 -0.3824 -0.8651  0.3622
  871MOL0     H14914   3.022   3.722   3.875 -0.9645  1.2133 -1.1912
  871MOL0     H14915   3.136   3.987   3.901  0.7523 -0.1667 -1.8984
  871MOL0     H14916   3.055   3.941   3.747 -0.3411  0.1110  0.2723
  871MOL0     H14917   2.847   3.887   3.859 -0.5281  0.4664  1.6372
  871MOL0     H14918   2.898   4.049   3.895  2.1532 -0.2568 -2.0584
  871MOL0     H14919   2.997   3.936   4.122 -1.0344  0.0714  1.2029
  871MOL0     H14920   2.912   3.802   4.059  3.6723 -0.4728 -1.4791
  871MOL0     H14921   2.821   3.987   4.238  1.0825 -2.0632 -0.3497
  871MOL0     H14922   2.744   4.051   4.092 -1.2868 -0.3586 -0.6759
  871MOL0     H14923   2.613   3.900   4.234 -2.2633 -1.5677 -0.7234
  871MOL0     H14924   2.698   3.764   4.169 -4.1444 -1.6252 -1.7725
  871MOL0     H14925   2.699   3.730   3.906  0.8722  0.8116  3.1851
  871MOL0     H14926   2.405   3.706   3.682 -1.0704  2.1549  0.2049
  871MOL0     H14927   2.574   3.662   3.694 -0.2037  0.1580  0.3388
  871MOL0     H14928   2.576   3.776   3.517 -0.2177 -0.4739  0.9968
  871MOL0     H14929   2.609   3.915   3.609 -1.5448  1.1682  1.5027
  871MOL0     H14930   2.344   3.956   3.609  0.6152  1.1639  0.1792
  871MOL0     H14931   2.440   3.997   3.478  0.7285 -1.4244  0.3653
  871MOL0     H14932   2.240   3.887   3.408  1.2993  0.4119  2.0911
  871MOL0     H14933   2.274   3.746   3.505  2.5875 -1.4119  0.3606
  871MOL0     H14934   2.504   3.757   3.096  0.4258  0.0618  0.9961
  871MOL0     H14935   2.386   3.737   2.872  0.9649  2.1689  1.2947
  871MOL0     H14936   1.964   3.551   2.632 -2.9598  1.0104 -1.2181
  871MOL0     H14937   1.895   3.532   2.415 -0.9920  2.0565  3.5255
  871MOL0     H14938   2.178   3.680   2.086 -0.9441  0.5054  1.3242
  871MOL0     H14939   2.073   3.569   1.992  0.2654 -0.4622  0.4655
  871MOL0     H14940   2.192   3.366   2.074 -1.8884 -0.2812  2.2484
  871MOL0     H14941   2.297   3.479   2.172 -1.2376  4.1885  0.0859
  871MOL0     H14942   2.334   3.581   1.921 -0.8697 -0.1865  1.3245
  871MOL0     H14943   2.281   3.427   1.872  1.0416  0.9160 -2.4852
  871MOL0     H14944   2.532   3.507   2.032 -1.5732  1.4176  0.2600
  871MOL0     H14945   2.464   3.335   2.035 -1.1648  0.8653  1.0848
  871MOL0     H14946   2.657   3.384   1.856  0.6341 -0.1538  1.8001
  871MOL0     H14947   2.543   3.506   1.794 -1.8485  0.2084  0.7949
  871MOL0     H14948   2.392   3.332   1.714 -0.0969  1.8389  0.0772
  871MOL0     H14949   2.494   3.206   1.801  4.8805 -0.3312 -0.7899
  871MOL0     H14950   2.567   3.377   1.556  2.5416 -2.5087 -3.2065
  871MOL0     H14951   2.684   3.278   1.646  1.2365  1.7959 -0.8824
  871MOL0     H14952   2.573   3.164   1.435 -2.5073 -1.7362 -0.8143
  871MOL0     H14953   2.428   3.182   1.518 -0.1288 -2.2958 -1.6166
  871MOL0     H14954   2.269   3.705   2.266 -0.7912 -0.4314 -1.0710
  871MOL0     H14955   2.311   3.774   2.508  0.9009 -0.4817 -1.1337
  871MOL0     H14956   2.013   3.687   3.072  0.5610 -2.6610 -2.4704
  871MOL0     H14957   2.121   3.707   3.287 -3.4226  2.1053 -0.6448
  871MOL0     H14958   2.857   3.825   3.493 -1.8953 -0.7374 -1.3838
  871MOL0     H14959   2.696   3.715   3.344  1.7946  2.2858  0.3421
  871MOL0     H14960   2.475   3.502   3.132 -1.7449  0.0239 -0.3757
  871MOL0     H14961   2.293   3.444   2.986  0.2679  0.6293  0.0949
  871MOL0     H14962   2.084   3.238   2.776  0.3418  0.4003  1.4922
  871MOL0     H14963   2.172   3.378   2.838  2.7892 -0.0944  0.2804
  871MOL0     H14964   2.048   3.155   2.995  1.4650  0.2054 -0.3012
  871MOL0     H14965   2.139   3.284   3.078 -0.9595 -0.5263  2.1813
  871MOL0     H14966   1.876   3.344   2.937  0.4515 -2.2119  0.0968
  871MOL0     H14967   1.996   3.461   2.999  1.5911 -0.6653 -0.6886
  871MOL0     H14968   1.794   3.280   3.120 -1.8331  1.4176  0.0936
  871MOL0     H14969   1.950   3.297   3.219  0.9040  0.5764  0.1206
  871MOL0     H14970   1.833   3.665   3.326  1.0889  0.5272 -1.0016
  871MOL0     H14971   2.487   3.092   2.870 -1.8311  2.8882 -3.6583
  871MOL0     H14972   2.689   3.141   3.027 -0.8418 -2.4630  1.1487
  872MOL0     O14973   3.708   2.524   2.198  0.1552 -0.5628 -0.0971
  872MOL0     C14974   3.762   2.411   2.198 -0.0246  0.0880  0.2916
  872MOL0     O14975   3.696   2.290   2.196  0.5281  0.3459 -0.1122
  872MOL0     C14976   3.564   2.274   2.210  0.9963  0.0520  0.6823
  872MOL0     C14977   3.475   2.366   2.265  0.0366  0.1252  0.2987
  872MOL0     C14978   3.335   2.351   2.255  0.6624 -0.4575  0.0075
  872MOL0     C14979   3.277   2.226   2.212 -0.8313  0.3127 -0.0287
  872MOL0     O14980   3.141   2.200   2.214 -0.0223  0.2915  0.4956
  872MOL0     C14981   3.053   2.320   2.219 -0.2992 -0.7962 -0.0498
  872MOL0     C14982   2.903   2.293   2.191 -0.4506 -0.3206  0.0183
  872MOL0     C14983   2.835   2.222   2.307  0.6683  0.0309 -0.1112
  872MOL0     C14984   2.690   2.174   2.278 -0.9128 -0.0369 -0.2520
  872MOL0     C14985   2.586   2.277   2.304 -0.0542 -1.1986 -0.0296
  872MOL0     C14986   2.447   2.218   2.258 -0.0823  0.2914 -0.3139
  872MOL0     C14987   2.329   2.310   2.296 -0.6769 -0.0695  0.5562
  872MOL0     C14988   2.302   2.433   2.213 -0.2973  0.3921  0.2761
  872MOL0     N14989   2.242   2.403   2.078  0.3737 -0.1798 -0.8076
  872MOL0     C14990   2.116   2.356   2.056 -0.3401 -0.7206  0.2325
  872MOL0     C14991   2.119   2.330   1.921  0.7440  0.2963 -0.3038
  872MOL0     C14992   2.021   2.263   1.828 -0.4148 -0.9703 -0.0100
  872MOL0     C14993   1.902   2.357   1.790 -0.3332  0.0232 -0.9320
  872MOL0     C14994   1.816   2.290   1.684 -0.0431 -0.3451  0.3045
  872MOL0     C14995   1.686   2.365   1.651 -0.6724 -0.3869  0.2506
  872MOL0     O14996   1.608   2.364   1.767 -0.1554 -0.0547 -0.1940
  872MOL0     C14997   1.490   2.429   1.772  0.6203 -0.2613  0.1189
  872MOL0     C14998   1.393   2.397   1.685  1.1208  0.0912  0.1801
  872MOL0     C14999   1.266   2.468   1.680 -0.1939  0.0585  0.6350
  872MOL0     C15000   1.235   2.559   1.773 -0.4899  0.0423  0.1369
  872MOL0     C15001   1.115   2.652   1.760 -0.5757 -0.5224 -0.0802
  872MOL0     O15002   0.994   2.592   1.743 -0.9349 -0.0819 -0.0850
  872MOL0     C15003   0.875   2.655   1.773  0.0054  0.9077 -0.8761
  872MOL0     C15004   0.860   2.717   1.895 -0.6289 -0.0866  0.3056
  872MOL0     C15005   0.730   2.759   1.936 -1.5708 -0.1378 -0.8511
  872MOL0     C15006   0.620   2.744   1.860  0.4876 -0.0779  0.3892
  872MOL0     O15007   0.504   2.818   1.874 -0.1029  0.5273  0.1419
  872MOL0     C15008   0.442   2.806   2.001  0.0208  0.9420  0.1565
  872MOL0     C15009   0.298   2.860   2.009  0.7496 -0.2210 -0.4275
  872MOL0     C15010   0.207   2.773   1.920  0.3864  0.1622 -0.0017
  872MOL0     C15011   0.089   2.855   1.876 -0.1447 -0.6363  0.3557
  872MOL0     C15012   0.000   2.770   1.780  0.7406  0.0185  0.6279
  872MOL0     C15013  -0.146   2.822   1.766 -0.5509  0.3295 -1.0320
  872MOL0     C15014  -0.229   2.738   1.660 -0.1320 -0.3957 -0.5306
  872MOL0     C15015  -0.371   2.773   1.666  0.8480 -0.3293 -0.4789
  872MOL0    Cl15016  -0.453   2.711   1.523  0.1747  0.1362  0.6301
  872MOL0     C15017   0.633   2.671   1.748 -0.1963  0.1938  0.1384
  872MOL0     C15018   0.751   2.624   1.713  0.0839  0.9484 -0.0355
  872MOL0     O15019   1.137   2.770   1.794  0.5231 -0.3865 -0.0965
  872MOL0     C15020   1.331   2.583   1.876 -0.0227  0.4714 -0.5144
  872MOL0     C15021   1.464   2.525   1.872  0.2746  0.0973 -0.8974
  872MOL0     N15022   2.250   2.355   1.866  0.1535  0.2149 -0.4972
  872MOL0     N15023   2.316   2.401   1.968  0.9984  0.1180  0.9250
  872MOL0     C15024   3.363   2.128   2.171 -0.1875  0.5204 -0.1240
  872MOL0     C15025   3.502   2.143   2.177  0.2072 -0.2844 -0.8372
  872MOL0     C15026   3.910   2.392   2.171  0.4401  0.7389  0.8393
  872MOL0     C15027   3.987   2.506   2.166 -0.6167 -0.0849  1.1387
  872MOL0     C15028   4.127   2.498   2.128  0.4669 -0.7778 -0.1449
  872MOL0     C15029   4.177   2.369   2.092 -0.2074  0.2902  1.0836
  872MOL0     O15030   4.312   2.375   2.055  0.3095  0.8359  0.4888
  872MOL0     C15031   4.378   2.256   2.069 -0.3162 -0.3078 -0.2877
  872MOL0     C15032   4.525   2.282   2.078 -0.2528  1.0211 -0.2627
  872MOL0     C15033   4.581   2.138   2.109  0.7386 -0.8768  0.2014
  872MOL0     C15034   4.728   2.131   2.069 -0.1031  0.5514 -0.3113
  872MOL0     C15035   4.743   2.146   1.927 -0.4622 -0.3231 -0.3566
  872MOL0     C15036   4.753   2.177   1.804 -0.5203 -0.2357 -0.0887
  872MOL0     C15037   4.097   2.258   2.096  0.0986 -0.2267  0.9495
  872MOL0     C15038   3.965   2.268   2.135  0.0932 -0.8254 -0.5588
  872MOL0     H15039   3.525   2.454   2.304  2.5364 -0.1434 -1.9492
  872MOL0     H15040   3.284   2.438   2.294 -0.7982 -1.8713  1.4107
  872MOL0     H15041   3.078   2.391   2.140  2.8391 -1.6538  0.0369
  872MOL0     H15042   3.074   2.358   2.319  0.3187 -0.8341 -0.1558
  872MOL0     H15043   2.899   2.248   2.091 -1.6638  1.0327 -0.5851
  872MOL0     H15044   2.851   2.388   2.177  0.1107 -0.0527 -0.2845
  872MOL0     H15045   2.829   2.289   2.394 -2.2262 -2.1779  1.5593
  872MOL0     H15046   2.894   2.135   2.337  0.4807 -0.2966 -0.6836
  872MOL0     H15047   2.683   2.147   2.173  0.3225 -1.9054  0.0958
  872MOL0     H15048   2.665   2.095   2.350  1.0027 -1.2767 -0.8846
  872MOL0     H15049   2.618   2.370   2.257  1.5476 -2.5405 -1.7721
  872MOL0     H15050   2.588   2.291   2.413  1.8239 -0.1955 -0.1670
  872MOL0     H15051   2.429   2.120   2.303 -3.4892 -0.2354 -2.4921
  872MOL0     H15052   2.453   2.206   2.150 -0.3453 -1.8052 -0.1444
  872MOL0     H15053   2.234   2.256   2.295 -2.3661  2.5064 -3.5509
  872MOL0     H15054   2.337   2.334   2.402 -1.9789  1.1961  0.4048
  872MOL0     H15055   2.398   2.482   2.197 -0.4301  0.6485  0.2634
  872MOL0     H15056   2.254   2.512   2.271  0.1447  0.5158  0.4718
  872MOL0     H15057   2.039   2.323   2.125 -0.2128 -1.2541  0.1248
  872MOL0     H15058   1.980   2.167   1.862  3.2476 -1.7417  2.8911
  872MOL0     H15059   2.082   2.239   1.740  0.5783  1.7993 -0.1606
  872MOL0     H15060   1.927   2.457   1.754 -0.0960  0.6394  0.8912
  872MOL0     H15061   1.843   2.372   1.881  3.4769  1.3841  1.5544
  872MOL0     H15062   1.878   2.280   1.595  0.7409  3.4952  0.2658
  872MOL0     H15063   1.773   2.194   1.715 -3.5363 -0.6068 -4.1913
  872MOL0     H15064   1.646   2.344   1.552  0.5715  1.7318 -0.7717
  872MOL0     H15065   1.705   2.472   1.639 -0.3246 -0.3159  1.2979
  872MOL0     H15066   1.427   2.323   1.614 -1.8943 -0.7098 -0.5420
  872MOL0     H15067   1.201   2.434   1.600  1.6415  0.0021 -0.9055
  872MOL0     H15068   0.945   2.753   1.952  0.9624 -0.5100 -1.6853
  872MOL0     H15069   0.716   2.811   2.030  0.1031  1.1360 -1.2557
  872MOL0     H15070   0.503   2.871   2.063 -1.5263  0.4133  2.3960
  872MOL0     H15071   0.445   2.703   2.040  2.2573  1.8978  2.7914
  872MOL0     H15072   0.293   2.958   1.960 -2.2543 -1.1016 -2.1173
  872MOL0     H15073   0.266   2.866   2.114 -3.0894  2.0058 -1.5116
  872MOL0     H15074   0.176   2.682   1.973 -3.0280  1.1909 -0.0256
  872MOL0     H15075   0.265   2.747   1.831 -1.4922 -3.5317 -0.3438
  872MOL0     H15076   0.031   2.889   1.962  1.4030  0.1555  1.1322
  872MOL0     H15077   0.132   2.945   1.831  0.6450 -0.4687  1.4158
  872MOL0     H15078  -0.006   2.663   1.805 -1.6580  0.4193  2.0353
  872MOL0     H15079   0.042   2.788   1.681  0.4833  4.4303  1.1292
  872MOL0     H15080  -0.154   2.928   1.739 -1.1818 -0.3566 -3.8606
  872MOL0     H15081  -0.198   2.805   1.861 -1.0079  2.2025 -0.9075
  872MOL0     H15082  -0.181   2.754   1.562 -1.0332  0.9592 -0.7753
  872MOL0     H15083  -0.210   2.631   1.677 -0.4677 -0.3512  0.1434
  872MOL0     H15084  -0.373   2.882   1.662 -0.3640 -0.3127  0.0085
  872MOL0     H15085  -0.420   2.733   1.755 -1.1964  2.4720 -0.1930
  872MOL0     H15086   0.547   2.639   1.690 -0.7772  3.4779 -1.0539
  872MOL0     H15087   0.764   2.577   1.616 -0.4418  1.4344 -0.3502
  872MOL0     H15088   1.300   2.653   1.953 -2.6299 -0.9079 -0.2083
  872MOL0     H15089   1.537   2.549   1.949 -3.3615  4.5338  1.6723
  872MOL0     H15090   3.324   2.029   2.148  0.3034  0.7458 -2.0799
  872MOL0     H15091   3.562   2.057   2.149  1.9369  0.7411 -0.4201
  872MOL0     H15092   3.953   2.604   2.196  2.0175  1.4989 -0.6047
  872MOL0     H15093   4.185   2.590   2.120  0.2294 -0.4055  1.8590
  872MOL0     H15094   4.353   2.196   1.981 -1.8451  1.1670 -0.9010
  872MOL0     H15095   4.350   2.201   2.159 -0.1837  2.3584  1.4911
  872MOL0     H15096   4.551   2.312   1.976  2.3463  0.2134  0.0737
  872MOL0     H15097   4.544   2.364   2.148 -5.1403  1.0778  1.3591
  872MOL0     H15098   4.523   2.061   2.056  0.6148 -2.2735  2.2423
  872MOL0     H15099   4.577   2.115   2.216  0.3510 -1.0075  0.1591
  872MOL0     H15100   4.780   2.205   2.131  2.7382 -2.3342  1.0737
  872MOL0     H15101   4.753   2.028   2.094  1.2982  0.4402 -1.9802
  872MOL0     H15102   4.772   2.202   1.701  1.1005  0.6970  0.4027
  872MOL0     H15103   4.143   2.165   2.064 -0.5148 -0.4789  0.7787
  872MOL0     H15104   3.926   2.167   2.139 -0.5689 -0.5355  2.0976
  873MOL0     O15105   0.414   2.726   4.044  0.8203 -0.3398 -0.2911
  873MOL0     C15106   0.318   2.673   4.112 -0.2481 -0.0325  0.2305
  873MOL0     O15107   0.330   2.567   4.193  0.1046  0.7118 -0.6454
  873MOL0     C15108   0.454   2.517   4.211 -0.3660  0.3000 -0.5083
  873MOL0     C15109   0.516   2.424   4.128 -0.0683 -0.2555 -0.9153
  873MOL0     C15110   0.635   2.361   4.164 -0.2834  0.1718  0.4474
  873MOL0     C15111   0.707   2.395   4.287  0.2442 -0.2808 -0.4216
  873MOL0     O15112   0.822   2.329   4.317  0.7290  0.5377 -0.5579
  873MOL0     C15113   0.877   2.342   4.447  0.0437  0.1494  0.2400
  873MOL0     C15114   0.996   2.252   4.454  0.6846  0.3838 -0.8766
  873MOL0     C15115   1.104   2.284   4.358 -0.2060 -0.2688 -0.5051
  873MOL0     C15116   1.202   2.171   4.354 -0.1077 -0.3174 -0.2946
  873MOL0     C15117   1.310   2.189   4.239 -0.8256  0.3810 -1.0665
  873MOL0     C15118   1.423   2.286   4.287 -0.0296  0.1227  0.5723
  873MOL0     C15119   1.519   2.320   4.175 -0.0774 -0.4481  0.0931
  873MOL0     C15120   1.627   2.223   4.140  0.6430  0.6958 -0.2067
  873MOL0     N15121   1.713   2.269   4.027  0.3331 -0.2147  0.0509
  873MOL0     C15122   1.786   2.187   3.948  0.3854  0.9309  0.4609
  873MOL0     C15123   1.814   2.260   3.835  0.3532 -0.2322 -0.0168
  873MOL0     C15124   1.920   2.238   3.728 -0.7142 -0.0973  0.3247
  873MOL0     C15125   1.857   2.259   3.599 -0.0032  0.1433  0.7027
  873MOL0     C15126   1.740   2.170   3.569 -0.1771 -0.4508 -0.0007
  873MOL0     C15127   1.637   2.234   3.481 -0.0566  0.2505 -0.1572
  873MOL0     O15128   1.510   2.174   3.505 -0.6745 -0.9733 -0.1859
  873MOL0     C15129   1.400   2.250   3.451 -0.0715  0.1050 -0.7076
  873MOL0     C15130   1.395   2.357   3.359  0.0769  0.3179 -0.1873
  873MOL0     C15131   1.281   2.407   3.305  0.0623 -0.3534 -0.3884
  873MOL0     C15132   1.157   2.369   3.343 -0.6475 -0.5140  0.2824
  873MOL0     C15133   1.035   2.432   3.286  0.6497  0.4448  0.4954
  873MOL0     O15134   0.927   2.414   3.376  0.3651 -0.4689  0.2908
  873MOL0     C15135   0.810   2.442   3.316 -0.2520  0.0531 -1.0089
  873MOL0     C15136   0.752   2.351   3.228  0.4778 -0.4630 -0.3913
  873MOL0     C15137   0.623   2.382   3.184  0.3566 -0.3597 -0.1440
  873MOL0     C15138   0.554   2.493   3.224  0.2910  0.0133  0.2930
  873MOL0     O15139   0.423   2.515   3.180 -0.7554 -0.1984  0.4738
  873MOL0     C15140   0.321   2.544   3.271 -0.4780  0.8540 -0.2368
  873MOL0     C15141   0.187   2.582   3.210  0.4483  1.1693  0.5995
  873MOL0     C15142   0.123   2.460   3.139  0.0028  0.2416  0.1279
  873MOL0     C15143   0.054   2.362   3.231 -0.0034  1.0293 -0.1563
  873MOL0     C15144  -0.007   2.242   3.165  0.4960  0.7321  1.0949
  873MOL0     C15145  -0.106   2.161   3.249 -0.3802 -0.1307 -0.2434
  873MOL0     C15146  -0.035   2.091   3.363  0.1468 -0.6169  0.3437
  873MOL0     C15147  -0.133   1.989   3.425 -0.4776  0.4468 -0.3264
  873MOL0    Cl15148  -0.136   1.850   3.311 -0.1795 -0.3941  0.1475
  873MOL0     C15149   0.625   2.578   3.312  1.8496  0.6860  0.9072
  873MOL0     C15150   0.747   2.549   3.363 -0.7104 -0.3218  0.0112
  873MOL0     O15151   1.031   2.473   3.168 -0.0767  0.0974 -0.1960
  873MOL0     C15152   1.157   2.265   3.446 -0.2648  0.0487 -0.0017
  873MOL0     C15153   1.276   2.202   3.487 -0.8082 -1.2078 -0.9335
  873MOL0     N15154   1.754   2.384   3.843  0.2755 -0.0512 -0.0839
  873MOL0     N15155   1.677   2.377   3.949  0.7050  0.2021  0.0978
  873MOL0     C15156   0.637   2.488   4.367 -0.6252  0.6831  0.1369
  873MOL0     C15157   0.512   2.542   4.328 -0.2215  0.1953 -1.0177
  873MOL0     C15158   0.183   2.721   4.086  0.4030 -0.3567 -0.3979
  873MOL0     C15159   0.071   2.692   4.168 -0.6203  1.8195 -0.0534
  873MOL0     C15160  -0.053   2.733   4.126  0.4165  0.1948 -0.0562
  873MOL0     C15161  -0.088   2.811   4.020 -0.3708 -0.5076 -0.5554
  873MOL0     O15162  -0.222   2.825   4.004 -0.0477 -0.7846 -0.2094
  873MOL0     C15163  -0.262   2.864   3.870 -0.2840 -0.5998 -0.0306
  873MOL0     C15164  -0.216   2.790   3.749  0.3248  0.5030 -0.2659
  873MOL0     C15165  -0.227   2.640   3.772  0.4126 -0.0598  0.4293
  873MOL0     C15166  -0.182   2.561   3.639 -1.1287  0.7243  0.1601
  873MOL0     C15167  -0.264   2.599   3.524  0.9688  0.2623 -0.6728
  873MOL0     C15168  -0.323   2.626   3.425 -0.4710  0.1457 -0.1737
  873MOL0     C15169   0.020   2.876   3.958 -0.3988  0.2109  0.5067
  873MOL0     C15170   0.149   2.820   3.984 -0.3801  0.3834 -0.1515
  873MOL0     H15171   0.465   2.403   4.035 -1.4812 -0.3116 -0.1598
  873MOL0     H15172   0.664   2.272   4.109 -0.4829 -1.4814  2.8534
  873MOL0     H15173   0.807   2.320   4.528  1.0033  2.2871  1.7573
  873MOL0     H15174   0.905   2.447   4.461  0.5029 -0.0058  0.5199
  873MOL0     H15175   0.955   2.151   4.445  0.8315 -0.2138  3.0974
  873MOL0     H15176   1.036   2.242   4.556 -1.0719 -1.7468 -0.3215
  873MOL0     H15177   1.145   2.380   4.391  1.0112  0.1705 -3.0593
  873MOL0     H15178   1.061   2.300   4.258 -0.1672  0.7493 -0.3723
  873MOL0     H15179   1.261   2.165   4.447  1.3291 -6.9899 -1.1514
  873MOL0     H15180   1.146   2.079   4.340  0.8694 -0.7965 -1.1855
  873MOL0     H15181   1.258   2.233   4.154  1.8709  2.6550 -1.6812
  873MOL0     H15182   1.364   2.096   4.219  1.9979  0.8202  3.2918
  873MOL0     H15183   1.476   2.242   4.373  0.9561  1.0904  0.4879
  873MOL0     H15184   1.392   2.379   4.335  0.1531 -0.4315  1.8122
  873MOL0     H15185   1.462   2.357   4.089  0.0887  0.1488  0.2309
  873MOL0     H15186   1.571   2.411   4.206 -1.5817  0.4184  0.2035
  873MOL0     H15187   1.577   2.130   4.111  0.8559  0.8246 -1.0219
  873MOL0     H15188   1.686   2.188   4.225 -2.4131 -1.5642  1.1805
  873MOL0     H15189   1.826   2.089   3.975  0.1039  1.2440  2.1488
  873MOL0     H15190   1.955   2.134   3.730  1.1314  0.4983  0.5263
  873MOL0     H15191   2.006   2.304   3.742 -3.0535  2.7682  2.3542
  873MOL0     H15192   1.927   2.257   3.515 -1.6353  1.2858 -0.7690
  873MOL0     H15193   1.836   2.366   3.591 -1.1449 -0.2218 -4.1648
  873MOL0     H15194   1.782   2.077   3.530 -2.2658 -1.0807 -0.9317
  873MOL0     H15195   1.698   2.132   3.663  0.8718  2.3526  1.7232
  873MOL0     H15196   1.669   2.202   3.381 -2.0102 -0.6923 -0.5287
  873MOL0     H15197   1.637   2.343   3.486 -0.5305  0.2366  0.2025
  873MOL0     H15198   1.491   2.396   3.325 -0.0216 -0.9476 -2.0319
  873MOL0     H15199   1.283   2.497   3.244 -0.0118 -0.1268 -0.0581
  873MOL0     H15200   0.791   2.256   3.192  2.1565 -0.8030  2.1104
  873MOL0     H15201   0.577   2.318   3.109 -0.9259  1.0072 -0.5629
  873MOL0     H15202   0.339   2.640   3.321 -1.0111  1.0846 -0.4729
  873MOL0     H15203   0.328   2.470   3.351  3.2435 -0.1182 -1.2773
  873MOL0     H15204   0.200   2.657   3.132 -0.1087  1.7457  1.0498
  873MOL0     H15205   0.119   2.627   3.283  0.4357  2.5692 -0.2495
  873MOL0     H15206   0.206   2.411   3.088 -0.1981  1.1665 -1.1252
  873MOL0     H15207   0.056   2.505   3.065  2.3208  2.1162 -0.9474
  873MOL0     H15208   0.125   2.321   3.303 -1.3122  0.5997  0.9292
  873MOL0     H15209  -0.030   2.417   3.274 -0.3605  1.7057 -1.6396
  873MOL0     H15210   0.068   2.172   3.127 -0.4918 -0.9962  2.1258
  873MOL0     H15211  -0.070   2.274   3.082  0.7292 -0.3424  0.4813
  873MOL0     H15212  -0.148   2.076   3.193  0.1926 -1.7541  1.6864
  873MOL0     H15213  -0.188   2.226   3.280  0.8290  0.3592  2.2015
  873MOL0     H15214   0.059   2.046   3.331 -1.8110 -3.9780 -1.1709
  873MOL0     H15215  -0.015   2.170   3.436  0.3160  0.9853 -1.3467
  873MOL0     H15216  -0.231   2.036   3.438 -0.3256  0.2853  1.6532
  873MOL0     H15217  -0.099   1.954   3.523  1.2088  2.2957 -0.1852
  873MOL0     H15218   0.572   2.670   3.332 -0.3598 -0.0033 -1.3479
  873MOL0     H15219   0.794   2.612   3.437 -0.9461 -0.9714  0.7250
  873MOL0     H15220   1.066   2.243   3.501 -0.5717  1.1852 -0.0273
  873MOL0     H15221   1.285   2.119   3.556 -1.4262  1.4615  2.6602
  873MOL0     H15222   0.676   2.513   4.465 -1.7209  1.1423  0.4803
  873MOL0     H15223   0.460   2.605   4.399  1.5613  1.1188 -0.4721
  873MOL0     H15224   0.082   2.637   4.261  1.5225  1.5172 -0.4331
  873MOL0     H15225  -0.132   2.721   4.200  1.4994  1.1312  1.3313
  873MOL0     H15226  -0.224   2.966   3.859  0.9029 -0.9873  0.2652
  873MOL0     H15227  -0.371   2.856   3.868 -0.1960 -2.6283  1.1458
  873MOL0     H15228  -0.280   2.818   3.666 -1.4922  0.3042  1.0077
  873MOL0     H15229  -0.113   2.810   3.715  0.6675 -1.1570 -0.2980
  873MOL0     H15230  -0.330   2.615   3.799 -0.7329  3.2963 -0.3567
  873MOL0     H15231  -0.149   2.606   3.841 -0.5019 -1.5820  0.7700
  873MOL0     H15232  -0.085   2.600   3.609 -1.0983  1.1228  0.7569
  873MOL0     H15233  -0.190   2.453   3.656  0.4863  0.2199 -1.8860
  873MOL0     H15234  -0.341   2.656   3.324  0.4440 -0.3345 -0.4953
  873MOL0     H15235   0.002   2.954   3.884  2.2165 -0.7106 -1.2551
  873MOL0     H15236   0.223   2.859   3.915  0.4167 -1.2271 -0.2664
  874MOL0     O15237   6.197  11.166   1.809 -0.4772 -0.2420 -0.7547
  874MOL0     C15238   6.154  11.243   1.886  0.4634 -0.3384  0.6054
  874MOL0     O15239   6.234  11.309   1.984 -0.4725 -0.6005  0.4328
  874MOL0     C15240   6.369  11.305   1.966 -0.9720 -0.2906  1.2001
  874MOL0     C15241   6.425  11.400   1.879  0.1946 -0.1303 -0.4480
  874MOL0     C15242   6.561  11.408   1.865 -0.7091  0.2957  0.4526
  874MOL0     C15243   6.644  11.313   1.928  0.5868 -1.3429 -0.3296
  874MOL0     O15244   6.775  11.318   1.899 -0.4891  0.0582  0.1944
  874MOL0     C15245   6.855  11.194   1.902 -0.1428  0.5815 -0.1805
  874MOL0     C15246   6.996  11.226   1.850  0.2944  1.4438  0.8133
  874MOL0     C15247   6.986  11.239   1.698 -0.7087 -0.7135 -0.4110
  874MOL0     C15248   7.124  11.281   1.644 -0.5266 -0.6704  0.4474
  874MOL0     C15249   7.228  11.167   1.646 -0.0115 -0.5917 -0.1100
  874MOL0     C15250   7.364  11.229   1.631 -0.1764  0.5907  0.4730
  874MOL0     C15251   7.455  11.122   1.569  1.1028 -0.1619  0.1517
  874MOL0     C15252   7.548  11.067   1.690 -0.5121  1.1705  1.2265
  874MOL0     N15253   7.663  11.157   1.730  0.3407  0.7199  0.2029
  874MOL0     C15254   7.738  11.232   1.641  0.6636  0.1630 -0.1548
  874MOL0     C15255   7.818  11.311   1.710 -0.2902  0.3827 -0.1464
  874MOL0     C15256   7.911  11.418   1.668 -0.4302  0.1145 -0.7041
  874MOL0     C15257   7.850  11.513   1.575 -0.0702  0.1146  0.4048
  874MOL0     C15258   7.723  11.592   1.636 -1.0684  1.0628  0.0278
  874MOL0     C15259   7.761  11.659   1.778  0.4327 -0.3183  0.8100
  874MOL0     O15260   7.699  11.794   1.767  0.5408  0.1795  0.0188
  874MOL0     C15261   7.559  11.797   1.782 -0.4219  0.0331 -0.4259
  874MOL0     C15262   7.489  11.904   1.742  0.4979 -0.2367 -0.4358
  874MOL0     C15263   7.347  11.908   1.756 -0.2349  0.1686 -0.7108
  874MOL0     C15264   7.270  11.800   1.796 -0.1581  0.3419 -0.1977
  874MOL0     C15265   7.130  11.816   1.818  0.2013 -0.5596 -0.5187
  874MOL0     O15266   7.069  11.715   1.904 -0.1408 -0.4782 -0.5219
  874MOL0     C15267   6.944  11.755   1.954  0.4193 -0.1609  0.4803
  874MOL0     C15268   6.831  11.686   1.917 -0.6699 -0.1821 -0.2613
  874MOL0     C15269   6.706  11.726   1.962 -1.0141 -0.7552 -0.2008
  874MOL0     C15270   6.698  11.834   2.050  0.9069 -1.0906  0.7827
  874MOL0     O15271   6.576  11.857   2.105  0.2097 -0.2960  0.6456
  874MOL0     C15272   6.553  11.983   2.160  0.0087 -0.6213  0.5101
  874MOL0     C15273   6.400  12.005   2.157  0.4093  0.4272 -0.6851
  874MOL0     C15274   6.362  12.087   2.285 -0.4787  0.0503  0.9298
  874MOL0     C15275   6.215  12.104   2.287  0.9412 -0.0093  0.4522
  874MOL0     C15276   6.169  12.227   2.372  0.3388 -0.9133 -0.7478
  874MOL0     C15277   6.020  12.212   2.411  0.2627 -0.3167 -1.2299
  874MOL0     C15278   5.914  12.169   2.304  0.0747  0.4077 -0.3073
  874MOL0     C15279   5.869  12.284   2.217  0.0767 -0.6658  0.2454
  874MOL0    Cl15280   5.791  12.250   2.058  0.4409  0.0342  0.2131
  874MOL0     C15281   6.816  11.893   2.101 -0.2478 -0.3371  0.3162
  874MOL0     C15282   6.943  11.864   2.049 -0.7201  0.4392 -0.5618
  874MOL0     O15283   7.077  11.921   1.786  0.3815 -0.0131  0.4048
  874MOL0     C15284   7.348  11.692   1.835  0.2353  1.1869 -0.0716
  874MOL0     C15285   7.486  11.693   1.830  0.5223  0.0919  0.2913
  874MOL0     N15286   7.791  11.283   1.850  0.7608  0.2722  0.0123
  874MOL0     N15287   7.696  11.196   1.864 -0.1788  0.5665  0.0778
  874MOL0     C15288   6.587  11.217   2.012  0.1505  0.6987  0.0480
  874MOL0     C15289   6.442  11.206   2.021 -0.6300  0.2162 -0.1634
  874MOL0     C15290   6.001  11.271   1.901 -0.8947 -0.4754  0.1146
  874MOL0     C15291   5.943  11.388   1.959 -0.7555  0.0470  0.0635
  874MOL0     C15292   5.804  11.389   1.973 -0.0563 -0.0261 -0.1326
  874MOL0     C15293   5.717  11.284   1.932 -0.4382 -0.2058 -0.8157
  874MOL0     O15294   5.582  11.273   1.942  0.4890  0.0830  0.0278
  874MOL0     C15295   5.517  11.406   1.951  0.7469  0.2428  0.2068
  874MOL0     C15296   5.437  11.427   2.073  0.4785 -0.2681 -0.1975
  874MOL0     C15297   5.330  11.538   2.054 -0.1141 -0.4044 -0.1411
  874MOL0     C15298   5.283  11.561   2.201 -0.0664  0.9818  0.5822
  874MOL0     C15299   5.148  11.624   2.201  0.0887 -0.4456  1.1232
  874MOL0     C15300   5.043  11.682   2.183  0.4575 -0.3584 -0.3636
  874MOL0     C15301   5.773  11.184   1.863  0.2032 -0.7228  0.2456
  874MOL0     C15302   5.914  11.178   1.852  0.3090 -0.2460  0.3468
  874MOL0     H15303   6.373  11.481   1.830  1.5164  0.0743 -1.5811
  874MOL0     H15304   6.602  11.489   1.806  1.4890 -0.9781  0.1262
  874MOL0     H15305   6.805  11.117   1.842 -0.9952 -0.4102  1.6994
  874MOL0     H15306   6.871  11.162   2.005  1.2017 -4.3244 -1.6387
  874MOL0     H15307   7.062  11.140   1.868  1.5280  1.9853 -0.8662
  874MOL0     H15308   7.042  11.311   1.901 -0.9627  1.6990  1.5632
  874MOL0     H15309   6.911  11.317   1.683 -0.1065  0.3209  1.6142
  874MOL0     H15310   6.961  11.143   1.651  0.0505 -1.0158 -0.2250
  874MOL0     H15311   7.118  11.318   1.541 -2.2169 -1.8837  0.0768
  874MOL0     H15312   7.166  11.360   1.707  1.5954 -1.1860 -0.2249
  874MOL0     H15313   7.208  11.104   1.559  3.0969 -1.1197 -0.5615
  874MOL0     H15314   7.227  11.104   1.736 -2.2056 -0.1593  0.2168
  874MOL0     H15315   7.410  11.267   1.722 -0.2728  0.1520  0.7086
  874MOL0     H15316   7.364  11.312   1.559  1.6897 -1.9346 -2.7472
  874MOL0     H15317   7.386  11.046   1.530  1.3814 -1.0728  1.3895
  874MOL0     H15318   7.516  11.165   1.490  0.8658 -1.2641 -0.6589
  874MOL0     H15319   7.590  10.970   1.662 -0.8156  1.6064 -0.9739
  874MOL0     H15320   7.496  11.044   1.783 -3.3300  1.7335 -0.0901
  874MOL0     H15321   7.744  11.218   1.533  1.9772 -2.8638  0.2133
  874MOL0     H15322   7.985  11.363   1.610  1.5944  0.4402  1.4484
  874MOL0     H15323   7.962  11.461   1.755  0.1810  0.8680 -1.4177
  874MOL0     H15324   7.816  11.456   1.489 -1.0733  0.4505  0.5704
  874MOL0     H15325   7.929  11.581   1.542  0.6708 -1.4990 -1.3077
  874MOL0     H15326   7.695  11.674   1.570 -3.9881  0.6708  0.6571
  874MOL0     H15327   7.635  11.533   1.661 -0.9434  1.6745  2.1140
  874MOL0     H15328   7.867  11.684   1.790  1.4395 -4.0669  0.8903
  874MOL0     H15329   7.731  11.597   1.862 -1.2210  2.0233  2.0423
  874MOL0     H15330   7.539  11.991   1.699 -0.0689  0.2595 -0.0906
  874MOL0     H15331   7.288  11.992   1.720 -1.4232 -0.1832  0.3752
  874MOL0     H15332   6.850  11.596   1.859 -0.8458 -2.0131  2.3566
  874MOL0     H15333   6.616  11.669   1.939  0.5041 -2.4545 -2.2451
  874MOL0     H15334   6.602  12.058   2.097 -3.8627  0.9973 -0.8668
  874MOL0     H15335   6.592  11.985   2.262  0.7088 -0.5281  0.2460
  874MOL0     H15336   6.351  11.907   2.154 -0.3707  0.8129 -0.8649
  874MOL0     H15337   6.376  12.063   2.067  0.7502 -0.0825 -1.1066
  874MOL0     H15338   6.408  12.187   2.280 -0.0310 -0.2075 -0.9705
  874MOL0     H15339   6.404  12.042   2.375  2.4588 -0.1819 -0.4214
  874MOL0     H15340   6.172  12.122   2.188  0.4131  1.3943  0.9113
  874MOL0     H15341   6.186  12.007   2.328  3.9004 -1.0253  0.4395
  874MOL0     H15342   6.175  12.317   2.309 -0.4126 -1.8832 -2.2582
  874MOL0     H15343   6.222  12.230   2.467 -2.1427 -0.9010  0.7215
  874MOL0     H15344   5.982  12.310   2.442 -2.9786 -1.6402 -0.5444
  874MOL0     H15345   6.020  12.150   2.501  1.4492  0.8070 -0.4254
  874MOL0     H15346   5.954  12.093   2.237  0.2595  1.2373 -1.1657
  874MOL0     H15347   5.832  12.129   2.364 -0.2367  1.2534 -0.1543
  874MOL0     H15348   5.959  12.334   2.179  2.2002 -3.5847  1.0182
  874MOL0     H15349   5.816  12.349   2.286 -0.3933 -2.3270  1.5202
  874MOL0     H15350   6.792  11.962   2.181 -1.7186  1.8038 -1.8305
  874MOL0     H15351   7.029  11.908   2.098  0.4028 -0.5768 -1.5463
  874MOL0     H15352   7.307  11.600   1.876  4.0715 -1.2825 -1.2067
  874MOL0     H15353   7.539  11.610   1.875  2.9611 -1.4172 -4.5747
  874MOL0     H15354   6.639  11.144   2.074  1.0862  1.3902  0.0862
  874MOL0     H15355   6.405  11.120   2.075  2.4555  0.7806  3.2398
  874MOL0     H15356   5.997  11.468   2.008 -0.5712 -1.2293  2.0980
  874MOL0     H15357   5.760  11.468   2.033 -0.9984 -0.9675  0.4800
  874MOL0     H15358   5.444  11.397   1.870 -0.0810  0.0933  0.9540
  874MOL0     H15359   5.581  11.494   1.942 -1.6828  1.8775 -2.8213
  874MOL0     H15360   5.396  11.332   2.107  1.6956 -0.8782 -0.3646
  874MOL0     H15361   5.496  11.461   2.159  2.3865 -2.4367 -0.5374
  874MOL0     H15362   5.245  11.495   2.001  0.0397  0.3252 -1.0128
  874MOL0     H15363   5.365  11.630   2.005 -0.7165  1.0792  2.0313
  874MOL0     H15364   5.280  11.471   2.264 -2.8183 -1.3115 -2.4877
  874MOL0     H15365   5.344  11.639   2.246 -1.1966  0.8971  2.3854
  874MOL0     H15366   4.952  11.734   2.163  0.6320  0.1843  0.2315
  874MOL0     H15367   5.721  11.098   1.824 -0.9428 -0.7585  1.7676
  874MOL0     H15368   5.950  11.087   1.804 -2.1179  0.1090 -2.4400
  875MOL0     O15369   2.467   2.470   4.070  0.8238 -0.3121 -0.5750
  875MOL0     C15370   2.449   2.348   4.062 -0.5993 -0.4047  0.8040
  875MOL0     O15371   2.333   2.277   4.081  0.4206 -0.3122 -0.1879
  875MOL0     C15372   2.230   2.365   4.137  0.5134  0.3895 -0.3700
  875MOL0     C15373   2.236   2.410   4.271  0.7312  0.4655  0.5817
  875MOL0     C15374   2.126   2.487   4.320 -0.6621 -0.4737  0.7001
  875MOL0     C15375   2.011   2.509   4.248  0.3947  0.0051  0.6958
  875MOL0     O15376   1.914   2.598   4.298  0.1852  0.2841 -0.4119
  875MOL0     C15377   1.817   2.642   4.202  0.1799 -1.1383 -0.0846
  875MOL0     C15378   1.722   2.737   4.291  0.0007  1.5639  0.3248
  875MOL0     C15379   1.604   2.794   4.222 -0.3155  0.4190  0.0399
  875MOL0     C15380   1.492   2.682   4.189  0.4069 -0.1872  0.7958
  875MOL0     C15381   1.384   2.745   4.104 -0.4340 -0.4971 -0.7378
  875MOL0     C15382   1.279   2.657   4.038  0.3017  0.5551 -1.9462
  875MOL0     C15383   1.209   2.571   4.146  0.1411 -0.1257  0.1032
  875MOL0     C15384   1.142   2.638   4.266 -0.1928 -0.0070 -0.5199
  875MOL0     N15385   1.049   2.748   4.233  0.3164 -0.2760 -0.1584
  875MOL0     C15386   0.929   2.730   4.167 -0.4776 -0.3945 -0.2930
  875MOL0     C15387   0.869   2.843   4.158  0.2554  0.2613  0.0904
  875MOL0     C15388   0.737   2.852   4.099 -0.1434 -0.6203  0.7108
  875MOL0     C15389   0.698   3.003   4.062  0.0579 -0.1815  0.1777
  875MOL0     C15390   0.586   3.000   3.956  0.2939  0.4557  0.0720
  875MOL0     C15391   0.583   3.125   3.874 -0.1604  0.4954 -0.2736
  875MOL0     O15392   0.517   3.218   3.957 -0.5835 -0.5256  0.7483
  875MOL0     C15393   0.381   3.230   3.948  1.0994 -0.6352  0.6412
  875MOL0     C15394   0.329   3.266   4.077 -0.5375  0.2545  0.5412
  875MOL0     C15395   0.197   3.276   4.095 -0.7212  0.2976  0.0938
  875MOL0     C15396   0.109   3.250   3.988  0.3341 -0.8369  0.1384
  875MOL0     C15397  -0.032   3.266   4.005 -0.0638 -1.0059  0.5276
  875MOL0     O15398  -0.123   3.216   3.914  0.3085 -0.4841 -0.5118
  875MOL0     C15399  -0.255   3.210   3.940 -0.4000  0.9516 -0.4826
  875MOL0     C15400  -0.348   3.248   3.841 -0.0120 -0.1607  0.4002
  875MOL0     C15401  -0.483   3.212   3.865 -0.2842  0.8456  0.0375
  875MOL0     C15402  -0.525   3.157   3.988  0.0883  0.3001  0.1383
  875MOL0     O15403  -0.657   3.149   3.981 -0.8642  0.2757 -0.4817
  875MOL0     C15404  -0.727   3.176   4.098  0.1686 -0.8183 -0.4050
  875MOL0     C15405  -0.873   3.153   4.082 -0.3900  0.4572  0.0576
  875MOL0     C15406  -0.966   3.221   4.186 -0.3287 -0.2838 -0.1596
  875MOL0     C15407  -1.103   3.196   4.129  0.7652 -0.5284 -0.2116
  875MOL0     C15408  -1.199   3.209   4.252 -0.2389 -0.0552 -0.1868
  875MOL0     C15409  -1.341   3.181   4.199 -0.6319 -0.3887 -0.0812
  875MOL0     C15410  -1.440   3.198   4.312  0.6247 -0.2536  0.3652
  875MOL0     C15411  -1.478   3.063   4.364  0.1081  1.1177 -0.3106
  875MOL0    Cl15412  -1.582   3.094   4.502  0.9337 -0.2524 -0.2366
  875MOL0     C15413  -0.429   3.122   4.085  0.3071  0.1327 -0.7998
  875MOL0     C15414  -0.299   3.150   4.059  0.0653 -0.2540 -1.0463
  875MOL0     O15415  -0.067   3.340   4.088 -0.1508 -0.5365 -0.9943
  875MOL0     C15416   0.161   3.203   3.860  0.5008  0.8558  0.3650
  875MOL0     C15417   0.301   3.185   3.848  0.5389  0.1338 -0.1114
  875MOL0     N15418   0.954   2.934   4.207 -0.3773 -0.5817  0.4525
  875MOL0     N15419   1.060   2.883   4.257  0.1750 -0.0706  0.1465
  875MOL0     C15420   2.006   2.453   4.121  0.0430 -0.4822  0.1369
  875MOL0     C15421   2.110   2.385   4.059 -0.2643  0.8205 -0.9170
  875MOL0     C15422   2.561   2.271   4.010  0.2227  0.5868  0.7422
  875MOL0     C15423   2.570   2.128   4.022 -0.2470 -0.0007  0.5269
  875MOL0     C15424   2.696   2.068   3.983 -0.2490 -0.7346 -0.0467
  875MOL0     C15425   2.803   2.135   3.920  0.5736 -0.1273 -0.7674
  875MOL0     O15426   2.925   2.085   3.890  0.0730 -0.7283  0.6320
  875MOL0     C15427   2.935   1.942   3.910 -0.1440 -0.0728 -0.5725
  875MOL0     C15428   3.079   1.896   3.876  0.6529  0.1053  0.3875
  875MOL0     C15429   3.094   1.742   3.848  0.1917 -0.0974  0.6527
  875MOL0     C15430   3.038   1.638   3.950 -0.1970  0.6231  0.0473
  875MOL0     C15431   3.072   1.494   3.925 -0.2467  0.3448  0.0999
  875MOL0     C15432   3.077   1.370   3.913 -0.3798 -0.3007  0.3447
  875MOL0     C15433   2.790   2.271   3.904  0.2560  0.9301  0.7791
  875MOL0     C15434   2.670   2.333   3.942 -1.1377 -0.0974 -1.2070
  875MOL0     H15435   2.321   2.383   4.333 -0.2095 -1.3048  1.1564
  875MOL0     H15436   2.120   2.532   4.418 -0.6821 -1.2621  1.0648
  875MOL0     H15437   1.756   2.560   4.163  1.2685 -1.4908 -1.0780
  875MOL0     H15438   1.864   2.694   4.119 -2.6411  2.1063  0.1195
  875MOL0     H15439   1.774   2.823   4.334 -0.5710  2.2838 -0.3915
  875MOL0     H15440   1.672   2.682   4.372  0.6708  1.2058  0.5001
  875MOL0     H15441   1.629   2.853   4.133  1.1818 -2.2369 -1.4662
  875MOL0     H15442   1.550   2.862   4.288 -1.7753 -1.8430  1.3084
  875MOL0     H15443   1.530   2.606   4.120  1.1617 -0.0417  1.0348
  875MOL0     H15444   1.448   2.648   4.283 -1.9583  1.6012  0.4321
  875MOL0     H15445   1.429   2.788   4.014  1.3528 -0.5306  0.1029
  875MOL0     H15446   1.332   2.833   4.144 -1.7109 -1.0308 -1.1746
  875MOL0     H15447   1.335   2.600   3.963  0.6184  1.6904 -2.5969
  875MOL0     H15448   1.203   2.714   3.984 -0.1933 -1.0316 -2.9697
  875MOL0     H15449   1.133   2.512   4.094 -1.4444 -1.3186  3.4948
  875MOL0     H15450   1.271   2.489   4.183  0.4379  0.8844  1.9709
  875MOL0     H15451   1.220   2.682   4.328 -1.1529  0.4207  0.4299
  875MOL0     H15452   1.088   2.562   4.324  0.4609  0.7775  1.1922
  875MOL0     H15453   0.877   2.642   4.130 -0.1213 -0.6448 -0.1955
  875MOL0     H15454   0.658   2.815   4.165 -0.9629  2.5211  1.6845
  875MOL0     H15455   0.734   2.804   4.000 -0.3511  1.5807 -0.4116
  875MOL0     H15456   0.788   3.049   4.019  0.2899  1.4705  2.2757
  875MOL0     H15457   0.660   3.048   4.154 -2.2940 -0.2671 -0.6999
  875MOL0     H15458   0.590   2.916   3.887 -0.6817 -0.6953  1.3498
  875MOL0     H15459   0.489   2.988   4.005 -0.1467 -1.2147 -1.1227
  875MOL0     H15460   0.533   3.100   3.780 -0.0620 -2.8876  0.4327
  875MOL0     H15461   0.684   3.161   3.851  0.3293 -0.5603  0.1321
  875MOL0     H15462   0.407   3.280   4.151  0.2197  0.5068 -0.2878
  875MOL0     H15463   0.166   3.302   4.196  3.6725 -0.4137  1.8128
  875MOL0     H15464  -0.309   3.306   3.757 -0.4801  0.0106  0.2984
  875MOL0     H15465  -0.557   3.231   3.788  0.8725 -0.0271 -1.3310
  875MOL0     H15466  -0.723   3.276   4.144 -3.3613 -2.2522  3.7437
  875MOL0     H15467  -0.697   3.105   4.176 -1.4167 -0.9566  0.1186
  875MOL0     H15468  -0.889   3.045   4.079  0.1396  0.3817 -0.2784
  875MOL0     H15469  -0.901   3.195   3.985  1.2594  0.6908 -0.3564
  875MOL0     H15470  -0.941   3.328   4.189  1.2218 -0.5194 -2.2353
  875MOL0     H15471  -0.945   3.181   4.286 -0.7051  0.7811  0.3705
  875MOL0     H15472  -1.133   3.271   4.055  0.3918 -1.4283 -0.9838
  875MOL0     H15473  -1.091   3.099   4.081  2.6068 -0.2603 -0.3434
  875MOL0     H15474  -1.191   3.309   4.295 -1.1470  0.1138 -0.3834
  875MOL0     H15475  -1.174   3.137   4.330  0.8838  0.9844  0.4485
  875MOL0     H15476  -1.334   3.078   4.162  2.0860 -1.0831  2.0301
  875MOL0     H15477  -1.355   3.258   4.123  1.4730  0.4721  0.3353
  875MOL0     H15478  -1.399   3.254   4.397  1.5889  1.0032 -0.8916
  875MOL0     H15479  -1.534   3.248   4.286 -0.3421 -2.1961 -0.0182
  875MOL0     H15480  -1.395   3.000   4.395  1.6377  3.0465 -0.2922
  875MOL0     H15481  -1.528   3.004   4.286  0.0806  3.2206 -1.9831
  875MOL0     H15482  -0.465   3.083   4.180 -1.4461 -0.3988 -1.6535
  875MOL0     H15483  -0.221   3.121   4.128  0.5538 -2.2054 -2.3212
  875MOL0     H15484   0.097   3.162   3.783  2.3280 -0.0495 -0.7403
  875MOL0     H15485   0.340   3.131   3.762  0.7977 -0.9405  0.6653
  875MOL0     H15486   1.930   2.463   4.045 -0.0678 -0.0104  0.3076
  875MOL0     H15487   2.118   2.342   3.959  1.0355 -2.5720  0.4964
  875MOL0     H15488   2.495   2.065   4.066 -0.0361  0.9230  2.2802
  875MOL0     H15489   2.709   1.961   3.991  2.8979 -0.8955 -3.8753
  875MOL0     H15490   2.870   1.883   3.846  2.0276 -3.4156  0.0889
  875MOL0     H15491   2.925   1.917   4.016  0.0482  2.7104  0.1862
  875MOL0     H15492   3.121   1.965   3.801  4.3500  1.6226  3.5161
  875MOL0     H15493   3.135   1.908   3.969  2.3751  0.8984 -0.6916
  875MOL0     H15494   3.200   1.716   3.860 -0.0169 -1.0293  0.5961
  875MOL0     H15495   3.071   1.722   3.743  2.0688 -2.8292  0.6391
  875MOL0     H15496   3.069   1.668   4.051  1.1294  0.9217 -0.4338
  875MOL0     H15497   2.930   1.646   3.935 -0.2744 -0.5192 -0.0891
  875MOL0     H15498   3.078   1.263   3.922 -2.9869 -0.2499  2.9206
  875MOL0     H15499   2.871   2.331   3.863 -0.7184  1.7355 -0.0500
  875MOL0     H15500   2.663   2.440   3.928  0.6249  0.0688 -1.0433
  876MOL0     O15501   9.498   7.456   0.036 -0.2582 -0.0401 -0.3312
  876MOL0     C15502   9.387   7.511   0.025  0.6286  0.0753 -0.2024
  876MOL0     O15503   9.364   7.646   0.040  0.3883 -0.4137 -0.9486
  876MOL0     C15504   9.463   7.740   0.027 -0.0585 -0.1123 -0.0737
  876MOL0     C15505   9.582   7.728  -0.055 -0.9254 -0.1236 -0.0093
  876MOL0     C15506   9.682   7.828  -0.040  0.1555 -0.3660  0.8598
  876MOL0     C15507   9.664   7.942   0.040 -0.0408  0.1899  0.5175
  876MOL0     O15508   9.749   8.044   0.050 -0.8303  0.4654 -0.6873
  876MOL0     C15509   9.852   8.046  -0.048 -0.5127  0.5108  0.2406
  876MOL0     C15510   9.985   7.991  -0.021  0.4024  1.1451 -0.0987
  876MOL0     C15511  10.072   8.060   0.076  0.3391 -0.1551  0.5800
  876MOL0     C15512  10.219   8.041   0.049 -0.4576 -0.5447  0.0055
  876MOL0     C15513  10.263   7.894   0.072 -0.2472  0.6745 -0.2828
  876MOL0     C15514  10.409   7.884   0.105 -0.4826  0.0170 -0.3277
  876MOL0     C15515  10.437   7.754   0.180  0.1835 -0.2308  1.3744
  876MOL0     C15516  10.578   7.727   0.233  0.3217  2.0105 -0.0994
  876MOL0     N15517  10.676   7.692   0.143  0.0166  0.1925  0.6137
  876MOL0     C15518  10.743   7.564   0.149  0.6213 -0.5066  0.3315
  876MOL0     C15519  10.842   7.577   0.049 -0.4040  0.2981 -0.1546
  876MOL0     C15520  10.947   7.472   0.014  1.0223 -0.3846 -0.5360
  876MOL0     C15521  11.075   7.472   0.096 -0.0300 -0.2343 -0.3696
  876MOL0     C15522  11.164   7.370   0.034  0.4784  0.7715  0.2136
  876MOL0     C15523  11.308   7.383   0.084  0.6582 -0.4406  0.6547
  876MOL0     O15524  11.369   7.251   0.079 -0.2376  0.0206 -0.4025
  876MOL0     C15525  11.498   7.254   0.094 -0.2957  0.7019  1.4658
  876MOL0     C15526  11.560   7.182   0.196  0.1609 -0.1149 -0.1910
  876MOL0     C15527  11.693   7.164   0.206  1.0475 -1.1432 -0.0381
  876MOL0     C15528  11.778   7.226   0.118  0.0145  1.3606  1.1177
  876MOL0     C15529  11.925   7.233   0.149  0.3774 -0.1825 -0.0365
  876MOL0     O15530  12.008   7.269   0.036 -0.4414 -0.2877 -0.4562
  876MOL0     C15531  12.134   7.311   0.071  0.0061 -0.7415  0.6177
  876MOL0     C15532  12.219   7.220   0.134 -0.5873 -0.3141 -0.4736
  876MOL0     C15533  12.363   7.251   0.135  0.5017 -0.5001 -0.1334
  876MOL0     C15534  12.409   7.373   0.100 -0.2081  0.2452 -0.0468
  876MOL0     O15535  12.541   7.385   0.116  0.0498  0.3464  0.0193
  876MOL0     C15536  12.589   7.502   0.174  0.0449 -0.6864  0.4300
  876MOL0     C15537  12.598   7.483   0.322 -0.5195  0.9776 -0.1513
  876MOL0     C15538  12.638   7.613   0.396  0.3090  0.1292  0.1655
  876MOL0     C15539  12.787   7.628   0.426 -0.5495 -0.5222  0.2033
  876MOL0     C15540  12.825   7.765   0.468 -0.2831 -0.6085 -0.2947
  876MOL0     C15541  12.755   7.809   0.604  0.2169 -0.1794  0.1261
  876MOL0     C15542  12.817   7.754   0.728 -0.0462  0.5398  0.0058
  876MOL0     C15543  12.945   7.820   0.782 -0.8780 -0.7346 -0.7953
  876MOL0    Cl15544  12.910   7.985   0.844 -0.5921 -0.2028 -0.9685
  876MOL0     C15545  12.316   7.466   0.053  0.2963  0.1065 -0.4643
  876MOL0     C15546  12.182   7.435   0.036  0.3893  0.8648  0.6488
  876MOL0     O15547  11.959   7.200   0.264 -0.6472  0.0241  0.7084
  876MOL0     C15548  11.716   7.294   0.009 -0.8583  0.0328 -0.0994
  876MOL0     C15549  11.577   7.316  -0.005 -0.4174 -0.6372 -0.0650
  876MOL0     N15550  10.844   7.706   0.010  0.2407  0.0229  0.6838
  876MOL0     N15551  10.746   7.776   0.067  0.0270 -0.1737 -0.5631
  876MOL0     C15552   9.535   7.966   0.076  0.5799 -0.3550  0.2030
  876MOL0     C15553   9.439   7.869   0.079 -0.1149  0.2308  0.4935
  876MOL0     C15554   9.269   7.423   0.018  0.0212 -0.2013  0.1928
  876MOL0     C15555   9.139   7.471   0.044  0.7702 -0.3328 -0.6313
  876MOL0     C15556   9.036   7.391   0.084 -0.7874  0.0335  0.2594
  876MOL0     C15557   9.049   7.251   0.068 -0.7438  0.3906  0.4869
  876MOL0     O15558   8.959   7.156   0.110 -0.0476 -0.6662  0.0862
  876MOL0     C15559   8.819   7.195   0.150  0.4156  0.5976  0.6064
  876MOL0     C15560   8.760   7.112   0.258 -0.6407 -0.3760 -1.1091
  876MOL0     C15561   8.748   6.965   0.220 -0.2590  0.7022  0.4704
  876MOL0     C15562   8.670   6.890   0.325  0.3215  0.2747 -1.0655
  876MOL0     C15563   8.741   6.856   0.448  0.0507  0.3929  0.1384
  876MOL0     C15564   8.798   6.825   0.553 -1.1086  0.2924  0.0859
  876MOL0     C15565   9.176   7.200   0.033 -0.2330  0.6949  0.0622
  876MOL0     C15566   9.286   7.288   0.021  0.0314  0.2444 -0.6753
  876MOL0     H15567   9.593   7.636  -0.112 -3.6179 -0.9967  0.7315
  876MOL0     H15568   9.775   7.814  -0.095  0.2963  0.0612  0.9843
  876MOL0     H15569   9.877   8.151  -0.063 -0.1360  0.7350  2.2242
  876MOL0     H15570   9.811   8.010  -0.144  1.3641  3.2108 -1.7086
  876MOL0     H15571  10.049   7.992  -0.111  0.4954  3.2733 -0.0572
  876MOL0     H15572   9.965   7.886   0.001 -1.5857  1.5785  0.3310
  876MOL0     H15573  10.048   8.044   0.182  1.0746  2.7960  1.3061
  876MOL0     H15574  10.038   8.164   0.080 -3.3884 -1.2531  0.8807
  876MOL0     H15575  10.244   8.066  -0.054  0.2833  1.4154  0.5971
  876MOL0     H15576  10.279   8.109   0.110  1.0852  0.7988 -2.8172
  876MOL0     H15577  10.240   7.841  -0.020  0.3793  1.3915 -0.8669
  876MOL0     H15578  10.201   7.864   0.157  1.5772 -0.1818  0.8180
  876MOL0     H15579  10.432   7.969   0.169 -1.4671 -2.3780  3.6006
  876MOL0     H15580  10.454   7.891   0.005 -1.4290 -1.2004 -0.8795
  876MOL0     H15581  10.358   7.750   0.256 -0.8443  0.2656  0.3713
  876MOL0     H15582  10.421   7.679   0.102  0.7789  1.4025 -0.4082
  876MOL0     H15583  10.555   7.638   0.291  1.3233  0.6040 -1.7823
  876MOL0     H15584  10.605   7.807   0.303 -0.8430  1.1025  1.4404
  876MOL0     H15585  10.719   7.478   0.209 -2.4298  0.9243  1.3525
  876MOL0     H15586  10.982   7.478  -0.090  1.0225 -1.8959 -0.6340
  876MOL0     H15587  10.899   7.381   0.050 -0.6564  1.6867  2.9775
  876MOL0     H15588  11.059   7.452   0.203 -1.9006  2.6158 -0.0029
  876MOL0     H15589  11.126   7.569   0.091 -0.6859  0.2563  1.5055
  876MOL0     H15590  11.119   7.274   0.060  2.3142  0.0382  0.8270
  876MOL0     H15591  11.182   7.381  -0.073 -0.5069  1.3751  0.0919
  876MOL0     H15592  11.312   7.412   0.190  1.7122  0.4437  0.3900
  876MOL0     H15593  11.353   7.463   0.026 -2.6349  1.4137  0.4360
  876MOL0     H15594  11.486   7.130   0.255 -0.2218  1.1992  0.5284
  876MOL0     H15595  11.739   7.120   0.294 -2.3006 -0.5685  2.2012
  876MOL0     H15596  12.199   7.116   0.157  3.1159 -2.2527 -4.4014
  876MOL0     H15597  12.426   7.170   0.170  1.7193  2.0027  4.3429
  876MOL0     H15598  12.528   7.586   0.138  0.6463  1.0290  3.1254
  876MOL0     H15599  12.691   7.515   0.135  0.7504 -0.0689  2.3766
  876MOL0     H15600  12.667   7.399   0.331 -1.4789  0.3506  1.9223
  876MOL0     H15601  12.496   7.460   0.353 -1.3569  1.7669 -2.1374
  876MOL0     H15602  12.581   7.606   0.490 -1.3781 -0.3003 -0.8487
  876MOL0     H15603  12.603   7.709   0.357  1.0648  3.0421  5.5981
  876MOL0     H15604  12.819   7.554   0.500 -0.8821  0.0825  0.9566
  876MOL0     H15605  12.844   7.605   0.335  2.1748 -0.2081  1.7227
  876MOL0     H15606  12.801   7.831   0.383  2.0028 -0.7479 -1.1164
  876MOL0     H15607  12.934   7.766   0.465 -0.2546  1.2562 -3.3278
  876MOL0     H15608  12.650   7.777   0.605  0.8396 -2.3191  0.8025
  876MOL0     H15609  12.751   7.917   0.621  2.3317 -0.3190  1.8519
  876MOL0     H15610  12.751   7.751   0.815  0.5441 -0.6617  0.4400
  876MOL0     H15611  12.847   7.650   0.712 -0.2547  0.4473  0.2036
  876MOL0     H15612  13.009   7.851   0.699 -1.1770  0.6952 -0.5176
  876MOL0     H15613  12.985   7.756   0.862  1.2492 -0.0412 -1.2267
  876MOL0     H15614  12.351   7.558   0.008  0.9385  0.0043 -0.1796
  876MOL0     H15615  12.100   7.493  -0.006 -0.2325 -2.1293 -2.8224
  876MOL0     H15616  11.784   7.335  -0.066  1.7805  0.8746  2.5436
  876MOL0     H15617  11.533   7.360  -0.094  1.7168  0.0187 -0.8809
  876MOL0     H15618   9.513   8.058   0.129 -0.0498 -0.6468  0.4650
  876MOL0     H15619   9.346   7.892   0.130 -0.0399 -0.2860  0.8732
  876MOL0     H15620   9.116   7.577   0.044 -1.9745 -0.8005  1.6410
  876MOL0     H15621   8.945   7.436   0.121 -0.1828  0.9308  0.6855
  876MOL0     H15622   8.751   7.189   0.065  1.8966  2.4287 -0.7825
  876MOL0     H15623   8.814   7.299   0.183 -3.1829  1.4581 -2.1278
  876MOL0     H15624   8.816   7.112   0.352  0.5220  1.2680 -1.7556
  876MOL0     H15625   8.654   7.137   0.271 -0.9363 -0.5173 -2.9802
  876MOL0     H15626   8.844   6.915   0.206 -0.6518  0.6396 -2.6331
  876MOL0     H15627   8.694   6.962   0.125  0.9980 -1.0252 -0.2406
  876MOL0     H15628   8.579   6.945   0.349  1.4948  1.0397  2.2565
  876MOL0     H15629   8.637   6.799   0.275 -1.4633  0.6143 -0.5769
  876MOL0     H15630   8.835   6.788   0.647  3.9920 -2.8527 -2.6899
  876MOL0     H15631   9.184   7.092   0.030 -4.7068  0.2078 -1.2754
  876MOL0     H15632   9.382   7.242   0.002 -0.3704 -0.8750 -0.0585
  877MOL0     O15633   3.314   2.982   0.763 -0.5290 -0.7497  0.4625
  877MOL0     C15634   3.339   3.072   0.674  0.3955  0.7012 -0.9903
  877MOL0     O15635   3.385   3.050   0.550  0.2115 -0.0874 -0.2402
  877MOL0     C15636   3.401   2.919   0.517 -0.4800 -0.7194  0.3175
  877MOL0     C15637   3.324   2.879   0.406  0.8613 -0.4797  0.3323
  877MOL0     C15638   3.321   2.750   0.356 -0.4023  0.2939  1.5264
  877MOL0     C15639   3.418   2.657   0.401 -0.0404  0.4437 -0.4895
  877MOL0     O15640   3.434   2.533   0.350  0.1520 -0.2883  0.8746
  877MOL0     C15641   3.395   2.516   0.216 -0.0608 -1.0452 -0.5669
  877MOL0     C15642   3.474   2.405   0.163 -0.2073  0.4677  0.6583
  877MOL0     C15643   3.627   2.419   0.164 -0.1569  0.2790 -0.1511
  877MOL0     C15644   3.692   2.278   0.117  0.5971 -0.6061 -0.1640
  877MOL0     C15645   3.843   2.305   0.125 -0.1773  0.6103  0.2304
  877MOL0     C15646   3.924   2.167   0.085  0.0685 -0.0948  1.0300
  877MOL0     C15647   4.069   2.187   0.100 -0.5164  0.1129 -0.0491
  877MOL0     C15648   4.123   2.154   0.243  0.4294  0.6624  0.7013
  877MOL0     N15649   4.264   2.175   0.266  0.3253 -0.0121  0.2122
  877MOL0     C15650   4.375   2.107   0.228 -0.0780 -0.3106  0.0884
  877MOL0     C15651   4.479   2.179   0.282  0.9740  0.3537  0.6059
  877MOL0     C15652   4.621   2.142   0.269 -0.2990 -1.3207 -0.5093
  877MOL0     C15653   4.670   2.027   0.357  0.5427  0.7647  0.0105
  877MOL0     C15654   4.656   2.064   0.513 -1.0966 -0.4971 -0.3976
  877MOL0     C15655   4.764   2.158   0.580  0.3813 -1.0001 -0.0264
  877MOL0     O15656   4.893   2.092   0.580  0.2153 -0.4715  0.8814
  877MOL0     C15657   5.002   2.167   0.603 -0.8950 -0.4455 -0.2578
  877MOL0     C15658   4.999   2.299   0.636 -0.5608 -0.6762  0.8381
  877MOL0     C15659   5.125   2.350   0.687  0.9157 -0.3408 -0.4818
  877MOL0     C15660   5.237   2.280   0.703 -0.4534  0.2117 -0.2864
  877MOL0     C15661   5.371   2.339   0.742  0.2124  0.0186 -0.1262
  877MOL0     O15662   5.478   2.253   0.751  0.1847  0.3273 -0.8199
  877MOL0     C15663   5.611   2.297   0.768  0.3191 -0.3888  0.3828
  877MOL0     C15664   5.695   2.203   0.834 -0.2777 -0.2255  0.5679
  877MOL0     C15665   5.838   2.216   0.847 -0.0630  0.2544 -0.1805
  877MOL0     C15666   5.892   2.332   0.802 -0.7166 -0.3652 -0.7274
  877MOL0     O15667   6.029   2.339   0.792  0.0462 -0.4773 -0.4261
  877MOL0     C15668   6.110   2.464   0.774 -0.8752  0.2675 -0.2756
  877MOL0     C15669   6.248   2.414   0.788 -0.1103  0.1587 -0.2004
  877MOL0     C15670   6.347   2.517   0.849 -0.5041 -0.1477 -0.4397
  877MOL0     C15671   6.495   2.517   0.784  0.4287  0.8991  0.3010
  877MOL0     C15672   6.577   2.609   0.867  0.3793 -0.3109 -0.1081
  877MOL0     C15673   6.721   2.603   0.815  0.2545 -1.1525  0.5740
  877MOL0     C15674   6.822   2.658   0.921 -0.8095 -0.4954 -0.3570
  877MOL0     C15675   6.963   2.660   0.867 -0.3491  0.5718 -0.4628
  877MOL0    Cl15676   6.981   2.773   0.723  0.0470 -0.1334  0.0305
  877MOL0     C15677   5.810   2.430   0.748 -0.6616 -0.7005  0.1885
  877MOL0     C15678   5.675   2.421   0.730  0.1609  0.6738 -1.0368
  877MOL0     O15679   5.376   2.459   0.751 -0.0995 -0.2908  0.2545
  877MOL0     C15680   5.237   2.154   0.651 -0.7006 -0.2625 -0.1940
  877MOL0     C15681   5.121   2.094   0.597 -0.0831  0.3616 -0.0052
  877MOL0     N15682   4.434   2.284   0.357 -0.0461  0.4068 -0.0967
  877MOL0     N15683   4.299   2.283   0.345 -0.8192  0.8586  0.1529
  877MOL0     C15684   3.483   2.698   0.520  0.2898  0.0921  0.0417
  877MOL0     C15685   3.470   2.821   0.573 -0.6647 -0.3126 -0.7542
  877MOL0     C15686   3.324   3.211   0.714  0.1644  0.3880 -0.0558
  877MOL0     C15687   3.390   3.308   0.629  0.0411  0.8011  0.6652
  877MOL0     C15688   3.384   3.441   0.668  0.1218  0.7424  0.5263
  877MOL0     C15689   3.322   3.475   0.790  0.4822  0.4626  1.1202
  877MOL0     O15690   3.333   3.592   0.847  0.8604 -0.6703 -0.1041
  877MOL0     C15691   3.376   3.709   0.778 -0.0117  0.0278 -0.2147
  877MOL0     C15692   3.296   3.763   0.668 -0.7681 -0.1155 -0.7641
  877MOL0     C15693   3.174   3.839   0.735 -0.5107 -0.0628  0.1282
  877MOL0     C15694   3.057   3.842   0.637  0.2153 -0.6825  0.0410
  877MOL0     C15695   3.000   3.706   0.621  0.3303 -0.0224  0.3072
  877MOL0     C15696   2.942   3.592   0.626 -0.9991  0.2105  0.0825
  877MOL0     C15697   3.259   3.378   0.874  0.6172 -0.0921  0.2567
  877MOL0     C15698   3.259   3.246   0.831  0.6415  0.4516 -0.2197
  877MOL0     H15699   3.264   2.953   0.355  0.9080  1.4174  2.8095
  877MOL0     H15700   3.255   2.727   0.272 -0.5357 -2.2777  2.2624
  877MOL0     H15701   3.427   2.608   0.165 -0.0395  0.2893  1.6880
  877MOL0     H15702   3.287   2.505   0.199 -0.2706 -1.8845  1.1426
  877MOL0     H15703   3.456   2.382   0.058 -1.0119 -5.2768  1.6929
  877MOL0     H15704   3.436   2.317   0.215 -1.9003  0.1677 -1.0070
  877MOL0     H15705   3.656   2.429   0.269 -1.3518  0.8465  0.1396
  877MOL0     H15706   3.663   2.503   0.104 -0.8823  1.2863  0.7941
  877MOL0     H15707   3.673   2.204   0.194  3.7150 -1.4804 -0.1003
  877MOL0     H15708   3.654   2.254   0.017 -0.5158 -3.9769  0.9395
  877MOL0     H15709   3.865   2.339   0.227 -3.4235  0.5178  1.0853
  877MOL0     H15710   3.861   2.376   0.044 -1.3663 -1.6162 -2.1299
  877MOL0     H15711   3.908   2.137  -0.019  0.6421  2.2085  0.2205
  877MOL0     H15712   3.881   2.080   0.136 -0.9388  0.4562  1.1368
  877MOL0     H15713   4.128   2.127   0.030  0.1554  1.0261 -0.2885
  877MOL0     H15714   4.094   2.292   0.083  0.7710  0.1045  1.5720
  877MOL0     H15715   4.086   2.054   0.271 -1.1578  1.2156  0.6819
  877MOL0     H15716   4.067   2.220   0.310  0.2263  0.4166  0.7766
  877MOL0     H15717   4.394   2.017   0.171 -1.0804 -1.7796  1.9746
  877MOL0     H15718   4.682   2.219   0.316 -1.7961  0.1523 -0.8525
  877MOL0     H15719   4.652   2.140   0.164  0.9717  1.9038 -0.3107
  877MOL0     H15720   4.774   1.993   0.346 -0.1319 -3.6380  3.9746
  877MOL0     H15721   4.613   1.936   0.335  1.2785 -0.6850  3.4128
  877MOL0     H15722   4.559   2.105   0.543  0.0858  0.7918  1.9483
  877MOL0     H15723   4.658   1.970   0.568  0.7252 -1.1764 -1.5061
  877MOL0     H15724   4.728   2.180   0.682  1.3158  2.2441 -0.2737
  877MOL0     H15725   4.772   2.253   0.527  0.7181  1.4071  3.9143
  877MOL0     H15726   4.905   2.355   0.633 -0.4560 -0.4614  1.3286
  877MOL0     H15727   5.110   2.445   0.738 -0.6787 -1.8104  1.9923
  877MOL0     H15728   5.642   2.118   0.876  0.8212 -0.5646  1.3268
  877MOL0     H15729   5.906   2.147   0.895 -2.3866 -2.7271 -0.8827
  877MOL0     H15730   6.081   2.529   0.856 -0.2736 -2.7106  2.5410
  877MOL0     H15731   6.099   2.514   0.678  0.0885  0.2391 -0.4131
  877MOL0     H15732   6.284   2.385   0.690  2.8867  4.0138 -0.4939
  877MOL0     H15733   6.248   2.324   0.850  1.8416  1.5905  2.0791
  877MOL0     H15734   6.355   2.500   0.957 -2.8935  1.4179  0.0536
  877MOL0     H15735   6.306   2.617   0.835 -0.3167  0.4799  2.7665
  877MOL0     H15736   6.532   2.414   0.795  1.1305  1.4404  4.9593
  877MOL0     H15737   6.495   2.543   0.678  0.1418 -2.2201 -0.5686
  877MOL0     H15738   6.579   2.574   0.971 -0.1142  3.4706  1.3188
  877MOL0     H15739   6.538   2.711   0.860  1.4496 -0.0200 -3.1886
  877MOL0     H15740   6.730   2.657   0.721  1.5044 -0.0754  1.2737
  877MOL0     H15741   6.763   2.503   0.799  0.8205 -1.0715  1.4603
  877MOL0     H15742   6.791   2.762   0.940 -1.2675 -0.7269  0.1587
  877MOL0     H15743   6.821   2.594   1.009  1.1057 -1.1265 -0.7585
  877MOL0     H15744   6.991   2.558   0.842  0.6747  0.8124 -0.3359
  877MOL0     H15745   7.033   2.694   0.944  1.2636  1.5529 -2.2713
  877MOL0     H15746   5.849   2.517   0.696 -0.9132 -0.5226  0.2947
  877MOL0     H15747   5.617   2.500   0.683 -1.4784 -0.5359 -1.1444
  877MOL0     H15748   5.327   2.094   0.658  0.3336  0.9635 -2.2442
  877MOL0     H15749   5.113   1.993   0.559 -0.9841  0.4882 -0.2026
  877MOL0     H15750   3.556   2.626   0.555  0.4092 -0.8838 -2.1083
  877MOL0     H15751   3.522   2.851   0.664 -0.0177 -0.1339 -1.1798
  877MOL0     H15752   3.443   3.285   0.537 -2.3869  3.0430 -1.4799
  877MOL0     H15753   3.451   3.517   0.629  1.5291  0.4857  2.3332
  877MOL0     H15754   3.477   3.693   0.738  1.3623  2.9078  1.7249
  877MOL0     H15755   3.380   3.789   0.853 -1.1054  0.1894 -0.3093
  877MOL0     H15756   3.345   3.832   0.600 -1.0129 -1.1049 -1.9764
  877MOL0     H15757   3.260   3.688   0.598  0.1513 -0.0721 -1.2934
  877MOL0     H15758   3.203   3.940   0.765  1.5136 -0.5849  0.1028
  877MOL0     H15759   3.134   3.792   0.825  3.0407 -1.6799  1.0502
  877MOL0     H15760   2.981   3.903   0.687  1.5997 -0.1982  1.6447
  877MOL0     H15761   3.082   3.898   0.547 -0.9529  5.5835  3.0324
  877MOL0     H15762   2.895   3.497   0.638  0.5997 -0.7850 -1.1821
  877MOL0     H15763   3.224   3.396   0.975 -1.4961  1.7958 -0.7279
  877MOL0     H15764   3.219   3.172   0.900  2.4736 -0.3212  0.0692
  878MOL0     O15765   5.935   8.997   9.665  0.1110 -0.3025  0.0902
  878MOL0     C15766   5.990   9.002   9.774  0.3487 -0.6338 -0.5115
  878MOL0     O15767   5.938   9.070   9.886 -0.3927 -0.0324  0.0289
  878MOL0     C15768   5.832   9.160   9.868 -0.4146  0.5106 -0.3003
  878MOL0     C15769   5.857   9.297   9.859 -0.4855  0.1058 -0.7608
  878MOL0     C15770   5.739   9.373   9.843 -0.4397 -0.1788 -0.3121
  878MOL0     C15771   5.601   9.322   9.848 -0.4243  0.7038 -0.1098
  878MOL0     O15772   5.495   9.398   9.842 -1.0703 -0.1677  0.4234
  878MOL0     C15773   5.378   9.364   9.919 -0.1022  0.6108  0.8704
  878MOL0     C15774   5.256   9.307   9.840 -0.3236 -0.0894 -0.1931
  878MOL0     C15775   5.136   9.310   9.929 -0.3745  0.2855 -0.7896
  878MOL0     C15776   5.012   9.267   9.841 -0.8442  0.5541 -0.6159
  878MOL0     C15777   4.893   9.235   9.925  0.3177 -0.7509  0.4640
  878MOL0     C15778   4.848   9.352  10.011  0.7792 -0.4059  0.2859
  878MOL0     C15779   4.721   9.334  10.098 -0.1437 -0.3840 -0.1159
  878MOL0     C15780   4.727   9.208  10.178 -0.1952 -0.0126 -0.3333
  878MOL0     N15781   4.612   9.218  10.280  0.1574 -1.1875 -0.1674
  878MOL0     C15782   4.625   9.283  10.402  0.9894  0.6866 -0.5118
  878MOL0     C15783   4.499   9.283  10.461 -0.6687 -0.3511 -0.5156
  878MOL0     C15784   4.449   9.339  10.587  0.0008 -0.0939  0.0848
  878MOL0     C15785   4.475   9.226  10.694 -0.7829 -0.5580  0.0757
  878MOL0     C15786   4.410   9.263  10.824  0.8103  0.5029  0.3114
  878MOL0     C15787   4.493   9.368  10.902 -0.6721  0.1574 -0.7071
  878MOL0     O15788   4.438   9.501  10.911 -0.7494  0.8436 -0.2646
  878MOL0     C15789   4.528   9.604  10.966  0.1151  0.0391 -0.7470
  878MOL0     C15790   4.672   9.591  10.996  0.4597 -0.8882 -0.9835
  878MOL0     C15791   4.745   9.690  11.059  0.2083  1.1177  0.0733
  878MOL0     C15792   4.672   9.810  11.091  1.3761  1.6295  0.2928
  878MOL0     C15793   4.744   9.925  11.151  0.4185 -0.3658 -0.3039
  878MOL0     O15794   4.885   9.911  11.167  1.0380 -1.0015  0.8920
  878MOL0     C15795   4.951   9.993  11.246 -0.9697  0.5752 -0.0122
  878MOL0     C15796   4.906  10.078  11.348  0.2689 -0.5692 -0.0198
  878MOL0     C15797   4.998  10.140  11.426  0.0715  0.2227 -0.3073
  878MOL0     C15798   5.133  10.130  11.404 -0.2579 -0.2625 -0.2923
  878MOL0     O15799   5.219  10.207  11.482  0.3263 -0.9827 -0.3414
  878MOL0     C15800   5.360  10.215  11.467 -0.7732  0.4125  0.4132
  878MOL0     C15801   5.407  10.343  11.529  0.8463  0.1167 -1.0302
  878MOL0     C15802   5.564  10.352  11.565 -0.2942 -0.4288  0.6152
  878MOL0     C15803   5.647  10.364  11.436 -0.0109  0.1541  0.1960
  878MOL0     C15804   5.799  10.416  11.458  0.3798  0.3664  0.3537
  878MOL0     C15805   5.866  10.429  11.311 -0.3034  0.3493 -0.2129
  878MOL0     C15806   6.008  10.479  11.324 -0.1408 -0.3407 -0.4340
  878MOL0     C15807   6.058  10.552  11.201  0.6714  0.9447  0.1842
  878MOL0    Cl15808   6.236  10.567  11.228  0.5708  0.0690 -0.0085
  878MOL0     C15809   5.180  10.035  11.315 -0.0686 -0.2044 -0.4759
  878MOL0     C15810   5.089   9.968  11.234  0.3429  0.6704 -0.9187
  878MOL0     O15811   4.680  10.026  11.171 -0.9734  0.1691  0.2995
  878MOL0     C15812   4.528   9.817  11.064 -0.4847 -0.4752  0.1097
  878MOL0     C15813   4.461   9.718  11.002 -1.0021 -0.1690  0.3992
  878MOL0     N15814   4.421   9.193  10.375  0.8295  0.7793 -1.0082
  878MOL0     N15815   4.491   9.151  10.274 -0.0132  0.7730 -0.2976
  878MOL0     C15816   5.597   9.185   9.859  1.3019  0.5696 -0.1646
  878MOL0     C15817   5.711   9.102   9.865  1.0974  0.4140 -0.0410
  878MOL0     C15818   6.107   8.913   9.802 -0.4087  0.1522  0.8618
  878MOL0     C15819   6.192   8.934   9.911  0.2837  0.2978 -0.0791
  878MOL0     C15820   6.305   8.853   9.948 -0.1412  0.6833 -1.0828
  878MOL0     C15821   6.326   8.749   9.861 -0.5040  0.9370  0.5118
  878MOL0     O15822   6.440   8.681   9.882  0.5319 -0.4086  0.0830
  878MOL0     C15823   6.455   8.616  10.009  0.7423 -0.0699 -0.3266
  878MOL0     C15824   6.538   8.495   9.982  0.0123  0.2470  1.0584
  878MOL0     C15825   6.670   8.527   9.923 -0.1108 -0.1605  0.1161
  878MOL0     C15826   6.757   8.628  10.009  0.3271 -0.4367 -0.0009
  878MOL0     C15827   6.900   8.611   9.984  0.3022 -0.1628  0.2007
  878MOL0     C15828   7.019   8.599   9.967  0.0925 -0.4033  0.0820
  878MOL0     C15829   6.242   8.717   9.747  0.7738 -0.4658  0.0794
  878MOL0     C15830   6.123   8.802   9.724 -1.0658  0.9444  0.1918
  878MOL0     H15831   5.953   9.347   9.858 -0.4364  0.0136 -0.6568
  878MOL0     H15832   5.739   9.480   9.822 -4.1082  0.4694  2.1597
  878MOL0     H15833   5.345   9.452   9.976 -0.6447  1.0876 -0.1428
  878MOL0     H15834   5.394   9.286   9.994  0.8944  1.3213  1.4175
  878MOL0     H15835   5.265   9.201   9.812 -0.7038  0.2949 -1.8906
  878MOL0     H15836   5.240   9.375   9.756  0.2388 -1.3307 -1.3391
  878MOL0     H15837   5.137   9.412   9.969 -1.3528 -0.8432  2.3940
  878MOL0     H15838   5.148   9.235  10.007 -0.1670  0.1994 -0.9006
  878MOL0     H15839   4.990   9.346   9.769  0.6076 -0.7065 -2.5192
  878MOL0     H15840   5.040   9.176   9.788 -2.4264  0.5412 -1.4783
  878MOL0     H15841   4.919   9.150   9.989 -0.7617 -1.5516 -0.1192
  878MOL0     H15842   4.818   9.202   9.853 -0.7992  2.3281  0.0467
  878MOL0     H15843   4.838   9.446   9.956 -1.4864 -0.6306  0.2251
  878MOL0     H15844   4.933   9.373  10.076  0.7665  0.0324  0.1654
  878MOL0     H15845   4.717   9.422  10.163 -0.3187  0.0005 -0.6318
  878MOL0     H15846   4.633   9.327  10.033 -0.7779 -1.9006  0.8742
  878MOL0     H15847   4.823   9.197  10.230 -0.6500  4.8151  2.0900
  878MOL0     H15848   4.703   9.121  10.116 -1.3912  1.3984 -1.9489
  878MOL0     H15849   4.715   9.328  10.443  0.8483  1.4664 -1.0237
  878MOL0     H15850   4.341   9.355  10.581 -0.2911 -0.8976  2.2905
  878MOL0     H15851   4.490   9.438  10.611 -1.8790  1.1317 -1.4936
  878MOL0     H15852   4.580   9.200  10.706 -0.9141 -0.5512  1.3710
  878MOL0     H15853   4.424   9.131  10.673 -0.9354 -0.6293  0.7456
  878MOL0     H15854   4.308   9.287  10.794  0.3132 -1.3368  0.3791
  878MOL0     H15855   4.398   9.168  10.878  1.0569  0.7294  0.7630
  878MOL0     H15856   4.586   9.375  10.845 -1.4486 -4.7815 -3.0971
  878MOL0     H15857   4.537   9.322  10.991  0.0972 -0.6160 -1.4737
  878MOL0     H15858   4.732   9.508  10.961  2.9591  0.8002 -0.9266
  878MOL0     H15859   4.850   9.667  11.075  0.2688  2.1794  1.3246
  878MOL0     H15860   4.803  10.098  11.376  1.0496 -0.1962  2.9298
  878MOL0     H15861   4.955  10.206  11.500 -2.3605  0.7708 -2.0754
  878MOL0     H15862   5.384  10.213  11.360 -0.0140 -0.5709  0.5841
  878MOL0     H15863   5.396  10.127  11.521 -0.1202 -0.0782 -0.7882
  878MOL0     H15864   5.364  10.374  11.625  1.7208  1.0305 -0.9153
  878MOL0     H15865   5.379  10.417  11.454 -0.6973 -0.7530 -1.3493
  878MOL0     H15866   5.593  10.258  11.614  0.6402  0.0378  0.9902
  878MOL0     H15867   5.584  10.437  11.632  0.9826  1.8103 -2.4001
  878MOL0     H15868   5.643  10.280  11.366 -1.0128  0.6128 -0.3170
  878MOL0     H15869   5.607  10.444  11.373 -0.0248 -0.3566 -0.4594
  878MOL0     H15870   5.850  10.354  11.532 -3.1102 -0.1237  2.6315
  878MOL0     H15871   5.793  10.520  11.491  1.4655  0.6168 -0.2239
  878MOL0     H15872   5.803  10.493  11.248 -1.9952 -0.2782  0.7589
  878MOL0     H15873   5.868  10.332  11.260  3.0469 -0.1684  0.6740
  878MOL0     H15874   6.024  10.543  11.412  1.3440 -0.0169 -0.9058
  878MOL0     H15875   6.071  10.390  11.338  2.2830  1.5315  1.5550
  878MOL0     H15876   5.999  10.643  11.213 -1.1787 -0.5291  3.6046
  878MOL0     H15877   6.036  10.494  11.111  0.2224  2.3951 -0.6679
  878MOL0     H15878   5.286  10.024  11.296  0.1024  0.2018  0.1989
  878MOL0     H15879   5.132   9.886  11.178 -3.5105 -3.2197  1.1277
  878MOL0     H15880   4.475   9.912  11.077 -2.2357 -1.5242  1.0361
  878MOL0     H15881   4.360   9.726  10.964 -0.2684 -0.1793 -1.6667
  878MOL0     H15882   5.503   9.131   9.854 -0.6552  3.1346  4.0183
  878MOL0     H15883   5.708   8.994   9.872 -1.7835  0.3688 -0.8264
  878MOL0     H15884   6.174   9.020   9.974  0.7988 -1.2607  2.3308
  878MOL0     H15885   6.355   8.880  10.040 -1.7333  0.6913 -0.1743
  878MOL0     H15886   6.357   8.586  10.049  1.4264 -1.5342  0.3424
  878MOL0     H15887   6.503   8.680  10.083 -0.2311  1.0894 -0.6583
  878MOL0     H15888   6.559   8.443  10.076  2.4048 -0.0392  0.4304
  878MOL0     H15889   6.487   8.433   9.907  0.8688  1.3866 -0.5175
  878MOL0     H15890   6.657   8.561   9.820  0.4366 -0.7798 -0.1662
  878MOL0     H15891   6.725   8.432   9.920 -0.5540 -0.5414  2.4191
  878MOL0     H15892   6.720   8.729   9.987 -2.0418 -0.8725  1.5439
  878MOL0     H15893   6.732   8.614  10.115  2.2485 -1.4597  0.3611
  878MOL0     H15894   7.126   8.599   9.966  0.1575  2.2863 -1.3925
  878MOL0     H15895   6.250   8.621   9.696 -0.0996 -1.0486  0.9997
  878MOL0     H15896   6.065   8.783   9.635  1.3813  3.1036 -2.0496
  879MOL0     O15897   3.386   7.000   0.718 -0.0741  0.0699 -0.6232
  879MOL0     C15898   3.417   6.882   0.709 -0.7987  0.3450  0.4983
  879MOL0     O15899   3.368   6.786   0.785  0.3388  0.1290 -0.2199
  879MOL0     C15900   3.267   6.818   0.870 -0.4178  0.4077 -0.4048
  879MOL0     C15901   3.140   6.788   0.825  0.1285 -0.5751 -0.3376
  879MOL0     C15902   3.030   6.824   0.892  0.2616  0.4269  0.3123
  879MOL0     C15903   3.033   6.880   1.021 -0.7646  0.4608 -1.0790
  879MOL0     O15904   2.915   6.898   1.088 -0.6014  0.8718 -0.4778
  879MOL0     C15905   2.927   6.864   1.224  1.2853 -0.6421 -0.3195
  879MOL0     C15906   2.793   6.891   1.303 -0.6180 -0.3567 -0.5340
  879MOL0     C15907   2.703   6.773   1.271  0.5715 -0.2402 -0.5027
  879MOL0     C15908   2.554   6.810   1.279 -0.3010  0.3594 -0.0868
  879MOL0     C15909   2.459   6.712   1.213  0.4087  0.3721  0.1865
  879MOL0     C15910   2.304   6.743   1.226 -1.0072 -0.1136 -0.2270
  879MOL0     C15911   2.208   6.629   1.212  0.3063 -0.4160 -0.1425
  879MOL0     C15912   2.262   6.515   1.133  0.4824 -0.6512  0.6813
  879MOL0     N15913   2.143   6.454   1.074 -0.4636 -0.3615  0.4374
  879MOL0     C15914   2.033   6.395   1.134 -0.0356  0.1048  0.0558
  879MOL0     C15915   1.947   6.355   1.036  0.2973 -0.1730  0.2415
  879MOL0     C15916   1.818   6.287   1.066 -0.2668 -0.0786 -1.1852
  879MOL0     C15917   1.720   6.399   1.114  0.0819  0.5295  0.4675
  879MOL0     C15918   1.714   6.513   1.011  1.0823  0.6761 -0.9473
  879MOL0     C15919   1.581   6.574   0.986  0.2917  0.2748  0.4941
  879MOL0     O15920   1.531   6.628   1.109 -0.5884 -0.3360  0.3946
  879MOL0     C15921   1.402   6.672   1.118  0.1139 -0.0218  0.2033
  879MOL0     C15922   1.325   6.733   1.011 -0.1374  0.7978  0.4091
  879MOL0     C15923   1.187   6.754   1.035 -0.3545  0.2414  0.1532
  879MOL0     C15924   1.122   6.735   1.168 -0.4015  0.9356  0.4921
  879MOL0     C15925   0.984   6.773   1.183  0.3394  0.1419  0.3760
  879MOL0     O15926   0.906   6.704   1.277  0.3608  0.2349  0.4617
  879MOL0     C15927   0.771   6.710   1.255  0.4928  1.0799 -0.6332
  879MOL0     C15928   0.693   6.758   1.355  0.0261 -0.9766 -0.5802
  879MOL0     C15929   0.551   6.757   1.343 -0.3856  0.2743 -0.6809
  879MOL0     C15930   0.501   6.701   1.231  0.0123  0.6262  0.7878
  879MOL0     O15931   0.363   6.714   1.228  0.6174  0.1901  0.2875
  879MOL0     C15932   0.282   6.657   1.128  0.5752 -0.1724  0.8931
  879MOL0     C15933   0.278   6.720   0.990  0.9980 -1.1166  0.4353
  879MOL0     C15934   0.237   6.624   0.878 -0.1076 -0.8065 -0.1682
  879MOL0     C15935   0.233   6.707   0.745  0.0546 -0.4090 -1.1086
  879MOL0     C15936   0.229   6.625   0.624  0.1559 -0.5302 -0.2942
  879MOL0     C15937   0.094   6.561   0.595  0.3623 -0.4967  0.7248
  879MOL0     C15938  -0.011   6.663   0.551 -0.2774  0.7454  0.0059
  879MOL0     C15939  -0.131   6.598   0.478  0.0725  1.0142  0.1081
  879MOL0    Cl15940  -0.182   6.456   0.559  0.0856 -0.1131 -0.0442
  879MOL0     C15941   0.580   6.640   1.134  0.7677  0.2881  0.2988
  879MOL0     C15942   0.714   6.638   1.147  0.1405  0.5851  0.8106
  879MOL0     O15943   0.938   6.851   1.101  0.1930  1.0802  0.0912
  879MOL0     C15944   1.208   6.710   1.272  0.2164  0.2509 -1.0296
  879MOL0     C15945   1.341   6.670   1.249  0.5298  0.1796  0.0823
  879MOL0     N15946   2.000   6.387   0.917  0.3340 -0.3593 -0.1847
  879MOL0     N15947   2.111   6.446   0.940 -1.1840  0.0801  0.0761
  879MOL0     C15948   3.161   6.904   1.079 -0.0172 -0.1664 -0.1274
  879MOL0     C15949   3.279   6.876   0.999 -0.4422 -0.7768 -0.2117
  879MOL0     C15950   3.528   6.858   0.620  0.4469 -0.0045  0.2496
  879MOL0     C15951   3.623   6.957   0.606 -0.1516  0.7413 -0.3177
  879MOL0     C15952   3.712   6.932   0.494 -0.0749 -0.9641  0.2443
  879MOL0     C15953   3.704   6.819   0.413 -0.3649  0.1045 -0.2897
  879MOL0     O15954   3.795   6.816   0.307 -0.7798 -0.4153  0.1155
  879MOL0     C15955   3.754   6.737   0.196 -0.2955  0.2009 -0.3582
  879MOL0     C15956   3.823   6.775   0.070  0.4585  0.2183  0.5983
  879MOL0     C15957   3.801   6.919   0.032 -0.5693  0.5174 -0.1104
  879MOL0     C15958   3.871   7.029   0.114  0.6632 -0.2147 -0.9993
  879MOL0     C15959   4.010   7.005   0.146  0.0654  0.0035  0.3254
  879MOL0     C15960   4.123   6.994   0.171  0.0926 -0.1787 -0.0790
  879MOL0     C15961   3.612   6.719   0.433  0.1653  0.0061 -0.1514
  879MOL0     C15962   3.520   6.752   0.527  0.5562  0.5127  0.2917
  879MOL0     H15963   3.130   6.754   0.722 -0.3861  0.2149 -0.5540
  879MOL0     H15964   2.936   6.799   0.845  1.2360 -1.1429 -0.8704
  879MOL0     H15965   3.007   6.921   1.271  3.2648 -4.2610  1.1244
  879MOL0     H15966   2.951   6.758   1.235 -1.0316 -1.5412 -2.7231
  879MOL0     H15967   2.763   6.990   1.267 -0.6679 -0.0495  0.3107
  879MOL0     H15968   2.812   6.899   1.411 -0.9644 -1.6926 -0.3595
  879MOL0     H15969   2.715   6.683   1.333  0.7477 -0.2396 -0.5372
  879MOL0     H15970   2.715   6.744   1.166  1.6784  0.8644 -0.7034
  879MOL0     H15971   2.527   6.828   1.384  2.9528  0.9344  0.7345
  879MOL0     H15972   2.540   6.904   1.225 -1.6911  0.0880 -0.2563
  879MOL0     H15973   2.471   6.618   1.266 -2.4260  0.1412  0.5796
  879MOL0     H15974   2.492   6.694   1.110 -2.0125  1.8698 -0.9486
  879MOL0     H15975   2.291   6.830   1.161  1.4202  0.8548  0.4795
  879MOL0     H15976   2.292   6.772   1.331  0.9375  0.6877 -0.1950
  879MOL0     H15977   2.182   6.588   1.310  1.2853 -0.4579  0.1116
  879MOL0     H15978   2.113   6.667   1.174 -1.1241 -1.8393  1.7973
  879MOL0     H15979   2.326   6.451   1.194  0.6939 -0.9688  0.1328
  879MOL0     H15980   2.327   6.550   1.053  0.2068 -0.1755  0.6605
  879MOL0     H15981   2.014   6.387   1.241 -0.6783  0.5544 -0.0115
  879MOL0     H15982   1.834   6.207   1.139  1.5979 -0.3481 -1.8236
  879MOL0     H15983   1.787   6.239   0.973 -3.1522  0.1101 -0.4091
  879MOL0     H15984   1.757   6.433   1.211  0.6966 -2.7794  1.5256
  879MOL0     H15985   1.621   6.357   1.130 -0.2192 -0.6632 -3.3920
  879MOL0     H15986   1.774   6.600   1.042 -0.9051  2.0262 -0.7120
  879MOL0     H15987   1.738   6.477   0.911 -2.0591 -0.0867 -1.5061
  879MOL0     H15988   1.515   6.495   0.948  0.7980  0.3880 -0.6648
  879MOL0     H15989   1.589   6.658   0.916  0.9782 -0.8950 -0.9089
  879MOL0     H15990   1.362   6.762   0.913  2.6575 -1.5038  0.6528
  879MOL0     H15991   1.120   6.785   0.955 -0.2346 -0.6618 -0.3049
  879MOL0     H15992   0.741   6.815   1.434  2.1525 -1.9988 -1.0528
  879MOL0     H15993   0.492   6.804   1.420 -1.0686 -0.0923 -0.9746
  879MOL0     H15994   0.177   6.659   1.158 -0.2510  0.9018 -1.6956
  879MOL0     H15995   0.315   6.554   1.115  1.4528  0.3354 -1.4249
  879MOL0     H15996   0.377   6.746   0.952  0.6686 -2.3785 -1.3871
  879MOL0     H15997   0.210   6.806   0.984  1.0999 -0.9619  1.2877
  879MOL0     H15998   0.138   6.595   0.914 -0.4733  2.0517  1.4348
  879MOL0     H15999   0.311   6.544   0.866  2.7655  1.3781  1.7892
  879MOL0     H16000   0.145   6.772   0.754  0.5995  0.1403  0.9958
  879MOL0     H16001   0.319   6.774   0.738 -0.4552  1.0559  3.1544
  879MOL0     H16002   0.311   6.553   0.627  0.8262  0.0194 -3.0117
  879MOL0     H16003   0.256   6.687   0.538  1.6666  0.3371  0.7653
  879MOL0     H16004   0.067   6.509   0.687 -1.3339  0.0730  0.5930
  879MOL0     H16005   0.108   6.488   0.515  0.0248  0.8354 -0.6029
  879MOL0     H16006  -0.047   6.721   0.637 -2.9124 -1.0016  0.2124
  879MOL0     H16007   0.024   6.746   0.489 -2.3006  0.9498 -0.9280
  879MOL0     H16008  -0.093   6.563   0.381 -0.1336 -3.3886  1.4295
  879MOL0     H16009  -0.211   6.668   0.452 -2.9649 -1.9932  0.6038
  879MOL0     H16010   0.544   6.588   1.045  1.2374  0.1669  0.1718
  879MOL0     H16011   0.773   6.593   1.067 -0.3070  0.8719  0.3070
  879MOL0     H16012   1.175   6.691   1.374 -0.0372 -4.2304 -1.7695
  879MOL0     H16013   1.412   6.635   1.323  2.9609 -2.5426 -3.2418
  879MOL0     H16014   3.184   6.950   1.175  2.2355  0.6775 -1.0146
  879MOL0     H16015   3.377   6.902   1.037 -0.2239 -1.4227 -0.3194
  879MOL0     H16016   3.646   7.038   0.674  0.5984  0.5830 -0.3784
  879MOL0     H16017   3.796   6.997   0.473  0.0662 -1.8766 -2.2619
  879MOL0     H16018   3.648   6.761   0.181 -0.1900  1.9276  1.3444
  879MOL0     H16019   3.767   6.631   0.218 -2.7323  0.6148  4.3123
  879MOL0     H16020   3.925   6.734   0.077 -0.9392 -3.6062  1.4874
  879MOL0     H16021   3.776   6.719  -0.012  0.8241 -0.0072  0.5347
  879MOL0     H16022   3.693   6.936   0.032 -0.7176 -0.0875  2.3007
  879MOL0     H16023   3.841   6.936  -0.068  4.1328  0.7054  1.5411
  879MOL0     H16024   3.858   7.121   0.056  2.0047  1.1904  0.8068
  879MOL0     H16025   3.815   7.049   0.205 -0.3463 -3.3821 -0.8179
  879MOL0     H16026   4.228   6.981   0.186  0.4612  0.1686 -2.1498
  879MOL0     H16027   3.599   6.637   0.364  2.6303 -0.3772 -0.2479
  879MOL0     H16028   3.441   6.679   0.546  2.5079 -1.4537  1.3176
  880MOL0     O16029   0.749   0.268   7.303  0.3312 -1.1564 -0.9353
  880MOL0     C16030   0.753   0.162   7.239  0.4521 -0.2980 -0.2170
  880MOL0     O16031   0.651   0.102   7.175 -0.1752 -0.2165  1.0741
  880MOL0     C16032   0.522   0.156   7.175 -0.9375 -0.6974 -0.4936
  880MOL0     C16033   0.464   0.233   7.271 -1.2712 -1.0079  0.5260
  880MOL0     C16034   0.330   0.269   7.263 -0.1392 -0.0554 -0.0472
  880MOL0     C16035   0.247   0.220   7.159 -0.1633 -0.3245  0.0195
  880MOL0     O16036   0.106   0.260   7.158 -1.0646  0.1292 -0.3098
  880MOL0     C16037   0.011   0.170   7.205  0.0595  0.6375  0.3386
  880MOL0     C16038  -0.126   0.235   7.175 -0.6136  1.4708 -0.1642
  880MOL0     C16039  -0.233   0.125   7.198  0.2957 -0.1437  0.3131
  880MOL0     C16040  -0.381   0.187   7.194 -0.5239 -0.6232 -0.2960
  880MOL0     C16041  -0.477   0.071   7.181  0.5909  0.2200  0.3074
  880MOL0     C16042  -0.621   0.123   7.209  0.4297 -0.2749 -0.1734
  880MOL0     C16043  -0.720   0.025   7.158  0.2073 -0.1973 -0.1138
  880MOL0     C16044  -0.859   0.046   7.224 -0.2360 -0.4171 -0.2987
  880MOL0     N16045  -0.935   0.158   7.170 -0.2681 -0.6959 -0.1474
  880MOL0     C16046  -1.028   0.154   7.075  0.1888 -0.0663 -0.9423
  880MOL0     C16047  -1.098   0.275   7.087 -0.1498 -0.9813  1.0326
  880MOL0     C16048  -1.220   0.322   6.997 -1.1086  0.0440  0.4067
  880MOL0     C16049  -1.358   0.330   7.066 -1.0741  0.2171  0.6044
  880MOL0     C16050  -1.439   0.211   7.084  0.5105  0.1992  0.1001
  880MOL0     C16051  -1.580   0.252   7.118 -0.2427 -0.2365 -0.3429
  880MOL0     O16052  -1.636   0.128   7.171  0.2302  0.0830 -0.2838
  880MOL0     C16053  -1.761   0.133   7.219 -0.0407 -0.3052  0.7135
  880MOL0     C16054  -1.794   0.009   7.275 -0.0383  0.2178 -0.7284
  880MOL0     C16055  -1.915  -0.023   7.335  1.2058 -0.7072  0.3940
  880MOL0     C16056  -2.017   0.075   7.332  0.1228  0.6522 -0.2898
  880MOL0     C16057  -2.153   0.059   7.395 -0.8576  0.1646  0.0209
  880MOL0     O16058  -2.248   0.135   7.335  0.4512  0.7657  0.4650
  880MOL0     C16059  -2.361   0.169   7.412 -1.0320  0.0914  0.5364
  880MOL0     C16060  -2.375   0.288   7.473  0.4053 -0.0059 -0.3867
  880MOL0     C16061  -2.489   0.326   7.553 -0.2426 -0.1447 -0.1078
  880MOL0     C16062  -2.590   0.232   7.581  0.3355  0.4036 -0.0954
  880MOL0     O16063  -2.690   0.250   7.671 -0.1010 -0.3509 -0.1889
  880MOL0     C16064  -2.725   0.391   7.690 -0.6250 -0.0377  0.2368
  880MOL0     C16065  -2.852   0.388   7.758 -0.0780 -0.6586 -0.3267
  880MOL0     C16066  -2.891   0.526   7.819  0.0031 -0.0198 -0.3453
  880MOL0     C16067  -3.025   0.512   7.905  0.1906  0.2490 -0.2050
  880MOL0     C16068  -3.054   0.644   7.983  0.2552  0.0894  0.5837
  880MOL0     C16069  -3.195   0.648   8.037 -0.4008  0.1793 -0.9746
  880MOL0     C16070  -3.306   0.661   7.935  0.3382 -0.0377 -0.0606
  880MOL0     C16071  -3.443   0.709   7.984 -0.9455 -0.0292  0.0545
  880MOL0    Cl16072  -3.435   0.881   8.046  0.1098  0.0814 -0.1525
  880MOL0     C16073  -2.572   0.101   7.527 -0.2219  0.1893  0.0353
  880MOL0     C16074  -2.460   0.075   7.446 -0.0571 -0.7893  0.4934
  880MOL0     O16075  -2.167  -0.014   7.487  0.4300 -0.2378  0.7213
  880MOL0     C16076  -1.987   0.188   7.252  0.6628 -0.1942 -0.5578
  880MOL0     C16077  -1.861   0.218   7.203  0.6514 -1.0034  0.1580
  880MOL0     N16078  -1.032   0.354   7.183  0.5815  0.5468  0.5760
  880MOL0     N16079  -0.933   0.287   7.228  0.3676 -0.2039  0.7504
  880MOL0     C16080   0.306   0.134   7.063  0.2082 -0.6126  0.3777
  880MOL0     C16081   0.439   0.100   7.077  0.6158 -0.7153 -0.0615
  880MOL0     C16082   0.888   0.109   7.211  0.1639  0.2334  0.2858
  880MOL0     C16083   0.908   0.008   7.121  1.3795  0.5290  0.3108
  880MOL0     C16084   1.035  -0.039   7.097 -0.5051 -0.4278  0.9537
  880MOL0     C16085   1.149   0.013   7.160  0.5768  0.0592 -0.4717
  880MOL0     O16086   1.266  -0.045   7.146 -0.2856  1.0760  0.8296
  880MOL0     C16087   1.281  -0.183   7.132 -0.4887  0.1162  0.6581
  880MOL0     C16088   1.424  -0.229   7.111  0.8526  0.6144 -0.4994
  880MOL0     C16089   1.534  -0.157   7.180 -0.1018 -1.0775  0.4228
  880MOL0     C16090   1.673  -0.218   7.147  0.1407  0.8848 -0.0275
  880MOL0     C16091   1.771  -0.157   7.232 -0.4613 -0.5037  0.4721
  880MOL0     C16092   1.867  -0.097   7.286  0.0814 -1.3413 -0.6104
  880MOL0     C16093   1.123   0.118   7.244  0.2255 -0.4240  1.0337
  880MOL0     C16094   0.997   0.162   7.273  0.1168 -1.1980 -1.0675
  880MOL0     H16095   0.520   0.278   7.352 -1.9185  0.8151  0.0262
  880MOL0     H16096   0.290   0.341   7.334 -0.2604  3.1953 -3.1422
  880MOL0     H16097   0.034   0.122   7.300  0.1051 -3.6249 -1.5966
  880MOL0     H16098   0.017   0.090   7.130  0.9463 -0.9523  2.0160
  880MOL0     H16099  -0.130   0.264   7.070 -1.5895  0.2687 -0.4928
  880MOL0     H16100  -0.142   0.319   7.243 -1.4714  2.3660 -1.4331
  880MOL0     H16101  -0.217   0.069   7.290  2.2582  1.1131  0.7886
  880MOL0     H16102  -0.220   0.049   7.120 -0.0924 -1.7198  1.7480
  880MOL0     H16103  -0.386   0.246   7.285 -0.0348  1.9093 -1.8180
  880MOL0     H16104  -0.389   0.262   7.114  0.2811  1.3036  1.3439
  880MOL0     H16105  -0.453  -0.018   7.241  2.8399  1.1800  0.9243
  880MOL0     H16106  -0.485   0.038   7.077 -3.7548 -0.0949  0.5374
  880MOL0     H16107  -0.630   0.223   7.164 -2.8371 -0.3198  0.1638
  880MOL0     H16108  -0.632   0.152   7.314  2.2922  2.1604 -0.5429
  880MOL0     H16109  -0.727   0.040   7.050  1.2873 -1.8343 -0.4629
  880MOL0     H16110  -0.689  -0.078   7.179 -2.0517 -0.5708  1.8009
  880MOL0     H16111  -0.847   0.055   7.332  0.8953  2.0769 -0.5752
  880MOL0     H16112  -0.921  -0.043   7.210 -0.9434 -0.6639  3.3708
  880MOL0     H16113  -1.044   0.071   7.006  0.2855 -2.0280  1.2811
  880MOL0     H16114  -1.238   0.258   6.910 -3.6282 -2.0113  2.2561
  880MOL0     H16115  -1.192   0.424   6.970  2.9327 -0.7496  0.9999
  880MOL0     H16116  -1.414   0.401   7.005 -0.5368  1.0477  1.0680
  880MOL0     H16117  -1.347   0.384   7.160  0.6420  2.8084 -0.9646
  880MOL0     H16118  -1.426   0.162   6.988 -0.9303 -1.5904  0.7600
  880MOL0     H16119  -1.392   0.146   7.159 -0.3902  0.7838  1.2040
  880MOL0     H16120  -1.634   0.283   7.028  1.8585 -1.3472 -2.0889
  880MOL0     H16121  -1.580   0.332   7.193  3.0405  1.8048 -2.2945
  880MOL0     H16122  -1.719  -0.068   7.288 -0.5667 -0.0324  1.0311
  880MOL0     H16123  -1.918  -0.123   7.377 -1.0244 -1.4390 -1.2517
  880MOL0     H16124  -2.306   0.369   7.453  0.6618  0.0375  0.6045
  880MOL0     H16125  -2.493   0.424   7.600  0.3173  0.0831 -0.5217
  880MOL0     H16126  -2.743   0.441   7.594 -0.3132  1.6855  1.0552
  880MOL0     H16127  -2.655   0.457   7.741 -0.4924  1.1100 -1.3509
  880MOL0     H16128  -2.846   0.318   7.842 -2.6020 -0.4802  0.0784
  880MOL0     H16129  -2.932   0.352   7.692 -0.9691 -1.2405  1.0450
  880MOL0     H16130  -2.909   0.599   7.739 -0.7287  0.4200  0.2091
  880MOL0     H16131  -2.807   0.566   7.877 -0.7194 -3.3552  3.4984
  880MOL0     H16132  -3.102   0.486   7.832 -3.0047  0.0614  2.9682
  880MOL0     H16133  -3.035   0.433   7.980 -1.4184 -0.2736 -0.9291
  880MOL0     H16134  -3.041   0.723   7.908  1.0323 -2.4894 -2.1774
  880MOL0     H16135  -2.993   0.636   8.073  0.5445 -0.7122  0.3140
  880MOL0     H16136  -3.190   0.734   8.103 -1.7600 -1.2444  1.1072
  880MOL0     H16137  -3.205   0.552   8.089  1.8407  0.9526  1.0517
  880MOL0     H16138  -3.273   0.733   7.860  2.3837 -1.0219 -0.1733
  880MOL0     H16139  -3.322   0.567   7.882 -1.8218 -0.4224  1.1453
  880MOL0     H16140  -3.471   0.639   8.063 -0.2101 -0.9196 -0.4606
  880MOL0     H16141  -3.523   0.723   7.911 -2.8314  1.4599  2.2350
  880MOL0     H16142  -2.658   0.035   7.542  1.4515 -1.8068  1.4167
  880MOL0     H16143  -2.460  -0.009   7.377 -3.1949 -1.3985  1.0660
  880MOL0     H16144  -2.068   0.258   7.238 -2.8627 -3.8360 -0.4344
  880MOL0     H16145  -1.850   0.308   7.144 -1.3872 -0.8504 -0.0469
  880MOL0     H16146   0.247   0.099   6.978 -0.4243  1.9998 -0.3558
  880MOL0     H16147   0.487   0.034   7.005  1.1111 -2.8324  2.0808
  880MOL0     H16148   0.832  -0.036   7.057  3.1981 -1.0895 -0.8865
  880MOL0     H16149   1.038  -0.110   7.016  1.0476 -0.5442  1.0682
  880MOL0     H16150   1.220  -0.201   7.043 -3.2392  2.3212  1.9355
  880MOL0     H16151   1.240  -0.234   7.220  0.6134 -0.0660  1.0819
  880MOL0     H16152   1.426  -0.335   7.138 -2.6144 -0.1682 -2.7413
  880MOL0     H16153   1.444  -0.223   7.004  0.0069  0.7276 -0.6563
  880MOL0     H16154   1.515  -0.159   7.288 -0.7623 -0.7494  0.3132
  880MOL0     H16155   1.535  -0.054   7.146 -3.1449 -0.4436  1.9074
  880MOL0     H16156   1.673  -0.322   7.181  1.0909  1.4814  1.9507
  880MOL0     H16157   1.704  -0.212   7.042  0.9634  0.1933  0.1625
  880MOL0     H16158   1.951  -0.056   7.338  0.4488  1.9126 -3.4257
  880MOL0     H16159   1.205   0.156   7.305 -0.8445  2.2761  0.9515
  880MOL0     H16160   0.988   0.253   7.332 -0.7507 -0.8241 -1.7434
  881MOL0     O16161   0.015   2.349   0.192  0.4514 -0.9557  0.8322
  881MOL0     C16162   0.133   2.354   0.207 -0.7797  1.5492 -1.0109
  881MOL0     O16163   0.215   2.246   0.247 -0.8396 -0.3828  0.1476
  881MOL0     C16164   0.168   2.123   0.265  0.0786  0.1084  0.1265
  881MOL0     C16165   0.078   2.108   0.362  1.3148  1.5849 -0.0117
  881MOL0     C16166  -0.001   1.993   0.363 -0.1905  0.3901  0.0102
  881MOL0     C16167   0.028   1.884   0.267  0.4591 -0.5441  0.0124
  881MOL0     O16168  -0.059   1.777   0.259  0.0389  0.6908 -1.0879
  881MOL0     C16169  -0.198   1.814   0.247 -0.3904  0.2659  0.6568
  881MOL0     C16170  -0.269   1.711   0.163  0.2665  0.3167 -0.1242
  881MOL0     C16171  -0.424   1.744   0.168 -0.1152  0.1760  0.4845
  881MOL0     C16172  -0.496   1.691   0.297 -0.3727  0.2216  0.7401
  881MOL0     C16173  -0.649   1.713   0.291 -0.1174 -0.1674 -0.1723
  881MOL0     C16174  -0.727   1.622   0.193  0.1169 -0.1851 -0.6439
  881MOL0     C16175  -0.721   1.479   0.247  1.0053 -0.3852  1.0581
  881MOL0     C16176  -0.828   1.385   0.181  1.5195 -1.1022 -0.2114
  881MOL0     N16177  -0.797   1.237   0.202 -0.4435  0.1695 -0.4197
  881MOL0     C16178  -0.867   1.124   0.163  0.0033  0.0187 -0.4576
  881MOL0     C16179  -0.793   1.019   0.198  0.2562  0.6794 -0.2269
  881MOL0     C16180  -0.829   0.874   0.183  0.0478  0.7079 -0.5018
  881MOL0     C16181  -0.868   0.807   0.315  0.5583 -0.4550  0.0529
  881MOL0     C16182  -0.920   0.664   0.286 -0.4952 -0.4049 -0.6186
  881MOL0     C16183  -0.947   0.585   0.412 -0.3745  0.5169  0.6863
  881MOL0     O16184  -0.992   0.459   0.364 -0.2306  0.2306  0.3380
  881MOL0     C16185  -1.031   0.370   0.461 -1.1000  0.1242 -0.4727
  881MOL0     C16186  -0.999   0.370   0.606 -0.7236 -0.4350 -1.0553
  881MOL0     C16187  -1.037   0.256   0.684 -0.2202  0.2811 -0.1850
  881MOL0     C16188  -1.109   0.144   0.626  0.2548  0.1722 -0.4126
  881MOL0     C16189  -1.150   0.020   0.700 -0.0531 -0.3357 -0.0391
  881MOL0     O16190  -1.251  -0.058   0.652 -0.3931 -0.4170 -0.3361
  881MOL0     C16191  -1.294  -0.167   0.718  0.4404  0.5757 -0.4625
  881MOL0     C16192  -1.305  -0.181   0.863  0.4958  0.0564  0.3051
  881MOL0     C16193  -1.346  -0.295   0.923 -0.0348  0.1282 -0.0763
  881MOL0     C16194  -1.392  -0.397   0.847  0.3250 -0.4847  0.0675
  881MOL0     O16195  -1.449  -0.508   0.903  0.0154 -0.7577  0.4366
  881MOL0     C16196  -1.583  -0.547   0.866  0.3296  0.2524  0.0964
  881MOL0     C16197  -1.687  -0.492   0.962  0.3503 -0.0131 -0.7451
  881MOL0     C16198  -1.821  -0.531   0.919  0.7151 -0.3858 -0.6674
  881MOL0     C16199  -1.931  -0.505   1.027 -0.1575  0.2446 -0.0001
  881MOL0     C16200  -2.059  -0.571   0.970 -0.0149 -0.0277 -0.1318
  881MOL0     C16201  -2.185  -0.545   1.049  0.7510  0.5533 -0.0662
  881MOL0     C16202  -2.219  -0.398   1.077  0.1534  0.0374 -0.1780
  881MOL0     C16203  -2.368  -0.375   1.113  0.1415  0.1040 -0.5766
  881MOL0    Cl16204  -2.477  -0.388   0.982 -0.1116 -0.0975  0.6445
  881MOL0     C16205  -1.381  -0.393   0.708  0.4495  0.0386 -0.1249
  881MOL0     C16206  -1.345  -0.267   0.644  0.8504 -0.1397 -0.7501
  881MOL0     O16207  -1.078  -0.003   0.796 -0.0128  0.4995 -0.8267
  881MOL0     C16208  -1.160   0.158   0.488  0.0295 -0.2768  0.0661
  881MOL0     C16209  -1.106   0.266   0.417 -0.2324 -0.6691 -0.4523
  881MOL0     N16210  -0.670   1.064   0.256 -0.1228 -0.7178 -0.3842
  881MOL0     N16211  -0.680   1.191   0.260  0.5181 -0.0364  0.7812
  881MOL0     C16212   0.127   1.904   0.169 -0.0833 -0.1685 -0.1968
  881MOL0     C16213   0.199   2.017   0.174  0.5554 -0.6270 -0.2106
  881MOL0     C16214   0.201   2.487   0.195 -0.3223 -0.0819  0.0036
  881MOL0     C16215   0.135   2.606   0.232 -0.6613 -1.0944  0.6126
  881MOL0     C16216   0.207   2.728   0.226 -0.3050  0.1807 -0.7022
  881MOL0     C16217   0.345   2.733   0.196  0.0713  0.5570  0.7245
  881MOL0     O16218   0.395   2.856   0.181 -0.2036 -0.3986  1.0909
  881MOL0     C16219   0.505   2.883   0.090 -0.1543  0.1153 -0.5559
  881MOL0     C16220   0.496   3.038   0.086 -0.4783  0.5156  0.5001
  881MOL0     C16221   0.561   3.103   0.215 -0.6163  0.0453  0.1162
  881MOL0     C16222   0.560   3.245   0.202 -0.5445 -0.1031  0.1991
  881MOL0     C16223   0.632   3.303   0.087 -0.2320  0.4198  0.4690
  881MOL0     C16224   0.688   3.347  -0.010 -0.6202 -0.1411 -0.7784
  881MOL0     C16225   0.405   2.612   0.153 -0.6820  0.4188  0.1559
  881MOL0     C16226   0.342   2.489   0.157  0.1059 -1.3857 -0.3794
  881MOL0     H16227   0.067   2.183   0.439 -1.8459  1.2036  0.0069
  881MOL0     H16228  -0.072   1.975   0.443 -2.4754  0.3622 -1.9332
  881MOL0     H16229  -0.201   1.912   0.199 -0.1766  0.7327  1.5636
  881MOL0     H16230  -0.242   1.832   0.346  3.3435 -0.8558  2.7061
  881MOL0     H16231  -0.263   1.613   0.212 -1.5006  0.3415  0.2224
  881MOL0     H16232  -0.233   1.713   0.060  0.7512  0.1518  0.0396
  881MOL0     H16233  -0.472   1.689   0.086  1.2945 -1.4260  0.6660
  881MOL0     H16234  -0.440   1.851   0.150  1.7176  0.1808 -1.6599
  881MOL0     H16235  -0.472   1.584   0.299  2.5714  0.4865 -4.3506
  881MOL0     H16236  -0.474   1.739   0.393  0.5846 -0.8290  1.0753
  881MOL0     H16237  -0.654   1.817   0.258  0.9540 -0.5066 -1.4277
  881MOL0     H16238  -0.682   1.714   0.396  1.3285  1.8503  0.3076
  881MOL0     H16239  -0.686   1.627   0.092  2.8831  1.3928  0.4412
  881MOL0     H16240  -0.828   1.663   0.183  0.5619  0.8934 -0.8617
  881MOL0     H16241  -0.626   1.429   0.229  1.6480 -0.0470  3.2503
  881MOL0     H16242  -0.738   1.463   0.354 -1.8629  2.3579  1.1754
  881MOL0     H16243  -0.837   1.417   0.077 -1.1484  3.7480  1.1871
  881MOL0     H16244  -0.914   1.420   0.240  2.6231  2.9643 -0.7109
  881MOL0     H16245  -0.963   1.119   0.113 -0.8360 -1.0593  1.1856
  881MOL0     H16246  -0.747   0.820   0.136  1.2213  1.8390  0.1654
  881MOL0     H16247  -0.923   0.861   0.128 -0.3230 -0.7514  0.4221
  881MOL0     H16248  -0.954   0.867   0.346  0.6271  1.5493 -3.1870
  881MOL0     H16249  -0.790   0.803   0.392 -2.3951 -0.5061  3.3073
  881MOL0     H16250  -1.016   0.678   0.235 -1.6640  2.1343  2.0104
  881MOL0     H16251  -0.849   0.621   0.214 -2.0692  0.9323 -3.0969
  881MOL0     H16252  -1.023   0.634   0.474 -2.2954 -1.1581 -0.2611
  881MOL0     H16253  -0.851   0.586   0.466  1.2106  3.6380 -1.8355
  881MOL0     H16254  -0.958   0.454   0.662 -0.1178 -2.3767  1.6260
  881MOL0     H16255  -1.007   0.255   0.788 -0.9740 -3.6175  0.1179
  881MOL0     H16256  -1.271  -0.096   0.921  0.9381 -0.9114  1.5094
  881MOL0     H16257  -1.352  -0.293   1.031  2.0205 -2.4526  0.1759
  881MOL0     H16258  -1.585  -0.656   0.873 -0.5079  0.1397 -1.4488
  881MOL0     H16259  -1.598  -0.510   0.764 -0.3096  4.2029  1.4387
  881MOL0     H16260  -1.677  -0.383   0.956  1.4726 -0.1470 -1.4837
  881MOL0     H16261  -1.677  -0.536   1.062 -2.5049  2.1673  0.6687
  881MOL0     H16262  -1.823  -0.638   0.897 -0.2329 -0.6897  0.7854
  881MOL0     H16263  -1.856  -0.481   0.828 -0.5457 -0.4479 -0.2377
  881MOL0     H16264  -1.895  -0.542   1.123 -2.6938  3.7542  2.5699
  881MOL0     H16265  -1.937  -0.396   1.032  0.0423  0.3049 -0.9376
  881MOL0     H16266  -2.047  -0.679   0.960 -3.3397 -0.5410  0.4478
  881MOL0     H16267  -2.078  -0.529   0.870  1.1026  0.2509 -0.2423
  881MOL0     H16268  -2.163  -0.593   1.146 -4.5181  1.0346  1.6781
  881MOL0     H16269  -2.264  -0.607   1.005  1.6246 -1.2789  0.8003
  881MOL0     H16270  -2.156  -0.377   1.164 -0.0634 -0.7923  0.1936
  881MOL0     H16271  -2.198  -0.344   0.985 -1.2359  3.0242  1.1136
  881MOL0     H16272  -2.382  -0.273   1.149 -1.7773  0.2669 -1.6257
  881MOL0     H16273  -2.407  -0.443   1.189 -1.3356  0.5777 -0.8837
  881MOL0     H16274  -1.420  -0.474   0.647  3.0310  0.0173 -1.9161
  881MOL0     H16275  -1.361  -0.267   0.537  1.0652  0.1775 -0.7865
  881MOL0     H16276  -1.219   0.082   0.438 -0.5001  0.2713 -0.1574
  881MOL0     H16277  -1.127   0.264   0.310 -0.8617 -3.9914 -0.3742
  881MOL0     H16278   0.126   1.832   0.088  0.7042 -0.0300 -0.3339
  881MOL0     H16279   0.275   2.030   0.098  0.1618  2.7266 -0.1658
  881MOL0     H16280   0.035   2.591   0.271 -0.9829 -1.1941 -0.2297
  881MOL0     H16281   0.154   2.819   0.251 -1.6930 -1.0264  0.9533
  881MOL0     H16282   0.488   2.827  -0.002 -1.5261 -0.9864  0.3242
  881MOL0     H16283   0.608   2.864   0.124 -1.3342  0.3834  3.8090
  881MOL0     H16284   0.540   3.072  -0.008 -3.0910  1.2149 -0.5595
  881MOL0     H16285   0.389   3.058   0.086 -1.1617 -2.4584 -1.5189
  881MOL0     H16286   0.661   3.059   0.221 -1.1668 -1.0338  2.1699
  881MOL0     H16287   0.510   3.087   0.310 -2.8292  1.9755 -0.6314
  881MOL0     H16288   0.454   3.268   0.191 -1.0445 -2.5005 -0.4210
  881MOL0     H16289   0.591   3.295   0.294  4.7597 -0.0164 -1.2981
  881MOL0     H16290   0.739   3.376  -0.099 -0.5711 -1.3538 -1.1714
  881MOL0     H16291   0.499   2.605   0.099 -0.9603 -1.7271 -0.1416
  881MOL0     H16292   0.393   2.396   0.134  4.3467  0.6598 -0.2360
  882MOL0     O16293   0.490   7.132   3.184 -0.0780 -0.3454 -0.2461
  882MOL0     C16294   0.543   7.170   3.078 -0.1714  0.9049 -0.4683
  882MOL0     O16295   0.485   7.240   2.972  0.9034  0.6115 -0.2919
  882MOL0     C16296   0.353   7.225   2.958 -0.2325 -0.6241  1.1240
  882MOL0     C16297   0.270   7.324   2.902  0.7376 -0.4226  0.2156
  882MOL0     C16298   0.132   7.303   2.887  0.3096  0.4177  0.6714
  882MOL0     C16299   0.070   7.179   2.929  0.9622  1.1801  0.2548
  882MOL0     O16300  -0.066   7.139   2.896  0.0573 -0.4081 -0.0859
  882MOL0     C16301  -0.162   7.242   2.902  1.5906  0.1538 -0.0315
  882MOL0     C16302  -0.305   7.210   2.846  0.0721  0.5184 -0.0434
  882MOL0     C16303  -0.318   7.206   2.695  0.3922  0.7824 -0.1438
  882MOL0     C16304  -0.464   7.232   2.654 -0.0797  0.2042  0.2922
  882MOL0     C16305  -0.567   7.130   2.691 -0.8120  0.7411 -1.0180
  882MOL0     C16306  -0.703   7.194   2.714  0.0058 -0.0244 -0.2047
  882MOL0     C16307  -0.800   7.091   2.766  0.2236  0.4737 -0.2338
  882MOL0     C16308  -0.937   7.157   2.775 -0.9215 -0.0880 -0.5136
  882MOL0     N16309  -1.052   7.062   2.790  0.3945  0.8055 -0.1428
  882MOL0     C16310  -1.072   6.988   2.908 -0.2054  0.7302 -0.4356
  882MOL0     C16311  -1.150   6.880   2.869  0.6533 -0.3794  0.0045
  882MOL0     C16312  -1.210   6.776   2.956  0.3116  0.0967 -0.1137
  882MOL0     C16313  -1.354   6.813   2.970 -0.3596  0.6395  0.0219
  882MOL0     C16314  -1.437   6.731   2.867 -0.3996 -0.0121  0.2789
  882MOL0     C16315  -1.576   6.788   2.872  1.0157 -0.3959  0.0511
  882MOL0     O16316  -1.663   6.728   2.963  0.0990  0.7898 -1.3895
  882MOL0     C16317  -1.796   6.762   2.969  0.6629 -0.4209  0.1695
  882MOL0     C16318  -1.863   6.729   3.087  0.3098  0.3030 -0.2800
  882MOL0     C16319  -1.997   6.752   3.107 -1.0863 -0.0842 -0.6248
  882MOL0     C16320  -2.062   6.829   3.016 -0.0181  0.2781 -0.1525
  882MOL0     C16321  -2.204   6.835   3.051 -0.2794 -0.5748  0.2035
  882MOL0     O16322  -2.255   6.791   3.170 -0.1866  0.4103 -0.5496
  882MOL0     C16323  -2.391   6.782   3.176  0.1558  0.5410  0.9176
  882MOL0     C16324  -2.458   6.663   3.167 -0.0111 -1.2748  0.9353
  882MOL0     C16325  -2.595   6.644   3.179 -0.2187 -0.0651  0.4672
  882MOL0     C16326  -2.667   6.763   3.207 -0.3222 -0.6271  0.1942
  882MOL0     O16327  -2.801   6.766   3.213  0.7991  0.1282  0.6644
  882MOL0     C16328  -2.870   6.655   3.273  0.1494  0.0269  0.0633
  882MOL0     C16329  -2.995   6.702   3.343 -0.1080  0.3894 -0.7429
  882MOL0     C16330  -3.096   6.715   3.235 -0.4143 -0.7228 -0.6238
  882MOL0     C16331  -3.222   6.778   3.287 -0.9897 -0.4219 -0.1465
  882MOL0     C16332  -3.339   6.793   3.189 -0.0249 -0.4139 -0.2928
  882MOL0     C16333  -3.428   6.912   3.238  0.4434 -0.6203 -0.1968
  882MOL0     C16334  -3.558   6.931   3.159 -0.3895  0.4195 -1.0919
  882MOL0     C16335  -3.663   6.829   3.183  0.3118 -0.1550 -0.5508
  882MOL0    Cl16336  -3.805   6.880   3.086 -0.3263 -0.2718 -0.4768
  882MOL0     C16337  -2.595   6.888   3.228 -0.2707  0.0276 -1.0091
  882MOL0     C16338  -2.461   6.898   3.211  0.9008 -0.2087  0.1298
  882MOL0     O16339  -2.267   6.898   2.970  0.1770  0.0733  0.0953
  882MOL0     C16340  -2.001   6.875   2.900 -0.0951  0.0636 -0.0104
  882MOL0     C16341  -1.865   6.843   2.879 -1.2273 -0.3123 -0.1008
  882MOL0     N16342  -1.184   6.897   2.737 -0.1831  0.1082 -0.5403
  882MOL0     N16343  -1.125   7.009   2.690  0.4440  0.1334  0.4933
  882MOL0     C16344   0.149   7.078   2.979  1.0157 -0.1651 -0.0201
  882MOL0     C16345   0.287   7.100   2.990  0.9721  0.0960 -0.4089
  882MOL0     C16346   0.689   7.141   3.074 -0.4470 -0.9379 -0.2989
  882MOL0     C16347   0.749   7.155   2.949  0.0801  0.3443  0.6169
  882MOL0     C16348   0.885   7.129   2.930 -0.2892  0.0117  0.4382
  882MOL0     C16349   0.964   7.110   3.040 -0.3354 -0.0338  0.4295
  882MOL0     O16350   1.095   7.070   3.028 -0.3805 -0.2237  0.5199
  882MOL0     C16351   1.167   7.102   2.911 -0.3449 -0.3678  0.1611
  882MOL0     C16352   1.307   7.039   2.941 -0.2083 -0.0465 -0.4621
  882MOL0     C16353   1.416   7.103   2.848 -0.7607  0.2588  0.4655
  882MOL0     C16354   1.547   7.049   2.882 -1.2947 -0.4086 -0.0113
  882MOL0     C16355   1.639   7.057   2.766 -0.6983  0.1078  0.0338
  882MOL0     C16356   1.720   7.067   2.681 -0.2096  1.0825 -0.1779
  882MOL0     C16357   0.900   7.110   3.170 -0.0848  0.4997 -0.4797
  882MOL0     C16358   0.765   7.118   3.186 -0.3584  0.4532 -0.9806
  882MOL0     H16359   0.311   7.417   2.862  2.4281 -2.0794 -2.2015
  882MOL0     H16360   0.075   7.391   2.858  0.7700 -0.2021 -2.5535
  882MOL0     H16361  -0.132   7.334   2.850  0.1194  0.1250 -0.9996
  882MOL0     H16362  -0.180   7.274   3.005 -0.6235 -0.2121 -0.2467
  882MOL0     H16363  -0.376   7.283   2.886 -0.7195 -0.4125  0.3073
  882MOL0     H16364  -0.328   7.112   2.889  1.7564  0.0946 -0.0656
  882MOL0     H16365  -0.293   7.106   2.660  1.8831  1.4249 -1.0034
  882MOL0     H16366  -0.257   7.275   2.636 -2.4803 -0.1690 -4.7420
  882MOL0     H16367  -0.493   7.325   2.703 -1.5429  0.0731 -0.2724
  882MOL0     H16368  -0.463   7.249   2.546  0.0747 -1.7794 -0.0570
  882MOL0     H16369  -0.535   7.074   2.780  0.1676 -1.6645 -2.7898
  882MOL0     H16370  -0.569   7.050   2.616 -0.0408 -1.3883  1.0932
  882MOL0     H16371  -0.737   7.260   2.634  1.0097  1.0883  0.2648
  882MOL0     H16372  -0.687   7.260   2.800  1.2827 -0.2310 -0.2743
  882MOL0     H16373  -0.812   7.014   2.689 -1.0057 -3.7529  3.7680
  882MOL0     H16374  -0.765   7.051   2.861  1.3497  1.5227 -0.1738
  882MOL0     H16375  -0.962   7.212   2.684 -2.1560  0.6333  0.2364
  882MOL0     H16376  -0.937   7.230   2.857  2.3242 -0.8289  0.3184
  882MOL0     H16377  -1.031   7.017   3.004 -1.7494  0.4188  0.3472
  882MOL0     H16378  -1.157   6.770   3.051 -1.2401  0.1713  0.7881
  882MOL0     H16379  -1.192   6.686   2.896 -0.4932  1.2801 -2.2496
  882MOL0     H16380  -1.362   6.920   2.947  1.4913  0.3145 -2.4962
  882MOL0     H16381  -1.394   6.789   3.069  1.2477  0.7097  0.7112
  882MOL0     H16382  -1.398   6.747   2.766  0.0068  2.9257  0.8006
  882MOL0     H16383  -1.443   6.625   2.893  1.0462  0.5741  3.5550
  882MOL0     H16384  -1.614   6.777   2.770  1.2846 -2.3501  0.1217
  882MOL0     H16385  -1.570   6.895   2.891  0.4193  0.1556 -2.4540
  882MOL0     H16386  -1.802   6.670   3.155 -0.8688 -2.6260 -1.6157
  882MOL0     H16387  -2.043   6.708   3.195  1.8352 -0.6635  0.7172
  882MOL0     H16388  -2.388   6.582   3.146 -2.1919 -4.0200  3.4093
  882MOL0     H16389  -2.642   6.547   3.169  3.0070 -1.8481  1.4081
  882MOL0     H16390  -2.807   6.602   3.346 -0.4110 -0.3325  0.2963
  882MOL0     H16391  -2.887   6.577   3.198 -0.3405 -0.3891  0.6004
  882MOL0     H16392  -2.965   6.790   3.400 -0.1757 -0.4464  0.6353
  882MOL0     H16393  -3.019   6.625   3.417  2.2568  0.5304  0.2761
  882MOL0     H16394  -3.117   6.615   3.195  1.0682 -2.2704  2.1653
  882MOL0     H16395  -3.068   6.779   3.151 -1.4115  1.5053  0.6607
  882MOL0     H16396  -3.254   6.724   3.377 -2.1437  1.2613  0.5011
  882MOL0     H16397  -3.198   6.878   3.325 -2.1120 -0.0676 -0.3234
  882MOL0     H16398  -3.408   6.708   3.181 -2.0977  1.0237  1.2697
  882MOL0     H16399  -3.305   6.809   3.086 -1.5481  2.4834 -0.4412
  882MOL0     H16400  -3.385   7.012   3.225 -3.2698  0.8845 -2.3416
  882MOL0     H16401  -3.442   6.885   3.343 -2.7270 -1.0287 -0.6223
  882MOL0     H16402  -3.615   7.020   3.187 -0.1986  0.4692 -0.8594
  882MOL0     H16403  -3.535   6.943   3.053 -0.3960 -0.4444 -1.2009
  882MOL0     H16404  -3.694   6.812   3.287 -0.0473 -1.4793 -0.8468
  882MOL0     H16405  -3.617   6.737   3.144  1.9933 -0.5510  2.1072
  882MOL0     H16406  -2.657   6.976   3.236  0.2661  0.4315 -1.2797
  882MOL0     H16407  -2.411   6.993   3.229  1.0606 -0.4952  1.2951
  882MOL0     H16408  -2.055   6.925   2.820  2.7588 -1.7068 -3.3224
  882MOL0     H16409  -1.817   6.883   2.790 -2.6748  3.3302  0.5661
  882MOL0     H16410   0.097   6.986   2.999 -1.7141  1.8112  2.9472
  882MOL0     H16411   0.349   7.012   3.001  0.6133 -0.0665  0.3100
  882MOL0     H16412   0.688   7.187   2.865 -0.3047 -0.3479  0.6300
  882MOL0     H16413   0.922   7.134   2.828  0.9451 -1.3393  0.7802
  882MOL0     H16414   1.165   7.209   2.888  3.1079 -0.6279 -2.0766
  882MOL0     H16415   1.123   7.063   2.819 -2.1385  1.9989 -0.0884
  882MOL0     H16416   1.338   7.060   3.044 -0.5678  3.8708 -1.0144
  882MOL0     H16417   1.297   6.930   2.930 -0.8772  0.0059 -0.4097
  882MOL0     H16418   1.431   7.211   2.840 -1.8155  0.3865 -0.0140
  882MOL0     H16419   1.394   7.084   2.743 -1.1480  1.0787  0.3945
  882MOL0     H16420   1.586   7.110   2.964  1.8291 -1.8982 -0.2544
  882MOL0     H16421   1.549   6.944   2.913  0.9147 -0.8817 -1.4535
  882MOL0     H16422   1.782   7.067   2.593 -0.7813  2.7074 -0.6265
  882MOL0     H16423   0.963   7.098   3.258 -1.2521 -0.7523  0.2266
  882MOL0     H16424   0.735   7.118   3.290  3.4300 -0.4196  0.2737
  883MOL0     O16425   5.970   9.172   6.873 -0.1328 -0.0752 -0.0145
  883MOL0     C16426   5.965   9.229   6.764  0.5993  0.5591 -1.4280
  883MOL0     O16427   5.853   9.218   6.682 -0.6005 -0.4405 -0.1481
  883MOL0     C16428   5.741   9.157   6.737  0.5416  0.2685 -0.2038
  883MOL0     C16429   5.746   9.027   6.777  0.4725  0.7564 -1.1399
  883MOL0     C16430   5.635   8.956   6.822  0.4024  1.0227 -0.5438
  883MOL0     C16431   5.514   9.030   6.835 -0.8869  0.9138 -0.6224
  883MOL0     O16432   5.389   8.993   6.881  0.4359 -0.0382  0.4607
  883MOL0     C16433   5.368   8.850   6.877 -0.6713 -0.6752  0.7301
  883MOL0     C16434   5.216   8.837   6.891  0.6085  0.3981 -0.8804
  883MOL0     C16435   5.121   8.854   6.769  0.2688 -0.3925 -0.6052
  883MOL0     C16436   4.975   8.854   6.818 -0.5104 -0.0737  0.1419
  883MOL0     C16437   4.911   8.716   6.853 -0.3307  0.3871 -0.8189
  883MOL0     C16438   4.785   8.726   6.942 -1.2539 -0.8154  0.2360
  883MOL0     C16439   4.657   8.775   6.862 -0.6072  0.6185 -0.5441
  883MOL0     C16440   4.613   8.673   6.749  0.2229 -0.6480 -0.3301
  883MOL0     N16441   4.468   8.695   6.724 -0.1957 -0.5515 -0.7749
  883MOL0     C16442   4.377   8.643   6.814  1.0174  0.4322 -0.0800
  883MOL0     C16443   4.257   8.667   6.756 -0.0654 -0.1609 -0.4662
  883MOL0     C16444   4.126   8.636   6.818  0.1468  0.0992 -0.1207
  883MOL0     C16445   4.099   8.492   6.798  0.5178  0.4467  1.0364
  883MOL0     C16446   4.067   8.440   6.653  0.0920 -0.0036  0.1067
  883MOL0     C16447   3.910   8.478   6.615 -0.3682 -0.9132 -0.4805
  883MOL0     O16448   3.825   8.386   6.671 -0.0719  0.0179 -0.8976
  883MOL0     C16449   3.708   8.364   6.620 -0.0995 -0.6917 -0.2043
  883MOL0     C16450   3.637   8.438   6.527 -1.0694 -0.0741  0.2635
  883MOL0     C16451   3.502   8.412   6.496  0.7405  0.0790  0.3227
  883MOL0     C16452   3.431   8.307   6.564  0.6226 -0.1425  0.7440
  883MOL0     C16453   3.279   8.278   6.560 -0.2625  0.0124 -0.0989
  883MOL0     O16454   3.231   8.158   6.592  0.2033  0.3605  0.8695
  883MOL0     C16455   3.105   8.123   6.550 -0.3122  0.7881 -0.1365
  883MOL0     C16456   3.079   7.989   6.513 -0.0547  0.2955  0.2965
  883MOL0     C16457   2.955   7.944   6.491  0.8590 -0.0506 -0.7553
  883MOL0     C16458   2.841   8.014   6.529 -0.8444  0.3539  0.1251
  883MOL0     O16459   2.718   7.956   6.504 -0.2822 -0.3745 -0.2219
  883MOL0     C16460   2.589   8.023   6.545 -0.6089 -0.2832 -0.5108
  883MOL0     C16461   2.478   7.935   6.477 -0.3157 -0.2960 -0.1456
  883MOL0     C16462   2.341   7.952   6.550  0.0466 -0.3318  1.2432
  883MOL0     C16463   2.239   7.882   6.463  0.3525  0.4796 -0.3291
  883MOL0     C16464   2.093   7.907   6.493 -0.2922  0.6228 -0.4993
  883MOL0     C16465   2.050   8.054   6.468 -0.5093 -0.0815  0.0766
  883MOL0     C16466   1.896   8.068   6.456  0.5167 -0.8067 -0.3491
  883MOL0     C16467   1.850   8.057   6.309  0.0977 -0.2792  0.4137
  883MOL0    Cl16468   1.679   8.127   6.269  0.3549  0.2050 -0.4569
  883MOL0     C16469   2.864   8.146   6.575 -0.2979 -0.4581 -0.5553
  883MOL0     C16470   2.997   8.198   6.590  0.8420 -0.0503 -0.1711
  883MOL0     O16471   3.220   8.371   6.505  0.0672  0.1827 -0.4479
  883MOL0     C16472   3.500   8.230   6.644 -0.9888  0.8178  0.8090
  883MOL0     C16473   3.636   8.254   6.672  0.4800  0.0101 -0.9671
  883MOL0     N16474   4.274   8.729   6.636  0.6493 -0.7382 -0.1933
  883MOL0     N16475   4.399   8.757   6.621 -0.3708 -0.0363 -0.7618
  883MOL0     C16476   5.526   9.172   6.820  0.0646 -0.1310  1.1496
  883MOL0     C16477   5.632   9.236   6.763 -0.2862  1.2086  0.4907
  883MOL0     C16478   6.088   9.294   6.729 -1.3922 -0.5323  0.2696
  883MOL0     C16479   6.086   9.363   6.614  0.3405  0.3732  0.5484
  883MOL0     C16480   6.202   9.425   6.557  0.0741  0.7541 -0.4511
  883MOL0     C16481   6.329   9.402   6.619  0.0550 -0.4536  1.0605
  883MOL0     O16482   6.450   9.455   6.572 -0.7088  0.1826  0.4679
  883MOL0     C16483   6.452   9.542   6.452 -0.7620 -0.4407 -0.0910
  883MOL0     C16484   6.430   9.683   6.494 -0.3343  0.0692 -0.7018
  883MOL0     C16485   6.409   9.779   6.376  0.2061 -0.4888 -1.0577
  883MOL0     C16486   6.397   9.925   6.425  0.9748  0.2578 -0.1607
  883MOL0     C16487   6.257   9.946   6.474 -0.1371  0.0919 -0.2419
  883MOL0     C16488   6.149   9.962   6.521  0.1403  0.7948 -0.0371
  883MOL0     C16489   6.332   9.324   6.735  0.1641  1.1286 -0.1799
  883MOL0     C16490   6.213   9.275   6.798 -1.2797 -0.0697 -0.6311
  883MOL0     H16491   5.834   8.966   6.763 -1.4939 -2.6846  0.0657
  883MOL0     H16492   5.637   8.848   6.837 -1.4500  0.9284 -0.7493
  883MOL0     H16493   5.408   8.804   6.968 -1.6950  0.2884  1.7149
  883MOL0     H16494   5.405   8.809   6.783 -1.2189 -1.3079  0.7827
  883MOL0     H16495   5.188   8.893   6.981  2.7475 -0.9517  0.7193
  883MOL0     H16496   5.195   8.732   6.915 -0.4152  0.9215  0.7204
  883MOL0     H16497   5.142   8.776   6.696  2.6053 -0.1249 -0.3211
  883MOL0     H16498   5.148   8.945   6.713  1.8181 -1.5441 -1.8175
  883MOL0     H16499   4.973   8.916   6.908 -0.9867 -0.1924  0.2119
  883MOL0     H16500   4.916   8.898   6.737  0.5040  0.1279 -0.5056
  883MOL0     H16501   4.985   8.645   6.890  3.1051  2.6271 -2.7935
  883MOL0     H16502   4.888   8.672   6.756  0.2502  1.4301 -1.4563
  883MOL0     H16503   4.799   8.785   7.033 -1.3033  0.2996 -0.4645
  883MOL0     H16504   4.777   8.620   6.968  0.6568 -1.2529 -0.7154
  883MOL0     H16505   4.576   8.789   6.934 -1.4166 -2.5192 -0.6890
  883MOL0     H16506   4.670   8.870   6.809 -0.8328  0.9323 -0.0416
  883MOL0     H16507   4.627   8.571   6.785 -1.1824 -1.0317 -0.8243
  883MOL0     H16508   4.672   8.687   6.657 -0.9884  4.9537 -0.6011
  883MOL0     H16509   4.399   8.601   6.912 -1.9982 -0.7421  0.2168
  883MOL0     H16510   4.057   8.704   6.767 -0.7790 -1.5923 -1.2278
  883MOL0     H16511   4.110   8.652   6.925 -1.8389 -1.2577 -0.1365
  883MOL0     H16512   4.017   8.452   6.859  3.2941 -4.2515  2.1663
  883MOL0     H16513   4.183   8.444   6.849  1.7798  1.8941  0.3978
  883MOL0     H16514   4.140   8.480   6.581 -0.6980 -0.6681 -1.0931
  883MOL0     H16515   4.084   8.332   6.643  1.1024  0.0838  0.7637
  883MOL0     H16516   3.895   8.475   6.507  1.9804  1.1139 -0.9416
  883MOL0     H16517   3.874   8.574   6.652 -1.4958 -0.1915 -3.2034
  883MOL0     H16518   3.684   8.523   6.480 -1.9340  0.8270  0.9790
  883MOL0     H16519   3.442   8.462   6.422 -1.3542  0.3935  2.1114
  883MOL0     H16520   3.169   7.928   6.504 -0.1870  0.0850  0.3789
  883MOL0     H16521   2.941   7.843   6.454 -0.5853 -0.9905  2.0159
  883MOL0     H16522   2.576   8.129   6.518 -2.7950 -0.1934  0.7124
  883MOL0     H16523   2.577   8.012   6.653  1.0154  1.0955 -0.1427
  883MOL0     H16524   2.510   7.831   6.485 -0.5835 -0.3002  0.9670
  883MOL0     H16525   2.474   7.956   6.370  2.0559  1.2089 -0.0166
  883MOL0     H16526   2.336   8.061   6.548  1.2325 -0.2632 -0.2920
  883MOL0     H16527   2.347   7.914   6.652  0.1267 -2.3843  0.5202
  883MOL0     H16528   2.243   7.908   6.357  1.6028 -0.7270 -0.6089
  883MOL0     H16529   2.257   7.775   6.473 -1.7698 -0.2755 -3.4469
  883MOL0     H16530   2.077   7.882   6.598  2.0565  1.4087  0.1184
  883MOL0     H16531   2.042   7.837   6.426  0.9636 -0.0734 -0.7548
  883MOL0     H16532   2.103   8.101   6.385  1.7938 -2.7674 -0.1307
  883MOL0     H16533   2.080   8.109   6.558 -1.5997  0.1421  0.3184
  883MOL0     H16534   1.835   8.001   6.517 -1.1198 -0.8963 -2.0141
  883MOL0     H16535   1.885   8.173   6.483 -1.1283  0.0472 -3.7793
  883MOL0     H16536   1.847   7.952   6.279  1.9269 -0.1301 -0.4313
  883MOL0     H16537   1.919   8.115   6.246 -1.9456  1.0848 -0.7070
  883MOL0     H16538   2.782   8.207   6.611  0.4187 -0.7569  1.7090
  883MOL0     H16539   3.031   8.292   6.632  0.0835  2.0769 -3.8906
  883MOL0     H16540   3.452   8.146   6.693  0.1294 -0.3055  0.0144
  883MOL0     H16541   3.696   8.188   6.734  1.6826  1.9553  0.0553
  883MOL0     H16542   5.435   9.229   6.834 -1.2055 -1.6572 -0.3979
  883MOL0     H16543   5.633   9.341   6.736 -1.1511  0.8444 -1.0742
  883MOL0     H16544   5.990   9.376   6.566  1.5220  0.5006 -1.9511
  883MOL0     H16545   6.190   9.493   6.473  0.8602  3.8616  1.7596
  883MOL0     H16546   6.384   9.514   6.371 -0.9400  2.7061 -1.1981
  883MOL0     H16547   6.554   9.539   6.413 -1.2484 -2.2883 -1.3644
  883MOL0     H16548   6.339   9.682   6.555 -0.6886  0.4920 -1.2054
  883MOL0     H16549   6.519   9.714   6.549 -1.5465  2.8074 -0.0985
  883MOL0     H16550   6.317   9.744   6.328 -0.2447  0.4717 -0.9053
  883MOL0     H16551   6.487   9.787   6.299  1.3835  2.4395  0.2909
  883MOL0     H16552   6.461   9.944   6.512  1.2665 -2.8037  0.4227
  883MOL0     H16553   6.432   9.993   6.347 -0.0498  1.3621  0.3008
  883MOL0     H16554   6.056   9.948   6.572 -0.1542 -1.1882 -0.9934
  883MOL0     H16555   6.425   9.313   6.790 -0.0548 -2.0693 -0.2954
  883MOL0     H16556   6.214   9.211   6.886 -6.5335 -2.4350 -1.9258
  884MOL0     O16557   0.643  10.296   4.487  0.4932 -0.1629 -0.1327
  884MOL0     C16558   0.696  10.326   4.596  1.0126 -0.9589 -0.5644
  884MOL0     O16559   0.639  10.342   4.716  0.5157  1.0256  0.3947
  884MOL0     C16560   0.505  10.318   4.724  0.4136  0.1020  0.2189
  884MOL0     C16561   0.424  10.430   4.695 -0.0572 -0.4928 -0.7148
  884MOL0     C16562   0.285  10.415   4.717  0.2014  0.6620  0.2223
  884MOL0     C16563   0.220  10.291   4.759 -0.7446 -0.7472  0.7304
  884MOL0     O16564   0.081  10.285   4.758  0.2792 -0.6138 -0.1396
  884MOL0     C16565   0.016  10.158   4.765 -0.1733 -0.3776  0.5384
  884MOL0     C16566  -0.125  10.177   4.731  0.4650  0.1925  0.9839
  884MOL0     C16567  -0.198  10.045   4.714  0.2379  0.4130  0.1766
  884MOL0     C16568  -0.351  10.058   4.705  0.1763 -0.2442 -0.0057
  884MOL0     C16569  -0.423   9.924   4.730 -0.7326 -0.0781  0.0179
  884MOL0     C16570  -0.576   9.925   4.692  0.4333  0.7978 -0.6432
  884MOL0     C16571  -0.663   9.804   4.734  0.1087  0.1200  0.2394
  884MOL0     C16572  -0.802   9.811   4.673 -0.7323  0.5588 -0.5552
  884MOL0     N16573  -0.799   9.788   4.533 -1.1661  0.9870 -0.0554
  884MOL0     C16574  -0.795   9.665   4.474  0.6854 -0.4843 -0.2345
  884MOL0     C16575  -0.794   9.680   4.340 -0.0520  0.7756 -0.2370
  884MOL0     C16576  -0.793   9.565   4.243 -0.1398 -0.0296 -0.1535
  884MOL0     C16577  -0.927   9.487   4.254 -0.1058  0.4703 -0.6973
  884MOL0     C16578  -0.948   9.378   4.144  0.3054 -0.1092  0.7643
  884MOL0     C16579  -1.081   9.303   4.165  0.2996  0.3253 -0.0821
  884MOL0     O16580  -1.054   9.241   4.293  0.5555 -1.1053 -0.7648
  884MOL0     C16581  -1.162   9.224   4.377 -1.1676 -0.0069 -0.8866
  884MOL0     C16582  -1.275   9.168   4.331  0.1893  0.2448 -0.3717
  884MOL0     C16583  -1.389   9.154   4.411 -0.5790 -0.0188  0.0319
  884MOL0     C16584  -1.380   9.184   4.545 -0.2942 -0.3847 -0.2109
  884MOL0     C16585  -1.500   9.162   4.638 -0.1058  0.1020  0.0154
  884MOL0     O16586  -1.614   9.119   4.582 -0.1874  0.0161 -0.4959
  884MOL0     C16587  -1.731   9.096   4.656  0.5370 -0.0862 -1.0694
  884MOL0     C16588  -1.737   9.023   4.779  0.7538 -0.0932  0.0117
  884MOL0     C16589  -1.853   8.985   4.834  0.2913  0.8809 -0.1136
  884MOL0     C16590  -1.969   9.028   4.781 -0.4803  0.9002 -0.6761
  884MOL0     O16591  -2.092   8.993   4.829 -0.1571 -0.8258 -0.4181
  884MOL0     C16592  -2.110   8.918   4.954  0.2978 -0.3464  0.0164
  884MOL0     C16593  -2.257   8.913   4.990  0.6988 -0.9022 -0.1966
  884MOL0     C16594  -2.328   8.806   4.908 -0.3127  1.6685 -0.0117
  884MOL0     C16595  -2.478   8.809   4.921 -0.4209 -0.6199  0.0114
  884MOL0     C16596  -2.566   8.715   4.844  0.7215  0.2560  0.1967
  884MOL0     C16597  -2.714   8.755   4.859 -0.3355 -0.6088  0.3731
  884MOL0     C16598  -2.801   8.665   4.774 -0.3188 -0.7934  0.3410
  884MOL0     C16599  -2.849   8.731   4.649  0.0773 -0.3501  0.7556
  884MOL0    Cl16600  -2.934   8.881   4.684  0.1567  0.3318 -0.2079
  884MOL0     C16601  -1.966   9.109   4.670 -0.2911  0.9591 -0.5967
  884MOL0     C16602  -1.850   9.144   4.603 -0.0506 -0.0669  0.3619
  884MOL0     O16603  -1.482   9.176   4.759  0.5083  0.6326 -0.3882
  884MOL0     C16604  -1.265   9.251   4.595 -0.7600 -0.3987  0.2269
  884MOL0     C16605  -1.158   9.266   4.505 -0.4669  0.8083 -0.6155
  884MOL0     N16606  -0.817   9.813   4.322 -0.7250 -0.2248 -0.5236
  884MOL0     N16607  -0.811   9.880   4.430  0.2862 -0.0774  0.4613
  884MOL0     C16608   0.307  10.189   4.783  0.7188 -0.0875  0.2201
  884MOL0     C16609   0.441  10.202   4.775  0.3876  0.3798  0.6649
  884MOL0     C16610   0.837  10.349   4.582  0.5749  0.4160 -1.1274
  884MOL0     C16611   0.918  10.291   4.482  1.5393 -0.4687 -0.9084
  884MOL0     C16612   1.052  10.318   4.467  0.1266 -0.1638 -0.6885
  884MOL0     C16613   1.111  10.395   4.566  0.7538  1.1279  0.2942
  884MOL0     O16614   1.243  10.419   4.572 -0.7529  0.3869  0.1772
  884MOL0     C16615   1.311  10.512   4.480 -0.0706  0.2156 -0.3184
  884MOL0     C16616   1.304  10.474   4.335 -0.1705 -0.5120  0.1261
  884MOL0     C16617   1.402  10.560   4.254  0.2043  0.4315  0.3562
  884MOL0     C16618   1.379  10.513   4.112 -0.2381  0.0814  0.9332
  884MOL0     C16619   1.438  10.385   4.085 -0.3579  0.6792  0.4172
  884MOL0     C16620   1.493  10.280   4.057  0.2649 -0.9107  0.5723
  884MOL0     C16621   1.039  10.435   4.682  0.0402  0.6112  0.0620
  884MOL0     C16622   0.898  10.415   4.686  0.2016 -0.4772 -0.4342
  884MOL0     H16623   0.447  10.536   4.687 -5.8963  0.9937 -1.9402
  884MOL0     H16624   0.217  10.500   4.712 -0.0443  0.4066 -2.1101
  884MOL0     H16625   0.035  10.103   4.858 -1.7510 -0.7151  0.6880
  884MOL0     H16626   0.053  10.092   4.685  1.1444  1.0937 -0.1226
  884MOL0     H16627  -0.135  10.237   4.639 -5.4270  0.9352  1.7155
  884MOL0     H16628  -0.171  10.238   4.809 -0.1822 -0.3337  1.0240
  884MOL0     H16629  -0.179   9.979   4.799  0.0008  0.3140  0.1533
  884MOL0     H16630  -0.166  10.012   4.615  1.1518  2.1787 -0.1592
  884MOL0     H16631  -0.395  10.121   4.783  0.6601  0.9733 -0.6817
  884MOL0     H16632  -0.386  10.090   4.606  0.5339 -0.6756 -0.2740
  884MOL0     H16633  -0.408   9.902   4.836  0.2915 -1.9755 -0.4790
  884MOL0     H16634  -0.364   9.849   4.677 -0.9262 -0.5099  0.4091
  884MOL0     H16635  -0.578   9.929   4.582 -0.9350 -0.1809 -0.6885
  884MOL0     H16636  -0.628  10.011   4.736 -1.1776 -1.2876  1.8087
  884MOL0     H16637  -0.611   9.709   4.717  1.1925  0.3257  2.1250
  884MOL0     H16638  -0.682   9.807   4.842 -2.1996 -0.6495 -0.0935
  884MOL0     H16639  -0.849   9.907   4.694  1.4142  1.3881  0.8049
  884MOL0     H16640  -0.857   9.728   4.717  2.0679 -1.5748 -0.7354
  884MOL0     H16641  -0.794   9.571   4.530 -1.9767 -0.8192 -0.6598
  884MOL0     H16642  -0.702   9.506   4.258  0.1646 -0.2938 -2.6028
  884MOL0     H16643  -0.795   9.600   4.139  0.4082 -2.1510 -0.9262
  884MOL0     H16644  -1.004   9.563   4.238 -2.2287 -1.2412  0.7759
  884MOL0     H16645  -0.941   9.443   4.353 -1.7813 -0.5002 -1.3293
  884MOL0     H16646  -0.956   9.418   4.042  1.8259 -0.9214  0.2891
  884MOL0     H16647  -0.862   9.310   4.145  0.2756 -0.1998 -0.4884
  884MOL0     H16648  -1.107   9.240   4.080  0.1329 -0.3973  0.4895
  884MOL0     H16649  -1.157   9.381   4.172 -0.0918  0.0947 -1.4328
  884MOL0     H16650  -1.284   9.131   4.230  3.1612 -0.6441 -0.4134
  884MOL0     H16651  -1.476   9.104   4.370 -0.4201  1.3507 -2.1394
  884MOL0     H16652  -1.646   9.006   4.837  0.9837 -0.5828 -0.4872
  884MOL0     H16653  -1.863   8.905   4.907  0.3695 -0.6300 -1.7062
  884MOL0     H16654  -2.060   8.970   5.036 -1.4362  0.2528  0.7172
  884MOL0     H16655  -2.072   8.816   4.944 -1.4708 -1.1235  0.8678
  884MOL0     H16656  -2.302   9.013   4.993  2.3536 -0.1201  2.9160
  884MOL0     H16657  -2.266   8.882   5.095  1.1188 -1.4662 -0.3210
  884MOL0     H16658  -2.283   8.710   4.934 -3.0693 -0.5781 -2.7845
  884MOL0     H16659  -2.302   8.825   4.803  1.2761 -0.3358 -0.0592
  884MOL0     H16660  -2.501   8.810   5.029  2.2521  1.8856  0.6941
  884MOL0     H16661  -2.509   8.904   4.875  1.0384 -1.9703 -4.1791
  884MOL0     H16662  -2.562   8.619   4.897  0.7137  1.0535  1.6853
  884MOL0     H16663  -2.525   8.704   4.743 -0.1309 -0.0660 -0.1195
  884MOL0     H16664  -2.720   8.854   4.813 -0.5931 -0.2507  1.1741
  884MOL0     H16665  -2.735   8.766   4.966 -2.2270  0.4403 -0.0539
  884MOL0     H16666  -2.748   8.576   4.741 -0.3337 -1.5754  2.2870
  884MOL0     H16667  -2.889   8.645   4.836 -0.5628  3.2592  1.6181
  884MOL0     H16668  -2.917   8.663   4.596  2.0813 -1.2678 -0.7756
  884MOL0     H16669  -2.766   8.758   4.583 -2.1805 -0.0893 -2.1683
  884MOL0     H16670  -2.061   9.146   4.633 -0.7953  0.4078  0.1043
  884MOL0     H16671  -1.852   9.206   4.514  5.9820 -0.2723 -0.3249
  884MOL0     H16672  -1.255   9.275   4.700 -3.6311 -1.6187  0.8796
  884MOL0     H16673  -1.068   9.317   4.539 -0.2211 -0.0890  0.1060
  884MOL0     H16674   0.274  10.089   4.809  1.0475 -0.3961 -0.5354
  884MOL0     H16675   0.495  10.109   4.787 -2.4582 -1.1000  3.3731
  884MOL0     H16676   0.865  10.237   4.404 -0.9139  1.8298 -0.9536
  884MOL0     H16677   1.107  10.296   4.376 -1.0216 -1.9410 -0.9958
  884MOL0     H16678   1.417  10.511   4.508 -0.0700 -1.9354 -0.1957
  884MOL0     H16679   1.276  10.614   4.497  2.7129  1.3441 -0.8310
  884MOL0     H16680   1.323  10.368   4.317 -2.3067 -0.7449 -1.0515
  884MOL0     H16681   1.206  10.497   4.292  0.3047  0.4543 -0.4845
  884MOL0     H16682   1.504  10.532   4.282  0.9665  0.0242 -2.4364
  884MOL0     H16683   1.387  10.668   4.265 -0.4069  0.4149 -0.2078
  884MOL0     H16684   1.271  10.507   4.094 -0.4533  3.2532  0.6059
  884MOL0     H16685   1.434  10.579   4.044  1.0171  0.2969  2.1148
  884MOL0     H16686   1.544  10.191   4.027 -2.0635 -1.8068 -0.9909
  884MOL0     H16687   1.086  10.482   4.768  2.0992 -0.2486 -0.5308
  884MOL0     H16688   0.849  10.448   4.777  1.2681 -3.0297  1.1908
  885MOL0     O16689   3.125  11.109   7.287  0.2580 -0.1532  0.5196
  885MOL0     C16690   3.140  11.020   7.204 -0.0813  1.1315  0.3591
  885MOL0     O16691   3.062  10.910   7.191  0.1217 -0.3014  0.1170
  885MOL0     C16692   2.972  10.882   7.290 -0.0737 -0.7353 -0.0574
  885MOL0     C16693   3.007  10.863   7.425  0.3096 -0.6276 -0.1293
  885MOL0     C16694   2.916  10.808   7.513  0.1975  1.3397  0.0144
  885MOL0     C16695   2.786  10.770   7.474  0.3186 -0.0295  0.1973
  885MOL0     O16696   2.699  10.717   7.571 -0.0601 -1.1490 -0.0405
  885MOL0     C16697   2.578  10.649   7.533  0.0768  0.0665  0.0161
  885MOL0     C16698   2.538  10.554   7.650 -0.5724 -0.8912  0.1701
  885MOL0     C16699   2.395  10.517   7.638  0.5913 -0.1560 -0.6645
  885MOL0     C16700   2.346  10.456   7.769 -0.5768  0.0567 -0.3161
  885MOL0     C16701   2.212  10.383   7.729 -0.5676  0.7261  0.6294
  885MOL0     C16702   2.118  10.367   7.853 -0.5328 -0.1275  0.3579
  885MOL0     C16703   1.975  10.334   7.807 -0.9595  0.8205  0.0277
  885MOL0     C16704   1.906  10.467   7.797 -0.6946  0.0192  0.6940
  885MOL0     N16705   1.787  10.454   7.718 -0.1763  0.1564 -0.1448
  885MOL0     C16706   1.780  10.470   7.586  0.3399  0.1625 -0.3219
  885MOL0     C16707   1.655  10.439   7.534  0.1036 -0.7300 -0.9346
  885MOL0     C16708   1.608  10.425   7.388  0.0227 -0.4229  0.2651
  885MOL0     C16709   1.713  10.471   7.281  0.6302  0.1336 -0.8380
  885MOL0     C16710   1.736  10.621   7.295  0.0138  0.3132  0.7815
  885MOL0     C16711   1.622  10.718   7.323  0.1354 -0.5361  0.1417
  885MOL0     O16712   1.522  10.704   7.224 -0.0419  0.3900  0.7930
  885MOL0     C16713   1.388  10.733   7.244  0.2535 -0.6849 -0.0980
  885MOL0     C16714   1.302  10.773   7.139 -0.4094 -0.4618  0.0216
  885MOL0     C16715   1.163  10.799   7.153  0.5166  1.1517 -0.4636
  885MOL0     C16716   1.104  10.795   7.285 -0.2746  0.5128  1.0185
  885MOL0     C16717   0.963  10.831   7.297  0.6947  0.1731 -1.1455
  885MOL0     O16718   0.903  10.872   7.185 -0.3534 -0.4136  0.0427
  885MOL0     C16719   0.777  10.922   7.177  0.2756 -0.1561  0.8674
  885MOL0     C16720   0.734  11.040   7.246 -0.2657  0.3344 -0.1801
  885MOL0     C16721   0.596  11.087   7.237  0.6960 -0.1020 -0.2320
  885MOL0     C16722   0.506  11.019   7.150  1.3609 -0.5593  0.3724
  885MOL0     O16723   0.371  11.055   7.138 -0.4847  0.2579  0.4299
  885MOL0     C16724   0.314  11.139   7.245  0.2236 -0.8410  0.8199
  885MOL0     C16725   0.163  11.102   7.258  0.6180  1.0992  0.5922
  885MOL0     C16726   0.082  11.131   7.134 -0.1370  0.4782  0.1188
  885MOL0     C16727  -0.073  11.138   7.161 -0.4307  0.6302 -0.0591
  885MOL0     C16728  -0.137  11.021   7.244  0.4199  0.3409  1.3290
  885MOL0     C16729  -0.295  11.029   7.267 -0.6169 -0.3101  0.9080
  885MOL0     C16730  -0.363  11.010   7.130  1.0357  0.1746 -0.2768
  885MOL0     C16731  -0.516  11.003   7.142 -0.3360  0.6502  0.2714
  885MOL0    Cl16732  -0.542  10.836   7.185 -0.2284 -0.6051  0.0343
  885MOL0     C16733   0.553  10.900   7.089  0.9089  0.1950 -1.0978
  885MOL0     C16734   0.683  10.856   7.097 -0.9797  0.0309 -0.5313
  885MOL0     O16735   0.910  10.809   7.408  0.0417 -0.6357  0.3492
  885MOL0     C16736   1.185  10.749   7.386 -0.9110  0.4769 -1.1846
  885MOL0     C16737   1.323  10.717   7.369 -0.3973  0.8677  0.0301
  885MOL0     N16738   1.581  10.420   7.650  0.6228  0.4119 -0.4137
  885MOL0     N16739   1.661  10.431   7.754  0.6878  0.5862  0.9973
  885MOL0     C16740   2.749  10.798   7.342 -0.6326  0.2878 -0.0033
  885MOL0     C16741   2.842  10.851   7.246 -0.2900  0.3321  0.0794
  885MOL0     C16742   3.264  11.035   7.116  0.8200 -0.8041  0.0912
  885MOL0     C16743   3.305  10.933   7.018  0.1461  0.1247 -0.5619
  885MOL0     C16744   3.422  10.959   6.950 -0.8975 -0.2589 -0.3733
  885MOL0     C16745   3.503  11.068   6.968  0.2590 -0.6011  0.0283
  885MOL0     O16746   3.625  11.092   6.905  0.0567  0.2647  0.1501
  885MOL0     C16747   3.718  10.991   6.902 -0.5541  0.8403 -0.7716
  885MOL0     C16748   3.857  11.050   6.924 -0.3168  0.0825  0.0809
  885MOL0     C16749   3.973  10.946   6.923 -0.6345  0.4638  0.6337
  885MOL0     C16750   4.111  11.014   6.920 -0.1221 -0.1650 -0.1854
  885MOL0     C16751   4.216  10.911   6.888  0.7256 -0.2748  0.0827
  885MOL0     C16752   4.306  10.832   6.882 -0.7048 -0.6692  0.6770
  885MOL0     C16753   3.458  11.170   7.058  0.3655 -0.3417  0.4501
  885MOL0     C16754   3.336  11.152   7.131  0.1144  0.3693 -0.2285
  885MOL0     H16755   3.108  10.885   7.457 -0.4152  0.8962  1.2465
  885MOL0     H16756   2.954  10.783   7.612  2.1537  2.8080 -0.3010
  885MOL0     H16757   2.584  10.590   7.441  2.3762 -1.5975  1.1587
  885MOL0     H16758   2.501  10.723   7.509 -1.5802 -1.0695  1.5841
  885MOL0     H16759   2.547  10.611   7.744  0.7880 -0.2133 -0.3419
  885MOL0     H16760   2.599  10.464   7.659  0.7739 -0.1587 -1.2431
  885MOL0     H16761   2.393  10.438   7.562  0.1203 -1.9038  1.0930
  885MOL0     H16762   2.336  10.602   7.603  2.6144  0.6453 -2.3506
  885MOL0     H16763   2.425  10.397   7.816 -2.6389 -1.8311  0.9472
  885MOL0     H16764   2.327  10.538   7.839 -1.4418 -0.0094 -0.4658
  885MOL0     H16765   2.230  10.284   7.684 -1.4309  0.9767 -0.3134
  885MOL0     H16766   2.162  10.447   7.656  2.0895  2.2919  0.0584
  885MOL0     H16767   2.126  10.458   7.913  2.9654  0.9389 -1.4313
  885MOL0     H16768   2.155  10.290   7.920  1.2072  1.0698  0.8433
  885MOL0     H16769   1.976  10.280   7.712  0.8879 -1.9352  1.4907
  885MOL0     H16770   1.925  10.272   7.882  0.2342  0.0209  0.1873
  885MOL0     H16771   1.974  10.543   7.756  0.6994  0.6233  3.8131
  885MOL0     H16772   1.884  10.501   7.899 -0.4769  0.5831  0.5570
  885MOL0     H16773   1.869  10.477   7.524  0.6819 -2.8541 -0.3317
  885MOL0     H16774   1.516  10.483   7.373  1.7328  2.0673 -1.4745
  885MOL0     H16775   1.592  10.317   7.376 -2.1134  0.1926 -4.6579
  885MOL0     H16776   1.664  10.452   7.185 -3.8572 -3.1326  1.7380
  885MOL0     H16777   1.802  10.409   7.295  1.8910  1.9206 -0.5811
  885MOL0     H16778   1.797  10.624   7.385  0.0465 -1.6918  0.8820
  885MOL0     H16779   1.792  10.659   7.209  0.4194 -0.4805  0.6824
  885MOL0     H16780   1.649  10.823   7.315  3.2438 -1.1473  1.3471
  885MOL0     H16781   1.587  10.716   7.426 -2.9721  1.3003 -0.7507
  885MOL0     H16782   1.362  10.777   7.049 -1.0276  1.0028 -0.3635
  885MOL0     H16783   1.105  10.820   7.064 -1.1390  4.0525  1.1728
  885MOL0     H16784   0.802  11.074   7.323 -0.3216 -1.0440  0.5255
  885MOL0     H16785   0.579  11.178   7.294  0.7388  1.0308 -1.9268
  885MOL0     H16786   0.321  11.245   7.219 -4.2886 -0.8607 -1.4815
  885MOL0     H16787   0.361  11.117   7.342  0.0016 -0.6108  0.9835
  885MOL0     H16788   0.131  11.155   7.349  1.6710  1.0861  0.9779
  885MOL0     H16789   0.153  10.996   7.284  2.9819  0.7519  0.2904
  885MOL0     H16790   0.104  11.048   7.066 -1.8579 -0.0413  0.1455
  885MOL0     H16791   0.116  11.228   7.098 -2.4965  2.3040  2.4638
  885MOL0     H16792  -0.088  11.221   7.230  1.7614  0.0092  1.2718
  885MOL0     H16793  -0.112  11.151   7.060 -2.6280  3.2333  1.0071
  885MOL0     H16794  -0.095  11.003   7.344 -2.6096  0.4144  2.7176
  885MOL0     H16795  -0.118  10.928   7.191 -1.1798 -0.6837  2.4884
  885MOL0     H16796  -0.320  11.130   7.301 -0.6141  0.4848 -1.2871
  885MOL0     H16797  -0.328  10.966   7.351  1.2249 -1.0367  1.1369
  885MOL0     H16798  -0.330  11.080   7.053  0.6862 -0.0887 -0.6779
  885MOL0     H16799  -0.325  10.913   7.094 -1.0866 -1.2892  1.1704
  885MOL0     H16800  -0.559  11.002   7.041  0.6828 -0.7679 -0.1910
  885MOL0     H16801  -0.560  11.075   7.211  2.2693  1.7766  0.8492
  885MOL0     H16802   0.482  10.840   7.034 -0.4377 -2.1370  2.7807
  885MOL0     H16803   0.719  10.761   7.060  0.1714  0.7533 -1.3164
  885MOL0     H16804   1.147  10.742   7.487 -1.0438  1.1982 -1.1772
  885MOL0     H16805   1.383  10.683   7.452 -0.7659 -1.8242 -0.6866
  885MOL0     H16806   2.657  10.754   7.306  0.0475 -1.8238  0.6720
  885MOL0     H16807   2.803  10.873   7.147 -1.9523  1.4483  0.9441
  885MOL0     H16808   3.260  10.840   6.986  0.5727 -0.0147 -0.7587
  885MOL0     H16809   3.456  10.883   6.880 -0.1118 -1.7610  1.5551
  885MOL0     H16810   3.719  10.924   6.816  3.2212 -0.5951  0.2127
  885MOL0     H16811   3.694  10.941   6.997  3.2929 -0.0375 -0.1193
  885MOL0     H16812   3.867  11.122   6.842  2.4125 -2.0977 -1.6561
  885MOL0     H16813   3.858  11.102   7.021 -0.8373 -1.0606  0.7194
  885MOL0     H16814   3.951  10.889   6.832 -2.5629  0.7355  0.8833
  885MOL0     H16815   3.962  10.873   7.004  1.6224 -1.5400 -0.7406
  885MOL0     H16816   4.114  11.096   6.847  4.7599 -1.3269 -1.6818
  885MOL0     H16817   4.131  11.044   7.024 -0.3393  1.6320 -0.6297
  885MOL0     H16818   4.388  10.765   6.866  0.3948  0.4529  1.4066
  885MOL0     H16819   3.523  11.256   7.071  0.2417 -0.4959  2.5601
  885MOL0     H16820   3.315  11.234   7.199  1.9708  0.3503  0.4488
  886MOL0     O16821   8.365   8.936   3.322 -0.0712  0.2824 -0.6762
  886MOL0     C16822   8.332   9.004   3.225  0.1217 -0.4853 -0.1105
  886MOL0     O16823   8.372   9.000   3.097 -0.0168 -0.3111 -0.0884
  886MOL0     C16824   8.483   8.929   3.063  0.4727 -0.1868  0.6216
  886MOL0     C16825   8.476   8.795   3.060 -0.9834  0.1572 -0.7187
  886MOL0     C16826   8.595   8.723   3.031 -0.2780  0.6445  0.2450
  886MOL0     C16827   8.711   8.784   2.988 -0.3235 -0.3639 -0.2136
  886MOL0     O16828   8.819   8.702   2.959 -1.0573 -0.8218 -0.4869
  886MOL0     C16829   8.950   8.760   2.956 -1.1674  0.5594 -0.3565
  886MOL0     C16830   9.058   8.650   2.936  1.2419 -0.9839  0.1313
  886MOL0     C16831   9.191   8.691   2.987 -0.6616  0.3903  1.0248
  886MOL0     C16832   9.295   8.583   2.961  0.6509  0.4224 -0.6600
  886MOL0     C16833   9.431   8.637   2.996  0.4836 -0.3095  0.0030
  886MOL0     C16834   9.545   8.526   2.970  0.6090 -0.2982  0.3305
  886MOL0     C16835   9.669   8.591   3.021 -0.4536 -0.6375  0.0570
  886MOL0     C16836   9.800   8.540   2.955  0.4453  0.1037 -0.2961
  886MOL0     N16837   9.908   8.632   2.998 -0.5441 -1.4620 -0.0180
  886MOL0     C16838   9.930   8.765   2.952  0.8247 -0.0507  0.0235
  886MOL0     C16839  10.043   8.800   3.019  0.1716  0.3705 -0.8738
  886MOL0     C16840  10.091   8.949   3.015 -0.5945  1.3967  0.4486
  886MOL0     C16841  10.244   8.984   3.010 -0.1330  0.4077  0.0246
  886MOL0     C16842  10.305   8.924   2.890 -0.2213 -0.0952  0.2443
  886MOL0     C16843  10.346   8.779   2.908 -0.3611 -0.4322  0.5050
  886MOL0     O16844  10.475   8.772   2.840 -0.2478 -0.4280  0.0472
  886MOL0     C16845  10.588   8.783   2.922  0.4120 -0.1136  0.4674
  886MOL0     C16846  10.687   8.702   2.877 -0.9746 -0.6452  0.1954
  886MOL0     C16847  10.813   8.730   2.913 -0.8698 -0.1751  0.5759
  886MOL0     C16848  10.839   8.801   3.029  0.9695 -0.5189  0.3236
  886MOL0     C16849  10.978   8.839   3.073  0.1499  1.0677 -0.8468
  886MOL0     O16850  11.067   8.770   3.004 -0.0448 -0.1298 -0.0035
  886MOL0     C16851  11.195   8.804   2.993  0.5674  0.0025 -0.7458
  886MOL0     C16852  11.245   8.822   2.868  0.1597 -0.7552 -0.4586
  886MOL0     C16853  11.385   8.840   2.852 -0.2873 -0.0948  0.5069
  886MOL0     C16854  11.468   8.861   2.964 -1.4867  0.9960 -0.3573
  886MOL0     O16855  11.608   8.884   2.969 -0.4184 -0.5002 -0.3712
  886MOL0     C16856  11.666   8.963   2.857  0.0425  0.0340  0.2501
  886MOL0     C16857  11.809   8.995   2.877  0.0100  0.2194  0.4496
  886MOL0     C16858  11.859   9.099   2.777 -0.0589  0.1397  0.2760
  886MOL0     C16859  12.011   9.121   2.798 -0.2519  1.1621  0.8932
  886MOL0     C16860  12.090   9.043   2.682  0.5185 -0.3083 -0.0739
  886MOL0     C16861  12.243   9.052   2.686  0.4403 -0.3217 -0.7340
  886MOL0     C16862  12.298   9.019   2.548 -0.8766  0.2970 -0.7601
  886MOL0     C16863  12.447   9.007   2.556  0.8655  0.5580 -0.0779
  886MOL0    Cl16864  12.486   8.978   2.384 -0.5115 -0.2270 -0.4526
  886MOL0     C16865  11.416   8.855   3.094 -0.3304  0.0954  0.2175
  886MOL0     C16866  11.276   8.827   3.110 -0.6247 -0.6995 -0.0219
  886MOL0     O16867  11.000   8.939   3.141  0.0445  0.5865  0.7167
  886MOL0     C16868  10.732   8.874   3.084 -1.2981  0.1018  0.1676
  886MOL0     C16869  10.605   8.865   3.033  0.3013 -0.5269 -0.2547
  886MOL0     N16870  10.093   8.701   3.104  0.4753 -0.8616  1.2798
  886MOL0     N16871  10.008   8.597   3.090 -0.2083 -0.3616  0.2502
  886MOL0     C16872   8.708   8.923   2.982  0.0538 -0.5871  0.1488
  886MOL0     C16873   8.596   8.998   3.017 -0.4616 -0.0817 -0.4264
  886MOL0     C16874   8.253   9.131   3.256 -0.0157  0.7928  0.6226
  886MOL0     C16875   8.171   9.141   3.373 -0.2335  0.3477 -0.5715
  886MOL0     C16876   8.097   9.253   3.400 -0.2335  0.1449 -0.0922
  886MOL0     C16877   8.102   9.358   3.303  0.2105 -0.5705 -0.2092
  886MOL0     O16878   8.018   9.466   3.315  0.7984  0.5575 -0.3816
  886MOL0     C16879   7.903   9.456   3.408  0.4796 -0.3520 -0.1253
  886MOL0     C16880   7.827   9.583   3.385  0.0455  0.7072  0.4467
  886MOL0     C16881   7.786   9.615   3.239 -0.3296  0.0868 -0.0303
  886MOL0     C16882   7.699   9.736   3.241  0.1512 -0.1976 -0.5636
  886MOL0     C16883   7.728   9.832   3.135 -0.5988 -0.1330 -0.4779
  886MOL0     C16884   7.738   9.905   3.038  0.0611 -0.5247 -0.1480
  886MOL0     C16885   8.183   9.357   3.193 -0.1364  0.3987 -0.9548
  886MOL0     C16886   8.260   9.240   3.169  0.0513  0.0466 -0.9506
  886MOL0     H16887   8.383   8.744   3.081 -0.8504 -0.3616 -1.3741
  886MOL0     H16888   8.588   8.615   3.026 -4.2037  0.7087  0.8371
  886MOL0     H16889   8.970   8.801   3.055 -0.2106 -2.8660  1.0257
  886MOL0     H16890   8.965   8.832   2.875 -1.5306 -0.1577 -1.0744
  886MOL0     H16891   9.047   8.625   2.831 -0.4390 -1.6296  0.4252
  886MOL0     H16892   9.013   8.568   2.993 -1.9518  0.8893  0.5918
  886MOL0     H16893   9.187   8.717   3.093 -1.8435 -3.2147  2.0159
  886MOL0     H16894   9.204   8.781   2.926 -1.2198 -1.1602 -1.5185
  886MOL0     H16895   9.279   8.492   3.020  2.8247  0.9737  0.9521
  886MOL0     H16896   9.287   8.555   2.856  1.4443 -2.0034 -0.1216
  886MOL0     H16897   9.445   8.653   3.103 -0.8555 -1.0939  0.3198
  886MOL0     H16898   9.444   8.726   2.934 -3.2545 -0.1002 -0.6697
  886MOL0     H16899   9.552   8.498   2.865  1.1510 -1.7550  0.7187
  886MOL0     H16900   9.521   8.439   3.033  0.3780 -0.3571  0.1615
  886MOL0     H16901   9.664   8.700   3.010  4.2023 -0.1766  0.2322
  886MOL0     H16902   9.666   8.575   3.129 -0.9834 -5.6204 -0.4857
  886MOL0     H16903   9.793   8.567   2.850  1.7080  0.2977 -0.3487
  886MOL0     H16904   9.815   8.433   2.971  3.4335  0.7011  1.8512
  886MOL0     H16905   9.857   8.825   2.899 -0.8085 -1.1376  0.9405
  886MOL0     H16906  10.049   8.995   3.105 -3.3216 -0.2068  0.0935
  886MOL0     H16907  10.042   8.987   2.926 -1.9259 -2.1115 -0.4946
  886MOL0     H16908  10.299   8.973   3.104  1.2788 -2.6092 -0.9942
  886MOL0     H16909  10.247   9.092   2.995  2.9299  0.4904  0.5304
  886MOL0     H16910  10.235   8.935   2.806 -1.1322  4.8656  1.3347
  886MOL0     H16911  10.385   8.990   2.858 -1.7794  0.0143 -4.1198
  886MOL0     H16912  10.271   8.712   2.866  2.5352 -1.2743 -3.9889
  886MOL0     H16913  10.359   8.752   3.014 -0.0259 -0.6791  0.4023
  886MOL0     H16914  10.667   8.629   2.799  0.2309 -0.8999  0.1073
  886MOL0     H16915  10.900   8.676   2.876  0.8998  0.2863  3.6698
  886MOL0     H16916  11.193   8.800   2.776  1.3390  0.2302 -1.3884
  886MOL0     H16917  11.435   8.851   2.755 -0.9684 -1.4486 -0.0119
  886MOL0     H16918  11.603   9.052   2.855  0.2503  0.2422  1.7622
  886MOL0     H16919  11.660   8.905   2.764 -0.7635 -2.1598  1.5924
  886MOL0     H16920  11.871   8.909   2.853 -0.3225  0.3700 -1.0745
  886MOL0     H16921  11.822   9.018   2.983 -0.6614  3.4757 -0.0790
  886MOL0     H16922  11.823   9.198   2.804 -0.0679  0.6648 -1.5118
  886MOL0     H16923  11.836   9.083   2.671  0.7388  0.0469  0.1104
  886MOL0     H16924  12.036   9.227   2.788 -1.3339  1.2988 -1.0796
  886MOL0     H16925  12.039   9.073   2.892 -0.3939 -0.1455  0.2958
  886MOL0     H16926  12.058   9.091   2.589  2.2496 -1.3087 -1.2547
  886MOL0     H16927  12.067   8.937   2.666  2.6512 -0.9444  0.5899
  886MOL0     H16928  12.276   8.986   2.766 -1.5767  0.2959  0.6952
  886MOL0     H16929  12.272   9.154   2.712  0.9636  0.5549 -4.1953
  886MOL0     H16930  12.261   8.922   2.513 -0.7238  0.1333 -0.4700
  886MOL0     H16931  12.268   9.089   2.469 -1.6621  1.1446  0.2630
  886MOL0     H16932  12.490   8.922   2.610  1.4084  1.1717  0.4654
  886MOL0     H16933  12.486   9.102   2.594 -0.9255  0.3684  2.5419
  886MOL0     H16934  11.480   8.889   3.175  0.4283  1.0004 -0.7450
  886MOL0     H16935  11.228   8.832   3.207 -0.9464  3.7910 -0.2076
  886MOL0     H16936  10.740   8.947   3.163 -1.9440 -0.2294  0.5479
  886MOL0     H16937  10.532   8.927   3.085  2.9966  2.4620  0.2690
  886MOL0     H16938   8.790   8.986   2.948  0.3833 -0.7081  0.7123
  886MOL0     H16939   8.602   9.107   3.022  1.1366 -0.1999  3.0751
  886MOL0     H16940   8.160   9.056   3.438  0.2107  0.1886 -0.6992
  886MOL0     H16941   8.033   9.252   3.487 -0.6248 -2.4111 -0.3410
  886MOL0     H16942   7.937   9.449   3.512 -1.3260 -0.6767  0.4879
  886MOL0     H16943   7.838   9.371   3.383  0.8858 -0.4124 -1.0005
  886MOL0     H16944   7.736   9.583   3.446 -0.3072 -0.9608 -0.0399
  886MOL0     H16945   7.882   9.672   3.419 -2.1654  2.0057  0.8073
  886MOL0     H16946   7.740   9.530   3.189 -0.5599  0.0398  0.2620
  886MOL0     H16947   7.876   9.627   3.176  0.9391  2.9906  2.0996
  886MOL0     H16948   7.595   9.701   3.240 -1.1097  2.8938  2.1272
  886MOL0     H16949   7.700   9.779   3.341  0.6275  0.4546 -0.8471
  886MOL0     H16950   7.752   9.973   2.956  0.7564 -1.7454 -1.0779
  886MOL0     H16951   8.174   9.442   3.126  2.2791  1.4903  0.0103
  886MOL0     H16952   8.313   9.247   3.075  0.0695 -2.5531 -1.2246
  887MOL0     O16953   1.064   4.870   8.145 -0.3876  0.3524 -0.2335
  887MOL0     C16954   1.059   4.881   8.023 -0.4139  0.4150 -0.3536
  887MOL0     O16955   0.953   4.917   7.945 -0.4438 -0.2611 -0.4344
  887MOL0     C16956   0.841   4.950   8.021  0.2295 -0.2195 -0.0581
  887MOL0     C16957   0.838   5.060   8.116 -0.5555  0.4191 -0.0902
  887MOL0     C16958   0.728   5.089   8.182  0.1532  0.3453 -0.2784
  887MOL0     C16959   0.599   5.027   8.164 -0.3354 -0.2133 -0.0069
  887MOL0     O16960   0.486   5.065   8.227 -0.2081  0.1251  0.1073
  887MOL0     C16961   0.489   5.205   8.257  0.1370  0.8251  0.4430
  887MOL0     C16962   0.339   5.250   8.273 -0.2423 -0.0720 -0.3323
  887MOL0     C16963   0.265   5.262   8.142 -0.4221 -0.1601  0.6326
  887MOL0     C16964   0.145   5.367   8.152 -0.1653 -0.1844 -0.7178
  887MOL0     C16965   0.039   5.328   8.265 -0.4426  0.5112  0.6149
  887MOL0     C16966  -0.085   5.430   8.252  0.1075 -0.4880 -0.8557
  887MOL0     C16967  -0.204   5.402   8.351 -0.3054  0.2102 -0.1255
  887MOL0     C16968  -0.155   5.391   8.493  0.3604  0.2618 -0.2222
  887MOL0     N16969  -0.264   5.428   8.587  0.1340  0.6700 -0.2313
  887MOL0     C16970  -0.265   5.526   8.683  0.0316 -0.9141  0.5422
  887MOL0     C16971  -0.385   5.515   8.751 -0.3220 -0.9122  1.4082
  887MOL0     C16972  -0.431   5.593   8.868 -0.4646  0.3523  0.4744
  887MOL0     C16973  -0.478   5.739   8.833  0.5802 -0.4459 -0.1986
  887MOL0     C16974  -0.581   5.739   8.725  0.9323  0.2010  0.1616
  887MOL0     C16975  -0.621   5.882   8.711  0.5699  0.9440  0.2058
  887MOL0     O16976  -0.709   5.933   8.817  0.2657  0.1514  0.3652
  887MOL0     C16977  -0.710   6.061   8.857  0.4365  0.2274 -0.0331
  887MOL0     C16978  -0.630   6.167   8.813 -0.2188 -0.0833  0.0923
  887MOL0     C16979  -0.658   6.303   8.843  0.9324 -0.0154 -0.2157
  887MOL0     C16980  -0.770   6.333   8.918  0.6151 -0.5043 -0.2886
  887MOL0     C16981  -0.807   6.474   8.949  0.2338 -0.2271  0.4745
  887MOL0     O16982  -0.931   6.491   9.008 -0.1609 -0.4745  0.6149
  887MOL0     C16983  -1.010   6.607   9.013 -0.6423  0.0410  0.0554
  887MOL0     C16984  -1.146   6.604   9.009 -0.4641  0.0378 -0.7616
  887MOL0     C16985  -1.229   6.718   9.038 -0.0192 -0.9948  0.2556
  887MOL0     C16986  -1.171   6.838   9.045  0.3125 -0.1380  0.1472
  887MOL0     O16987  -1.234   6.960   9.050  0.1567  0.3176  0.4189
  887MOL0     C16988  -1.351   6.994   8.985  0.8064 -0.5667  0.4487
  887MOL0     C16989  -1.326   7.060   8.853 -0.0704 -0.0597  0.5352
  887MOL0     C16990  -1.219   7.175   8.862  0.1467 -0.7069  0.1581
  887MOL0     C16991  -1.288   7.313   8.910 -0.7830  0.2359  1.5322
  887MOL0     C16992  -1.182   7.414   8.944 -0.0354 -0.1021  0.5665
  887MOL0     C16993  -1.122   7.382   9.085 -0.1440 -0.6408  0.0119
  887MOL0     C16994  -1.048   7.516   9.126 -0.3562 -1.1519  0.1997
  887MOL0     C16995  -0.896   7.520   9.077 -0.1271  0.0114  0.1771
  887MOL0    Cl16996  -0.844   7.690   9.074  0.2973 -0.3628 -0.2901
  887MOL0     C16997  -1.028   6.849   9.038 -0.3355 -0.1169 -0.3238
  887MOL0     C16998  -0.948   6.730   9.030  0.0535  0.2012  0.2040
  887MOL0     O16999  -0.732   6.560   8.906  0.1443  0.1988 -0.7111
  887MOL0     C17000  -0.843   6.222   8.970  0.1199 -0.3664  0.8854
  887MOL0     C17001  -0.818   6.091   8.940  0.6278  0.1217  0.5087
  887MOL0     N17002  -0.453   5.404   8.701  0.1083 -0.0046  0.1185
  887MOL0     N17003  -0.379   5.359   8.605 -0.2352  0.2469 -0.4914
  887MOL0     C17004   0.602   4.913   8.074  0.7692 -0.3760 -0.5106
  887MOL0     C17005   0.724   4.864   8.017 -0.4687  0.4817  0.4563
  887MOL0     C17006   1.187   4.868   7.943 -0.2743  0.2417  0.9634
  887MOL0     C17007   1.301   4.814   7.999  1.2849  1.2932  0.4863
  887MOL0     C17008   1.417   4.812   7.927 -0.6479 -0.1352 -0.1814
  887MOL0     C17009   1.432   4.854   7.798 -0.6915 -0.5782  0.2933
  887MOL0     O17010   1.555   4.848   7.739 -0.3933  0.8212  0.3069
  887MOL0     C17011   1.552   4.774   7.613 -0.3234 -0.0820 -0.3109
  887MOL0     C17012   1.675   4.680   7.609 -0.3021 -0.6293 -0.6803
  887MOL0     C17013   1.801   4.774   7.593 -0.4064 -0.6148 -0.2989
  887MOL0     C17014   1.928   4.708   7.613 -0.6856 -0.2722  0.0563
  887MOL0     C17015   1.960   4.613   7.501 -0.1073 -0.2856 -0.2259
  887MOL0     C17016   1.964   4.523   7.415 -1.1868  0.1587  0.2746
  887MOL0     C17017   1.316   4.915   7.741  0.8081 -0.8401 -0.7955
  887MOL0     C17018   1.193   4.914   7.809 -0.2617 -0.8723  0.4245
  887MOL0     H17019   0.927   5.120   8.113 -0.6265  0.5035 -0.5380
  887MOL0     H17020   0.721   5.187   8.228 -2.1463 -0.4922  1.3297
  887MOL0     H17021   0.530   5.269   8.179  0.9233  1.8419  1.6445
  887MOL0     H17022   0.554   5.225   8.343  1.9310 -1.2132 -0.3541
  887MOL0     H17023   0.331   5.350   8.317 -0.8597 -0.8855  1.5231
  887MOL0     H17024   0.285   5.181   8.338  1.9266 -1.4670  0.0920
  887MOL0     H17025   0.226   5.167   8.107  1.6553 -1.0326  0.5574
  887MOL0     H17026   0.328   5.302   8.062 -0.1070 -1.8869 -0.0093
  887MOL0     H17027   0.180   5.468   8.176 -2.1480  1.0035 -2.4799
  887MOL0     H17028   0.089   5.373   8.058  0.5808 -2.1076 -1.3338
  887MOL0     H17029   0.094   5.324   8.359  3.0548 -0.9603 -1.2749
  887MOL0     H17030   0.001   5.229   8.239  0.0615  0.9334 -2.0612
  887MOL0     H17031  -0.117   5.438   8.147 -1.1434  1.6441 -0.3879
  887MOL0     H17032  -0.055   5.532   8.278 -1.6794 -0.6802  2.4534
  887MOL0     H17033  -0.275   5.485   8.344 -1.7202 -0.8150  1.3204
  887MOL0     H17034  -0.266   5.320   8.315  0.0939  1.4565 -4.1878
  887MOL0     H17035  -0.078   5.467   8.507 -1.9333  2.6759  0.1499
  887MOL0     H17036  -0.114   5.291   8.513 -1.2187  0.0140  2.1296
  887MOL0     H17037  -0.186   5.598   8.700 -0.3606 -0.6447  1.2393
  887MOL0     H17038  -0.349   5.592   8.941 -0.1234 -1.4747  0.1177
  887MOL0     H17039  -0.516   5.543   8.916 -0.8833  1.3289  0.7600
  887MOL0     H17040  -0.390   5.797   8.802 -0.8394  0.5157 -2.7412
  887MOL0     H17041  -0.525   5.784   8.920 -1.3701  1.2263 -1.9991
  887MOL0     H17042  -0.524   5.700   8.641  4.4121  2.5232  1.1801
  887MOL0     H17043  -0.665   5.677   8.758 -0.1603  0.2605 -2.2842
  887MOL0     H17044  -0.672   5.869   8.615 -2.0086 -2.2101  1.7965
  887MOL0     H17045  -0.530   5.943   8.712  1.5693 -0.4235  2.9074
  887MOL0     H17046  -0.536   6.156   8.759  0.2948  1.9220  0.4964
  887MOL0     H17047  -0.600   6.385   8.802 -0.2376  1.6205  1.2575
  887MOL0     H17048  -1.187   6.507   8.983  1.1454 -0.9650  0.2725
  887MOL0     H17049  -1.334   6.713   9.012  0.7543 -1.4244 -3.3464
  887MOL0     H17050  -1.405   7.062   9.052  0.7768 -0.2561  0.1117
  887MOL0     H17051  -1.413   6.906   8.966  1.3867 -1.0763  0.8769
  887MOL0     H17052  -1.428   7.095   8.832 -1.0033 -1.7683  1.9158
  887MOL0     H17053  -1.283   6.987   8.784  2.6613  1.1563  0.8174
  887MOL0     H17054  -1.177   7.188   8.762  0.1760  2.2788  0.4727
  887MOL0     H17055  -1.136   7.147   8.928  1.5811 -2.1504 -2.1431
  887MOL0     H17056  -1.326   7.341   8.811 -2.3569  1.6902  2.5037
  887MOL0     H17057  -1.365   7.317   8.987  1.1415  1.0943  3.5170
  887MOL0     H17058  -1.239   7.505   8.966  0.0744 -0.2323  1.3964
  887MOL0     H17059  -1.120   7.427   8.854 -1.4672  0.9115 -0.3195
  887MOL0     H17060  -1.055   7.296   9.091  0.7057  0.0335  0.5087
  887MOL0     H17061  -1.204   7.358   9.152 -0.4217  0.5995  0.1389
  887MOL0     H17062  -1.106   7.596   9.079 -0.3606 -0.9892  0.4756
  887MOL0     H17063  -1.057   7.535   9.234  1.0818  2.6381 -0.1943
  887MOL0     H17064  -0.900   7.472   8.979 -1.3162 -2.5589  1.3679
  887MOL0     H17065  -0.830   7.468   9.148  2.7031  3.3543  0.2378
  887MOL0     H17066  -0.973   6.942   9.031  2.2610 -1.4589  0.8644
  887MOL0     H17067  -0.840   6.731   9.040  0.2430  3.4588 -0.8114
  887MOL0     H17068  -0.926   6.243   9.035 -1.2493 -0.6905 -0.6843
  887MOL0     H17069  -0.884   6.016   8.983  2.1985 -0.6880  1.5693
  887MOL0     H17070   0.510   4.856   8.072 -1.1369  2.4275  1.0817
  887MOL0     H17071   0.722   4.767   7.970  3.0865 -0.4996  2.0125
  887MOL0     H17072   1.289   4.770   8.098  1.3182  0.9489  0.3381
  887MOL0     H17073   1.500   4.763   7.978 -1.3718  1.2373  2.4698
  887MOL0     H17074   1.545   4.854   7.539 -1.6114  3.0345  2.8933
  887MOL0     H17075   1.459   4.719   7.598 -0.1835 -0.3008 -0.3862
  887MOL0     H17076   1.688   4.619   7.698  1.0484 -1.3458 -1.3423
  887MOL0     H17077   1.658   4.626   7.515 -1.0728  3.0216 -2.8477
  887MOL0     H17078   1.789   4.842   7.678  1.7372  0.5566 -0.8818
  887MOL0     H17079   1.804   4.822   7.495  1.7216 -0.6254 -0.2875
  887MOL0     H17080   2.005   4.786   7.617 -1.1115  0.1151  2.8375
  887MOL0     H17081   1.927   4.673   7.717  0.7728  3.3217  1.4509
  887MOL0     H17082   1.943   4.449   7.340 -2.0512  0.0845  0.5752
  887MOL0     H17083   1.322   4.968   7.646  0.6201  2.3033  0.8047
  887MOL0     H17084   1.101   4.956   7.768 -0.1051  0.2289  1.1532
  888MOL0     O17085  10.194   6.054   3.918  0.4380 -0.3066  0.1768
  888MOL0     C17086  10.183   5.942   3.865 -0.9202  0.4484  0.1337
  888MOL0     O17087  10.287   5.868   3.825  0.3503  0.5036  0.3138
  888MOL0     C17088  10.417   5.912   3.828  0.6804 -0.1759 -0.8828
  888MOL0     C17089  10.520   5.819   3.832  0.0731  0.1139 -0.0185
  888MOL0     C17090  10.662   5.849   3.855  0.4477 -0.5083 -0.8149
  888MOL0     C17091  10.699   5.982   3.851 -0.1077 -0.4636  0.6024
  888MOL0     O17092  10.835   6.009   3.876  0.0209 -0.4424  0.3289
  888MOL0     C17093  10.870   6.138   3.927  0.6601 -0.8736 -0.8023
  888MOL0     C17094  11.010   6.150   3.995 -0.7289  0.0229  0.0536
  888MOL0     C17095  11.042   6.033   4.090  0.1910  0.2441  0.6404
  888MOL0     C17096  11.169   6.064   4.156 -0.0597 -0.2422 -0.7253
  888MOL0     C17097  11.221   5.961   4.250 -0.6278  1.2459 -0.0921
  888MOL0     C17098  11.364   6.004   4.281  0.4604  1.4543  0.4744
  888MOL0     C17099  11.370   6.106   4.397  0.3592  0.1492 -0.0207
  888MOL0     C17100  11.515   6.147   4.435  0.4819 -0.5664  0.1292
  888MOL0     N17101  11.514   6.291   4.452 -1.2922  0.1853  0.8045
  888MOL0     C17102  11.513   6.349   4.572 -0.0736  0.6004  0.3707
  888MOL0     C17103  11.512   6.483   4.553  0.6840 -0.3289 -0.8095
  888MOL0     C17104  11.488   6.579   4.673 -0.3286  0.6252  0.8914
  888MOL0     C17105  11.337   6.596   4.693 -0.5697 -0.2981 -0.7960
  888MOL0     C17106  11.309   6.704   4.799  0.2278 -0.1321  0.1487
  888MOL0     C17107  11.163   6.670   4.852 -0.6839  0.5125 -0.0122
  888MOL0     O17108  11.085   6.697   4.744  0.1274 -0.7747  0.6411
  888MOL0     C17109  10.951   6.658   4.746  0.0981  0.5761  0.4689
  888MOL0     C17110  10.874   6.723   4.649 -0.0396 -0.4361  0.0480
  888MOL0     C17111  10.742   6.685   4.625 -0.6338  1.4080  0.5888
  888MOL0     C17112  10.673   6.594   4.705  0.7866 -0.5941 -0.3957
  888MOL0     C17113  10.524   6.549   4.693  0.3384  0.2134 -0.1624
  888MOL0     O17114  10.472   6.466   4.789  0.7957 -0.0203  0.0126
  888MOL0     C17115  10.339   6.438   4.790  0.2772  0.2281  0.1037
  888MOL0     C17116  10.236   6.523   4.765  0.2397 -0.1996  0.2044
  888MOL0     C17117  10.105   6.476   4.757  0.7049  0.8726  0.2417
  888MOL0     C17118  10.072   6.338   4.768 -1.2393  0.1080  0.3613
  888MOL0     O17119   9.952   6.284   4.751  0.7265 -1.4752 -0.1625
  888MOL0     C17120   9.939   6.235   4.613  0.0130  1.2106 -0.1355
  888MOL0     C17121   9.811   6.166   4.579 -0.6014 -0.1319  0.1678
  888MOL0     C17122   9.802   6.034   4.664  0.4899  0.2317 -0.3931
  888MOL0     C17123   9.675   5.964   4.647 -0.0276  0.4560  0.8285
  888MOL0     C17124   9.552   6.004   4.732 -0.5678 -0.2544  0.0131
  888MOL0     C17125   9.572   5.931   4.865 -0.2585  0.9071  0.3069
  888MOL0     C17126   9.449   5.933   4.949  0.2399 -0.0167  0.0857
  888MOL0     C17127   9.407   5.797   5.004  0.0640 -0.6712 -0.0236
  888MOL0    Cl17128   9.550   5.716   5.083  0.1665 -0.1608 -0.4499
  888MOL0     C17129  10.178   6.252   4.790 -0.1942  1.0731 -1.1409
  888MOL0     C17130  10.304   6.301   4.798 -0.0146 -0.2465 -0.4771
  888MOL0     O17131  10.459   6.596   4.600 -0.3352 -1.1291  0.2520
  888MOL0     C17132  10.745   6.534   4.808  0.6130 -0.7112  0.8295
  888MOL0     C17133  10.886   6.556   4.823  0.6636  0.3505  0.2336
  888MOL0     N17134  11.495   6.512   4.423 -0.5899  0.5914  0.8104
  888MOL0     N17135  11.499   6.391   4.359 -0.5087  0.2087  0.1747
  888MOL0     C17136  10.601   6.080   3.833 -0.2786  0.0463  0.8479
  888MOL0     C17137  10.467   6.044   3.826  0.5515 -0.6668  0.4242
  888MOL0     C17138  10.054   5.881   3.849 -0.6825  0.6822  0.5984
  888MOL0     C17139  10.033   5.750   3.783  0.0913  0.1546  0.7549
  888MOL0     C17140   9.907   5.711   3.758 -0.7398 -0.0150 -0.8760
  888MOL0     C17141   9.795   5.787   3.795 -0.0848  0.3467  0.2790
  888MOL0     O17142   9.672   5.729   3.758 -0.4204  0.2586 -0.7794
  888MOL0     C17143   9.551   5.799   3.777 -1.0177 -0.8507 -0.6839
  888MOL0     C17144   9.447   5.719   3.706 -0.3744 -0.1570 -0.1077
  888MOL0     C17145   9.296   5.726   3.735 -0.8487 -0.3078  0.3130
  888MOL0     C17146   9.254   5.827   3.838 -0.0633 -0.6877 -0.4592
  888MOL0     C17147   9.110   5.848   3.848 -1.2985 -0.9608  0.0597
  888MOL0     C17148   8.989   5.854   3.843 -0.3587 -0.4159  0.2865
  888MOL0     C17149   9.815   5.907   3.862  0.2965  0.3713 -0.2940
  888MOL0     C17150   9.939   5.956   3.897 -0.1027  0.2992  0.1233
  888MOL0     H17151  10.477   5.720   3.829  0.4882 -0.0457 -0.8792
  888MOL0     H17152  10.740   5.775   3.861  0.0556 -0.9797 -1.4051
  888MOL0     H17153  10.802   6.161   4.009  1.4565  2.5078 -0.9436
  888MOL0     H17154  10.866   6.222   3.857  0.6277  1.8563  2.2927
  888MOL0     H17155  11.012   6.247   4.044  1.5935  0.0366  0.0431
  888MOL0     H17156  11.093   6.153   3.924  1.0041  2.1581  2.0609
  888MOL0     H17157  11.051   5.941   4.032  1.3671  0.1334  0.9823
  888MOL0     H17158  10.962   6.034   4.165 -0.7205  4.7668 -0.0673
  888MOL0     H17159  11.238   6.084   4.074 -0.6608  0.8852 -0.9700
  888MOL0     H17160  11.151   6.155   4.213 -1.5956 -0.6309 -0.5492
  888MOL0     H17161  11.231   5.863   4.201  3.5264  0.5070  1.8292
  888MOL0     H17162  11.153   5.946   4.334 -0.8119 -1.2537 -0.6048
  888MOL0     H17163  11.409   6.049   4.192  1.0938  2.1561  1.1318
  888MOL0     H17164  11.420   5.918   4.317 -1.3918 -0.6553 -1.4043
  888MOL0     H17165  11.313   6.196   4.373 -2.1356 -1.4453 -0.4075
  888MOL0     H17166  11.319   6.057   4.480 -0.4787  0.7040 -0.2015
  888MOL0     H17167  11.583   6.118   4.354  0.4045  1.5703 -0.7823
  888MOL0     H17168  11.542   6.105   4.532  0.1230  1.4549  1.1596
  888MOL0     H17169  11.511   6.303   4.670  0.0946 -1.5161 -0.5469
  888MOL0     H17170  11.535   6.672   4.638 -1.1432 -0.4908 -3.9337
  888MOL0     H17171  11.530   6.530   4.761 -0.6230  0.4359  0.9262
  888MOL0     H17172  11.303   6.501   4.735 -0.0660  1.0518  3.0381
  888MOL0     H17173  11.280   6.626   4.605  0.6079  1.2815 -1.0628
  888MOL0     H17174  11.384   6.710   4.879  2.5550  2.5158 -2.0285
  888MOL0     H17175  11.326   6.801   4.752 -0.3828 -0.1237 -0.0659
  888MOL0     H17176  11.140   6.731   4.940  1.7276  0.0193  1.0504
  888MOL0     H17177  11.158   6.563   4.878 -1.3377  0.4064 -0.5562
  888MOL0     H17178  10.915   6.805   4.590  0.3543 -1.0425 -0.5290
  888MOL0     H17179  10.678   6.713   4.541 -0.7246 -1.2154 -0.2910
  888MOL0     H17180  10.259   6.629   4.767 -1.5262  0.2306  2.5008
  888MOL0     H17181  10.019   6.539   4.737 -0.2087 -0.6596 -0.9736
  888MOL0     H17182  10.026   6.173   4.591 -1.9246 -1.1994 -1.4465
  888MOL0     H17183   9.937   6.322   4.547 -1.3186  2.6939  1.7415
  888MOL0     H17184   9.815   6.137   4.473  0.1964  2.6451 -0.6463
  888MOL0     H17185   9.729   6.230   4.609  0.3260  1.3446 -0.3234
  888MOL0     H17186   9.820   6.054   4.770  2.9603  1.9316 -1.0368
  888MOL0     H17187   9.886   5.970   4.634  1.2332  0.4452  1.0817
  888MOL0     H17188   9.635   5.966   4.545 -0.4844 -0.0273  0.9933
  888MOL0     H17189   9.701   5.861   4.672  0.8395  0.4415 -0.0867
  888MOL0     H17190   9.459   5.965   4.690 -1.1145 -0.5480  1.4645
  888MOL0     H17191   9.554   6.113   4.748  0.6774 -0.0431 -1.3118
  888MOL0     H17192   9.654   5.981   4.917 -1.1509  1.4542  1.2240
  888MOL0     H17193   9.598   5.826   4.851 -1.6174  0.6352 -0.4002
  888MOL0     H17194   9.482   5.984   5.039 -0.5107  0.7847 -0.0731
  888MOL0     H17195   9.369   5.980   4.891  1.2328 -0.3066 -1.5877
  888MOL0     H17196   9.378   5.743   4.914  2.3151  0.8544 -1.7665
  888MOL0     H17197   9.330   5.813   5.081 -1.0050  3.8654 -1.7036
  888MOL0     H17198  10.168   6.144   4.791 -0.2949  1.0853 -0.5141
  888MOL0     H17199  10.385   6.233   4.824  1.9590  1.1958 -2.4756
  888MOL0     H17200  10.699   6.470   4.882  1.7025 -1.1697  1.1434
  888MOL0     H17201  10.938   6.512   4.907  0.5290 -0.1054  0.0793
  888MOL0     H17202  10.628   6.185   3.838  1.4214 -0.3181  0.2861
  888MOL0     H17203  10.398   6.127   3.818 -0.9868 -1.8243  1.0846
  888MOL0     H17204  10.119   5.689   3.756 -0.0269 -0.3129  1.4437
  888MOL0     H17205   9.891   5.611   3.717  2.0438 -0.1401 -1.9374
  888MOL0     H17206   9.557   5.899   3.735 -2.2343 -0.3664  0.2449
  888MOL0     H17207   9.532   5.814   3.884 -2.7914  0.9093 -1.1847
  888MOL0     H17208   9.466   5.729   3.599 -1.0765 -0.9591 -0.3162
  888MOL0     H17209   9.467   5.614   3.727  0.2661 -0.6416 -2.7260
  888MOL0     H17210   9.253   5.630   3.762 -1.3008 -0.3325 -0.4390
  888MOL0     H17211   9.244   5.750   3.641  2.4037 -1.3771 -1.9614
  888MOL0     H17212   9.283   5.779   3.932 -1.6832 -4.3187 -1.6281
  888MOL0     H17213   9.311   5.920   3.848 -1.1834 -0.2097  3.5975
  888MOL0     H17214   8.883   5.868   3.847 -0.1384  1.4598  0.6447
  888MOL0     H17215   9.721   5.951   3.891 -0.1564  0.0578 -1.2543
  888MOL0     H17216   9.944   6.054   3.944  0.1902  0.7835 -0.8889
  889MOL0     O17217   1.611   6.455  10.711  0.0419 -0.6908 -0.2312
  889MOL0     C17218   1.647   6.498  10.813 -0.3390 -0.8868 -0.5464
  889MOL0     O17219   1.584   6.479  10.939  0.4709  0.1428 -0.2545
  889MOL0     C17220   1.461   6.420  10.943  0.2233 -0.5308 -0.7475
  889MOL0     C17221   1.353   6.472  10.878  0.6238  0.2880 -0.1359
  889MOL0     C17222   1.226   6.412  10.878  0.2015 -0.5253  0.7193
  889MOL0     C17223   1.205   6.300  10.958  0.6649  0.7431 -0.2125
  889MOL0     O17224   1.079   6.238  10.970  0.3353  0.3365  0.0568
  889MOL0     C17225   1.011   6.205  10.851  0.2007 -0.5544  0.3017
  889MOL0     C17226   0.877   6.292  10.840  0.3414 -0.1199 -0.2396
  889MOL0     C17227   0.757   6.238  10.908 -0.3623  0.4667 -0.5161
  889MOL0     C17228   0.639   6.334  10.914 -0.7427 -0.2306  1.2198
  889MOL0     C17229   0.513   6.251  10.937  0.9923 -0.1912  0.2004
  889MOL0     C17230   0.378   6.323  10.932  0.2410  0.4495  0.7879
  889MOL0     C17231   0.334   6.350  10.780 -0.3177 -0.0941  0.1519
  889MOL0     C17232   0.342   6.497  10.729  0.6100  0.1193  0.0238
  889MOL0     N17233   0.281   6.598  10.817 -0.9082 -0.0653 -0.1498
  889MOL0     C17234   0.335   6.656  10.931 -1.1316  0.8521  0.5090
  889MOL0     C17235   0.239   6.725  10.979  0.2651  0.7199  0.8164
  889MOL0     C17236   0.258   6.810  11.091 -0.1137  0.1946 -0.7537
  889MOL0     C17237   0.322   6.944  11.040 -0.5709 -0.3758  0.3515
  889MOL0     C17238   0.243   7.036  10.964  0.2926  0.1748 -0.1382
  889MOL0     C17239   0.111   7.063  11.034  0.7624  1.0004  0.9198
  889MOL0     O17240   0.036   7.169  10.969  0.0065  0.4320 -0.5340
  889MOL0     C17241  -0.091   7.211  11.007  1.5971  0.7721 -0.7587
  889MOL0     C17242  -0.169   7.133  11.088  0.1287  0.6015  0.2358
  889MOL0     C17243  -0.301   7.163  11.123 -0.3148  0.1829 -1.0937
  889MOL0     C17244  -0.351   7.271  11.051  0.6903  0.8887  0.1068
  889MOL0     C17245  -0.482   7.314  11.078  0.3477 -0.4527 -0.6264
  889MOL0     O17246  -0.544   7.403  10.990  0.2274  0.4055 -0.4230
  889MOL0     C17247  -0.660   7.458  11.033 -1.0658  0.0076  0.3192
  889MOL0     C17248  -0.774   7.381  10.997  0.2257  0.7430  0.2525
  889MOL0     C17249  -0.910   7.422  11.033 -0.3715  0.0762 -0.1340
  889MOL0     C17250  -0.929   7.538  11.106 -0.7051 -0.1231 -0.4001
  889MOL0     O17251  -1.047   7.600  11.143  0.1317 -0.7416 -0.5717
  889MOL0     C17252  -1.171   7.531  11.114 -0.0374  0.5140 -0.2633
  889MOL0     C17253  -1.293   7.613  11.149 -0.4422  0.2223 -0.2604
  889MOL0     C17254  -1.432   7.551  11.119 -0.1009  0.1886 -0.4031
  889MOL0     C17255  -1.430   7.397  11.141  0.1172  0.8399  0.9925
  889MOL0     C17256  -1.564   7.340  11.107 -1.0006  0.4626 -0.1409
  889MOL0     C17257  -1.582   7.193  11.150  0.5353  1.2378  0.6244
  889MOL0     C17258  -1.734   7.162  11.144 -1.0108 -1.0161 -0.1257
  889MOL0     C17259  -1.770   7.041  11.237  0.2561  0.5252  0.0744
  889MOL0    Cl17260  -1.942   6.976  11.230  0.2288  0.2373  0.3193
  889MOL0     C17261  -0.818   7.608  11.151 -0.2746  0.0458  0.1994
  889MOL0     C17262  -0.689   7.571  11.119  0.0054  0.2835  0.4824
  889MOL0     O17263  -0.534   7.271  11.176 -0.3031 -0.0871 -0.1353
  889MOL0     C17264  -0.267   7.355  10.969 -0.5307 -0.0031 -0.6110
  889MOL0     C17265  -0.139   7.322  10.951  0.2407 -0.0914 -1.2120
  889MOL0     N17266   0.119   6.713  10.906 -0.0533 -0.3731 -0.3085
  889MOL0     N17267   0.145   6.636  10.807 -0.3838 -0.9041  0.2817
  889MOL0     C17268   1.319   6.250  11.026 -0.3012  1.3508  0.4636
  889MOL0     C17269   1.444   6.298  11.017  0.6903 -0.7659 -0.0937
  889MOL0     C17270   1.766   6.589  10.817 -0.1273 -1.1384 -0.5779
  889MOL0     C17271   1.783   6.683  10.913  0.4658 -0.0422 -1.1799
  889MOL0     C17272   1.895   6.767  10.914 -0.0299 -0.5997  0.3044
  889MOL0     C17273   1.993   6.754  10.819  0.1384  0.4858  0.3609
  889MOL0     O17274   2.098   6.844  10.824  0.2189  0.4477  0.2537
  889MOL0     C17275   2.228   6.780  10.836 -0.5883  0.4323  0.3419
  889MOL0     C17276   2.290   6.818  10.971 -0.2487 -0.0977 -0.7188
  889MOL0     C17277   2.215   6.752  11.083 -0.0906 -0.5765  0.0644
  889MOL0     C17278   2.295   6.742  11.216  0.5715  0.2533 -0.5250
  889MOL0     C17279   2.249   6.641  11.316 -0.5068 -1.1414  0.4542
  889MOL0     C17280   2.230   6.576  11.407  1.0498  0.4910  0.0001
  889MOL0     C17281   1.981   6.660  10.713 -0.1341 -1.2575  0.1244
  889MOL0     C17282   1.870   6.580  10.715  1.0558 -0.1892  0.8710
  889MOL0     H17283   1.362   6.563  10.819 -1.7352 -0.0669 -1.1441
  889MOL0     H17284   1.142   6.461  10.829  2.4471  2.2261 -0.6974
  889MOL0     H17285   0.974   6.104  10.866 -1.0726 -0.0489  0.6560
  889MOL0     H17286   1.078   6.207  10.765 -0.7061 -1.4794 -0.4374
  889MOL0     H17287   0.850   6.300  10.735  2.9683 -1.6798 -1.1282
  889MOL0     H17288   0.903   6.391  10.879  0.7353 -0.6189  0.8277
  889MOL0     H17289   0.776   6.204  11.010 -0.1349  0.4413 -0.5660
  889MOL0     H17290   0.736   6.145  10.855 -1.7771  0.9256 -0.8111
  889MOL0     H17291   0.649   6.399  11.001 -0.9682  0.6927  0.5755
  889MOL0     H17292   0.645   6.385  10.817  3.5011 -1.5754  0.5444
  889MOL0     H17293   0.520   6.211  11.038  0.1679  0.4239  0.5148
  889MOL0     H17294   0.505   6.158  10.880  3.5857  0.2595 -1.0460
  889MOL0     H17295   0.375   6.417  10.987 -0.4563 -0.1132  1.7411
  889MOL0     H17296   0.307   6.254  10.979  1.4459 -0.7085  0.9714
  889MOL0     H17297   0.393   6.292  10.708 -2.4534 -1.7604 -0.3638
  889MOL0     H17298   0.233   6.312  10.763 -0.8992  1.7987 -0.8840
  889MOL0     H17299   0.300   6.497  10.628 -0.1702 -0.9525  0.3275
  889MOL0     H17300   0.444   6.534  10.718  1.6380 -2.5628 -0.0259
  889MOL0     H17301   0.437   6.649  10.968 -0.8744 -2.3515 -0.4340
  889MOL0     H17302   0.323   6.763  11.166 -0.6623 -3.0525 -2.1418
  889MOL0     H17303   0.163   6.820  11.144  0.3031 -2.3195  0.6259
  889MOL0     H17304   0.412   6.914  10.985 -1.4069 -1.0665 -0.6870
  889MOL0     H17305   0.353   7.002  11.128 -0.2671 -1.0685  0.7012
  889MOL0     H17306   0.297   7.130  10.955  2.6403 -0.8839  1.5747
  889MOL0     H17307   0.231   6.996  10.862 -1.2905 -0.2203  0.1718
  889MOL0     H17308   0.123   7.076  11.141 -2.3967  0.1973  1.4729
  889MOL0     H17309   0.049   6.974  11.014  0.4513  1.5674 -0.8796
  889MOL0     H17310  -0.120   7.044  11.127  0.2191  1.2756  1.7652
  889MOL0     H17311  -0.349   7.099  11.196  1.6665 -0.1448  0.0183
  889MOL0     H17312  -0.763   7.290  10.938  0.3726  1.0866 -0.2614
  889MOL0     H17313  -1.000   7.379  10.990 -1.8143  1.2199  1.5845
  889MOL0     H17314  -1.175   7.448  11.185 -0.4901  0.9683  0.2550
  889MOL0     H17315  -1.167   7.506  11.007 -1.2881  2.2309 -0.7749
  889MOL0     H17316  -1.287   7.717  11.115 -0.9264  1.2663  2.5620
  889MOL0     H17317  -1.275   7.624  11.257  1.4094  1.5871 -0.6613
  889MOL0     H17318  -1.446   7.573  11.013  0.5214  1.4308 -0.2471
  889MOL0     H17319  -1.505   7.600  11.185  0.1328 -1.8970  1.5335
  889MOL0     H17320  -1.355   7.348  11.078 -1.6246  0.7197 -1.1076
  889MOL0     H17321  -1.415   7.392  11.249  1.6412  0.1227  0.7707
  889MOL0     H17322  -1.563   7.348  10.998  0.5012 -2.7175 -0.4726
  889MOL0     H17323  -1.638   7.399  11.162 -1.4433 -0.5716  0.4034
  889MOL0     H17324  -1.555   7.179  11.255 -0.2295 -2.6833  0.4524
  889MOL0     H17325  -1.529   7.128  11.079 -1.4468  0.7049 -0.4375
  889MOL0     H17326  -1.783   7.256  11.171  1.5716  0.3044  0.1982
  889MOL0     H17327  -1.767   7.136  11.043  0.2657  4.5287 -2.3435
  889MOL0     H17328  -1.744   7.063  11.341 -0.9783 -0.7480  0.6842
  889MOL0     H17329  -1.697   6.964  11.213 -0.7946 -0.1956 -0.9812
  889MOL0     H17330  -0.830   7.692  11.219  1.7997  0.7332 -0.2133
  889MOL0     H17331  -0.608   7.637  11.145 -0.1194  1.1997 -1.3116
  889MOL0     H17332  -0.311   7.441  10.920 -1.0903  0.7133  1.0784
  889MOL0     H17333  -0.089   7.395  10.889 -2.4489  1.8921 -1.2456
  889MOL0     H17334   1.307   6.160  11.086 -0.6864  1.3075  0.3254
  889MOL0     H17335   1.524   6.264  11.081  1.9816 -0.7045 -1.6117
  889MOL0     H17336   1.709   6.702  10.990 -0.3851 -4.6994 -0.5797
  889MOL0     H17337   1.915   6.850  10.982 -1.6442  1.0285 -1.1167
  889MOL0     H17338   2.292   6.820  10.757 -1.7601 -2.1000 -2.0294
  889MOL0     H17339   2.226   6.672  10.826  2.6335  0.4835 -2.6538
  889MOL0     H17340   2.395   6.789  10.968 -0.5844 -1.4009 -3.9388
  889MOL0     H17341   2.283   6.927  10.977  0.5153 -0.1344  1.4135
  889MOL0     H17342   2.193   6.649  11.053 -1.4574 -1.2380  2.9116
  889MOL0     H17343   2.136   6.824  11.103  1.7977  1.5367  0.3517
  889MOL0     H17344   2.401   6.731  11.194  1.6697  2.3665  2.9688
  889MOL0     H17345   2.289   6.844  11.256 -2.8247  0.0614 -0.1960
  889MOL0     H17346   2.217   6.531  11.504  1.9366  1.4391  0.5833
  889MOL0     H17347   2.050   6.671  10.630 -2.8244 -0.5278 -2.1689
  889MOL0     H17348   1.851   6.509  10.635  0.3546  2.4215 -1.4275
  890MOL0     O17349   2.108   4.351   5.298  0.6083  0.0676  0.7333
  890MOL0     C17350   2.140   4.389   5.192 -0.2870 -0.3794 -0.3164
  890MOL0     O17351   2.064   4.468   5.109 -0.4433  0.3841 -0.0259
  890MOL0     C17352   1.943   4.508   5.160 -0.8671  0.9248  0.7111
  890MOL0     C17353   1.916   4.637   5.202  0.6797 -1.3681 -0.5185
  890MOL0     C17354   1.802   4.670   5.275  0.1525  0.0066  0.2641
  890MOL0     C17355   1.700   4.577   5.296 -0.3187  0.2830 -0.1478
  890MOL0     O17356   1.587   4.638   5.347 -0.6562 -0.1706 -0.1485
  890MOL0     C17357   1.507   4.562   5.439 -0.4000  1.2806  0.0434
  890MOL0     C17358   1.449   4.645   5.549  0.1328  0.3134  0.5076
  890MOL0     C17359   1.324   4.709   5.485  0.7757  0.0636  0.0219
  890MOL0     C17360   1.205   4.613   5.496 -1.3597 -0.4851  0.0656
  890MOL0     C17361   1.088   4.662   5.414  0.4553 -0.0205  0.7430
  890MOL0     C17362   0.961   4.579   5.436  0.5612 -0.4471 -1.3261
  890MOL0     C17363   0.854   4.604   5.325 -0.2810  0.7626  0.5126
  890MOL0     C17364   0.742   4.491   5.339 -1.0373  0.9166 -0.3515
  890MOL0     N17365   0.605   4.546   5.315  0.0866 -0.3808  0.0769
  890MOL0     C17366   0.530   4.595   5.420 -0.3914 -0.1909  0.1000
  890MOL0     C17367   0.400   4.623   5.368  0.0634  0.2943 -0.2780
  890MOL0     C17368   0.279   4.677   5.446 -0.3486 -0.3293 -0.3579
  890MOL0     C17369   0.215   4.784   5.358 -0.9786  0.3992  0.5230
  890MOL0     C17370   0.116   4.870   5.442  0.1317 -0.3648  0.0639
  890MOL0     C17371   0.004   4.905   5.349  0.5088  0.9343 -0.3484
  890MOL0     O17372  -0.088   4.968   5.447 -0.2089  0.3433 -0.1550
  890MOL0     C17373  -0.204   5.025   5.390  0.0826 -0.3647 -1.3564
  890MOL0     C17374  -0.299   5.074   5.477  0.1058  0.1302  0.1087
  890MOL0     C17375  -0.411   5.143   5.428 -0.5815 -0.3823  0.0722
  890MOL0     C17376  -0.435   5.163   5.289 -0.5883 -0.9840 -0.5331
  890MOL0     C17377  -0.553   5.227   5.229 -0.1717  0.9113 -0.0217
  890MOL0     O17378  -0.663   5.242   5.305  0.5096  0.7068 -0.1351
  890MOL0     C17379  -0.774   5.310   5.250 -0.1498 -0.0216 -0.9821
  890MOL0     C17380  -0.893   5.239   5.267  1.0559  0.0270 -0.7917
  890MOL0     C17381  -1.014   5.310   5.249 -0.5331 -0.3934  0.3563
  890MOL0     C17382  -1.019   5.440   5.200  0.9087  0.6411  0.0523
  890MOL0     O17383  -1.137   5.515   5.180 -0.2932 -0.0989  1.3529
  890MOL0     C17384  -1.266   5.446   5.187 -0.6696  0.5364 -0.2798
  890MOL0     C17385  -1.384   5.545   5.182 -0.3878  1.4766  0.2650
  890MOL0     C17386  -1.522   5.469   5.173  0.5712  0.1744 -0.0332
  890MOL0     C17387  -1.572   5.408   5.303 -0.0893 -0.1071  0.2643
  890MOL0     C17388  -1.699   5.333   5.270  0.0522  0.3609 -0.5649
  890MOL0     C17389  -1.754   5.277   5.407 -0.3660 -0.6526 -0.1721
  890MOL0     C17390  -1.875   5.192   5.374  0.4780 -0.3982 -0.3266
  890MOL0     C17391  -1.944   5.132   5.498  0.1784 -0.6633  0.2142
  890MOL0    Cl17392  -2.059   5.011   5.431  0.2612  0.3915 -0.0913
  890MOL0     C17393  -0.895   5.499   5.166 -0.6130 -0.1991  0.1780
  890MOL0     C17394  -0.777   5.437   5.194 -0.1907 -0.3741  0.5781
  890MOL0     O17395  -0.538   5.271   5.115 -0.0850  0.4938 -0.4617
  890MOL0     C17396  -0.343   5.106   5.204  0.5493  0.8851 -0.8765
  890MOL0     C17397  -0.227   5.045   5.256 -0.3505 -0.1992  0.0938
  890MOL0     N17398   0.395   4.558   5.241 -1.0060 -0.7809 -0.1958
  890MOL0     N17399   0.516   4.515   5.212  1.0504  0.2577  0.3462
  890MOL0     C17400   1.707   4.446   5.230 -0.0984 -0.0538  0.2996
  890MOL0     C17401   1.830   4.416   5.171 -0.6416 -1.1118  0.1654
  890MOL0     C17402   2.275   4.326   5.144  0.6582 -0.2856  0.2896
  890MOL0     C17403   2.380   4.312   5.230  0.0619  0.0587 -0.4798
  890MOL0     C17404   2.506   4.296   5.186  0.0977  0.7390 -0.2340
  890MOL0     C17405   2.532   4.272   5.054 -0.2643 -0.6782  0.3565
  890MOL0     O17406   2.653   4.242   5.003 -0.0564 -0.2988 -0.5310
  890MOL0     C17407   2.752   4.191   5.099 -0.1920 -0.3870 -0.6821
  890MOL0     C17408   2.877   4.164   5.018  0.5253 -0.4884  1.1552
  890MOL0     C17409   3.005   4.129   5.112  0.5875  0.1704 -0.0509
  890MOL0     C17410   3.120   4.076   5.035  0.0929 -0.2045  0.1694
  890MOL0     C17411   3.202   3.988   5.121 -0.4988 -0.1085 -0.8688
  890MOL0     C17412   3.267   3.916   5.195 -0.5057 -0.9811  1.1696
  890MOL0     C17413   2.424   4.277   4.963 -0.6670 -0.1497 -0.8389
  890MOL0     C17414   2.292   4.302   5.002 -0.2323  0.3781 -0.2068
  890MOL0     H17415   1.991   4.715   5.197 -2.8661  2.3948 -0.0744
  890MOL0     H17416   1.801   4.773   5.309 -1.3748 -0.2057  0.9554
  890MOL0     H17417   1.573   4.487   5.483 -1.3841 -0.7895 -1.7706
  890MOL0     H17418   1.421   4.506   5.400 -2.0011  0.7253  3.9371
  890MOL0     H17419   1.520   4.725   5.574 -0.4987  0.4402  1.9918
  890MOL0     H17420   1.431   4.580   5.635  2.6275  2.3605  2.7950
  890MOL0     H17421   1.342   4.736   5.381 -2.0293  0.4517 -0.4298
  890MOL0     H17422   1.287   4.794   5.544 -1.3178 -1.1766  0.6163
  890MOL0     H17423   1.228   4.513   5.457  1.5907  1.2178 -3.1987
  890MOL0     H17424   1.182   4.605   5.602  1.5268  0.8747  0.8768
  890MOL0     H17425   1.105   4.660   5.306 -0.0166 -0.9665  0.6713
  890MOL0     H17426   1.070   4.767   5.437  1.9069  0.4857 -0.2769
  890MOL0     H17427   0.925   4.600   5.537  0.9397 -3.0979 -0.5733
  890MOL0     H17428   0.993   4.474   5.437 -1.9051 -1.2616  0.2130
  890MOL0     H17429   0.808   4.703   5.330 -2.2460 -0.0651 -0.1834
  890MOL0     H17430   0.902   4.608   5.227 -0.9346  1.6765  0.2186
  890MOL0     H17431   0.757   4.450   5.439 -0.8163 -3.0212 -1.8463
  890MOL0     H17432   0.755   4.414   5.263 -1.9021  3.8029 -3.6637
  890MOL0     H17433   0.577   4.609   5.517  0.2702  0.1559 -0.2648
  890MOL0     H17434   0.317   4.714   5.541 -0.3156 -1.0464 -0.0828
  890MOL0     H17435   0.211   4.592   5.460 -0.0039 -0.4183  0.8718
  890MOL0     H17436   0.157   4.722   5.289  0.2570  1.3328 -1.4588
  890MOL0     H17437   0.288   4.827   5.289 -1.3411  0.4282  0.1512
  890MOL0     H17438   0.080   4.816   5.529 -2.5100 -0.0781 -0.7600
  890MOL0     H17439   0.175   4.957   5.474 -0.6046 -0.7466  2.6836
  890MOL0     H17440  -0.042   4.822   5.295  0.4810  1.0781 -0.5490
  890MOL0     H17441   0.046   4.971   5.273  1.5061 -0.5404 -1.1141
  890MOL0     H17442  -0.286   5.057   5.583 -2.5502 -1.3629  0.2808
  890MOL0     H17443  -0.474   5.182   5.507 -0.6386 -2.5789  1.1839
  890MOL0     H17444  -0.896   5.135   5.297  1.6552 -0.2736 -1.7102
  890MOL0     H17445  -1.107   5.260   5.272  0.0585 -1.7306 -0.0296
  890MOL0     H17446  -1.266   5.396   5.284  2.3382  0.7972 -0.0635
  890MOL0     H17447  -1.275   5.381   5.100  3.3008 -1.6028  0.6944
  890MOL0     H17448  -1.374   5.603   5.090  1.1948 -0.9454 -1.2002
  890MOL0     H17449  -1.392   5.604   5.274 -4.4641 -1.0633  1.8130
  890MOL0     H17450  -1.520   5.403   5.086  0.5737  1.6415 -1.1952
  890MOL0     H17451  -1.602   5.535   5.139 -0.6454 -1.9662 -1.5966
  890MOL0     H17452  -1.505   5.334   5.347 -1.0766 -2.0045 -1.2892
  890MOL0     H17453  -1.584   5.492   5.372  2.6941  0.3989  0.2658
  890MOL0     H17454  -1.662   5.261   5.197 -1.6086 -0.5111 -0.5874
  890MOL0     H17455  -1.766   5.405   5.223 -1.0424 -0.1341  0.1915
  890MOL0     H17456  -1.786   5.360   5.470  0.9204 -1.2650  1.3795
  890MOL0     H17457  -1.666   5.227   5.450  2.2489 -1.4485 -5.5159
  890MOL0     H17458  -1.936   5.251   5.305  1.7083  0.7230 -0.5006
  890MOL0     H17459  -1.836   5.107   5.316 -0.9449 -2.3821  1.4768
  890MOL0     H17460  -1.996   5.210   5.556 -0.5191 -1.8540  1.2422
  890MOL0     H17461  -1.866   5.080   5.554  0.3091 -1.4609 -0.6851
  890MOL0     H17462  -0.891   5.597   5.121 -1.9698  0.9718  2.4566
  890MOL0     H17463  -0.687   5.488   5.162 -1.3230 -0.7075 -3.8950
  890MOL0     H17464  -0.353   5.104   5.096  0.7621 -0.5154 -0.8917
  890MOL0     H17465  -0.163   5.013   5.174  2.5712  5.6131 -0.4499
  890MOL0     H17466   1.630   4.371   5.243  1.1034 -1.3761  0.0632
  890MOL0     H17467   1.854   4.315   5.138  1.4265 -0.8700  0.7868
  890MOL0     H17468   2.370   4.330   5.336 -4.8898 -4.8939  0.3733
  890MOL0     H17469   2.582   4.295   5.264  0.5995 -0.2595 -0.7100
  890MOL0     H17470   2.727   4.092   5.140  0.3648  0.1787  1.1134
  890MOL0     H17471   2.762   4.253   5.188  2.5924 -1.0725 -0.4354
  890MOL0     H17472   2.851   4.094   4.938  2.8190 -1.1465  0.8910
  890MOL0     H17473   2.899   4.256   4.963  2.2845 -1.0743  0.8178
  890MOL0     H17474   2.974   4.060   5.191  1.3415 -3.2837 -2.5372
  890MOL0     H17475   3.041   4.219   5.163 -0.6260  0.7597 -0.2117
  890MOL0     H17476   3.087   4.009   4.954  1.3971  0.4487 -0.9578
  890MOL0     H17477   3.187   4.149   4.989  2.6513 -2.4763 -0.0149
  890MOL0     H17478   3.305   3.848   5.269  2.3048 -0.1762  0.5718
  890MOL0     H17479   2.455   4.259   4.861  2.1147 -3.5359  0.4077
  890MOL0     H17480   2.204   4.305   4.938  0.6469 -0.3577 -1.4950
  891MOL0     O17481   2.946   9.428   1.906  0.2620 -0.1388  0.3410
  891MOL0     C17482   3.002   9.369   1.813 -0.2796  1.0797 -0.9038
  891MOL0     O17483   3.115   9.301   1.820  0.3561  0.5531 -0.3954
  891MOL0     C17484   3.189   9.306   1.927 -0.0869  0.3452 -0.7174
  891MOL0     C17485   3.323   9.337   1.918 -0.5583  0.5853 -0.7250
  891MOL0     C17486   3.397   9.319   2.033 -1.3829 -0.5633 -0.8266
  891MOL0     C17487   3.353   9.259   2.148 -0.5679  0.3820  0.1911
  891MOL0     O17488   3.435   9.220   2.254  0.1724 -0.1503 -0.6206
  891MOL0     C17489   3.469   9.336   2.344  0.3413 -0.4232 -1.2305
  891MOL0     C17490   3.541   9.293   2.482 -0.4508  0.1711  0.7149
  891MOL0     C17491   3.582   9.398   2.580  0.0758 -0.1681  0.8269
  891MOL0     C17492   3.704   9.467   2.521  0.0380 -0.3128 -0.5543
  891MOL0     C17493   3.728   9.600   2.598 -0.3522 -0.3368  0.1768
  891MOL0     C17494   3.820   9.696   2.515 -0.1754 -0.2268  0.0674
  891MOL0     C17495   3.871   9.822   2.584 -0.2860 -0.0408 -0.2499
  891MOL0     C17496   3.967   9.890   2.486 -0.2625 -0.5781 -0.4798
  891MOL0     N17497   3.879   9.959   2.390 -0.0664  0.0255 -0.2245
  891MOL0     C17498   3.815  10.080   2.428  1.1683 -0.1513 -0.4031
  891MOL0     C17499   3.728  10.103   2.320 -0.1024  0.4426 -0.0534
  891MOL0     C17500   3.623  10.219   2.312 -0.1449 -0.5949 -0.3124
  891MOL0     C17501   3.589  10.239   2.164 -0.3132  0.0279 -0.5359
  891MOL0     C17502   3.530  10.379   2.123 -0.2434  0.0966 -0.6217
  891MOL0     C17503   3.527  10.383   1.967 -0.0253  0.0855 -0.1156
  891MOL0     O17504   3.654  10.412   1.911  0.1712 -0.0922 -0.5286
  891MOL0     C17505   3.662  10.444   1.777 -0.4562 -0.0512  1.9676
  891MOL0     C17506   3.562  10.513   1.709 -0.0984  0.9528  0.6169
  891MOL0     C17507   3.586  10.553   1.573  0.2760  0.8140  0.0540
  891MOL0     C17508   3.696  10.508   1.506 -0.2440 -0.4944 -0.6080
  891MOL0     C17509   3.719  10.540   1.368 -0.1405  0.0216  0.2062
  891MOL0     O17510   3.809  10.463   1.308 -0.0904  0.3127 -0.3325
  891MOL0     C17511   3.807  10.457   1.172 -0.9529 -0.9857 -0.9305
  891MOL0     C17512   3.929  10.456   1.103 -0.3896 -0.4655 -0.8126
  891MOL0     C17513   3.944  10.458   0.967 -1.0261  0.3014 -0.2125
  891MOL0     C17514   3.823  10.470   0.897  0.2648 -0.6152 -0.5470
  891MOL0     O17515   3.830  10.511   0.765 -0.9669 -0.7285 -0.2523
  891MOL0     C17516   3.914  10.443   0.679  0.5810 -1.4141  0.7907
  891MOL0     C17517   3.837  10.359   0.580 -0.5027  0.1337 -0.8458
  891MOL0     C17518   3.763  10.449   0.485 -0.2098 -0.2795 -0.1796
  891MOL0     C17519   3.704  10.349   0.373 -0.1680 -0.0262  0.1220
  891MOL0     C17520   3.605  10.429   0.282  0.3445 -0.5333 -0.0292
  891MOL0     C17521   3.478  10.468   0.361  0.8243 -0.6986 -0.9404
  891MOL0     C17522   3.352  10.498   0.281  0.1364  0.5419  0.0736
  891MOL0     C17523   3.375  10.585   0.164  0.2158 -0.1502  0.8476
  891MOL0    Cl17524   3.409  10.757   0.231  0.0182  0.1581 -0.1599
  891MOL0     C17525   3.698  10.460   0.958 -0.3049 -0.9620 -0.1957
  891MOL0     C17526   3.689  10.462   1.096  0.2350  0.4494  0.3949
  891MOL0     O17527   3.663  10.639   1.322  0.0747 -0.1438 -0.4553
  891MOL0     C17528   3.794  10.433   1.571  1.0055  0.9972  0.3564
  891MOL0     C17529   3.774  10.402   1.707 -0.5401 -0.1276 -0.1647
  891MOL0     N17530   3.740   9.992   2.227 -0.6186 -0.8742 -0.2360
  891MOL0     N17531   3.841   9.917   2.269 -0.6904 -0.9128  0.2976
  891MOL0     C17532   3.218   9.223   2.152  0.2188 -0.2776 -0.2268
  891MOL0     C17533   3.133   9.254   2.043  0.6866  0.3496  0.7327
  891MOL0     C17534   2.928   9.375   1.685 -0.3425  0.2939 -0.1738
  891MOL0     C17535   2.804   9.426   1.662 -0.0775 -0.3564 -0.0646
  891MOL0     C17536   2.756   9.426   1.536  0.5684  0.2021  0.3063
  891MOL0     C17537   2.819   9.380   1.424 -0.1075  0.1730  0.5571
  891MOL0     O17538   2.779   9.382   1.294  1.0864  0.2780 -0.3953
  891MOL0     C17539   2.640   9.400   1.270  0.4378 -0.5451  0.3756
  891MOL0     C17540   2.600   9.399   1.127 -0.6219  0.3965  0.5454
  891MOL0     C17541   2.610   9.260   1.067  0.1711  0.1524  0.0373
  891MOL0     C17542   2.762   9.232   1.011  0.7268 -1.0933  0.4844
  891MOL0     C17543   2.752   9.142   0.897 -1.6999 -0.2163 -1.0928
  891MOL0     C17544   2.748   9.060   0.816 -0.6996  0.0785  0.0792
  891MOL0     C17545   2.943   9.324   1.438 -0.1226 -0.0186  0.6992
  891MOL0     C17546   3.000   9.329   1.571  1.7249  0.4055 -0.4927
  891MOL0     H17547   3.371   9.355   1.823  1.9310 -2.2501 -0.1966
  891MOL0     H17548   3.504   9.326   2.015 -1.0881  0.5505  1.0741
  891MOL0     H17549   3.372   9.378   2.371  0.0041 -1.4339 -0.7846
  891MOL0     H17550   3.531   9.404   2.285  1.5048 -0.4197 -0.0562
  891MOL0     H17551   3.627   9.232   2.451  0.6740  2.7124 -1.5712
  891MOL0     H17552   3.466   9.222   2.519 -3.6981  0.7254 -3.9512
  891MOL0     H17553   3.596   9.345   2.675 -0.9083 -1.0505  0.4900
  891MOL0     H17554   3.492   9.460   2.595  0.0364  0.3026 -1.1396
  891MOL0     H17555   3.793   9.404   2.527  0.8980  0.8901 -0.3762
  891MOL0     H17556   3.691   9.487   2.414 -2.6600 -2.5169 -0.7619
  891MOL0     H17557   3.781   9.588   2.693  0.5707 -1.1337 -0.4161
  891MOL0     H17558   3.633   9.651   2.621 -1.3803 -2.0521 -0.0958
  891MOL0     H17559   3.759   9.724   2.429 -1.4313 -1.6400  0.4612
  891MOL0     H17560   3.903   9.635   2.477  0.9624  0.7118  0.9411
  891MOL0     H17561   3.781   9.880   2.604  0.4695  0.8294  0.7511
  891MOL0     H17562   3.923   9.811   2.679  0.2685 -0.5500 -0.5983
  891MOL0     H17563   4.017   9.810   2.431 -1.6455 -1.9173  0.1375
  891MOL0     H17564   4.035   9.958   2.537  0.9969 -0.5759 -2.1059
  891MOL0     H17565   3.823  10.137   2.519  1.4739  2.1759 -1.8140
  891MOL0     H17566   3.663  10.312   2.354 -1.7999 -1.0556  2.5177
  891MOL0     H17567   3.534  10.193   2.371  0.2477 -1.4853 -0.0912
  891MOL0     H17568   3.534  10.152   2.126 -1.8716 -1.8383  5.0836
  891MOL0     H17569   3.688  10.245   2.117 -0.0455  0.5462  0.0787
  891MOL0     H17570   3.430  10.402   2.160 -0.1148 -1.8963  1.1690
  891MOL0     H17571   3.593  10.459   2.165 -1.8107  0.1349  1.8162
  891MOL0     H17572   3.452  10.454   1.933 -0.8771  0.6289  2.7098
  891MOL0     H17573   3.481  10.289   1.933 -2.2220  0.9566  0.3411
  891MOL0     H17574   3.473  10.558   1.753 -0.9107  0.2735 -0.3016
  891MOL0     H17575   3.503  10.601   1.522 -1.2206 -1.7335 -0.1035
  891MOL0     H17576   4.022  10.471   1.158 -1.5469 -0.1586  1.1342
  891MOL0     H17577   4.046  10.472   0.934 -0.8839  2.5490  0.9601
  891MOL0     H17578   3.983  10.383   0.739 -0.3983 -2.1976  1.1724
  891MOL0     H17579   3.973  10.520   0.629 -0.0425 -2.0473 -1.0184
  891MOL0     H17580   3.774  10.294   0.641  0.4724 -0.9646 -0.9680
  891MOL0     H17581   3.904  10.290   0.527  1.3169  1.2270 -0.0611
  891MOL0     H17582   3.837  10.514   0.438 -0.8341  0.0088 -0.7685
  891MOL0     H17583   3.691  10.514   0.534  2.0417  1.0099  1.6364
  891MOL0     H17584   3.788  10.316   0.312  0.2193 -0.4048  0.8378
  891MOL0     H17585   3.651  10.271   0.428  1.0620  0.5741  2.2969
  891MOL0     H17586   3.567  10.359   0.207 -2.1264 -0.9469  1.4740
  891MOL0     H17587   3.657  10.516   0.242 -2.9949  2.1390  0.9545
  891MOL0     H17588   3.505  10.552   0.427  2.6648 -1.2285 -0.9573
  891MOL0     H17589   3.444  10.387   0.425 -0.3337 -1.0546 -1.9830
  891MOL0     H17590   3.303  10.408   0.243  0.5615 -0.3988  1.6622
  891MOL0     H17591   3.275  10.540   0.344  0.3067  3.5930 -1.5737
  891MOL0     H17592   3.291  10.567   0.096  0.7353  0.8478 -0.0876
  891MOL0     H17593   3.461  10.560   0.101 -0.6575 -1.4833  0.1486
  891MOL0     H17594   3.608  10.459   0.898 -0.5484 -1.6284  0.1745
  891MOL0     H17595   3.587  10.468   1.131 -0.7078 -2.0771 -1.6079
  891MOL0     H17596   3.875  10.383   1.519 -0.7324 -0.3112 -1.1750
  891MOL0     H17597   3.848  10.339   1.757  0.2781  0.9096 -0.0199
  891MOL0     H17598   3.188   9.167   2.240 -3.9346 -3.0574 -3.0319
  891MOL0     H17599   3.029   9.222   2.044  0.7673  0.0869  1.1220
  891MOL0     H17600   2.744   9.465   1.744  1.1724  0.8302  0.3250
  891MOL0     H17601   2.659   9.473   1.523 -0.4907 -2.1752 -0.9878
  891MOL0     H17602   2.622   9.502   1.305 -0.3504  0.6375 -3.0205
  891MOL0     H17603   2.595   9.312   1.318  0.2934 -0.9555 -0.4849
  891MOL0     H17604   2.508   9.454   1.105  0.8921  3.0194  0.2270
  891MOL0     H17605   2.676   9.466   1.083  1.2734 -1.8926  0.1403
  891MOL0     H17606   2.535   9.254   0.988 -0.1039 -1.2034  0.3712
  891MOL0     H17607   2.596   9.180   1.141  0.5100 -0.3315 -0.4087
  891MOL0     H17608   2.817   9.323   0.984  0.8759 -1.0610  0.8941
  891MOL0     H17609   2.831   9.189   1.084  0.2365 -0.6356  1.2313
  891MOL0     H17610   2.752   8.975   0.750  1.5575 -0.7083  1.1241
  891MOL0     H17611   2.993   9.276   1.355  0.9514  0.6833  0.9145
  891MOL0     H17612   3.098   9.287   1.589  1.3484 -0.4664 -0.4268
  892MOL0     O17613   7.564   8.774   3.986 -0.3498 -0.2098  0.4423
  892MOL0     C17614   7.462   8.716   3.984 -0.2430 -0.0109 -0.6527
  892MOL0     O17615   7.338   8.767   3.986 -0.4235  0.5882 -0.0204
  892MOL0     C17616   7.301   8.897   3.978  0.2613 -0.0182  0.0654
  892MOL0     C17617   7.384   9.005   3.984  0.2642 -0.2605 -0.6624
  892MOL0     C17618   7.331   9.138   3.983  0.5738 -0.5947 -0.3530
  892MOL0     C17619   7.189   9.166   3.982 -0.5214 -0.5709  0.2045
  892MOL0     O17620   7.159   9.301   3.994 -0.3118 -0.4583  0.2963
  892MOL0     C17621   7.021   9.316   4.024  0.2270 -0.6446 -0.5027
  892MOL0     C17622   6.975   9.466   4.047 -0.7054  0.5158  1.0481
  892MOL0     C17623   6.824   9.461   4.074  0.7157 -0.9175 -0.5634
  892MOL0     C17624   6.759   9.596   4.044  0.2522 -0.0034 -0.2501
  892MOL0     C17625   6.610   9.601   4.090  0.7567 -0.0330  0.1585
  892MOL0     C17626   6.581   9.746   4.144  0.0969  0.4588 -0.2962
  892MOL0     C17627   6.440   9.759   4.192 -0.0641  0.3411  0.2069
  892MOL0     C17628   6.390   9.652   4.286  0.4651 -0.4646  0.3367
  892MOL0     N17629   6.308   9.713   4.386 -1.6376  1.2989 -0.0427
  892MOL0     C17630   6.345   9.776   4.502 -0.4587 -0.0001  0.2541
  892MOL0     C17631   6.234   9.822   4.560  0.5595  0.3710 -0.5285
  892MOL0     C17632   6.214   9.908   4.689  0.1659 -0.3672  0.1226
  892MOL0     C17633   6.066   9.901   4.736  0.1651 -0.0214  0.6479
  892MOL0     C17634   6.049   9.974   4.868 -0.4525 -0.3075 -0.4179
  892MOL0     C17635   5.897  10.000   4.890 -0.1835 -0.2025 -0.0478
  892MOL0     O17636   5.869  10.004   5.031  0.3540 -0.9029 -0.5152
  892MOL0     C17637   5.730  10.015   5.059  0.5822 -0.1866 -0.9249
  892MOL0     C17638   5.684  10.113   5.148  0.5396  0.2618  0.1798
  892MOL0     C17639   5.549  10.124   5.191 -0.2483  0.3010 -0.8473
  892MOL0     C17640   5.461  10.028   5.143 -0.3273 -0.0158 -0.2062
  892MOL0     C17641   5.323  10.025   5.199 -0.8478 -0.2434  0.2157
  892MOL0     O17642   5.304  10.099   5.311  0.1360 -0.8027  0.4195
  892MOL0     C17643   5.201  10.071   5.397  0.2015  0.5209  0.2815
  892MOL0     C17644   5.198   9.956   5.472  0.0730  0.1707 -0.2136
  892MOL0     C17645   5.080   9.932   5.552 -0.1089  0.1371  0.4503
  892MOL0     C17646   4.978  10.019   5.568  0.4860  0.3579  0.5276
  892MOL0     O17647   4.879   9.966   5.646  0.7592 -0.6100  0.6085
  892MOL0     C17648   4.793  10.062   5.715 -0.9551  0.2848  0.3536
  892MOL0     C17649   4.702   9.992   5.806 -0.1147  1.0924 -0.6128
  892MOL0     C17650   4.778   9.941   5.922  0.5324 -0.1612 -0.1154
  892MOL0     C17651   4.692   9.875   6.025 -0.3935  0.7124 -0.3704
  892MOL0     C17652   4.622   9.975   6.117 -0.1657  0.2134  0.1163
  892MOL0     C17653   4.574   9.887   6.232  0.2759 -0.7787 -0.5785
  892MOL0     C17654   4.480   9.976   6.327  0.4549  0.3067  0.5609
  892MOL0     C17655   4.401   9.899   6.435  0.4584 -0.5428  0.0504
  892MOL0    Cl17656   4.279  10.008   6.503  0.1725  0.0565 -0.3141
  892MOL0     C17657   4.985  10.131   5.496  0.3013  0.2838 -0.2028
  892MOL0     C17658   5.098  10.160   5.413  0.9782  0.2530  1.1270
  892MOL0     O17659   5.242   9.944   5.149  0.1687 -0.1611 -0.4827
  892MOL0     C17660   5.498   9.927   5.047  0.5934  0.7481 -0.9350
  892MOL0     C17661   5.635   9.919   5.011 -0.9100 -0.6766 -0.9034
  892MOL0     N17662   6.129   9.789   4.474 -0.5192  0.3694 -0.0494
  892MOL0     N17663   6.178   9.710   4.377  1.3135  0.1720  0.2231
  892MOL0     C17664   7.107   9.053   3.975 -0.8706 -0.5713 -0.2302
  892MOL0     C17665   7.163   8.928   3.970 -1.3026  0.2870 -0.4022
  892MOL0     C17666   7.457   8.573   3.973 -0.5015  0.2780 -0.5677
  892MOL0     C17667   7.353   8.509   3.907 -0.9298  0.3272  0.0439
  892MOL0     C17668   7.353   8.372   3.910  0.3794  0.1871  0.3125
  892MOL0     C17669   7.433   8.298   3.998  0.0416  0.3231 -0.9707
  892MOL0     O17670   7.433   8.166   4.012  0.2599  0.1328  0.2754
  892MOL0     C17671   7.317   8.095   3.987 -0.6272 -0.2110  0.0283
  892MOL0     C17672   7.339   8.045   3.847 -0.3456  0.3705 -0.1977
  892MOL0     C17673   7.446   7.938   3.838 -0.5458  0.6228 -0.7060
  892MOL0     C17674   7.457   7.867   3.704  0.6949  0.3658  0.5017
  892MOL0     C17675   7.555   7.757   3.716  0.0955 -0.1214 -0.8299
  892MOL0     C17676   7.640   7.668   3.744  0.6914  0.2460 -1.3918
  892MOL0     C17677   7.539   8.360   4.049 -0.4027  0.9333  0.6220
  892MOL0     C17678   7.554   8.497   4.044  0.0473 -1.4495 -0.1981
  892MOL0     H17679   7.489   8.987   4.005  0.1804  0.1938  0.1666
  892MOL0     H17680   7.398   9.223   3.993  0.4042 -0.5973  0.8989
  892MOL0     H17681   7.000   9.259   4.115 -2.1925 -2.2465 -1.9461
  892MOL0     H17682   6.956   9.280   3.944  0.0847 -3.9140  0.9284
  892MOL0     H17683   6.989   9.511   3.949 -0.5539 -0.2842  0.6926
  892MOL0     H17684   7.024   9.525   4.124 -2.9439  0.8763  2.2838
  892MOL0     H17685   6.809   9.427   4.177  0.5197 -0.0596 -0.3007
  892MOL0     H17686   6.765   9.388   4.017 -2.1661  1.9823 -1.5662
  892MOL0     H17687   6.812   9.674   4.100 -0.3073 -0.8596  1.5536
  892MOL0     H17688   6.764   9.603   3.935 -2.0991  1.9626 -0.3026
  892MOL0     H17689   6.580   9.521   4.158 -0.6247  0.2191 -0.1362
  892MOL0     H17690   6.546   9.579   4.005  1.4743 -0.1930 -0.3522
  892MOL0     H17691   6.598   9.820   4.066 -1.3435  1.3571  0.2007
  892MOL0     H17692   6.649   9.763   4.229 -2.2641  2.5245  1.3243
  892MOL0     H17693   6.439   9.851   4.251  1.6037 -0.8517  2.2517
  892MOL0     H17694   6.380   9.758   4.101  0.4727 -0.6716 -0.1555
  892MOL0     H17695   6.475   9.606   4.338  0.3029 -0.2734  0.7703
  892MOL0     H17696   6.341   9.567   4.236  1.8998 -0.5713 -0.9558
  892MOL0     H17697   6.449   9.784   4.533  0.6648 -1.6712 -2.6945
  892MOL0     H17698   6.219  10.015   4.669  1.5059 -0.4707 -0.1894
  892MOL0     H17699   6.291   9.884   4.764  1.9929  1.4887 -1.0451
  892MOL0     H17700   6.047   9.794   4.748  0.2126 -0.0852  0.1896
  892MOL0     H17701   6.001   9.946   4.660 -0.1120  0.8893  1.3967
  892MOL0     H17702   6.084   9.909   4.949 -0.6683  1.7342  1.4072
  892MOL0     H17703   6.111  10.064   4.864  0.2615 -0.7319  0.6878
  892MOL0     H17704   5.850   9.915   4.840  0.2323  0.1098 -1.0074
  892MOL0     H17705   5.865  10.097   4.849  2.3334  1.3604  1.4351
  892MOL0     H17706   5.762  10.181   5.182  4.4676 -2.0454 -3.2082
  892MOL0     H17707   5.530  10.214   5.248  2.0491 -1.0608  2.3658
  892MOL0     H17708   5.273   9.877   5.469  1.6521  1.4753  1.7430
  892MOL0     H17709   5.076   9.832   5.594 -1.3481  0.2125  0.5457
  892MOL0     H17710   4.739  10.118   5.638 -0.6826  1.1623  0.7973
  892MOL0     H17711   4.847  10.140   5.769  1.0777  0.0471 -1.1875
  892MOL0     H17712   4.671   9.900   5.754 -0.3672  0.2086  1.0213
  892MOL0     H17713   4.618  10.056   5.836  0.0229 -0.0928  2.8569
  892MOL0     H17714   4.844  10.014   5.970  1.8466 -1.1968 -0.3024
  892MOL0     H17715   4.844   9.868   5.874  2.4348  1.6264 -0.3513
  892MOL0     H17716   4.613   9.811   5.986  1.3062 -2.4685  1.0316
  892MOL0     H17717   4.751   9.810   6.091 -2.7244  2.2731  3.6441
  892MOL0     H17718   4.546  10.028   6.059  1.3392  0.1573 -2.0107
  892MOL0     H17719   4.682  10.063   6.139 -2.3389  2.1990 -1.3350
  892MOL0     H17720   4.661   9.851   6.287 -1.8874 -1.1030  2.9512
  892MOL0     H17721   4.509   9.807   6.194  0.0758 -0.9686  0.1493
  892MOL0     H17722   4.544  10.045   6.382  2.1199 -2.7187  2.6806
  892MOL0     H17723   4.411  10.029   6.260 -1.3403 -1.8227  0.6106
  892MOL0     H17724   4.472   9.868   6.512  1.7188  0.3824 -0.6962
  892MOL0     H17725   4.364   9.808   6.387 -0.1175  0.4776 -1.5133
  892MOL0     H17726   4.902  10.199   5.513  1.7171  1.8196  0.8804
  892MOL0     H17727   5.103  10.249   5.351 -2.4755  0.6885  1.3062
  892MOL0     H17728   5.420   9.859   5.012 -1.8434  1.4382  2.6582
  892MOL0     H17729   5.669   9.837   4.948  0.8496 -0.2207 -0.5915
  892MOL0     H17730   6.999   9.054   3.988 -0.6345 -2.5462  2.7811
  892MOL0     H17731   7.086   8.852   3.963 -0.6356 -0.4572  0.0820
  892MOL0     H17732   7.276   8.560   3.849  1.2126  2.5294 -1.0404
  892MOL0     H17733   7.283   8.325   3.842  0.6625 -0.2997  0.3567
  892MOL0     H17734   7.231   8.161   3.999  0.6091  1.3050  0.9826
  892MOL0     H17735   7.305   8.019   4.065  0.7547 -0.4127  0.0663
  892MOL0     H17736   7.246   8.000   3.810  1.7027 -3.4819 -1.1687
  892MOL0     H17737   7.367   8.131   3.785 -2.8439 -0.2205 -2.3382
  892MOL0     H17738   7.434   7.872   3.924  1.5664 -0.5954 -1.2967
  892MOL0     H17739   7.543   7.988   3.840 -0.0668 -0.0233 -3.5488
  892MOL0     H17740   7.362   7.820   3.676  0.9551  0.2904 -0.2700
  892MOL0     H17741   7.490   7.935   3.625 -0.3489 -1.1038 -1.2587
  892MOL0     H17742   7.704   7.584   3.760 -2.2658 -1.7337  1.3485
  892MOL0     H17743   7.616   8.298   4.095  0.5460  2.7507  1.5904
  892MOL0     H17744   7.643   8.539   4.090 -1.7174 -0.4528  2.5465
  893MOL0     O17745   4.768   5.750   1.331  0.5721 -0.8337 -0.3239
  893MOL0     C17746   4.817   5.659   1.259  0.3001  0.5331 -0.7829
  893MOL0     O17747   4.756   5.600   1.161 -0.2747 -0.2109 -0.0126
  893MOL0     C17748   4.622   5.621   1.120 -0.1670  1.4843 -0.1391
  893MOL0     C17749   4.515   5.656   1.203  0.1136 -0.4419 -0.3125
  893MOL0     C17750   4.386   5.668   1.150  0.3492  0.7494 -0.7276
  893MOL0     C17751   4.361   5.646   1.016  0.2994 -0.3021  0.4245
  893MOL0     O17752   4.232   5.667   0.962  0.1701  0.7527  0.1716
  893MOL0     C17753   4.210   5.671   0.817  0.1484 -0.2309 -0.7394
  893MOL0     C17754   4.061   5.684   0.784 -0.2356 -0.4498 -0.4091
  893MOL0     C17755   4.040   5.757   0.648  0.0483  0.1819 -0.0454
  893MOL0     C17756   3.888   5.791   0.607  0.2310  0.0045 -0.5416
  893MOL0     C17757   3.804   5.849   0.722  0.1617 -0.0002  0.4062
  893MOL0     C17758   3.696   5.935   0.658 -1.2976 -0.0172 -0.5278
  893MOL0     C17759   3.587   5.859   0.566  0.2405 -0.2016 -0.9267
  893MOL0     C17760   3.525   5.737   0.629 -0.0045  0.2634  0.4150
  893MOL0     N17761   3.392   5.713   0.568 -0.5176  0.3317 -0.5096
  893MOL0     C17762   3.265   5.768   0.614 -0.9676  0.5286  0.2416
  893MOL0     C17763   3.183   5.720   0.525  0.1248  0.0546 -0.2737
  893MOL0     C17764   3.025   5.740   0.507 -1.0908 -0.4167 -0.0006
  893MOL0     C17765   2.980   5.881   0.551  0.8252  0.0786  0.5794
  893MOL0     C17766   3.022   5.995   0.455 -0.4823  0.5561  0.1882
  893MOL0     C17767   2.937   6.124   0.444 -0.8358  0.3115 -0.3699
  893MOL0     O17768   2.832   6.105   0.347  0.1334 -0.0663  0.5899
  893MOL0     C17769   2.708   6.162   0.361 -0.1484 -0.3506 -0.3768
  893MOL0     C17770   2.690   6.289   0.430 -0.2480 -0.0990  0.4766
  893MOL0     C17771   2.568   6.347   0.445  0.4319 -0.6229 -0.0977
  893MOL0     C17772   2.458   6.293   0.386 -0.9550  0.4643  1.1511
  893MOL0     C17773   2.328   6.349   0.404 -1.2537 -0.1713 -1.2687
  893MOL0     O17774   2.225   6.268   0.384 -0.5369 -0.2703  0.1878
  893MOL0     C17775   2.100   6.305   0.434 -0.5121 -0.4335 -0.6301
  893MOL0     C17776   1.987   6.240   0.381 -0.5042  0.0276 -0.5491
  893MOL0     C17777   1.862   6.252   0.438 -0.0016 -0.1155  0.1747
  893MOL0     C17778   1.839   6.337   0.542 -0.3443 -0.2272 -0.1256
  893MOL0     O17779   1.713   6.371   0.587 -0.4565  0.2569 -0.4001
  893MOL0     C17780   1.601   6.305   0.543  0.0933  0.1877  0.2887
  893MOL0     C17781   1.474   6.321   0.634  0.0151  0.6631  0.7114
  893MOL0     C17782   1.426   6.462   0.660  0.1855 -0.3274  0.4180
  893MOL0     C17783   1.342   6.521   0.540 -0.3223  0.4711 -0.2482
  893MOL0     C17784   1.261   6.646   0.570  0.2276 -0.7788 -0.0769
  893MOL0     C17785   1.347   6.773   0.571  0.1963  0.5000 -1.2443
  893MOL0     C17786   1.264   6.895   0.593 -0.2992 -0.5427  0.2388
  893MOL0     C17787   1.165   6.917   0.483 -0.2142  0.5090  0.1094
  893MOL0    Cl17788   1.091   7.076   0.498 -0.2439 -0.3310  0.5813
  893MOL0     C17789   1.951   6.414   0.593  0.7352  0.2675 -0.1146
  893MOL0     C17790   2.080   6.397   0.540 -0.5282  0.9141 -0.8378
  893MOL0     O17791   2.319   6.477   0.419  0.0837  0.3077 -0.1225
  893MOL0     C17792   2.466   6.167   0.324  0.1678  0.5362 -0.0728
  893MOL0     C17793   2.597   6.103   0.310 -0.6894 -0.3338 -0.3837
  893MOL0     N17794   3.248   5.643   0.429 -1.5987  0.1279 -0.6067
  893MOL0     N17795   3.370   5.644   0.456  0.9060 -0.5100 -0.3500
  893MOL0     C17796   4.469   5.619   0.938  0.0210 -0.4034 -0.1238
  893MOL0     C17797   4.595   5.589   0.986  0.2166 -0.2710  0.2571
  893MOL0     C17798   4.964   5.643   1.254  0.7299 -0.6541  0.5387
  893MOL0     C17799   5.040   5.728   1.327  0.8720 -0.1546 -0.5313
  893MOL0     C17800   5.180   5.725   1.317 -0.4659 -0.0573  0.1088
  893MOL0     C17801   5.245   5.630   1.235  0.4810 -0.4257  0.6326
  893MOL0     O17802   5.376   5.626   1.210 -0.5874  0.4277 -0.0481
  893MOL0     C17803   5.468   5.724   1.255 -0.5425 -0.3289  0.2876
  893MOL0     C17804   5.456   5.869   1.206 -0.6201 -0.1924  0.9246
  893MOL0     C17805   5.415   5.860   1.062  0.4173  0.1230  0.4419
  893MOL0     C17806   5.420   5.995   0.998 -0.2687 -0.4646  0.6232
  893MOL0     C17807   5.347   6.027   0.876  0.5878  1.4725  0.4142
  893MOL0     C17808   5.273   6.054   0.778  0.2474 -0.1055 -0.4480
  893MOL0     C17809   5.159   5.556   1.153 -1.0656 -0.0468  0.0886
  893MOL0     C17810   5.025   5.555   1.161  0.7340  0.4129 -0.2963
  893MOL0     H17811   4.520   5.664   1.311 -0.1494 -2.8898 -0.0507
  893MOL0     H17812   4.306   5.704   1.214 -1.6146 -0.6806 -2.2661
  893MOL0     H17813   4.237   5.574   0.774 -3.5467 -1.4032 -0.8171
  893MOL0     H17814   4.272   5.743   0.764 -0.1272 -1.1249 -2.3311
  893MOL0     H17815   4.023   5.749   0.863 -1.4087  0.7350 -1.8693
  893MOL0     H17816   4.016   5.585   0.787  2.5509 -1.7771  2.2656
  893MOL0     H17817   4.074   5.693   0.566 -0.9859  3.1857 -3.0234
  893MOL0     H17818   4.099   5.849   0.647 -1.6051  1.3059  1.4708
  893MOL0     H17819   3.905   5.864   0.528 -0.8287 -0.5375 -1.3026
  893MOL0     H17820   3.844   5.713   0.544 -0.0540  3.0691 -4.4321
  893MOL0     H17821   3.871   5.910   0.783 -1.7139  0.8206  1.7372
  893MOL0     H17822   3.762   5.763   0.776 -2.7972  1.5063  0.6969
  893MOL0     H17823   3.741   6.014   0.597  0.1781 -0.4360 -0.0408
  893MOL0     H17824   3.650   5.981   0.746  0.2369 -2.5612  1.7695
  893MOL0     H17825   3.518   5.943   0.558  1.9493  1.0954 -3.8167
  893MOL0     H17826   3.629   5.842   0.466  0.4771  0.5151 -0.9581
  893MOL0     H17827   3.514   5.749   0.737 -1.7254 -1.8129  0.5419
  893MOL0     H17828   3.594   5.652   0.619 -0.1107  0.2672 -0.4846
  893MOL0     H17829   3.244   5.833   0.699  0.3731  0.8133  0.3691
  893MOL0     H17830   2.975   5.672   0.576 -1.1651  0.5692  0.9469
  893MOL0     H17831   2.995   5.727   0.402 -3.2428  1.3666  0.3104
  893MOL0     H17832   3.023   5.896   0.650  0.9095 -1.3073  0.7714
  893MOL0     H17833   2.872   5.888   0.558  1.0824  3.1906  3.6261
  893MOL0     H17834   3.121   6.023   0.492 -1.3322  1.2036  2.1475
  893MOL0     H17835   3.030   5.953   0.355  1.0983 -0.5869  0.7637
  893MOL0     H17836   2.998   6.212   0.419 -0.5300  0.1500 -0.1896
  893MOL0     H17837   2.897   6.147   0.543  0.6914 -1.7755  0.8035
  893MOL0     H17838   2.776   6.341   0.470  0.3832  0.3314 -1.3124
  893MOL0     H17839   2.557   6.445   0.491 -0.8771 -0.1449 -1.3257
  893MOL0     H17840   2.005   6.164   0.306  2.2513  0.1371 -0.0782
  893MOL0     H17841   1.797   6.181   0.387  2.3731 -0.2465 -2.9934
  893MOL0     H17842   1.622   6.200   0.523 -0.2417  0.1340  0.2012
  893MOL0     H17843   1.584   6.344   0.443 -2.5666  0.7629  0.8847
  893MOL0     H17844   1.503   6.275   0.729  0.9880 -0.5260 -0.1265
  893MOL0     H17845   1.387   6.272   0.589  1.3730 -0.8066 -0.4405
  893MOL0     H17846   1.510   6.526   0.685 -1.9370  1.8079  2.5995
  893MOL0     H17847   1.372   6.466   0.755  0.2876  2.8237  0.4291
  893MOL0     H17848   1.411   6.540   0.457  2.3524  1.7105  2.0972
  893MOL0     H17849   1.268   6.445   0.512  1.3416 -1.0708 -0.6769
  893MOL0     H17850   1.213   6.633   0.667 -2.7229 -0.4282 -1.3772
  893MOL0     H17851   1.183   6.652   0.493  1.1969 -0.8644 -1.1004
  893MOL0     H17852   1.400   6.777   0.475  0.1326  0.6642 -1.2726
  893MOL0     H17853   1.427   6.776   0.645 -2.7337  2.0856  2.1516
  893MOL0     H17854   1.206   6.891   0.685 -0.4241  1.3966  0.2698
  893MOL0     H17855   1.327   6.984   0.601 -1.1945  0.2525 -1.1605
  893MOL0     H17856   1.081   6.847   0.481 -0.5884  0.7765  2.5894
  893MOL0     H17857   1.212   6.901   0.386 -1.1781  1.0557 -0.4595
  893MOL0     H17858   1.939   6.480   0.678  3.5206 -3.1131  3.2976
  893MOL0     H17859   2.162   6.439   0.597 -0.0297 -2.7368  1.4873
  893MOL0     H17860   2.382   6.110   0.287  0.4203 -0.3968  0.7351
  893MOL0     H17861   2.593   6.007   0.259 -3.5343 -2.0207  2.6290
  893MOL0     H17862   4.448   5.622   0.831 -1.3899  2.2082  0.1498
  893MOL0     H17863   4.673   5.558   0.916 -1.0562  0.4798 -1.5728
  893MOL0     H17864   4.990   5.807   1.383 -1.4104 -0.9792 -1.3092
  893MOL0     H17865   5.235   5.792   1.383 -0.5119 -0.0794  0.1695
  893MOL0     H17866   5.555   5.665   1.227 -1.1136 -1.5671  1.0623
  893MOL0     H17867   5.470   5.733   1.364 -2.1511  1.0107  0.2583
  893MOL0     H17868   5.383   5.924   1.266 -1.9125 -0.5062 -0.2987
  893MOL0     H17869   5.554   5.919   1.207  0.5648 -2.1153 -2.2743
  893MOL0     H17870   5.312   5.822   1.054  0.5658 -0.8587  2.5538
  893MOL0     H17871   5.481   5.792   1.008  2.0628  1.4852  0.6638
  893MOL0     H17872   5.401   6.070   1.076  2.3373  1.5968 -0.5620
  893MOL0     H17873   5.525   6.002   0.968 -0.8782 -0.5523 -1.7036
  893MOL0     H17874   5.203   6.067   0.698  1.0584 -1.4348 -1.4261
  893MOL0     H17875   5.214   5.508   1.073 -0.6344 -0.2435  0.5034
  893MOL0     H17876   4.961   5.497   1.095 -1.2035  1.1235  0.8411
  894MOL0     O17877   7.515   0.396   5.370  0.3788 -0.9091  0.3353
  894MOL0     C17878   7.573   0.490   5.421 -0.2022 -0.4958  0.9895
  894MOL0     O17879   7.539   0.559   5.535 -0.5974  0.3120 -0.4783
  894MOL0     C17880   7.428   0.523   5.596 -0.5070  0.3132  0.8047
  894MOL0     C17881   7.430   0.418   5.686  0.6683 -0.0178  0.8044
  894MOL0     C17882   7.312   0.399   5.766 -0.6108  0.2114  0.6705
  894MOL0     C17883   7.211   0.493   5.767 -0.8648  0.9889  0.3923
  894MOL0     O17884   7.106   0.482   5.852 -0.4844  0.0741  0.2999
  894MOL0     C17885   7.064   0.356   5.902 -1.1892  0.5468 -0.2944
  894MOL0     C17886   6.935   0.364   5.970 -0.0427  0.3289 -0.9821
  894MOL0     C17887   6.860   0.239   6.006 -0.0080 -0.4396  0.5145
  894MOL0     C17888   6.932   0.175   6.120  0.9785 -0.1987 -0.4028
  894MOL0     C17889   6.902   0.024   6.133  0.9515 -0.2425  1.0043
  894MOL0     C17890   6.983  -0.033   6.247 -0.3403 -0.5533  0.3983
  894MOL0     C17891   6.901  -0.058   6.379 -0.0179 -0.3204  0.1731
  894MOL0     C17892   7.011  -0.113   6.468  0.3731  0.1356  0.6357
  894MOL0     N17893   6.960  -0.180   6.595 -0.0108 -0.5279  0.2382
  894MOL0     C17894   6.877  -0.130   6.698 -0.8006  0.2880  1.1840
  894MOL0     C17895   6.842  -0.237   6.774 -0.6967 -1.0051  0.5177
  894MOL0     C17896   6.749  -0.247   6.902 -0.2446  0.1231  0.9951
  894MOL0     C17897   6.622  -0.149   6.901 -0.1766 -0.8874  0.2991
  894MOL0     C17898   6.549  -0.165   7.032 -0.2542 -0.7276 -0.1206
  894MOL0     C17899   6.425  -0.246   7.005 -0.2929  0.6939 -0.0221
  894MOL0     O17900   6.341  -0.167   6.914 -0.7506 -0.6476 -0.7476
  894MOL0     C17901   6.208  -0.181   6.947 -0.3902 -0.5142 -0.9417
  894MOL0     C17902   6.146  -0.307   6.965  0.1433 -0.4861 -0.4412
  894MOL0     C17903   6.006  -0.321   6.994 -0.4522  0.5805  0.3840
  894MOL0     C17904   5.926  -0.206   7.007  0.6133  0.1953 -0.5327
  894MOL0     C17905   5.780  -0.220   7.022  0.9186 -0.7203  0.3675
  894MOL0     O17906   5.686  -0.129   6.971 -1.0625 -0.8686 -0.6085
  894MOL0     C17907   5.556  -0.150   7.003 -0.8957 -0.9727  0.4617
  894MOL0     C17908   5.497  -0.263   6.951 -0.1761  0.8343  0.1667
  894MOL0     C17909   5.359  -0.285   6.968  0.5963 -0.7167 -0.2905
  894MOL0     C17910   5.282  -0.199   7.045 -1.7652  0.5328 -0.0419
  894MOL0     O17911   5.153  -0.239   7.060 -0.6857 -0.0298 -0.6782
  894MOL0     C17912   5.049  -0.146   7.072 -0.3810 -0.2539  1.1165
  894MOL0     C17913   5.012  -0.120   7.215 -0.2340 -0.4466 -0.1629
  894MOL0     C17914   4.885  -0.035   7.226 -0.1273 -1.0651  0.4929
  894MOL0     C17915   4.836   0.021   7.358  0.3456  0.2981 -0.4774
  894MOL0     C17916   4.726   0.128   7.334 -0.2716 -0.6008 -0.6579
  894MOL0     C17917   4.602   0.074   7.257 -1.0598  0.3315 -0.2778
  894MOL0     C17918   4.523   0.198   7.220 -0.7250  0.2856 -0.1903
  894MOL0     C17919   4.395   0.180   7.138  0.3694 -0.8655 -0.1165
  894MOL0    Cl17920   4.273   0.095   7.221  0.3928  0.4698 -0.1422
  894MOL0     C17921   5.342  -0.089   7.099 -0.6253 -0.3168 -0.8296
  894MOL0     C17922   5.482  -0.058   7.079  0.0669 -0.5679 -0.1594
  894MOL0     O17923   5.753  -0.307   7.103 -0.9682 -0.0960  0.2396
  894MOL0     C17924   5.990  -0.079   6.989  0.7093  0.7888 -0.2145
  894MOL0     C17925   6.127  -0.071   6.957  0.1010 -0.0965  0.6915
  894MOL0     N17926   6.903  -0.346   6.724 -0.0243 -0.2378  0.4316
  894MOL0     N17927   6.970  -0.312   6.616 -0.0419  0.4193  0.7965
  894MOL0     C17928   7.231   0.614   5.698  1.3497 -0.9566 -0.1092
  894MOL0     C17929   7.336   0.626   5.616  0.0281  0.7262  0.6042
  894MOL0     C17930   7.701   0.529   5.364  0.3022  0.0195  1.2554
  894MOL0     C17931   7.734   0.492   5.227  0.5709 -0.2759 -0.4663
  894MOL0     C17932   7.852   0.532   5.172  0.8883 -0.6172 -0.2311
  894MOL0     C17933   7.952   0.602   5.247 -0.1661  0.6509 -0.2792
  894MOL0     O17934   8.077   0.644   5.205  0.1416  0.7462 -0.2429
  894MOL0     C17935   8.129   0.574   5.088 -0.0886 -0.3003  0.1430
  894MOL0     C17936   8.176   0.439   5.138 -0.3052  0.5061 -0.8023
  894MOL0     C17937   8.267   0.462   5.265  0.4612 -0.3799  0.7503
  894MOL0     C17938   8.304   0.334   5.347  1.0969  0.4680  0.7294
  894MOL0     C17939   8.209   0.307   5.448 -0.3265  1.0713 -0.4572
  894MOL0     C17940   8.124   0.293   5.528  0.5884  0.0432  0.1387
  894MOL0     C17941   7.921   0.625   5.379  0.2012 -1.1322 -0.4349
  894MOL0     C17942   7.796   0.598   5.432 -0.1877  0.0398 -0.8279
  894MOL0     H17943   7.510   0.345   5.676  0.9968  0.2602  1.3921
  894MOL0     H17944   7.297   0.302   5.812  0.1360  0.7093  2.0323
  894MOL0     H17945   7.145   0.311   5.960 -1.4956  0.0403 -0.2540
  894MOL0     H17946   7.058   0.295   5.811  3.5292 -0.0962 -0.4018
  894MOL0     H17947   6.865   0.419   5.906  0.1138 -0.5583 -1.9278
  894MOL0     H17948   6.960   0.411   6.066  1.6535 -3.1554  0.4560
  894MOL0     H17949   6.854   0.179   5.914 -1.2392  2.3947 -1.4273
  894MOL0     H17950   6.764   0.269   6.048 -0.7866 -2.0189 -0.0487
  894MOL0     H17951   7.038   0.200   6.108  1.0154 -1.2357 -2.8786
  894MOL0     H17952   6.887   0.228   6.205 -0.4929  4.0964 -3.4762
  894MOL0     H17953   6.929  -0.032   6.043 -0.4220 -0.6590  0.8287
  894MOL0     H17954   6.794   0.012   6.148  0.6526  0.4149 -0.4604
  894MOL0     H17955   7.063   0.039   6.266 -0.4839 -0.3536  0.2581
  894MOL0     H17956   7.027  -0.126   6.210 -0.6240  0.7137 -3.4869
  894MOL0     H17957   6.870   0.042   6.412 -0.1926  0.0499 -1.0638
  894MOL0     H17958   6.822  -0.131   6.365  1.1613 -1.9729  1.7325
  894MOL0     H17959   7.088  -0.042   6.498  1.2318 -1.3191  2.0647
  894MOL0     H17960   7.048  -0.198   6.409 -1.0454  1.2396 -2.0199
  894MOL0     H17961   6.848  -0.026   6.708  2.4668  1.1533  2.7867
  894MOL0     H17962   6.808  -0.208   6.986 -0.3155  1.2653  0.5319
  894MOL0     H17963   6.710  -0.348   6.919 -0.7617  0.0228 -0.5897
  894MOL0     H17964   6.575  -0.175   6.806  0.1224 -0.4289  0.0217
  894MOL0     H17965   6.654  -0.045   6.890 -1.7267 -0.0658  2.6908
  894MOL0     H17966   6.622  -0.205   7.103 -0.5973  1.2292  1.4169
  894MOL0     H17967   6.512  -0.072   7.076  2.4134  0.0326  0.7247
  894MOL0     H17968   6.371  -0.286   7.092 -1.0885 -0.8929 -1.2052
  894MOL0     H17969   6.454  -0.332   6.945 -0.6478  0.6320 -0.1013
  894MOL0     H17970   6.208  -0.395   6.960  2.4639  1.0558 -0.2394
  894MOL0     H17971   5.957  -0.415   7.017 -0.2531  1.3839  4.9640
  894MOL0     H17972   5.555  -0.330   6.888 -1.5985 -2.6198  2.2250
  894MOL0     H17973   5.313  -0.371   6.920 -2.1444  1.8994 -2.7750
  894MOL0     H17974   4.964  -0.172   7.008  0.9500  2.2011 -1.8771
  894MOL0     H17975   5.086  -0.049   7.037 -3.4277  0.3398 -0.8434
  894MOL0     H17976   5.090  -0.063   7.266  0.2797 -1.6656  0.4536
  894MOL0     H17977   4.995  -0.208   7.279  0.0974 -0.0538  0.4772
  894MOL0     H17978   4.803  -0.089   7.178 -1.7155  1.8404 -0.3084
  894MOL0     H17979   4.907   0.053   7.164  1.5216 -2.4385 -0.9948
  894MOL0     H17980   4.792  -0.055   7.424  1.2276 -1.3927 -1.7760
  894MOL0     H17981   4.915   0.070   7.416 -0.9582  2.2881 -0.2769
  894MOL0     H17982   4.763   0.217   7.282 -1.2843 -0.8010 -1.7567
  894MOL0     H17983   4.682   0.167   7.426  0.1870  1.0518 -1.1078
  894MOL0     H17984   4.553   0.002   7.324  1.6730 -0.9766  0.4612
  894MOL0     H17985   4.642   0.032   7.165  2.7056  3.2664 -0.2327
  894MOL0     H17986   4.502   0.258   7.309 -0.0393  2.4371 -1.3982
  894MOL0     H17987   4.588   0.255   7.154 -2.2029 -1.8006 -3.7615
  894MOL0     H17988   4.422   0.115   7.054 -1.3476 -2.9374  0.8444
  894MOL0     H17989   4.358   0.276   7.101 -4.4157 -1.8106  1.5599
  894MOL0     H17990   5.290  -0.012   7.155 -0.0496 -1.4779  1.4236
  894MOL0     H17991   5.513   0.031   7.132 -1.1817 -0.6412  0.7321
  894MOL0     H17992   5.942   0.018   7.002 -2.3886 -0.4139 -1.8556
  894MOL0     H17993   6.149   0.031   6.927 -1.0699 -0.7168 -2.7611
  894MOL0     H17994   7.164   0.699   5.707  2.9060  0.1251  2.1573
  894MOL0     H17995   7.341   0.713   5.551 -0.0713  0.8738  0.7937
  894MOL0     H17996   7.659   0.439   5.169 -0.2650  0.2007  0.1439
  894MOL0     H17997   7.870   0.516   5.067  2.7364 -1.8016  0.2182
  894MOL0     H17998   8.215   0.632   5.054 -0.6502  0.6561  0.3285
  894MOL0     H17999   8.057   0.567   5.005  1.4605  2.6302 -1.6066
  894MOL0     H18000   8.091   0.373   5.159 -0.8643  1.2869 -0.5626
  894MOL0     H18001   8.228   0.398   5.051 -0.9785 -0.2437 -0.8595
  894MOL0     H18002   8.227   0.532   5.339  0.4495 -0.1593  0.5368
  894MOL0     H18003   8.358   0.509   5.225 -0.1738  0.6191  0.4573
  894MOL0     H18004   8.309   0.253   5.274  1.5069  0.2922  0.9510
  894MOL0     H18005   8.407   0.335   5.383  1.8190  1.0519 -1.2201
  894MOL0     H18006   8.066   0.281   5.618  2.9485 -0.6660  1.6558
  894MOL0     H18007   7.981   0.675   5.455  0.2095 -0.2366 -1.0070
  894MOL0     H18008   7.768   0.634   5.531 -4.0168  1.9021 -2.3767
  895MOL0     O18009   2.556   6.269   2.364  0.2986  1.2142  0.1668
  895MOL0     C18010   2.620   6.307   2.264  0.2507 -1.2368  0.5167
  895MOL0     O18011   2.616   6.261   2.131 -0.1009 -0.3385  0.2547
  895MOL0     C18012   2.503   6.210   2.074  0.7574 -0.5264 -0.0965
  895MOL0     C18013   2.370   6.187   2.124 -0.5569  0.4079 -0.2063
  895MOL0     C18014   2.267   6.139   2.046  0.0930 -0.0344 -0.2894
  895MOL0     C18015   2.290   6.091   1.912  0.5058  0.2227 -0.8188
  895MOL0     O18016   2.180   6.051   1.849  0.3574 -0.2302 -0.1190
  895MOL0     C18017   2.185   6.072   1.707  1.0848  0.8692  0.3731
  895MOL0     C18018   2.041   6.029   1.668  0.7337  0.4586 -0.1152
  895MOL0     C18019   2.021   6.046   1.525  0.5574 -0.3471  0.9098
  895MOL0     C18020   1.874   6.023   1.500 -0.2860 -0.4812  0.6056
  895MOL0     C18021   1.831   5.968   1.360  0.4366 -0.5492  0.3336
  895MOL0     C18022   1.676   5.945   1.353  0.8184 -0.2571  0.0076
  895MOL0     C18023   1.651   5.912   1.198 -0.3475 -0.8187 -0.2705
  895MOL0     C18024   1.503   5.885   1.170  0.2252 -0.0714  0.9100
  895MOL0     N18025   1.402   5.997   1.155  0.6114 -1.0983 -0.8130
  895MOL0     C18026   1.409   6.096   1.059  0.0739  0.5313 -0.6336
  895MOL0     C18027   1.293   6.165   1.062  0.0438  0.0356 -1.2967
  895MOL0     C18028   1.265   6.310   1.012  0.1592 -0.2939 -1.2436
  895MOL0     C18029   1.116   6.336   0.981  0.2929  0.6219  0.1606
  895MOL0     C18030   1.067   6.232   0.886  0.5262 -0.3138  0.2991
  895MOL0     C18031   0.918   6.264   0.834 -1.0171  0.2943  1.3772
  895MOL0     O18032   0.828   6.232   0.939 -0.4782 -0.4450  0.3673
  895MOL0     C18033   0.693   6.239   0.923  0.6659  0.1898 -0.2464
  895MOL0     C18034   0.621   6.292   1.031  0.1940  0.0187 -0.5039
  895MOL0     C18035   0.481   6.292   1.026  0.8003 -0.1038 -0.9053
  895MOL0     C18036   0.412   6.257   0.906 -0.7225  0.4269 -0.5441
  895MOL0     C18037   0.270   6.255   0.899  0.4488  0.6591  0.7792
  895MOL0     O18038   0.202   6.330   0.997 -0.3301  0.0048  0.1780
  895MOL0     C18039   0.061   6.353   0.991  0.0663 -0.1047  0.7873
  895MOL0     C18040  -0.033   6.312   0.895  0.2155  0.8885 -0.0319
  895MOL0     C18041  -0.163   6.361   0.912  1.0952 -0.3520 -0.6766
  895MOL0     C18042  -0.200   6.438   1.019 -0.6692 -0.1669 -0.5508
  895MOL0     O18043  -0.325   6.483   1.053 -0.6893 -0.3040 -0.5437
  895MOL0     C18044  -0.434   6.458   0.960  0.3462  0.5936  0.3744
  895MOL0     C18045  -0.572   6.512   1.006 -0.8097  0.8207  0.6844
  895MOL0     C18046  -0.576   6.664   1.008 -0.4419 -0.8956 -0.0907
  895MOL0     C18047  -0.702   6.719   1.076  0.0039 -0.3461 -0.1554
  895MOL0     C18048  -0.686   6.867   1.117 -0.5270 -0.3058  1.0399
  895MOL0     C18049  -0.811   6.921   1.169 -1.1054  0.1548  1.3434
  895MOL0     C18050  -0.847   6.852   1.300  0.4826  0.0536 -0.1164
  895MOL0     C18051  -0.922   6.942   1.386  0.7324  0.6566  0.0589
  895MOL0    Cl18052  -1.078   7.004   1.322 -0.1824 -0.5597 -0.1741
  895MOL0     C18053  -0.103   6.482   1.102  0.1963  0.2533 -0.3473
  895MOL0     C18054   0.025   6.432   1.098  0.1453  0.3520 -0.8411
  895MOL0     O18055   0.219   6.196   0.800 -0.4252  0.6516  0.3361
  895MOL0     C18056   0.489   6.205   0.794 -0.0171 -1.1010  0.2877
  895MOL0     C18057   0.632   6.196   0.808  0.4535 -1.0780  0.3073
  895MOL0     N18058   1.209   6.085   1.146  0.3548  0.3555  0.4203
  895MOL0     N18059   1.277   5.994   1.206 -0.3010  0.3771 -0.6900
  895MOL0     C18060   2.421   6.101   1.865  0.7445  0.3012 -0.0686
  895MOL0     C18061   2.517   6.161   1.944  0.1818 -0.1702 -0.4062
  895MOL0     C18062   2.739   6.392   2.292  0.3035 -0.6118 -0.1105
  895MOL0     C18063   2.787   6.425   2.418  0.0771 -0.4616 -0.0417
  895MOL0     C18064   2.884   6.518   2.445 -0.2755 -0.6629  0.5132
  895MOL0     C18065   2.957   6.584   2.331 -0.6447  0.8403  0.2605
  895MOL0     O18066   3.039   6.696   2.331  0.0071 -0.0311 -0.5669
  895MOL0     C18067   3.104   6.728   2.459 -0.4396 -0.5410 -0.2255
  895MOL0     C18068   3.234   6.809   2.432  0.3005 -0.8769  0.5127
  895MOL0     C18069   3.335   6.702   2.395 -0.7711  0.5754  0.1368
  895MOL0     C18070   3.455   6.742   2.319  0.8052 -0.7644 -0.6001
  895MOL0     C18071   3.575   6.666   2.346 -0.6381 -0.1748 -0.5909
  895MOL0     C18072   3.661   6.589   2.365  0.2855  0.4235 -0.6929
  895MOL0     C18073   2.908   6.554   2.204  0.0122 -0.5743 -0.9133
  895MOL0     C18074   2.805   6.465   2.183  0.0010  0.5161  0.2561
  895MOL0     H18075   2.358   6.201   2.231 -0.7587  1.5585 -0.3722
  895MOL0     H18076   2.169   6.127   2.090 -0.7033  0.6394 -1.7804
  895MOL0     H18077   2.253   5.997   1.665  2.5743  1.3619  1.8045
  895MOL0     H18078   2.213   6.176   1.692 -0.1126  1.5953  2.6490
  895MOL0     H18079   1.974   6.089   1.730  2.3336  1.6362  0.5283
  895MOL0     H18080   2.017   5.925   1.692  0.3353  0.5300 -0.1880
  895MOL0     H18081   2.084   5.979   1.465 -0.3622 -2.3275  2.0599
  895MOL0     H18082   2.055   6.147   1.500  0.1788 -0.3091  0.5470
  895MOL0     H18083   1.843   5.943   1.568  0.5820 -3.5503 -2.3027
  895MOL0     H18084   1.823   6.117   1.521  2.0498  0.8000  0.8758
  895MOL0     H18085   1.887   5.875   1.344 -1.2429 -1.2367 -2.1651
  895MOL0     H18086   1.872   6.030   1.280 -2.2453 -0.0213 -0.7454
  895MOL0     H18087   1.628   6.043   1.369 -1.2864 -1.2427  0.1306
  895MOL0     H18088   1.618   5.879   1.418  1.7511  0.7959  1.9981
  895MOL0     H18089   1.679   6.004   1.146 -4.0460  0.2072 -0.7267
  895MOL0     H18090   1.704   5.821   1.170  0.2849 -0.0135 -1.7841
  895MOL0     H18091   1.467   5.813   1.244  0.1896 -5.6893 -3.8008
  895MOL0     H18092   1.507   5.825   1.079  0.3190 -1.2545  1.6723
  895MOL0     H18093   1.494   6.123   0.997 -0.9589  1.3567 -1.7392
  895MOL0     H18094   1.315   6.322   0.915 -2.1641  0.0437 -2.4737
  895MOL0     H18095   1.302   6.378   1.088  1.1991 -3.7173  1.5788
  895MOL0     H18096   1.104   6.427   0.921 -0.0763 -0.3197 -1.2603
  895MOL0     H18097   1.057   6.340   1.072  0.3536  0.1730  0.2217
  895MOL0     H18098   1.127   6.242   0.795  1.0227  4.0083  0.8922
  895MOL0     H18099   1.066   6.133   0.934 -2.6579  0.3994  1.9964
  895MOL0     H18100   0.908   6.206   0.742  2.7883 -2.5673  2.4753
  895MOL0     H18101   0.897   6.369   0.812 -3.2993 -0.3236  0.3690
  895MOL0     H18102   0.667   6.334   1.120 -0.9730  2.9809 -1.1778
  895MOL0     H18103   0.432   6.326   1.116  2.0049 -0.9216  0.0874
  895MOL0     H18104   0.005   6.253   0.812  3.6263  0.5521  1.6149
  895MOL0     H18105  -0.233   6.319   0.840 -0.2284 -2.0140  1.4666
  895MOL0     H18106  -0.450   6.350   0.952  0.1514  0.6704 -0.4013
  895MOL0     H18107  -0.408   6.501   0.862  0.1287 -0.2137 -0.0437
  895MOL0     H18108  -0.585   6.477   1.109  0.9800  0.9824  1.0020
  895MOL0     H18109  -0.640   6.467   0.934  0.4373 -0.6814  0.3830
  895MOL0     H18110  -0.560   6.702   0.906  0.3493 -4.8169 -1.5983
  895MOL0     H18111  -0.483   6.691   1.059  1.6717 -1.6925 -3.1798
  895MOL0     H18112  -0.790   6.717   1.011 -0.9405  3.2792  0.8065
  895MOL0     H18113  -0.724   6.660   1.166  2.1452 -1.0059 -0.0095
  895MOL0     H18114  -0.638   6.920   1.034 -0.8082  0.0217  1.0859
  895MOL0     H18115  -0.615   6.876   1.199 -1.6286 -3.0733  2.3954
  895MOL0     H18116  -0.891   6.907   1.096 -0.0032  0.6421 -0.0074
  895MOL0     H18117  -0.807   7.030   1.175 -0.2236  0.1535  1.0429
  895MOL0     H18118  -0.901   6.760   1.276  1.4350  0.1960 -3.1335
  895MOL0     H18119  -0.765   6.803   1.354 -1.4652 -5.1255 -1.2391
  895MOL0     H18120  -0.853   7.020   1.419 -1.0016  2.1872  0.2756
  895MOL0     H18121  -0.954   6.874   1.466  2.4139 -1.7011 -1.1422
  895MOL0     H18122  -0.131   6.540   1.189  0.2033  0.2230 -0.3247
  895MOL0     H18123   0.094   6.456   1.179  3.0939 -4.0218 -1.7181
  895MOL0     H18124   0.447   6.190   0.695  1.4651  0.1015 -0.5562
  895MOL0     H18125   0.693   6.158   0.727 -0.3750 -0.3908 -0.6549
  895MOL0     H18126   2.451   6.058   1.770 -3.1822 -0.5869 -1.0964
  895MOL0     H18127   2.623   6.159   1.920  0.5583  4.0001  0.2374
  895MOL0     H18128   2.740   6.373   2.500 -0.0758  1.2399  0.9996
  895MOL0     H18129   2.917   6.548   2.544 -3.3884  1.2481  1.1426
  895MOL0     H18130   3.127   6.634   2.510  0.0641 -0.9748 -1.2175
  895MOL0     H18131   3.028   6.787   2.511  0.7761  1.4335 -0.5749
  895MOL0     H18132   3.240   6.893   2.362  0.1696  1.9079  3.5927
  895MOL0     H18133   3.270   6.855   2.525 -1.0612  0.0752  0.6157
  895MOL0     H18134   3.296   6.612   2.347  1.6984  1.2307 -3.4623
  895MOL0     H18135   3.368   6.659   2.490 -0.7948  0.0856 -0.0771
  895MOL0     H18136   3.426   6.737   2.213  0.7843  0.1005 -0.6434
  895MOL0     H18137   3.478   6.847   2.339  1.7904 -1.0446 -0.2038
  895MOL0     H18138   3.747   6.528   2.386  0.2390  0.8156  0.7470
  895MOL0     H18139   2.957   6.609   2.124 -0.0397  0.0465 -0.5299
  895MOL0     H18140   2.766   6.457   2.082  0.4688  0.4706  0.0792
  896MOL0     O18141   7.288   5.902   9.046 -0.4999 -0.7682 -0.1160
  896MOL0     C18142   7.289   5.801   9.116 -0.3515 -0.1205 -0.4652
  896MOL0     O18143   7.182   5.765   9.202 -0.2918 -0.2255  0.2174
  896MOL0     C18144   7.053   5.820   9.195  0.6567  0.2023 -0.2931
  896MOL0     C18145   6.950   5.732   9.216 -0.2041 -0.4960  0.1136
  896MOL0     C18146   6.819   5.778   9.215 -0.3478 -0.8303  0.3055
  896MOL0     C18147   6.789   5.919   9.209  0.3659 -0.6521  0.8859
  896MOL0     O18148   6.668   5.983   9.213  0.3671  0.7945  0.4967
  896MOL0     C18149   6.553   5.894   9.261 -0.8022  0.5428  0.6693
  896MOL0     C18150   6.425   5.979   9.267  0.9139  0.6286 -0.5121
  896MOL0     C18151   6.307   5.877   9.241 -0.4027 -0.1446  0.0415
  896MOL0     C18152   6.171   5.951   9.236 -0.7269 -0.0299 -0.1846
  896MOL0     C18153   6.051   5.862   9.190 -0.1356 -0.6564  0.8635
  896MOL0     C18154   5.924   5.941   9.223  0.7220 -0.2064 -0.0896
  896MOL0     C18155   5.809   5.850   9.202  0.2908  0.1368  0.0711
  896MOL0     C18156   5.777   5.738   9.307  0.1302 -0.0458 -0.0644
  896MOL0     N18157   5.638   5.709   9.335  0.0794  0.0273  0.1312
  896MOL0     C18158   5.542   5.798   9.385 -0.5110 -0.0273 -0.5178
  896MOL0     C18159   5.430   5.726   9.404  0.8789 -0.6820  0.7221
  896MOL0     C18160   5.293   5.792   9.438  0.2814  0.2351 -0.1826
  896MOL0     C18161   5.242   5.767   9.575  0.1704  0.2693 -0.9371
  896MOL0     C18162   5.193   5.617   9.594  0.0491 -0.1963  0.2512
  896MOL0     C18163   5.140   5.591   9.729  0.1335 -1.0074 -0.2943
  896MOL0     O18164   5.105   5.449   9.727 -0.9082  1.3961  0.3574
  896MOL0     C18165   4.979   5.428   9.766  0.2164 -0.1940  0.2884
  896MOL0     C18166   4.869   5.466   9.693 -0.0306 -0.1922  0.3384
  896MOL0     C18167   4.743   5.454   9.749  0.1052 -0.4900 -0.5111
  896MOL0     C18168   4.725   5.397   9.882 -0.3516 -0.6495  0.3975
  896MOL0     C18169   4.588   5.372   9.938 -0.4043  0.1555  0.2344
  896MOL0     O18170   4.576   5.306  10.062 -0.1253  0.0542  0.2704
  896MOL0     C18171   4.448   5.278  10.110  0.4284  0.3667  0.7920
  896MOL0     C18172   4.349   5.374  10.117  0.4623  0.3354  1.0326
  896MOL0     C18173   4.214   5.335  10.140  0.0134  0.1540 -0.2846
  896MOL0     C18174   4.186   5.198  10.160  0.1615 -0.0488 -0.6890
  896MOL0     O18175   4.056   5.162  10.198  0.0080 -0.2038 -0.2794
  896MOL0     C18176   4.031   5.043  10.273  0.1830  0.5990  0.0216
  896MOL0     C18177   3.882   5.025  10.279 -0.6053 -0.1066  0.5175
  896MOL0     C18178   3.820   5.087  10.402 -1.0571  0.2434  0.8056
  896MOL0     C18179   3.695   5.017  10.442  0.8447  0.4132  0.1435
  896MOL0     C18180   3.603   5.106  10.520 -0.2223  0.4906  1.0469
  896MOL0     C18181   3.463   5.041  10.547 -0.4116 -0.4356  0.1355
  896MOL0     C18182   3.341   5.136  10.567  0.7010  0.8533 -0.3372
  896MOL0     C18183   3.212   5.061  10.602 -0.0269  0.5751 -0.7104
  896MOL0    Cl18184   3.199   4.989  10.769 -0.2247  0.1900 -0.1429
  896MOL0     C18185   4.288   5.108  10.147  0.5793  0.2689 -0.2370
  896MOL0     C18186   4.419   5.148  10.138  0.0338 -0.5911  0.5478
  896MOL0     O18187   4.504   5.404   9.860  0.3729 -0.1203  0.1517
  896MOL0     C18188   4.842   5.362   9.957 -0.3501 -1.0521 -0.2101
  896MOL0     C18189   4.961   5.384   9.891 -0.8446  0.3091 -1.0085
  896MOL0     N18190   5.461   5.598   9.366 -0.0066  0.0008 -0.2489
  896MOL0     N18191   5.584   5.581   9.321 -0.3329  0.2083 -0.3537
  896MOL0     C18192   6.902   6.007   9.200  0.4824  0.0658  0.0956
  896MOL0     C18193   7.031   5.958   9.193 -0.6629  0.0222 -0.1702
  896MOL0     C18194   7.413   5.722   9.119 -0.5938 -0.2269  0.9605
  896MOL0     C18195   7.533   5.765   9.055  0.4178 -0.6710 -0.2189
  896MOL0     C18196   7.639   5.674   9.038  0.3636  0.3305 -0.5099
  896MOL0     C18197   7.628   5.544   9.080 -1.1720 -0.4437 -0.7067
  896MOL0     O18198   7.714   5.440   9.060  0.0857  0.2957  0.1737
  896MOL0     C18199   7.844   5.485   9.045 -0.0552 -0.0034 -0.1607
  896MOL0     C18200   7.924   5.367   9.077  0.5906  0.7686  1.0371
  896MOL0     C18201   8.071   5.403   9.048  0.4736  0.6693  0.6444
  896MOL0     C18202   8.171   5.316   9.130  0.0418 -0.2400  0.6775
  896MOL0     C18203   8.153   5.179   9.088  0.0351  0.0523  0.0982
  896MOL0     C18204   8.151   5.062   9.053 -0.8925 -0.3610 -0.3017
  896MOL0     C18205   7.515   5.504   9.138  0.3257  0.3804  1.2688
  896MOL0     C18206   7.403   5.589   9.152 -0.1514  0.1498  0.1673
  896MOL0     H18207   6.983   5.628   9.212 -1.1462 -0.7695 -2.6338
  896MOL0     H18208   6.739   5.705   9.209  0.5936 -1.9446  0.8018
  896MOL0     H18209   6.592   5.862   9.358  0.8362 -0.6045 -0.3247
  896MOL0     H18210   6.532   5.812   9.192  0.8508  3.1471 -3.2774
  896MOL0     H18211   6.430   6.052   9.186 -1.1190 -0.8797 -2.0817
  896MOL0     H18212   6.414   6.028   9.364 -3.3338  3.0431 -1.9680
  896MOL0     H18213   6.310   5.801   9.320 -1.1419  0.0498  0.2593
  896MOL0     H18214   6.319   5.830   9.143 -5.5224 -1.9306 -0.0191
  896MOL0     H18215   6.134   5.981   9.335 -2.3283 -0.7083 -0.5475
  896MOL0     H18216   6.189   6.039   9.173 -1.5371 -0.2739 -0.7744
  896MOL0     H18217   6.055   5.769   9.248  0.0589 -2.1014 -1.3425
  896MOL0     H18218   6.061   5.818   9.091 -1.8869 -0.2514  0.4838
  896MOL0     H18219   5.906   6.033   9.166 -0.1296 -0.7207 -0.6701
  896MOL0     H18220   5.926   5.973   9.328  0.3186 -2.9801  0.8412
  896MOL0     H18221   5.726   5.920   9.201  1.5872  1.8783  2.5208
  896MOL0     H18222   5.824   5.811   9.101  0.2431  1.3357 -0.4193
  896MOL0     H18223   5.813   5.763   9.408  0.6391  0.7420 -0.4278
  896MOL0     H18224   5.825   5.649   9.267  0.2632 -0.5704  1.1897
  896MOL0     H18225   5.543   5.906   9.377 -4.4801  0.2119  0.2381
  896MOL0     H18226   5.211   5.770   9.369 -1.4891  0.9115  1.5921
  896MOL0     H18227   5.308   5.899   9.423 -0.7380  0.5562  0.8535
  896MOL0     H18228   5.161   5.840   9.573 -0.3789 -0.1767  1.3155
  896MOL0     H18229   5.317   5.791   9.651  0.2892 -2.1885 -0.1990
  896MOL0     H18230   5.121   5.581   9.520 -0.7071 -2.5206  2.0211
  896MOL0     H18231   5.286   5.562   9.579  1.3808  1.7911  0.7344
  896MOL0     H18232   5.059   5.657   9.761  1.5980  0.4795  0.5031
  896MOL0     H18233   5.217   5.602   9.806 -1.7135  1.1597  1.4062
  896MOL0     H18234   4.900   5.504   9.596 -1.8358 -3.9251 -1.9660
  896MOL0     H18235   4.649   5.485   9.704 -1.4035 -0.5124  2.4128
  896MOL0     H18236   4.381   5.472  10.085  0.6500 -0.9325 -3.3738
  896MOL0     H18237   4.146   5.420  10.145 -1.1950 -0.8113 -0.0686
  896MOL0     H18238   4.081   5.043  10.371  0.2119 -3.9530  0.2285
  896MOL0     H18239   4.068   4.952  10.225 -1.0184  2.3116 -4.5917
  896MOL0     H18240   3.866   4.917  10.282  3.9112 -0.9874  1.9152
  896MOL0     H18241   3.846   5.079  10.191  0.5704  2.1125  1.3196
  896MOL0     H18242   3.808   5.193  10.376  1.4322  0.1515 -1.1473
  896MOL0     H18243   3.887   5.078  10.488  0.7065  0.1244 -0.5154
  896MOL0     H18244   3.639   4.983  10.354 -2.2383  1.3481  1.5970
  896MOL0     H18245   3.714   4.922  10.493 -1.5230 -1.4353 -2.0874
  896MOL0     H18246   3.595   5.202  10.469  2.0447  0.2378  0.1009
  896MOL0     H18247   3.646   5.126  10.618 -0.6431 -0.9008  1.5471
  896MOL0     H18248   3.469   4.972  10.632  0.2482  0.1862  0.6027
  896MOL0     H18249   3.442   4.978  10.460 -0.8500  1.1735 -0.9643
  896MOL0     H18250   3.362   5.210  10.645 -0.4939 -2.4736  3.5204
  896MOL0     H18251   3.333   5.173  10.465  1.6584  1.0081 -0.3641
  896MOL0     H18252   3.196   4.979  10.532  2.0585  0.4860 -1.1555
  896MOL0     H18253   3.135   5.138  10.595 -0.5609 -0.0112 -1.5031
  896MOL0     H18254   4.281   5.001  10.160 -1.6579  0.2234 -1.3732
  896MOL0     H18255   4.504   5.081  10.131 -0.0967 -0.6709 -0.5738
  896MOL0     H18256   4.842   5.345  10.065  1.1586 -1.5105 -0.2644
  896MOL0     H18257   5.048   5.381   9.956 -0.9364 -3.3464 -0.8380
  896MOL0     H18258   6.878   6.113   9.196 -1.4033 -0.3693 -1.6424
  896MOL0     H18259   7.123   6.015   9.198  0.6406 -2.0429  1.6183
  896MOL0     H18260   7.544   5.863   9.011 -0.1553  1.2650  3.5027
  896MOL0     H18261   7.723   5.709   8.979  0.9985  0.7183  0.5933
  896MOL0     H18262   7.877   5.566   9.112 -2.9038  0.6635  0.5431
  896MOL0     H18263   7.853   5.519   8.942 -0.4817  2.5530  0.5684
  896MOL0     H18264   7.922   5.337   9.182  4.8409  0.5994  1.2321
  896MOL0     H18265   7.898   5.282   9.014 -0.0745  0.0586  2.2424
  896MOL0     H18266   8.081   5.509   9.073 -1.1916  0.9837  0.1336
  896MOL0     H18267   8.085   5.371   8.944 -0.2354 -1.1360  1.0617
  896MOL0     H18268   8.272   5.341   9.098 -0.5067  2.5013  0.8591
  896MOL0     H18269   8.168   5.325   9.239  1.4183  0.9861  0.6467
  896MOL0     H18270   8.152   4.955   9.041  0.4285 -0.1227 -3.0517
  896MOL0     H18271   7.489   5.404   9.171  0.6651  0.6681  2.4482
  896MOL0     H18272   7.311   5.540   9.181 -0.5707 -0.6944 -2.3652
  897MOL0     O18273   7.897  10.155   7.035  0.6834  0.0815 -0.3148
  897MOL0     C18274   7.892  10.192   6.923 -0.6749  0.1286 -0.3995
  897MOL0     O18275   7.827  10.307   6.883 -0.4729 -0.4081 -0.0566
  897MOL0     C18276   7.792  10.399   6.973  0.1424 -0.1601 -1.1492
  897MOL0     C18277   7.676  10.474   6.938 -0.1800 -0.0603  0.7059
  897MOL0     C18278   7.611  10.559   7.026  0.3296 -0.0840 -0.0237
  897MOL0     C18279   7.667  10.589   7.149 -0.5581  0.8525  0.4315
  897MOL0     O18280   7.601  10.679   7.220  0.0529 -0.2699 -0.0192
  897MOL0     C18281   7.645  10.816   7.213  0.7881  0.0698 -0.1520
  897MOL0     C18282   7.573  10.894   7.321 -0.5749  0.6406  0.0412
  897MOL0     C18283   7.606  11.043   7.298  0.5076  0.3533  0.1986
  897MOL0     C18284   7.620  11.115   7.430  0.1956 -0.5309 -0.9259
  897MOL0     C18285   7.624  11.273   7.399  0.4287  0.7476  0.2206
  897MOL0     C18286   7.647  11.347   7.532  0.3930 -0.1706  0.1103
  897MOL0     C18287   7.523  11.364   7.611  1.2887  0.0343  0.7464
  897MOL0     C18288   7.555  11.440   7.735  0.0669  0.7814 -0.4517
  897MOL0     N18289   7.624  11.354   7.826  0.2431  0.5708  0.6338
  897MOL0     C18290   7.759  11.348   7.865  0.0543  0.1119 -0.3802
  897MOL0     C18291   7.765  11.251   7.961  0.7152  0.4562 -0.6396
  897MOL0     C18292   7.881  11.186   8.030 -0.0915 -0.4637  0.5591
  897MOL0     C18293   8.005  11.161   7.957  0.0844  0.3679  0.8085
  897MOL0     C18294   8.089  11.043   8.027  0.9112 -0.3112  0.6337
  897MOL0     C18295   8.228  11.040   7.958  0.2177 -0.2362 -0.4307
  897MOL0     O18296   8.222  11.012   7.818  0.8209 -0.2065  0.2898
  897MOL0     C18297   8.345  10.993   7.759  0.9301 -0.5393  0.0796
  897MOL0     C18298   8.425  10.885   7.784 -0.9378  0.7416  0.6574
  897MOL0     C18299   8.554  10.882   7.725  0.9382 -0.3241  0.4914
  897MOL0     C18300   8.599  10.979   7.635  0.3627 -0.5127 -0.4610
  897MOL0     C18301   8.716  10.960   7.538  0.4943  0.1411 -0.3102
  897MOL0     O18302   8.752  11.058   7.460 -0.0301  0.2931  0.1797
  897MOL0     C18303   8.841  11.011   7.364 -0.0765  0.0727  0.3893
  897MOL0     C18304   8.980  11.016   7.384  0.5986 -0.5947 -0.2741
  897MOL0     C18305   9.061  10.938   7.311  0.0247  0.4379  0.0839
  897MOL0     C18306   9.021  10.861   7.198  0.1311 -0.3527  1.7784
  897MOL0     O18307   9.116  10.809   7.109 -0.2516 -0.0954  0.2546
  897MOL0     C18308   9.083  10.801   6.968  0.0021 -0.6757  0.1700
  897MOL0     C18309   9.181  10.713   6.897  1.4394  0.2599  0.1342
  897MOL0     C18310   9.320  10.783   6.891  0.2410  0.0718  0.1326
  897MOL0     C18311   9.417  10.713   6.802  0.3529 -0.5822 -0.8881
  897MOL0     C18312   9.562  10.771   6.831  0.1924 -0.6299 -0.4301
  897MOL0     C18313   9.674  10.682   6.780 -0.8405  0.6146 -0.2259
  897MOL0     C18314   9.707  10.569   6.874  0.4850  0.2669  0.1085
  897MOL0     C18315   9.833  10.483   6.817  1.4395 -0.2300 -0.5502
  897MOL0    Cl18316   9.890  10.360   6.924 -0.2229  0.3222 -0.9903
  897MOL0     C18317   8.880  10.870   7.164 -0.4517  0.0498 -0.2540
  897MOL0     C18318   8.794  10.944   7.245  0.3130 -0.2858 -0.3484
  897MOL0     O18319   8.766  10.846   7.525  0.8383  0.6627  0.5314
  897MOL0     C18320   8.517  11.094   7.614  0.1818  0.5122 -0.3220
  897MOL0     C18321   8.384  11.102   7.675 -1.0717 -0.1134 -0.3063
  897MOL0     N18322   7.631  11.206   7.982 -0.2895 -0.3777  0.6239
  897MOL0     N18323   7.556  11.259   7.896  0.3854 -0.3542 -0.1247
  897MOL0     C18324   7.786  10.529   7.180 -0.2836  0.4728  0.6012
  897MOL0     C18325   7.850  10.434   7.095  0.1778 -1.5805  0.1569
  897MOL0     C18326   7.966  10.116   6.824 -0.3298  0.3276  0.7868
  897MOL0     C18327   8.012   9.991   6.842  0.0022  0.0554  0.5026
  897MOL0     C18328   8.082   9.924   6.753  0.2207  0.4417  0.2182
  897MOL0     C18329   8.104   9.987   6.633 -0.8386 -0.2861  0.2612
  897MOL0     O18330   8.178   9.905   6.548  0.3293 -0.4061  0.1449
  897MOL0     C18331   8.219   9.955   6.426 -0.7627  0.0642  0.4868
  897MOL0     C18332   8.287   9.846   6.340  0.3323  0.7054  0.6209
  897MOL0     C18333   8.191   9.731   6.293 -0.2865 -0.8608  0.6716
  897MOL0     C18334   8.138   9.748   6.152 -0.9204 -1.6122 -0.0827
  897MOL0     C18335   8.059   9.875   6.135 -0.0159 -1.2802 -0.3414
  897MOL0     C18336   8.010   9.982   6.105 -0.2712 -0.3004 -0.1311
  897MOL0     C18337   8.072  10.122   6.604 -0.5263  0.1834 -0.4891
  897MOL0     C18338   7.998  10.186   6.704  0.1592  0.0002  0.4521
  897MOL0     H18339   7.639  10.457   6.838  2.6659 -1.0146 -0.2838
  897MOL0     H18340   7.532  10.611   6.972  0.0456 -1.4525 -0.9757
  897MOL0     H18341   7.611  10.852   7.115 -1.3050 -2.8126 -0.6158
  897MOL0     H18342   7.754  10.816   7.218  0.9238 -0.4547 -2.3163
  897MOL0     H18343   7.613  10.863   7.418 -0.1198 -0.4879 -0.4973
  897MOL0     H18344   7.466  10.871   7.319 -0.4952 -0.0950  2.1658
  897MOL0     H18345   7.524  11.083   7.237  2.0387  2.9825 -0.3063
  897MOL0     H18346   7.689  11.066   7.231 -0.7422 -0.4701 -1.7202
  897MOL0     H18347   7.542  11.086   7.501  0.6188  0.2996 -0.0901
  897MOL0     H18348   7.711  11.072   7.473  0.2360 -0.9390 -1.4155
  897MOL0     H18349   7.528  11.295   7.351 -0.4099 -2.9030 -0.1286
  897MOL0     H18350   7.708  11.293   7.331 -2.4738  2.1035 -3.2831
  897MOL0     H18351   7.681  11.448   7.508  0.8974 -0.4816 -0.5085
  897MOL0     H18352   7.724  11.291   7.585 -0.9697  0.7923  3.3150
  897MOL0     H18353   7.451  11.427   7.558 -1.1592 -0.4331  3.3186
  897MOL0     H18354   7.471  11.269   7.628  0.3855 -0.6019 -4.0854
  897MOL0     H18355   7.468  11.481   7.788 -1.0243  2.3322 -3.2322
  897MOL0     H18356   7.620  11.523   7.706  1.8043 -0.2638  0.2796
  897MOL0     H18357   7.836  11.413   7.826  0.2379  0.0478 -0.1238
  897MOL0     H18358   7.836  11.099   8.078 -3.3660  1.0992  0.6133
  897MOL0     H18359   7.913  11.253   8.111 -0.0344 -0.1025  0.2455
  897MOL0     H18360   8.063  11.254   7.951 -2.5194  1.9975 -1.5408
  897MOL0     H18361   7.976  11.132   7.856  0.0171  1.7310  0.4103
  897MOL0     H18362   8.103  11.065   8.134  2.3185  3.1731 -0.1516
  897MOL0     H18363   8.032  10.951   8.012 -4.4226  1.9562  4.0039
  897MOL0     H18364   8.283  10.961   8.011  0.9335  0.6156  0.1182
  897MOL0     H18365   8.276  11.135   7.980 -0.3895 -0.0290  0.0268
  897MOL0     H18366   8.392  10.798   7.840 -1.3927  0.8191  0.5086
  897MOL0     H18367   8.630  10.805   7.739  0.9916 -0.2938  0.3761
  897MOL0     H18368   9.013  11.073   7.470 -0.7143  0.2563 -0.3140
  897MOL0     H18369   9.169  10.942   7.328  0.0656 -1.4238  0.4826
  897MOL0     H18370   9.083  10.902   6.925  1.2693 -0.3973  0.7983
  897MOL0     H18371   8.985  10.753   6.956  0.7947 -2.3653  0.0688
  897MOL0     H18372   9.149  10.698   6.793  3.7879 -0.2502 -0.5777
  897MOL0     H18373   9.192  10.613   6.940 -2.4803 -1.3192 -1.9882
  897MOL0     H18374   9.353  10.764   6.994 -4.3809 -4.2671  1.2235
  897MOL0     H18375   9.311  10.890   6.871 -4.6023 -0.1291  0.1086
  897MOL0     H18376   9.411  10.606   6.820  1.1521 -0.7006 -1.2745
  897MOL0     H18377   9.388  10.722   6.697  1.8029 -0.8362 -1.3407
  897MOL0     H18378   9.582  10.798   6.935 -1.8827  0.6217 -0.2994
  897MOL0     H18379   9.574  10.867   6.780 -2.3315 -1.2467 -2.4209
  897MOL0     H18380   9.764  10.745   6.789 -1.1033  1.0459 -0.5776
  897MOL0     H18381   9.662  10.663   6.673  0.9359  3.4542 -1.0480
  897MOL0     H18382   9.722  10.606   6.975  1.0109 -2.1841  1.0094
  897MOL0     H18383   9.628  10.493   6.880  0.4385  0.2260 -0.8763
  897MOL0     H18384   9.918  10.551   6.805  0.4095  1.6910  1.8648
  897MOL0     H18385   9.808  10.429   6.726 -0.3985 -2.8844  1.3959
  897MOL0     H18386   8.836  10.819   7.079  0.0180  1.8760 -1.6619
  897MOL0     H18387   8.689  10.949   7.217  0.4790 -0.9521 -1.1351
  897MOL0     H18388   8.549  11.150   7.527  1.3992 -0.0418 -0.2527
  897MOL0     H18389   8.326  11.190   7.652 -0.2968  1.2490  2.5324
  897MOL0     H18390   7.824  10.561   7.276  0.6699 -2.1250  1.1506
  897MOL0     H18391   7.941  10.384   7.128  0.6263 -0.5177  0.5764
  897MOL0     H18392   7.984   9.942   6.935  0.0946 -2.9185 -0.9125
  897MOL0     H18393   8.118   9.824   6.776 -1.3249 -0.3444 -0.6581
  897MOL0     H18394   8.285  10.040   6.444  3.4603 -2.2081 -2.6594
  897MOL0     H18395   8.133   9.993   6.371  0.3482 -0.6750 -1.8620
  897MOL0     H18396   8.325   9.899   6.253 -4.2004 -0.7002 -2.5660
  897MOL0     H18397   8.380   9.809   6.385  1.0732  4.4183  2.5192
  897MOL0     H18398   8.100   9.722   6.354 -1.8074  2.6709 -0.8348
  897MOL0     H18399   8.243   9.634   6.293 -0.1798 -0.8256  2.1665
  897MOL0     H18400   8.219   9.747   6.078 -0.4419 -1.2755  0.4360
  897MOL0     H18401   8.074   9.661   6.133  0.2464 -2.3118 -0.9958
  897MOL0     H18402   7.969  10.074   6.070 -0.8910 -1.2818 -2.1110
  897MOL0     H18403   8.110  10.165   6.512  0.7482 -1.0980 -0.5958
  897MOL0     H18404   7.978  10.289   6.678  1.5549 -0.0353 -0.8910
  898MOL0     O18405   3.211  10.363  10.787  0.4425  0.1865  0.3709
  898MOL0     C18406   3.284  10.444  10.730 -0.6469 -0.4187  0.8320
  898MOL0     O18407   3.242  10.556  10.666 -0.2536  0.3522  0.2970
  898MOL0     C18408   3.112  10.598  10.670 -0.3605  0.8469  0.9485
  898MOL0     C18409   3.049  10.668  10.561 -0.0013  0.1779  0.5170
  898MOL0     C18410   2.917  10.711  10.567  0.3537  0.2141  0.5115
  898MOL0     C18411   2.839  10.683  10.680  1.4814  0.1794  0.4679
  898MOL0     O18412   2.706  10.728  10.698 -0.2226 -0.5201 -0.2455
  898MOL0     C18413   2.645  10.806  10.597  0.3017 -0.3487  0.3059
  898MOL0     C18414   2.676  10.951  10.609 -0.2433  0.4047 -0.1804
  898MOL0     C18415   2.578  11.026  10.512  0.4659 -0.3195  0.0819
  898MOL0     C18416   2.592  11.180  10.514 -0.3342  0.5144 -0.1851
  898MOL0     C18417   2.524  11.230  10.382 -0.4352  0.6597  0.6705
  898MOL0     C18418   2.531  11.385  10.376 -0.4518  0.3601  0.2196
  898MOL0     C18419   2.470  11.434  10.248 -0.4768 -0.3929  0.5627
  898MOL0     C18420   2.453  11.588  10.252  0.6439  0.7849  0.8528
  898MOL0     N18421   2.585  11.660  10.244  0.5897 -0.0225 -0.2740
  898MOL0     C18422   2.615  11.747  10.139  0.5926 -0.0128  0.0468
  898MOL0     C18423   2.731  11.794  10.189 -0.1893  0.7084 -0.0519
  898MOL0     C18424   2.803  11.894  10.112  0.3730 -0.5658 -0.2519
  898MOL0     C18425   2.813  12.034  10.182  0.4001  0.9883  0.1164
  898MOL0     C18426   2.681  12.116  10.200 -0.0067  0.4769  0.2424
  898MOL0     C18427   2.564  12.073  10.290  0.5366 -0.0714 -0.3473
  898MOL0     O18428   2.466  12.031  10.192  0.4624  0.4275 -0.2596
  898MOL0     C18429   2.339  11.993  10.230 -0.6921 -0.3560 -0.1618
  898MOL0     C18430   2.299  11.968  10.353  0.7822  0.3111  0.3031
  898MOL0     C18431   2.170  11.909  10.379  0.4640  0.6412 -0.3601
  898MOL0     C18432   2.087  11.877  10.275  0.2715 -0.9204  0.3999
  898MOL0     C18433   1.948  11.804  10.290  0.2340  0.4648 -0.7487
  898MOL0     O18434   1.864  11.800  10.188  0.3189  0.0921  0.6801
  898MOL0     C18435   1.733  11.757  10.205  0.0746 -0.9247  0.8264
  898MOL0     C18436   1.700  11.636  10.265 -0.0485 -0.2098  0.7894
  898MOL0     C18437   1.564  11.592  10.271 -0.6683 -0.5790 -0.4006
  898MOL0     C18438   1.452  11.674  10.238 -0.9881 -0.4838  0.4968
  898MOL0     O18439   1.327  11.628  10.229  0.1720 -0.0206  0.2822
  898MOL0     C18440   1.230  11.722  10.269 -0.8306  0.2644  0.1172
  898MOL0     C18441   1.103  11.648  10.278  0.4957  0.3161 -0.1786
  898MOL0     C18442   1.071  11.559  10.155 -0.1062  0.4485 -0.2828
  898MOL0     C18443   0.928  11.509  10.168  0.5385  0.8451  0.4415
  898MOL0     C18444   0.877  11.435  10.039 -0.1531 -0.0423 -0.1325
  898MOL0     C18445   0.722  11.403  10.052 -0.2923 -0.5057 -0.9429
  898MOL0     C18446   0.667  11.371   9.912 -0.1687  0.5133 -0.6301
  898MOL0     C18447   0.510  11.380   9.901  0.1433  0.9144  0.0980
  898MOL0    Cl18448   0.461  11.347   9.737 -0.5789  0.0915 -0.0490
  898MOL0     C18449   1.490  11.794  10.169  0.2240  0.0786 -0.3183
  898MOL0     C18450   1.624  11.840  10.164  0.0869  0.6041 -0.0743
  898MOL0     O18451   1.931  11.760  10.406  0.4890 -0.1935 -0.0181
  898MOL0     C18452   2.126  11.914  10.142  0.0078 -0.1674  0.1027
  898MOL0     C18453   2.251  11.968  10.121 -0.6554  0.1655 -0.3787
  898MOL0     N18454   2.763  11.755  10.314  0.1825  0.8762 -0.5954
  898MOL0     N18455   2.668  11.683  10.356  0.5105  0.7003 -0.5627
  898MOL0     C18456   2.902  10.633  10.793 -0.0557 -0.0298  0.2605
  898MOL0     C18457   3.034  10.580  10.783 -0.1412  0.0749 -0.1971
  898MOL0     C18458   3.435  10.422  10.740  0.4976  0.0236 -0.3294
  898MOL0     C18459   3.522  10.490  10.656 -0.3624 -0.2607 -0.9464
  898MOL0     C18460   3.660  10.465  10.673 -0.2567  0.0826 -0.2178
  898MOL0     C18461   3.713  10.368  10.763  0.1338 -0.5373 -0.5877
  898MOL0     O18462   3.852  10.357  10.777 -0.0469  0.9353  0.4997
  898MOL0     C18463   3.906  10.297  10.899 -0.3002  0.1129 -1.1071
  898MOL0     C18464   3.856  10.367  11.029  0.4979 -0.2795 -0.9926
  898MOL0     C18465   3.976  10.381  11.126 -0.4151 -0.1144 -0.3027
  898MOL0     C18466   3.929  10.409  11.267  0.6620  0.0388  0.4745
  898MOL0     C18467   4.032  10.386  11.359 -0.9070  0.1752  0.1984
  898MOL0     C18468   4.139  10.380  11.414 -0.0211  0.0604  0.2865
  898MOL0     C18469   3.618  10.314  10.847  0.0790  0.0163  0.2402
  898MOL0     C18470   3.482  10.325  10.828  0.0893 -0.6395 -0.3451
  898MOL0     H18471   3.106  10.697  10.473 -1.6213  2.0351  0.0212
  898MOL0     H18472   2.887  10.766  10.479  0.7069 -0.9196 -0.3326
  898MOL0     H18473   2.536  10.798  10.595  0.2047  0.9270 -0.8283
  898MOL0     H18474   2.675  10.759  10.503  0.2399  1.5642 -0.7145
  898MOL0     H18475   2.780  10.963  10.577 -0.6485 -0.4905 -1.9159
  898MOL0     H18476   2.676  11.004  10.705  4.2954 -2.4745  1.7634
  898MOL0     H18477   2.481  11.009  10.559  0.4037  0.2850  0.1844
  898MOL0     H18478   2.565  10.983  10.413  2.1549 -0.3304 -0.1640
  898MOL0     H18479   2.534  11.205  10.603 -0.7917 -3.6309  0.9028
  898MOL0     H18480   2.696  11.212  10.520 -0.5376  0.9849  1.1360
  898MOL0     H18481   2.420  11.196  10.391  0.9111 -3.3142  4.4983
  898MOL0     H18482   2.565  11.192  10.288 -1.3734  1.4754 -0.0938
  898MOL0     H18483   2.638  11.407  10.373 -0.2949 -0.0974 -4.1173
  898MOL0     H18484   2.482  11.431  10.462 -0.7582 -0.0886  0.2936
  898MOL0     H18485   2.540  11.401  10.170 -0.2172 -2.2093  1.5200
  898MOL0     H18486   2.370  11.392  10.232 -0.0377 -1.0829 -0.5395
  898MOL0     H18487   2.389  11.617  10.336 -0.1730  0.0779  0.4919
  898MOL0     H18488   2.397  11.619  10.164  2.5442  1.5776 -0.1438
  898MOL0     H18489   2.575  11.763  10.039  1.2076  0.5394 -0.1181
  898MOL0     H18490   2.749  11.899  10.017 -1.3294 -2.6561  0.5203
  898MOL0     H18491   2.906  11.861  10.103  0.4875 -2.3705  4.8547
  898MOL0     H18492   2.873  12.103  10.122  1.2487  0.6840  0.6046
  898MOL0     H18493   2.858  12.032  10.282  2.0234  0.5543 -0.6007
  898MOL0     H18494   2.715  12.212  10.240  0.3301  1.4197 -2.1553
  898MOL0     H18495   2.642  12.134  10.099 -1.0883  0.0582  0.5620
  898MOL0     H18496   2.528  12.161  10.345  1.0766 -0.8180  1.2443
  898MOL0     H18497   2.585  11.994  10.361 -1.0500 -1.2436 -1.1222
  898MOL0     H18498   2.361  11.978  10.442  1.3322 -2.0443  0.2393
  898MOL0     H18499   2.122  11.892  10.475 -0.2382  0.2180 -0.7744
  898MOL0     H18500   1.780  11.566  10.289 -1.2372 -1.3196  1.6366
  898MOL0     H18501   1.530  11.499  10.315 -0.3243  0.9841  3.5101
  898MOL0     H18502   1.219  11.801  10.194  2.1295 -1.5560 -2.4911
  898MOL0     H18503   1.258  11.768  10.364  0.8090 -0.5297  0.0552
  898MOL0     H18504   1.023  11.722  10.284 -0.5000 -0.6765 -0.7935
  898MOL0     H18505   1.124  11.585  10.365 -0.4361 -0.2045 -0.3119
  898MOL0     H18506   1.151  11.486  10.139  2.0291  2.1575  1.8832
  898MOL0     H18507   1.090  11.615  10.063  1.8672  3.0497  1.5722
  898MOL0     H18508   0.924  11.450  10.260 -2.9720  1.2873  0.7043
  898MOL0     H18509   0.857  11.589  10.191 -1.9174 -1.3936  1.2092
  898MOL0     H18510   0.932  11.340  10.031 -1.4234 -1.2531  3.5621
  898MOL0     H18511   0.899  11.514   9.967  1.4011 -0.5821 -0.2937
  898MOL0     H18512   0.685  11.501  10.085 -0.1761  0.2567 -2.9027
  898MOL0     H18513   0.700  11.326  10.126  0.9209  3.0673  3.5849
  898MOL0     H18514   0.694  11.458   9.851  5.8313  0.1536  0.8544
  898MOL0     H18515   0.718  11.283   9.872  0.3200  1.7986 -3.0469
  898MOL0     H18516   0.482  11.484   9.918 -0.3368  0.7463  0.3278
  898MOL0     H18517   0.461  11.313   9.972  0.9838 -1.1173 -1.1354
  898MOL0     H18518   1.408  11.862  10.144 -0.2582 -0.4901 -0.3189
  898MOL0     H18519   1.649  11.943  10.139  1.9730  0.6827  1.7965
  898MOL0     H18520   2.057  11.886  10.063  0.7229 -0.1529 -0.5420
  898MOL0     H18521   2.276  12.002  10.021 -0.7372  1.9780  0.1724
  898MOL0     H18522   2.850  10.622  10.887  2.8234 -2.5549  1.7532
  898MOL0     H18523   3.077  10.539  10.874 -3.5155  0.9939  2.0253
  898MOL0     H18524   3.487  10.565  10.585 -0.9936  3.4916  2.8806
  898MOL0     H18525   3.734  10.514  10.610  1.1491 -0.2156  1.1409
  898MOL0     H18526   4.015  10.310  10.908  0.3682 -4.2476 -0.9464
  898MOL0     H18527   3.899  10.188  10.899  3.1680 -0.2315 -0.6876
  898MOL0     H18528   3.815  10.465  11.004 -0.4404 -0.3881  0.0834
  898MOL0     H18529   3.772  10.318  11.079  0.7218  0.3387  0.0011
  898MOL0     H18530   4.037  10.464  11.089 -3.0109  2.3879  0.6821
  898MOL0     H18531   4.039  10.292  11.126 -0.5358 -0.2035 -0.8630
  898MOL0     H18532   3.911  10.516  11.277  1.0573  0.0779  0.8380
  898MOL0     H18533   3.842  10.351  11.298  0.5038 -0.9468 -1.6419
  898MOL0     H18534   4.238  10.369  11.454  0.0829  1.6512  0.5191
  898MOL0     H18535   3.642  10.245  10.927 -3.1069  1.4195  2.6244
  898MOL0     H18536   3.416  10.268  10.893 -0.8434 -0.6769 -1.2999
  899MOL0     O18537   0.799   0.188  11.231  0.5054  0.5060 -0.2021
  899MOL0     C18538   0.823   0.098  11.146  0.4545  0.2077 -0.2898
  899MOL0     O18539   0.947   0.041  11.109  0.5552 -0.2838  0.3927
  899MOL0     C18540   1.064   0.112  11.134  0.9011  0.9311  1.1623
  899MOL0     C18541   1.177   0.029  11.165  0.3676  0.5485  0.9157
  899MOL0     C18542   1.306   0.077  11.193  0.4061 -0.1060  0.6888
  899MOL0     C18543   1.321   0.215  11.193  0.1304 -0.2299  0.2263
  899MOL0     O18544   1.434   0.274  11.240  0.5275  0.4099 -0.2042
  899MOL0     C18545   1.557   0.257  11.167  0.6333  0.2130 -0.0180
  899MOL0     C18546   1.651   0.379  11.197  0.4894  0.5826  0.6734
  899MOL0     C18547   1.643   0.408  11.355 -0.3972  0.0180  0.8860
  899MOL0     C18548   1.761   0.504  11.376  0.3630 -0.3797  0.2532
  899MOL0     C18549   1.765   0.571  11.516 -0.1490  0.3163  0.0215
  899MOL0     C18550   1.759   0.464  11.624 -0.2968 -0.6856  0.7567
  899MOL0     C18551   1.832   0.510  11.750 -0.4768  0.3370  0.3323
  899MOL0     C18552   1.759   0.625  11.826  0.3797 -0.0257 -0.5130
  899MOL0     N18553   1.628   0.572  11.876 -0.0227 -0.4963  0.3979
  899MOL0     C18554   1.608   0.463  11.953  0.0741 -0.3730  0.7771
  899MOL0     C18555   1.473   0.451  11.955  0.0829 -0.2202  0.0208
  899MOL0     C18556   1.399   0.351  12.046 -0.4054 -1.0669  0.0627
  899MOL0     C18557   1.269   0.277  11.999  0.3459  0.2093 -1.0258
  899MOL0     C18558   1.252   0.144  12.067 -0.3711  0.3158  0.2630
  899MOL0     C18559   1.116   0.079  12.047  0.4304  0.0539 -0.6914
  899MOL0     O18560   1.007   0.156  12.107  0.1374  0.3024  0.1160
  899MOL0     C18561   0.885   0.102  12.132  0.5012 -0.2899  0.2609
  899MOL0     C18562   0.784   0.191  12.173  0.6963  0.4648 -0.3119
  899MOL0     C18563   0.655   0.142  12.202 -0.1152 -0.1836 -0.6410
  899MOL0     C18564   0.615   0.008  12.156  0.1749 -1.3375  1.2440
  899MOL0     C18565   0.479  -0.028  12.164  0.7666  0.7965  1.2124
  899MOL0     O18566   0.390   0.060  12.225  0.3062  0.8301 -0.1247
  899MOL0     C18567   0.260   0.014  12.241 -0.4786  0.7342  0.4922
  899MOL0     C18568   0.213  -0.052  12.361  0.4908 -0.2004 -0.6424
  899MOL0     C18569   0.085  -0.106  12.363 -1.0411 -0.4237 -0.3059
  899MOL0     C18570  -0.001  -0.101  12.253  0.3008 -0.1108 -0.0903
  899MOL0     O18571  -0.137  -0.136  12.260 -0.7583 -0.0587 -0.5020
  899MOL0     C18572  -0.199  -0.171  12.387 -0.2831 -0.5429  0.8790
  899MOL0     C18573  -0.200  -0.322  12.395 -0.8196  0.0024 -0.0149
  899MOL0     C18574  -0.245  -0.387  12.263 -0.7475 -0.4651 -0.8232
  899MOL0     C18575  -0.326  -0.511  12.287 -0.2229 -0.5391 -0.2597
  899MOL0     C18576  -0.377  -0.568  12.150  0.8450 -0.2727  0.2390
  899MOL0     C18577  -0.499  -0.653  12.171 -0.6760 -0.6817  0.2427
  899MOL0     C18578  -0.579  -0.684  12.037  0.3140 -0.8464 -0.5169
  899MOL0     C18579  -0.695  -0.772  12.063 -0.0458 -0.2079 -0.4805
  899MOL0    Cl18580  -0.657  -0.921  12.137 -0.2541  0.3367 -0.0058
  899MOL0     C18581   0.046  -0.048  12.133 -0.2090  0.1937 -0.1561
  899MOL0     C18582   0.172   0.010  12.129  0.7623  0.7890  0.0298
  899MOL0     O18583   0.447  -0.137  12.116 -0.7757  0.8383  0.0047
  899MOL0     C18584   0.713  -0.071  12.111 -0.3580  0.4303  0.1007
  899MOL0     C18585   0.847  -0.029  12.096 -0.4744 -0.0951  0.0459
  899MOL0     N18586   1.414   0.539  11.869 -0.1531 -0.6071  0.3072
  899MOL0     N18587   1.509   0.617  11.820 -0.2156  0.1309 -0.4019
  899MOL0     C18588   1.210   0.301  11.157  0.0162 -0.2537 -0.1612
  899MOL0     C18589   1.087   0.248  11.125  0.0241  0.0081 -0.3311
  899MOL0     C18590   0.708   0.052  11.065 -0.6002 -0.0949  0.0327
  899MOL0     C18591   0.730   0.032  10.933 -0.5280  0.2791  0.3671
  899MOL0     C18592   0.621   0.007  10.849  1.0574  0.5028  0.1743
  899MOL0     C18593   0.496  -0.014  10.901 -0.3400 -0.3079 -0.9900
  899MOL0     O18594   0.409  -0.056  10.816  0.0448 -1.0080 -0.3892
  899MOL0     C18595   0.337  -0.174  10.862 -0.0182 -0.3955 -0.6546
  899MOL0     C18596   0.292  -0.235  10.726  0.3220 -1.0533  0.4767
  899MOL0     C18597   0.177  -0.167  10.662  0.1701 -0.0838 -0.2981
  899MOL0     C18598   0.146  -0.213  10.517 -0.0303 -0.1195 -0.0103
  899MOL0     C18599   0.106  -0.357  10.522  0.2055  0.4531  0.1303
  899MOL0     C18600   0.083  -0.476  10.521  0.4853 -1.0893  0.2214
  899MOL0     C18601   0.478  -0.006  11.035 -0.2459  0.0707 -0.6208
  899MOL0     C18602   0.583   0.032  11.120 -0.1311  1.1831 -0.7285
  899MOL0     H18603   1.170  -0.079  11.171 -0.4816  0.4487 -1.0875
  899MOL0     H18604   1.384   0.009  11.226  1.9426  1.5655  0.6040
  899MOL0     H18605   1.545   0.249  11.058 -1.3995  0.4465  0.1591
  899MOL0     H18606   1.620   0.175  11.202  2.1652  1.5301  0.4617
  899MOL0     H18607   1.617   0.465  11.138  0.2033  0.2902  0.4061
  899MOL0     H18608   1.748   0.345  11.161  0.4174  4.5629 -4.4197
  899MOL0     H18609   1.655   0.322  11.421 -0.3659  0.9831  2.1750
  899MOL0     H18610   1.551   0.455  11.391 -0.4555  0.7503 -0.1591
  899MOL0     H18611   1.855   0.449  11.367  0.1411 -0.6977 -0.1873
  899MOL0     H18612   1.768   0.583  11.301  3.5479  0.0081  0.8249
  899MOL0     H18613   1.690   0.650  11.530 -0.7309  1.0252 -5.0899
  899MOL0     H18614   1.863   0.617  11.531  0.7605 -1.6002  0.1449
  899MOL0     H18615   1.819   0.379  11.589  1.6479  0.7516  0.4200
  899MOL0     H18616   1.659   0.427  11.648 -0.1044 -1.3573  0.5564
  899MOL0     H18617   1.848   0.422  11.813  1.3112 -0.0302 -0.5745
  899MOL0     H18618   1.935   0.538  11.723 -0.6457 -0.9183 -1.8713
  899MOL0     H18619   1.741   0.704  11.753 -2.3986  0.3995  0.5193
  899MOL0     H18620   1.823   0.661  11.908  0.7324 -0.0545 -0.7718
  899MOL0     H18621   1.689   0.409  12.000  1.0841  0.7237  0.3502
  899MOL0     H18622   1.380   0.407  12.138 -2.5928 -2.1685  0.3293
  899MOL0     H18623   1.473   0.274  12.069  0.0596 -0.3186  1.1901
  899MOL0     H18624   1.284   0.250  11.894 -0.3029 -2.1504 -0.5771
  899MOL0     H18625   1.191   0.352  12.015  1.2282  0.9401  0.0508
  899MOL0     H18626   1.329   0.076  12.031 -3.0047 -1.6693 -2.0485
  899MOL0     H18627   1.260   0.159  12.175  0.7897  4.6665 -0.2146
  899MOL0     H18628   1.123  -0.015  12.102  0.4314 -0.3290 -1.3422
  899MOL0     H18629   1.096   0.045  11.945 -2.2796 -3.2057  0.7453
  899MOL0     H18630   0.830   0.287  12.195  1.1942  0.3070 -0.6546
  899MOL0     H18631   0.589   0.219  12.240 -0.5758  1.2979 -4.0319
  899MOL0     H18632   0.276  -0.042  12.449 -1.6035 -1.2590  1.0803
  899MOL0     H18633   0.049  -0.141  12.460 -1.8910  1.9671  0.3227
  899MOL0     H18634  -0.303  -0.136  12.383 -0.7411 -1.9090 -1.6658
  899MOL0     H18635  -0.147  -0.118  12.467  2.3788  1.5279 -1.9599
  899MOL0     H18636  -0.260  -0.350  12.481 -1.1938  1.9413  0.3807
  899MOL0     H18637  -0.096  -0.350  12.416 -1.0676 -0.5266  0.5392
  899MOL0     H18638  -0.161  -0.397  12.194  0.4620 -0.3998  0.5966
  899MOL0     H18639  -0.305  -0.316  12.204  0.3982 -0.2528 -1.7629
  899MOL0     H18640  -0.272  -0.587  12.343  1.5108 -1.9719 -3.5907
  899MOL0     H18641  -0.417  -0.485  12.342 -0.9965  1.0435 -2.1505
  899MOL0     H18642  -0.301  -0.619  12.090  0.5267 -0.8466  0.3102
  899MOL0     H18643  -0.406  -0.485  12.086 -1.9218 -0.2541  1.3906
  899MOL0     H18644  -0.571  -0.615  12.244 -1.0047 -3.6532  1.6185
  899MOL0     H18645  -0.467  -0.746  12.218 -2.2699 -0.6452  1.4848
  899MOL0     H18646  -0.613  -0.590  11.993 -0.1565 -0.9403 -0.3585
  899MOL0     H18647  -0.515  -0.737  11.967 -0.3083 -3.0392  0.4876
  899MOL0     H18648  -0.742  -0.802  11.969  2.9110 -1.2894 -1.7190
  899MOL0     H18649  -0.767  -0.718  12.126 -1.6999 -2.0417 -0.6874
  899MOL0     H18650  -0.013  -0.036  12.043  1.0159 -0.9295 -1.1572
  899MOL0     H18651   0.204   0.058  12.037  1.2298 -0.2694 -0.3676
  899MOL0     H18652   0.691  -0.167  12.065  2.3092 -1.2913  2.1077
  899MOL0     H18653   0.905  -0.101  12.040  2.4998  2.8405 -1.0011
  899MOL0     H18654   1.226   0.408  11.167 -3.1650  0.1578  2.5665
  899MOL0     H18655   1.001   0.305  11.091  0.3005  0.0411 -0.9887
  899MOL0     H18656   0.829   0.031  10.889 -0.8069  1.5319 -0.3255
  899MOL0     H18657   0.635  -0.037  10.750  0.2466 -2.1664  1.1450
  899MOL0     H18658   0.250  -0.152  10.925  0.2078  0.8318 -0.7618
  899MOL0     H18659   0.410  -0.241  10.908 -1.2840 -0.7697  0.8992
  899MOL0     H18660   0.379  -0.230  10.659 -0.1887 -0.0043 -0.1303
  899MOL0     H18661   0.270  -0.341  10.739 -1.8054 -0.7301 -0.0606
  899MOL0     H18662   0.204  -0.061  10.658 -2.3157  0.6207 -0.1145
  899MOL0     H18663   0.093  -0.169  10.732 -0.6712 -2.9300 -1.2585
  899MOL0     H18664   0.073  -0.153  10.463 -0.2324  0.2000  0.6128
  899MOL0     H18665   0.239  -0.206  10.460  1.4129 -0.1096  2.2245
  899MOL0     H18666   0.045  -0.577  10.525  0.0015 -0.9125  0.2504
  899MOL0     H18667   0.386  -0.032  11.087  1.1848  0.0210  2.0816
  899MOL0     H18668   0.567   0.036  11.227 -0.3170 -0.7073 -0.6553
  900MOL0     O18669  11.192   3.307   5.450  0.8023  0.1222  0.1885
  900MOL0     C18670  11.251   3.256   5.351 -0.7586 -0.2623  0.2182
  900MOL0     O18671  11.186   3.183   5.255 -0.1182 -0.7086 -1.0183
  900MOL0     C18672  11.051   3.178   5.224  0.1378 -1.2156 -0.0004
  900MOL0     C18673  10.958   3.283   5.250  0.2333  0.8289  0.1975
  900MOL0     C18674  10.821   3.258   5.221  0.2836 -0.9718 -1.4422
  900MOL0     C18675  10.771   3.142   5.178  0.3009  0.4592 -0.0957
  900MOL0     O18676  10.636   3.131   5.169 -0.4782  0.3442 -0.0822
  900MOL0     C18677  10.585   3.039   5.068  0.9521  0.5372  0.0509
  900MOL0     C18678  10.429   3.067   5.039  0.0659 -0.3382 -0.0049
  900MOL0     C18679  10.360   3.058   5.175  1.1168 -0.4487  0.1532
  900MOL0     C18680  10.210   3.087   5.163  0.2595  0.7019 -0.8279
  900MOL0     C18681  10.143   2.966   5.100  0.7332 -0.3923 -0.2161
  900MOL0     C18682   9.990   2.986   5.087 -0.5241 -0.1361 -1.0760
  900MOL0     C18683   9.930   2.856   5.016 -0.3622 -0.0500 -0.3520
  900MOL0     C18684   9.901   2.746   5.121 -0.0431  0.1234 -0.3111
  900MOL0     N18685   9.785   2.778   5.207 -0.7656 -0.2399 -0.9051
  900MOL0     C18686   9.788   2.787   5.343 -0.2678 -0.3976  0.1543
  900MOL0     C18687   9.658   2.783   5.387  0.0088 -0.1984  0.1861
  900MOL0     C18688   9.629   2.759   5.533  0.7285  0.0928  0.6459
  900MOL0     C18689   9.571   2.896   5.584 -0.1254  0.1736  0.3632
  900MOL0     C18690   9.430   2.875   5.648 -0.4622  0.8393 -0.5560
  900MOL0     C18691   9.439   2.808   5.800 -0.3520 -0.5628  0.6800
  900MOL0     O18692   9.559   2.732   5.825 -0.6253 -0.5321 -0.0227
  900MOL0     C18693   9.600   2.710   5.952 -0.2318  0.0928  0.5488
  900MOL0     C18694   9.510   2.713   6.061  0.4491  0.7235  0.6578
  900MOL0     C18695   9.551   2.707   6.192  0.5802 -0.4092 -0.0323
  900MOL0     C18696   9.689   2.689   6.221  0.5774 -1.2004  0.2749
  900MOL0     C18697   9.730   2.686   6.359  0.3893  0.9825  0.1803
  900MOL0     O18698   9.832   2.599   6.383 -0.1624  0.0048 -0.3687
  900MOL0     C18699   9.933   2.627   6.474  0.2804  0.4079  0.7385
  900MOL0     C18700   9.959   2.749   6.547 -0.1224  1.1306 -0.6271
  900MOL0     C18701  10.067   2.764   6.633 -0.2065  0.7364 -1.2213
  900MOL0     C18702  10.163   2.658   6.645 -0.0938 -0.3767  0.1234
  900MOL0     O18703  10.279   2.661   6.715 -0.8955  0.6869  0.5464
  900MOL0     C18704  10.260   2.686   6.856  0.6668 -0.8029  0.2739
  900MOL0     C18705  10.306   2.832   6.904 -0.8065  0.1468 -0.5529
  900MOL0     C18706  10.464   2.846   6.916  0.0718 -0.2048  0.4608
  900MOL0     C18707  10.505   2.987   6.931  0.0566 -0.6282 -0.2460
  900MOL0     C18708  10.661   2.994   6.925  0.1827 -0.3075  0.0801
  900MOL0     C18709  10.729   3.125   6.969 -0.0164  0.3254  0.6563
  900MOL0     C18710  10.722   3.163   7.114  0.5621  0.4212 -0.4253
  900MOL0     C18711  10.786   3.300   7.122  0.4433 -0.3962 -0.5845
  900MOL0    Cl18712  10.667   3.416   7.055 -0.1733 -0.1518  0.1290
  900MOL0     C18713  10.126   2.537   6.584  0.5597  0.2654  0.4297
  900MOL0     C18714  10.015   2.515   6.498  0.1084 -0.7080  0.0026
  900MOL0     O18715   9.671   2.752   6.445  0.5865  0.3902 -0.1439
  900MOL0     C18716   9.775   2.679   6.110  0.2177 -0.3754 -0.1917
  900MOL0     C18717   9.727   2.690   5.974 -0.8659  0.4775 -0.3951
  900MOL0     N18718   9.581   2.777   5.273 -0.1484  0.1755 -0.2423
  900MOL0     N18719   9.653   2.768   5.166  0.2245 -1.2070 -0.3611
  900MOL0     C18720  10.861   3.041   5.157 -0.0454  1.1012 -0.2145
  900MOL0     C18721  11.002   3.063   5.167 -0.3908 -0.0591  0.6633
  900MOL0     C18722  11.396   3.274   5.325 -0.9704 -0.5640 -0.3716
  900MOL0     C18723  11.460   3.219   5.212  0.3753 -0.2036 -0.0462
  900MOL0     C18724  11.596   3.224   5.200 -0.2722  0.0476  0.5778
  900MOL0     C18725  11.674   3.295   5.302  1.4413  0.2825  0.2110
  900MOL0     O18726  11.805   3.325   5.285  0.4816 -0.0334 -0.9346
  900MOL0     C18727  11.877   3.267   5.177 -0.4306  1.2007 -0.8659
  900MOL0     C18728  12.028   3.291   5.198  0.2631  0.2049  1.4414
  900MOL0     C18729  12.112   3.214   5.297 -0.6719 -0.1724  0.7908
  900MOL0     C18730  12.058   3.226   5.443  0.1820 -0.1866 -0.3363
  900MOL0     C18731  12.121   3.148   5.542 -0.3583  0.2305 -0.4680
  900MOL0     C18732  12.172   3.096   5.646  0.8110  0.5835  0.3068
  900MOL0     C18733  11.606   3.355   5.402  0.3945  0.5521  0.4094
  900MOL0     C18734  11.475   3.355   5.411 -0.2796  1.0136 -0.0960
  900MOL0     H18735  10.992   3.381   5.282  3.9526  0.2692 -1.5877
  900MOL0     H18736  10.749   3.334   5.248  1.0514  0.4175 -3.0838
  900MOL0     H18737  10.596   2.935   5.099  2.2676  0.7478  0.3776
  900MOL0     H18738  10.642   3.047   4.975  4.4686  0.1872  1.9816
  900MOL0     H18739  10.405   2.991   4.964  0.3310  0.4036 -0.8595
  900MOL0     H18740  10.413   3.162   4.988  2.2301  0.1225  0.0562
  900MOL0     H18741  10.405   3.121   5.252 -0.7867  0.3856  0.6222
  900MOL0     H18742  10.379   2.956   5.209  5.4124 -0.8132 -2.6156
  900MOL0     H18743  10.153   3.104   5.254 -3.7659  0.5755 -3.1053
  900MOL0     H18744  10.199   3.177   5.103  3.0535  1.1408 -0.8242
  900MOL0     H18745  10.174   2.877   5.155  1.6893  0.2222  0.2591
  900MOL0     H18746  10.182   2.958   4.997  3.0676  0.1862  0.5521
  900MOL0     H18747   9.982   3.075   5.025  1.3198  0.1434 -0.9727
  900MOL0     H18748   9.947   3.002   5.186  3.0667  0.0543  0.6267
  900MOL0     H18749   9.844   2.894   4.961  2.9559  4.5220 -3.0323
  900MOL0     H18750  10.008   2.824   4.947  0.3682 -0.3075  0.5791
  900MOL0     H18751   9.981   2.731   5.194 -0.4729  2.1783  0.6634
  900MOL0     H18752   9.873   2.651   5.074 -3.3086 -0.4739  2.4620
  900MOL0     H18753   9.884   2.790   5.394  1.7807  0.2559 -3.4711
  900MOL0     H18754   9.720   2.743   5.590  1.5785  3.2990  0.4130
  900MOL0     H18755   9.553   2.682   5.547 -1.7604  1.7063 -2.4665
  900MOL0     H18756   9.562   2.962   5.497  0.1262 -1.0499 -0.6103
  900MOL0     H18757   9.635   2.945   5.659 -0.2456  0.9120 -0.0126
  900MOL0     H18758   9.364   2.962   5.642 -1.4064  0.0470 -4.1756
  900MOL0     H18759   9.368   2.809   5.587 -0.1629  1.6644 -1.7869
  900MOL0     H18760   9.356   2.741   5.824  0.5542 -2.1458 -0.4336
  900MOL0     H18761   9.443   2.902   5.856  3.8087  1.4236 -2.4297
  900MOL0     H18762   9.403   2.713   6.047  0.6818  1.4857 -1.5975
  900MOL0     H18763   9.474   2.705   6.268  0.3892  0.9800 -0.1603
  900MOL0     H18764   9.890   2.833   6.543 -1.1755  0.2460 -2.2476
  900MOL0     H18765  10.075   2.854   6.694 -1.3595  1.6009 -2.3074
  900MOL0     H18766  10.309   2.605   6.911  0.9659 -0.1045  1.0780
  900MOL0     H18767  10.158   2.670   6.891  0.2441 -0.3639 -0.7228
  900MOL0     H18768  10.261   2.870   6.996 -1.8078  2.8868 -2.0555
  900MOL0     H18769  10.275   2.890   6.816 -2.2128 -2.7989 -2.1707
  900MOL0     H18770  10.516   2.807   6.828  2.2963  0.7114  1.2984
  900MOL0     H18771  10.499   2.792   7.005  1.6088  1.5998  1.0113
  900MOL0     H18772  10.461   3.054   6.857  0.9601  2.4893  1.8650
  900MOL0     H18773  10.476   3.022   7.030 -1.3771 -2.5671  0.0775
  900MOL0     H18774  10.697   2.965   6.825  0.7031  1.5781 -0.3322
  900MOL0     H18775  10.704   2.923   6.996 -2.1829 -0.9073  1.0219
  900MOL0     H18776  10.683   3.207   6.913  1.3959  1.9319  1.7513
  900MOL0     H18777  10.830   3.116   6.928  2.7499 -0.6552  6.6337
  900MOL0     H18778  10.618   3.158   7.145 -0.0127  1.8943 -1.9375
  900MOL0     H18779  10.784   3.098   7.176  1.5460  0.5676 -1.2288
  900MOL0     H18780  10.884   3.308   7.074  1.2947  1.6238  1.3297
  900MOL0     H18781  10.792   3.331   7.227 -1.3416 -2.7500  0.3141
  900MOL0     H18782  10.185   2.446   6.592 -1.0552 -0.6985  2.1133
  900MOL0     H18783   9.990   2.423   6.446  1.9532 -1.8837  1.1016
  900MOL0     H18784   9.878   2.657   6.136 -0.2080  0.1252  2.1358
  900MOL0     H18785   9.798   2.703   5.894 -1.8853 -0.0337 -1.4004
  900MOL0     H18786  10.833   2.942   5.124  1.6846  0.4159  0.2235
  900MOL0     H18787  11.077   2.991   5.136  0.2041  1.2502 -1.1074
  900MOL0     H18788  11.409   3.155   5.141 -0.2459  1.7829 -1.4845
  900MOL0     H18789  11.645   3.183   5.112  1.2034  2.6696  0.0484
  900MOL0     H18790  11.839   3.313   5.085 -2.4069  1.5657  0.0680
  900MOL0     H18791  11.860   3.159   5.176 -0.5998  1.0532  2.8319
  900MOL0     H18792  12.062   3.250   5.102 -3.6796  1.3304 -0.6814
  900MOL0     H18793  12.061   3.395   5.206  1.3969  0.1858 -1.6691
  900MOL0     H18794  12.211   3.259   5.305 -1.3792  1.2818  1.9038
  900MOL0     H18795  12.103   3.108   5.274  0.3789  0.2512 -1.8185
  900MOL0     H18796  12.065   3.329   5.477 -1.2049 -1.5005  4.8257
  900MOL0     H18797  11.952   3.199   5.440  0.2103 -0.3802  0.2758
  900MOL0     H18798  12.201   3.045   5.736  2.1702  2.2357  0.8543
  900MOL0     H18799  11.667   3.414   5.470  3.2394 -1.0396 -0.5752
  900MOL0     H18800  11.418   3.400   5.492 -1.6141  1.8821 -1.4743
  901MOL0     O18801   1.379   3.502   9.539 -0.2506 -0.3929 -0.3363
  901MOL0     C18802   1.411   3.506   9.422 -1.0264 -0.0108  0.2510
  901MOL0     O18803   1.327   3.541   9.315 -0.5849  0.1558  0.2013
  901MOL0     C18804   1.211   3.596   9.350  0.2323 -0.1907  0.2158
  901MOL0     C18805   1.188   3.728   9.335 -0.8033 -0.6477  0.4785
  901MOL0     C18806   1.071   3.791   9.375  0.2635  0.5622 -0.0247
  901MOL0     C18807   0.965   3.730   9.431 -0.2730  0.7034 -0.9070
  901MOL0     O18808   0.874   3.817   9.490 -0.9831 -0.1680 -0.7553
  901MOL0     C18809   0.761   3.751   9.557 -0.5395 -0.1384  0.5683
  901MOL0     C18810   0.658   3.853   9.604 -0.3617  0.9310  0.5346
  901MOL0     C18811   0.553   3.795   9.705  0.0866  0.7849  0.9078
  901MOL0     C18812   0.449   3.891   9.750  0.2181  0.5465 -1.7527
  901MOL0     C18813   0.361   3.814   9.849 -0.6533 -0.1631  0.4779
  901MOL0     C18814   0.270   3.908   9.924 -0.1559 -0.3385 -0.8828
  901MOL0     C18815   0.170   3.837  10.014 -0.3807 -0.1772 -0.2989
  901MOL0     C18816   0.087   3.926  10.100  0.5600  0.5082 -0.1747
  901MOL0     N18817   0.012   4.013  10.014 -0.5448  0.1572  0.1674
  901MOL0     C18818  -0.112   3.968   9.962 -0.1506 -0.4653  0.0597
  901MOL0     C18819  -0.161   4.090   9.914  0.3929  0.7054 -0.7500
  901MOL0     C18820  -0.291   4.091   9.844 -0.4223  0.0544 -0.7834
  901MOL0     C18821  -0.276   4.037   9.698 -0.2286  0.0786 -0.5433
  901MOL0     C18822  -0.257   4.154   9.603  0.0605 -0.0813 -0.0596
  901MOL0     C18823  -0.274   4.109   9.462 -0.0812  0.2149  0.1878
  901MOL0     O18824  -0.400   4.045   9.435  0.1915  0.9548 -0.4712
  901MOL0     C18825  -0.418   3.963   9.328 -0.3086 -0.1266 -0.2015
  901MOL0     C18826  -0.337   3.974   9.203 -0.1054  0.9169 -0.2137
  901MOL0     C18827  -0.366   3.904   9.083 -0.1480  0.1258  0.1060
  901MOL0     C18828  -0.475   3.817   9.093 -0.3280 -0.5398 -0.9023
  901MOL0     C18829  -0.513   3.729   8.983 -0.5734  0.9002 -0.0886
  901MOL0     O18830  -0.621   3.648   9.001  0.5076  0.7288 -0.1053
  901MOL0     C18831  -0.637   3.544   8.903  0.7669 -0.1339 -0.0042
  901MOL0     C18832  -0.630   3.403   8.922  0.0134 -0.1709  0.4804
  901MOL0     C18833  -0.674   3.314   8.820 -0.7570 -0.1412  0.3714
  901MOL0     C18834  -0.706   3.374   8.692 -0.1500 -0.8132  0.1034
  901MOL0     O18835  -0.735   3.294   8.585 -0.2068  0.2112 -0.5087
  901MOL0     C18836  -0.706   3.147   8.580 -0.1584 -1.3307  0.8010
  901MOL0     C18837  -0.656   3.116   8.435  0.9994  0.9430 -0.6706
  901MOL0     C18838  -0.618   2.964   8.436 -0.3980 -0.6291 -0.3243
  901MOL0     C18839  -0.546   2.922   8.308 -0.2783 -0.0420  0.0324
  901MOL0     C18840  -0.495   2.777   8.312 -0.7742 -0.7099  0.6182
  901MOL0     C18841  -0.615   2.676   8.320 -0.7969 -0.1953 -0.3459
  901MOL0     C18842  -0.564   2.541   8.267 -0.3423 -0.3987  0.2149
  901MOL0     C18843  -0.611   2.534   8.120  0.0072  0.4603 -0.1815
  901MOL0    Cl18844  -0.524   2.387   8.063 -0.5530 -0.0787  0.2061
  901MOL0     C18845  -0.703   3.508   8.671 -0.7756  0.4802  0.7160
  901MOL0     C18846  -0.680   3.593   8.777  0.9382 -0.2576  0.0750
  901MOL0     O18847  -0.444   3.738   8.882  0.0843 -0.0409  0.5208
  901MOL0     C18848  -0.549   3.797   9.214  0.5971  0.9025  0.0173
  901MOL0     C18849  -0.519   3.865   9.327  0.8183 -0.6274  0.1380
  901MOL0     N18850  -0.078   4.197   9.938  0.2814 -0.0004 -1.7640
  901MOL0     N18851   0.022   4.153  10.008  0.1115  0.4026 -0.4169
  901MOL0     C18852   0.977   3.595   9.449 -0.3719  0.5936  0.7032
  901MOL0     C18853   1.103   3.529   9.411 -0.0229 -0.0127  0.2229
  901MOL0     C18854   1.547   3.450   9.383  0.0025  0.0804 -0.3683
  901MOL0     C18855   1.642   3.409   9.485  0.3276 -0.7666 -0.7554
  901MOL0     C18856   1.770   3.374   9.450  1.1719  0.0532  0.3916
  901MOL0     C18857   1.803   3.340   9.327  0.3389  0.1363 -0.4913
  901MOL0     O18858   1.927   3.291   9.290 -0.4972 -0.1020  0.2570
  901MOL0     C18859   2.039   3.331   9.364  0.5841 -0.1436  0.4356
  901MOL0     C18860   2.161   3.319   9.280  0.5145  0.2542  0.4866
  901MOL0     C18861   2.181   3.181   9.231  0.3617 -0.4183 -0.4816
  901MOL0     C18862   2.311   3.154   9.157 -0.3487 -0.3950  0.0801
  901MOL0     C18863   2.291   3.012   9.108 -0.2435 -0.8451 -0.3735
  901MOL0     C18864   2.264   2.901   9.069 -0.8429  0.2024 -0.0398
  901MOL0     C18865   1.709   3.363   9.227 -0.2241 -0.1761  0.2289
  901MOL0     C18866   1.589   3.423   9.256  0.2154 -0.8218  0.4318
  901MOL0     H18867   1.261   3.794   9.289 -4.2547  1.4636 -2.6138
  901MOL0     H18868   1.077   3.900   9.375  0.4028  0.5545 -0.0598
  901MOL0     H18869   0.787   3.679   9.636 -3.7951 -2.2924 -0.1454
  901MOL0     H18870   0.712   3.689   9.482 -0.0765 -1.2083  1.1264
  901MOL0     H18871   0.613   3.896   9.514 -0.7526 -1.1880 -0.3605
  901MOL0     H18872   0.713   3.922   9.668 -1.2578 -0.2219  2.6830
  901MOL0     H18873   0.602   3.748   9.790 -0.5114  0.1508  0.9094
  901MOL0     H18874   0.502   3.714   9.651  0.1475  1.4693 -0.2221
  901MOL0     H18875   0.498   3.974   9.802  0.1818 -1.5965  2.1258
  901MOL0     H18876   0.393   3.925   9.663 -3.2376  1.7328  0.6895
  901MOL0     H18877   0.415   3.756   9.925  1.7691 -1.1470 -1.8605
  901MOL0     H18878   0.292   3.745   9.800 -1.9249  0.9222  0.6804
  901MOL0     H18879   0.214   3.972   9.856  2.6274  2.9994 -0.2932
  901MOL0     H18880   0.346   3.964   9.980  1.5127 -1.6547 -1.7244
  901MOL0     H18881   0.108   3.761   9.966 -0.2998  0.3114 -1.2023
  901MOL0     H18882   0.225   3.779  10.089  0.8702 -0.5083 -1.4374
  901MOL0     H18883   0.149   3.983  10.169  1.7308  1.7439 -2.1557
  901MOL0     H18884   0.024   3.865  10.165  2.8987 -0.1590  1.6317
  901MOL0     H18885  -0.146   3.865   9.957  0.3398 -0.8361  2.6843
  901MOL0     H18886  -0.312   4.198   9.844 -0.1102  0.1244 -1.5742
  901MOL0     H18887  -0.370   4.037   9.897 -1.1767  1.0098 -0.9123
  901MOL0     H18888  -0.367   3.983   9.670 -1.7454  1.7254  0.9529
  901MOL0     H18889  -0.191   3.968   9.688  0.7065  1.4670 -3.0794
  901MOL0     H18890  -0.326   4.235   9.629 -0.1165 -0.0442 -0.6242
  901MOL0     H18891  -0.157   4.196   9.616  0.0578 -0.5062  1.5715
  901MOL0     H18892  -0.201   4.035   9.430  1.6572  1.5311  0.9572
  901MOL0     H18893  -0.236   4.178   9.386  0.1292 -2.6794 -2.5364
  901MOL0     H18894  -0.254   4.043   9.191 -0.4278  1.1628 -1.1218
  901MOL0     H18895  -0.315   3.929   8.991 -2.6290  0.3879 -1.2586
  901MOL0     H18896  -0.614   3.358   9.019  0.0535  0.3884  0.7354
  901MOL0     H18897  -0.677   3.208   8.841  1.3185 -0.4470 -0.5690
  901MOL0     H18898  -0.800   3.094   8.597  0.0540 -1.5429  1.3545
  901MOL0     H18899  -0.634   3.127   8.660  1.5572 -0.4052 -0.4349
  901MOL0     H18900  -0.563   3.166   8.408  2.4001 -0.6094  1.0307
  901MOL0     H18901  -0.740   3.130   8.366 -1.3818 -1.7524  1.4363
  901MOL0     H18902  -0.715   2.916   8.443 -1.2029  1.0768  1.1450
  901MOL0     H18903  -0.556   2.939   8.523  0.4732 -0.0769 -0.7576
  901MOL0     H18904  -0.617   2.932   8.225  0.0953  3.0142 -0.0461
  901MOL0     H18905  -0.465   2.993   8.288  0.8012 -0.7630  1.5827
  901MOL0     H18906  -0.428   2.769   8.399 -0.4506  1.3647  0.6144
  901MOL0     H18907  -0.435   2.763   8.222 -0.7783 -0.5887  0.5962
  901MOL0     H18908  -0.708   2.714   8.278 -0.4648  1.5116  0.3770
  901MOL0     H18909  -0.635   2.669   8.427 -0.7619  1.7183 -0.1818
  901MOL0     H18910  -0.456   2.540   8.284 -0.5827 -1.5509  1.9258
  901MOL0     H18911  -0.601   2.452   8.319  1.1963 -1.6452 -0.7196
  901MOL0     H18912  -0.584   2.622   8.061  1.8316 -0.4169 -0.7266
  901MOL0     H18913  -0.716   2.507   8.109  0.2103 -1.2132  1.4377
  901MOL0     H18914  -0.724   3.540   8.569  2.0914 -3.4659 -1.3847
  901MOL0     H18915  -0.681   3.695   8.740  4.4077 -0.7996 -2.0104
  901MOL0     H18916  -0.622   3.718   9.226  2.7463 -1.3180 -0.9395
  901MOL0     H18917  -0.574   3.863   9.420 -0.2010  0.0765 -0.4346
  901MOL0     H18918   0.899   3.535   9.494  0.8804 -2.4783 -0.9586
  901MOL0     H18919   1.103   3.421   9.423 -3.2334 -0.3251 -1.3391
  901MOL0     H18920   1.620   3.420   9.591  1.5294  1.9023 -0.6835
  901MOL0     H18921   1.845   3.354   9.526  0.8748 -1.8284  0.2493
  901MOL0     H18922   2.034   3.279   9.460 -0.6499 -0.1492  0.3807
  901MOL0     H18923   2.030   3.439   9.383  2.7663  0.7252 -2.6582
  901MOL0     H18924   2.166   3.388   9.195  1.1067 -0.0116  0.3067
  901MOL0     H18925   2.249   3.330   9.343  2.4925  0.4460 -2.1829
  901MOL0     H18926   2.099   3.163   9.161 -2.0664  1.4364  1.6915
  901MOL0     H18927   2.184   3.108   9.314 -1.3901 -0.7116 -0.6363
  901MOL0     H18928   2.315   3.224   9.073 -1.6627 -1.7898 -1.2226
  901MOL0     H18929   2.402   3.170   9.216  0.1471 -0.0702 -0.7549
  901MOL0     H18930   2.239   2.806   9.025  2.4207 -1.1127  0.6284
  901MOL0     H18931   1.744   3.358   9.124  0.0708  0.8803  0.2659
  901MOL0     H18932   1.528   3.468   9.179  0.9364 -0.7000 -0.0797
  902MOL0     O18933   6.093   4.397   8.288 -0.4533  0.2757 -0.0044
  902MOL0     C18934   6.070   4.515   8.259 -0.0392  0.1018 -0.3300
  902MOL0     O18935   5.950   4.580   8.260 -0.3951  0.0445 -0.3593
  902MOL0     C18936   5.847   4.503   8.303  0.4626 -0.2325 -0.2984
  902MOL0     C18937   5.844   4.441   8.427  1.4578 -0.5227  0.3329
  902MOL0     C18938   5.717   4.391   8.479 -1.2470  0.9055 -0.1831
  902MOL0     C18939   5.605   4.408   8.404 -0.2641 -0.6489  0.5535
  902MOL0     O18940   5.481   4.372   8.443 -0.1147 -0.1693  0.8169
  902MOL0     C18941   5.463   4.333   8.583 -0.0729  0.0598  0.7966
  902MOL0     C18942   5.317   4.323   8.610 -0.3618 -0.3113  0.7489
  902MOL0     C18943   5.293   4.277   8.758 -0.1285 -0.3890  0.0723
  902MOL0     C18944   5.145   4.277   8.795  0.1496  0.7222  1.0345
  902MOL0     C18945   5.063   4.182   8.703  0.4484  0.4216  0.4844
  902MOL0     C18946   4.937   4.123   8.764 -0.8534 -0.5388 -0.6316
  902MOL0     C18947   4.849   4.046   8.672 -1.0060 -0.4731  0.3304
  902MOL0     C18948   4.707   4.042   8.719  0.1705  0.1553 -0.6138
  902MOL0     N18949   4.692   3.932   8.824 -0.3618 -0.5529 -0.2972
  902MOL0     C18950   4.720   3.941   8.968  0.0496 -0.9966  0.4916
  902MOL0     C18951   4.665   3.834   9.017  0.2833 -0.0043 -0.2836
  902MOL0     C18952   4.668   3.789   9.158 -0.0107  0.0107  0.4911
  902MOL0     C18953   4.581   3.874   9.247 -0.4213 -0.1853 -0.0767
  902MOL0     C18954   4.582   3.841   9.392 -1.0695 -0.7315 -1.0262
  902MOL0     C18955   4.483   3.926   9.461 -0.5850  0.6172 -0.4644
  902MOL0     O18956   4.346   3.878   9.447 -0.8575  0.4275 -0.8874
  902MOL0     C18957   4.249   3.949   9.509 -0.0307  0.2569 -0.4118
  902MOL0     C18958   4.111   3.906   9.493  0.3274  0.4834 -0.2317
  902MOL0     C18959   4.002   3.986   9.532  0.5605 -0.3780  0.7349
  902MOL0     C18960   4.020   4.120   9.577 -0.9668 -0.2401  1.1417
  902MOL0     C18961   3.909   4.207   9.602  0.6770 -0.8139  0.4738
  902MOL0     O18962   3.780   4.158   9.616 -0.2104 -0.5786 -0.1077
  902MOL0     C18963   3.668   4.243   9.597 -0.0270 -0.0660 -0.9840
  902MOL0     C18964   3.555   4.202   9.658  0.4784  0.0780  0.0575
  902MOL0     C18965   3.433   4.268   9.645  0.2079 -0.4915 -0.3105
  902MOL0     C18966   3.423   4.379   9.562  0.5093 -1.1144  0.0177
  902MOL0     O18967   3.300   4.441   9.539 -0.3022  0.4097 -0.2588
  902MOL0     C18968   3.305   4.585   9.553  0.6673 -0.2005  0.5762
  902MOL0     C18969   3.153   4.641   9.525 -0.2277 -0.2562  0.9189
  902MOL0     C18970   3.129   4.655   9.375  0.1964 -0.2576 -0.7270
  902MOL0     C18971   3.010   4.737   9.343  0.3275 -0.2240  0.5479
  902MOL0     C18972   2.991   4.742   9.192 -0.6235  0.4576 -0.6403
  902MOL0     C18973   2.903   4.862   9.155 -0.3626 -0.6895 -1.1197
  902MOL0     C18974   2.854   4.839   9.006 -0.1007 -0.6456 -1.1975
  902MOL0     C18975   2.790   4.971   8.956  0.2070 -0.4970 -0.0066
  902MOL0    Cl18976   2.675   5.054   9.070  0.1786  0.5351  0.0879
  902MOL0     C18977   3.544   4.427   9.509 -0.5556 -0.5900  0.7625
  902MOL0     C18978   3.667   4.360   9.524  0.6957  0.0715  0.8481
  902MOL0     O18979   3.932   4.327   9.601 -0.9921  0.2314  0.1216
  902MOL0     C18980   4.153   4.156   9.598 -1.3101 -0.7969  0.4494
  902MOL0     C18981   4.267   4.076   9.573  0.6256 -0.2744  0.9207
  902MOL0     N18982   4.599   3.765   8.908 -1.0374  0.0934 -1.0979
  902MOL0     N18983   4.609   3.826   8.797 -0.0655 -0.1551  0.3468
  902MOL0     C18984   5.617   4.451   8.270  0.5892  0.1844  0.2835
  902MOL0     C18985   5.735   4.503   8.232 -1.1166 -0.6572  0.5320
  902MOL0     C18986   6.185   4.598   8.209  0.4878 -0.0358  0.1726
  902MOL0     C18987   6.192   4.738   8.232 -0.0707 -0.8557  0.5527
  902MOL0     C18988   6.292   4.818   8.170  0.0378 -0.0410  0.6568
  902MOL0     C18989   6.394   4.759   8.104 -0.1614 -0.4008 -0.1820
  902MOL0     O18990   6.498   4.843   8.068  0.1068 -0.0800 -0.1924
  902MOL0     C18991   6.627   4.774   8.097  0.4755 -0.0164  0.0564
  902MOL0     C18992   6.703   4.727   7.974  0.2914  0.1313 -0.3045
  902MOL0     C18993   6.708   4.843   7.869 -0.2547  0.2987 -1.2030
  902MOL0     C18994   6.823   4.809   7.759  0.4545 -1.0335 -0.4449
  902MOL0     C18995   6.954   4.824   7.821  0.2083  0.5644 -0.1222
  902MOL0     C18996   7.067   4.844   7.860 -0.4065 -0.6780 -0.5946
  902MOL0     C18997   6.380   4.625   8.081  0.5111  1.4013 -0.3833
  902MOL0     C18998   6.274   4.540   8.127 -0.5840  0.3225 -0.7447
  902MOL0     H18999   5.930   4.427   8.492 -0.5496  2.0766  3.8864
  902MOL0     H19000   5.713   4.349   8.579  0.9503  0.2836 -0.3121
  902MOL0     H19001   5.512   4.413   8.640  0.3110  1.3251 -1.2126
  902MOL0     H19002   5.507   4.236   8.606  1.2107  0.1866 -0.9430
  902MOL0     H19003   5.260   4.260   8.541  0.0849  0.9681 -0.8612
  902MOL0     H19004   5.275   4.423   8.599  0.2188 -0.0314  1.0157
  902MOL0     H19005   5.340   4.335   8.838  0.1462 -2.2373  1.3201
  902MOL0     H19006   5.327   4.173   8.768 -2.1668 -0.9093  2.7475
  902MOL0     H19007   5.131   4.245   8.899 -0.4718  1.2604  1.1268
  902MOL0     H19008   5.112   4.381   8.779  0.4321  0.8414  1.2179
  902MOL0     H19009   5.115   4.105   8.646 -0.2417 -2.2999  3.2902
  902MOL0     H19010   5.013   4.244   8.627 -3.1828 -2.3326  0.3741
  902MOL0     H19011   4.884   4.198   8.823  1.8643  0.6371  0.4986
  902MOL0     H19012   4.968   4.046   8.835 -3.1940 -2.1716 -1.2332
  902MOL0     H19013   4.839   4.101   8.578  0.2576 -1.2281 -0.2711
  902MOL0     H19014   4.888   3.945   8.656 -1.9017 -0.8308  0.3521
  902MOL0     H19015   4.645   4.006   8.636  0.4533  1.0700 -1.2412
  902MOL0     H19016   4.667   4.141   8.742 -0.7387  0.1004 -1.8843
  902MOL0     H19017   4.796   3.996   9.023 -1.2062  1.8288 -0.3898
  902MOL0     H19018   4.772   3.790   9.194  0.2335 -0.9737 -0.1436
  902MOL0     H19019   4.633   3.686   9.149  3.3766 -1.1626 -1.2113
  902MOL0     H19020   4.478   3.879   9.210 -0.6990 -0.9059  0.5675
  902MOL0     H19021   4.632   3.969   9.232  3.0436 -2.0331 -0.8725
  902MOL0     H19022   4.557   3.738   9.417 -0.8302 -0.3396  1.0169
  902MOL0     H19023   4.687   3.864   9.416 -0.2863 -2.6954 -2.3338
  902MOL0     H19024   4.490   4.032   9.435  0.4413  1.0759  1.4957
  902MOL0     H19025   4.501   3.913   9.568  2.5528  1.2974 -0.8014
  902MOL0     H19026   4.106   3.804   9.455 -3.7344 -0.4099  2.1325
  902MOL0     H19027   3.904   3.952   9.501  0.8196  2.3367 -3.9459
  902MOL0     H19028   3.543   4.099   9.691 -0.3009  0.4924  1.1393
  902MOL0     H19029   3.345   4.222   9.688 -1.2307  2.1087 -0.3038
  902MOL0     H19030   3.377   4.627   9.482  0.2817 -0.0643  0.2637
  902MOL0     H19031   3.344   4.610   9.652 -2.3769  1.1413  1.5397
  902MOL0     H19032   3.141   4.738   9.575  1.8612 -0.8668  2.7972
  902MOL0     H19033   3.075   4.588   9.580 -0.5214 -0.8136 -0.0262
  902MOL0     H19034   3.114   4.555   9.333  0.4184 -0.4909 -0.2570
  902MOL0     H19035   3.221   4.680   9.321  1.2938 -1.8670  0.3049
  902MOL0     H19036   2.920   4.695   9.388  1.2214  0.6241  3.3763
  902MOL0     H19037   3.031   4.833   9.392 -1.6878  0.9036 -0.6709
  902MOL0     H19038   2.937   4.648   9.178 -0.8393 -0.0646  2.8835
  902MOL0     H19039   3.083   4.737   9.133 -0.3493 -1.6628 -0.1029
  902MOL0     H19040   2.957   4.957   9.158 -1.9741  0.2424  0.3398
  902MOL0     H19041   2.816   4.860   9.222 -0.7264 -3.5966 -1.5586
  902MOL0     H19042   2.945   4.820   8.948 -0.3292  1.8261 -2.5581
  902MOL0     H19043   2.787   4.754   8.996 -0.7805 -0.0273 -2.0794
  902MOL0     H19044   2.731   4.957   8.865 -1.5075  3.0950  0.3915
  902MOL0     H19045   2.869   5.042   8.935 -3.1614  2.9889 -2.2749
  902MOL0     H19046   3.541   4.512   9.440  3.1926 -0.4304  0.6171
  902MOL0     H19047   3.758   4.388   9.470 -0.5554  1.2599 -0.7567
  902MOL0     H19048   4.165   4.254   9.643 -0.8651 -0.5587 -0.1786
  902MOL0     H19049   4.366   4.116   9.589  1.2610 -1.8679  1.2347
  902MOL0     H19050   5.534   4.456   8.199 -0.0243  0.5444  1.0201
  902MOL0     H19051   5.739   4.553   8.136 -0.4070  1.9671  1.8346
  902MOL0     H19052   6.118   4.783   8.298 -3.6587 -0.8746 -3.1047
  902MOL0     H19053   6.304   4.924   8.189 -0.6386 -0.0493  1.1614
  902MOL0     H19054   6.622   4.685   8.160  2.4070 -0.0695  0.2242
  902MOL0     H19055   6.684   4.827   8.174 -1.7225 -2.4974  3.6615
  902MOL0     H19056   6.798   4.690   8.011 -0.6329 -1.1679  0.8769
  902MOL0     H19057   6.655   4.638   7.933  1.7645 -1.4256  1.2070
  902MOL0     H19058   6.731   4.940   7.916  1.9267 -0.8503  0.2562
  902MOL0     H19059   6.607   4.847   7.828 -0.2112 -2.4663 -1.7686
  902MOL0     H19060   6.811   4.714   7.707 -0.1974  0.2500 -2.7573
  902MOL0     H19061   6.817   4.897   7.695 -4.9361  2.1908  3.6337
  902MOL0     H19062   7.150   4.878   7.919 -2.6900 -0.3051  2.7545
  902MOL0     H19063   6.455   4.575   8.020 -1.4636 -2.0425 -0.2424
  902MOL0     H19064   6.278   4.433   8.114  0.3443  0.3720 -0.9012
  903MOL0     O19065   7.049   8.503   0.304  0.0803 -0.0219  0.4855
  903MOL0     C19066   7.072   8.402   0.229 -0.4771 -0.8925 -0.1357
  903MOL0     O19067   6.980   8.334   0.162  0.8693  0.3302 -0.2153
  903MOL0     C19068   6.847   8.377   0.182  0.2284 -0.0725  0.8743
  903MOL0     C19069   6.811   8.508   0.167 -1.0706 -0.4740 -0.0589
  903MOL0     C19070   6.684   8.557   0.202 -0.0467 -0.1880 -0.4323
  903MOL0     C19071   6.582   8.467   0.232 -0.3108  0.6028  0.2144
  903MOL0     O19072   6.459   8.516   0.261 -0.4379 -0.7390  0.7508
  903MOL0     C19073   6.348   8.446   0.321 -0.6986  0.7563  0.5791
  903MOL0     C19074   6.215   8.531   0.313  0.0468 -0.4382  0.3785
  903MOL0     C19075   6.253   8.678   0.300  0.1216 -0.5260 -0.2405
  903MOL0     C19076   6.128   8.762   0.254 -0.5322 -0.4498 -0.4192
  903MOL0     C19077   6.048   8.816   0.369  0.4986 -0.5005 -0.1894
  903MOL0     C19078   5.948   8.925   0.314 -1.0665  0.3872  0.3192
  903MOL0     C19079   5.849   8.867   0.210  0.9919  0.1676 -0.5582
  903MOL0     C19080   5.749   8.977   0.173 -0.0782 -0.2992  0.4211
  903MOL0     N19081   5.682   9.022   0.302 -0.1997  0.4463  0.5997
  903MOL0     C19082   5.596   8.938   0.365  0.8862 -0.2648  0.3824
  903MOL0     C19083   5.542   9.021   0.459  0.5900  0.1236  0.1609
  903MOL0     C19084   5.434   8.985   0.562 -0.8856 -0.0825  0.4575
  903MOL0     C19085   5.296   9.023   0.513  0.4253  0.0758 -0.9620
  903MOL0     C19086   5.226   8.913   0.439  0.4299 -0.1086  0.6070
  903MOL0     C19087   5.084   8.947   0.389  0.8739 -0.2405 -0.7242
  903MOL0     O19088   5.089   9.078   0.327 -0.0229 -0.1008 -0.5568
  903MOL0     C19089   4.981   9.147   0.290 -0.6140 -0.8210 -0.3993
  903MOL0     C19090   4.853   9.096   0.270 -0.0792  0.8881 -0.1385
  903MOL0     C19091   4.741   9.172   0.226  0.2705  0.6148  0.5928
  903MOL0     C19092   4.760   9.303   0.191 -0.1544 -1.0119  0.5064
  903MOL0     C19093   4.652   9.376   0.117 -0.5304 -0.4336 -0.5362
  903MOL0     O19094   4.536   9.320   0.130 -0.1384  0.1164 -0.1425
  903MOL0     C19095   4.420   9.374   0.077 -0.1257 -0.2143 -1.1007
  903MOL0     C19096   4.407   9.442  -0.042 -0.2864 -0.6826  0.3694
  903MOL0     C19097   4.286   9.508  -0.081 -0.6154 -0.4649  0.2811
  903MOL0     C19098   4.169   9.493  -0.002  0.5019  0.2218 -0.2732
  903MOL0     O19099   4.049   9.540  -0.041 -0.0191 -0.9498 -0.6373
  903MOL0     C19100   4.037   9.664  -0.115 -0.4160  0.6704 -0.1695
  903MOL0     C19101   3.896   9.705  -0.127  0.3974  0.6314  0.7803
  903MOL0     C19102   3.872   9.837  -0.210  1.0411  0.7726 -0.2183
  903MOL0     C19103   3.728   9.854  -0.268 -0.3284 -0.1645  0.7236
  903MOL0     C19104   3.643   9.970  -0.205 -1.0575 -0.4345  0.7626
  903MOL0     C19105   3.618   9.956  -0.059  0.5392  0.3004  0.2315
  903MOL0     C19106   3.535  10.087  -0.020  0.1903  0.1507  0.0120
  903MOL0     C19107   3.459  10.043   0.112 -0.1629 -0.3638  1.0405
  903MOL0    Cl19108   3.576  10.036   0.239  0.0249  0.4131 -0.9792
  903MOL0     C19109   4.176   9.411   0.115 -0.5830 -0.3408  1.2702
  903MOL0     C19110   4.305   9.366   0.150  1.2065  0.2113  0.4500
  903MOL0     O19111   4.685   9.481   0.054  0.4050  0.0277  0.4864
  903MOL0     C19112   4.890   9.366   0.210 -0.9331 -0.1670  0.3803
  903MOL0     C19113   4.999   9.285   0.261 -0.5012 -0.1069  0.8780
  903MOL0     N19114   5.585   9.157   0.446  0.1055  0.9795  1.3886
  903MOL0     N19115   5.665   9.150   0.342 -0.1414  0.2797 -0.0282
  903MOL0     C19116   6.617   8.331   0.248  0.3765  0.3406  0.3121
  903MOL0     C19117   6.749   8.283   0.223  0.5190 -0.4768  0.5606
  903MOL0     C19118   7.209   8.353   0.216 -0.0323 -0.1186  0.4206
  903MOL0     C19119   7.232   8.214   0.196  0.4129 -0.7174 -0.4311
  903MOL0     C19120   7.358   8.165   0.193  1.1185  0.1425 -0.3935
  903MOL0     C19121   7.471   8.244   0.211  0.2119  0.8095 -0.0968
  903MOL0     O19122   7.599   8.187   0.213 -0.1057 -0.3079 -0.1789
  903MOL0     C19123   7.608   8.054   0.262 -0.0699  0.8407  0.6888
  903MOL0     C19124   7.644   7.958   0.157 -0.0464 -0.2494 -0.1336
  903MOL0     C19125   7.796   7.954   0.123  0.4283 -0.7231 -0.7909
  903MOL0     C19126   7.877   8.091   0.114  0.3440  0.3859 -0.4369
  903MOL0     C19127   7.836   8.179   0.004  0.0962 -0.2040  0.4613
  903MOL0     C19128   7.779   8.251  -0.079  0.0530 -0.3003  0.8280
  903MOL0     C19129   7.444   8.381   0.236  1.1730 -0.2727  0.3518
  903MOL0     C19130   7.315   8.432   0.242  0.0722  0.2230 -0.4100
  903MOL0     H19131   6.890   8.579   0.143  1.5508 -2.7552  1.1947
  903MOL0     H19132   6.652   8.660   0.189 -1.3173 -0.4852  0.1463
  903MOL0     H19133   6.386   8.419   0.420 -0.0028  4.5104  1.4763
  903MOL0     H19134   6.339   8.355   0.260  0.2997  0.3175  1.0568
  903MOL0     H19135   6.151   8.516   0.400  0.1235 -2.7043  0.1147
  903MOL0     H19136   6.157   8.508   0.223  0.7276  2.2308 -0.8620
  903MOL0     H19137   6.335   8.693   0.230  2.2700  0.0722  2.2193
  903MOL0     H19138   6.300   8.712   0.393 -0.7187 -1.4141  0.5343
  903MOL0     H19139   6.156   8.849   0.194 -1.3708 -0.8141 -1.3677
  903MOL0     H19140   6.063   8.694   0.199 -1.3242 -0.7825  0.8891
  903MOL0     H19141   6.106   8.874   0.441  1.4040 -2.3922  0.6564
  903MOL0     H19142   5.998   8.737   0.425 -0.1773 -1.1659 -1.6663
  903MOL0     H19143   5.994   9.013   0.268 -1.4690 -0.5179 -1.9819
  903MOL0     H19144   5.904   8.957   0.408 -1.0261 -1.8430  1.1588
  903MOL0     H19145   5.903   8.834   0.122 -0.2113 -0.9774 -0.9078
  903MOL0     H19146   5.796   8.782   0.255  1.2068 -0.6076 -1.7421
  903MOL0     H19147   5.673   8.930   0.111 -3.3483  2.6007  1.8407
  903MOL0     H19148   5.788   9.057   0.109 -2.1904 -1.5077 -2.6173
  903MOL0     H19149   5.557   8.839   0.343 -1.6722  0.8937 -0.7797
  903MOL0     H19150   5.460   9.035   0.656 -0.2821 -0.4929  0.5149
  903MOL0     H19151   5.437   8.876   0.571  2.6302 -0.4564 -2.6308
  903MOL0     H19152   5.312   9.113   0.452  0.3574 -0.4755 -1.8037
  903MOL0     H19153   5.230   9.047   0.596 -2.2437 -3.5115 -1.8201
  903MOL0     H19154   5.291   8.878   0.359  1.0140  1.3515  0.4046
  903MOL0     H19155   5.214   8.819   0.493 -1.9218 -2.1405 -3.0468
  903MOL0     H19156   5.014   8.950   0.473  2.1002  0.3739  0.2984
  903MOL0     H19157   5.052   8.872   0.316 -0.1988 -0.4914 -0.0155
  903MOL0     H19158   4.831   8.999   0.313  2.4781  1.4412  2.8148
  903MOL0     H19159   4.641   9.132   0.213  0.8659 -1.0679  0.9505
  903MOL0     H19160   4.496   9.451  -0.103 -0.0420  3.5398  1.0140
  903MOL0     H19161   4.287   9.552  -0.181 -0.2105 -0.2131  0.3931
  903MOL0     H19162   4.068   9.637  -0.217  1.1799  0.2482  0.3950
  903MOL0     H19163   4.107   9.736  -0.073  0.8377 -1.8838  2.4905
  903MOL0     H19164   3.852   9.713  -0.027 -0.5328  0.5297  0.3845
  903MOL0     H19165   3.853   9.620  -0.180 -0.1514  2.4453 -1.8795
  903MOL0     H19166   3.951   9.844  -0.285  1.6338 -0.5701  0.2419
  903MOL0     H19167   3.887   9.920  -0.139  2.2187  0.4092 -0.0197
  903MOL0     H19168   3.742   9.880  -0.373  0.6087  2.2786  1.3942
  903MOL0     H19169   3.673   9.760  -0.274 -2.5413  1.1587 -1.6136
  903MOL0     H19170   3.547   9.984  -0.255 -0.4900  0.3044 -0.1329
  903MOL0     H19171   3.688  10.069  -0.211 -0.2623 -0.8066  0.4436
  903MOL0     H19172   3.707   9.951   0.004  0.3000 -0.8654  0.5011
  903MOL0     H19173   3.556   9.870  -0.034 -0.0426  1.7051  4.2931
  903MOL0     H19174   3.592  10.176   0.008 -1.4998  0.5840  2.4451
  903MOL0     H19175   3.466  10.112  -0.101 -1.8256 -2.0186  0.9194
  903MOL0     H19176   3.414   9.944   0.101 -0.7736  0.0657 -0.5884
  903MOL0     H19177   3.377  10.114   0.130  0.6235  1.2544 -1.2869
  903MOL0     H19178   4.089   9.402   0.179 -2.9040  0.3797 -1.5612
  903MOL0     H19179   4.317   9.311   0.242 -1.1616 -1.5013 -0.1720
  903MOL0     H19180   4.907   9.466   0.171 -2.1701 -0.4296 -0.9052
  903MOL0     H19181   5.102   9.309   0.287 -1.1421  2.1344  1.5716
  903MOL0     H19182   6.549   8.252   0.280 -2.3931  2.0711 -0.8530
  903MOL0     H19183   6.786   8.181   0.227 -2.3459 -1.7744 -1.9352
  903MOL0     H19184   7.149   8.146   0.184 -1.2168  1.3149 -1.3016
  903MOL0     H19185   7.361   8.057   0.183  1.5566 -0.2718  3.0319
  903MOL0     H19186   7.517   8.031   0.317 -0.9843  0.1679 -1.0228
  903MOL0     H19187   7.689   8.071   0.333 -1.0509  1.1945  1.7486
  903MOL0     H19188   7.617   7.859   0.196  0.5525 -0.1682  0.4917
  903MOL0     H19189   7.582   7.990   0.072 -1.6936 -1.9002  0.3525
  903MOL0     H19190   7.796   7.901   0.028  0.9410 -2.8262  0.3166
  903MOL0     H19191   7.842   7.889   0.198  0.4829  1.8860  1.6271
  903MOL0     H19192   7.872   8.147   0.208  2.2975  1.5578 -0.9772
  903MOL0     H19193   7.983   8.068   0.101  0.7836  1.3855  1.0537
  903MOL0     H19194   7.742   8.316  -0.156 -0.6032 -0.2711  1.1601
  903MOL0     H19195   7.521   8.454   0.254 -0.8368  2.1303 -0.2646
  903MOL0     H19196   7.299   8.538   0.260 -2.0700 -0.2539  0.7766
  904MOL0     O19197   8.376   6.166   2.942 -0.8458 -0.7555 -0.2153
  904MOL0     C19198   8.426   6.063   2.896 -0.2847 -0.1203  0.5374
  904MOL0     O19199   8.390   5.938   2.931 -0.4690  0.7777 -0.1382
  904MOL0     C19200   8.276   5.902   3.000  0.1295  0.0986 -0.3538
  904MOL0     C19201   8.160   5.979   2.993 -0.1512  0.1963  0.8019
  904MOL0     C19202   8.049   5.951   3.069 -0.0630 -0.7849  0.3361
  904MOL0     C19203   8.037   5.828   3.137 -0.0956  0.8930 -0.1939
  904MOL0     O19204   7.920   5.784   3.191  0.1997 -0.0558 -0.3117
  904MOL0     C19205   7.910   5.852   3.317  0.3697 -0.9733 -0.2128
  904MOL0     C19206   7.783   5.799   3.402 -0.7566 -0.0719  0.0045
  904MOL0     C19207   7.657   5.867   3.349  0.3717  0.5941 -0.4082
  904MOL0     C19208   7.541   5.764   3.347  0.2544  0.2326 -0.1670
  904MOL0     C19209   7.404   5.821   3.300 -0.0808 -0.7406  0.1918
  904MOL0     C19210   7.304   5.707   3.330  0.9548  0.0693 -0.7331
  904MOL0     C19211   7.168   5.741   3.256  1.1157  0.6141  0.1720
  904MOL0     C19212   7.036   5.660   3.288 -0.3529  0.0517  0.1941
  904MOL0     N19213   6.936   5.704   3.189  0.5983 -0.1124 -0.4695
  904MOL0     C19214   6.835   5.793   3.204 -0.1981 -0.1975 -0.0684
  904MOL0     C19215   6.785   5.802   3.082  0.2321 -0.1504  0.9018
  904MOL0     C19216   6.669   5.894   3.033  0.0251  0.0745  0.3978
  904MOL0     C19217   6.699   5.979   2.905  0.4958 -0.8812 -0.4048
  904MOL0     C19218   6.575   6.022   2.829  0.4295  0.2993 -0.3895
  904MOL0     C19219   6.490   6.126   2.896 -0.6653 -0.3697 -0.9800
  904MOL0     O19220   6.433   6.071   3.012 -0.4322  0.0644 -0.4493
  904MOL0     C19221   6.383   6.156   3.100  2.0157 -0.0042 -0.8458
  904MOL0     C19222   6.350   6.107   3.231 -0.3753 -0.4134  0.1070
  904MOL0     C19223   6.286   6.187   3.328  0.3950 -0.7843 -0.5199
  904MOL0     C19224   6.234   6.314   3.292 -0.2849  0.2465  0.5752
  904MOL0     C19225   6.153   6.388   3.391  0.0754  0.3757  0.0923
  904MOL0     O19226   6.078   6.496   3.348 -0.3333  0.4747  0.2467
  904MOL0     C19227   6.004   6.569   3.435  0.3123 -0.6077 -1.2126
  904MOL0     C19228   6.065   6.655   3.538 -0.5434  0.0884  0.7502
  904MOL0     C19229   5.985   6.737   3.615  0.4667 -0.7109  0.7069
  904MOL0     C19230   5.848   6.718   3.614 -0.0821 -0.8596  0.7635
  904MOL0     O19231   5.781   6.787   3.711  0.4393  0.2541 -0.1807
  904MOL0     C19232   5.659   6.725   3.756  0.2227 -0.1639  0.3829
  904MOL0     C19233   5.596   6.792   3.873 -0.7988 -0.5663 -0.0215
  904MOL0     C19234   5.485   6.888   3.832 -0.5380 -0.0970 -0.2389
  904MOL0     C19235   5.442   6.969   3.955 -0.0258 -0.5264  0.3662
  904MOL0     C19236   5.305   7.040   3.912 -0.4868 -0.2886  0.3213
  904MOL0     C19237   5.269   7.150   4.011  0.2749 -0.7494 -0.2687
  904MOL0     C19238   5.139   7.207   3.970  0.2047  1.0263  0.3393
  904MOL0     C19239   5.152   7.293   3.846  0.3967  0.4843 -0.0104
  904MOL0    Cl19240   4.983   7.344   3.801 -0.2292 -0.4297 -0.3138
  904MOL0     C19241   5.785   6.634   3.517 -0.0114 -0.1492  0.5055
  904MOL0     C19242   5.865   6.565   3.425  0.8311  0.2324  1.0429
  904MOL0     O19243   6.143   6.344   3.503  0.4939  1.1413  0.3940
  904MOL0     C19244   6.253   6.357   3.161  0.0957  0.1750 -0.1264
  904MOL0     C19245   6.324   6.283   3.066  0.5648 -0.8674 -0.3890
  904MOL0     N19246   6.851   5.706   2.998 -0.1292  0.2376  0.1556
  904MOL0     N19247   6.945   5.652   3.061 -0.0990 -0.0718  0.0596
  904MOL0     C19248   8.159   5.754   3.147 -0.1586  0.5037 -0.0516
  904MOL0     C19249   8.280   5.784   3.080 -0.0936 -0.4027  0.2317
  904MOL0     C19250   8.548   6.079   2.825  0.4551 -0.2591  0.0051
  904MOL0     C19251   8.565   6.187   2.735  0.3440 -0.0985 -0.1844
  904MOL0     C19252   8.695   6.214   2.678 -0.3731 -0.0956 -0.1986
  904MOL0     C19253   8.806   6.130   2.704 -0.7156  0.9463  0.3565
  904MOL0     O19254   8.918   6.166   2.644  0.2955  0.2040  0.4998
  904MOL0     C19255   9.040   6.098   2.677 -0.8792  0.3417  0.3506
  904MOL0     C19256   9.156   6.172   2.610  0.5220 -0.1673 -0.1254
  904MOL0     C19257   9.262   6.089   2.544  0.4280 -0.3599  0.1148
  904MOL0     C19258   9.403   6.144   2.560  1.4734  0.2626  0.2950
  904MOL0     C19259   9.496   6.085   2.472 -0.2487  0.6055  0.1756
  904MOL0     C19260   9.565   6.043   2.386 -0.5664 -0.3897  0.4454
  904MOL0     C19261   8.777   6.014   2.781  0.0774 -1.1606 -0.6591
  904MOL0     C19262   8.655   5.987   2.840 -0.0918 -0.2740 -0.1854
  904MOL0     H19263   8.152   6.056   2.916 -0.6476 -2.0143 -1.5279
  904MOL0     H19264   7.961   6.013   3.061  2.1309  2.4528 -0.6803
  904MOL0     H19265   7.901   5.958   3.295  1.9742 -1.0141 -1.1768
  904MOL0     H19266   8.001   5.828   3.373 -0.0072 -0.1667  0.7736
  904MOL0     H19267   7.790   5.832   3.506 -2.3702 -1.7382  0.6977
  904MOL0     H19268   7.780   5.690   3.396  1.0857 -0.0671 -2.6255
  904MOL0     H19269   7.673   5.899   3.245 -0.5218  0.4308 -0.5968
  904MOL0     H19270   7.624   5.946   3.417 -0.9018 -0.8736  0.7311
  904MOL0     H19271   7.572   5.681   3.282  0.4226 -0.8793  1.2698
  904MOL0     H19272   7.522   5.715   3.443  1.8303  0.3789  0.2465
  904MOL0     H19273   7.405   5.832   3.191  0.5159  0.6978  0.3337
  904MOL0     H19274   7.387   5.912   3.358 -2.4580  0.4641 -2.1926
  904MOL0     H19275   7.282   5.705   3.437 -2.7650  2.0446 -1.2835
  904MOL0     H19276   7.330   5.605   3.301 -3.5421 -0.8360 -2.3731
  904MOL0     H19277   7.146   5.844   3.285  0.7019  1.1131 -1.8032
  904MOL0     H19278   7.184   5.743   3.148 -1.1539 -1.4715 -0.2896
  904MOL0     H19279   6.982   5.669   3.383 -0.5836  1.2062 -0.0292
  904MOL0     H19280   7.059   5.555   3.267  0.8072 -0.3424  3.0080
  904MOL0     H19281   6.830   5.866   3.284  2.1373  2.4096 -2.0962
  904MOL0     H19282   6.656   5.961   3.119  2.4657 -1.0685  1.7832
  904MOL0     H19283   6.577   5.840   3.011 -0.4131  0.8101  0.3920
  904MOL0     H19284   6.777   5.931   2.845  2.5963  2.4076 -0.5849
  904MOL0     H19285   6.735   6.075   2.943 -1.5128 -0.1157 -0.3248
  904MOL0     H19286   6.616   6.066   2.738  2.3655  0.4719  0.5083
  904MOL0     H19287   6.527   5.933   2.787  1.1251 -1.9979  3.1242
  904MOL0     H19288   6.417   6.164   2.824 -1.4417 -3.4633 -1.9803
  904MOL0     H19289   6.549   6.213   2.925 -0.6978 -0.6748  0.0567
  904MOL0     H19290   6.378   6.007   3.262  2.2350 -0.4619 -2.0337
  904MOL0     H19291   6.281   6.152   3.430  2.7363 -0.1185 -0.1187
  904MOL0     H19292   6.172   6.666   3.549 -0.6033  1.2243  0.3207
  904MOL0     H19293   6.024   6.799   3.695  4.0582  0.2326 -1.5117
  904MOL0     H19294   5.682   6.621   3.778  1.1542  0.3404  1.9437
  904MOL0     H19295   5.587   6.731   3.674 -0.5122  0.1381  1.0361
  904MOL0     H19296   5.675   6.842   3.931  1.1113 -2.7256 -0.6063
  904MOL0     H19297   5.566   6.710   3.939  0.9069 -0.5854  0.8078
  904MOL0     H19298   5.404   6.832   3.785 -1.1071  1.9314 -1.8063
  904MOL0     H19299   5.519   6.965   3.762  1.0150  0.3316  0.9258
  904MOL0     H19300   5.430   6.890   4.029 -1.4946 -0.6322  0.0523
  904MOL0     H19301   5.517   7.045   3.978 -0.9988  0.9589 -1.1053
  904MOL0     H19302   5.224   6.967   3.906 -1.9113  0.8868  3.3693
  904MOL0     H19303   5.320   7.058   3.805  0.4837 -3.0889 -0.1080
  904MOL0     H19304   5.348   7.224   4.019 -0.1694 -0.3099  0.1222
  904MOL0     H19305   5.263   7.103   4.110 -0.8657 -0.5120 -0.2064
  904MOL0     H19306   5.073   7.125   3.941 -0.1559  1.8307 -1.2724
  904MOL0     H19307   5.093   7.266   4.050  1.8055  2.4252  0.2802
  904MOL0     H19308   5.199   7.244   3.760 -0.1936  0.9690 -0.6190
  904MOL0     H19309   5.208   7.385   3.862  0.3006  0.9606 -2.2281
  904MOL0     H19310   5.677   6.627   3.509 -0.0704  0.0048  1.0571
  904MOL0     H19311   5.819   6.490   3.362  0.0460 -0.7430  2.6837
  904MOL0     H19312   6.195   6.442   3.125 -0.9243 -1.6101 -3.0012
  904MOL0     H19313   6.328   6.335   2.971 -1.3614  2.0838  0.9818
  904MOL0     H19314   8.151   5.668   3.213  0.8222  1.3106  1.1662
  904MOL0     H19315   8.369   5.722   3.089  0.1427 -0.0061  0.6460
  904MOL0     H19316   8.486   6.241   2.685  2.6063  0.7692 -3.1325
  904MOL0     H19317   8.727   6.288   2.605 -0.7806 -0.7075 -1.0090
  904MOL0     H19318   9.043   5.995   2.639  0.5005  1.3560 -2.5220
  904MOL0     H19319   9.057   6.098   2.785  1.0303 -0.1002  0.0887
  904MOL0     H19320   9.104   6.226   2.529 -1.6493 -2.3110 -0.2779
  904MOL0     H19321   9.201   6.236   2.686 -4.5250  3.5497  0.3249
  904MOL0     H19322   9.251   6.089   2.435  0.9307 -0.0255  0.0598
  904MOL0     H19323   9.256   5.985   2.579  0.5774 -1.1325 -2.0113
  904MOL0     H19324   9.395   6.249   2.530 -0.0734 -0.3972 -1.7966
  904MOL0     H19325   9.435   6.138   2.665 -2.4843  0.4301  1.7072
  904MOL0     H19326   9.622   6.002   2.305  1.1406 -1.5927  2.1509
  904MOL0     H19327   8.857   5.945   2.807 -0.5285 -1.1195  1.4885
  904MOL0     H19328   8.648   5.904   2.910  3.6529 -1.3328 -0.8571
  905MOL0     O19329   7.649  10.514   6.356 -0.2080 -0.2968 -0.4704
  905MOL0     C19330   7.660  10.437   6.262  0.0019  0.8537 -0.2261
  905MOL0     O19331   7.643  10.463   6.133 -0.0635  0.0881 -0.3363
  905MOL0     C19332   7.575  10.578   6.092  0.7457 -0.5155  0.2141
  905MOL0     C19333   7.476  10.640   6.164  0.2208  0.5852  0.3328
  905MOL0     C19334   7.389  10.739   6.120  0.6160  0.5323  0.5158
  905MOL0     C19335   7.396  10.777   5.988 -0.5349 -0.5940 -0.2535
  905MOL0     O19336   7.305  10.850   5.920 -0.0976 -0.4525  0.4824
  905MOL0     C19337   7.186  10.896   5.986  0.4992  0.1845  0.4978
  905MOL0     C19338   7.093  10.947   5.876  0.1864 -0.1221  0.4748
  905MOL0     C19339   7.105  11.100   5.870  0.4698 -0.1942  0.4038
  905MOL0     C19340   7.024  11.163   5.753  0.6300 -0.2525  0.4397
  905MOL0     C19341   7.098  11.294   5.721  0.0122  0.3757 -0.5607
  905MOL0     C19342   7.015  11.375   5.617 -0.9064  0.5819 -0.2884
  905MOL0     C19343   7.062  11.339   5.477  0.1699 -0.2152 -0.2217
  905MOL0     C19344   6.958  11.354   5.364  0.0794 -0.2300  0.7647
  905MOL0     N19345   6.905  11.492   5.346 -0.4887 -0.4456 -0.2197
  905MOL0     C19346   6.989  11.602   5.353  0.0699 -0.0100  0.2588
  905MOL0     C19347   6.902  11.703   5.332 -0.4485 -0.2776 -0.4349
  905MOL0     C19348   6.947  11.840   5.324  0.0476 -0.3691  0.0996
  905MOL0     C19349   6.978  11.901   5.466 -0.9799 -0.0411  0.0162
  905MOL0     C19350   6.860  11.894   5.560  0.4005  0.5675  0.2277
  905MOL0     C19351   6.754  11.999   5.532  0.5980  0.0165  0.4162
  905MOL0     O19352   6.814  12.127   5.540  0.4291 -0.3513  0.7986
  905MOL0     C19353   6.731  12.242   5.534  0.5513 -0.1868 -0.5456
  905MOL0     C19354   6.800  12.362   5.557 -0.6981 -1.0390 -0.4253
  905MOL0     C19355   6.726  12.487   5.549 -0.7917  0.4410  0.2863
  905MOL0     C19356   6.591  12.483   5.544  0.2038 -0.8685  0.4948
  905MOL0     C19357   6.517  12.607   5.547 -0.9000  0.0524  0.2566
  905MOL0     O19358   6.386  12.596   5.522 -0.0986 -0.3481  0.4268
  905MOL0     C19359   6.317  12.713   5.482  0.6513  0.2789 -1.0013
  905MOL0     C19360   6.183  12.715   5.504 -0.3398 -0.0089 -0.1988
  905MOL0     C19361   6.087  12.795   5.442 -0.3036 -0.1516 -0.8300
  905MOL0     C19362   6.130  12.891   5.342  0.6173  0.5321 -0.4378
  905MOL0     O19363   6.045  12.970   5.272  0.1367  0.7122 -0.7191
  905MOL0     C19364   6.097  13.084   5.195  0.6530  0.9133  0.4352
  905MOL0     C19365   5.984  13.148   5.116  0.5589 -0.5429  0.7756
  905MOL0     C19366   5.868  13.215   5.187 -0.6335 -0.2605 -0.3538
  905MOL0     C19367   5.803  13.302   5.077 -0.6257  0.8809 -0.1464
  905MOL0     C19368   5.670  13.362   5.113 -0.3639 -0.1894  0.2614
  905MOL0     C19369   5.607  13.417   4.981 -0.0662  0.6220  0.7617
  905MOL0     C19370   5.510  13.317   4.914  0.3920 -0.0531 -0.5855
  905MOL0     C19371   5.396  13.388   4.854  0.2708  0.2409 -0.4432
  905MOL0    Cl19372   5.288  13.257   4.780 -0.3253 -0.4596 -0.1370
  905MOL0     C19373   6.273  12.897   5.318 -0.6215 -0.0365 -0.7398
  905MOL0     C19374   6.361  12.812   5.393 -0.3006  0.6317  0.5609
  905MOL0     O19375   6.587  12.714   5.556 -0.4892  0.0037  1.2015
  905MOL0     C19376   6.521  12.362   5.529 -0.8736 -0.2729 -0.6195
  905MOL0     C19377   6.588  12.247   5.512 -1.1893  0.4656 -0.1878
  905MOL0     N19378   6.774  11.662   5.328 -0.0557  0.8922  0.4875
  905MOL0     N19379   6.777  11.533   5.337 -0.1597  0.1732 -0.0269
  905MOL0     C19380   7.496  10.726   5.907  0.0479 -0.0531 -0.4803
  905MOL0     C19381   7.591  10.630   5.956 -0.4081  0.2402  0.1021
  905MOL0     C19382   7.680  10.297   6.312  0.5755 -0.0587  0.6153
  905MOL0     C19383   7.648  10.266   6.439 -0.6697 -0.4623 -0.0072
  905MOL0     C19384   7.654  10.130   6.478 -0.2558 -0.2512  0.2694
  905MOL0     C19385   7.685  10.030   6.391  0.3660  0.9840  0.6549
  905MOL0     O19386   7.696   9.900   6.428  0.1881 -0.0617  0.7218
  905MOL0     C19387   7.823   9.851   6.467 -0.0564 -0.3875  0.5650
  905MOL0     C19388   7.822   9.708   6.512 -0.0761 -0.9776 -0.2038
  905MOL0     C19389   7.761   9.684   6.645  0.5622 -0.4133 -0.6296
  905MOL0     C19390   7.734   9.542   6.691  0.7906  0.8254  0.8289
  905MOL0     C19391   7.672   9.455   6.603 -0.5584  1.1722 -0.2751
  905MOL0     C19392   7.612   9.379   6.532 -0.2583 -0.4315  0.3426
  905MOL0     C19393   7.720  10.062   6.258  0.6548  0.1612  1.3247
  905MOL0     C19394   7.720  10.197   6.220 -0.1040  0.2584  0.9799
  905MOL0     H19395   7.461  10.605   6.266  0.1469 -1.4500 -0.3186
  905MOL0     H19396   7.325  10.781   6.197 -0.7654  0.3322 -0.4828
  905MOL0     H19397   7.199  10.976   6.059 -3.5432  1.3309  0.1804
  905MOL0     H19398   7.120  10.815   6.019 -0.3883  0.3603 -0.7854
  905MOL0     H19399   6.988  10.923   5.897  1.1648 -5.9086  0.3810
  905MOL0     H19400   7.121  10.900   5.782  0.5486  1.7521 -0.3914
  905MOL0     H19401   7.212  11.121   5.872  0.3569  1.2111 -2.5879
  905MOL0     H19402   7.065  11.149   5.959  1.2071  3.1769 -0.9743
  905MOL0     H19403   7.025  11.108   5.659 -1.5005  2.5634 -1.3941
  905MOL0     H19404   6.925  11.183   5.793  1.2081  0.2534  1.6708
  905MOL0     H19405   7.201  11.277   5.686  0.0967 -0.1089 -0.0979
  905MOL0     H19406   7.106  11.349   5.815  2.0544  2.7404 -1.9995
  905MOL0     H19407   7.037  11.481   5.633 -1.1143  0.8787 -1.8616
  905MOL0     H19408   6.907  11.368   5.636 -1.2057 -0.4393 -2.2075
  905MOL0     H19409   7.157  11.390   5.460  0.2787  0.1951  1.4061
  905MOL0     H19410   7.097  11.236   5.483  3.4647  0.8506  0.4898
  905MOL0     H19411   6.872  11.292   5.391 -2.2880  3.5215  2.7311
  905MOL0     H19412   6.998  11.322   5.267  6.8710 -0.8642  3.2481
  905MOL0     H19413   7.097  11.603   5.359  0.1887  0.9826 -1.3355
  905MOL0     H19414   6.872  11.911   5.288  1.2548  1.3002  0.7437
  905MOL0     H19415   7.033  11.843   5.256  2.1233  1.7602  2.6156
  905MOL0     H19416   7.023  12.001   5.461 -1.6909  0.2874 -0.0793
  905MOL0     H19417   7.057  11.839   5.508  0.6717  1.4920 -0.6656
  905MOL0     H19418   6.801  11.802   5.573 -1.1886  1.8685  3.0961
  905MOL0     H19419   6.892  11.907   5.664 -0.8671  2.9362  0.3672
  905MOL0     H19420   6.677  11.985   5.608  0.6176  0.3405  0.4966
  905MOL0     H19421   6.725  11.988   5.427  0.3786 -0.7784  0.5520
  905MOL0     H19422   6.908  12.373   5.571 -1.1689  0.3059  3.3303
  905MOL0     H19423   6.773  12.585   5.553  0.1576  0.0460 -0.7831
  905MOL0     H19424   6.140  12.646   5.576 -2.4624 -1.6791 -2.8819
  905MOL0     H19425   5.979  12.785   5.450 -0.4507  0.8743 -1.4210
  905MOL0     H19426   6.174  13.059   5.122  1.5987 -1.2902  2.0648
  905MOL0     H19427   6.142  13.151   5.270 -6.1883  2.1847  4.2549
  905MOL0     H19428   5.935  13.069   5.058 -0.0307 -0.1350  0.7165
  905MOL0     H19429   6.034  13.215   5.045  1.9237 -2.6242 -0.3350
  905MOL0     H19430   5.906  13.287   5.259  0.7117 -1.1032 -0.1859
  905MOL0     H19431   5.802  13.143   5.237 -1.4246  0.3942 -0.4366
  905MOL0     H19432   5.869  13.379   5.037  1.9407 -2.5518 -3.2872
  905MOL0     H19433   5.790  13.236   4.990  2.0233  0.6970 -0.4993
  905MOL0     H19434   5.694  13.448   5.176 -1.0061 -0.3511  0.7378
  905MOL0     H19435   5.603  13.301   5.175  0.4381 -0.1748  1.1712
  905MOL0     H19436   5.681  13.456   4.911 -0.8531  3.6485  1.4707
  905MOL0     H19437   5.554  13.505   5.018  1.4475  0.5803  3.3053
  905MOL0     H19438   5.556  13.254   4.837  2.3171 -0.0365  0.4779
  905MOL0     H19439   5.465  13.251   4.988 -3.0904  2.4768 -0.2045
  905MOL0     H19440   5.438  13.452   4.776  2.4256  0.5569  0.9055
  905MOL0     H19441   5.338  13.449   4.924  0.2319 -1.0181  0.6625
  905MOL0     H19442   6.325  12.952   5.240  2.1606 -2.0571 -0.4528
  905MOL0     H19443   6.467  12.812   5.370 -0.6954  3.1164 -1.7762
  905MOL0     H19444   6.412  12.353   5.532 -0.7790 -1.4075  1.2790
  905MOL0     H19445   6.542  12.154   5.479 -2.7408  1.6142 -1.4240
  905MOL0     H19446   7.492  10.763   5.805 -2.5086  0.0996 -0.4007
  905MOL0     H19447   7.667  10.587   5.892 -2.8012 -0.6398 -2.3282
  905MOL0     H19448   7.604  10.336   6.509 -1.4709  0.5770 -1.4991
  905MOL0     H19449   7.623  10.097   6.577  1.5617 -0.9571  0.6437
  905MOL0     H19450   7.862   9.920   6.542 -0.5190  0.9198 -0.3591
  905MOL0     H19451   7.891   9.855   6.381  0.5297 -2.1121  0.8996
  905MOL0     H19452   7.782   9.644   6.433  0.2472 -1.1464 -0.2321
  905MOL0     H19453   7.927   9.681   6.520  1.1521  2.5410 -2.3235
  905MOL0     H19454   7.666   9.738   6.653 -0.2083 -1.7989 -0.1319
  905MOL0     H19455   7.833   9.714   6.722  0.3952 -1.2871 -0.1171
  905MOL0     H19456   7.827   9.492   6.720  0.9707 -0.0343 -1.0899
  905MOL0     H19457   7.678   9.564   6.783  0.1811 -0.7296  0.8533
  905MOL0     H19458   7.582   9.310   6.455  0.6550  1.1163 -1.4744
  905MOL0     H19459   7.753   9.988   6.185 -3.1604 -2.1803  1.6655
  905MOL0     H19460   7.741  10.235   6.120 -0.3622  1.4910  1.3677
  906MOL0     O19461   5.408   7.493   2.298 -0.1886 -0.2594  0.0121
  906MOL0     C19462   5.364   7.505   2.186  0.4748  0.9911  0.7633
  906MOL0     O19463   5.423   7.449   2.073  0.2003 -0.4443  0.6709
  906MOL0     C19464   5.538   7.371   2.079 -0.1462 -0.3449 -1.4357
  906MOL0     C19465   5.534   7.245   2.030 -0.4369  0.1580 -0.9018
  906MOL0     C19466   5.658   7.174   2.011 -0.3298 -0.3882 -0.3935
  906MOL0     C19467   5.775   7.227   2.069 -0.1990  0.1606 -0.4319
  906MOL0     O19468   5.904   7.178   2.053  0.2060  0.1734 -0.1863
  906MOL0     C19469   5.978   7.121   2.165  1.0840 -0.5771 -0.7635
  906MOL0     C19470   5.921   6.978   2.185 -0.1894  0.2856  0.1283
  906MOL0     C19471   6.001   6.871   2.114 -0.5272 -0.4909 -0.7387
  906MOL0     C19472   5.938   6.841   1.981 -0.6924  0.1247 -0.2105
  906MOL0     C19473   6.032   6.767   1.889  0.2993  1.1098  0.1253
  906MOL0     C19474   6.140   6.856   1.827  0.2158  0.0635 -0.5590
  906MOL0     C19475   6.250   6.758   1.772  0.8755 -1.2181 -0.3676
  906MOL0     C19476   6.357   6.847   1.704  0.2336 -0.9155  0.4972
  906MOL0     N19477   6.455   6.767   1.631  0.2645  0.3141 -0.4759
  906MOL0     C19478   6.557   6.799   1.544 -0.5664 -0.0480  0.9728
  906MOL0     C19479   6.625   6.678   1.516  0.2977 -0.0034  0.3516
  906MOL0     C19480   6.755   6.650   1.444  0.0418 -0.0183 -0.5069
  906MOL0     C19481   6.848   6.568   1.529  0.0177 -0.0325  0.3331
  906MOL0     C19482   6.919   6.647   1.649  0.0485 -1.1053  1.3284
  906MOL0     C19483   7.034   6.568   1.707  0.2507 -0.6047 -0.0919
  906MOL0     O19484   7.128   6.508   1.608  0.6123  0.2490 -0.2104
  906MOL0     C19485   7.251   6.566   1.597  0.0878  0.1111  0.4106
  906MOL0     C19486   7.336   6.491   1.510  0.0287 -0.0118 -0.3191
  906MOL0     C19487   7.467   6.529   1.504 -1.0236  0.3480 -0.3675
  906MOL0     C19488   7.523   6.637   1.576 -0.1138 -0.1476  0.1653
  906MOL0     C19489   7.664   6.677   1.565 -0.2267  0.7101 -0.9768
  906MOL0     O19490   7.711   6.801   1.609  0.0361  0.3852 -0.9683
  906MOL0     C19491   7.837   6.843   1.572 -0.7724 -0.5555  0.7003
  906MOL0     C19492   7.890   6.833   1.441 -0.4215 -1.4465  0.5979
  906MOL0     C19493   8.008   6.896   1.412 -0.7679  0.5237  0.8467
  906MOL0     C19494   8.076   6.963   1.506  0.0545  0.3989 -0.0613
  906MOL0     O19495   8.193   7.024   1.467  0.5029 -0.0646 -0.0226
  906MOL0     C19496   8.196   7.166   1.473  1.0504  0.4364 -0.0470
  906MOL0     C19497   8.337   7.207   1.429  0.9008 -0.5028  0.7334
  906MOL0     C19498   8.443   7.162   1.535 -0.0061 -0.1921 -0.7539
  906MOL0     C19499   8.592   7.200   1.499  0.0303  0.0294  0.3425
  906MOL0     C19500   8.689   7.169   1.613  0.7415  0.2870 -0.5124
  906MOL0     C19501   8.833   7.180   1.561 -0.0903  0.4205  0.1771
  906MOL0     C19502   8.944   7.148   1.673 -0.1147 -0.3450 -0.3871
  906MOL0     C19503   8.936   7.232   1.804 -0.3386  0.6092  0.3647
  906MOL0    Cl19504   9.068   7.166   1.914  0.0794 -0.1236  0.2740
  906MOL0     C19505   8.028   6.990   1.634  0.6963  0.4986 -0.6618
  906MOL0     C19506   7.898   6.927   1.656 -0.0186  0.0290  0.0176
  906MOL0     O19507   7.732   6.592   1.521 -0.4939  0.1018  0.1009
  906MOL0     C19508   7.443   6.717   1.659 -0.2429 -1.1295  0.2072
  906MOL0     C19509   7.304   6.689   1.661 -0.1546 -0.2142 -0.2403
  906MOL0     N19510   6.566   6.581   1.599  0.8949 -0.1624  0.1404
  906MOL0     N19511   6.472   6.642   1.663 -0.3263  0.2879  0.3671
  906MOL0     C19512   5.778   7.353   2.139 -0.0075  0.3382  0.1637
  906MOL0     C19513   5.659   7.427   2.131 -0.0120  0.2709  0.8805
  906MOL0     C19514   5.226   7.560   2.160  0.1843 -0.5143 -0.7666
  906MOL0     C19515   5.176   7.656   2.262  0.1864  0.3293  0.3572
  906MOL0     C19516   5.056   7.711   2.241  0.1532 -0.8310 -0.4867
  906MOL0     C19517   4.976   7.696   2.125  0.0719 -1.0931 -0.3518
  906MOL0     O19518   4.855   7.755   2.092  0.4187  0.6275 -0.2359
  906MOL0     C19519   4.771   7.819   2.190 -0.2431  0.0762  0.4170
  906MOL0     C19520   4.689   7.918   2.105 -0.0579 -0.6080 -0.3258
  906MOL0     C19521   4.782   8.022   2.034  0.7601 -1.3675 -0.6417
  906MOL0     C19522   4.711   8.098   1.928  0.3302 -0.0523  0.2219
  906MOL0     C19523   4.613   8.197   1.990  0.1838 -0.1000  0.1291
  906MOL0     C19524   4.533   8.283   2.032  0.0392 -0.0235 -0.2256
  906MOL0     C19525   5.037   7.626   2.019  0.4000 -0.3159 -0.7963
  906MOL0     C19526   5.152   7.547   2.041  1.0116  0.1762 -0.4623
  906MOL0     H19527   5.451   7.211   1.971 -1.7856 -0.1191  1.0464
  906MOL0     H19528   5.650   7.073   1.972  0.5017 -1.0358  1.0612
  906MOL0     H19529   5.974   7.182   2.256  1.8582  0.6420 -1.5030
  906MOL0     H19530   6.085   7.125   2.141  2.2099 -2.9597  3.1061
  906MOL0     H19531   5.813   6.978   2.170 -0.3885 -0.1313  1.4189
  906MOL0     H19532   5.929   6.957   2.292  0.4197  0.5816  0.1452
  906MOL0     H19533   6.020   6.779   2.171 -4.0025 -2.3634 -2.2934
  906MOL0     H19534   6.095   6.926   2.098 -0.2564  1.8203  5.7879
  906MOL0     H19535   5.853   6.772   1.991 -1.7509  0.8501 -3.1705
  906MOL0     H19536   5.907   6.933   1.930 -1.9151  0.2759  0.7473
  906MOL0     H19537   5.984   6.704   1.813 -1.9879 -0.6736  2.8223
  906MOL0     H19538   6.083   6.696   1.954 -2.0584 -0.6874  0.1481
  906MOL0     H19539   6.191   6.925   1.895  3.9426 -3.8402  1.0513
  906MOL0     H19540   6.096   6.912   1.744 -0.2885  1.1943  0.4485
  906MOL0     H19541   6.297   6.707   1.856  1.3807 -0.2733 -0.0584
  906MOL0     H19542   6.205   6.686   1.703 -1.7214  0.0038 -0.0730
  906MOL0     H19543   6.418   6.902   1.777 -0.9209  0.8462  0.1959
  906MOL0     H19544   6.318   6.925   1.638  2.1173 -0.6214 -0.3236
  906MOL0     H19545   6.580   6.899   1.509  1.0336 -0.8004 -0.2536
  906MOL0     H19546   6.795   6.746   1.410 -0.1410  0.1009 -0.3861
  906MOL0     H19547   6.748   6.590   1.352 -0.0287 -0.5414 -0.1616
  906MOL0     H19548   6.927   6.529   1.464 -1.9570 -0.5048 -1.9560
  906MOL0     H19549   6.798   6.476   1.561  2.4746 -0.5901  2.8847
  906MOL0     H19550   6.956   6.741   1.609 -2.5046 -0.4154  0.4320
  906MOL0     H19551   6.846   6.672   1.727 -2.3002  0.6453 -1.2748
  906MOL0     H19552   6.977   6.487   1.755 -3.6600  2.1305  0.3185
  906MOL0     H19553   7.087   6.616   1.789  1.8272 -1.0247 -0.8137
  906MOL0     H19554   7.300   6.401   1.459 -1.1267  1.3294 -2.0014
  906MOL0     H19555   7.533   6.482   1.433 -0.4370 -1.4567  1.2817
  906MOL0     H19556   7.834   6.779   1.365  1.5381 -0.4292 -1.7038
  906MOL0     H19557   8.060   6.894   1.316  1.2003  1.0510  1.8464
  906MOL0     H19558   8.180   7.197   1.577 -0.1780  2.6029 -0.8192
  906MOL0     H19559   8.118   7.214   1.413 -0.1490 -1.6689 -0.2620
  906MOL0     H19560   8.354   7.314   1.412  0.5700 -0.7154 -1.1139
  906MOL0     H19561   8.360   7.171   1.328 -0.5614 -0.0989  0.2298
  906MOL0     H19562   8.438   7.054   1.546  3.0178 -0.4242 -0.9142
  906MOL0     H19563   8.432   7.214   1.630  0.7031  1.6235 -1.6128
  906MOL0     H19564   8.613   7.138   1.411 -3.9190  0.3208 -0.9642
  906MOL0     H19565   8.596   7.306   1.472 -0.9230 -0.0081  0.0162
  906MOL0     H19566   8.665   7.074   1.663  3.1120  0.2045  0.6245
  906MOL0     H19567   8.673   7.244   1.691 -0.2488 -1.5746  1.1873
  906MOL0     H19568   8.858   7.277   1.517 -1.3231  0.2133 -1.0824
  906MOL0     H19569   8.842   7.109   1.478 -3.1010  0.1961 -0.0603
  906MOL0     H19570   8.938   7.040   1.688 -1.7557 -0.3750 -1.0261
  906MOL0     H19571   9.047   7.160   1.638 -0.3159 -1.0246 -1.2291
  906MOL0     H19572   8.837   7.216   1.847 -0.1441 -1.9891  0.0291
  906MOL0     H19573   8.958   7.336   1.780  0.5500  0.6476  1.2996
  906MOL0     H19574   8.102   7.036   1.699  2.9866 -0.8024 -2.2164
  906MOL0     H19575   7.852   6.944   1.753  0.9253 -1.9166  0.8806
  906MOL0     H19576   7.490   6.795   1.719 -1.5242 -1.4412  1.6893
  906MOL0     H19577   7.243   6.745   1.730 -0.2205  0.1277 -0.5726
  906MOL0     H19578   5.859   7.390   2.202 -0.6917 -2.0663  2.6288
  906MOL0     H19579   5.655   7.528   2.171 -0.0808  1.0814 -1.0703
  906MOL0     H19580   5.226   7.680   2.355 -0.5615  0.2467  0.7888
  906MOL0     H19581   5.032   7.783   2.318  0.8691 -0.3764 -0.6732
  906MOL0     H19582   4.828   7.882   2.259  2.4796  3.3568 -4.2557
  906MOL0     H19583   4.703   7.750   2.242 -1.0833 -1.5766 -2.6372
  906MOL0     H19584   4.629   7.865   2.031 -2.3179 -1.7163  2.1259
  906MOL0     H19585   4.625   7.977   2.172  1.8977  2.2933 -0.8449
  906MOL0     H19586   4.867   7.974   1.984 -0.1036  1.2724 -5.2407
  906MOL0     H19587   4.821   8.094   2.107 -0.3834 -0.9842 -0.3959
  906MOL0     H19588   4.797   8.140   1.875  1.6004 -3.2443 -0.4449
  906MOL0     H19589   4.647   8.034   1.866 -0.9364  0.2188  1.2155
  906MOL0     H19590   4.467   8.360   2.067 -0.4282  0.7810 -2.7126
  906MOL0     H19591   4.992   7.637   1.921  0.4983 -0.3325 -0.8433
  906MOL0     H19592   5.178   7.493   1.950 -2.9908 -0.2699 -1.4961
  907MOL0     O19593   1.248   3.332   2.249 -0.5217 -0.4142  0.3119
  907MOL0     C19594   1.199   3.229   2.210  0.5839  0.2545  0.0412
  907MOL0     O19595   1.067   3.215   2.171  0.8602 -0.3443 -0.2064
  907MOL0     C19596   0.990   3.327   2.168  1.0500  0.1212  0.2224
  907MOL0     C19597   0.932   3.381   2.051  0.3457 -0.0154 -0.7972
  907MOL0     C19598   0.841   3.497   2.063  0.2514 -0.8163  0.8065
  907MOL0     C19599   0.801   3.550   2.178  0.8555  0.2857 -0.6020
  907MOL0     O19600   0.714   3.659   2.173  0.3926 -0.4401  0.0331
  907MOL0     C19601   0.657   3.715   2.294 -0.6155  0.2849  0.2486
  907MOL0     C19602   0.524   3.639   2.320  0.3060  0.1048  0.1474
  907MOL0     C19603   0.413   3.677   2.221  0.0980  0.7022  0.2339
  907MOL0     C19604   0.283   3.599   2.249 -0.0842  0.4209 -0.1612
  907MOL0     C19605   0.156   3.687   2.254 -0.0625  0.5467  0.0737
  907MOL0     C19606   0.120   3.739   2.109 -0.0014 -1.2103 -0.7268
  907MOL0     C19607  -0.028   3.787   2.107 -0.3167  0.6166 -0.0448
  907MOL0     C19608  -0.079   3.830   1.979 -0.9199  0.0619  0.5249
  907MOL0     N19609  -0.178   3.942   1.993  0.1877  0.7144 -1.1402
  907MOL0     C19610  -0.314   3.918   1.974  0.2976 -0.6836 -0.5390
  907MOL0     C19611  -0.378   4.031   2.009 -0.0821 -0.9658  0.5410
  907MOL0     C19612  -0.524   4.051   1.998 -0.0399  0.2016 -0.3683
  907MOL0     C19613  -0.566   4.150   1.888  0.1408  0.0784 -0.3614
  907MOL0     C19614  -0.706   4.211   1.898 -0.5743  0.5003  0.2900
  907MOL0     C19615  -0.812   4.111   1.860  0.3235 -0.0494 -0.5292
  907MOL0     O19616  -0.832   4.109   1.721 -0.1443  0.8981  0.2342
  907MOL0     C19617  -0.951   4.066   1.672  0.4923 -0.4154  0.7479
  907MOL0     C19618  -1.069   4.081   1.737 -0.3555  0.4272  0.9074
  907MOL0     C19619  -1.191   4.031   1.678 -0.0795 -0.0841  0.6349
  907MOL0     C19620  -1.186   3.966   1.555  0.0814 -0.2031  0.4719
  907MOL0     C19621  -1.312   3.908   1.493 -0.3550 -0.2000  0.3584
  907MOL0     O19622  -1.294   3.839   1.385 -0.7346 -0.9309 -0.3605
  907MOL0     C19623  -1.384   3.755   1.328  0.2660 -0.4444  0.6516
  907MOL0     C19624  -1.508   3.712   1.393  0.1981 -0.6555 -0.5611
  907MOL0     C19625  -1.589   3.609   1.343 -0.2095  0.3092  0.3005
  907MOL0     C19626  -1.557   3.546   1.223 -1.1953 -1.0143  0.1689
  907MOL0     O19627  -1.643   3.446   1.184  0.0784 -0.0934 -0.0363
  907MOL0     C19628  -1.608   3.369   1.068  0.0325 -1.5087  0.0794
  907MOL0     C19629  -1.690   3.427   0.950  0.4824 -0.0561  0.1888
  907MOL0     C19630  -1.842   3.433   0.969 -0.2367  0.6778  0.8914
  907MOL0     C19631  -1.913   3.511   0.853  0.1915 -0.8400 -0.6881
  907MOL0     C19632  -1.894   3.454   0.711  0.2237 -0.0662  0.7727
  907MOL0     C19633  -2.000   3.511   0.618 -0.2598 -0.3722  0.0966
  907MOL0     C19634  -2.006   3.429   0.489 -0.3862 -0.0766 -0.4564
  907MOL0     C19635  -2.110   3.481   0.390 -0.9239 -0.4892 -0.5258
  907MOL0    Cl19636  -2.054   3.630   0.310  0.1946 -0.0767  0.2750
  907MOL0     C19637  -1.443   3.600   1.147  0.0842 -1.2521 -0.6241
  907MOL0     C19638  -1.357   3.700   1.203  0.4347 -0.0425  0.0234
  907MOL0     O19639  -1.415   3.929   1.551  0.1346  0.8635  0.3947
  907MOL0     C19640  -1.068   3.976   1.479  0.5574  0.1102 -0.0325
  907MOL0     C19641  -0.951   4.012   1.540 -0.3002 -0.1236  0.4781
  907MOL0     N19642  -0.281   4.131   2.037 -0.3224  0.7737  0.3412
  907MOL0     N19643  -0.162   4.066   2.033  0.1790 -0.2591 -0.2444
  907MOL0     C19644   0.858   3.499   2.300 -1.5031  0.9530  1.2460
  907MOL0     C19645   0.955   3.390   2.284  0.6506  0.0830 -0.3782
  907MOL0     C19646   1.296   3.119   2.218 -0.3202 -0.0896 -0.4178
  907MOL0     C19647   1.295   3.016   2.121  0.2418 -0.8195 -0.0193
  907MOL0     C19648   1.380   2.910   2.132  0.6914  0.4261 -0.9587
  907MOL0     C19649   1.474   2.892   2.234  0.3760  0.4780  0.1122
  907MOL0     O19650   1.545   2.782   2.224 -0.8441 -0.5667  0.0103
  907MOL0     C19651   1.604   2.720   2.339 -0.0924  0.0711 -0.4855
  907MOL0     C19652   1.598   2.573   2.304 -0.0691 -0.4812  1.1237
  907MOL0     C19653   1.622   2.480   2.417  0.4117  0.7080 -0.1212
  907MOL0     C19654   1.498   2.442   2.495 -0.0285 -0.0691 -0.3088
  907MOL0     C19655   1.522   2.324   2.577  0.9588 -0.6914 -0.2660
  907MOL0     C19656   1.548   2.234   2.646 -0.2588 -0.3519  0.0897
  907MOL0     C19657   1.485   2.995   2.328 -0.1648  0.6222  0.4609
  907MOL0     C19658   1.405   3.113   2.312  0.0443  0.9977 -0.0256
  907MOL0     H19659   0.944   3.343   1.950 -0.6164  1.3952 -1.4740
  907MOL0     H19660   0.808   3.537   1.967 -1.7355 -5.0193 -0.5008
  907MOL0     H19661   0.626   3.818   2.272 -1.0628  0.0527 -0.2138
  907MOL0     H19662   0.734   3.729   2.371 -1.7307 -0.0518  1.4625
  907MOL0     H19663   0.493   3.661   2.422  0.1788 -1.7686  0.5568
  907MOL0     H19664   0.545   3.534   2.297 -0.9294  0.4923 -3.2699
  907MOL0     H19665   0.432   3.644   2.118 -0.1154  0.1080  0.3822
  907MOL0     H19666   0.405   3.786   2.209  2.0269  0.9293  0.6764
  907MOL0     H19667   0.261   3.523   2.173 -0.0344  1.9190 -1.7216
  907MOL0     H19668   0.296   3.545   2.344  0.9244 -0.3352 -0.7070
  907MOL0     H19669   0.154   3.770   2.326 -2.7229  0.2763  0.4288
  907MOL0     H19670   0.079   3.619   2.291  0.2425  0.5526  0.7358
  907MOL0     H19671   0.113   3.656   2.038 -1.1204 -3.0101  1.3437
  907MOL0     H19672   0.184   3.820   2.073  0.7539 -0.1174  2.7669
  907MOL0     H19673  -0.093   3.703   2.135  0.3217  0.4868  1.0906
  907MOL0     H19674  -0.046   3.865   2.181 -0.9105 -3.7233  5.0164
  907MOL0     H19675  -0.130   3.745   1.934  2.0659 -0.8048 -1.5020
  907MOL0     H19676   0.004   3.865   1.918  0.9252  3.4402  4.4104
  907MOL0     H19677  -0.361   3.823   1.955  3.2122 -2.5963  0.9115
  907MOL0     H19678  -0.547   4.088   2.099 -2.1288 -2.5196  0.2502
  907MOL0     H19679  -0.575   3.954   1.999 -3.1867  1.7103  1.5032
  907MOL0     H19680  -0.565   4.109   1.787  0.6186 -1.2931  0.1734
  907MOL0     H19681  -0.491   4.230   1.893  0.4031 -0.2152  0.7043
  907MOL0     H19682  -0.710   4.262   1.995  1.5284 -1.5447  1.5915
  907MOL0     H19683  -0.696   4.293   1.827  4.1328 -0.1217 -0.1336
  907MOL0     H19684  -0.892   4.158   1.918  0.9815 -0.1728  0.4947
  907MOL0     H19685  -0.796   4.012   1.904  2.6859  0.3251 -0.4119
  907MOL0     H19686  -1.078   4.136   1.830  3.1701  1.9571  0.5213
  907MOL0     H19687  -1.288   4.040   1.726 -1.3169 -2.8168 -1.1118
  907MOL0     H19688  -1.546   3.755   1.485  2.8723  1.0968 -0.1449
  907MOL0     H19689  -1.676   3.570   1.395  0.6546 -0.9394  0.8661
  907MOL0     H19690  -1.653   3.269   1.075 -2.1763 -0.4889  1.5836
  907MOL0     H19691  -1.500   3.368   1.049  0.0925  2.0623 -0.3884
  907MOL0     H19692  -1.674   3.358   0.866 -3.3429 -1.1378  0.1514
  907MOL0     H19693  -1.647   3.523   0.920  1.0434  0.0331  1.2466
  907MOL0     H19694  -1.862   3.469   1.071 -0.8525 -0.0676  1.0426
  907MOL0     H19695  -1.867   3.327   0.979  0.0318  0.4766 -0.4384
  907MOL0     H19696  -2.020   3.508   0.874  0.3492 -1.4943  0.0503
  907MOL0     H19697  -1.890   3.618   0.854  1.8181 -1.1586  0.4911
  907MOL0     H19698  -1.896   3.344   0.713  1.1782 -0.0796  2.0203
  907MOL0     H19699  -1.794   3.477   0.672  0.5717  0.4345  1.9157
  907MOL0     H19700  -1.974   3.614   0.594  0.8272  0.0163  2.6479
  907MOL0     H19701  -2.097   3.513   0.670  0.8270 -1.0549  2.2615
  907MOL0     H19702  -1.908   3.429   0.439  0.8907 -1.0875  1.8876
  907MOL0     H19703  -2.021   3.324   0.515  1.1941  0.2220  1.9536
  907MOL0     H19704  -2.203   3.499   0.444 -0.2826 -0.0839  0.4745
  907MOL0     H19705  -2.129   3.403   0.315  0.1886 -1.9277  0.6297
  907MOL0     H19706  -1.414   3.571   1.046 -0.1465  1.5584 -1.5775
  907MOL0     H19707  -1.265   3.733   1.156  0.4381 -2.3728 -1.7240
  907MOL0     H19708  -1.062   3.938   1.378 -0.2716 -0.8467  0.2631
  907MOL0     H19709  -0.852   4.014   1.496 -1.8003  1.7466 -3.3574
  907MOL0     H19710   0.836   3.550   2.393  1.8250 -0.7597  3.1755
  907MOL0     H19711   0.998   3.345   2.372  3.2943  2.3144 -0.4073
  907MOL0     H19712   1.220   3.006   2.043  2.2863 -2.8411 -1.8726
  907MOL0     H19713   1.364   2.824   2.068 -2.2070 -1.0784  1.5034
  907MOL0     H19714   1.553   2.740   2.434 -0.6395  2.9217 -1.2658
  907MOL0     H19715   1.707   2.758   2.339  0.8276 -1.9044  3.6936
  907MOL0     H19716   1.499   2.552   2.261  0.7647  0.1125 -1.2170
  907MOL0     H19717   1.665   2.544   2.223 -2.7352 -0.0229 -1.4121
  907MOL0     H19718   1.688   2.520   2.494  0.7286 -1.7860  1.0234
  907MOL0     H19719   1.678   2.395   2.378  0.4981 -0.5278  2.4647
  907MOL0     H19720   1.461   2.521   2.560 -3.1506 -0.7075 -1.1673
  907MOL0     H19721   1.423   2.417   2.419 -0.0175 -4.0694  0.7707
  907MOL0     H19722   1.575   2.156   2.714  4.6039 -1.4148 -2.5485
  907MOL0     H19723   1.559   2.980   2.405  2.1270  1.1698 -1.5024
  907MOL0     H19724   1.409   3.191   2.388  1.4642  1.8039 -0.8947
  908MOL0     O19725   6.066   2.992   8.686  0.9907  0.1132 -0.1195
  908MOL0     C19726   6.080   3.110   8.729 -0.3382 -0.2365  0.6705
  908MOL0     O19727   5.990   3.203   8.731  0.0157  0.2052  0.1550
  908MOL0     C19728   5.878   3.168   8.657  0.7330  0.0152 -0.8476
  908MOL0     C19729   5.764   3.118   8.720 -0.0310 -0.2125  0.4471
  908MOL0     C19730   5.648   3.108   8.635  0.1046 -0.8039 -0.8628
  908MOL0     C19731   5.642   3.122   8.501  0.5888 -0.6014 -0.0607
  908MOL0     O19732   5.515   3.116   8.453  0.4933  0.8218 -0.1302
  908MOL0     C19733   5.503   3.015   8.344  0.5994 -1.3769  0.6665
  908MOL0     C19734   5.348   2.997   8.318 -0.3165  0.3911 -0.6282
  908MOL0     C19735   5.296   3.066   8.204  0.1166  0.5386 -0.9574
  908MOL0     C19736   5.156   3.019   8.190 -0.1698  0.1719  0.1020
  908MOL0     C19737   5.080   3.091   8.083 -0.8291 -1.0368 -0.5698
  908MOL0     C19738   4.953   3.004   8.051 -0.4226 -0.3837  0.0107
  908MOL0     C19739   4.864   3.072   7.958  0.8482 -0.0587  1.4276
  908MOL0     C19740   4.929   3.092   7.817  0.5760 -0.0592 -1.0738
  908MOL0     N19741   4.840   3.119   7.707 -0.6400 -0.5949 -1.0748
  908MOL0     C19742   4.775   3.039   7.617  0.2178  0.3612 -0.0222
  908MOL0     C19743   4.671   3.119   7.576 -0.4411  0.1160 -1.0643
  908MOL0     C19744   4.541   3.094   7.504 -0.7750 -0.0211  0.4248
  908MOL0     C19745   4.431   3.013   7.584 -0.2778  0.3288 -0.3230
  908MOL0     C19746   4.410   3.102   7.708  0.5980  0.1268 -0.4277
  908MOL0     C19747   4.340   3.021   7.815  0.1573  0.4924 -0.8244
  908MOL0     O19748   4.285   3.110   7.909 -0.7034  0.2273  0.8342
  908MOL0     C19749   4.238   3.057   8.027  1.0589  1.0708 -0.7050
  908MOL0     C19750   4.268   2.927   8.077 -0.6064 -0.4456 -0.3080
  908MOL0     C19751   4.206   2.868   8.191  1.2209  0.7672  0.3578
  908MOL0     C19752   4.121   2.945   8.268  0.8000 -0.3049  0.0298
  908MOL0     C19753   4.049   2.889   8.383 -0.5820 -0.4900  0.2151
  908MOL0     O19754   4.074   2.762   8.417 -0.6104  0.2800  0.1050
  908MOL0     C19755   3.990   2.687   8.499 -0.6157 -0.0104  1.3541
  908MOL0     C19756   3.939   2.737   8.620 -0.4854  0.7364 -0.2448
  908MOL0     C19757   3.841   2.673   8.686 -0.4854  0.1317  0.4821
  908MOL0     C19758   3.782   2.557   8.634 -0.6515 -0.2930  0.9846
  908MOL0     O19759   3.691   2.487   8.702 -0.0226  0.4664 -0.2287
  908MOL0     C19760   3.734   2.448   8.833 -0.3254  0.4738 -0.6136
  908MOL0     C19761   3.615   2.393   8.914  0.3185  0.3557 -0.4987
  908MOL0     C19762   3.511   2.503   8.949 -0.5047  0.8605 -0.0316
  908MOL0     C19763   3.365   2.452   8.983 -0.1497  1.2984  0.1379
  908MOL0     C19764   3.257   2.562   8.984  0.4173  0.6093 -0.0211
  908MOL0     C19765   3.275   2.670   9.087  0.5951 -0.1542 -0.0532
  908MOL0     C19766   3.153   2.762   9.111  0.0901 -0.4589  0.5193
  908MOL0     C19767   3.189   2.865   9.223  0.3082  0.3948 -0.4071
  908MOL0    Cl19768   3.353   2.926   9.194  0.0831  0.1508 -0.4198
  908MOL0     C19769   3.826   2.513   8.515  1.7676 -0.5513 -0.3065
  908MOL0     C19770   3.926   2.579   8.448 -0.0156  0.1492  0.2571
  908MOL0     O19771   3.967   2.963   8.437  0.2177  0.1391 -0.0326
  908MOL0     C19772   4.088   3.072   8.218 -0.1423 -0.6000 -0.0380
  908MOL0     C19773   4.143   3.127   8.100 -0.0750  0.3746 -0.7575
  908MOL0     N19774   4.691   3.250   7.611 -0.5005 -0.6407 -1.0045
  908MOL0     N19775   4.795   3.243   7.690 -0.1634  0.4282  0.0838
  908MOL0     C19776   5.753   3.182   8.439 -0.2465 -0.0668  0.0110
  908MOL0     C19777   5.868   3.201   8.517  0.2318  0.3196  0.6173
  908MOL0     C19778   6.215   3.137   8.783  0.2844 -0.0124 -0.9702
  908MOL0     C19779   6.309   3.040   8.812 -0.3659  0.5619 -0.0582
  908MOL0     C19780   6.427   3.079   8.873  1.2304  0.2778  0.0703
  908MOL0     C19781   6.456   3.204   8.901 -0.8216 -0.5845 -0.5026
  908MOL0     O19782   6.588   3.210   8.957 -0.0134  0.3861 -0.0310
  908MOL0     C19783   6.646   3.339   8.982 -0.3956 -0.0486  0.0942
  908MOL0     C19784   6.803   3.334   8.981 -0.0661 -0.6401  0.4966
  908MOL0     C19785   6.862   3.223   9.075  0.6346 -0.2675 -0.6649
  908MOL0     C19786   6.891   3.258   9.217 -0.2507  0.0889  0.0796
  908MOL0     C19787   7.002   3.352   9.221  0.0575 -0.3378 -0.8362
  908MOL0     C19788   7.104   3.431   9.222 -0.2961 -0.1810 -0.4366
  908MOL0     C19789   6.372   3.306   8.864 -0.7821 -0.6647 -0.4107
  908MOL0     C19790   6.250   3.271   8.809 -0.5319  0.1524 -0.3886
  908MOL0     H19791   5.744   3.099   8.825 -4.3224 -0.0872 -0.1719
  908MOL0     H19792   5.552   3.096   8.683 -0.9656  0.0837 -2.6655
  908MOL0     H19793   5.545   2.917   8.368  0.1017 -1.2885  1.9964
  908MOL0     H19794   5.545   3.062   8.255 -0.7192  0.3908  0.9088
  908MOL0     H19795   5.299   3.042   8.405 -0.0400  4.4617 -2.3760
  908MOL0     H19796   5.324   2.891   8.306  0.2866 -0.1250  1.9316
  908MOL0     H19797   5.362   3.044   8.120  0.5794 -2.9535  0.1407
  908MOL0     H19798   5.297   3.175   8.209  1.0923  0.6361 -2.5770
  908MOL0     H19799   5.145   2.914   8.162  1.0499  0.9087 -3.6690
  908MOL0     H19800   5.104   3.027   8.287  0.2289 -1.1175  0.4436
  908MOL0     H19801   5.144   3.105   7.995  0.7320  1.2705  0.8194
  908MOL0     H19802   5.037   3.187   8.113  2.4182  1.1653 -2.2808
  908MOL0     H19803   4.884   2.985   8.134 -0.2973 -1.7996 -0.1833
  908MOL0     H19804   4.982   2.908   8.008 -0.0172  0.3338 -1.3864
  908MOL0     H19805   4.771   3.016   7.949  2.0370 -1.9586  0.2545
  908MOL0     H19806   4.838   3.171   7.997  2.1158  0.4021  1.1477
  908MOL0     H19807   4.994   3.008   7.788  3.8811  1.9334 -0.0087
  908MOL0     H19808   4.994   3.179   7.831 -2.0186  1.8559 -0.1478
  908MOL0     H19809   4.774   2.932   7.629 -3.3402  0.3458  0.3675
  908MOL0     H19810   4.566   3.042   7.411 -0.1354  0.5654  0.2610
  908MOL0     H19811   4.504   3.191   7.472 -2.3063  0.4503  3.2931
  908MOL0     H19812   4.466   2.914   7.614  0.5827  0.8198  0.3371
  908MOL0     H19813   4.346   3.006   7.515 -0.0985  0.4970 -0.5662
  908MOL0     H19814   4.501   3.143   7.753 -0.3644  0.6563  1.1219
  908MOL0     H19815   4.339   3.182   7.681 -2.0040 -1.2791  1.6680
  908MOL0     H19816   4.414   2.962   7.869 -1.9270 -1.4114  0.1353
  908MOL0     H19817   4.262   2.963   7.764 -0.1882 -0.7710  1.0460
  908MOL0     H19818   4.354   2.870   8.041  0.5610  0.6576  0.6351
  908MOL0     H19819   4.252   2.776   8.225 -2.6980 -1.5841 -0.1729
  908MOL0     H19820   3.980   2.825   8.670 -0.6917  0.9542 -0.4577
  908MOL0     H19821   3.815   2.697   8.789 -0.4129 -3.5890  1.5048
  908MOL0     H19822   3.781   2.520   8.900 -0.7074  1.5193 -1.4540
  908MOL0     H19823   3.812   2.371   8.829  0.0828  0.8497 -0.0124
  908MOL0     H19824   3.649   2.339   9.003 -1.3486 -0.9483 -0.6124
  908MOL0     H19825   3.565   2.313   8.858  0.2950  2.1866 -3.3151
  908MOL0     H19826   3.510   2.580   8.871  0.9554 -0.0228 -0.9612
  908MOL0     H19827   3.545   2.555   9.039  0.5441  1.9463 -1.0200
  908MOL0     H19828   3.350   2.361   8.924  2.3307  1.5021 -0.9624
  908MOL0     H19829   3.350   2.411   9.083 -2.5429 -2.7943 -1.6629
  908MOL0     H19830   3.162   2.513   9.007 -0.1032  1.4299 -0.3726
  908MOL0     H19831   3.249   2.605   8.884 -3.3054 -0.7917 -0.4710
  908MOL0     H19832   3.356   2.733   9.049  1.4306 -0.5534  1.0199
  908MOL0     H19833   3.319   2.623   9.176 -0.0901 -0.1411  0.2931
  908MOL0     H19834   3.118   2.818   9.024 -0.9384 -0.5110  0.8865
  908MOL0     H19835   3.070   2.696   9.137  1.1579 -1.2318  2.1387
  908MOL0     H19836   3.182   2.819   9.322  3.0935 -2.0384 -1.2325
  908MOL0     H19837   3.116   2.947   9.216  1.2061  1.0979 -2.3243
  908MOL0     H19838   3.787   2.421   8.472  0.0181 -0.7707  1.5668
  908MOL0     H19839   3.947   2.537   8.350 -2.9916  0.5953 -0.6774
  908MOL0     H19840   4.004   3.122   8.264  0.1918 -2.4254  2.7646
  908MOL0     H19841   4.113   3.225   8.063 -0.2556  0.5406 -0.1893
  908MOL0     H19842   5.761   3.212   8.335  1.1232 -0.1044  0.0823
  908MOL0     H19843   5.955   3.248   8.472 -0.8084  2.8493  1.0494
  908MOL0     H19844   6.288   2.934   8.803 -0.0061  0.3045  1.6723
  908MOL0     H19845   6.492   3.001   8.911 -0.1031 -0.9628 -0.0953
  908MOL0     H19846   6.617   3.361   9.085  0.7165 -0.2233  0.4632
  908MOL0     H19847   6.601   3.406   8.909  0.2560 -1.3241 -1.5456
  908MOL0     H19848   6.831   3.317   8.876 -4.1907  2.6726 -1.4703
  908MOL0     H19849   6.844   3.432   9.007  0.7964 -0.7256 -0.4621
  908MOL0     H19850   6.953   3.190   9.024  1.3458 -0.5085  0.7207
  908MOL0     H19851   6.792   3.139   9.073 -0.7334  0.7386  1.3968
  908MOL0     H19852   6.802   3.308   9.257 -2.0538  1.0489 -4.4753
  908MOL0     H19853   6.892   3.173   9.285 -1.6533  1.8753  2.5200
  908MOL0     H19854   7.189   3.496   9.231  1.0644 -1.8802 -0.3087
  908MOL0     H19855   6.402   3.408   8.887  2.3495 -1.0550 -2.1314
  908MOL0     H19856   6.187   3.352   8.774  0.7294  2.4166  2.2386
  909MOL0     O19857   5.149   0.516   8.440 -0.8715  0.0912  0.1121
  909MOL0     C19858   5.195   0.430   8.511  0.1462  0.6385  0.0982
  909MOL0     O19859   5.327   0.391   8.518 -0.8762 -0.1131  0.2659
  909MOL0     C19860   5.427   0.470   8.456 -0.1302  0.4158  0.4338
  909MOL0     C19861   5.546   0.417   8.412  0.1756 -0.7688 -0.4355
  909MOL0     C19862   5.650   0.500   8.356 -0.9941  0.4914 -0.4293
  909MOL0     C19863   5.638   0.642   8.331  0.0957 -0.1218 -0.2037
  909MOL0     O19864   5.736   0.728   8.274 -0.1953 -0.2684 -0.3863
  909MOL0     C19865   5.851   0.660   8.227  0.4916 -0.2345  0.9478
  909MOL0     C19866   5.946   0.771   8.163 -0.2529 -0.0897  0.3017
  909MOL0     C19867   6.033   0.711   8.052 -1.5023  0.4639 -0.7332
  909MOL0     C19868   6.139   0.610   8.106 -0.5336 -0.1662 -0.0059
  909MOL0     C19869   6.221   0.553   7.997 -0.5703 -0.0892  0.8012
  909MOL0     C19870   6.316   0.654   7.924 -0.1349 -0.8118  0.1151
  909MOL0     C19871   6.431   0.719   8.005 -0.2642 -0.0574  0.1503
  909MOL0     C19872   6.523   0.811   7.917  0.8197 -0.2042  0.3264
  909MOL0     N19873   6.578   0.732   7.811  0.5328 -0.0598  0.7420
  909MOL0     C19874   6.645   0.617   7.825 -0.5508 -0.2302  0.9221
  909MOL0     C19875   6.676   0.588   7.697  0.1617  0.5821 -0.2081
  909MOL0     C19876   6.754   0.468   7.657 -0.2355  0.3486  0.8583
  909MOL0     C19877   6.901   0.504   7.656  0.9744  0.1748 -0.1177
  909MOL0     C19878   6.973   0.359   7.654 -0.7613  0.0832 -0.2774
  909MOL0     C19879   7.124   0.370   7.658 -0.0046 -0.3325  0.5864
  909MOL0     O19880   7.172   0.449   7.552 -0.0327  0.2059  0.1374
  909MOL0     C19881   7.281   0.410   7.471 -0.5684  0.3245 -1.0420
  909MOL0     C19882   7.273   0.395   7.331  0.2100 -1.2621 -0.7594
  909MOL0     C19883   7.380   0.378   7.248 -0.4554  0.7444  0.8249
  909MOL0     C19884   7.506   0.353   7.311  0.2635 -0.2033  0.8742
  909MOL0     C19885   7.628   0.318   7.235  0.6621 -0.6718  0.4121
  909MOL0     O19886   7.617   0.279   7.111 -0.1628  0.5547 -0.2019
  909MOL0     C19887   7.734   0.243   7.036  0.7140 -0.7316  0.9243
  909MOL0     C19888   7.805   0.337   6.968 -0.5124 -0.1143  1.0363
  909MOL0     C19889   7.925   0.308   6.901  0.8221 -0.6313 -0.7473
  909MOL0     C19890   7.978   0.177   6.904  0.3355  0.9141  0.8279
  909MOL0     O19891   8.101   0.155   6.842 -0.0282  0.6849  0.4170
  909MOL0     C19892   8.207   0.110   6.920 -0.6686  0.0790  0.0081
  909MOL0     C19893   8.329   0.067   6.827 -0.2224  0.4137 -0.3871
  909MOL0     C19894   8.392   0.180   6.738  0.2913  0.1783  0.3744
  909MOL0     C19895   8.468   0.292   6.807 -0.3633 -0.6474  0.4866
  909MOL0     C19896   8.565   0.371   6.711  0.5721  0.8915  0.1238
  909MOL0     C19897   8.647   0.467   6.792  0.0402  0.0190  0.3633
  909MOL0     C19898   8.745   0.551   6.704 -0.5148  0.2969  0.0384
  909MOL0     C19899   8.795   0.679   6.777 -0.1746 -0.4718 -0.0695
  909MOL0    Cl19900   8.918   0.738   6.670  0.2043  0.1363  0.1127
  909MOL0     C19901   7.913   0.083   6.981 -0.9169 -0.5998 -0.6042
  909MOL0     C19902   7.794   0.111   7.044  0.5197  0.2139  0.4090
  909MOL0     O19903   7.727   0.332   7.301 -0.5464  0.3561  0.1542
  909MOL0     C19904   7.516   0.376   7.450 -0.3798  0.9264  0.0849
  909MOL0     C19905   7.406   0.401   7.531  0.2517  0.2047  0.8098
  909MOL0     N19906   6.624   0.676   7.609  0.8765  0.2750 -1.1654
  909MOL0     N19907   6.560   0.764   7.679 -0.0102  0.3999 -0.2701
  909MOL0     C19908   5.525   0.696   8.385  0.8536 -0.3647 -1.0578
  909MOL0     C19909   5.421   0.612   8.439  0.1039  0.3682  0.6258
  909MOL0     C19910   5.102   0.365   8.624 -0.6021 -0.9923  0.4812
  909MOL0     C19911   4.981   0.424   8.666 -0.0865  0.3289 -0.5589
  909MOL0     C19912   4.899   0.348   8.749  0.2959 -0.5929 -0.9978
  909MOL0     C19913   4.926   0.221   8.795 -0.6426 -0.2376  0.2403
  909MOL0     O19914   4.846   0.164   8.884 -0.8456  0.5430  0.0004
  909MOL0     C19915   4.879   0.044   8.957 -0.5206 -1.1636  0.6951
  909MOL0     C19916   4.777  -0.007   9.052  0.2064  0.2757 -0.0799
  909MOL0     C19917   4.757   0.090   9.172 -0.3538  0.4100 -0.5203
  909MOL0     C19918   4.619   0.076   9.249  0.1646  1.0730 -0.4529
  909MOL0     C19919   4.517   0.144   9.173  0.2642 -0.4290  0.0801
  909MOL0     C19920   4.433   0.196   9.103 -0.2554  0.9293  0.3139
  909MOL0     C19921   5.047   0.169   8.745 -0.5455  0.8817  0.9314
  909MOL0     C19922   5.129   0.235   8.653  0.2140  0.3470 -0.2301
  909MOL0     H19923   5.577   0.317   8.440  1.6062 -0.1229  0.4131
  909MOL0     H19924   5.737   0.449   8.317  0.8895  0.8281  2.9054
  909MOL0     H19925   5.810   0.590   8.154  1.1389  1.7947 -1.5148
  909MOL0     H19926   5.896   0.609   8.313 -0.4227  0.2164  1.7082
  909MOL0     H19927   6.016   0.800   8.242  2.6803 -2.5908 -1.2127
  909MOL0     H19928   5.882   0.852   8.125 -3.2044 -1.6911  1.5420
  909MOL0     H19929   6.099   0.793   8.019 -0.9791  2.2724  3.9989
  909MOL0     H19930   5.982   0.665   7.967  2.6500 -3.0170 -1.7185
  909MOL0     H19931   6.196   0.667   8.180 -1.4263  1.2511 -0.3676
  909MOL0     H19932   6.083   0.532   8.158  0.2653 -0.7183  0.0501
  909MOL0     H19933   6.157   0.511   7.919  1.1404 -0.6924 -0.3147
  909MOL0     H19934   6.285   0.471   8.032 -1.2474 -1.6763 -1.4752
  909MOL0     H19935   6.265   0.737   7.875  0.1971 -1.4749 -1.4183
  909MOL0     H19936   6.370   0.595   7.850  1.4611  0.4003  0.2650
  909MOL0     H19937   6.397   0.789   8.082 -1.2206  1.1018 -1.2769
  909MOL0     H19938   6.486   0.636   8.050  0.0468 -0.3496 -0.7364
  909MOL0     H19939   6.604   0.857   7.974  1.3506  2.1953 -2.1027
  909MOL0     H19940   6.458   0.893   7.886  0.4199 -0.1914  1.1728
  909MOL0     H19941   6.676   0.565   7.914 -0.3199 -0.4384  0.7196
  909MOL0     H19942   6.721   0.441   7.556 -2.6699  0.2045  1.6458
  909MOL0     H19943   6.730   0.381   7.718 -2.9520 -0.4339 -1.1364
  909MOL0     H19944   6.918   0.549   7.755 -3.5345 -0.9191  1.4043
  909MOL0     H19945   6.925   0.570   7.572  2.6762 -0.3549 -0.0883
  909MOL0     H19946   6.941   0.289   7.731 -0.8560  1.8052  1.3236
  909MOL0     H19947   6.948   0.318   7.556  1.5117  0.5304 -1.1228
  909MOL0     H19948   7.176   0.274   7.668  0.8967  0.1892  1.0745
  909MOL0     H19949   7.154   0.433   7.742  0.8180  3.4630 -2.2606
  909MOL0     H19950   7.176   0.416   7.289 -0.1905 -0.1316  0.6469
  909MOL0     H19951   7.369   0.373   7.140 -2.3629 -1.1582  1.0337
  909MOL0     H19952   7.768   0.439   6.965 -0.5193 -0.1371 -0.5179
  909MOL0     H19953   7.980   0.391   6.857 -1.2102  0.7993 -0.7080
  909MOL0     H19954   8.179   0.024   6.981  1.5361 -0.5675  0.1887
  909MOL0     H19955   8.227   0.198   6.982 -3.6203  1.2470 -0.5157
  909MOL0     H19956   8.300  -0.009   6.754  0.3865  1.5699 -1.8923
  909MOL0     H19957   8.407   0.026   6.891  0.3698  1.2024 -0.5756
  909MOL0     H19958   8.318   0.232   6.676  1.4305  0.5204 -0.7528
  909MOL0     H19959   8.469   0.137   6.672  1.8096  0.9899  1.5704
  909MOL0     H19960   8.393   0.361   6.848 -0.2585 -0.8102  0.9467
  909MOL0     H19961   8.539   0.253   6.879 -0.9384 -0.1351  1.3455
  909MOL0     H19962   8.501   0.428   6.643 -0.0387  0.3638  0.2431
  909MOL0     H19963   8.634   0.304   6.658 -1.7678 -1.6103 -0.0049
  909MOL0     H19964   8.702   0.400   6.859 -0.4845 -2.2015 -1.2934
  909MOL0     H19965   8.574   0.537   6.832  1.3870  1.7474 -0.0900
  909MOL0     H19966   8.831   0.490   6.673 -0.7561 -1.4575  2.5558
  909MOL0     H19967   8.690   0.586   6.615 -1.0746  1.7849  0.9265
  909MOL0     H19968   8.844   0.653   6.871  1.5145  1.0982 -0.4613
  909MOL0     H19969   8.714   0.750   6.791 -0.4200 -0.3868 -1.6865
  909MOL0     H19970   7.970  -0.007   6.995  1.8007  0.8561 -1.5966
  909MOL0     H19971   7.759   0.036   7.115 -0.6344  3.0630  3.0731
  909MOL0     H19972   7.607   0.348   7.501 -0.8482 -1.2211 -0.1647
  909MOL0     H19973   7.421   0.411   7.638 -0.3119 -1.3013  1.0486
  909MOL0     H19974   5.505   0.803   8.377  3.1030  0.3608  1.2597
  909MOL0     H19975   5.343   0.668   8.488 -0.9598  2.0488 -2.7048
  909MOL0     H19976   4.959   0.527   8.642 -2.1451  0.2280  0.6825
  909MOL0     H19977   4.816   0.402   8.793 -0.6606 -0.9512 -2.2892
  909MOL0     H19978   4.964   0.061   9.024  0.3762 -0.9922 -0.4656
  909MOL0     H19979   4.906  -0.034   8.885  0.1248 -3.2401  3.0424
  909MOL0     H19980   4.676  -0.010   9.008  0.8656 -1.4309 -1.5762
  909MOL0     H19981   4.806  -0.100   9.101  2.6390  1.1445  0.2323
  909MOL0     H19982   4.745   0.191   9.134 -1.7825  0.3658 -0.2358
  909MOL0     H19983   4.839   0.084   9.244 -0.2431  1.1436 -0.5818
  909MOL0     H19984   4.589  -0.026   9.274  1.9177  0.3344 -1.1341
  909MOL0     H19985   4.641   0.132   9.340  1.9603  0.9783 -0.7789
  909MOL0     H19986   4.377   0.252   9.031 -0.1645  2.1685  1.1651
  909MOL0     H19987   5.082   0.068   8.767  0.5529  0.7385 -1.1792
  909MOL0     H19988   5.219   0.188   8.616  0.6458 -1.8906  3.1690
  910MOL0     O19989   6.782   3.031   7.338  0.1919 -0.3778 -0.0424
  910MOL0     C19990   6.699   2.993   7.416  0.6732  0.2382 -0.5892
  910MOL0     O19991   6.736   2.969   7.548  0.0165 -0.4262 -0.1010
  910MOL0     C19992   6.873   2.969   7.582  0.2386  1.0739 -0.4500
  910MOL0     C19993   6.943   3.089   7.592  0.5368 -0.3812 -0.4950
  910MOL0     C19994   7.077   3.091   7.635  0.1767 -0.3578  0.1710
  910MOL0     C19995   7.143   2.970   7.659 -0.0347 -1.0262 -0.4178
  910MOL0     O19996   7.273   2.965   7.706 -0.1336  0.4297  0.4233
  910MOL0     C19997   7.368   2.904   7.621  0.6587 -0.2588 -0.6977
  910MOL0     C19998   7.493   2.988   7.672 -0.4063 -0.0770  0.1704
  910MOL0     C19999   7.613   2.952   7.585 -0.7794  1.0438  0.0023
  910MOL0     C20000   7.735   3.038   7.636  0.1268  0.5028  0.1649
  910MOL0     C20001   7.858   3.006   7.553 -0.0747  0.2074  0.2932
  910MOL0     C20002   7.987   3.012   7.637  0.2095 -0.0919  0.1132
  910MOL0     C20003   8.101   3.059   7.560  0.2607 -0.7140  0.0554
  910MOL0     C20004   8.228   3.058   7.642 -0.2979  0.1627  0.7323
  910MOL0     N20005   8.350   3.064   7.561  0.3990 -0.0186  0.2434
  910MOL0     C20006   8.467   3.067   7.624  0.2185 -0.8223 -0.5296
  910MOL0     C20007   8.547   3.109   7.525 -0.9370 -0.1575  1.0936
  910MOL0     C20008   8.695   3.114   7.530  0.3188 -0.3889 -0.6017
  910MOL0     C20009   8.751   3.226   7.452 -1.1073  0.2486  1.0775
  910MOL0     C20010   8.900   3.189   7.424 -0.0475 -0.0185  0.6082
  910MOL0     C20011   8.975   3.179   7.554  0.4101  0.3228  0.5496
  910MOL0     O20012   8.960   3.289   7.640  1.0730 -0.5174 -0.4254
  910MOL0     C20013   9.078   3.355   7.667 -0.4961 -0.6798 -0.6185
  910MOL0     C20014   9.187   3.364   7.576  0.4426 -0.0239 -0.3096
  910MOL0     C20015   9.295   3.446   7.606 -0.0727  0.2786 -0.1341
  910MOL0     C20016   9.297   3.529   7.718  0.0319  0.2548  0.0643
  910MOL0     C20017   9.414   3.627   7.735  0.9575  0.2994  0.4918
  910MOL0     O20018   9.385   3.732   7.817 -0.9070 -0.6014 -0.0489
  910MOL0     C20019   9.483   3.821   7.849  0.1065 -0.9531 -0.2350
  910MOL0     C20020   9.611   3.780   7.893  0.2796 -0.7793  0.3005
  910MOL0     C20021   9.702   3.889   7.929 -1.0938 -0.4124 -0.3484
  910MOL0     C20022   9.683   4.021   7.898  0.1718  0.3705 -0.0502
  910MOL0     O20023   9.786   4.114   7.902 -1.0431  0.3413  0.5291
  910MOL0     C20024   9.822   4.142   8.037  0.0649  0.6123 -0.1929
  910MOL0     C20025   9.720   4.239   8.103 -0.1790  1.2102 -0.7820
  910MOL0     C20026   9.764   4.251   8.258  0.0293 -0.5966 -0.1756
  910MOL0     C20027   9.713   4.376   8.320 -0.0956  0.3409 -0.7965
  910MOL0     C20028   9.761   4.382   8.467  0.0787  0.3398  0.0810
  910MOL0     C20029   9.721   4.513   8.523 -0.0837 -0.2654 -0.7924
  910MOL0     C20030   9.736   4.499   8.676  0.3315 -1.1962  0.4949
  910MOL0     C20031   9.626   4.579   8.746  0.0854 -0.1336 -0.4635
  910MOL0    Cl20032   9.667   4.634   8.909 -0.1792  0.0755 -0.2777
  910MOL0     C20033   9.555   4.058   7.848  0.1455  0.0699 -0.0774
  910MOL0     C20034   9.459   3.952   7.830  0.0019 -0.8673 -0.2968
  910MOL0     O20035   9.525   3.606   7.677 -0.0281 -0.3217  1.4400
  910MOL0     C20036   9.179   3.538   7.798  0.2538 -0.3253 -0.4982
  910MOL0     C20037   9.077   3.445   7.776 -0.4148  0.1537  1.0699
  910MOL0     N20038   8.476   3.117   7.407 -0.1931 -0.1745  0.2660
  910MOL0     N20039   8.357   3.097   7.432  0.2152  0.5554  0.4920
  910MOL0     C20040   7.072   2.853   7.647  0.3584 -0.4689  0.4916
  910MOL0     C20041   6.944   2.849   7.608 -0.6252 -0.4510 -0.0005
  910MOL0     C20042   6.557   2.975   7.368  0.2993  0.1037 -0.1163
  910MOL0     C20043   6.524   3.000   7.236  0.7789 -0.2088  0.2526
  910MOL0     C20044   6.393   2.989   7.193  0.0754  0.1282  0.2702
  910MOL0     C20045   6.288   2.961   7.282  0.1243  0.6235  0.0457
  910MOL0     O20046   6.156   2.934   7.248 -0.5104 -0.7663 -0.4814
  910MOL0     C20047   6.121   2.855   7.134 -0.0542 -0.4838  0.8338
  910MOL0     C20048   6.104   2.712   7.179 -0.6440  0.3228  0.0376
  910MOL0     C20049   6.012   2.633   7.089 -0.2471 -0.7307  0.1194
  910MOL0     C20050   5.997   2.490   7.149 -0.4739 -0.1297  0.2976
  910MOL0     C20051   5.894   2.420   7.075 -0.1441 -0.4776 -0.0497
  910MOL0     C20052   5.806   2.351   7.017 -0.3729 -0.3682 -0.2156
  910MOL0     C20053   6.320   2.937   7.413 -0.5990 -0.2223  0.8261
  910MOL0     C20054   6.451   2.938   7.454  0.3812  0.6519  0.0935
  910MOL0     H20055   6.901   3.188   7.578  3.0781  0.7551 -0.7051
  910MOL0     H20056   7.135   3.181   7.647  2.0194 -1.3945 -0.5760
  910MOL0     H20057   7.353   2.928   7.515  0.5166  2.7496 -0.0796
  910MOL0     H20058   7.373   2.795   7.632 -2.8039 -0.3866  0.7282
  910MOL0     H20059   7.508   2.974   7.779  1.4667 -0.2962 -0.0812
  910MOL0     H20060   7.469   3.093   7.657 -0.5117  0.2025  2.0452
  910MOL0     H20061   7.603   2.946   7.477  0.6890 -0.6393 -0.0909
  910MOL0     H20062   7.640   2.848   7.607  0.5766  0.7719 -2.6084
  910MOL0     H20063   7.729   3.147   7.642  1.4824  0.5110  2.0610
  910MOL0     H20064   7.756   3.006   7.738  0.7218 -0.3455 -0.2070
  910MOL0     H20065   7.859   3.075   7.469 -3.7905  0.6175  0.4129
  910MOL0     H20066   7.850   2.905   7.512  0.6001 -1.0081  2.9019
  910MOL0     H20067   8.002   2.906   7.661  0.9682 -0.8480 -3.2026
  910MOL0     H20068   7.965   3.082   7.719 -1.2027 -0.8235  0.3888
  910MOL0     H20069   8.112   3.003   7.466 -1.8400  0.2550 -0.8404
  910MOL0     H20070   8.096   3.163   7.528  1.4668 -0.8163 -0.5247
  910MOL0     H20071   8.242   2.968   7.702  1.8591 -0.1068 -0.0603
  910MOL0     H20072   8.240   3.146   7.705  0.3253  2.8702 -2.8659
  910MOL0     H20073   8.488   3.042   7.727  1.1999 -1.7954 -0.9363
  910MOL0     H20074   8.732   3.016   7.497 -0.8224 -0.4593 -1.7391
  910MOL0     H20075   8.734   3.127   7.631  3.0152  0.6994 -1.6665
  910MOL0     H20076   8.749   3.326   7.497 -0.3292  1.1618 -0.8349
  910MOL0     H20077   8.706   3.237   7.353  2.5667  1.2075 -0.6250
  910MOL0     H20078   8.907   3.102   7.358 -1.5917  2.4662 -3.1897
  910MOL0     H20079   8.946   3.259   7.354  2.9031 -2.1972  0.1825
  910MOL0     H20080   9.080   3.154   7.537  0.8045  1.4071  1.3222
  910MOL0     H20081   8.936   3.090   7.605  0.9791 -0.3775 -0.2093
  910MOL0     H20082   9.204   3.323   7.477  2.4620 -0.1562  0.0493
  910MOL0     H20083   9.380   3.439   7.539 -0.7120 -2.2431 -0.7710
  910MOL0     H20084   9.625   3.678   7.925  2.3894  0.2207  2.8597
  910MOL0     H20085   9.800   3.865   7.969 -0.6367  4.1423  1.9261
  910MOL0     H20086   9.922   4.187   8.038 -0.9686  3.3252 -2.8584
  910MOL0     H20087   9.842   4.055   8.100  4.7341  1.2387 -0.4154
  910MOL0     H20088   9.617   4.203   8.102  0.7994 -2.3813  2.2326
  910MOL0     H20089   9.720   4.335   8.052 -1.7291 -0.5438 -4.4429
  910MOL0     H20090   9.872   4.266   8.257  0.2700 -1.4732  2.8198
  910MOL0     H20091   9.735   4.164   8.319 -0.5215  0.1613  0.6593
  910MOL0     H20092   9.746   4.459   8.257 -0.9437  0.0343 -1.6612
  910MOL0     H20093   9.604   4.370   8.310  0.0339  0.8656 -2.8967
  910MOL0     H20094   9.867   4.358   8.479  0.0011  1.4729  4.6916
  910MOL0     H20095   9.704   4.303   8.515 -1.5242  0.7530 -1.0447
  910MOL0     H20096   9.622   4.535   8.483 -1.6853 -2.3075  1.7080
  910MOL0     H20097   9.782   4.597   8.490 -1.2737  0.5829 -0.9083
  910MOL0     H20098   9.735   4.401   8.725  0.4527 -0.4363  2.1141
  910MOL0     H20099   9.838   4.533   8.697 -0.4598  2.7230 -1.0293
  910MOL0     H20100   9.527   4.532   8.748  0.5985 -1.2101  0.2880
  910MOL0     H20101   9.611   4.676   8.698  1.0368 -0.4653 -1.4507
  910MOL0     H20102   9.553   4.164   7.822  0.3551  0.3949  1.1317
  910MOL0     H20103   9.357   3.965   7.795 -0.5034  2.3229  1.9284
  910MOL0     H20104   9.172   3.611   7.878 -0.5243 -0.8417 -0.0836
  910MOL0     H20105   8.978   3.452   7.822 -1.6756 -2.2711 -0.9897
  910MOL0     H20106   7.123   2.762   7.677  3.0548  0.9352  0.4709
  910MOL0     H20107   6.898   2.751   7.599  2.1678 -1.8761  0.1376
  910MOL0     H20108   6.600   3.042   7.171  1.0793 -1.4802 -0.2699
  910MOL0     H20109   6.359   3.002   7.091 -0.4608 -0.8743  0.3106
  910MOL0     H20110   6.206   2.861   7.066 -0.6653 -3.5819 -0.4055
  910MOL0     H20111   6.038   2.896   7.076  2.4613  1.4595 -1.6381
  910MOL0     H20112   6.198   2.658   7.190 -0.3798  0.5404 -1.0120
  910MOL0     H20113   6.068   2.715   7.282  0.0948 -0.5595  0.3389
  910MOL0     H20114   6.049   2.627   6.986  0.2796 -2.7461  0.3815
  910MOL0     H20115   5.923   2.696   7.090  0.7306  0.8545 -2.5243
  910MOL0     H20116   6.097   2.446   7.151 -1.1285 -1.6768  0.2771
  910MOL0     H20117   5.972   2.506   7.254  0.2969 -0.7051  0.5788
  910MOL0     H20118   5.739   2.305   6.946  0.0413 -0.3624 -0.6152
  910MOL0     H20119   6.251   2.900   7.489 -0.9650 -1.3984 -0.0508
  910MOL0     H20120   6.455   2.917   7.560 -2.8404 -0.9011  0.0272
  911MOL0     O20121   7.818   4.610   5.677  0.0815  0.6741  0.0292
  911MOL0     C20122   7.876   4.644   5.775 -0.2996  0.3713  0.4100
  911MOL0     O20123   7.823   4.706   5.895 -0.8618 -0.1356  0.1032
  911MOL0     C20124   7.690   4.725   5.885  0.1874  0.1783 -0.5257
  911MOL0     C20125   7.618   4.795   5.793  0.2483 -0.0091 -0.4072
  911MOL0     C20126   7.479   4.797   5.784  0.1294 -0.8168  0.2024
  911MOL0     C20127   7.408   4.733   5.881  0.3086 -1.0910  0.6116
  911MOL0     O20128   7.281   4.720   5.881  0.0487 -0.1497 -0.6489
  911MOL0     C20129   7.197   4.801   5.797  0.7457 -0.8804 -0.0985
  911MOL0     C20130   7.052   4.805   5.859 -0.0976 -0.0393 -0.0227
  911MOL0     C20131   6.967   4.866   5.753 -0.8929  0.8517  0.7882
  911MOL0     C20132   6.821   4.838   5.800  0.8126 -0.1597 -0.1551
  911MOL0     C20133   6.734   4.877   5.679  0.5841 -0.4267 -0.7206
  911MOL0     C20134   6.586   4.888   5.717  0.7897 -0.2163 -0.4160
  911MOL0     C20135   6.511   4.928   5.588 -0.0135  0.2560 -0.1959
  911MOL0     C20136   6.368   4.903   5.598  0.5359  0.6421  1.0252
  911MOL0     N20137   6.296   4.995   5.692  0.2353  0.9689 -0.2680
  911MOL0     C20138   6.173   4.964   5.747 -0.9857  0.5464  0.4643
  911MOL0     C20139   6.130   5.075   5.811 -0.0463  0.3960 -0.2470
  911MOL0     C20140   5.991   5.096   5.883  0.1680  0.4344  0.7383
  911MOL0     C20141   5.939   4.966   5.946 -0.4697  0.4056  0.0232
  911MOL0     C20142   5.848   4.976   6.059  0.2630  0.8127 -0.5395
  911MOL0     C20143   5.865   4.869   6.156  0.0452  1.0153 -0.5893
  911MOL0     O20144   5.751   4.866   6.249  0.2909  0.0076 -0.3643
  911MOL0     C20145   5.761   4.763   6.337  0.9009 -0.1648  0.6767
  911MOL0     C20146   5.880   4.720   6.400  0.1622  0.0339  0.3138
  911MOL0     C20147   5.880   4.632   6.510 -0.2994 -0.3609  0.0387
  911MOL0     C20148   5.761   4.574   6.548  0.0831 -0.2842  0.3170
  911MOL0     C20149   5.751   4.475   6.661  0.0274 -0.8159  0.4722
  911MOL0     O20150   5.868   4.458   6.728 -0.7638 -0.1629 -0.6061
  911MOL0     C20151   5.860   4.373   6.835 -0.0885  0.4597 -0.2758
  911MOL0     C20152   5.870   4.428   6.966 -0.1452  0.1006  0.0578
  911MOL0     C20153   5.859   4.340   7.075  0.6344  0.3856  0.2071
  911MOL0     C20154   5.822   4.203   7.056  0.1184  0.1810  0.3556
  911MOL0     O20155   5.805   4.117   7.165  0.1125  0.7564 -0.4867
  911MOL0     C20156   5.708   4.168   7.264  0.7336  1.0801 -0.4853
  911MOL0     C20157   5.717   4.092   7.394 -0.3030  0.5635 -0.0500
  911MOL0     C20158   5.681   3.944   7.367 -0.5410  0.0465 -0.1281
  911MOL0     C20159   5.709   3.853   7.481 -0.3099 -0.0313 -0.5662
  911MOL0     C20160   5.660   3.716   7.431 -0.5663  0.7821  0.8368
  911MOL0     C20161   5.524   3.700   7.376 -0.1805  0.5605  0.3307
  911MOL0     C20162   5.508   3.546   7.353  0.3403  0.1410 -0.2363
  911MOL0     C20163   5.377   3.522   7.284 -0.2554 -0.1290 -0.0430
  911MOL0    Cl20164   5.353   3.337   7.283  0.1129  0.5648 -0.4614
  911MOL0     C20165   5.830   4.152   6.926  0.5197 -0.0739  0.1931
  911MOL0     C20166   5.855   4.234   6.813  0.0115  0.4404  1.1991
  911MOL0     O20167   5.642   4.423   6.681  0.3040 -0.0560  0.1400
  911MOL0     C20168   5.645   4.621   6.482  0.7125  0.0212  0.4147
  911MOL0     C20169   5.647   4.704   6.376  0.5520  0.2480  0.7050
  911MOL0     N20170   6.234   5.179   5.796  0.4338  0.3752 -0.4588
  911MOL0     N20171   6.322   5.123   5.717 -0.4535  0.7291 -0.1262
  911MOL0     C20172   7.474   4.657   5.977  0.8230  0.9106 -0.0987
  911MOL0     C20173   7.610   4.661   5.985 -0.3838  0.4151 -0.2740
  911MOL0     C20174   8.020   4.614   5.780 -0.2100 -0.4242  0.5360
  911MOL0     C20175   8.090   4.558   5.673 -0.5223 -0.6684  0.3980
  911MOL0     C20176   8.229   4.523   5.685  0.8627  0.6134  0.0703
  911MOL0     C20177   8.293   4.537   5.802  0.4826 -0.3591 -0.0197
  911MOL0     O20178   8.429   4.544   5.805 -0.0420 -0.6034 -0.2531
  911MOL0     C20179   8.499   4.429   5.848  0.4223 -0.4303 -0.7833
  911MOL0     C20180   8.654   4.460   5.840 -0.1360  0.0661 -0.0945
  911MOL0     C20181   8.741   4.335   5.862  0.5909  0.1598 -0.0768
  911MOL0     C20182   8.892   4.355   5.859 -0.5110 -0.3670 -0.2776
  911MOL0     C20183   8.930   4.413   5.988 -0.2874 -0.2132 -0.9146
  911MOL0     C20184   8.976   4.450   6.095  0.2658 -0.4604  0.1098
  911MOL0     C20185   8.223   4.587   5.910  0.6297  0.5685 -0.9263
  911MOL0     C20186   8.085   4.630   5.904 -0.1322  0.0743  1.2537
  911MOL0     H20187   7.670   4.861   5.724  0.7759  0.5861  0.5371
  911MOL0     H20188   7.429   4.862   5.712  1.2685  0.9469  0.9231
  911MOL0     H20189   7.198   4.751   5.700 -0.6132 -0.2963 -0.4478
  911MOL0     H20190   7.237   4.903   5.792  1.2489 -0.9644  1.6998
  911MOL0     H20191   7.054   4.866   5.950 -0.9623 -1.9715  1.3494
  911MOL0     H20192   7.024   4.703   5.886 -1.8764 -0.4494 -3.0080
  911MOL0     H20193   6.990   4.815   5.658 -0.3773 -2.0159  2.3417
  911MOL0     H20194   6.987   4.970   5.726  3.0200  0.7572  2.5978
  911MOL0     H20195   6.810   4.731   5.819  1.9505 -0.3798 -0.6240
  911MOL0     H20196   6.797   4.877   5.900 -0.9590 -0.3212 -0.4826
  911MOL0     H20197   6.763   4.814   5.595  1.0882 -0.4301 -0.5497
  911MOL0     H20198   6.749   4.977   5.637 -1.8647 -0.0119 -0.7697
  911MOL0     H20199   6.564   4.959   5.797  2.1269  1.5381 -1.5446
  911MOL0     H20200   6.554   4.792   5.759  1.0402  0.3774  1.1741
  911MOL0     H20201   6.524   5.035   5.574 -0.4591  0.3218 -0.1102
  911MOL0     H20202   6.560   4.869   5.509  2.6811  1.5635  0.3874
  911MOL0     H20203   6.333   4.803   5.625  2.3802 -0.0013  1.1413
  911MOL0     H20204   6.333   4.922   5.496  0.2232 -0.2746  0.9578
  911MOL0     H20205   6.124   4.868   5.744  0.0347 -0.1250  2.7937
  911MOL0     H20206   5.919   5.140   5.814  2.2427  0.3371 -1.6387
  911MOL0     H20207   6.007   5.166   5.966  0.5655 -1.9391  2.7986
  911MOL0     H20208   6.025   4.902   5.969 -1.9863 -2.9153 -2.6373
  911MOL0     H20209   5.891   4.903   5.871  2.3298 -1.6749 -0.1945
  911MOL0     H20210   5.871   5.075   6.099  1.6438  0.7759 -1.1826
  911MOL0     H20211   5.744   4.985   6.024 -0.4856  0.3224  1.4621
  911MOL0     H20212   5.957   4.890   6.212  0.0540 -0.4795 -0.0061
  911MOL0     H20213   5.873   4.772   6.107 -4.4170  0.1325  0.0472
  911MOL0     H20214   5.973   4.775   6.386 -1.6123  3.1210 -0.2970
  911MOL0     H20215   5.971   4.618   6.567 -0.6419  0.2925  0.7585
  911MOL0     H20216   5.891   4.532   6.989 -2.4112  0.9187 -1.2546
  911MOL0     H20217   5.871   4.380   7.175  2.1093  2.2687 -0.6634
  911MOL0     H20218   5.606   4.166   7.225  0.5765 -0.6894 -0.0927
  911MOL0     H20219   5.731   4.270   7.297 -0.9553  0.6569  2.2939
  911MOL0     H20220   5.647   4.131   7.468 -0.0726  0.0210  0.4685
  911MOL0     H20221   5.815   4.120   7.433  0.3903  1.8519 -2.5488
  911MOL0     H20222   5.753   3.912   7.291 -1.6561 -1.3722 -0.6356
  911MOL0     H20223   5.577   3.939   7.334 -1.0089  1.8065  0.9397
  911MOL0     H20224   5.808   3.855   7.529  0.1423  0.5822 -1.4910
  911MOL0     H20225   5.633   3.886   7.553  1.7506 -1.9687  2.7526
  911MOL0     H20226   5.662   3.648   7.517 -2.5451  0.3237  0.5574
  911MOL0     H20227   5.725   3.666   7.359 -1.0800  0.2422  0.7432
  911MOL0     H20228   5.503   3.747   7.279  0.2492 -0.4439 -0.2627
  911MOL0     H20229   5.451   3.725   7.454 -1.7390 -2.7957  0.1104
  911MOL0     H20230   5.585   3.500   7.290 -0.1411  1.0259 -1.5197
  911MOL0     H20231   5.503   3.497   7.451 -0.4732  0.6247 -0.0282
  911MOL0     H20232   5.387   3.553   7.179 -3.1254 -0.5501 -0.5421
  911MOL0     H20233   5.290   3.569   7.331 -1.8202 -0.5960 -2.2771
  911MOL0     H20234   5.826   4.045   6.907  0.1610  0.2980 -2.1428
  911MOL0     H20235   5.866   4.185   6.717  2.1111  1.7619  0.6981
  911MOL0     H20236   5.553   4.565   6.500  1.1084 -0.6833  0.2989
  911MOL0     H20237   5.549   4.722   6.332  1.7457  0.7944 -1.9111
  911MOL0     H20238   7.409   4.596   6.038  1.8033 -1.0526 -0.9401
  911MOL0     H20239   7.650   4.606   6.071 -0.7651  0.4900 -0.0481
  911MOL0     H20240   8.036   4.537   5.581  1.2474  0.9037 -1.0751
  911MOL0     H20241   8.275   4.499   5.589  1.3838  1.5053  0.0911
  911MOL0     H20242   8.474   4.345   5.783  1.9235 -0.6075 -1.1830
  911MOL0     H20243   8.472   4.403   5.951 -3.2484  0.8605 -1.2796
  911MOL0     H20244   8.657   4.495   5.736  4.1940 -0.0494 -0.1730
  911MOL0     H20245   8.668   4.541   5.911 -0.7294  0.5839 -0.5610
  911MOL0     H20246   8.714   4.270   5.778 -0.3205  1.5921 -0.9298
  911MOL0     H20247   8.707   4.304   5.961 -0.0701  2.6658  0.5324
  911MOL0     H20248   8.942   4.259   5.839 -1.7750 -0.6903 -2.1546
  911MOL0     H20249   8.928   4.417   5.776 -0.5494  1.4677  1.0341
  911MOL0     H20250   9.002   4.483   6.193  1.9864 -1.0698 -0.1054
  911MOL0     H20251   8.289   4.595   5.996 -0.0608 -0.4481 -0.2829
  911MOL0     H20252   8.044   4.681   5.990  2.1918  1.6360  1.5410
  912MOL0     O20253   0.697   2.642   7.315 -0.4834 -0.6407  0.3890
  912MOL0     C20254   0.763   2.573   7.384  0.0588  0.9335 -0.9852
  912MOL0     O20255   0.722   2.460   7.446 -0.2871  0.2291 -0.6262
  912MOL0     C20256   0.592   2.416   7.432  0.0878  0.0865 -0.9421
  912MOL0     C20257   0.567   2.298   7.350  0.3087  0.0408  0.3981
  912MOL0     C20258   0.433   2.252   7.336 -0.2035 -0.9375  0.1891
  912MOL0     C20259   0.333   2.322   7.394  0.5843 -0.8193 -0.2564
  912MOL0     O20260   0.200   2.278   7.385  0.2268  0.2250 -0.2783
  912MOL0     C20261   0.186   2.144   7.443 -0.0864 -0.1218 -0.3882
  912MOL0     C20262   0.047   2.105   7.479  0.3338  0.2266  0.4178
  912MOL0     C20263  -0.033   2.049   7.366 -0.1878  0.0905  0.0056
  912MOL0     C20264  -0.169   1.989   7.408  0.2679  1.4512  1.4690
  912MOL0     C20265  -0.251   1.896   7.312 -0.6090 -0.3359  0.0886
  912MOL0     C20266  -0.391   1.885   7.353 -0.1301 -0.9227  0.1548
  912MOL0     C20267  -0.395   1.792   7.473  0.0556 -0.5458 -1.2323
  912MOL0     C20268  -0.538   1.739   7.515 -0.8075 -0.8467 -0.5796
  912MOL0     N20269  -0.605   1.828   7.608 -0.7388 -0.7072 -0.5467
  912MOL0     C20270  -0.691   1.937   7.581  0.9846  0.7107  0.4665
  912MOL0     C20271  -0.698   2.005   7.703  0.5464  0.4311  1.2473
  912MOL0     C20272  -0.768   2.137   7.733 -0.9817 -0.0665 -0.1749
  912MOL0     C20273  -0.930   2.135   7.718 -0.9777 -1.0391 -0.9499
  912MOL0     C20274  -1.001   2.074   7.843  0.0411 -0.1752 -0.6022
  912MOL0     C20275  -1.150   2.095   7.838 -0.2403  0.6746  0.0616
  912MOL0     O20276  -1.209   2.041   7.957  0.5412 -0.7719  0.6075
  912MOL0     C20277  -1.341   2.009   7.961  0.4413 -0.1848 -0.0385
  912MOL0     C20278  -1.411   2.005   8.086 -0.5465  0.2784 -0.1072
  912MOL0     C20279  -1.545   1.966   8.093  0.2975 -0.3820  0.5839
  912MOL0     C20280  -1.615   1.942   7.981  1.6568  0.1598  0.1655
  912MOL0     C20281  -1.752   1.888   7.997 -0.0859 -0.0880  0.1471
  912MOL0     O20282  -1.821   1.959   8.087 -0.2018  0.1425 -0.2447
  912MOL0     C20283  -1.956   1.929   8.113  0.7134 -0.4344 -0.5062
  912MOL0     C20284  -2.015   1.967   8.237 -0.3313 -0.7557 -0.4413
  912MOL0     C20285  -2.146   1.949   8.260 -0.6856 -1.1053  0.2260
  912MOL0     C20286  -2.234   1.901   8.165  0.5617  0.5303 -0.8850
  912MOL0     O20287  -2.368   1.890   8.199 -0.0343  0.3812 -0.2731
  912MOL0     C20288  -2.475   1.907   8.103 -0.4163  0.1033  0.8759
  912MOL0     C20289  -2.607   1.918   8.178  0.2911  0.2028  0.1325
  912MOL0     C20290  -2.731   1.882   8.096 -0.0790 -0.1947  0.0907
  912MOL0     C20291  -2.853   1.857   8.183  1.1323 -0.2744 -0.2231
  912MOL0     C20292  -2.910   1.980   8.252 -0.7918  0.5065 -0.2225
  912MOL0     C20293  -3.055   1.956   8.278 -0.5429  0.6735 -0.4663
  912MOL0     C20294  -3.136   2.061   8.355  0.8370  0.0472  0.4312
  912MOL0     C20295  -3.085   2.082   8.500  0.0771  1.1332  0.1796
  912MOL0    Cl20296  -3.230   2.101   8.604  0.2946  0.4349 -0.2124
  912MOL0     C20297  -2.191   1.873   8.037 -0.8506 -0.5086 -0.0732
  912MOL0     C20298  -2.046   1.898   8.010 -0.5997  1.3993 -0.0655
  912MOL0     O20299  -1.793   1.792   7.933  0.4215  0.4471  0.3472
  912MOL0     C20300  -1.559   1.969   7.858  0.3040  0.8872  0.2694
  912MOL0     C20301  -1.427   2.008   7.844 -0.7756 -0.5241  0.1615
  912MOL0     N20302  -0.620   1.930   7.788  0.1440 -0.0948 -0.4819
  912MOL0     N20303  -0.573   1.824   7.742 -0.3693 -0.5278  0.1755
  912MOL0     C20304   0.354   2.433   7.473 -0.7337  0.4225 -0.7878
  912MOL0     C20305   0.485   2.480   7.491  0.1374  0.1364 -1.2132
  912MOL0     C20306   0.903   2.616   7.411  0.3305 -0.6256 -0.4698
  912MOL0     C20307   0.959   2.717   7.334 -0.0854 -0.8657 -0.7133
  912MOL0     C20308   1.096   2.751   7.347  0.5592 -0.0126  0.8631
  912MOL0     C20309   1.181   2.701   7.447 -0.2411  0.6277  0.3524
  912MOL0     O20310   1.312   2.739   7.445 -0.6561 -0.4234 -0.0221
  912MOL0     C20311   1.378   2.706   7.566  0.0633 -0.9168  0.9333
  912MOL0     C20312   1.517   2.777   7.554  0.3382 -1.0544 -0.3170
  912MOL0     C20313   1.510   2.929   7.545  0.9355 -1.0011 -0.2705
  912MOL0     C20314   1.642   3.011   7.548 -0.6387 -0.2237  0.8017
  912MOL0     C20315   1.621   3.152   7.568 -0.5757 -0.0698 -0.5771
  912MOL0     C20316   1.594   3.276   7.576 -0.9916  0.0135  0.2598
  912MOL0     C20317   1.116   2.610   7.530  0.0962  0.5497  1.6508
  912MOL0     C20318   0.989   2.563   7.509  0.7520  0.1428  0.6259
  912MOL0     H20319   0.655   2.255   7.303 -0.2434  2.3291 -3.1160
  912MOL0     H20320   0.401   2.167   7.277 -4.5155  1.1586 -0.9271
  912MOL0     H20321   0.242   2.138   7.537  0.0782 -1.6023 -0.5444
  912MOL0     H20322   0.233   2.063   7.386  2.0082 -1.6432  3.1543
  912MOL0     H20323  -0.004   2.193   7.521 -0.3358  0.3248 -0.5842
  912MOL0     H20324   0.037   2.028   7.556 -1.7270 -0.5657 -0.5697
  912MOL0     H20325   0.021   1.960   7.332 -1.3204  0.3652 -2.7522
  912MOL0     H20326  -0.044   2.117   7.281  0.3824 -0.8243 -0.8115
  912MOL0     H20327  -0.153   1.927   7.497  1.2007  1.9153  1.6287
  912MOL0     H20328  -0.242   2.068   7.432 -2.5777 -0.4662 -0.2319
  912MOL0     H20329  -0.211   1.795   7.305  1.8983  0.4477  1.9315
  912MOL0     H20330  -0.230   1.937   7.213  2.7117 -0.4059  0.6639
  912MOL0     H20331  -0.444   1.847   7.265  2.8472  0.8392 -2.6114
  912MOL0     H20332  -0.432   1.984   7.376 -0.5721 -1.5844  2.4796
  912MOL0     H20333  -0.332   1.704   7.453  1.1582 -0.6498  2.0927
  912MOL0     H20334  -0.367   1.846   7.563 -1.0190  1.0697 -1.8171
  912MOL0     H20335  -0.537   1.640   7.561 -4.4736 -0.3940  0.7934
  912MOL0     H20336  -0.596   1.732   7.423  3.5228  1.2413 -3.8083
  912MOL0     H20337  -0.756   1.949   7.495  0.7152 -1.2499  0.3682
  912MOL0     H20338  -0.716   2.218   7.680 -1.7306  0.7075  0.2337
  912MOL0     H20339  -0.745   2.161   7.838  0.3335 -0.6800 -0.2995
  912MOL0     H20340  -0.965   2.095   7.622 -2.1403  2.7985 -2.3194
  912MOL0     H20341  -0.956   2.241   7.710  1.3195 -0.4510 -1.3041
  912MOL0     H20342  -0.987   1.966   7.856 -0.9228 -0.1354  0.8900
  912MOL0     H20343  -0.965   2.129   7.931  1.7577 -0.0865 -1.3076
  912MOL0     H20344  -1.173   2.036   7.749 -1.1931 -2.0666  1.9965
  912MOL0     H20345  -1.174   2.202   7.834 -0.0523  0.7356  0.4980
  912MOL0     H20346  -1.351   2.017   8.175 -1.8797  1.4840  0.6762
  912MOL0     H20347  -1.588   1.940   8.189 -1.9150 -1.7095 -0.6870
  912MOL0     H20348  -1.942   1.984   8.315  1.3779 -1.2924 -1.8657
  912MOL0     H20349  -2.183   1.961   8.361  1.8938 -2.1890  1.3754
  912MOL0     H20350  -2.482   1.832   8.023 -2.3704  0.4142  0.7111
  912MOL0     H20351  -2.453   1.999   8.049  0.1287 -0.5940 -0.1215
  912MOL0     H20352  -2.622   2.020   8.213 -2.9604  0.5082 -1.6715
  912MOL0     H20353  -2.600   1.854   8.267  0.4803  1.5452  1.1161
  912MOL0     H20354  -2.721   1.784   8.049 -5.2432 -2.3193  2.6335
  912MOL0     H20355  -2.746   1.962   8.024 -0.2271  0.1383  0.4840
  912MOL0     H20356  -2.926   1.813   8.114  0.8093 -1.0452  0.5789
  912MOL0     H20357  -2.831   1.776   8.253  2.4567 -1.1901 -1.6476
  912MOL0     H20358  -2.887   2.068   8.192  1.3598  0.8871  1.0423
  912MOL0     H20359  -2.855   1.996   8.345  3.0578 -1.5075 -1.9004
  912MOL0     H20360  -3.057   1.858   8.326  2.6105 -0.7159 -2.8267
  912MOL0     H20361  -3.105   1.950   8.181  1.1305 -1.0121 -1.2728
  912MOL0     H20362  -3.127   2.153   8.297 -2.8640 -0.8777 -2.0226
  912MOL0     H20363  -3.238   2.023   8.351  1.1750 -0.8911  0.3775
  912MOL0     H20364  -3.024   2.172   8.502 -1.1144  1.9496  0.9933
  912MOL0     H20365  -3.025   1.993   8.521 -0.6059 -0.0774 -2.5573
  912MOL0     H20366  -2.253   1.854   7.950  0.7117  3.0566 -2.1976
  912MOL0     H20367  -2.011   1.892   7.908  0.0449  1.1184  0.1683
  912MOL0     H20368  -1.610   1.968   7.761  2.1394  2.5639 -0.7837
  912MOL0     H20369  -1.378   2.018   7.748 -1.9896 -4.2010 -0.9948
  912MOL0     H20370   0.276   2.481   7.532 -2.0497 -3.1046  0.6720
  912MOL0     H20371   0.506   2.558   7.563  0.7448 -2.1194  1.2007
  912MOL0     H20372   0.902   2.765   7.255 -1.9136 -0.1005  0.9963
  912MOL0     H20373   1.131   2.832   7.283 -2.0098 -1.0467 -2.1599
  912MOL0     H20374   1.387   2.599   7.588  0.9807 -1.4474 -1.6543
  912MOL0     H20375   1.318   2.754   7.644  0.9873 -0.4969  1.4057
  912MOL0     H20376   1.587   2.748   7.633 -0.5199  0.0806  0.8928
  912MOL0     H20377   1.560   2.737   7.462 -1.2364  0.0475 -1.5879
  912MOL0     H20378   1.443   2.956   7.627 -2.2404  0.9715 -3.2125
  912MOL0     H20379   1.458   2.968   7.457  0.0141  1.1010  1.1184
  912MOL0     H20380   1.692   2.967   7.636  2.4684 -2.3970 -1.7794
  912MOL0     H20381   1.694   3.001   7.452 -0.1685  0.9759  0.9233
  912MOL0     H20382   1.538   3.367   7.574 -0.1027  0.5636 -0.6704
  912MOL0     H20383   1.182   2.558   7.598 -0.0830 -2.1439 -0.0800
  912MOL0     H20384   0.955   2.489   7.582 -1.5221 -0.1662 -0.6699
  913MOL0     O20385   4.881   0.628   4.971  1.0739  0.4785 -0.1247
  913MOL0     C20386   4.875   0.712   5.069 -0.3308  0.7999  0.4085
  913MOL0     O20387   4.968   0.813   5.099  0.3856 -0.8206 -0.1134
  913MOL0     C20388   5.089   0.795   5.040  0.4783 -0.3377 -0.4217
  913MOL0     C20389   5.112   0.802   4.909 -0.2511  0.2582  0.0582
  913MOL0     C20390   5.235   0.788   4.850  0.6585 -0.0344  0.2448
  913MOL0     C20391   5.348   0.763   4.931 -0.0124  1.1041  0.6040
  913MOL0     O20392   5.468   0.747   4.862  0.5498  0.6110  0.2142
  913MOL0     C20393   5.527   0.615   4.867 -0.5626 -0.3264 -0.7262
  913MOL0     C20394   5.457   0.526   4.760  0.0601 -0.2855  0.0130
  913MOL0     C20395   5.486   0.379   4.793  0.2880  0.1344 -0.2084
  913MOL0     C20396   5.452   0.302   4.671 -0.5401 -0.1818  0.6546
  913MOL0     C20397   5.313   0.332   4.605  0.5161  1.1390 -0.6248
  913MOL0     C20398   5.200   0.301   4.702 -0.1821 -0.4730  0.3399
  913MOL0     C20399   5.055   0.295   4.644 -0.2936  0.5105 -0.0562
  913MOL0     C20400   5.030   0.423   4.553 -0.4561 -0.0209 -0.7038
  913MOL0     N20401   4.920   0.398   4.465 -0.4794 -0.8901  0.0256
  913MOL0     C20402   4.799   0.358   4.507 -0.0295 -0.0060  0.4120
  913MOL0     C20403   4.742   0.317   4.392  0.4159  0.1018  0.0699
  913MOL0     C20404   4.601   0.252   4.393  0.5958  0.7112  0.3826
  913MOL0     C20405   4.585   0.159   4.504  0.5672 -0.1306 -0.0639
  913MOL0     C20406   4.464   0.074   4.484  0.1950  0.7216 -0.2443
  913MOL0     C20407   4.336   0.149   4.510  0.3858  0.0649 -1.0595
  913MOL0     O20408   4.238   0.044   4.525  0.1211  0.2003  0.0362
  913MOL0     C20409   4.107   0.055   4.477  0.2772  1.0110 -0.8880
  913MOL0     C20410   4.049   0.180   4.449 -0.7394 -0.1468 -0.3873
  913MOL0     C20411   3.919   0.190   4.403 -0.0357  1.0860  0.1464
  913MOL0     C20412   3.841   0.073   4.402  0.0796  0.3223 -0.8762
  913MOL0     C20413   3.700   0.081   4.353  0.0475  0.1199 -0.0911
  913MOL0     O20414   3.623  -0.030   4.360 -0.4154 -0.5837 -0.3769
  913MOL0     C20415   3.490  -0.028   4.323  0.2652 -0.5672  0.2702
  913MOL0     C20416   3.408  -0.133   4.373 -0.3568 -0.0907  0.1962
  913MOL0     C20417   3.273  -0.131   4.345  0.6857 -0.6395  0.0140
  913MOL0     C20418   3.206  -0.023   4.280  0.3448 -0.5431  0.0489
  913MOL0     O20419   3.074  -0.009   4.265 -0.8765 -0.3758  0.3290
  913MOL0     C20420   3.005  -0.129   4.252  0.8341 -0.4327 -0.1945
  913MOL0     C20421   2.869  -0.099   4.196 -0.2517  0.1393  1.0782
  913MOL0     C20422   2.805   0.040   4.229 -0.1160  0.3331 -0.4908
  913MOL0     C20423   2.649   0.036   4.221 -0.9891  0.4113  0.0384
  913MOL0     C20424   2.591   0.174   4.240 -0.0485 -0.2591 -0.1475
  913MOL0     C20425   2.460   0.187   4.173  1.1684 -0.0240  0.2599
  913MOL0     C20426   2.390   0.326   4.203  0.0290  0.3563  0.7139
  913MOL0     C20427   2.292   0.359   4.094  0.0599  0.3461 -0.8238
  913MOL0    Cl20428   2.199   0.215   4.051  0.2241 -0.1610  0.2954
  913MOL0     C20429   3.292   0.069   4.217  0.2822 -0.0343  0.7390
  913MOL0     C20430   3.429   0.069   4.246  0.1639  0.0075 -0.3966
  913MOL0     O20431   3.665   0.191   4.314 -0.8014 -0.1932  0.1540
  913MOL0     C20432   3.895  -0.060   4.432  1.2296 -1.1260  0.5803
  913MOL0     C20433   4.030  -0.056   4.470 -0.0384  0.1307  0.0828
  913MOL0     N20434   4.825   0.339   4.290 -0.0779  0.1872  0.0764
  913MOL0     N20435   4.936   0.380   4.325  0.1901  0.1058 -0.4869
  913MOL0     C20436   5.330   0.782   5.067 -0.0996  0.4049  0.8929
  913MOL0     C20437   5.202   0.799   5.125  0.1184 -0.4743 -0.2889
  913MOL0     C20438   4.762   0.697   5.161  0.5086 -0.0132 -0.1830
  913MOL0     C20439   4.661   0.601   5.153 -0.2892 -1.1338  0.1370
  913MOL0     C20440   4.549   0.589   5.239 -0.1684 -0.3694 -0.0592
  913MOL0     C20441   4.542   0.670   5.351 -0.1894  0.0216 -0.3855
  913MOL0     O20442   4.441   0.637   5.438 -0.0005  0.6150  0.4778
  913MOL0     C20443   4.403   0.720   5.552 -0.3273  0.5860 -0.2512
  913MOL0     C20444   4.326   0.649   5.664  0.3749 -0.1382 -0.5352
  913MOL0     C20445   4.408   0.542   5.730  0.4310  0.0423 -0.1154
  913MOL0     C20446   4.319   0.475   5.839 -0.7679  0.0570  0.9039
  913MOL0     C20447   4.398   0.370   5.902  0.2934  1.2283 -0.0805
  913MOL0     C20448   4.462   0.286   5.970 -0.5428 -0.1836 -0.2063
  913MOL0     C20449   4.641   0.771   5.363  0.8852  0.6435  0.0614
  913MOL0     C20450   4.742   0.785   5.273  0.5686 -0.2841  0.4209
  913MOL0     H20451   5.022   0.813   4.849  0.4632 -0.2572 -1.1347
  913MOL0     H20452   5.237   0.774   4.742  1.5549 -1.7919  0.4565
  913MOL0     H20453   5.529   0.574   4.968  1.8313 -1.4419 -1.1689
  913MOL0     H20454   5.631   0.621   4.834 -0.5697 -0.9070 -0.8708
  913MOL0     H20455   5.494   0.550   4.660 -2.1829 -0.7019 -0.9843
  913MOL0     H20456   5.352   0.558   4.751  0.6421  1.9805  0.6040
  913MOL0     H20457   5.427   0.337   4.875 -1.7871  0.6439 -1.3804
  913MOL0     H20458   5.591   0.366   4.822  0.2083 -1.2215 -0.4421
  913MOL0     H20459   5.519   0.331   4.589  0.4319 -1.7760  0.8427
  913MOL0     H20460   5.462   0.195   4.686  0.5721 -0.6663 -2.6904
  913MOL0     H20461   5.293   0.265   4.520 -0.3386 -0.9600  1.1470
  913MOL0     H20462   5.300   0.439   4.582  0.5790  1.6162  1.4150
  913MOL0     H20463   5.195   0.377   4.780  0.5011  2.2129 -2.0998
  913MOL0     H20464   5.229   0.207   4.749 -0.1961 -0.8306 -0.3544
  913MOL0     H20465   5.039   0.202   4.589  0.4012  1.7357 -2.4999
  913MOL0     H20466   4.982   0.289   4.725  0.1227 -1.9363  0.2175
  913MOL0     H20467   5.113   0.459   4.491  0.5079 -0.0092  0.5576
  913MOL0     H20468   4.993   0.510   4.609 -2.9310 -1.1833 -0.3612
  913MOL0     H20469   4.751   0.365   4.604 -2.2206  5.3984 -0.7049
  913MOL0     H20470   4.597   0.202   4.296  0.5579 -0.5062  0.9920
  913MOL0     H20471   4.526   0.330   4.406  0.3978  0.2323  2.4630
  913MOL0     H20472   4.564   0.215   4.596 -2.2304 -2.2163  0.6796
  913MOL0     H20473   4.673   0.096   4.519 -0.0461 -0.4486  2.5820
  913MOL0     H20474   4.451   0.029   4.385 -1.9743  2.0083 -0.5914
  913MOL0     H20475   4.467  -0.012   4.552 -3.6287 -0.2444 -1.0515
  913MOL0     H20476   4.326   0.233   4.440  2.1127 -0.9536 -2.6210
  913MOL0     H20477   4.339   0.193   4.610  0.2280 -2.1229 -0.0424
  913MOL0     H20478   4.109   0.270   4.461 -1.0913  0.3711 -2.2228
  913MOL0     H20479   3.875   0.281   4.363  1.0792  0.2962 -3.1838
  913MOL0     H20480   3.450  -0.210   4.438 -0.7479 -2.0752 -1.7661
  913MOL0     H20481   3.212  -0.212   4.383 -2.1442  0.5564 -1.7019
  913MOL0     H20482   2.981  -0.161   4.353 -1.4487  2.0740  0.1487
  913MOL0     H20483   3.066  -0.189   4.183 -1.1782 -1.4175 -1.2011
  913MOL0     H20484   2.800  -0.180   4.222 -0.7641 -0.1755 -1.0623
  913MOL0     H20485   2.877  -0.107   4.087  1.0148 -0.6647  1.2043
  913MOL0     H20486   2.843   0.114   4.158  0.5614  0.6424  0.1784
  913MOL0     H20487   2.824   0.068   4.333 -1.4417 -2.6990  0.6938
  913MOL0     H20488   2.614  -0.003   4.125 -5.1421  1.4509  0.9257
  913MOL0     H20489   2.613  -0.039   4.293  0.8714 -0.8796 -0.2911
  913MOL0     H20490   2.654   0.252   4.196 -2.1930 -0.4652 -4.0172
  913MOL0     H20491   2.571   0.186   4.347 -1.6803  1.0788 -0.5558
  913MOL0     H20492   2.395   0.102   4.198 -3.6239  3.0590 -0.4200
  913MOL0     H20493   2.483   0.185   4.066  1.2945  1.1883  0.2545
  913MOL0     H20494   2.351   0.324   4.305 -0.0859  0.4845  0.6727
  913MOL0     H20495   2.469   0.401   4.207  0.2168  0.3039 -1.2806
  913MOL0     H20496   2.344   0.386   4.001  1.9625  0.4216  0.2122
  913MOL0     H20497   2.235   0.443   4.133  1.4340  0.7405  0.4266
  913MOL0     H20498   3.251   0.153   4.162  1.8218  0.5261  0.4231
  913MOL0     H20499   3.479   0.147   4.190 -1.6443  1.0825 -0.6174
  913MOL0     H20500   3.835  -0.150   4.425  1.3885 -1.5013  3.2143
  913MOL0     H20501   4.078  -0.153   4.484  0.0045 -0.6558 -4.0630
  913MOL0     H20502   5.414   0.771   5.135  0.9288  1.0340 -0.2329
  913MOL0     H20503   5.183   0.817   5.230  1.6394 -0.8198  0.0692
  913MOL0     H20504   4.659   0.535   5.067  0.2605 -1.4052  0.3299
  913MOL0     H20505   4.471   0.514   5.241 -2.1552  1.4600 -2.0121
  913MOL0     H20506   4.352   0.812   5.522  1.1454  0.7245 -2.5220
  913MOL0     H20507   4.499   0.752   5.593 -0.6055 -0.2651  1.1248
  913MOL0     H20508   4.299   0.721   5.742  1.2686 -0.5011  0.1422
  913MOL0     H20509   4.240   0.597   5.622  0.1103 -0.4689  0.3846
  913MOL0     H20510   4.505   0.581   5.764  1.3036 -0.4445 -1.9544
  913MOL0     H20511   4.432   0.467   5.654 -2.0132 -0.0979 -0.8036
  913MOL0     H20512   4.264   0.547   5.900 -1.6847 -0.2725  0.4858
  913MOL0     H20513   4.254   0.417   5.773  3.0487 -1.3139 -1.9735
  913MOL0     H20514   4.537   0.223   6.013 -1.5641 -2.6690 -1.9130
  913MOL0     H20515   4.638   0.832   5.453 -2.1072  1.1366 -0.2565
  913MOL0     H20516   4.818   0.858   5.296 -0.7077  1.6086 -0.9960
  914MOL0     O20517   9.418   7.055  10.822  0.0501  0.9897 -0.5075
  914MOL0     C20518   9.388   7.171  10.824  0.6716 -0.2316 -0.1867
  914MOL0     O20519   9.264   7.224  10.855  0.0490 -0.1665  0.5896
  914MOL0     C20520   9.171   7.147  10.905  0.6136  0.0875  0.1078
  914MOL0     C20521   9.056   7.104  10.836 -0.0582 -0.3651  0.9745
  914MOL0     C20522   8.957   7.025  10.891  0.1447 -0.6847 -0.2469
  914MOL0     C20523   8.964   6.988  11.024  0.1728  0.4429  0.9227
  914MOL0     O20524   8.855   6.914  11.063 -0.2753  0.7464 -0.0906
  914MOL0     C20525   8.874   6.828  11.169 -0.9115 -0.1268  0.1323
  914MOL0     C20526   8.803   6.697  11.154  0.1206 -0.1133 -0.4675
  914MOL0     C20527   8.655   6.710  11.113 -0.1640 -0.1935  0.2842
  914MOL0     C20528   8.608   6.594  11.037  0.0661 -0.0348  0.4859
  914MOL0     C20529   8.457   6.590  11.027  1.1054 -0.2698 -0.5545
  914MOL0     C20530   8.397   6.481  10.930 -0.6260  0.9985  0.0167
  914MOL0     C20531   8.255   6.429  10.941 -0.4163 -0.5449  0.0603
  914MOL0     C20532   8.151   6.541  10.943  0.0751  0.1489 -0.8848
  914MOL0     N20533   8.009   6.494  10.970 -0.0824 -0.9038 -0.6700
  914MOL0     C20534   7.936   6.411  10.896  0.4959  0.7652  0.6890
  914MOL0     C20535   7.850   6.357  10.982 -1.2235  0.3364  0.0289
  914MOL0     C20536   7.760   6.235  10.953 -1.0154 -0.3364 -0.8817
  914MOL0     C20537   7.630   6.254  10.870  0.2904  0.7679 -0.0158
  914MOL0     C20538   7.542   6.357  10.929  0.9741 -0.7712 -0.0900
  914MOL0     C20539   7.498   6.317  11.070  0.5872  0.3241 -0.9197
  914MOL0     O20540   7.403   6.414  11.120  0.4227 -0.1915  1.1040
  914MOL0     C20541   7.273   6.378  11.118  0.0490  0.4999 -0.1181
  914MOL0     C20542   7.202   6.390  11.239 -1.0296 -1.1145  0.5087
  914MOL0     C20543   7.071   6.359  11.251 -0.0450  0.2123  0.0224
  914MOL0     C20544   6.992   6.296  11.151 -0.0271  0.2761  1.0505
  914MOL0     C20545   6.843   6.260  11.163  0.1567 -0.0272  0.1193
  914MOL0     O20546   6.778   6.215  11.053  0.1495 -0.4862 -0.0383
  914MOL0     C20547   6.638   6.217  11.057 -0.5495 -0.2286 -1.1821
  914MOL0     C20548   6.575   6.107  10.993  0.1973  1.0528  1.1961
  914MOL0     C20549   6.443   6.089  10.979  0.3360 -0.2563 -0.1277
  914MOL0     C20550   6.361   6.172  11.057  0.7018 -0.0738 -0.2382
  914MOL0     O20551   6.218   6.175  11.059  0.2390  0.9115  0.5907
  914MOL0     C20552   6.132   6.064  10.999 -0.3275  0.3632  0.7135
  914MOL0     C20553   5.990   6.103  11.035  0.4649 -1.0404  0.4418
  914MOL0     C20554   5.966   6.120  11.190 -0.8549  0.9630  0.1875
  914MOL0     C20555   5.822   6.148  11.226 -0.3963 -0.1195  0.4665
  914MOL0     C20556   5.790   6.184  11.375 -0.8072 -0.1805  0.0698
  914MOL0     C20557   5.646   6.234  11.380 -1.0729 -0.0414  0.6798
  914MOL0     C20558   5.628   6.334  11.498  0.1471  1.0441  0.7825
  914MOL0     C20559   5.492   6.384  11.508  0.3811 -0.5665  0.4750
  914MOL0    Cl20560   5.363   6.261  11.478  0.2907  0.3718  0.0281
  914MOL0     C20561   6.412   6.287  11.128 -0.8367  0.7223  1.3737
  914MOL0     C20562   6.550   6.304  11.131  0.0507  0.2443  0.1507
  914MOL0     O20563   6.802   6.256  11.279  0.3709 -0.0004  0.1728
  914MOL0     C20564   7.063   6.269  11.030 -0.6947  0.2396  0.0186
  914MOL0     C20565   7.198   6.306  11.022 -0.7309  0.4379 -0.0723
  914MOL0     N20566   7.856   6.430  11.097  0.9910  0.3400  0.1189
  914MOL0     N20567   7.951   6.511  11.092  0.0508  0.7035 -0.3714
  914MOL0     C20568   9.072   7.036  11.102 -0.1167 -0.3414  0.7044
  914MOL0     C20569   9.180   7.111  11.038  0.3863  0.6034  0.2561
  914MOL0     C20570   9.492   7.273  10.810 -0.2992 -0.1899 -0.0718
  914MOL0     C20571   9.481   7.403  10.853  0.2305 -0.0151 -0.2032
  914MOL0     C20572   9.578   7.494  10.822  0.1978  0.0548 -0.3269
  914MOL0     C20573   9.692   7.456  10.760  0.6758  0.6940  0.7597
  914MOL0     O20574   9.788   7.554  10.748  0.1379 -0.1137  0.9473
  914MOL0     C20575   9.908   7.532  10.675  0.6474  0.2743  0.9190
  914MOL0     C20576  10.023   7.624  10.741 -0.3088  0.2848 -0.1851
  914MOL0     C20577  10.151   7.636  10.650  0.9516 -0.0579 -0.1320
  914MOL0     C20578  10.273   7.611  10.730  0.0501  0.1187  1.0130
  914MOL0     C20579  10.394   7.610  10.647  0.9811  0.1208  0.1721
  914MOL0     C20580  10.490   7.614  10.578 -0.4677 -0.0729 -0.0994
  914MOL0     C20581   9.712   7.326  10.727  0.6544 -0.0077 -0.5144
  914MOL0     C20582   9.620   7.232  10.756  0.2055 -0.2218  0.6538
  914MOL0     H20583   9.053   7.141  10.733 -3.4036 -0.1252  1.0619
  914MOL0     H20584   8.876   6.991  10.827 -0.8087  3.9718 -1.9155
  914MOL0     H20585   8.831   6.877  11.257 -3.2595 -0.8724 -0.5252
  914MOL0     H20586   8.979   6.812  11.197 -1.7171  0.0367  3.7236
  914MOL0     H20587   8.806   6.641  11.248  0.8540  4.0350  2.2897
  914MOL0     H20588   8.849   6.652  11.066  3.7462  0.3972  1.0244
  914MOL0     H20589   8.634   6.798  11.051 -0.1075 -1.0035 -0.9231
  914MOL0     H20590   8.592   6.725  11.201 -0.4679 -1.4427  0.2891
  914MOL0     H20591   8.651   6.583  10.937  0.7319 -4.8929  1.0774
  914MOL0     H20592   8.637   6.502  11.088 -1.1194 -0.4516  0.4411
  914MOL0     H20593   8.425   6.690  10.995  0.6899 -0.2286 -0.0304
  914MOL0     H20594   8.430   6.571  11.131  0.0826 -0.6750 -0.8710
  914MOL0     H20595   8.453   6.389  10.947  1.2996  2.3356  1.2920
  914MOL0     H20596   8.406   6.520  10.828 -4.2869  0.2077 -0.7767
  914MOL0     H20597   8.241   6.351  10.867 -2.1706 -3.4430  3.1682
  914MOL0     H20598   8.246   6.377  11.037  2.2967 -1.3757 -0.0543
  914MOL0     H20599   8.157   6.592  10.847 -0.2313 -0.4521 -1.2267
  914MOL0     H20600   8.179   6.609  11.024 -1.7609 -1.1724  0.9607
  914MOL0     H20601   7.955   6.376  10.795  3.5387 -1.0916  1.7700
  914MOL0     H20602   7.738   6.183  11.047 -4.4497 -2.2914 -2.5875
  914MOL0     H20603   7.820   6.164  10.896  1.2599 -0.6465  1.6463
  914MOL0     H20604   7.587   6.157  10.846  1.1877  0.6183 -1.1016
  914MOL0     H20605   7.657   6.292  10.771 -1.6675  0.2695 -0.7839
  914MOL0     H20606   7.583   6.458  10.937  0.8221 -0.8399  5.3797
  914MOL0     H20607   7.451   6.355  10.868  1.0778  1.4705 -0.3938
  914MOL0     H20608   7.582   6.312  11.139  1.3831  1.7302 -1.7423
  914MOL0     H20609   7.457   6.215  11.066  0.3959  0.3763 -0.3516
  914MOL0     H20610   7.254   6.426  11.327  0.2004  2.0664 -1.3192
  914MOL0     H20611   7.028   6.392  11.345 -0.2368  4.3429 -1.3323
  914MOL0     H20612   6.635   6.031  10.943 -1.9326  0.0670  0.0177
  914MOL0     H20613   6.402   6.004  10.926  0.4411  0.3843 -1.2754
  914MOL0     H20614   6.165   5.976  11.056  1.3544  0.3505 -0.2107
  914MOL0     H20615   6.155   6.045  10.894  3.0616  2.3346  0.9493
  914MOL0     H20616   5.907   6.034  11.014  0.2178 -0.6509  0.1152
  914MOL0     H20617   5.968   6.196  10.982 -1.5731 -1.7226  0.0004
  914MOL0     H20618   6.037   6.197  11.222  0.8502 -0.0128 -1.0818
  914MOL0     H20619   5.995   6.026  11.238 -1.8350 -1.4875 -3.6289
  914MOL0     H20620   5.806   6.228  11.153  1.1549 -0.2570 -0.0768
  914MOL0     H20621   5.767   6.057  11.198  3.2987 -1.4761 -3.6968
  914MOL0     H20622   5.853   6.270  11.396 -0.8658  1.6863 -5.6695
  914MOL0     H20623   5.810   6.102  11.444  3.2649 -0.8349 -1.5634
  914MOL0     H20624   5.582   6.145  11.389 -2.5197  0.7874 -0.8775
  914MOL0     H20625   5.632   6.288  11.286  1.1354 -4.7419 -2.7599
  914MOL0     H20626   5.646   6.282  11.593 -0.7234  1.8732  1.4221
  914MOL0     H20627   5.703   6.413  11.500  0.0154  1.3018 -1.4678
  914MOL0     H20628   5.477   6.462  11.433  0.6566  1.0461  2.0414
  914MOL0     H20629   5.491   6.433  11.606  3.7650 -0.7115  0.7126
  914MOL0     H20630   6.345   6.346  11.190 -1.7662  1.0619  0.0737
  914MOL0     H20631   6.599   6.373  11.199 -2.0027  1.4777  0.4769
  914MOL0     H20632   7.005   6.235  10.946 -1.4092  1.2349  0.0911
  914MOL0     H20633   7.247   6.282  10.927  0.8731 -0.7223  0.9957
  914MOL0     H20634   9.075   7.012  11.208  0.0895 -0.4730  0.6685
  914MOL0     H20635   9.265   7.150  11.093 -0.7064  2.4853  0.6931
  914MOL0     H20636   9.384   7.414  10.900  0.9426  1.1458  1.0718
  914MOL0     H20637   9.580   7.598  10.851  2.6781  0.4268 -1.5296
  914MOL0     H20638   9.897   7.552  10.568 -0.8249  2.7831  1.4537
  914MOL0     H20639   9.953   7.434  10.695  1.3659 -0.9696 -5.0885
  914MOL0     H20640   9.986   7.724  10.765 -2.3408 -0.1387 -1.3376
  914MOL0     H20641  10.056   7.578  10.835  1.0191 -2.4645 -1.8697
  914MOL0     H20642  10.146   7.731  10.595  0.4018  0.2872  0.4970
  914MOL0     H20643  10.152   7.559  10.572  2.0887  0.5316 -0.7192
  914MOL0     H20644  10.277   7.701  10.792 -1.2705 -0.7278  2.3800
  914MOL0     H20645  10.275   7.521  10.791  1.3364 -0.8233 -0.3597
  914MOL0     H20646  10.580   7.604  10.521 -0.7797  1.1498 -0.8317
  914MOL0     H20647   9.807   7.299  10.682  1.2314  3.5960 -1.7256
  914MOL0     H20648   9.639   7.127  10.735 -0.6058 -0.5944  1.6952
  915MOL0     O20649   9.368   7.990   4.458  0.3905  0.1377  0.3045
  915MOL0     C20650   9.364   8.029   4.571  0.6849 -0.0479  0.1164
  915MOL0     O20651   9.263   8.008   4.649 -0.1556  0.0249 -0.9096
  915MOL0     C20652   9.149   7.966   4.592  1.0715  0.0179 -0.9122
  915MOL0     C20653   9.047   8.057   4.547  0.9415 -0.3102  0.2013
  915MOL0     C20654   8.916   8.015   4.508  0.0087  0.1040  0.6292
  915MOL0     C20655   8.887   7.886   4.465  0.3525 -0.3638 -0.6456
  915MOL0     O20656   8.767   7.847   4.414 -0.3359 -0.1994  0.7872
  915MOL0     C20657   8.696   7.953   4.342  0.1120 -0.2645 -0.0158
  915MOL0     C20658   8.601   7.875   4.253  0.0138 -0.8822  0.0677
  915MOL0     C20659   8.514   7.969   4.171 -0.1495 -0.3901 -0.5173
  915MOL0     C20660   8.449   7.871   4.065 -0.1897  1.0206  0.1249
  915MOL0     C20661   8.359   7.938   3.964 -0.7553  0.6975  0.3266
  915MOL0     C20662   8.426   8.056   3.890 -0.8750 -0.0560  0.0017
  915MOL0     C20663   8.563   8.023   3.816 -0.7928  0.8781  0.3461
  915MOL0     C20664   8.604   8.133   3.720  0.4148 -0.2635 -0.1127
  915MOL0     N20665   8.736   8.116   3.664  0.6486  0.1136 -0.2734
  915MOL0     C20666   8.847   8.165   3.722 -0.7400 -0.1721  0.0084
  915MOL0     C20667   8.944   8.150   3.633 -0.6253 -0.1514  0.0289
  915MOL0     C20668   9.086   8.175   3.623  0.0132  0.0458 -1.1823
  915MOL0     C20669   9.162   8.175   3.764  0.2573 -0.3201 -0.3086
  915MOL0     C20670   9.325   8.186   3.751 -0.1132 -0.2704  0.3474
  915MOL0     C20671   9.371   8.279   3.859 -1.0319  0.0911 -0.3496
  915MOL0     O20672   9.353   8.213   3.983  0.5953 -0.0241 -0.1614
  915MOL0     C20673   9.468   8.175   4.046  0.0764  0.4304  0.2591
  915MOL0     C20674   9.479   8.053   4.110 -0.2504 -0.4878 -1.0429
  915MOL0     C20675   9.596   8.012   4.187 -0.7094  0.8584  0.3216
  915MOL0     C20676   9.702   8.105   4.200 -0.6191 -0.1543 -0.1938
  915MOL0     C20677   9.824   8.079   4.269 -0.6715 -0.2593  0.4673
  915MOL0     O20678   9.930   8.170   4.278  0.6179 -0.5719  0.6729
  915MOL0     C20679  10.042   8.160   4.352  1.1395 -0.7421  0.0908
  915MOL0     C20680  10.111   8.045   4.376  0.4598 -0.3987 -0.2476
  915MOL0     C20681  10.223   8.041   4.460  0.2030  0.7284 -0.2292
  915MOL0     C20682  10.272   8.158   4.526  0.5517  0.5761  1.6443
  915MOL0     O20683  10.363   8.159   4.629 -0.5038 -0.4737  0.5998
  915MOL0     C20684  10.448   8.045   4.657 -0.7867 -0.6508 -0.5019
  915MOL0     C20685  10.581   8.085   4.727 -0.9559  0.7706  0.1805
  915MOL0     C20686  10.697   8.073   4.637  0.7260 -0.4204 -0.8072
  915MOL0     C20687  10.749   7.927   4.630 -0.1395 -0.5870  0.0234
  915MOL0     C20688  10.833   7.882   4.744  0.1847  0.0933  0.2313
  915MOL0     C20689  10.892   7.743   4.726  0.3032  1.1644 -0.1973
  915MOL0     C20690  11.034   7.746   4.668 -0.3379 -0.6144 -0.3317
  915MOL0     C20691  11.084   7.633   4.583  0.1051  0.0469  0.0150
  915MOL0    Cl20692  11.070   7.466   4.646  0.2889  0.4542  0.3296
  915MOL0     C20693  10.203   8.277   4.494  0.7634  0.3136  0.9559
  915MOL0     C20694  10.083   8.281   4.416 -0.9895 -0.9152 -1.1050
  915MOL0     O20695   9.825   7.974   4.332 -0.5385 -0.0037 -0.2190
  915MOL0     C20696   9.701   8.225   4.124  0.1578  0.9361  0.1093
  915MOL0     C20697   9.582   8.262   4.046 -0.3855 -0.4350 -0.7897
  915MOL0     N20698   8.883   8.084   3.530  0.2276  0.2225 -0.1860
  915MOL0     N20699   8.762   8.060   3.547 -1.1759 -0.7086  0.0760
  915MOL0     C20700   8.995   7.797   4.505  0.2583  0.0364 -0.1372
  915MOL0     C20701   9.117   7.830   4.571  0.7143 -0.1679  0.3930
  915MOL0     C20702   9.484   8.079   4.641 -0.7716 -0.1222  0.4729
  915MOL0     C20703   9.601   8.106   4.579 -0.8971 -0.0230  0.0798
  915MOL0     C20704   9.705   8.164   4.653  0.4961 -0.4461 -0.0125
  915MOL0     C20705   9.696   8.186   4.786 -0.1172 -0.2690 -0.0740
  915MOL0     O20706   9.798   8.248   4.859  0.1804  0.0540 -0.3086
  915MOL0     C20707   9.934   8.269   4.828 -0.4757  0.3858  0.1447
  915MOL0     C20708  10.017   8.149   4.804 -0.3591  0.2182  0.7259
  915MOL0     C20709  10.022   8.057   4.928  0.5725  0.4035 -0.8497
  915MOL0     C20710  10.072   8.123   5.057  0.4493  0.3394 -0.4718
  915MOL0     C20711  10.208   8.179   5.054  0.1978 -0.2723 -0.7485
  915MOL0     C20712  10.317   8.225   5.060  0.2567 -0.7557  0.7460
  915MOL0     C20713   9.582   8.155   4.853 -0.0601  0.2206  0.3009
  915MOL0     C20714   9.469   8.113   4.781 -0.1965 -0.1290 -0.6647
  915MOL0     H20715   9.069   8.163   4.553  1.0402 -0.2553 -0.8958
  915MOL0     H20716   8.838   8.088   4.488  0.8646  0.4939 -1.5965
  915MOL0     H20717   8.763   8.013   4.279  2.1858 -0.2635  2.0427
  915MOL0     H20718   8.643   8.021   4.410 -1.5315 -0.6961 -0.8294
  915MOL0     H20719   8.543   7.799   4.305  2.7493 -3.0910  0.1149
  915MOL0     H20720   8.662   7.814   4.186  3.0512  0.1630  1.6814
  915MOL0     H20721   8.567   8.052   4.124 -2.7033  0.4887 -2.0430
  915MOL0     H20722   8.434   8.014   4.231 -0.6269 -2.6907  0.6674
  915MOL0     H20723   8.539   7.830   4.018  0.7865  3.2012 -0.0503
  915MOL0     H20724   8.398   7.787   4.113 -0.0641 -1.9050 -4.3116
  915MOL0     H20725   8.264   7.967   4.011 -2.7879 -1.1091 -2.3474
  915MOL0     H20726   8.329   7.854   3.900  1.5500  0.3254 -0.3731
  915MOL0     H20727   8.430   8.142   3.957  2.1007  0.0671 -0.1989
  915MOL0     H20728   8.358   8.076   3.807  0.3936  0.6484 -0.9049
  915MOL0     H20729   8.639   8.019   3.895 -0.0307  1.7335 -0.3364
  915MOL0     H20730   8.548   7.928   3.764  1.6954  1.6575 -2.0474
  915MOL0     H20731   8.606   8.232   3.767  3.3228 -0.5845  0.6371
  915MOL0     H20732   8.528   8.136   3.641  1.6914 -0.0705 -1.3619
  915MOL0     H20733   8.858   8.198   3.825  0.6354 -1.2438  0.2501
  915MOL0     H20734   9.095   8.276   3.583  2.1147  0.7864  0.8918
  915MOL0     H20735   9.125   8.102   3.552 -4.1398 -1.7525 -1.8987
  915MOL0     H20736   9.137   8.087   3.825  0.6332 -0.0113  0.3008
  915MOL0     H20737   9.122   8.257   3.824 -0.4904 -1.0961  0.2781
  915MOL0     H20738   9.374   8.089   3.765  0.8389 -0.4725 -3.4468
  915MOL0     H20739   9.358   8.229   3.656  2.0822 -1.9168  0.2972
  915MOL0     H20740   9.321   8.376   3.854  1.0429  1.3825  1.8702
  915MOL0     H20741   9.476   8.285   3.829 -0.5088 -1.1022  1.0895
  915MOL0     H20742   9.391   7.990   4.106  0.4993 -1.9928  2.5121
  915MOL0     H20743   9.585   7.917   4.240 -0.3263  1.1764  0.9720
  915MOL0     H20744  10.072   7.954   4.332  1.1228 -0.9919  0.3497
  915MOL0     H20745  10.281   7.950   4.470 -1.2881 -0.1019  1.4904
  915MOL0     H20746  10.462   7.985   4.567 -0.5143 -1.8432  0.3025
  915MOL0     H20747  10.394   7.990   4.735  1.0029  0.3324  1.5322
  915MOL0     H20748  10.592   8.033   4.822 -2.8882 -0.5597 -0.2773
  915MOL0     H20749  10.558   8.186   4.761  0.1754  0.3245  2.4524
  915MOL0     H20750  10.775   8.131   4.688 -0.5599 -0.6348  1.5303
  915MOL0     H20751  10.682   8.130   4.545 -0.3699  1.5368  0.4912
  915MOL0     H20752  10.664   7.860   4.614  0.0815 -0.7225 -0.5937
  915MOL0     H20753  10.801   7.913   4.535  0.0547 -2.5059  0.3821
  915MOL0     H20754  10.765   7.868   4.828  0.7603 -1.1705  0.5132
  915MOL0     H20755  10.913   7.956   4.754 -2.2271  3.5401 -3.1442
  915MOL0     H20756  10.824   7.676   4.673  0.5261  0.2779  0.6360
  915MOL0     H20757  10.905   7.694   4.822  0.0583  1.1314 -0.1806
  915MOL0     H20758  11.035   7.829   4.597 -0.9326 -0.8426 -0.6179
  915MOL0     H20759  11.106   7.763   4.748 -0.6698 -3.3976  0.6463
  915MOL0     H20760  11.189   7.651   4.560  0.2441 -2.5672 -1.8376
  915MOL0     H20761  11.030   7.648   4.489  0.3494  1.3766  0.0597
  915MOL0     H20762  10.243   8.363   4.546 -0.4352  2.5138 -1.4887
  915MOL0     H20763  10.053   8.381   4.390  2.1760  0.5561  0.3594
  915MOL0     H20764   9.788   8.290   4.122  0.4526  0.5269 -0.4746
  915MOL0     H20765   9.578   8.363   4.005 -1.9894  0.9321  2.3929
  915MOL0     H20766   8.978   7.694   4.475  1.1610  0.8547 -3.9610
  915MOL0     H20767   9.186   7.749   4.593  2.6144  1.3117  0.1154
  915MOL0     H20768   9.614   8.097   4.472  4.4884  2.8006  0.1535
  915MOL0     H20769   9.796   8.206   4.611 -0.9642  2.3703 -0.6555
  915MOL0     H20770   9.979   8.329   4.907  2.9181 -2.4801  0.6033
  915MOL0     H20771   9.926   8.337   4.743 -0.5169  1.9429  1.3544
  915MOL0     H20772   9.991   8.089   4.717 -0.0206  0.6900  0.2865
  915MOL0     H20773  10.119   8.185   4.783  0.4905 -1.8525  1.1157
  915MOL0     H20774  10.076   7.962   4.925 -1.0984 -0.7178  1.6711
  915MOL0     H20775   9.922   8.018   4.949  0.6829  1.1895  1.4258
  915MOL0     H20776  10.008   8.206   5.090 -0.3556 -0.6321  0.5069
  915MOL0     H20777  10.062   8.053   5.140  1.1909  1.8743  0.9735
  915MOL0     H20778  10.415   8.260   5.082 -0.1551  2.3612 -1.7507
  915MOL0     H20779   9.583   8.179   4.959  0.4730 -0.8719  0.5578
  915MOL0     H20780   9.381   8.107   4.844  0.4104 -0.9800  0.1393
  916MOL0     O20781   3.222   6.309   0.370 -0.1633  0.8120 -0.9288
  916MOL0     C20782   3.327   6.249   0.383 -0.0001  0.7126  0.3635
  916MOL0     O20783   3.354   6.127   0.327 -0.4894 -0.3365 -0.4462
  916MOL0     C20784   3.274   6.065   0.236  0.9168 -0.3522 -0.2674
  916MOL0     C20785   3.179   6.127   0.152  0.1143 -0.1993 -0.2088
  916MOL0     C20786   3.126   6.059   0.039  0.0587  0.1584 -1.0923
  916MOL0     C20787   3.168   5.922   0.017 -0.3610 -0.2970  0.2335
  916MOL0     O20788   3.122   5.834  -0.074 -0.2957  0.0943  0.4939
  916MOL0     C20789   3.021   5.863  -0.168 -0.1390  0.6541  0.1502
  916MOL0     C20790   2.874   5.902  -0.125 -0.3892  0.4094 -0.8247
  916MOL0     C20791   2.796   5.775  -0.074 -0.0462  0.3339  0.3798
  916MOL0     C20792   2.652   5.807  -0.051 -0.4415  0.4479  1.1976
  916MOL0     C20793   2.559   5.692  -0.002  0.5517  0.5235  0.6710
  916MOL0     C20794   2.446   5.715   0.087  0.3494 -0.3989 -0.2178
  916MOL0     C20795   2.364   5.594   0.125 -0.6915 -0.1064  0.4684
  916MOL0     C20796   2.442   5.500   0.226 -0.1296  0.0905  0.8387
  916MOL0     N20797   2.347   5.411   0.286 -0.6241 -0.0733 -0.4892
  916MOL0     C20798   2.290   5.440   0.412  0.3748 -0.1254 -0.7529
  916MOL0     C20799   2.198   5.341   0.419 -0.6604 -0.1915  0.0931
  916MOL0     C20800   2.089   5.331   0.527 -0.0217  0.2841 -0.3358
  916MOL0     C20801   1.948   5.308   0.476  0.4144 -0.6547  0.1636
  916MOL0     C20802   1.874   5.436   0.440 -0.6030 -0.0833  0.3361
  916MOL0     C20803   1.820   5.533   0.552  0.3547  0.7966  0.0833
  916MOL0     O20804   1.757   5.475   0.662  0.4674 -0.1932 -1.0628
  916MOL0     C20805   1.625   5.438   0.669 -0.0891  0.4567  0.5798
  916MOL0     C20806   1.543   5.430   0.561 -0.0078  0.0446  0.4628
  916MOL0     C20807   1.413   5.399   0.587  1.5764  0.9909 -0.9064
  916MOL0     C20808   1.357   5.372   0.710 -0.1456 -1.1065 -0.6157
  916MOL0     C20809   1.209   5.344   0.734 -0.2461 -0.2963  1.6215
  916MOL0     O20810   1.157   5.322   0.859 -0.2473  0.2153 -0.3718
  916MOL0     C20811   1.029   5.329   0.892  0.3016  0.8028  0.7079
  916MOL0     C20812   0.930   5.400   0.819  1.0584  0.5205 -1.1552
  916MOL0     C20813   0.801   5.411   0.865  0.2918 -0.3146  0.4309
  916MOL0     C20814   0.764   5.366   0.990  0.9070 -0.5500  0.7589
  916MOL0     O20815   0.640   5.382   1.046  0.2127  0.1126 -0.8880
  916MOL0     C20816   0.622   5.520   1.083 -0.7091  0.3388 -0.2651
  916MOL0     C20817   0.481   5.533   1.149 -0.1514 -0.1697  0.0464
  916MOL0     C20818   0.365   5.449   1.086 -0.5842 -0.2652  0.4828
  916MOL0     C20819   0.214   5.486   1.126  0.0084  0.0139 -0.3963
  916MOL0     C20820   0.112   5.428   1.021  0.1373 -0.4392 -0.2793
  916MOL0     C20821  -0.032   5.465   1.066  0.1806 -0.0724  0.8332
  916MOL0     C20822  -0.141   5.371   1.015 -0.3528  0.5219 -0.0555
  916MOL0     C20823  -0.180   5.385   0.867  0.0797  0.5653  1.1131
  916MOL0    Cl20824  -0.331   5.292   0.859 -0.1690  0.0782 -0.1162
  916MOL0     C20825   0.857   5.294   1.071 -0.1278  1.2402  0.2488
  916MOL0     C20826   1.000   5.276   1.020 -0.1097  0.7067  0.3336
  916MOL0     O20827   1.143   5.343   0.628  0.5475 -0.1405  0.4695
  916MOL0     C20828   1.446   5.367   0.816 -0.2452 -0.3284  0.7252
  916MOL0     C20829   1.579   5.400   0.802 -0.5656 -0.9752 -0.7763
  916MOL0     N20830   2.204   5.267   0.301  0.3594 -0.1893 -0.5991
  916MOL0     N20831   2.283   5.315   0.216  0.5523  0.0264 -0.7359
  916MOL0     C20832   3.248   5.861   0.108  0.0821 -0.8722 -0.3547
  916MOL0     C20833   3.297   5.926   0.221  0.1410  0.8238  0.0591
  916MOL0     C20834   3.431   6.312   0.467  0.2320 -0.4485  1.0028
  916MOL0     C20835   3.569   6.291   0.432  0.7387 -0.3363 -0.1983
  916MOL0     C20836   3.669   6.349   0.506  0.2950  0.7062 -0.5122
  916MOL0     C20837   3.641   6.420   0.626 -0.7566 -0.4388 -0.0614
  916MOL0     O20838   3.737   6.475   0.712 -0.7742  0.5514  0.2780
  916MOL0     C20839   3.881   6.469   0.670 -0.1752 -0.0892 -0.7662
  916MOL0     C20840   3.907   6.565   0.552  0.5092 -0.9665 -0.3120
  916MOL0     C20841   4.055   6.593   0.527 -0.5848  0.8422  0.1045
  916MOL0     C20842   4.077   6.728   0.464 -0.0498  0.4060 -0.8003
  916MOL0     C20843   4.218   6.721   0.404 -0.2299 -0.2436  0.1113
  916MOL0     C20844   4.314   6.724   0.333  0.6671  0.7135 -0.2087
  916MOL0     C20845   3.510   6.450   0.668 -0.9519  0.6223  0.7833
  916MOL0     C20846   3.405   6.397   0.582  0.4874 -0.8749 -0.4455
  916MOL0     H20847   3.155   6.232   0.165 -1.3754 -0.6034  0.4301
  916MOL0     H20848   3.059   6.105  -0.033 -1.1045  1.0689  0.5147
  916MOL0     H20849   3.005   5.772  -0.226 -3.0886  0.7127  0.6895
  916MOL0     H20850   3.054   5.934  -0.244  1.9939  0.1921  0.5864
  916MOL0     H20851   2.829   5.940  -0.218 -1.8185  2.7898  0.7308
  916MOL0     H20852   2.870   5.982  -0.051 -3.0320 -1.2698  1.0180
  916MOL0     H20853   2.833   5.735   0.021 -0.7601 -0.9617  0.1412
  916MOL0     H20854   2.820   5.701  -0.152  1.6911 -1.5731  2.5599
  916MOL0     H20855   2.652   5.887   0.023  2.3257  3.0275 -1.3555
  916MOL0     H20856   2.608   5.853  -0.140  0.1738 -0.4604  0.4054
  916MOL0     H20857   2.629   5.621   0.044  1.9946  1.8873  0.6629
  916MOL0     H20858   2.513   5.637  -0.085  3.8034 -3.3342  1.0976
  916MOL0     H20859   2.377   5.781   0.033 -2.0130 -0.9911  1.8728
  916MOL0     H20860   2.483   5.776   0.170 -0.7788  0.3495 -0.2428
  916MOL0     H20861   2.266   5.627   0.161 -0.0315  1.5361  0.8757
  916MOL0     H20862   2.342   5.547   0.029 -3.2092  2.8454 -0.5610
  916MOL0     H20863   2.489   5.569   0.296  3.5683 -0.8309 -0.5077
  916MOL0     H20864   2.524   5.450   0.173  0.4581  2.2441 -0.3920
  916MOL0     H20865   2.300   5.518   0.486 -1.2858 -1.5027  1.0134
  916MOL0     H20866   2.092   5.417   0.595  0.4903  0.1828 -0.2238
  916MOL0     H20867   2.112   5.240   0.585  0.9932  0.3840 -0.5548
  916MOL0     H20868   1.897   5.267   0.564 -1.4606  1.1241 -0.0010
  916MOL0     H20869   1.946   5.240   0.391  2.0668 -0.4932 -0.0343
  916MOL0     H20870   1.929   5.502   0.373  0.5294  1.1359  2.3557
  916MOL0     H20871   1.791   5.402   0.378  0.1068 -2.2259  0.4796
  916MOL0     H20872   1.750   5.604   0.508 -2.2425 -1.1002  0.8902
  916MOL0     H20873   1.900   5.598   0.589  0.7516  1.4445 -1.8203
  916MOL0     H20874   1.574   5.444   0.458  2.2773  0.5832  1.1679
  916MOL0     H20875   1.345   5.392   0.503  2.1156  0.2237 -1.2915
  916MOL0     H20876   0.957   5.464   0.735  1.8663 -0.9471 -2.0539
  916MOL0     H20877   0.731   5.474   0.811 -1.6097 -2.3680  0.3606
  916MOL0     H20878   0.628   5.589   0.999 -2.4188  1.2179  0.2969
  916MOL0     H20879   0.693   5.543   1.163 -2.0045  0.0314  1.0275
  916MOL0     H20880   0.445   5.636   1.150  1.3043  0.4904  3.9424
  916MOL0     H20881   0.483   5.510   1.256  0.2462  1.7158  0.4865
  916MOL0     H20882   0.379   5.343   1.105  1.2494  0.1702  1.7039
  916MOL0     H20883   0.362   5.475   0.979  0.0292 -0.2194  0.4786
  916MOL0     H20884   0.193   5.447   1.226 -1.1939 -0.3274 -0.7656
  916MOL0     H20885   0.208   5.595   1.121  2.8130  0.4652  2.6541
  916MOL0     H20886   0.122   5.319   1.011 -0.7985 -0.5769  0.1678
  916MOL0     H20887   0.118   5.460   0.917  1.9260 -2.8677 -1.0271
  916MOL0     H20888  -0.061   5.565   1.034  0.3734 -0.6034 -1.1036
  916MOL0     H20889  -0.027   5.470   1.176  0.7765  0.0075  0.8054
  916MOL0     H20890  -0.086   5.277   1.021 -0.8908  0.0003 -2.3190
  916MOL0     H20891  -0.234   5.371   1.074  1.1450 -0.0874  2.4465
  916MOL0     H20892  -0.113   5.340   0.793 -1.0567  0.3645  0.1756
  916MOL0     H20893  -0.196   5.491   0.850  3.1491  1.2029  1.5281
  916MOL0     H20894   0.830   5.262   1.171  0.1930  2.9613  0.9264
  916MOL0     H20895   1.083   5.227   1.069 -0.7220 -2.7649 -1.7604
  916MOL0     H20896   1.397   5.318   0.901  2.0091 -3.9790  0.1434
  916MOL0     H20897   1.660   5.397   0.875  1.6981  0.3663 -3.0397
  916MOL0     H20898   3.258   5.753   0.100 -3.3237 -1.6158  2.6282
  916MOL0     H20899   3.365   5.870   0.283 -1.9618 -0.8052  1.0443
  916MOL0     H20900   3.601   6.229   0.349  2.5005 -0.5419  0.6107
  916MOL0     H20901   3.763   6.308   0.471  0.4506 -0.5239  1.2077
  916MOL0     H20902   3.901   6.367   0.637 -0.0070 -0.4450  0.3646
  916MOL0     H20903   3.945   6.488   0.757 -2.8878  0.0543  1.3364
  916MOL0     H20904   3.866   6.519   0.462  1.1910  2.1260 -2.3540
  916MOL0     H20905   3.867   6.665   0.571  1.3858 -0.4600 -1.0147
  916MOL0     H20906   4.098   6.524   0.454 -1.6846  1.8855 -1.6057
  916MOL0     H20907   4.112   6.586   0.620  0.9159  3.9054 -0.4499
  916MOL0     H20908   4.008   6.750   0.383 -0.1149  0.2190 -0.7973
  916MOL0     H20909   4.069   6.809   0.537 -1.9778 -1.1543  0.8277
  916MOL0     H20910   4.405   6.714   0.279  0.1620  0.4302 -1.0235
  916MOL0     H20911   3.499   6.492   0.768 -0.0471  1.5661  0.4981
  916MOL0     H20912   3.303   6.424   0.607  1.3448  1.3480  0.9104
  917MOL0     O20913   8.645  11.213   0.168  0.0538 -0.4949 -0.0695
  917MOL0     C20914   8.558  11.234   0.253  0.7415 -0.2744  0.0942
  917MOL0     O20915   8.423  11.199   0.249  0.4991  0.3564 -0.3801
  917MOL0     C20916   8.361  11.108   0.160  0.2178 -0.0563 -0.1999
  917MOL0     C20917   8.237  11.070   0.196  0.2594 -0.6242 -0.1950
  917MOL0     C20918   8.164  10.970   0.135 -0.3425 -0.0342  0.4686
  917MOL0     C20919   8.221  10.916   0.018 -1.1626 -0.0154  0.9252
  917MOL0     O20920   8.165  10.822  -0.065  0.7106 -0.2909  0.0215
  917MOL0     C20921   8.020  10.842  -0.098  0.4361 -0.2986 -0.4909
  917MOL0     C20922   8.004  10.826  -0.250  0.5545  0.3172 -1.0121
  917MOL0     C20923   8.036  10.679  -0.286  0.1403 -0.2828  0.0949
  917MOL0     C20924   8.056  10.645  -0.435 -0.1492  0.0443 -1.3646
  917MOL0     C20925   7.937  10.606  -0.513 -0.1096  0.1724  0.3537
  917MOL0     C20926   7.973  10.549  -0.650 -0.9574  0.0353 -0.1078
  917MOL0     C20927   7.857  10.468  -0.704 -0.5017  0.3374 -0.4451
  917MOL0     C20928   7.877  10.417  -0.854 -0.2183 -0.8912  0.4716
  917MOL0     N20929   7.743  10.402  -0.906 -0.1786  0.2504 -0.4649
  917MOL0     C20930   7.636  10.330  -0.860  0.4983  0.3042 -1.3655
  917MOL0     C20931   7.549  10.323  -0.967 -0.2104 -0.2259 -0.5166
  917MOL0     C20932   7.413  10.253  -0.970 -0.1423 -1.6466  0.6149
  917MOL0     C20933   7.436  10.101  -1.010  0.0721 -0.4044  0.8764
  917MOL0     C20934   7.308  10.023  -1.019  0.1941 -0.7444 -0.3427
  917MOL0     C20935   7.250  10.028  -1.159  0.0060 -0.3071  0.3881
  917MOL0     O20936   7.202  10.157  -1.177 -0.1280  0.3758  0.0479
  917MOL0     C20937   7.066  10.168  -1.174 -0.2303 -0.3877 -0.7919
  917MOL0     C20938   6.998  10.246  -1.081 -0.5777 -0.2265 -0.3062
  917MOL0     C20939   6.862  10.264  -1.086  0.4609  0.2200 -0.3405
  917MOL0     C20940   6.787  10.237  -1.200 -0.5748  0.1068  0.6126
  917MOL0     C20941   6.647  10.271  -1.205 -0.1566 -0.5125  0.6005
  917MOL0     O20942   6.584  10.305  -1.081  0.4955 -0.4992 -0.3099
  917MOL0     C20943   6.450  10.322  -1.086  0.1411  0.0035  0.2528
  917MOL0     C20944   6.397  10.449  -1.063 -0.8884 -0.0333 -0.6198
  917MOL0     C20945   6.254  10.475  -1.050 -0.4124  0.6370 -0.8746
  917MOL0     C20946   6.157  10.373  -1.069 -0.0350  0.7470 -0.6246
  917MOL0     O20947   6.025  10.412  -1.069  0.3036 -0.4765 -0.2169
  917MOL0     C20948   5.930  10.315  -1.112 -0.2381  0.6040 -0.0985
  917MOL0     C20949   5.780  10.354  -1.091 -1.5844 -0.0715 -0.0325
  917MOL0     C20950   5.682  10.260  -1.158 -0.2124  0.1944  0.6800
  917MOL0     C20951   5.535  10.291  -1.120 -0.2159  0.9201 -0.4217
  917MOL0     C20952   5.440  10.175  -1.163 -0.5278  0.1865 -0.2360
  917MOL0     C20953   5.293  10.195  -1.111 -0.2845 -0.4801  0.4777
  917MOL0     C20954   5.207  10.320  -1.159 -0.5389 -0.2977 -0.2250
  917MOL0     C20955   5.058  10.288  -1.127  0.6455  1.2279 -0.7238
  917MOL0    Cl20956   5.014  10.254  -0.954 -0.0506 -0.2858  0.1996
  917MOL0     C20957   6.217  10.248  -1.089  0.3734 -0.4612  0.1884
  917MOL0     C20958   6.356  10.225  -1.112 -0.0581  0.2297  0.6075
  917MOL0     O20959   6.591  10.270  -1.317  0.0337  0.6870  0.9763
  917MOL0     C20960   6.859  10.165  -1.300  0.1375 -0.2897 -0.3979
  917MOL0     C20961   6.993  10.128  -1.283  0.0766  0.2991 -0.1145
  917MOL0     N20962   7.613  10.389  -1.069  0.5231 -0.0206  0.2233
  917MOL0     N20963   7.717  10.453  -1.032 -0.9698 -0.6144 -1.0197
  917MOL0     C20964   8.353  10.943  -0.015 -0.2855 -0.7546 -0.2582
  917MOL0     C20965   8.425  11.042   0.058 -0.0800  0.1353  0.1743
  917MOL0     C20966   8.579  11.331   0.361 -1.1987 -0.4741 -0.1515
  917MOL0     C20967   8.710  11.389   0.375 -0.0768 -0.4119  0.1595
  917MOL0     C20968   8.741  11.489   0.479  0.5154 -0.3658  0.6446
  917MOL0     C20969   8.642  11.517   0.571 -0.2175 -0.2081 -0.4659
  917MOL0     O20970   8.661  11.581   0.687 -0.4285 -0.2576  0.5157
  917MOL0     C20971   8.724  11.507   0.794 -0.4326 -0.5280  0.9840
  917MOL0     C20972   8.880  11.505   0.778 -0.4886  0.5835 -0.5900
  917MOL0     C20973   8.927  11.432   0.912 -0.9638 -0.7008  0.4479
  917MOL0     C20974   9.086  11.449   0.921  0.4281  0.3357  0.0630
  917MOL0     C20975   9.142  11.363   1.024 -1.0820  0.2783  0.3782
  917MOL0     C20976   9.183  11.304   1.121  0.5618  0.4561  0.4746
  917MOL0     C20977   8.517  11.458   0.565  0.2139 -0.1476 -0.2803
  917MOL0     C20978   8.483  11.368   0.460  0.2498 -0.4698 -0.2525
  917MOL0     H20979   8.202  11.101   0.293  1.3778 -1.6621  0.5780
  917MOL0     H20980   8.063  10.950   0.169 -1.0639  2.9607  0.3332
  917MOL0     H20981   7.994  10.944  -0.068  2.2955 -0.1718  0.8859
  917MOL0     H20982   7.964  10.772  -0.036 -0.9834 -0.1554 -1.5570
  917MOL0     H20983   8.083  10.880  -0.302  2.7474 -4.0895 -2.7040
  917MOL0     H20984   7.903  10.855  -0.282  0.7469  2.1088 -0.1133
  917MOL0     H20985   7.954  10.616  -0.248 -0.8137  1.1036  0.4144
  917MOL0     H20986   8.129  10.655  -0.235 -0.1290 -0.2454  0.6131
  917MOL0     H20987   8.106  10.726  -0.489  2.0035  0.7173  1.3950
  917MOL0     H20988   8.120  10.556  -0.439 -1.6860 -1.1325 -0.9437
  917MOL0     H20989   7.889  10.702  -0.532 -0.3913 -0.4605 -2.5763
  917MOL0     H20990   7.884  10.543  -0.441  0.6957  1.8566  2.5396
  917MOL0     H20991   8.062  10.486  -0.648 -2.0509 -1.7474 -2.5496
  917MOL0     H20992   8.001  10.626  -0.723  2.4315 -0.2443  0.7435
  917MOL0     H20993   7.843  10.375  -0.648  0.3462  0.5926  0.2188
  917MOL0     H20994   7.761  10.521  -0.700 -1.0919 -0.5141 -2.2521
  917MOL0     H20995   7.927  10.320  -0.853  1.1354 -0.3241 -2.0775
  917MOL0     H20996   7.937  10.489  -0.911  0.8199 -1.4593  0.8346
  917MOL0     H20997   7.624  10.297  -0.757  1.0290 -1.2082 -1.7556
  917MOL0     H20998   7.338  10.295  -1.038 -2.9460 -3.8115  2.1545
  917MOL0     H20999   7.369  10.254  -0.869  0.3491 -1.6112  0.8344
  917MOL0     H21000   7.493  10.053  -0.930 -0.0959 -1.8466  0.1577
  917MOL0     H21001   7.499  10.113  -1.098 -1.4994  1.9789 -0.0399
  917MOL0     H21002   7.344   9.920  -1.015 -0.2313 -0.9108 -0.6379
  917MOL0     H21003   7.247  10.045  -0.931  1.4171 -0.4252  0.4359
  917MOL0     H21004   7.169   9.956  -1.175 -1.5843  1.0170  2.0420
  917MOL0     H21005   7.327   9.995  -1.230 -0.5482 -0.3382 -0.2022
  917MOL0     H21006   7.062  10.298  -1.010 -1.0956  0.5309 -0.3763
  917MOL0     H21007   6.803  10.322  -1.015  0.0281 -1.1268  0.4483
  917MOL0     H21008   6.469  10.522  -1.026 -0.7599 -1.9443  3.4620
  917MOL0     H21009   6.218  10.572  -1.016  0.5842  0.8733 -0.4681
  917MOL0     H21010   5.936  10.221  -1.056 -1.8411  1.2416  1.2310
  917MOL0     H21011   5.935  10.283  -1.217 -2.8565 -1.5668  0.3278
  917MOL0     H21012   5.769  10.455  -1.132 -2.2412  0.8631  2.3000
  917MOL0     H21013   5.755  10.358  -0.985 -0.4308 -2.1909  0.3622
  917MOL0     H21014   5.696  10.156  -1.128 -1.1529 -0.1144  0.0950
  917MOL0     H21015   5.699  10.260  -1.266 -0.2544 -0.7604  0.6672
  917MOL0     H21016   5.516  10.297  -1.012 -0.1241 -2.2559 -0.1371
  917MOL0     H21017   5.496  10.385  -1.161 -1.2450  0.4144 -0.6325
  917MOL0     H21018   5.476  10.079  -1.125  0.0247 -0.3361 -2.0088
  917MOL0     H21019   5.451  10.171  -1.272 -2.3459  3.1417 -0.6512
  917MOL0     H21020   5.291  10.194  -1.002 -0.2757  2.2767  0.5804
  917MOL0     H21021   5.240  10.107  -1.147  0.0694 -0.8606  0.8725
  917MOL0     H21022   5.227  10.413  -1.104  0.8360  0.9580 -2.6685
  917MOL0     H21023   5.220  10.330  -1.267 -0.3559 -3.9864 -0.6622
  917MOL0     H21024   5.025  10.201  -1.185 -0.2109  0.9806  0.0989
  917MOL0     H21025   4.988  10.360  -1.172 -2.3695 -1.6405 -1.0606
  917MOL0     H21026   6.168  10.152  -1.093 -0.5443 -0.5120  5.5339
  917MOL0     H21027   6.384  10.122  -1.131 -3.0145 -0.4707 -0.5425
  917MOL0     H21028   6.809  10.123  -1.387  0.8768 -0.0950 -0.9324
  917MOL0     H21029   7.040  10.061  -1.355 -0.3661  1.2604 -1.3233
  917MOL0     H21030   8.399  10.900  -0.104  0.0456 -0.2705 -0.3236
  917MOL0     H21031   8.528  11.063   0.032  0.2581 -1.8930 -0.2998
  917MOL0     H21032   8.799  11.354   0.323  1.4550 -1.3298  3.1680
  917MOL0     H21033   8.839  11.532   0.496  0.8193 -0.1068 -1.4529
  917MOL0     H21034   8.703  11.399   0.800  3.0104 -1.3117  1.2535
  917MOL0     H21035   8.700  11.554   0.890 -0.3482  0.4393  0.5428
  917MOL0     H21036   8.905  11.454   0.685 -0.6414 -0.6485  0.0310
  917MOL0     H21037   8.918  11.607   0.764  1.4311 -0.1517 -0.9550
  917MOL0     H21038   8.891  11.329   0.918  2.7697 -2.6964 -4.5962
  917MOL0     H21039   8.890  11.495   0.993  3.0040  1.8092  0.5617
  917MOL0     H21040   9.116  11.422   0.820 -1.7381 -1.8048 -0.1029
  917MOL0     H21041   9.109  11.555   0.939  2.8092  0.9666 -4.9946
  917MOL0     H21042   9.214  11.259   1.213  0.2852  1.2324  0.9511
  917MOL0     H21043   8.455  11.484   0.650  1.7262 -0.7152  1.0509
  917MOL0     H21044   8.383  11.329   0.445 -0.1375 -2.0102  4.4919
  918MOL0     O21045   3.090   1.627  10.377  0.1448  0.3930 -1.2721
  918MOL0     C21046   3.081   1.749  10.390  0.0814 -0.0099 -0.4773
  918MOL0     O21047   2.965   1.818  10.367  0.2508 -0.1753 -0.6926
  918MOL0     C21048   2.845   1.759  10.324  0.0931  0.5889  0.7185
  918MOL0     C21049   2.839   1.702  10.195 -0.2571  0.7727 -0.2272
  918MOL0     C21050   2.719   1.650  10.151  0.2213 -0.3347  0.0678
  918MOL0     C21051   2.610   1.649  10.234  0.0973  0.4056 -0.0250
  918MOL0     O21052   2.490   1.594  10.180 -0.1084  0.2630 -0.9275
  918MOL0     C21053   2.368   1.606  10.251 -0.2705 -0.6583 -1.2837
  918MOL0     C21054   2.250   1.565  10.163 -0.1896 -0.4249  0.5759
  918MOL0     C21055   2.128   1.547  10.239 -0.1132  0.4779 -0.2617
  918MOL0     C21056   2.010   1.530  10.148  0.1987 -0.2442 -0.3155
  918MOL0     C21057   1.890   1.465  10.224  1.1400 -0.1682 -1.8934
  918MOL0     C21058   1.846   1.514  10.356  0.1819  0.0972  0.2315
  918MOL0     C21059   1.727   1.453  10.423  0.1006 -0.4176  0.4264
  918MOL0     C21060   1.590   1.510  10.376 -0.3701 -0.3623  0.0031
  918MOL0     N21061   1.480   1.443  10.449  0.2935 -0.3276  0.2909
  918MOL0     C21062   1.415   1.489  10.571 -1.0038 -0.1443  0.1040
  918MOL0     C21063   1.307   1.411  10.588 -1.0018  0.5936  0.1219
  918MOL0     C21064   1.225   1.405  10.712 -0.7231  0.3642  0.5679
  918MOL0     C21065   1.148   1.530  10.730  0.1273 -0.1327 -0.7235
  918MOL0     C21066   1.047   1.522  10.841  0.3810  0.2335 -0.3383
  918MOL0     C21067   0.918   1.445  10.797 -0.2812 -0.4311 -0.5576
  918MOL0     O21068   0.838   1.529  10.711 -0.4902 -0.1490  0.6186
  918MOL0     C21069   0.702   1.499  10.687  0.3154 -0.8289 -0.6046
  918MOL0     C21070   0.662   1.363  10.692  0.4300  0.2923  0.6466
  918MOL0     C21071   0.525   1.329  10.691 -0.5479 -0.8680 -1.1771
  918MOL0     C21072   0.431   1.435  10.678 -0.1778  0.2130  0.9336
  918MOL0     C21073   0.293   1.391  10.708  0.3976  0.6803 -0.3279
  918MOL0     O21074   0.267   1.266  10.757 -0.1404 -0.2177  0.2495
  918MOL0     C21075   0.142   1.209  10.736  0.0541 -1.0196 -0.2720
  918MOL0     C21076   0.055   1.201  10.848  0.3688 -0.1286  0.6831
  918MOL0     C21077  -0.079   1.155  10.835 -0.3335  0.1694 -0.4245
  918MOL0     C21078  -0.117   1.107  10.712 -0.3901  1.1948 -0.9259
  918MOL0     O21079  -0.240   1.046  10.691 -0.3260 -0.4063 -0.1746
  918MOL0     C21080  -0.278   0.955  10.805 -0.2594 -0.7182  0.0369
  918MOL0     C21081  -0.360   0.844  10.750  0.0089  0.6324  0.3781
  918MOL0     C21082  -0.506   0.869  10.743  0.1222 -0.5530  0.5448
  918MOL0     C21083  -0.554   0.966  10.631  0.1078  0.8036 -0.8644
  918MOL0     C21084  -0.698   1.002  10.667 -1.1104 -0.1941 -0.2423
  918MOL0     C21085  -0.771   1.038  10.538 -0.6167  0.2947  0.6394
  918MOL0     C21086  -0.923   1.044  10.561  0.3045 -0.4905  0.4657
  918MOL0     C21087  -0.988   1.132  10.457 -0.4892  0.2248  0.5470
  918MOL0    Cl21088  -1.162   1.152  10.501 -0.4077  0.6227  0.3452
  918MOL0     C21089  -0.025   1.095  10.603  0.5789  0.0742  0.1145
  918MOL0     C21090   0.102   1.136  10.624 -0.4024 -0.0006 -0.3291
  918MOL0     O21091   0.203   1.469  10.691 -0.4403  0.2709  0.6072
  918MOL0     C21092   0.475   1.569  10.657  0.1299  0.4202 -0.3135
  918MOL0     C21093   0.610   1.599  10.663  0.0543  0.2775 -0.4051
  918MOL0     N21094   1.320   1.310  10.493 -0.2500  0.0397  0.2286
  918MOL0     N21095   1.426   1.329  10.420 -1.0178  0.1501  0.0471
  918MOL0     C21096   2.612   1.703  10.360  0.2462  0.8099 -0.2991
  918MOL0     C21097   2.736   1.766  10.402 -0.4966 -0.4477  0.5383
  918MOL0     C21098   3.205   1.828  10.420 -0.4096  0.3588 -0.3929
  918MOL0     C21099   3.320   1.763  10.478  1.0089  0.3288  0.4664
  918MOL0     C21100   3.438   1.831  10.480 -0.1784  0.0573  0.5394
  918MOL0     C21101   3.448   1.971  10.437  0.1567  0.9561  0.0202
  918MOL0     O21102   3.570   2.039  10.446  0.2565  0.1432  0.0468
  918MOL0     C21103   3.639   2.039  10.324 -0.2072 -0.6273 -0.7010
  918MOL0     C21104   3.684   1.908  10.276  1.1342  0.4182  1.2986
  918MOL0     C21105   3.760   1.832  10.384 -0.1701 -0.2631  0.0012
  918MOL0     C21106   3.784   1.683  10.348 -0.0486  0.0369 -0.5287
  918MOL0     C21107   3.857   1.612  10.456 -0.7027 -0.3180  0.2720
  918MOL0     C21108   3.926   1.569  10.538 -0.4545 -0.7404  1.0086
  918MOL0     C21109   3.334   2.028  10.386 -0.0769 -1.3278  0.2956
  918MOL0     C21110   3.211   1.966  10.378  0.2450  0.2635  0.0894
  918MOL0     H21111   2.931   1.715  10.139 -0.4307  2.7884 -0.1326
  918MOL0     H21112   2.704   1.629  10.045  0.2899  0.8167 -0.1906
  918MOL0     H21113   2.362   1.708  10.291  0.3514 -1.8127  2.0025
  918MOL0     H21114   2.370   1.542  10.339  0.4420  0.4352 -0.4823
  918MOL0     H21115   2.273   1.476  10.104 -0.7194 -1.5155  1.9585
  918MOL0     H21116   2.237   1.644  10.088 -0.3974  1.2830  2.3384
  918MOL0     H21117   2.115   1.640  10.295  0.0073  1.0678 -1.1913
  918MOL0     H21118   2.116   1.464  10.310  0.4333  0.6987  0.0994
  918MOL0     H21119   1.983   1.627  10.105  0.1017  0.1194  0.5299
  918MOL0     H21120   2.034   1.469  10.061 -0.2095 -0.0278 -0.5799
  918MOL0     H21121   1.917   1.358  10.222  1.4892 -0.0745 -2.4273
  918MOL0     H21122   1.798   1.481  10.169  0.3970  4.2172  0.2474
  918MOL0     H21123   1.815   1.617  10.340 -1.9288 -0.2565  1.5897
  918MOL0     H21124   1.935   1.518  10.420  1.1546 -1.0430 -0.9878
  918MOL0     H21125   1.714   1.349  10.393 -2.3106 -0.0780  0.1147
  918MOL0     H21126   1.736   1.457  10.532  0.0480 -0.6983  0.4425
  918MOL0     H21127   1.585   1.500  10.267  0.3866  1.6413 -0.2493
  918MOL0     H21128   1.591   1.617  10.395 -0.7122  0.2112 -2.8370
  918MOL0     H21129   1.454   1.560  10.643  2.5036 -0.6144 -1.1570
  918MOL0     H21130   1.307   1.386  10.782  0.0837 -1.2464 -0.7111
  918MOL0     H21131   1.176   1.307  10.708  1.9137 -1.0339  0.2850
  918MOL0     H21132   1.090   1.544  10.639  2.0621 -0.1912 -2.0267
  918MOL0     H21133   1.218   1.614  10.738 -1.8397  2.0419 -4.0599
  918MOL0     H21134   1.094   1.477  10.929 -0.7307  0.8817  0.6154
  918MOL0     H21135   1.012   1.624  10.858  2.1985  0.9133 -0.4344
  918MOL0     H21136   0.861   1.413  10.885  0.0425 -2.2487 -0.9661
  918MOL0     H21137   0.952   1.351  10.754  1.0703 -2.6383  4.6452
  918MOL0     H21138   0.736   1.289  10.723 -1.6711 -1.3720  1.9320
  918MOL0     H21139   0.500   1.224  10.706  1.0443 -1.0475  0.7486
  918MOL0     H21140   0.091   1.242  10.942  0.3951  3.2418 -0.6672
  918MOL0     H21141  -0.147   1.150  10.919  0.2213  1.6683  0.1516
  918MOL0     H21142  -0.327   1.011  10.885  0.7204 -0.5731  0.5442
  918MOL0     H21143  -0.188   0.906  10.842 -0.5419 -3.1904 -2.2513
  918MOL0     H21144  -0.360   0.749  10.804 -0.1018 -1.1317 -2.5750
  918MOL0     H21145  -0.322   0.818  10.651  2.2044  0.6880  1.1502
  918MOL0     H21146  -0.543   0.903  10.841  0.1336  1.6178 -0.1438
  918MOL0     H21147  -0.561   0.778  10.720  0.0765 -0.6022  0.8367
  918MOL0     H21148  -0.500   1.061  10.636  0.8337  0.3889 -0.6787
  918MOL0     H21149  -0.542   0.925  10.530  1.0096  0.7100 -0.7233
  918MOL0     H21150  -0.700   1.088  10.734  0.2275  0.5934 -1.1759
  918MOL0     H21151  -0.752   0.921  10.717 -1.5552  0.8929  1.1060
  918MOL0     H21152  -0.753   0.966  10.458 -1.2990 -0.9171  1.5472
  918MOL0     H21153  -0.738   1.140  10.516 -1.7393  0.3737 -0.8688
  918MOL0     H21154  -0.963   0.947  10.531  1.1771 -0.7582  0.1562
  918MOL0     H21155  -0.939   1.060  10.668  0.9289 -1.5063  0.7255
  918MOL0     H21156  -0.971   1.084  10.360 -3.3799  0.0695  0.0284
  918MOL0     H21157  -0.941   1.231  10.459 -0.2119  0.1049  0.1196
  918MOL0     H21158  -0.059   1.046  10.512 -1.2787 -0.5370  1.1002
  918MOL0     H21159   0.165   1.124  10.536 -1.4201  0.8399 -1.2016
  918MOL0     H21160   0.401   1.641  10.623  0.0422  0.1033 -0.8136
  918MOL0     H21161   0.645   1.698  10.634 -0.4841  0.9453  1.0927
  918MOL0     H21162   2.524   1.719  10.421  1.7375 -0.8274  2.5185
  918MOL0     H21163   2.750   1.828  10.490 -1.0836 -2.4030  2.0667
  918MOL0     H21164   3.321   1.658  10.507  4.0019  0.5496  1.4650
  918MOL0     H21165   3.521   1.782  10.530 -0.3118 -1.3226 -0.5342
  918MOL0     H21166   3.735   2.089  10.344 -1.3757  1.4256  0.0804
  918MOL0     H21167   3.578   2.099  10.256 -1.3084 -1.0883 -0.1476
  918MOL0     H21168   3.595   1.850  10.248  1.8076  1.0411 -2.7746
  918MOL0     H21169   3.743   1.925  10.186 -0.2790 -1.6320 -0.1218
  918MOL0     H21170   3.708   1.822  10.480 -0.9822 -2.4808 -0.6199
  918MOL0     H21171   3.858   1.875  10.408  1.4716 -2.0632 -2.8868
  918MOL0     H21172   3.690   1.634  10.322  0.3304 -0.2435 -1.4300
  918MOL0     H21173   3.856   1.670  10.266  2.1227 -4.4451  1.7234
  918MOL0     H21174   3.997   1.535  10.610  1.4229  2.2394  0.7629
  918MOL0     H21175   3.343   2.131  10.353  0.3723 -1.8252 -1.2365
  918MOL0     H21176   3.125   2.022  10.344 -2.6623 -3.3517  0.7986
  919MOL0     O21177   6.903   9.791   9.578  0.1276 -0.1960 -0.6460
  919MOL0     C21178   6.887   9.816   9.458 -0.3212 -1.8239  1.0716
  919MOL0     O21179   6.985   9.835   9.370  0.7598 -0.9834  0.2732
  919MOL0     C21180   7.118   9.835   9.412 -0.0442 -0.5624  0.5532
  919MOL0     C21181   7.181   9.743   9.494  0.2050 -0.5396  0.0759
  919MOL0     C21182   7.317   9.753   9.525  0.2486 -0.9640 -0.2448
  919MOL0     C21183   7.398   9.853   9.471  0.5480  0.4999  0.9848
  919MOL0     O21184   7.525   9.880   9.512  0.3303  0.6282 -0.2432
  919MOL0     C21185   7.615   9.940   9.415 -0.0295  0.7602  0.5947
  919MOL0     C21186   7.751   9.879   9.441 -0.9797 -0.1916 -0.3151
  919MOL0     C21187   7.858   9.981   9.394  0.0333 -0.1094 -0.5625
  919MOL0     C21188   7.999   9.943   9.414 -0.2384  0.4484 -1.0649
  919MOL0     C21189   8.043   9.967   9.558 -0.8546  0.0764  0.7016
  919MOL0     C21190   8.166   9.881   9.592  0.7323  0.3186 -1.2451
  919MOL0     C21191   8.205   9.920   9.745 -0.1928  0.4015  0.3272
  919MOL0     C21192   8.316   9.820   9.797 -0.3543 -0.5065  0.1034
  919MOL0     N21193   8.367   9.850   9.932  0.6003  0.1983 -0.0555
  919MOL0     C21194   8.471   9.937   9.948  0.7654 -1.6665  0.8116
  919MOL0     C21195   8.480   9.954  10.087 -0.8701  0.0597 -0.5889
  919MOL0     C21196   8.557  10.062  10.166 -0.0540 -0.2047 -0.3410
  919MOL0     C21197   8.500  10.202  10.170 -0.4154  0.4600 -0.1130
  919MOL0     C21198   8.371  10.212  10.244  0.5950 -0.1850 -0.8937
  919MOL0     C21199   8.244  10.183  10.161  1.2379 -0.0968  0.6860
  919MOL0     O21200   8.166  10.299  10.147  0.0403  0.8154 -0.7202
  919MOL0     C21201   8.044  10.280  10.090  0.8824  0.2963 -0.0899
  919MOL0     C21202   7.984  10.157  10.061  0.4505 -0.6671 -0.4150
  919MOL0     C21203   7.857  10.172   9.996  0.2065 -0.2974 -0.5312
  919MOL0     C21204   7.795  10.300   9.968  0.1039 -0.0387  0.6784
  919MOL0     C21205   7.658  10.307   9.896 -0.7307 -0.1831  0.2015
  919MOL0     O21206   7.592  10.189   9.907  0.8879 -0.1528  0.0690
  919MOL0     C21207   7.457  10.191   9.866 -0.8632  0.1707 -0.8301
  919MOL0     C21208   7.357  10.275   9.922  0.5753 -0.3012  0.7541
  919MOL0     C21209   7.237  10.284   9.868 -0.0272 -0.1640  0.2570
  919MOL0     C21210   7.193  10.198   9.768 -0.6145  0.0843  0.7353
  919MOL0     O21211   7.067  10.212   9.731  0.2332  0.4268 -0.4399
  919MOL0     C21212   7.019  10.131   9.629 -0.6401  0.1609  1.3176
  919MOL0     C21213   6.872  10.142   9.618  0.5898 -0.0532 -0.5920
  919MOL0     C21214   6.803  10.283   9.655  0.2723 -0.0532  0.0979
  919MOL0     C21215   6.654  10.260   9.632 -0.2416  0.0734  0.2941
  919MOL0     C21216   6.588  10.394   9.672 -0.5863 -0.0996  1.4697
  919MOL0     C21217   6.439  10.422   9.635  0.0614 -0.4392  0.2024
  919MOL0     C21218   6.350  10.334   9.723 -0.2388 -0.6399  0.5898
  919MOL0     C21219   6.280  10.417   9.827 -0.3552 -0.5708 -1.1797
  919MOL0    Cl21220   6.142  10.325   9.892 -0.5240  0.0121  0.4364
  919MOL0     C21221   7.290  10.107   9.713  0.2812 -0.0839 -0.4798
  919MOL0     C21222   7.423  10.107   9.761 -0.3963  0.7292  0.5585
  919MOL0     O21223   7.612  10.410   9.845 -0.8141  0.3714 -0.1598
  919MOL0     C21224   7.864  10.413  10.001 -0.9703 -0.7740 -0.2229
  919MOL0     C21225   7.989  10.405  10.064  0.3454 -1.2055 -0.2930
  919MOL0     N21226   8.375   9.890  10.141 -0.6742 -0.9191  0.5248
  919MOL0     N21227   8.301   9.828  10.046  0.1033  0.3974 -0.0193
  919MOL0     C21228   7.331   9.937   9.373  0.0651  0.0788 -0.3071
  919MOL0     C21229   7.198   9.930   9.350  0.2828  0.0825 -0.2666
  919MOL0     C21230   6.753   9.839   9.404 -0.2829  0.1559 -0.2405
  919MOL0     C21231   6.640   9.808   9.487 -0.5112  0.4116  0.4256
  919MOL0     C21232   6.511   9.821   9.434 -0.4607 -0.9095  0.2350
  919MOL0     C21233   6.494   9.840   9.297 -0.0613  0.0230  0.1192
  919MOL0     O21234   6.375   9.856   9.225  0.2712  0.0318 -0.9266
  919MOL0     C21235   6.256   9.872   9.302 -0.1561  0.9995 -0.1954
  919MOL0     C21236   6.245  10.016   9.358 -0.3473 -0.6919  0.3428
  919MOL0     C21237   6.122  10.032   9.440 -0.5437 -0.0238 -0.8215
  919MOL0     C21238   6.140   9.978   9.590  0.1133  0.6520 -0.1245
  919MOL0     C21239   6.132   9.832   9.595 -0.0709  0.7103  0.3690
  919MOL0     C21240   6.118   9.712   9.600 -0.6651  0.9302 -0.6816
  919MOL0     C21241   6.602   9.845   9.214 -0.8027 -0.6266  0.9539
  919MOL0     C21242   6.729   9.846   9.270 -0.5536 -0.2722  0.2336
  919MOL0     H21243   7.122   9.656   9.521  0.2018 -0.4315  0.4291
  919MOL0     H21244   7.364   9.694   9.603  1.0387  0.1971  0.1872
  919MOL0     H21245   7.607  10.047   9.435 -2.0884  0.4792  1.4968
  919MOL0     H21246   7.584   9.914   9.313 -1.6040 -1.0894  1.4913
  919MOL0     H21247   7.772   9.792   9.379 -0.8137  0.2680 -0.9173
  919MOL0     H21248   7.769   9.852   9.546 -0.1492 -0.6681 -0.5714
  919MOL0     H21249   7.846  10.078   9.444  1.0199 -0.5939  0.6674
  919MOL0     H21250   7.844   9.992   9.286 -3.7301 -0.1464 -0.2001
  919MOL0     H21251   8.017   9.836   9.400  0.7226 -0.2216  3.5349
  919MOL0     H21252   8.061  10.000   9.344 -0.2818  1.0903 -0.5944
  919MOL0     H21253   7.963   9.940   9.628 -4.3329  0.9274 -2.6391
  919MOL0     H21254   8.084  10.068   9.568  2.6908 -1.2153  0.7816
  919MOL0     H21255   8.252   9.903   9.528  0.4038 -0.3317 -1.9168
  919MOL0     H21256   8.145   9.774   9.586  1.2112  0.1364 -0.0041
  919MOL0     H21257   8.245  10.022   9.754 -0.0953  0.3305  0.7258
  919MOL0     H21258   8.112   9.914   9.804 -0.5037 -3.2238 -0.3223
  919MOL0     H21259   8.398   9.813   9.725 -0.8937 -0.0651 -0.5694
  919MOL0     H21260   8.279   9.717   9.798 -3.2964  0.3927 -2.1242
  919MOL0     H21261   8.530   9.987   9.872  1.1549 -1.9180  0.9478
  919MOL0     H21262   8.660  10.075  10.130  0.5471 -1.0313  1.0136
  919MOL0     H21263   8.561  10.030  10.271  1.6923  2.2475  0.4231
  919MOL0     H21264   8.486  10.248  10.072 -0.9004  0.6496  0.0378
  919MOL0     H21265   8.578  10.262  10.217  0.8198 -1.3488  0.2498
  919MOL0     H21266   8.383  10.146  10.330 -1.4117 -0.2157 -0.5732
  919MOL0     H21267   8.353  10.313  10.281 -1.5777 -1.2284  1.1790
  919MOL0     H21268   8.194  10.101  10.213  3.9153 -1.0638  1.8666
  919MOL0     H21269   8.273  10.163  10.057 -1.7475  1.7187 -0.6784
  919MOL0     H21270   8.024  10.057  10.074 -0.8830 -1.0733  0.7598
  919MOL0     H21271   7.805  10.094   9.942 -3.4581  2.1067 -0.8598
  919MOL0     H21272   7.377  10.353   9.995 -1.3458  0.3874  0.5969
  919MOL0     H21273   7.166  10.343   9.925  1.6025  0.1771  2.0665
  919MOL0     H21274   7.044  10.026   9.644  0.2400 -0.0500 -1.1608
  919MOL0     H21275   7.056  10.168   9.533  0.9354 -0.6703  1.5815
  919MOL0     H21276   6.836  10.058   9.678 -0.3480 -0.3685 -1.5555
  919MOL0     H21277   6.851  10.116   9.514  2.6246  2.7518 -1.8184
  919MOL0     H21278   6.843  10.360   9.589 -2.2983  2.4154  1.1858
  919MOL0     H21279   6.840  10.301   9.757  3.6015 -0.5562 -0.9074
  919MOL0     H21280   6.641  10.249   9.524 -0.5971 -0.8831  0.4227
  919MOL0     H21281   6.618  10.172   9.686  2.6193 -0.8945  0.8292
  919MOL0     H21282   6.638  10.467   9.608  0.2207 -0.4514  1.6858
  919MOL0     H21283   6.596  10.429   9.776 -2.8156  0.6955  1.4263
  919MOL0     H21284   6.430  10.392   9.530  2.4906 -0.7271  0.0131
  919MOL0     H21285   6.419  10.530   9.632  0.2609 -0.4164 -0.4757
  919MOL0     H21286   6.268  10.295   9.662 -1.8098  1.3385  1.3467
  919MOL0     H21287   6.402  10.251   9.773  1.5851 -1.3621 -2.2520
  919MOL0     H21288   6.234  10.506   9.782 -0.6458  1.5142  2.7764
  919MOL0     H21289   6.354  10.443   9.903  0.9913 -0.7106 -2.4032
  919MOL0     H21290   7.271  10.048   9.624 -2.7741  0.1533 -0.1016
  919MOL0     H21291   7.506  10.056   9.713 -0.3118  0.6862  0.7492
  919MOL0     H21292   7.816  10.505   9.971 -2.2454 -0.3655  2.7181
  919MOL0     H21293   8.053  10.491  10.074 -1.6781  0.5354 -1.5016
  919MOL0     H21294   7.380  10.026   9.335  3.0019 -1.0090  0.6130
  919MOL0     H21295   7.135  10.014   9.322 -1.1053 -0.8494 -0.0446
  919MOL0     H21296   6.653   9.778   9.591 -0.1978 -2.8857 -0.4598
  919MOL0     H21297   6.424   9.801   9.496 -0.9235 -0.1169 -0.1409
  919MOL0     H21298   6.253   9.790   9.374  0.6484  0.9524 -0.2072
  919MOL0     H21299   6.169   9.841   9.243 -0.5758 -2.1617  1.7988
  919MOL0     H21300   6.335  10.054   9.407 -0.3109  1.0421 -1.0074
  919MOL0     H21301   6.225  10.083   9.274  0.5713 -1.0551 -0.1747
  919MOL0     H21302   6.034   9.991   9.391 -1.7507  1.7959 -0.2449
  919MOL0     H21303   6.093  10.137   9.445 -3.5849 -0.7839 -0.6761
  919MOL0     H21304   6.237  10.003   9.633  1.3887 -1.8250 -1.3301
  919MOL0     H21305   6.060  10.020   9.652 -0.8877  1.4862 -1.8904
  919MOL0     H21306   6.104   9.607   9.615 -0.8040  1.2245  1.6762
  919MOL0     H21307   6.597   9.844   9.106 -2.6971 -1.6824  1.0171
  919MOL0     H21308   6.812   9.871   9.203  1.7781 -2.6831  2.0051
  920MOL0     O21309   7.536   5.182   5.159 -0.2593  0.1742 -0.4600
  920MOL0     C21310   7.605   5.265   5.098  1.1058 -0.5382 -0.3164
  920MOL0     O21311   7.550   5.362   5.022  0.1046 -0.8354 -0.4159
  920MOL0     C21312   7.418   5.378   5.027 -0.1358  0.1644 -0.1394
  920MOL0     C21313   7.343   5.410   5.142  0.4842 -0.0025 -0.1412
  920MOL0     C21314   7.208   5.436   5.124  0.2782  0.2263  0.7842
  920MOL0     C21315   7.143   5.425   4.997 -0.1676 -0.3937 -0.8882
  920MOL0     O21316   7.008   5.460   4.995  0.3062  0.1716 -0.0647
  920MOL0     C21317   6.929   5.423   4.881 -0.5956  0.0817  0.5641
  920MOL0     C21318   6.776   5.398   4.895 -0.0945  0.4418 -0.2151
  920MOL0     C21319   6.714   5.342   4.768  1.0845 -0.7848  0.7262
  920MOL0     C21320   6.556   5.326   4.795  0.6539  0.9756 -0.3012
  920MOL0     C21321   6.488   5.320   4.660  0.0314 -0.0937 -0.0779
  920MOL0     C21322   6.343   5.369   4.671 -0.4688  0.3089 -0.0785
  920MOL0     C21323   6.248   5.265   4.735 -0.3605  0.9172  0.5631
  920MOL0     C21324   6.211   5.145   4.645  0.1646 -0.2394  0.2388
  920MOL0     N21325   6.122   5.045   4.709  0.6590 -0.5331 -0.0704
  920MOL0     C21326   6.154   4.964   4.810 -0.1148  0.2106  0.6636
  920MOL0     C21327   6.035   4.899   4.841  0.5063 -0.6591  0.2723
  920MOL0     C21328   6.021   4.791   4.946  0.9986  0.3706 -1.0623
  920MOL0     C21329   6.043   4.657   4.869 -0.1507  0.6822 -0.3859
  920MOL0     C21330   5.936   4.613   4.770 -0.4560  0.3267  0.5015
  920MOL0     C21331   5.792   4.634   4.808  0.3942 -0.2342 -0.8832
  920MOL0     O21332   5.757   4.570   4.930 -0.3841 -0.8779  0.1178
  920MOL0     C21333   5.677   4.648   5.010 -0.6412  0.5991  0.7327
  920MOL0     C21334   5.704   4.622   5.142  0.1538 -0.6066  0.1298
  920MOL0     C21335   5.617   4.672   5.242 -0.2962 -0.9353  0.2577
  920MOL0     C21336   5.503   4.755   5.207  0.2301  0.5896  0.4765
  920MOL0     C21337   5.418   4.809   5.310 -1.0629 -0.4678 -0.1469
  920MOL0     O21338   5.287   4.828   5.266 -0.3626  0.5950  0.0957
  920MOL0     C21339   5.202   4.881   5.356  0.8291  0.5773  1.1219
  920MOL0     C21340   5.096   4.792   5.390 -0.3531  0.6438  0.1437
  920MOL0     C21341   4.988   4.834   5.466  0.7658  0.2969 -0.1171
  920MOL0     C21342   4.975   4.967   5.502  0.1077 -0.6665 -0.5705
  920MOL0     O21343   4.858   5.019   5.559  0.1771  0.2733  0.5481
  920MOL0     C21344   4.737   4.943   5.554 -1.8280 -0.4524  1.0382
  920MOL0     C21345   4.609   5.010   5.579 -0.6305 -0.4134 -0.1560
  920MOL0     C21346   4.596   5.021   5.729  0.6169 -0.3435 -0.2348
  920MOL0     C21347   4.476   5.095   5.790 -0.0992 -0.4684  0.3078
  920MOL0     C21348   4.399   4.987   5.880 -1.3890 -0.2836 -0.1959
  920MOL0     C21349   4.249   5.031   5.913  0.4441  0.6854  0.7529
  920MOL0     C21350   4.159   5.047   5.790  0.3726 -0.7456  0.7476
  920MOL0     C21351   4.029   4.961   5.814 -0.7206  0.9996 -0.3463
  920MOL0    Cl21352   3.934   5.013   5.957 -0.1488 -0.2010 -0.2279
  920MOL0     C21353   5.082   5.051   5.475 -0.4909 -0.2896  0.2764
  920MOL0     C21354   5.197   5.010   5.404 -1.0898 -0.1402  0.3343
  920MOL0     O21355   5.456   4.817   5.429  0.0351 -0.0922  0.6774
  920MOL0     C21356   5.485   4.782   5.065  0.4067 -1.1725 -0.7337
  920MOL0     C21357   5.570   4.729   4.973 -0.5444 -0.1862 -0.4728
  920MOL0     N21358   5.933   4.950   4.769 -0.0579  0.0841  0.3762
  920MOL0     N21359   5.982   5.041   4.692  0.6299  0.1742 -0.4482
  920MOL0     C21360   7.220   5.393   4.887 -0.1678 -0.7546 -0.3258
  920MOL0     C21361   7.358   5.373   4.900 -0.0335 -0.4364 -0.2773
  920MOL0     C21362   7.750   5.250   5.092 -1.5645  0.7599 -0.1031
  920MOL0     C21363   7.826   5.345   5.023 -0.1169  0.1523  0.2124
  920MOL0     C21364   7.968   5.328   5.035 -0.1942  0.3704  0.3813
  920MOL0     C21365   8.033   5.219   5.103  1.0732 -0.7411 -0.1536
  920MOL0     O21366   8.169   5.207   5.121 -0.0297  0.2320  0.0250
  920MOL0     C21367   8.263   5.263   5.028 -0.0122 -0.1383  0.8561
  920MOL0     C21368   8.399   5.197   5.031 -0.1891 -0.4099 -0.2461
  920MOL0     C21369   8.499   5.299   5.096 -0.0395 -0.5467 -0.5819
  920MOL0     C21370   8.635   5.255   5.075 -0.6593 -0.3221  0.1689
  920MOL0     C21371   8.674   5.294   4.937 -0.5121 -0.2526 -0.1408
  920MOL0     C21372   8.711   5.358   4.843  0.3287  0.0895  0.2668
  920MOL0     C21373   7.946   5.135   5.167  1.4132 -0.0059 -0.9535
  920MOL0     C21374   7.805   5.151   5.165  0.1001 -0.3198 -0.5908
  920MOL0     H21375   7.391   5.421   5.239  3.4961 -0.8540 -1.4022
  920MOL0     H21376   7.145   5.467   5.206 -0.8187  2.0529 -0.6729
  920MOL0     H21377   6.974   5.339   4.828  2.5277 -0.6388  3.9295
  920MOL0     H21378   6.946   5.506   4.811  1.2558  0.4718  1.3996
  920MOL0     H21379   6.732   5.492   4.929  0.2872  0.4202  0.3503
  920MOL0     H21380   6.768   5.319   4.971 -0.4190 -1.2598 -1.9500
  920MOL0     H21381   6.759   5.247   4.738  0.5788 -0.8212  0.0668
  920MOL0     H21382   6.740   5.414   4.690 -1.4879  0.4638  0.8959
  920MOL0     H21383   6.529   5.241   4.859  0.0795  0.8160 -0.7459
  920MOL0     H21384   6.516   5.418   4.839  0.7917  1.4401 -1.1381
  920MOL0     H21385   6.491   5.217   4.622  0.8548  0.5490 -1.8606
  920MOL0     H21386   6.539   5.382   4.586  1.4371  0.2750  1.1562
  920MOL0     H21387   6.314   5.395   4.569  0.3589  0.9335 -0.1695
  920MOL0     H21388   6.344   5.457   4.736 -0.8248 -1.2253  2.0899
  920MOL0     H21389   6.301   5.222   4.820 -0.6137  0.8620  0.6941
  920MOL0     H21390   6.157   5.310   4.776 -1.0063 -2.1826  2.8532
  920MOL0     H21391   6.295   5.090   4.603  0.5650 -0.4218  1.2506
  920MOL0     H21392   6.154   5.176   4.557  0.6045  0.1880  0.1035
  920MOL0     H21393   6.251   4.946   4.856 -0.7167 -3.1880  0.9118
  920MOL0     H21394   5.924   4.796   4.996  1.1410  1.2989 -0.8669
  920MOL0     H21395   6.107   4.814   5.009 -0.6828  1.4767  0.9477
  920MOL0     H21396   6.048   4.580   4.946 -2.4819  0.6334 -0.2140
  920MOL0     H21397   6.143   4.665   4.825  1.2484 -0.2818  2.3817
  920MOL0     H21398   5.961   4.661   4.674  2.6938 -0.6320  0.7373
  920MOL0     H21399   5.947   4.506   4.753  0.9454 -0.0143  3.0735
  920MOL0     H21400   5.734   4.594   4.725  0.0638 -1.1690 -0.2199
  920MOL0     H21401   5.775   4.741   4.794  3.5943  0.3276 -1.1524
  920MOL0     H21402   5.786   4.555   5.164  0.0787 -0.3137  1.3518
  920MOL0     H21403   5.641   4.656   5.347  3.4682 -1.0920 -0.4917
  920MOL0     H21404   5.106   4.687   5.364  0.5031  0.8753 -0.5045
  920MOL0     H21405   4.914   4.760   5.495 -0.3190  0.8514 -1.3862
  920MOL0     H21406   4.748   4.862   5.627  1.4596 -0.3440  0.8269
  920MOL0     H21407   4.718   4.897   5.457 -2.1490  0.8156  0.4829
  920MOL0     H21408   4.517   4.960   5.546 -1.9042  1.2090  0.7261
  920MOL0     H21409   4.613   5.112   5.538 -2.3030 -0.2488 -0.0073
  920MOL0     H21410   4.688   5.066   5.768 -0.7261  1.6777  0.7712
  920MOL0     H21411   4.601   4.919   5.767  2.5803  0.8594  3.1494
  920MOL0     H21412   4.505   5.176   5.858  0.7503  1.5210 -2.2767
  920MOL0     H21413   4.415   5.138   5.710  2.0961  0.6322 -0.8642
  920MOL0     H21414   4.448   4.980   5.977 -2.4093 -1.4636  0.2658
  920MOL0     H21415   4.398   4.888   5.835  1.3138 -0.1477 -0.7061
  920MOL0     H21416   4.248   5.125   5.969  2.1110  1.2741 -0.1587
  920MOL0     H21417   4.205   4.950   5.973 -0.3684 -0.3264 -1.1324
  920MOL0     H21418   4.123   5.147   5.767  1.2300 -0.4243  0.7935
  920MOL0     H21419   4.199   5.000   5.699 -1.5733 -2.1061  0.5338
  920MOL0     H21420   4.066   4.859   5.821 -0.8733  1.0248  1.3818
  920MOL0     H21421   3.967   4.954   5.725 -0.3706 -3.0301 -0.4413
  920MOL0     H21422   5.088   5.153   5.511 -0.1453  0.3677 -1.5608
  920MOL0     H21423   5.278   5.076   5.376  0.1088 -2.1117 -1.1365
  920MOL0     H21424   5.397   4.835   5.029 -0.4592 -0.4390  2.1779
  920MOL0     H21425   5.556   4.751   4.867  1.3625 -0.0473 -0.7271
  920MOL0     H21426   7.187   5.394   4.783 -0.9997 -0.2422 -0.0665
  920MOL0     H21427   7.411   5.350   4.808 -1.0770 -0.0024 -1.0152
  920MOL0     H21428   7.770   5.422   4.971 -1.6206  0.8891  2.7676
  920MOL0     H21429   8.029   5.411   5.001 -1.2580  1.4757  1.0546
  920MOL0     H21430   8.279   5.369   5.050 -1.9868  0.2973  0.3584
  920MOL0     H21431   8.241   5.247   4.922  0.3783  0.5957  0.6522
  920MOL0     H21432   8.406   5.102   5.085 -1.2647 -0.4080 -0.0682
  920MOL0     H21433   8.430   5.184   4.927  0.8223 -1.7651  0.2034
  920MOL0     H21434   8.479   5.301   5.204  1.7209  0.0366 -0.2422
  920MOL0     H21435   8.483   5.403   5.065  2.5256  0.4481  1.0743
  920MOL0     H21436   8.704   5.302   5.145  0.8008 -1.4969 -0.4075
  920MOL0     H21437   8.659   5.148   5.079  3.1253  0.4317  0.8145
  920MOL0     H21438   8.736   5.409   4.752  2.3649 -1.4671 -0.1299
  920MOL0     H21439   7.981   5.036   5.196  2.2531  1.0444  1.9410
  920MOL0     H21440   7.760   5.080   5.233  1.3487  0.3011  0.9385
  921MOL0     O21441   7.741   3.662   0.744 -0.4584  0.1220  0.6790
  921MOL0     C21442   7.781   3.673   0.859  0.1038  0.4800  0.3491
  921MOL0     O21443   7.750   3.591   0.960  0.5031  0.4661  0.2399
  921MOL0     C21444   7.636   3.507   0.966 -0.1139 -0.8421  0.2075
  921MOL0     C21445   7.522   3.523   0.879 -1.0732 -0.0853 -0.6966
  921MOL0     C21446   7.415   3.436   0.889  0.7805 -0.1110  0.1606
  921MOL0     C21447   7.413   3.336   0.988  0.0646  0.2628  0.8242
  921MOL0     O21448   7.293   3.263   0.992 -0.0513 -0.0388 -0.4922
  921MOL0     C21449   7.302   3.121   1.034 -0.8961 -0.4933  0.5373
  921MOL0     C21450   7.369   3.040   0.919  0.0744  0.1128 -0.0693
  921MOL0     C21451   7.341   2.887   0.945  0.6653 -0.2840 -0.4141
  921MOL0     C21452   7.348   2.799   0.808  0.6731 -0.4829 -0.3284
  921MOL0     C21453   7.451   2.849   0.707 -0.1130  1.4986 -0.0267
  921MOL0     C21454   7.593   2.847   0.751 -0.5865  0.0574  1.5241
  921MOL0     C21455   7.688   2.919   0.644  0.5748  0.2286 -0.5128
  921MOL0     C21456   7.825   2.872   0.687 -0.7937 -0.1184  0.5197
  921MOL0     N21457   7.932   2.930   0.605  1.2744  0.8709  0.1700
  921MOL0     C21458   7.960   2.907   0.467  1.3404  0.6035  0.3223
  921MOL0     C21459   8.080   2.967   0.449  0.3476  0.0025  0.2110
  921MOL0     C21460   8.164   2.980   0.316  0.4683 -0.1098 -0.0082
  921MOL0     C21461   8.082   3.071   0.223  0.8085 -0.0713  0.5755
  921MOL0     C21462   8.134   3.074   0.080  0.5893 -0.3001 -0.4632
  921MOL0     C21463   8.269   3.132   0.059  0.3739 -0.6569 -0.7293
  921MOL0     O21464   8.311   3.085  -0.070  0.5261  0.6230  0.6864
  921MOL0     C21465   8.436   3.020  -0.084  0.5129 -0.7551  0.4174
  921MOL0     C21466   8.456   2.914  -0.168  0.8230  0.4687 -0.7878
  921MOL0     C21467   8.578   2.853  -0.179 -0.6648  0.1320  0.0529
  921MOL0     C21468   8.688   2.915  -0.124 -0.2903 -0.5739  0.3715
  921MOL0     C21469   8.814   2.841  -0.135 -0.3878  0.3028  0.4301
  921MOL0     O21470   8.923   2.868  -0.057  0.0531 -0.3851 -0.0921
  921MOL0     C21471   9.041   2.803  -0.082  0.0256  0.1166 -0.0376
  921MOL0     C21472   9.136   2.879  -0.152 -0.7395 -0.7974 -0.5628
  921MOL0     C21473   9.264   2.836  -0.177 -0.1965 -0.6913  0.7305
  921MOL0     C21474   9.308   2.715  -0.127 -0.1153  0.2136  0.3290
  921MOL0     O21475   9.440   2.684  -0.147 -0.8056  0.3925 -0.4298
  921MOL0     C21476   9.529   2.638  -0.049 -1.0741 -0.7037 -0.6832
  921MOL0     C21477   9.668   2.623  -0.114  0.4120 -0.9811 -0.6519
  921MOL0     C21478   9.773   2.580  -0.023 -0.6971 -0.4836  0.4220
  921MOL0     C21479   9.921   2.570  -0.094  0.0230 -0.1498  0.5655
  921MOL0     C21480  10.037   2.532  -0.001  0.0693 -0.0493  1.2761
  921MOL0     C21481  10.049   2.381   0.042  0.8464  0.0718  0.0468
  921MOL0     C21482  10.191   2.338   0.092 -0.2313  0.0175 -0.2304
  921MOL0     C21483  10.231   2.389   0.228  0.1340  0.2742 -0.0362
  921MOL0    Cl21484  10.146   2.290   0.348 -0.2529 -0.2097 -0.0496
  921MOL0     C21485   9.219   2.628  -0.054  1.3110  0.4885  0.0691
  921MOL0     C21486   9.081   2.669  -0.036 -0.6955 -0.4136  0.0189
  921MOL0     O21487   8.817   2.761  -0.228  0.0443  0.1715 -0.8072
  921MOL0     C21488   8.666   3.016  -0.032 -0.3931  0.7492 -0.3752
  921MOL0     C21489   8.543   3.071  -0.012 -0.2522  0.3103 -0.1599
  921MOL0     N21490   8.123   3.024   0.567  0.5434  0.4051 -0.3744
  921MOL0     N21491   8.030   2.999   0.658 -0.5612 -0.5038 -0.4227
  921MOL0     C21492   7.521   3.320   1.072  0.0123  0.1403  0.2344
  921MOL0     C21493   7.637   3.405   1.054 -0.4707 -0.4711  0.7968
  921MOL0     C21494   7.881   3.769   0.882 -0.0116  0.4032 -0.5392
  921MOL0     C21495   7.918   3.799   1.018  0.1081  0.5860  0.8215
  921MOL0     C21496   8.019   3.900   1.044  0.7196 -0.1203  0.0463
  921MOL0     C21497   8.096   3.948   0.934  0.6807 -0.8887 -0.5723
  921MOL0     O21498   8.183   4.054   0.944  0.6547  0.4076 -0.5013
  921MOL0     C21499   8.269   4.060   1.054 -0.1872 -0.1668 -0.3552
  921MOL0     C21500   8.381   4.156   1.024  0.4154  0.0648 -0.1130
  921MOL0     C21501   8.502   4.104   0.954  0.3871  0.9117  0.5841
  921MOL0     C21502   8.608   4.207   0.961  1.3615 -0.6358  0.5190
  921MOL0     C21503   8.732   4.166   0.897  0.3851  0.0628 -0.2224
  921MOL0     C21504   8.816   4.130   0.818 -0.4427 -0.2473  0.3182
  921MOL0     C21505   8.060   3.911   0.802 -0.1408  0.0441  0.0104
  921MOL0     C21506   7.954   3.830   0.773 -0.8163  0.7824  0.3134
  921MOL0     H21507   7.514   3.603   0.806  0.1630  2.3596  1.7137
  921MOL0     H21508   7.334   3.450   0.819 -0.0888 -0.6385  1.0417
  921MOL0     H21509   7.195   3.100   1.041 -1.4782  2.0403 -0.0097
  921MOL0     H21510   7.344   3.102   1.134  1.2818  0.9222 -0.0280
  921MOL0     H21511   7.476   3.062   0.925 -0.0862  1.3367 -1.1558
  921MOL0     H21512   7.334   3.083   0.825 -3.6501 -1.6876  0.3337
  921MOL0     H21513   7.239   2.869   0.982 -0.3809  3.2530 -1.1287
  921MOL0     H21514   7.412   2.858   1.022  1.7467  0.4114 -1.1295
  921MOL0     H21515   7.376   2.699   0.844  2.1420  0.0286  0.0434
  921MOL0     H21516   7.255   2.793   0.752  1.2205  3.3148 -1.9022
  921MOL0     H21517   7.408   2.942   0.670 -1.3340 -0.0065 -2.6291
  921MOL0     H21518   7.447   2.784   0.620  2.6540  0.5920  0.4012
  921MOL0     H21519   7.624   2.743   0.744  3.8237  1.2558  0.7316
  921MOL0     H21520   7.597   2.883   0.855 -2.5562 -0.7698  1.9377
  921MOL0     H21521   7.668   2.904   0.538  0.3483 -0.5683 -0.3675
  921MOL0     H21522   7.698   3.028   0.642  2.2626  0.0988 -2.4548
  921MOL0     H21523   7.828   2.763   0.698  2.8865 -0.1748  0.4089
  921MOL0     H21524   7.848   2.910   0.788  4.8317 -4.5854  1.4771
  921MOL0     H21525   7.905   2.861   0.386  1.2767  4.1200 -1.8543
  921MOL0     H21526   8.182   2.884   0.267  4.2039  1.4023 -2.0630
  921MOL0     H21527   8.266   3.020   0.324  1.2003 -2.0210  0.9079
  921MOL0     H21528   8.080   3.175   0.257  1.4523  0.3496 -0.6228
  921MOL0     H21529   7.979   3.033   0.221  0.6864  0.2469  0.6902
  921MOL0     H21530   8.129   2.972   0.041 -0.5080  0.1000 -1.4190
  921MOL0     H21531   8.066   3.130   0.015  0.6191  1.0944  0.6502
  921MOL0     H21532   8.332   3.094   0.139 -2.0403 -0.2611  1.4975
  921MOL0     H21533   8.272   3.240   0.068  3.4219 -0.6582 -0.8748
  921MOL0     H21534   8.362   2.873  -0.205  0.7781  0.9614 -1.2202
  921MOL0     H21535   8.571   2.754  -0.224 -0.1665 -0.0218  0.3005
  921MOL0     H21536   9.104   2.980  -0.177  1.7446  0.4541  0.9448
  921MOL0     H21537   9.334   2.906  -0.222 -1.7430 -1.3430 -3.0446
  921MOL0     H21538   9.502   2.542  -0.003  0.7811 -0.4801  1.0551
  921MOL0     H21539   9.537   2.707   0.036 -1.1711 -1.8304  0.2746
  921MOL0     H21540   9.701   2.722  -0.147  0.1284 -0.5952  0.1806
  921MOL0     H21541   9.665   2.558  -0.202  2.8157 -0.8652 -0.8919
  921MOL0     H21542   9.744   2.477   0.003 -1.1757  0.0548  2.1775
  921MOL0     H21543   9.782   2.648   0.062  1.1296 -0.1885  0.0304
  921MOL0     H21544   9.926   2.500  -0.178  0.5063 -0.0610  0.5135
  921MOL0     H21545   9.946   2.671  -0.129 -0.2763 -0.9854 -2.3373
  921MOL0     H21546  10.042   2.604   0.081  2.9665  1.5797 -0.1684
  921MOL0     H21547  10.133   2.554  -0.049  0.3790  0.0582  1.9317
  921MOL0     H21548  10.027   2.317  -0.043  2.5692 -1.8734  0.9640
  921MOL0     H21549   9.978   2.362   0.123 -0.6946  1.3188 -0.9467
  921MOL0     H21550  10.191   2.229   0.084 -3.5211 -0.2003  1.1203
  921MOL0     H21551  10.252   2.376   0.010  2.2186 -3.7014 -0.3797
  921MOL0     H21552  10.205   2.492   0.256  0.1108 -0.2177  1.8593
  921MOL0     H21553  10.340   2.382   0.229  0.3213  2.1691 -1.4360
  921MOL0     H21554   9.227   2.528  -0.011 -3.5744 -0.1412  0.1340
  921MOL0     H21555   9.014   2.604   0.019  0.8616 -0.7294  1.6098
  921MOL0     H21556   8.754   3.063   0.012  0.3788 -0.9972  0.0200
  921MOL0     H21557   8.528   3.154   0.056  4.0260 -0.1144  1.6292
  921MOL0     H21558   7.524   3.241   1.146  3.0945 -0.6432 -0.5979
  921MOL0     H21559   7.720   3.404   1.123  1.6516 -1.9320 -1.6220
  921MOL0     H21560   7.864   3.751   1.099 -1.3854  1.1825  0.2088
  921MOL0     H21561   8.057   3.930   1.141  0.4272 -0.4539  0.2669
  921MOL0     H21562   8.306   3.960   1.077  0.0313 -0.4167 -1.7087
  921MOL0     H21563   8.216   4.093   1.144 -1.1767  1.4656 -1.4753
  921MOL0     H21564   8.351   4.240   0.961  0.1214 -0.3077 -0.4765
  921MOL0     H21565   8.405   4.198   1.122 -1.2859  3.6763 -1.0944
  921MOL0     H21566   8.463   4.086   0.853  0.8374  1.3609  0.3328
  921MOL0     H21567   8.539   4.013   1.002 -1.4913  1.0293  2.4370
  921MOL0     H21568   8.591   4.310   0.929  0.2452 -0.5441  1.3417
  921MOL0     H21569   8.628   4.214   1.068 -1.1572 -0.9953  1.0638
  921MOL0     H21570   8.904   4.101   0.765  0.4778  0.4472  1.4129
  921MOL0     H21571   8.106   3.955   0.714 -1.7772 -0.7687 -1.3399
  921MOL0     H21572   7.923   3.808   0.672 -2.1037  4.0795 -0.1022
  922MOL0     O21573   1.877   7.799   2.881 -0.2426 -0.1732  0.0450
  922MOL0     C21574   1.809   7.723   2.953  0.4239  0.3758 -0.4470
  922MOL0     O21575   1.813   7.584   2.967 -0.1167  0.6513 -0.1271
  922MOL0     C21576   1.924   7.523   2.899 -0.8238 -0.4799 -0.3524
  922MOL0     C21577   1.910   7.403   2.825 -1.1509 -0.0876  0.1359
  922MOL0     C21578   2.022   7.325   2.783 -0.8492 -1.1238  0.4778
  922MOL0     C21579   2.150   7.385   2.797 -0.3463 -1.0063  0.1112
  922MOL0     O21580   2.249   7.313   2.730  0.5087 -0.2393  0.2075
  922MOL0     C21581   2.379   7.363   2.712  1.1508  0.3403 -0.1422
  922MOL0     C21582   2.455   7.240   2.658  0.6689  0.7335 -0.7894
  922MOL0     C21583   2.598   7.264   2.634  0.1813 -0.0659 -0.6499
  922MOL0     C21584   2.684   7.281   2.753  0.1286  0.0162  0.2926
  922MOL0     C21585   2.821   7.327   2.708  0.3007 -0.0011 -0.4683
  922MOL0     C21586   2.833   7.417   2.588 -0.3190 -0.0281 -0.1144
  922MOL0     C21587   2.983   7.473   2.581  1.3369 -0.7399 -0.0578
  922MOL0     C21588   3.033   7.580   2.682 -1.1693  0.0926 -0.0386
  922MOL0     N21589   3.174   7.633   2.669  0.5309  0.4041  0.5607
  922MOL0     C21590   3.249   7.605   2.552 -0.5402 -0.1107  0.1295
  922MOL0     C21591   3.364   7.681   2.570  0.4604 -0.1646 -0.1829
  922MOL0     C21592   3.483   7.695   2.483 -0.6926 -0.3435  0.0393
  922MOL0     C21593   3.618   7.697   2.559 -0.1463 -0.7310 -0.0668
  922MOL0     C21594   3.723   7.622   2.480 -0.2884 -0.1177 -0.4241
  922MOL0     C21595   3.873   7.642   2.515  0.4422  0.4997  0.1243
  922MOL0     O21596   3.955   7.611   2.397  0.4626 -0.4446  0.5499
  922MOL0     C21597   4.088   7.573   2.407  0.3995  0.5567  0.1446
  922MOL0     C21598   4.151   7.500   2.309  0.2873 -0.6439  0.1529
  922MOL0     C21599   4.281   7.460   2.324 -0.9481 -0.7650  0.0975
  922MOL0     C21600   4.339   7.478   2.449 -0.0071  0.2866  0.6614
  922MOL0     C21601   4.470   7.420   2.487  0.5541  0.8726  0.1676
  922MOL0     O21602   4.552   7.391   2.385 -0.0540  0.0801  0.9687
  922MOL0     C21603   4.673   7.331   2.398 -1.1001 -1.1024  0.1408
  922MOL0     C21604   4.769   7.368   2.488 -0.1907 -0.2712 -0.0465
  922MOL0     C21605   4.894   7.313   2.493  0.0910  0.6120  1.0906
  922MOL0     C21606   4.942   7.231   2.392 -0.6602  0.5785  0.5219
  922MOL0     O21607   5.075   7.199   2.383 -0.4786  0.0108  0.5266
  922MOL0     C21608   5.112   7.089   2.296 -0.7261 -0.6815  0.3556
  922MOL0     C21609   5.259   7.042   2.320  1.0676  0.0362  0.4114
  922MOL0     C21610   5.317   6.966   2.206 -0.9719  0.0813  0.4223
  922MOL0     C21611   5.419   6.852   2.231  0.1744 -0.4193 -0.1664
  922MOL0     C21612   5.451   6.770   2.108  0.0278  0.3427 -0.6585
  922MOL0     C21613   5.569   6.680   2.140  0.1684 -0.7705  0.3436
  922MOL0     C21614   5.607   6.598   2.014  0.0273  0.1337 -0.4387
  922MOL0     C21615   5.490   6.527   1.952 -0.5279 -0.4385  1.0498
  922MOL0    Cl21616   5.546   6.433   1.814 -0.2806  0.3256  0.0010
  922MOL0     C21617   4.847   7.187   2.295 -0.5281 -1.5121 -0.4053
  922MOL0     C21618   4.716   7.240   2.297  0.2343  0.0630  0.5311
  922MOL0     O21619   4.494   7.397   2.606  0.1076 -0.7458  0.4428
  922MOL0     C21620   4.281   7.564   2.548  0.2406 -0.4275 -0.3018
  922MOL0     C21621   4.155   7.613   2.521  0.3162  0.0740  0.4399
  922MOL0     N21622   3.350   7.763   2.689  0.1090 -0.6069  0.0554
  922MOL0     N21623   3.240   7.728   2.741  0.1993 -0.2207  0.0185
  922MOL0     C21624   2.174   7.511   2.866 -0.0922  0.4040 -0.3295
  922MOL0     C21625   2.058   7.571   2.914 -0.1638  0.1418 -0.3199
  922MOL0     C21626   1.681   7.791   3.009 -0.0237  0.0982  0.3061
  922MOL0     C21627   1.631   7.744   3.131  0.4447  0.1003  0.5510
  922MOL0     C21628   1.521   7.797   3.196  0.0691  0.1789 -0.3474
  922MOL0     C21629   1.454   7.905   3.134  0.1469  0.0940 -0.3418
  922MOL0     O21630   1.341   7.971   3.174  0.0333 -0.1875  0.2273
  922MOL0     C21631   1.252   7.927   3.273  0.2049 -0.1810  0.5624
  922MOL0     C21632   1.162   7.822   3.221 -0.3040  0.7260 -0.3662
  922MOL0     C21633   1.074   7.871   3.105 -1.2888  0.4757 -0.1661
  922MOL0     C21634   0.956   7.781   3.059 -0.6277 -0.0736 -0.9757
  922MOL0     C21635   0.845   7.802   3.157  0.1463 -0.5560  0.4445
  922MOL0     C21636   0.765   7.826   3.248  0.0638  0.0764  0.1774
  922MOL0     C21637   1.512   7.960   3.023 -0.5692 -0.4023 -0.0045
  922MOL0     C21638   1.616   7.905   2.957  0.1093  1.6912 -0.1971
  922MOL0     H21639   1.817   7.354   2.799  0.2718 -2.1798 -1.3819
  922MOL0     H21640   2.021   7.224   2.744 -0.3297 -1.9116  2.3885
  922MOL0     H21641   2.424   7.395   2.806 -2.0036  1.1744  1.2139
  922MOL0     H21642   2.378   7.449   2.644 -2.7424  2.2730  2.0088
  922MOL0     H21643   2.404   7.233   2.562 -1.7644  0.1634  0.4594
  922MOL0     H21644   2.436   7.154   2.723  2.0741 -0.4087 -1.8311
  922MOL0     H21645   2.600   7.350   2.567  0.9470 -2.0889 -3.4143
  922MOL0     H21646   2.651   7.190   2.573  0.9806  0.2462 -0.3462
  922MOL0     H21647   2.653   7.369   2.812 -0.1643  1.1635 -1.4976
  922MOL0     H21648   2.687   7.197   2.823 -0.6813  2.2460  3.2154
  922MOL0     H21649   2.876   7.237   2.681 -1.6331 -0.9164 -1.4924
  922MOL0     H21650   2.873   7.365   2.797 -0.7331 -0.6505  0.4454
  922MOL0     H21651   2.767   7.503   2.581 -2.3234 -1.5230 -0.3418
  922MOL0     H21652   2.816   7.370   2.491  0.1377 -0.8179  0.1758
  922MOL0     H21653   3.057   7.392   2.588  1.5809 -0.3788  2.7246
  922MOL0     H21654   2.979   7.522   2.483  0.8590  1.1660  0.8857
  922MOL0     H21655   3.044   7.529   2.778 -0.3749 -2.4086 -1.3864
  922MOL0     H21656   2.965   7.665   2.692  0.2339  1.7755 -3.1816
  922MOL0     H21657   3.222   7.533   2.474 -2.9239 -0.3738  1.1278
  922MOL0     H21658   3.477   7.791   2.430  2.4368 -0.0267  0.0999
  922MOL0     H21659   3.479   7.617   2.406 -0.8350 -0.1892 -0.1114
  922MOL0     H21660   3.621   7.651   2.659  1.4743  2.0958  1.3137
  922MOL0     H21661   3.647   7.799   2.587  0.0182  0.4965 -4.1561
  922MOL0     H21662   3.684   7.520   2.487 -1.3145  0.0392 -2.8507
  922MOL0     H21663   3.706   7.640   2.373 -2.3131 -1.3257 -0.3699
  922MOL0     H21664   3.890   7.583   2.606  0.8250 -1.5587 -1.2266
  922MOL0     H21665   3.904   7.741   2.549  0.5300 -0.2831  2.5527
  922MOL0     H21666   4.090   7.473   2.223  1.3458  1.5862 -1.3987
  922MOL0     H21667   4.328   7.387   2.259 -0.0668  0.6858 -0.9587
  922MOL0     H21668   4.741   7.443   2.562  2.4357 -0.5181  1.2991
  922MOL0     H21669   4.957   7.347   2.574 -1.7407 -0.7625  3.2016
  922MOL0     H21670   5.097   7.114   2.191 -1.9895 -2.5689  0.0447
  922MOL0     H21671   5.048   7.002   2.314  0.6739 -2.2953 -2.0220
  922MOL0     H21672   5.235   6.982   2.408 -1.1244  1.6455  0.9812
  922MOL0     H21673   5.332   7.118   2.352  1.0377  0.3811 -0.3085
  922MOL0     H21674   5.350   7.042   2.134  1.6543 -0.3723  1.0573
  922MOL0     H21675   5.234   6.915   2.156  0.3000  0.3836 -2.2184
  922MOL0     H21676   5.517   6.892   2.259 -0.7663  3.1078 -1.4602
  922MOL0     H21677   5.389   6.798   2.322 -0.5775 -0.8646 -0.6755
  922MOL0     H21678   5.482   6.830   2.022 -0.1800  2.1074  0.4690
  922MOL0     H21679   5.360   6.708   2.100  0.3616 -1.1349  3.9461
  922MOL0     H21680   5.561   6.617   2.229  3.0060 -0.9516  0.5815
  922MOL0     H21681   5.647   6.756   2.154  0.9129 -0.1387 -5.0825
  922MOL0     H21682   5.656   6.662   1.940  2.8530 -1.8577 -0.4395
  922MOL0     H21683   5.680   6.524   2.046  0.5210 -0.3471 -2.5336
  922MOL0     H21684   5.432   6.603   1.899 -1.1647 -1.5204  0.1605
  922MOL0     H21685   5.436   6.464   2.024  1.1851 -2.8864  0.3192
  922MOL0     H21686   4.872   7.111   2.221 -1.3708 -0.7765 -1.4721
  922MOL0     H21687   4.644   7.206   2.224 -1.9459  3.4427  0.8966
  922MOL0     H21688   4.322   7.584   2.646 -1.9273 -1.1535  0.8314
  922MOL0     H21689   4.109   7.674   2.598 -1.5742 -0.3811 -0.2736
  922MOL0     H21690   2.274   7.552   2.871  0.0069  0.0360  0.8978
  922MOL0     H21691   2.077   7.673   2.944  1.8381 -0.3746  0.3391
  922MOL0     H21692   1.667   7.655   3.182  1.8307  0.5515  0.4083
  922MOL0     H21693   1.470   7.756   3.282  0.1677 -0.7452 -0.7127
  922MOL0     H21694   1.187   8.013   3.291  0.3028  0.0687 -0.2284
  922MOL0     H21695   1.306   7.883   3.358 -0.1220 -0.6019  0.5557
  922MOL0     H21696   1.222   7.737   3.187  0.4178  0.1862  2.0666
  922MOL0     H21697   1.101   7.776   3.300  1.7807 -2.8458 -0.6400
  922MOL0     H21698   1.138   7.878   3.017 -0.7065  0.4132  0.2433
  922MOL0     H21699   1.036   7.970   3.132 -0.0857  1.0225 -0.4186
  922MOL0     H21700   0.910   7.810   2.965 -1.1957 -0.8806 -0.9601
  922MOL0     H21701   0.997   7.680   3.052  0.8052  0.5994 -3.1982
  922MOL0     H21702   0.693   7.820   3.327  0.0641  2.5800  0.4326
  922MOL0     H21703   1.471   8.047   2.974  2.2436 -0.4498 -2.7398
  922MOL0     H21704   1.638   7.937   2.856 -1.8384 -1.5940 -1.8344
  923MOL0     O21705   0.306   9.502   1.187  0.0429  0.8532 -0.1384
  923MOL0     C21706   0.374   9.397   1.206 -0.1016  1.2305  0.5597
  923MOL0     O21707   0.327   9.269   1.187  0.0195  0.4231  0.6098
  923MOL0     C21708   0.195   9.249   1.201  0.0978 -0.4939 -0.2860
  923MOL0     C21709   0.127   9.155   1.121 -0.5823  0.2982 -0.5334
  923MOL0     C21710  -0.000   9.115   1.138  1.1181 -0.3281  0.0212
  923MOL0     C21711  -0.073   9.175   1.241 -0.0284  0.0709 -0.4947
  923MOL0     O21712  -0.209   9.141   1.248 -0.6419 -0.5739  0.6226
  923MOL0     C21713  -0.292   9.261   1.248 -0.2090 -0.5715  0.0840
  923MOL0     C21714  -0.443   9.203   1.221 -0.7299  0.5273 -0.5565
  923MOL0     C21715  -0.508   9.136   1.338 -0.7700  0.2023 -0.6335
  923MOL0     C21716  -0.629   9.055   1.302  0.1240  0.4708  0.1986
  923MOL0     C21717  -0.737   9.128   1.216  0.3757 -0.0121 -0.3187
  923MOL0     C21718  -0.855   9.038   1.198  0.4323 -0.3592  0.2801
  923MOL0     C21719  -0.971   9.105   1.128 -0.6895 -0.2001  0.0805
  923MOL0     C21720  -1.098   9.020   1.136 -0.2790 -0.6144  0.6591
  923MOL0     N21721  -1.210   9.105   1.096 -0.1762 -0.3553 -0.3232
  923MOL0     C21722  -1.213   9.184   0.990 -1.0554 -0.7602  0.5974
  923MOL0     C21723  -1.340   9.243   0.991 -0.5287  0.8824 -0.6246
  923MOL0     C21724  -1.407   9.326   0.890  0.1501  0.7352 -0.0091
  923MOL0     C21725  -1.519   9.232   0.829  0.3310 -0.3950  0.5813
  923MOL0     C21726  -1.587   9.301   0.709 -0.2034 -0.9562  0.0273
  923MOL0     C21727  -1.681   9.210   0.635  0.1699  0.3978 -0.0227
  923MOL0     O21728  -1.740   9.287   0.529  0.3716 -0.4574  0.4056
  923MOL0     C21729  -1.854   9.221   0.474 -1.0721  0.2977  0.7008
  923MOL0     C21730  -1.832   9.161   0.356  0.0442  0.5839  0.4108
  923MOL0     C21731  -1.929   9.079   0.298  0.1996 -0.1613 -0.2461
  923MOL0     C21732  -2.061   9.077   0.346 -0.5073 -0.1406 -0.8588
  923MOL0     C21733  -2.171   9.011   0.274  0.4504  0.4930 -0.2950
  923MOL0     O21734  -2.150   8.933   0.162 -0.2287 -0.4421  0.5781
  923MOL0     C21735  -2.232   8.835   0.124  0.0854 -1.6417 -0.8561
  923MOL0     C21736  -2.173   8.706   0.115 -0.4733  0.1327  0.2157
  923MOL0     C21737  -2.252   8.617   0.056  0.6214 -0.1117  1.3212
  923MOL0     C21738  -2.389   8.641   0.008  0.0621  0.9537 -0.5807
  923MOL0     O21739  -2.458   8.533  -0.027 -1.1514 -0.0113 -0.1803
  923MOL0     C21740  -2.554   8.483   0.068 -0.1466 -0.4004  0.2425
  923MOL0     C21741  -2.659   8.386   0.011 -0.7004 -0.4571  0.2557
  923MOL0     C21742  -2.746   8.325   0.113  0.2199 -0.7713  0.9375
  923MOL0     C21743  -2.841   8.229   0.048  0.4455  1.0787 -0.1232
  923MOL0     C21744  -2.786   8.082   0.043 -0.3015  0.3881 -0.0846
  923MOL0     C21745  -2.895   7.977   0.039 -0.1073  0.7410  0.0315
  923MOL0     C21746  -2.870   7.865  -0.065  1.2108 -0.3049 -0.1285
  923MOL0     C21747  -2.962   7.741  -0.045  0.1860  0.0093 -0.2885
  923MOL0    Cl21748  -3.139   7.783  -0.051 -0.4533 -0.6461  0.2600
  923MOL0     C21749  -2.450   8.762   0.023  0.7492  0.0790 -0.5322
  923MOL0     C21750  -2.372   8.864   0.086  0.2353  0.4446 -0.4869
  923MOL0     O21751  -2.275   9.015   0.338  0.6314  0.5140  0.0343
  923MOL0     C21752  -2.079   9.135   0.469  0.5950  0.5975  0.9064
  923MOL0     C21753  -1.979   9.204   0.538  0.3465 -1.2807 -0.0310
  923MOL0     N21754  -1.405   9.202   1.106  0.6701  0.2822  0.6666
  923MOL0     N21755  -1.323   9.123   1.171 -0.1444 -0.2008 -0.0613
  923MOL0     C21756  -0.004   9.258   1.337 -0.3429  0.1039  0.1003
  923MOL0     C21757   0.130   9.288   1.316 -0.5430 -0.9513  0.4119
  923MOL0     C21758   0.519   9.406   1.245 -0.2172 -0.6692  0.1245
  923MOL0     C21759   0.604   9.282   1.245 -1.0030 -0.1294  0.1381
  923MOL0     C21760   0.736   9.292   1.304  0.9231 -0.5452 -1.1241
  923MOL0     C21761   0.790   9.415   1.356  0.0372 -0.0693 -0.2224
  923MOL0     O21762   0.921   9.402   1.403 -0.5517 -0.1773  0.0564
  923MOL0     C21763   0.987   9.525   1.457  0.0566  1.2722  0.2326
  923MOL0     C21764   1.125   9.491   1.508 -0.3966  0.8773 -0.1005
  923MOL0     C21765   1.209   9.604   1.572  0.5590  0.3841  0.3659
  923MOL0     C21766   1.350   9.548   1.608  0.0559 -0.0822  0.7318
  923MOL0     C21767   1.441   9.650   1.663  1.1601  0.1650  0.2036
  923MOL0     C21768   1.514   9.752   1.673  0.3045  0.3092 -0.7098
  923MOL0     C21769   0.717   9.531   1.335  0.0511  0.0978  0.0062
  923MOL0     C21770   0.586   9.528   1.285 -0.1777  0.0963 -0.4538
  923MOL0     H21771   0.186   9.118   1.038  2.0409  2.6092  0.1495
  923MOL0     H21772  -0.050   9.052   1.066 -0.8226  1.9530 -0.7887
  923MOL0     H21773  -0.268   9.319   1.158  1.1529 -0.6553  0.3673
  923MOL0     H21774  -0.294   9.321   1.339  3.4045 -1.7761  1.1279
  923MOL0     H21775  -0.442   9.134   1.136  1.8011  0.1993 -0.3558
  923MOL0     H21776  -0.512   9.284   1.197  1.1552  3.0716  2.0293
  923MOL0     H21777  -0.544   9.206   1.414  3.0903  0.8585  0.8151
  923MOL0     H21778  -0.431   9.081   1.393  0.0470  0.9117 -1.0509
  923MOL0     H21779  -0.598   8.962   1.253  0.0487  0.4461  0.1960
  923MOL0     H21780  -0.679   9.026   1.394  0.2365 -1.4590 -0.3054
  923MOL0     H21781  -0.697   9.158   1.119  0.0406 -1.2622 -0.8530
  923MOL0     H21782  -0.756   9.226   1.262 -0.9419 -0.5676  0.3904
  923MOL0     H21783  -0.883   9.007   1.300 -1.5715 -0.1716 -0.1702
  923MOL0     H21784  -0.824   8.941   1.157  1.6689 -0.4172  1.2942
  923MOL0     H21785  -0.989   9.199   1.180 -1.6130  0.4871 -1.4118
  923MOL0     H21786  -0.945   9.139   1.028  1.1597  0.2977  0.6943
  923MOL0     H21787  -1.113   8.990   1.240  1.5440  1.2387  1.5205
  923MOL0     H21788  -1.098   8.929   1.075 -3.2741  0.1704 -0.7020
  923MOL0     H21789  -1.133   9.212   0.922 -0.5019 -1.0718  1.1064
  923MOL0     H21790  -1.340   9.362   0.811 -0.3221 -0.5083 -1.0177
  923MOL0     H21791  -1.462   9.402   0.945  1.8240  3.6951 -2.1258
  923MOL0     H21792  -1.588   9.186   0.900  2.3549 -1.7448  1.7623
  923MOL0     H21793  -1.480   9.138   0.789  1.1339 -0.7864  2.2293
  923MOL0     H21794  -1.642   9.391   0.740  0.3830  0.1341 -1.9176
  923MOL0     H21795  -1.514   9.335   0.635 -2.4227  1.3550 -1.2639
  923MOL0     H21796  -1.765   9.178   0.696  3.4926 -3.0028  3.3570
  923MOL0     H21797  -1.626   9.123   0.598 -0.8476 -0.3899  0.2814
  923MOL0     H21798  -1.736   9.159   0.306 -0.1336 -0.7092  0.0877
  923MOL0     H21799  -1.906   9.018   0.211 -0.8743 -5.0509  2.5542
  923MOL0     H21800  -2.074   8.665   0.132  1.1863  0.2303 -6.4578
  923MOL0     H21801  -2.208   8.519   0.042  1.2178  0.0052  2.2466
  923MOL0     H21802  -2.600   8.568   0.119  0.3368  1.7704 -2.7246
  923MOL0     H21803  -2.497   8.415   0.132 -1.5332 -2.7344 -0.8646
  923MOL0     H21804  -2.599   8.313  -0.044  1.1003  0.1646  1.2916
  923MOL0     H21805  -2.716   8.444  -0.062  3.2946  1.3525 -1.7438
  923MOL0     H21806  -2.808   8.405   0.156 -0.7793 -1.0158  0.0244
  923MOL0     H21807  -2.697   8.270   0.193  0.4326  0.9284  2.0184
  923MOL0     H21808  -2.930   8.225   0.111 -0.5403  0.7131 -1.4944
  923MOL0     H21809  -2.886   8.257  -0.048 -3.4842 -0.8900  0.9333
  923MOL0     H21810  -2.707   8.057   0.115 -0.3722 -1.5754 -0.6186
  923MOL0     H21811  -2.733   8.078  -0.052  0.5376  0.3986  0.3766
  923MOL0     H21812  -2.991   8.029   0.029 -0.5720  0.0062  0.4720
  923MOL0     H21813  -2.892   7.933   0.139  2.7150 -0.0133 -0.2990
  923MOL0     H21814  -2.885   7.913  -0.162  0.2673  2.2698  1.2045
  923MOL0     H21815  -2.766   7.834  -0.053  1.9400  2.3274  1.0960
  923MOL0     H21816  -2.946   7.703   0.057  1.6671  3.0721  0.7759
  923MOL0     H21817  -2.946   7.671  -0.127 -0.4800  0.0989 -0.4985
  923MOL0     H21818  -2.553   8.778  -0.008  1.2699  1.8917 -1.4571
  923MOL0     H21819  -2.427   8.956   0.103 -1.1013 -0.7966  2.7956
  923MOL0     H21820  -2.176   9.141   0.518  0.6591  2.5965  0.8711
  923MOL0     H21821  -2.014   9.251   0.629 -1.4728 -0.4328 -1.1014
  923MOL0     H21822  -0.059   9.299   1.422  2.1623  0.9175  1.4199
  923MOL0     H21823   0.178   9.355   1.387  0.3016  0.3595 -1.3402
  923MOL0     H21824   0.565   9.189   1.203 -1.7238  1.4776 -3.0825
  923MOL0     H21825   0.802   9.207   1.316 -1.4340 -2.1607  1.5617
  923MOL0     H21826   0.918   9.576   1.525 -3.0719  0.0935 -1.8108
  923MOL0     H21827   0.996   9.596   1.375  0.9906  0.7811 -0.1025
  923MOL0     H21828   1.114   9.405   1.575  2.9943  0.7594  0.4764
  923MOL0     H21829   1.180   9.451   1.422 -0.2389  0.8544  0.0096
  923MOL0     H21830   1.157   9.626   1.666  0.6694  0.0632  0.5026
  923MOL0     H21831   1.197   9.694   1.511 -1.8134 -0.2089 -0.1635
  923MOL0     H21832   1.340   9.464   1.678 -0.3780 -1.8162 -1.3342
  923MOL0     H21833   1.394   9.493   1.525  2.1339  1.1688  0.9349
  923MOL0     H21834   1.575   9.840   1.678  0.4761  0.1214  2.1960
  923MOL0     H21835   0.759   9.628   1.361  1.4915 -0.7945  1.2254
  923MOL0     H21836   0.534   9.623   1.284  1.6108  1.1411  0.5493
  924MOL0     O21837   8.203   7.862   0.409 -0.1357  0.1631  0.4660
  924MOL0     C21838   8.159   7.969   0.454  0.4087 -0.0087  0.2675
  924MOL0     O21839   8.233   8.087   0.469  0.2159  0.5615 -0.9432
  924MOL0     C21840   8.368   8.107   0.471  0.7403 -0.5872  0.0461
  924MOL0     C21841   8.468   8.008   0.440 -0.7818  0.1536  1.0429
  924MOL0     C21842   8.603   8.041   0.453 -0.4820 -0.1831 -0.1450
  924MOL0     C21843   8.654   8.165   0.495 -0.8279  0.1291 -0.3769
  924MOL0     O21844   8.783   8.203   0.503  0.7981 -0.4392  0.4722
  924MOL0     C21845   8.883   8.118   0.442  0.9196  0.4863  0.2910
  924MOL0     C21846   9.015   8.193   0.444  0.0718  0.3831  1.1973
  924MOL0     C21847   9.028   8.313   0.348  0.3624  0.9081 -0.0350
  924MOL0     C21848   9.141   8.395   0.377  0.2239 -0.7367  0.2586
  924MOL0     C21849   9.135   8.488   0.498 -0.3957  0.0799 -0.1433
  924MOL0     C21850   9.037   8.601   0.470  0.0267  0.0903  0.8372
  924MOL0     C21851   9.022   8.677   0.604  1.2881 -0.9215 -0.1910
  924MOL0     C21852   8.904   8.777   0.584  1.0134  0.0925 -0.4267
  924MOL0     N21853   8.767   8.718   0.589  0.6988 -0.7220  0.9541
  924MOL0     C21854   8.682   8.691   0.690  0.5540  0.0673 -0.2599
  924MOL0     C21855   8.560   8.673   0.637  0.0153  0.8026  0.2070
  924MOL0     C21856   8.452   8.619   0.732 -0.3242 -0.3201  0.3602
  924MOL0     C21857   8.305   8.644   0.680 -0.9995  0.9777 -0.1029
  924MOL0     C21858   8.238   8.778   0.679 -0.2996 -0.2279 -0.3031
  924MOL0     C21859   8.106   8.753   0.610  0.2969 -0.7049  0.4215
  924MOL0     O21860   8.011   8.862   0.607 -0.0952  0.3729  0.4856
  924MOL0     C21861   7.884   8.827   0.596  0.3316  0.9461 -0.0378
  924MOL0     C21862   7.844   8.724   0.500 -0.7101 -0.3361 -0.2297
  924MOL0     C21863   7.716   8.692   0.482  1.4311 -0.6443 -0.3061
  924MOL0     C21864   7.615   8.751   0.562  0.6553  0.2300 -0.2653
  924MOL0     C21865   7.463   8.737   0.546 -0.4273 -1.0242  0.6633
  924MOL0     O21866   7.378   8.833   0.600 -0.5953  0.9005  0.0294
  924MOL0     C21867   7.254   8.845   0.563  0.4531 -0.1140 -0.2890
  924MOL0     C21868   7.161   8.745   0.536 -1.4646  0.9099 -0.2100
  924MOL0     C21869   7.029   8.769   0.509 -0.5672  0.2210  0.0129
  924MOL0     C21870   6.982   8.904   0.502  0.6201 -0.5135  0.2565
  924MOL0     O21871   6.860   8.928   0.460  0.5067 -0.1740 -0.7254
  924MOL0     C21872   6.858   8.970   0.330  0.4716 -0.5846  1.0471
  924MOL0     C21873   6.714   8.941   0.283  0.0730 -0.0737  0.7502
  924MOL0     C21874   6.707   8.953   0.126 -0.0309  0.4748 -0.0435
  924MOL0     C21875   6.595   8.873   0.061  0.4421 -0.7024  0.2266
  924MOL0     C21876   6.525   8.949  -0.053 -0.0783  0.3534  0.8378
  924MOL0     C21877   6.394   8.891  -0.084 -0.1382  0.6258 -0.1016
  924MOL0     C21878   6.322   8.980  -0.190  0.1759 -0.3942 -0.2635
  924MOL0     C21879   6.238   9.091  -0.125 -0.4813 -0.2308  0.7204
  924MOL0    Cl21880   6.091   9.020  -0.054 -0.0224 -0.1812  0.3982
  924MOL0     C21881   7.077   9.007   0.514 -0.4322  0.7486 -0.1764
  924MOL0     C21882   7.211   8.981   0.560  0.4909  0.6233  0.0477
  924MOL0     O21883   7.434   8.647   0.465 -0.0929 -1.1151 -1.1991
  924MOL0     C21884   7.644   8.855   0.652 -1.2330 -0.3992 -0.8124
  924MOL0     C21885   7.784   8.892   0.667  0.5939 -0.1014  0.2937
  924MOL0     N21886   8.574   8.683   0.498  0.4321 -0.1736 -0.3501
  924MOL0     N21887   8.688   8.732   0.473 -0.0268  0.1062  1.2283
  924MOL0     C21888   8.556   8.262   0.519 -0.0998 -1.0754  0.6165
  924MOL0     C21889   8.418   8.235   0.504 -0.5178  0.0866 -0.2927
  924MOL0     C21890   8.012   7.963   0.488 -0.2829  0.1979 -0.0276
  924MOL0     C21891   7.915   7.871   0.430  0.0393 -0.3967  0.1978
  924MOL0     C21892   7.789   7.857   0.484  0.5964  0.1950 -0.3103
  924MOL0     C21893   7.736   7.945   0.581 -1.2780  0.2847  0.2887
  924MOL0     O21894   7.606   7.935   0.616 -0.3084  0.6285  0.2374
  924MOL0     C21895   7.559   8.012   0.729  0.2190 -0.1640  0.1961
  924MOL0     C21896   7.406   7.978   0.761  0.1482  0.3413  1.2720
  924MOL0     C21897   7.389   7.827   0.760  0.1446  0.2989  0.2162
  924MOL0     C21898   7.246   7.780   0.799  0.2089 -0.7524 -0.4903
  924MOL0     C21899   7.146   7.856   0.722 -0.7817 -0.0189  0.8704
  924MOL0     C21900   7.072   7.941   0.663  0.2349 -0.4356  0.4606
  924MOL0     C21901   7.824   8.044   0.634 -0.6705  0.1042  0.3271
  924MOL0     C21902   7.957   8.050   0.585  0.7319  0.9233 -0.1140
  924MOL0     H21903   8.446   7.909   0.404 -1.1026  0.8703 -0.8646
  924MOL0     H21904   8.676   7.968   0.420 -0.3519 -0.4977  0.8133
  924MOL0     H21905   8.853   8.093   0.340  0.5210  0.2004  0.4712
  924MOL0     H21906   8.902   8.018   0.483  1.0759  0.6285  0.5723
  924MOL0     H21907   9.094   8.123   0.414  0.6317  0.6972  1.8845
  924MOL0     H21908   9.044   8.215   0.548  2.8284 -2.1042  1.1038
  924MOL0     H21909   8.937   8.373   0.345  0.2551  0.7144 -0.6866
  924MOL0     H21910   9.042   8.273   0.247 -1.2774  1.5886 -0.5491
  924MOL0     H21911   9.226   8.327   0.389  2.2372  1.3639 -1.2914
  924MOL0     H21912   9.148   8.449   0.283  2.8287 -0.5944  0.4674
  924MOL0     H21913   9.233   8.536   0.499  0.4794 -1.5122  3.2729
  924MOL0     H21914   9.115   8.434   0.591  1.7985 -1.6143 -0.5834
  924MOL0     H21915   8.941   8.567   0.429 -0.3500  0.8110  1.0879
  924MOL0     H21916   9.076   8.664   0.390 -0.9372 -2.3835 -1.7253
  924MOL0     H21917   8.996   8.612   0.688 -3.1369 -1.2102 -1.5029
  924MOL0     H21918   9.105   8.746   0.620  0.6833  0.0123 -0.9074
  924MOL0     H21919   8.917   8.836   0.493  0.4275 -0.8841 -1.1601
  924MOL0     H21920   8.904   8.857   0.659  4.5388  1.7765 -1.9932
  924MOL0     H21921   8.709   8.691   0.795 -2.1608 -1.1861  0.5384
  924MOL0     H21922   8.459   8.664   0.832 -4.5428 -1.1452  1.2509
  924MOL0     H21923   8.463   8.511   0.728  0.7524 -0.1948 -2.4587
  924MOL0     H21924   8.258   8.571   0.747  4.1604 -2.8292 -0.0445
  924MOL0     H21925   8.306   8.602   0.579 -0.0693 -2.9169  1.3397
  924MOL0     H21926   8.215   8.802   0.783 -2.4202  2.0489 -1.2011
  924MOL0     H21927   8.307   8.858   0.649  0.2814  0.3773  2.4223
  924MOL0     H21928   8.060   8.671   0.666 -1.5727  0.6170  0.9320
  924MOL0     H21929   8.114   8.730   0.503  1.6793  0.9714  0.1121
  924MOL0     H21930   7.916   8.684   0.429  1.0204 -0.1031  1.3104
  924MOL0     H21931   7.685   8.626   0.402 -1.4385  0.5571 -0.3190
  924MOL0     H21932   7.195   8.643   0.543 -0.4945  1.1859 -0.6499
  924MOL0     H21933   6.963   8.691   0.472  1.6336 -3.1097  2.4382
  924MOL0     H21934   6.929   8.926   0.259  1.2961 -0.4688  1.7901
  924MOL0     H21935   6.873   9.078   0.334 -0.7748 -0.3462 -0.0294
  924MOL0     H21936   6.640   8.992   0.345 -0.4118 -1.9852  1.8270
  924MOL0     H21937   6.710   8.833   0.301 -0.3976 -0.3920 -1.0074
  924MOL0     H21938   6.801   8.919   0.082 -0.3337 -1.2991  0.5840
  924MOL0     H21939   6.692   9.060   0.107 -0.5562  0.3300 -0.4810
  924MOL0     H21940   6.623   8.776   0.021 -0.4125 -1.0390  0.4200
  924MOL0     H21941   6.520   8.840   0.133 -2.6677 -0.1207 -2.4676
  924MOL0     H21942   6.589   8.954  -0.141 -0.9827 -2.0081 -0.0451
  924MOL0     H21943   6.520   9.054  -0.020  0.7909  1.6609 -2.7709
  924MOL0     H21944   6.346   8.887   0.014  0.9858 -1.4147  0.4251
  924MOL0     H21945   6.410   8.794  -0.132 -1.3396  1.5023 -2.4857
  924MOL0     H21946   6.408   9.005  -0.253  1.3940 -2.7366  0.3249
  924MOL0     H21947   6.255   8.924  -0.256 -0.6367  0.0512  0.1655
  924MOL0     H21948   6.212   9.160  -0.206  2.1106  0.9884  0.8396
  924MOL0     H21949   6.287   9.146  -0.044 -0.8132  0.2672  0.5862
  924MOL0     H21950   7.047   9.111   0.520 -1.9649  0.3695 -0.7639
  924MOL0     H21951   7.274   9.063   0.595  1.5097 -0.5910  1.1629
  924MOL0     H21952   7.572   8.915   0.707 -0.3650  0.2408 -0.3255
  924MOL0     H21953   7.814   8.989   0.708  3.3386  0.4405 -2.5858
  924MOL0     H21954   8.594   8.357   0.555  3.2363 -2.5109  1.2112
  924MOL0     H21955   8.342   8.313   0.513 -0.1165  0.9634 -3.5090
  924MOL0     H21956   7.959   7.789   0.373  1.5163 -0.1878  0.9693
  924MOL0     H21957   7.723   7.783   0.439  0.6806 -1.5016  2.1965
  924MOL0     H21958   7.569   8.120   0.714 -0.2709  0.1879  2.1485
  924MOL0     H21959   7.617   7.990   0.819 -0.8462  1.1423  1.2614
  924MOL0     H21960   7.379   8.019   0.859 -0.8289 -0.2249  1.2520
  924MOL0     H21961   7.338   8.023   0.688 -0.2791 -0.9694  0.8419
  924MOL0     H21962   7.465   7.787   0.828 -0.3399  0.2254  0.7191
  924MOL0     H21963   7.409   7.784   0.661 -0.5470  0.6098 -0.0641
  924MOL0     H21964   7.232   7.674   0.774 -0.4043 -1.0126  0.8573
  924MOL0     H21965   7.235   7.789   0.907  1.2658 -0.5836 -0.3873
  924MOL0     H21966   7.001   8.012   0.626 -0.8310 -1.5253  0.3622
  924MOL0     H21967   7.808   8.115   0.715  1.9293 -0.4271  1.4123
  924MOL0     H21968   8.011   8.130   0.634  0.0028  1.6736 -0.4977
  925MOL0     O21969   1.632   3.524   0.514  0.3619  0.2472 -0.0094
  925MOL0     C21970   1.676   3.495   0.622  0.9161 -0.1135 -0.3145
  925MOL0     O21971   1.606   3.442   0.729  0.0282 -0.2246 -0.5530
  925MOL0     C21972   1.473   3.419   0.740  0.5321 -0.3063  0.2563
  925MOL0     C21973   1.384   3.415   0.625  0.6981  0.2683 -0.4265
  925MOL0     C21974   1.242   3.393   0.624 -0.6290  0.1722 -0.3045
  925MOL0     C21975   1.187   3.361   0.749 -0.5328 -0.5076 -0.9641
  925MOL0     O21976   1.046   3.341   0.751 -0.1426 -0.2527 -0.0532
  925MOL0     C21977   0.982   3.306   0.877  0.5996  0.1487  0.1904
  925MOL0     C21978   0.833   3.352   0.867 -0.5377  0.4547 -0.5695
  925MOL0     C21979   0.770   3.315   0.731  0.2954  0.2361 -0.0113
  925MOL0     C21980   0.633   3.387   0.717  1.2571  0.3620  0.2322
  925MOL0     C21981   0.548   3.346   0.593 -0.0256  0.6817  0.0024
  925MOL0     C21982   0.404   3.368   0.639  0.6694  0.4098 -0.3481
  925MOL0     C21983   0.306   3.305   0.534 -0.5230 -0.7191 -0.7937
  925MOL0     C21984   0.294   3.155   0.536  0.5212 -0.7948 -0.1312
  925MOL0     N21985   0.171   3.114   0.483  0.3503  0.5858  0.2411
  925MOL0     C21986   0.053   3.113   0.550  0.2073 -0.1401 -0.8273
  925MOL0     C21987  -0.039   3.060   0.463 -0.7744 -1.0672  0.1093
  925MOL0     C21988  -0.191   3.027   0.475 -0.2231 -0.2369 -0.6246
  925MOL0     C21989  -0.273   3.158   0.475  0.2386  0.5528 -0.4411
  925MOL0     C21990  -0.419   3.120   0.436  0.9643  0.3083  0.4154
  925MOL0     C21991  -0.521   3.239   0.432 -0.0705 -0.4545  0.0933
  925MOL0     O21992  -0.650   3.179   0.434  0.1823 -0.0185 -1.0268
  925MOL0     C21993  -0.751   3.258   0.459 -0.0836 -1.0034 -0.0155
  925MOL0     C21994  -0.763   3.387   0.500  0.3182 -1.0870  0.0555
  925MOL0     C21995  -0.888   3.444   0.533 -0.3497  0.3343 -0.8188
  925MOL0     C21996  -1.004   3.373   0.501  0.7267  0.6764 -0.2450
  925MOL0     C21997  -1.141   3.430   0.501 -0.4172 -0.1859 -0.2668
  925MOL0     O21998  -1.226   3.381   0.404 -0.3484 -0.5598 -0.1884
  925MOL0     C21999  -1.341   3.456   0.368  0.7732  0.3014  0.4221
  925MOL0     C22000  -1.366   3.492   0.238 -0.5926 -0.2147 -0.6655
  925MOL0     C22001  -1.493   3.542   0.200 -0.5331  0.4067 -0.7430
  925MOL0     C22002  -1.586   3.566   0.299  0.1346 -0.5966  0.2925
  925MOL0     O22003  -1.717   3.603   0.273 -0.3015 -0.2949  0.5589
  925MOL0     C22004  -1.730   3.725   0.197 -0.5568 -0.1943  0.7675
  925MOL0     C22005  -1.701   3.844   0.285 -0.6195  0.4520 -0.4001
  925MOL0     C22006  -1.730   3.977   0.216  0.0558 -0.2916 -0.7231
  925MOL0     C22007  -1.865   3.982   0.153  0.7032 -0.2917  0.7636
  925MOL0     C22008  -1.923   4.121   0.126  0.0789 -0.5023 -1.5542
  925MOL0     C22009  -1.872   4.169  -0.003 -0.3086 -0.1882 -0.1413
  925MOL0     C22010  -1.887   4.312  -0.032 -0.1575  0.9898 -0.1961
  925MOL0     C22011  -1.926   4.338  -0.184  0.0704  0.2304 -1.0212
  925MOL0    Cl22012  -1.950   4.508  -0.218 -0.0736 -0.1219 -0.3681
  925MOL0     C22013  -1.566   3.522   0.429  0.7013 -0.0399  0.5675
  925MOL0     C22014  -1.445   3.469   0.465  0.0015  0.1298  0.8779
  925MOL0     O22015  -1.169   3.524   0.575 -0.0278  0.4642  0.1154
  925MOL0     C22016  -0.995   3.247   0.449 -0.1875 -0.6831 -1.1325
  925MOL0     C22017  -0.873   3.188   0.431  0.6123 -0.2914 -0.0772
  925MOL0     N22018   0.035   3.037   0.351 -0.1571  0.3004 -0.5273
  925MOL0     N22019   0.159   3.054   0.362  0.2232  0.9014  0.3204
  925MOL0     C22020   1.274   3.353   0.869  0.2252 -0.2918  0.1907
  925MOL0     C22021   1.412   3.381   0.856 -0.0705  0.3612 -0.3665
  925MOL0     C22022   1.820   3.498   0.650 -1.2260 -1.0439 -0.1024
  925MOL0     C22023   1.873   3.431   0.764 -0.3378  0.4829  0.2231
  925MOL0     C22024   2.005   3.430   0.788 -0.2166  0.3301 -0.3028
  925MOL0     C22025   2.095   3.506   0.709  0.1298  0.0518  1.0069
  925MOL0     O22026   2.241   3.499   0.715  0.0894  0.5600  0.3851
  925MOL0     C22027   2.281   3.382   0.784  0.2751  1.1180  0.1593
  925MOL0     C22028   2.431   3.354   0.789 -0.3209 -0.9912 -0.1305
  925MOL0     C22029   2.502   3.489   0.833  0.4241  0.7785 -0.3438
  925MOL0     C22030   2.529   3.587   0.717 -0.4572 -0.1373 -0.8718
  925MOL0     C22031   2.615   3.689   0.770  0.6633  0.4815 -0.4519
  925MOL0     C22032   2.693   3.774   0.807 -0.2703 -0.4504  0.7400
  925MOL0     C22033   2.046   3.567   0.595 -0.5839 -0.6728 -0.5140
  925MOL0     C22034   1.916   3.568   0.563 -0.0607  0.4091  0.0569
  925MOL0     H22035   1.426   3.438   0.528  0.7831  1.3618 -0.1432
  925MOL0     H22036   1.180   3.386   0.536 -1.3046 -4.2856  0.3024
  925MOL0     H22037   1.035   3.364   0.953  0.6190 -0.7645  0.8970
  925MOL0     H22038   0.981   3.200   0.904  0.3283  0.4731  1.4881
  925MOL0     H22039   0.832   3.460   0.885 -1.3261  0.0114  2.5046
  925MOL0     H22040   0.771   3.305   0.943  0.6558  1.9818  1.4454
  925MOL0     H22041   0.768   3.207   0.713  0.6695  0.4011 -1.1306
  925MOL0     H22042   0.824   3.342   0.640 -2.4912 -0.3276 -1.9567
  925MOL0     H22043   0.578   3.353   0.806  1.9278  0.7582  0.8019
  925MOL0     H22044   0.647   3.495   0.726 -2.9980  0.9635  2.2610
  925MOL0     H22045   0.568   3.241   0.571  1.4465  0.5767  1.5604
  925MOL0     H22046   0.576   3.407   0.507  1.6322 -1.6887 -1.2336
  925MOL0     H22047   0.372   3.472   0.646 -0.8051 -0.1299  2.5238
  925MOL0     H22048   0.371   3.316   0.730 -3.4266 -1.5234 -2.6407
  925MOL0     H22049   0.211   3.347   0.568 -0.4282 -1.0828 -0.0530
  925MOL0     H22050   0.318   3.332   0.429 -2.3710  1.0157 -0.6412
  925MOL0     H22051   0.295   3.123   0.641 -1.1020 -1.5204 -0.2969
  925MOL0     H22052   0.383   3.112   0.490  0.3607  0.2583 -1.4854
  925MOL0     H22053   0.033   3.137   0.654 -1.9536 -0.4125 -1.1397
  925MOL0     H22054  -0.209   2.982   0.573  0.8550 -0.6079 -0.5754
  925MOL0     H22055  -0.226   2.962   0.394 -0.6193  1.1720 -1.6259
  925MOL0     H22056  -0.228   3.233   0.411 -0.7534  2.3725  0.8882
  925MOL0     H22057  -0.286   3.202   0.575 -2.1754  3.3894 -1.8418
  925MOL0     H22058  -0.423   3.071   0.339 -1.7786  2.1795 -0.5354
  925MOL0     H22059  -0.459   3.047   0.507  0.9448 -1.4366 -1.3221
  925MOL0     H22060  -0.495   3.295   0.342 -0.3719 -0.2272  0.1473
  925MOL0     H22061  -0.522   3.299   0.523 -0.6822  0.3881 -0.4435
  925MOL0     H22062  -0.675   3.445   0.524 -0.6370 -0.1382  1.3563
  925MOL0     H22063  -0.886   3.545   0.574 -2.1124  0.6260 -1.3374
  925MOL0     H22064  -1.286   3.478   0.166  1.1804 -3.0538  1.6478
  925MOL0     H22065  -1.513   3.555   0.094  0.8763 -3.7684 -1.7278
  925MOL0     H22066  -1.828   3.724   0.149  0.7088 -0.1108 -2.0674
  925MOL0     H22067  -1.655   3.727   0.117 -0.0428  1.8490  1.2598
  925MOL0     H22068  -1.596   3.835   0.313 -0.4462 -1.9968 -1.5568
  925MOL0     H22069  -1.770   3.838   0.370 -2.2759 -2.0255 -1.7815
  925MOL0     H22070  -1.653   3.981   0.138 -1.1572 -1.4388 -2.0327
  925MOL0     H22071  -1.706   4.062   0.280 -0.3991 -0.5836 -0.1540
  925MOL0     H22072  -1.867   3.923   0.061 -0.0237 -1.4721  1.5106
  925MOL0     H22073  -1.934   3.926   0.217  0.2520 -0.3202  0.2512
  925MOL0     H22074  -1.892   4.180   0.213 -1.0612 -1.2776 -0.5867
  925MOL0     H22075  -2.033   4.122   0.121  0.0882 -1.3733 -1.9606
  925MOL0     H22076  -1.907   4.096  -0.076 -1.9969  1.8831 -1.5312
  925MOL0     H22077  -1.764   4.153  -0.000 -0.4618 -1.7566 -1.6519
  925MOL0     H22078  -1.962   4.350   0.038  1.5073 -1.4814  3.1987
  925MOL0     H22079  -1.794   4.371  -0.031 -1.5418  3.5615 -3.0849
  925MOL0     H22080  -2.014   4.281  -0.213 -0.3049  0.3522 -0.1678
  925MOL0     H22081  -1.846   4.301  -0.249  2.7698  1.9717  1.0714
  925MOL0     H22082  -1.651   3.520   0.497 -1.5016 -1.4456 -2.0199
  925MOL0     H22083  -1.425   3.430   0.564 -1.4614 -1.5965  0.5598
  925MOL0     H22084  -1.089   3.202   0.419  0.0724 -0.8047 -1.7822
  925MOL0     H22085  -0.871   3.081   0.412  0.1054 -0.4736  0.8649
  925MOL0     H22086   1.230   3.329   0.965  1.1930  3.8900  1.8994
  925MOL0     H22087   1.485   3.380   0.937  0.8865  0.5995 -1.2044
  925MOL0     H22088   1.821   3.359   0.826  1.8554 -1.8755 -0.5158
  925MOL0     H22089   2.046   3.374   0.872 -0.3376 -0.2722 -0.6468
  925MOL0     H22090   2.230   3.289   0.760  1.6880  0.3331  0.0732
  925MOL0     H22091   2.262   3.400   0.890  0.8892 -0.2600  0.5232
  925MOL0     H22092   2.447   3.276   0.864 -0.2833  0.3642  1.3354
  925MOL0     H22093   2.476   3.323   0.694 -1.1371 -2.7636  0.0216
  925MOL0     H22094   2.595   3.463   0.883 -0.8229 -1.5777  0.9250
  925MOL0     H22095   2.435   3.529   0.910 -1.5058 -2.2567 -0.2940
  925MOL0     H22096   2.583   3.532   0.639 -2.0864 -1.9535 -0.7928
  925MOL0     H22097   2.435   3.625   0.677 -1.4209 -0.8735  0.6148
  925MOL0     H22098   2.741   3.861   0.848 -1.4427  0.8062 -0.4684
  925MOL0     H22099   2.124   3.598   0.526  1.0582 -2.3235  0.4817
  925MOL0     H22100   1.892   3.612   0.468 -1.6104 -2.7716 -1.1844
  926MOL0     O22101   4.036   3.366   3.137 -0.2315  0.1480 -0.0841
  926MOL0     C22102   3.964   3.432   3.212 -0.6702  0.1244  0.2047
  926MOL0     O22103   3.973   3.438   3.348 -0.0382  0.0447 -0.1785
  926MOL0     C22104   4.061   3.355   3.422  0.1424 -0.9566  0.7124
  926MOL0     C22105   4.198   3.381   3.445  0.7563  0.0156 -0.0368
  926MOL0     C22106   4.277   3.290   3.515 -0.6544  0.4628 -0.4057
  926MOL0     C22107   4.216   3.169   3.553 -0.5051 -0.1233 -0.6366
  926MOL0     O22108   4.283   3.079   3.631  0.2393  0.4350 -0.4341
  926MOL0     C22109   4.381   3.132   3.726  1.2284  0.0084 -0.3140
  926MOL0     C22110   4.520   3.104   3.675  0.3009 -0.3986 -0.2344
  926MOL0     C22111   4.638   3.142   3.768  0.5608  0.2495 -0.9738
  926MOL0     C22112   4.746   3.051   3.721 -1.0314 -0.5512 -0.0832
  926MOL0     C22113   4.871   3.079   3.809  0.4354 -0.5237 -0.0426
  926MOL0     C22114   4.997   3.001   3.772  0.6474 -0.0434  0.0309
  926MOL0     C22115   5.027   2.872   3.857  0.7929 -0.4013  0.2151
  926MOL0     C22116   4.932   2.752   3.819  0.8784 -0.4477 -0.0304
  926MOL0     N22117   4.986   2.691   3.697  0.0143  0.1984  0.3415
  926MOL0     C22118   4.962   2.741   3.564  0.2674  0.4101 -0.2053
  926MOL0     C22119   5.034   2.653   3.486 -0.2008  0.3251 -0.1815
  926MOL0     C22120   5.029   2.649   3.334 -0.8911  0.1407 -0.9046
  926MOL0     C22121   4.917   2.561   3.267  0.4116  0.0560 -0.2299
  926MOL0     C22122   4.909   2.584   3.112 -0.5472 -0.1149 -0.6457
  926MOL0     C22123   4.879   2.458   3.029  0.0745 -0.2174 -0.0564
  926MOL0     O22124   4.846   2.498   2.891 -0.3756  0.2856  0.2563
  926MOL0     C22125   4.744   2.581   2.861 -0.0201 -0.6689 -0.4781
  926MOL0     C22126   4.626   2.608   2.941 -0.5628  0.8251  0.3625
  926MOL0     C22127   4.519   2.696   2.908  0.4330 -0.1841 -1.2161
  926MOL0     C22128   4.529   2.758   2.785  0.9796  0.7336 -0.3899
  926MOL0     C22129   4.429   2.855   2.752  0.2580 -0.0308  0.0975
  926MOL0     O22130   4.435   2.908   2.617 -0.4413  1.1651  0.5852
  926MOL0     C22131   4.326   2.984   2.574 -0.9050 -0.0909 -0.7696
  926MOL0     C22132   4.250   2.930   2.470  0.1878  1.2150 -0.0025
  926MOL0     C22133   4.138   2.996   2.436 -0.7063 -0.6770 -0.2000
  926MOL0     C22134   4.099   3.117   2.492  0.5525  0.5518  0.6182
  926MOL0     O22135   3.987   3.183   2.456 -0.4068  0.2628 -0.4002
  926MOL0     C22136   3.868   3.102   2.410 -0.8447 -0.7035 -0.7022
  926MOL0     C22137   3.836   3.117   2.263 -0.7854  0.1717 -0.0155
  926MOL0     C22138   3.688   3.100   2.219  1.6221  0.4292  0.3481
  926MOL0     C22139   3.620   2.962   2.232  0.0218  0.0645 -1.0488
  926MOL0     C22140   3.477   2.963   2.166  0.0144 -0.1543  0.1396
  926MOL0     C22141   3.413   2.834   2.205  0.2490 -0.7593  0.1078
  926MOL0     C22142   3.256   2.850   2.228  0.0370 -0.7288  0.3913
  926MOL0     C22143   3.182   2.718   2.251 -0.5497  0.6779 -0.5078
  926MOL0    Cl22144   3.017   2.757   2.292  0.4339 -0.1765  0.0047
  926MOL0     C22145   4.169   3.174   2.595 -0.8433  0.4742  0.1714
  926MOL0     C22146   4.285   3.105   2.631 -0.8425  0.0035 -0.0229
  926MOL0     O22147   4.334   2.881   2.828 -0.3959  0.2140 -0.0482
  926MOL0     C22148   4.633   2.727   2.700  0.3332 -1.1328 -0.2459
  926MOL0     C22149   4.737   2.646   2.738  0.1563  0.4022  0.0489
  926MOL0     N22150   5.101   2.562   3.572  0.3022  0.0387  0.1953
  926MOL0     N22151   5.071   2.587   3.688 -0.2850  0.2241  0.1083
  926MOL0     C22152   4.088   3.142   3.528  0.5942  0.0382 -0.0735
  926MOL0     C22153   4.006   3.234   3.466  0.3170  0.0114  0.0480
  926MOL0     C22154   3.889   3.539   3.148  0.5634  0.1781 -0.3282
  926MOL0     C22155   3.801   3.624   3.220  0.4386  0.7239  1.3435
  926MOL0     C22156   3.724   3.726   3.160 -0.0704 -0.0903  0.1446
  926MOL0     C22157   3.745   3.753   3.022  0.0560  0.7385  0.2824
  926MOL0     O22158   3.669   3.860   2.962 -0.6228  0.7784  0.2295
  926MOL0     C22159   3.616   3.839   2.819  0.0133  0.7313  0.1193
  926MOL0     C22160   3.479   3.908   2.823  0.2424 -0.8497  0.6625
  926MOL0     C22161   3.398   3.858   2.707  0.8186 -0.6632  0.1548
  926MOL0     C22162   3.259   3.925   2.692 -0.9760 -0.6301 -0.1853
  926MOL0     C22163   3.172   3.847   2.600 -0.6652 -0.1917 -0.0033
  926MOL0     C22164   3.096   3.770   2.550 -0.2766 -0.2768  0.3761
  926MOL0     C22165   3.822   3.663   2.942  0.1266 -0.4722  0.4829
  926MOL0     C22166   3.887   3.554   3.004  0.0344  1.2105 -0.3397
  926MOL0     H22167   4.234   3.480   3.417 -2.1415  1.5340  1.0684
  926MOL0     H22168   4.379   3.322   3.530 -0.8806  0.7321  0.6272
  926MOL0     H22169   4.360   3.060   3.806 -1.1299 -0.1375 -0.9677
  926MOL0     H22170   4.362   3.226   3.778  0.1264  0.2584 -1.1212
  926MOL0     H22171   4.533   3.156   3.580  2.1847  0.7130  0.5987
  926MOL0     H22172   4.512   2.997   3.654 -1.3354 -0.9556  2.6424
  926MOL0     H22173   4.607   3.128   3.872  1.1341 -0.0838 -0.8446
  926MOL0     H22174   4.666   3.247   3.755  1.0057  0.9886  4.0880
  926MOL0     H22175   4.715   2.946   3.727  4.5151 -2.4281  0.9558
  926MOL0     H22176   4.776   3.083   3.621 -2.5876  3.2797  0.5040
  926MOL0     H22177   4.852   3.064   3.916 -3.5529  0.1520 -0.5343
  926MOL0     H22178   4.891   3.186   3.807  1.0956 -0.5548  2.0309
  926MOL0     H22179   5.082   3.070   3.779  0.6114  0.0665 -0.5732
  926MOL0     H22180   4.983   2.981   3.666 -0.5082  1.5942 -0.1643
  926MOL0     H22181   5.124   2.825   3.839  0.2663 -1.0341 -1.0653
  926MOL0     H22182   5.022   2.892   3.964 -2.1240  1.4551 -0.1482
  926MOL0     H22183   4.828   2.776   3.796  1.2500  0.1618 -1.1209
  926MOL0     H22184   4.925   2.684   3.904  2.3117 -0.0939  0.4039
  926MOL0     H22185   4.890   2.807   3.516 -2.0783 -0.5141  1.8005
  926MOL0     H22186   5.115   2.593   3.297 -0.0178  1.2109 -0.5235
  926MOL0     H22187   5.027   2.754   3.304 -4.0768  0.3815 -0.2285
  926MOL0     H22188   4.824   2.589   3.318  1.0049  1.3228  0.1995
  926MOL0     H22189   4.950   2.457   3.275  2.3472  0.2033 -3.9463
  926MOL0     H22190   4.841   2.667   3.090  1.1028  0.8717 -2.3809
  926MOL0     H22191   5.008   2.619   3.083  0.4338  1.5192  3.9000
  926MOL0     H22192   4.800   2.398   3.073  2.0560 -1.1163  2.5210
  926MOL0     H22193   4.960   2.385   3.035 -0.9139 -1.4788 -1.4017
  926MOL0     H22194   4.627   2.569   3.042  3.2317 -0.3676  0.0351
  926MOL0     H22195   4.436   2.713   2.975  2.3146 -0.2813  1.2961
  926MOL0     H22196   4.277   2.839   2.416  0.7527  2.3165 -1.6720
  926MOL0     H22197   4.086   2.947   2.355 -1.0005 -2.9830  1.3111
  926MOL0     H22198   3.785   3.143   2.469  1.6039  2.0809  1.0962
  926MOL0     H22199   3.870   2.998   2.443 -0.2481 -0.3880  0.2898
  926MOL0     H22200   3.912   3.065   2.202  0.2867 -0.7703  2.0179
  926MOL0     H22201   3.862   3.222   2.248  2.6602 -0.4256  0.9696
  926MOL0     H22202   3.686   3.125   2.112  0.3055  1.3923  0.5803
  926MOL0     H22203   3.621   3.172   2.267 -3.4035 -2.3700 -1.7368
  926MOL0     H22204   3.683   2.886   2.184  0.9650 -0.0883  0.3801
  926MOL0     H22205   3.635   2.944   2.339  3.6521  2.6156 -0.9676
  926MOL0     H22206   3.485   2.982   2.059 -0.4853  1.8928  0.4367
  926MOL0     H22207   3.418   3.043   2.212  1.0235  1.0181 -0.5586
  926MOL0     H22208   3.458   2.795   2.296 -0.4878  2.5697  2.0825
  926MOL0     H22209   3.438   2.765   2.123 -3.3037  0.1374 -1.9986
  926MOL0     H22210   3.239   2.914   2.315 -0.3208  0.0280 -0.2205
  926MOL0     H22211   3.199   2.898   2.149  0.4424  0.8355  1.0141
  926MOL0     H22212   3.230   2.669   2.336 -2.2334 -1.1658 -0.5616
  926MOL0     H22213   3.184   2.653   2.163 -1.8249  1.5913 -1.2365
  926MOL0     H22214   4.137   3.266   2.642  0.9560  0.9907  0.4845
  926MOL0     H22215   4.349   3.147   2.708  0.7470  0.7470 -1.6874
  926MOL0     H22216   4.637   2.775   2.603 -2.1188 -0.5690 -0.1295
  926MOL0     H22217   4.818   2.616   2.673  0.4518 -0.6279  0.8708
  926MOL0     H22218   4.038   3.054   3.568 -1.4438  0.6157 -1.2364
  926MOL0     H22219   3.901   3.210   3.454 -0.0492  1.3275  0.4161
  926MOL0     H22220   3.794   3.609   3.327 -0.6152 -0.3059  1.1441
  926MOL0     H22221   3.651   3.785   3.214  1.3423  2.6538 -0.7471
  926MOL0     H22222   3.596   3.734   2.794  1.3297  0.9691 -2.2683
  926MOL0     H22223   3.693   3.870   2.748  1.7744  1.2012  2.1156
  926MOL0     H22224   3.428   3.886   2.918 -0.5342 -1.1053  0.1932
  926MOL0     H22225   3.490   4.016   2.818  0.0334 -0.8912 -0.9727
  926MOL0     H22226   3.371   3.754   2.728 -1.1350 -0.1473  0.4521
  926MOL0     H22227   3.473   3.863   2.627  0.3231  1.9004 -0.2365
  926MOL0     H22228   3.210   3.915   2.790 -0.5230 -0.7424  0.0350
  926MOL0     H22229   3.285   4.026   2.659  0.0645 -1.1642 -1.0664
  926MOL0     H22230   3.038   3.704   2.488  1.6471 -1.4315 -0.2901
  926MOL0     H22231   3.823   3.690   2.837  0.5156  1.0500  0.8504
  926MOL0     H22232   3.947   3.489   2.941 -3.0544 -3.6054  1.1070
  927MOL0     O22233  10.242   3.604   8.673  0.1828 -1.0165  0.1277
  927MOL0     C22234  10.144   3.551   8.630 -0.1325  0.2809 -0.3677
  927MOL0     O22235  10.017   3.565   8.681 -0.0322  0.2138 -0.2734
  927MOL0     C22236   9.999   3.614   8.804  0.1415 -0.5018  0.0005
  927MOL0     C22237  10.055   3.729   8.853 -1.0296  0.6306 -0.0708
  927MOL0     C22238  10.038   3.764   8.990  0.5485 -1.0343  0.3960
  927MOL0     C22239   9.967   3.695   9.075  0.1590  0.2664 -0.3154
  927MOL0     O22240   9.980   3.729   9.205  0.5545 -1.2676 -0.1619
  927MOL0     C22241   9.868   3.714   9.293 -0.4438  0.5074  0.0245
  927MOL0     C22242   9.913   3.736   9.436  0.3139  0.0316 -0.1834
  927MOL0     C22243   9.962   3.886   9.450 -0.4958  1.1373 -0.8188
  927MOL0     C22244  10.004   3.936   9.589  0.1273  0.7657  0.0302
  927MOL0     C22245  10.042   4.078   9.595  0.3983  0.4264 -0.3746
  927MOL0     C22246  10.112   4.114   9.726 -0.4979 -0.4562  0.3193
  927MOL0     C22247  10.143   4.264   9.743  0.1343 -0.8910 -0.3483
  927MOL0     C22248  10.014   4.324   9.820  1.0347  0.2900  0.0549
  927MOL0     N22249  10.014   4.469   9.850  0.4134 -0.1564 -0.6549
  927MOL0     C22250  10.003   4.571   9.765  0.4591 -0.5718 -0.0020
  927MOL0     C22251   9.994   4.682   9.838  0.1778 -0.3769  0.1076
  927MOL0     C22252   9.969   4.829   9.809 -0.4463 -0.2191 -0.0952
  927MOL0     C22253  10.069   4.902   9.729 -0.4752 -0.1310  0.2323
  927MOL0     C22254  10.206   4.891   9.788 -0.1055 -0.8784  0.3575
  927MOL0     C22255  10.311   4.976   9.715  0.6101 -0.3220  0.8055
  927MOL0     O22256  10.446   4.933   9.745  0.4557 -0.9515  0.4031
  927MOL0     C22257  10.488   4.964   9.868 -0.3221 -0.1059  0.6399
  927MOL0     C22258  10.501   4.876   9.975  0.2774  0.4094  0.7970
  927MOL0     C22259  10.542   4.925  10.099  0.8787  0.6400  0.3991
  927MOL0     C22260  10.560   5.059  10.124 -0.0949  0.7311 -0.0089
  927MOL0     C22261  10.604   5.111  10.259 -0.7770 -0.4434 -0.7069
  927MOL0     O22262  10.621   5.029  10.363 -0.7170  0.3264  0.2054
  927MOL0     C22263  10.702   5.068  10.472  1.3621  0.6090  0.0092
  927MOL0     C22264  10.676   5.186  10.549 -0.1092 -0.1466  0.2028
  927MOL0     C22265  10.764   5.218  10.653  0.2023 -0.3428  0.4041
  927MOL0     C22266  10.870   5.145  10.685 -0.8608 -0.8623  0.5399
  927MOL0     O22267  10.953   5.205  10.779  0.1735 -0.0807  0.2059
  927MOL0     C22268  11.082   5.152  10.808 -0.4492 -0.6224  0.0173
  927MOL0     C22269  11.183   5.189  10.703 -0.1388 -0.2006 -0.5455
  927MOL0     C22270  11.315   5.121  10.753 -0.5620  0.6687 -0.8826
  927MOL0     C22271  11.416   5.130  10.648 -0.8744  0.2945  2.1392
  927MOL0     C22272  11.552   5.057  10.695  0.4988 -0.2945 -0.1666
  927MOL0     C22273  11.646   5.165  10.746  1.1149  0.2640  0.0153
  927MOL0     C22274  11.787   5.112  10.766  0.7186 -0.8373 -0.7218
  927MOL0     C22275  11.888   5.213  10.818 -0.6073 -1.6071 -0.7987
  927MOL0    Cl22276  12.049   5.136  10.849  0.0467  0.1882 -0.6136
  927MOL0     C22277  10.893   5.028  10.614 -0.3564  0.4319  0.4620
  927MOL0     C22278  10.821   4.994  10.497 -0.4119  1.4232 -0.8189
  927MOL0     O22279  10.621   5.235  10.272 -0.6130 -0.1158 -0.5059
  927MOL0     C22280  10.557   5.148  10.017 -1.8472  0.3331 -0.2885
  927MOL0     C22281  10.523   5.100   9.892  0.8738  0.0655 -0.4531
  927MOL0     N22282  10.006   4.646   9.969  0.0475 -0.0304 -0.3741
  927MOL0     N22283  10.009   4.521   9.981 -0.8238  0.0016  1.1462
  927MOL0     C22284   9.901   3.581   9.026 -0.1252  0.1274 -0.5671
  927MOL0     C22285   9.914   3.542   8.892  0.6341 -0.8651 -0.7118
  927MOL0     C22286  10.165   3.440   8.547  0.2510 -1.0892  0.5395
  927MOL0     C22287  10.061   3.354   8.500 -0.8134 -0.3838 -0.4116
  927MOL0     C22288  10.070   3.258   8.403  0.2772 -1.2989  0.1221
  927MOL0     C22289  10.196   3.232   8.351 -0.2477 -0.6426 -0.4786
  927MOL0     O22290  10.212   3.137   8.260  0.4246  0.2332  0.2774
  927MOL0     C22291  10.292   3.175   8.147  0.2158  0.7401  0.3536
  927MOL0     C22292  10.258   3.067   8.043 -0.4285  0.5602  0.4160
  927MOL0     C22293  10.351   3.078   7.924 -0.2698 -0.2771 -0.3988
  927MOL0     C22294  10.294   3.191   7.829  0.2360 -0.2036 -0.2256
  927MOL0     C22295  10.184   3.137   7.754 -0.1502  0.3648  0.5711
  927MOL0     C22296  10.094   3.107   7.679 -0.2034 -0.1587  0.6100
  927MOL0     C22297  10.308   3.304   8.401 -0.7277 -0.8196  0.5807
  927MOL0     C22298  10.285   3.410   8.488 -0.6965  0.0918  0.1787
  927MOL0     H22299  10.101   3.794   8.779 -1.0626  1.4548  0.6131
  927MOL0     H22300  10.075   3.859   9.026  0.5281 -0.7252 -0.3744
  927MOL0     H22301   9.828   3.613   9.280  2.7942 -0.6530 -2.5099
  927MOL0     H22302   9.799   3.794   9.264 -0.9485  0.0014 -0.1950
  927MOL0     H22303   9.985   3.669   9.484 -2.3454 -0.6584  3.3187
  927MOL0     H22304   9.822   3.721   9.495  0.6719  0.3372  0.4548
  927MOL0     H22305   9.900   3.961   9.399 -1.2189  0.6804 -0.6185
  927MOL0     H22306  10.053   3.879   9.389  0.1595 -1.2838  0.3295
  927MOL0     H22307   9.934   3.913   9.670  1.9891  0.3416  1.5835
  927MOL0     H22308  10.096   3.883   9.614 -1.8377 -2.2107  1.4811
  927MOL0     H22309   9.947   4.131   9.582 -1.4104 -2.1098  1.4803
  927MOL0     H22310  10.109   4.089   9.509 -1.3730 -0.0979 -1.8893
  927MOL0     H22311  10.214   4.075   9.739  0.9797  2.4752 -1.3342
  927MOL0     H22312  10.040   4.087   9.803 -1.7953  2.9308  0.4553
  927MOL0     H22313  10.237   4.283   9.796 -0.6137 -2.4468  1.6564
  927MOL0     H22314  10.154   4.308   9.644 -0.0563  0.8967  0.3913
  927MOL0     H22315  10.009   4.268   9.914  1.1335  1.2836  0.6705
  927MOL0     H22316   9.931   4.300   9.753  2.5938  1.8563 -2.5854
  927MOL0     H22317   9.985   4.564   9.658  1.3668  1.3537 -0.3212
  927MOL0     H22318   9.954   4.885   9.902  3.5230 -0.2341  0.7279
  927MOL0     H22319   9.872   4.834   9.759 -2.3772  4.0373  3.3916
  927MOL0     H22320  10.051   5.010   9.719  2.2614  0.4743  1.1035
  927MOL0     H22321  10.067   4.865   9.627  4.8365  1.1542 -0.6058
  927MOL0     H22322  10.202   4.942   9.885  1.8841  0.9080 -0.4178
  927MOL0     H22323  10.237   4.786   9.798  0.2063 -0.7453  0.8486
  927MOL0     H22324  10.289   5.079   9.745 -1.2021 -0.0419 -1.1953
  927MOL0     H22325  10.291   4.968   9.608  3.0002  2.5906 -0.0199
  927MOL0     H22326  10.499   4.767   9.970 -1.3509  0.4802 -0.9078
  927MOL0     H22327  10.559   4.855  10.181 -0.8371 -1.3084 -0.8247
  927MOL0     H22328  10.599   5.252  10.510 -0.5534  1.8716  3.9923
  927MOL0     H22329  10.750   5.312  10.707  0.2772  0.2561 -0.5921
  927MOL0     H22330  11.070   5.043  10.815 -0.4900 -0.7658 -1.8862
  927MOL0     H22331  11.111   5.195  10.905 -0.6564  4.3083 -1.8152
  927MOL0     H22332  11.201   5.297  10.704 -0.6517 -0.0696  1.8489
  927MOL0     H22333  11.153   5.165  10.601 -0.3909  2.7354 -1.2511
  927MOL0     H22334  11.298   5.015  10.776 -0.8570  0.7397 -0.7652
  927MOL0     H22335  11.358   5.170  10.841  0.8825 -1.6831 -0.1966
  927MOL0     H22336  11.378   5.076  10.561  1.2384  2.8493 -0.5688
  927MOL0     H22337  11.437   5.231  10.610 -0.9829 -0.7894 -1.1589
  927MOL0     H22338  11.591   5.013  10.603 -3.2283 -1.5006 -1.3615
  927MOL0     H22339  11.533   4.974  10.764 -0.2462  1.0089  1.2554
  927MOL0     H22340  11.616   5.204  10.844 -2.1156 -0.6601 -0.5140
  927MOL0     H22341  11.631   5.245  10.673 -2.7511  0.3765  0.7356
  927MOL0     H22342  11.792   5.029  10.836 -0.0140  0.5925  1.0978
  927MOL0     H22343  11.820   5.085  10.665  0.7704 -2.0119 -0.4034
  927MOL0     H22344  11.851   5.239  10.917 -2.2982 -2.6897 -1.1119
  927MOL0     H22345  11.897   5.303  10.755 -0.0572 -1.3233 -0.3259
  927MOL0     H22346  10.974   4.964  10.649 -0.7502  0.8363  2.2168
  927MOL0     H22347  10.820   4.903  10.437 -1.0279 -0.9393  2.4951
  927MOL0     H22348  10.584   5.252  10.031  3.1323 -0.8904  1.1841
  927MOL0     H22349  10.502   5.180   9.820  1.9166 -1.3195 -2.3814
  927MOL0     H22350   9.839   3.527   9.097 -0.4498  0.7638 -0.3607
  927MOL0     H22351   9.870   3.448   8.861 -0.1805  0.2206 -3.0772
  927MOL0     H22352   9.961   3.371   8.538 -0.7888  2.2334 -1.3038
  927MOL0     H22353   9.992   3.186   8.384 -1.2267  0.0024  1.0814
  927MOL0     H22354  10.398   3.168   8.174  0.5582  2.8571 -0.2240
  927MOL0     H22355  10.268   3.271   8.101 -0.4503 -0.2997 -1.5582
  927MOL0     H22356  10.282   2.969   8.084  0.8934  1.6159  2.3069
  927MOL0     H22357  10.152   3.072   8.020  0.0007 -0.7174 -2.2367
  927MOL0     H22358  10.368   2.979   7.882  3.0890  0.0034  0.0578
  927MOL0     H22359  10.450   3.122   7.941 -0.8222  0.6805  0.4650
  927MOL0     H22360  10.259   3.277   7.887 -1.8650 -2.5742  2.3293
  927MOL0     H22361  10.365   3.227   7.754 -1.3693  1.9851 -0.7916
  927MOL0     H22362  10.005   3.095   7.621 -0.0713 -2.6043  0.7929
  927MOL0     H22363  10.408   3.293   8.360 -0.0547 -1.6938  2.3477
  927MOL0     H22364  10.377   3.463   8.514  0.3822 -2.0852  1.0285
  928MOL0     O22365   7.588  11.328   4.370 -0.1157 -0.4124 -0.8618
  928MOL0     C22366   7.658  11.402   4.440  0.0097  0.6317  0.8888
  928MOL0     O22367   7.617  11.516   4.495 -0.1530 -0.4798 -0.5375
  928MOL0     C22368   7.485  11.574   4.477 -0.1482  0.4710 -0.4794
  928MOL0     C22369   7.369  11.495   4.512  0.3189  0.3158  0.3228
  928MOL0     C22370   7.241  11.541   4.493  0.3225 -0.0488  0.4990
  928MOL0     C22371   7.226  11.674   4.443 -0.1326  1.2161  0.2069
  928MOL0     O22372   7.112  11.746   4.436  0.3482 -0.2394 -0.1263
  928MOL0     C22373   6.988  11.696   4.482  0.3074  0.6389 -0.5209
  928MOL0     C22374   6.908  11.622   4.367  0.5721  0.1979 -0.3300
  928MOL0     C22375   6.829  11.739   4.299  0.1383 -0.3130  0.2316
  928MOL0     C22376   6.751  11.687   4.181 -0.4227  0.4288  0.1607
  928MOL0     C22377   6.673  11.800   4.103 -0.0403 -0.0558 -0.7335
  928MOL0     C22378   6.582  11.759   3.992 -0.5144  0.7547 -1.2216
  928MOL0     C22379   6.478  11.870   3.967 -0.1907  0.4036 -0.5157
  928MOL0     C22380   6.340  11.821   4.007  1.1978 -0.1995 -0.7686
  928MOL0     N22381   6.320  11.810   4.154 -0.2036  0.0693 -0.1228
  928MOL0     C22382   6.310  11.914   4.236  0.0909  0.3638  0.0362
  928MOL0     C22383   6.302  11.862   4.368  0.4750 -0.2963  0.8690
  928MOL0     C22384   6.262  11.956   4.479  0.5099  0.3382  0.4086
  928MOL0     C22385   6.125  12.038   4.449  0.1058 -0.6884  0.0126
  928MOL0     C22386   6.006  11.949   4.412  0.4760  0.5234 -0.1750
  928MOL0     C22387   5.897  12.041   4.358 -0.1091 -0.0497 -0.3245
  928MOL0     O22388   5.863  12.134   4.465 -0.5617 -0.2023  0.2906
  928MOL0     C22389   5.761  12.222   4.438  0.0082  0.6464 -0.6743
  928MOL0     C22390   5.666  12.242   4.545  0.3807  0.2485  0.1380
  928MOL0     C22391   5.552  12.320   4.527 -0.4119 -0.0579  0.1540
  928MOL0     C22392   5.528  12.384   4.402  0.5100 -0.2066 -0.3252
  928MOL0     C22393   5.407  12.464   4.387 -0.1431  0.4860 -0.3373
  928MOL0     O22394   5.325  12.491   4.499 -0.2199 -0.2162 -0.7256
  928MOL0     C22395   5.210  12.558   4.483  0.3814 -1.1205  0.2129
  928MOL0     C22396   5.081  12.511   4.484 -0.0714 -0.1295 -0.6910
  928MOL0     C22397   4.975  12.594   4.462 -0.2359  0.0240  0.4242
  928MOL0     C22398   4.987  12.733   4.456  1.1864 -0.3926  0.1974
  928MOL0     O22399   4.871  12.801   4.420  0.1115 -0.6013  0.9159
  928MOL0     C22400   4.864  12.944   4.415  0.9476  0.4310 -0.0058
  928MOL0     C22401   4.716  12.985   4.444 -0.3108  1.0806 -0.0185
  928MOL0     C22402   4.684  12.946   4.597 -0.5647 -0.9080  0.4424
  928MOL0     C22403   4.529  12.967   4.629 -0.0631 -0.1705  0.6379
  928MOL0     C22404   4.486  12.953   4.778  0.0671  0.0676 -0.2485
  928MOL0     C22405   4.333  12.965   4.807  0.5622 -0.9864 -0.0520
  928MOL0     C22406   4.274  12.942   4.944  0.1776  0.4133 -0.3136
  928MOL0     C22407   4.350  13.009   5.055  0.0996  0.4123  1.8203
  928MOL0    Cl22408   4.228  13.008   5.181  0.0532 -0.1417  0.4879
  928MOL0     C22409   5.120  12.796   4.457  0.0551 -0.5323 -1.3624
  928MOL0     C22410   5.227  12.702   4.478 -0.2094 -0.2078 -0.3690
  928MOL0     O22411   5.397  12.512   4.276 -0.5182  0.1201  0.0076
  928MOL0     C22412   5.622  12.362   4.303 -0.9449 -1.0934 -0.5131
  928MOL0     C22413   5.731  12.278   4.317  0.1000  0.0146  0.7355
  928MOL0     N22414   6.282  11.726   4.353 -0.1111 -0.4515  0.5434
  928MOL0     N22415   6.292  11.695   4.223 -0.1617  0.0311 -0.6342
  928MOL0     C22416   7.335  11.752   4.418  0.0728  0.1858  0.5617
  928MOL0     C22417   7.468  11.701   4.426  0.3632 -0.3742 -0.0738
  928MOL0     C22418   7.802  11.353   4.442  0.1513 -0.0947 -0.5490
  928MOL0     C22419   7.896  11.436   4.499 -0.1392  0.2707 -0.3025
  928MOL0     C22420   8.028  11.398   4.517  0.1738 -0.5996  0.7428
  928MOL0     C22421   8.076  11.280   4.459 -0.3876  1.0777 -0.8625
  928MOL0     O22422   8.205  11.236   4.462 -0.1515  0.1058  0.1047
  928MOL0     C22423   8.301  11.290   4.557 -0.4186  0.9683 -0.2718
  928MOL0     C22424   8.398  11.177   4.596  0.4181  0.0737 -0.3250
  928MOL0     C22425   8.506  11.162   4.481 -0.0733  0.1123 -0.5648
  928MOL0     C22426   8.648  11.156   4.529  0.5142  0.3426  1.1076
  928MOL0     C22427   8.745  11.126   4.422 -0.0128 -0.3244 -0.2328
  928MOL0     C22428   8.828  11.091   4.347 -0.7500  1.3065 -0.0160
  928MOL0     C22429   7.981  11.212   4.380 -0.5255  0.3500  0.5244
  928MOL0     C22430   7.845  11.250   4.373 -0.1487  0.4681 -0.3408
  928MOL0     H22431   7.379  11.392   4.545  3.0298  1.1575  2.5109
  928MOL0     H22432   7.161  11.472   4.515  0.3096  0.2926  1.5592
  928MOL0     H22433   6.928  11.776   4.527 -0.7484  0.9492 -2.3809
  928MOL0     H22434   7.006  11.633   4.569  0.4465  2.3970  0.7738
  928MOL0     H22435   6.836  11.553   4.411 -2.9512  2.9529 -1.3491
  928MOL0     H22436   6.970  11.563   4.298 -0.1503 -2.5337  1.1941
  928MOL0     H22437   6.900  11.814   4.264  0.1700 -1.0075 -1.2750
  928MOL0     H22438   6.755  11.791   4.360  0.1099  2.9322 -2.2873
  928MOL0     H22439   6.812  11.626   4.113  1.0805  3.7735 -1.7013
  928MOL0     H22440   6.670  11.622   4.217 -0.1424  0.2252  0.4339
  928MOL0     H22441   6.746  11.872   4.065  0.4923  0.2451  0.7763
  928MOL0     H22442   6.624  11.863   4.178  3.3505  1.1972  0.6445
  928MOL0     H22443   6.541  11.663   4.026  0.5030  1.6578  3.1344
  928MOL0     H22444   6.650  11.743   3.908  0.3684 -0.2905 -0.3295
  928MOL0     H22445   6.490  11.966   4.018 -3.4734  1.9904 -2.4062
  928MOL0     H22446   6.477  11.895   3.860  0.0829  3.2956  0.0672
  928MOL0     H22447   6.325  11.722   3.963 -0.5229 -1.2241  1.8554
  928MOL0     H22448   6.260  11.877   3.958  1.3895 -0.9211 -1.9545
  928MOL0     H22449   6.297  12.017   4.203 -1.2545  0.7115  1.5270
  928MOL0     H22450   6.342  12.028   4.499  1.1768  0.2245 -1.6152
  928MOL0     H22451   6.253  11.900   4.573 -1.2214  1.6834  1.1106
  928MOL0     H22452   6.145  12.108   4.367  0.3976  1.2132  1.6332
  928MOL0     H22453   6.106  12.100   4.536 -1.9101  0.7756 -1.4056
  928MOL0     H22454   6.032  11.879   4.332  0.5719  1.2264 -0.7737
  928MOL0     H22455   5.969  11.891   4.496 -1.3556 -0.1988 -1.4255
  928MOL0     H22456   5.801  11.996   4.333 -1.9946  2.1330  2.4421
  928MOL0     H22457   5.925  12.088   4.263 -1.5021 -0.1058 -0.7797
  928MOL0     H22458   5.685  12.194   4.640  1.9898 -1.2108 -0.8630
  928MOL0     H22459   5.490  12.335   4.615  1.4486 -2.3278  1.9744
  928MOL0     H22460   5.069  12.403   4.479 -0.7660 -0.2929  2.4209
  928MOL0     H22461   4.882  12.544   4.437  0.7937 -2.3333  1.0710
  928MOL0     H22462   4.894  12.993   4.321  1.8814  3.1786  1.6208
  928MOL0     H22463   4.921  12.973   4.504 -1.7452 -0.8867  2.2958
  928MOL0     H22464   4.650  12.920   4.387  2.9283 -0.0418 -2.8592
  928MOL0     H22465   4.692  13.088   4.414 -1.7978  0.6986 -0.1917
  928MOL0     H22466   4.746  13.017   4.653 -0.1890 -0.8891  0.0101
  928MOL0     H22467   4.720  12.843   4.605 -0.1355 -0.7274  0.8536
  928MOL0     H22468   4.503  13.066   4.589  0.3372  0.0913  1.0228
  928MOL0     H22469   4.465  12.897   4.575  0.1756  1.6341 -2.1924
  928MOL0     H22470   4.541  13.028   4.836  0.7405 -0.9574  0.4601
  928MOL0     H22471   4.522  12.854   4.807 -1.1896 -0.5263 -0.6584
  928MOL0     H22472   4.285  12.892   4.742 -1.7022 -0.8578  1.3834
  928MOL0     H22473   4.318  13.066   4.768  2.8923  0.1143  1.6514
  928MOL0     H22474   4.171  12.979   4.947  0.2644  0.9134 -2.1577
  928MOL0     H22475   4.268  12.834   4.965  1.7146  0.3653 -0.0340
  928MOL0     H22476   4.377  13.109   5.019 -0.8846 -0.2578 -1.0370
  928MOL0     H22477   4.437  12.951   5.087  1.3702  2.8415  3.0750
  928MOL0     H22478   5.132  12.903   4.447  4.5561 -0.8367 -1.4921
  928MOL0     H22479   5.317  12.753   4.508 -0.1984 -0.6543  0.3807
  928MOL0     H22480   5.604  12.415   4.210  1.6556  1.3739  0.2215
  928MOL0     H22481   5.800  12.261   4.235 -0.1613 -1.6457  0.8292
  928MOL0     H22482   7.317  11.852   4.378  1.0386  0.4074  0.6503
  928MOL0     H22483   7.563  11.750   4.404  0.4656 -0.3475  0.4102
  928MOL0     H22484   7.865  11.532   4.537 -1.6653 -1.3464  2.9806
  928MOL0     H22485   8.096  11.466   4.567  1.4077 -1.8544  0.8417
  928MOL0     H22486   8.247  11.327   4.645 -1.1706 -1.6861  0.4701
  928MOL0     H22487   8.365  11.366   4.512  0.0758 -0.0097 -1.2679
  928MOL0     H22488   8.450  11.202   4.689 -1.4709 -0.7306  1.0033
  928MOL0     H22489   8.357  11.082   4.631  2.0739 -0.2036  1.0146
  928MOL0     H22490   8.500  11.251   4.416 -0.5330  0.0449 -0.6189
  928MOL0     H22491   8.475  11.069   4.434 -2.2885  1.5116 -2.0911
  928MOL0     H22492   8.672  11.252   4.575 -0.3301 -0.0852  2.5211
  928MOL0     H22493   8.656  11.082   4.610  2.4766 -1.3112 -0.4680
  928MOL0     H22494   8.907  11.063   4.281  0.3751  0.4833  1.6007
  928MOL0     H22495   8.018  11.141   4.306  3.4952  2.2768  0.4390
  928MOL0     H22496   7.783  11.190   4.306  0.2645  1.4829 -1.6722
  929MOL0     O22497   1.887   0.533   1.363 -0.1161 -1.3665  0.2236
  929MOL0     C22498   1.904   0.412   1.356  0.7949 -0.6433 -0.0239
  929MOL0     O22499   1.812   0.319   1.298  0.3524 -0.0045 -0.6111
  929MOL0     C22500   1.685   0.349   1.246  0.4073  0.3535 -1.0516
  929MOL0     C22501   1.621   0.241   1.175  0.0842  0.1847  0.3457
  929MOL0     C22502   1.487   0.238   1.140  0.5355  1.0328  0.4066
  929MOL0     C22503   1.413   0.356   1.170 -0.6198  1.0417  0.1993
  929MOL0     O22504   1.280   0.351   1.140  1.1863  0.8526 -0.0720
  929MOL0     C22505   1.217   0.476   1.103  0.0429  0.5387  0.1771
  929MOL0     C22506   1.104   0.445   1.005 -0.0365 -0.4597  0.0112
  929MOL0     C22507   1.063   0.585   0.941  0.3681  0.0473 -0.3208
  929MOL0     C22508   0.973   0.564   0.820  0.6624 -0.3000 -0.3397
  929MOL0     C22509   0.935   0.694   0.738 -0.2597  0.3629  0.2085
  929MOL0     C22510   1.034   0.736   0.633 -0.1232 -0.1684 -0.1801
  929MOL0     C22511   1.169   0.806   0.683  0.7370  0.1928 -0.7022
  929MOL0     C22512   1.245   0.853   0.565  0.1979 -0.8920 -0.5306
  929MOL0     N22513   1.164   0.963   0.492  0.5866  0.4533 -0.6172
  929MOL0     C22514   1.137   1.082   0.562  0.3800  0.6438 -0.3376
  929MOL0     C22515   1.082   1.153   0.469  0.5546  0.6427  0.2112
  929MOL0     C22516   1.020   1.301   0.480  0.2193  1.0371  0.0896
  929MOL0     C22517   1.037   1.380   0.609  0.4529  0.9782 -0.8536
  929MOL0     C22518   0.934   1.490   0.653  0.2243  0.1736 -0.2200
  929MOL0     C22519   1.002   1.592   0.750 -0.9826 -0.1255  0.5388
  929MOL0     O22520   1.043   1.530   0.881  0.4381  0.5824  0.2377
  929MOL0     C22521   0.940   1.493   0.960 -0.3258  0.5079 -0.4000
  929MOL0     C22522   0.886   1.591   1.041  0.2204  0.5670 -0.1032
  929MOL0     C22523   0.768   1.571   1.114  0.1821 -0.1570  0.6207
  929MOL0     C22524   0.704   1.444   1.105  0.3255  0.4319 -0.5773
  929MOL0     C22525   0.573   1.419   1.173  0.0188 -0.5137  0.1656
  929MOL0     O22526   0.500   1.530   1.202 -0.1594  0.0807  0.4624
  929MOL0     C22527   0.376   1.500   1.253  0.3619  0.5350  0.0598
  929MOL0     C22528   0.260   1.494   1.169  0.2000  0.3044 -0.0344
  929MOL0     C22529   0.133   1.459   1.220  0.4906 -0.3393 -0.6796
  929MOL0     C22530   0.121   1.430   1.362  0.5490 -0.8332 -0.1074
  929MOL0     O22531  -0.006   1.421   1.400 -0.0837  0.1494 -0.1789
  929MOL0     C22532  -0.028   1.380   1.537 -0.1300  1.2774 -0.0230
  929MOL0     C22533  -0.170   1.338   1.522 -0.5275  0.8582  0.2682
  929MOL0     C22534  -0.199   1.209   1.431  0.1939 -0.4830 -0.7956
  929MOL0     C22535  -0.345   1.171   1.444  0.3574  0.1299  0.6127
  929MOL0     C22536  -0.387   1.082   1.321  0.2768 -0.1463 -0.5844
  929MOL0     C22537  -0.540   1.041   1.327 -0.2989 -0.5624  0.3031
  929MOL0     C22538  -0.578   0.959   1.455 -0.4032 -0.8753 -0.9079
  929MOL0     C22539  -0.702   0.874   1.456 -0.7601 -0.6637  0.0314
  929MOL0    Cl22540  -0.846   0.988   1.474 -0.3047 -0.0560 -0.3960
  929MOL0     C22541   0.241   1.431   1.443  0.2159  0.3524  0.7097
  929MOL0     C22542   0.368   1.459   1.389  0.1390  0.0595 -0.4889
  929MOL0     O22543   0.535   1.305   1.185 -0.1745 -0.0946 -0.0583
  929MOL0     C22544   0.752   1.349   1.021  0.4701 -0.4166  0.5570
  929MOL0     C22545   0.875   1.367   0.951 -0.0293 -0.0299 -0.2232
  929MOL0     N22546   1.085   1.079   0.351 -0.0091 -0.0785  0.0870
  929MOL0     N22547   1.129   0.960   0.364 -0.6012 -0.3077  0.1766
  929MOL0     C22548   1.472   0.464   1.235  0.8426 -0.2369  0.0015
  929MOL0     C22549   1.609   0.462   1.265  1.1364  0.5154 -0.1699
  929MOL0     C22550   2.017   0.353   1.423  0.7067  0.1207 -0.7501
  929MOL0     C22551   2.118   0.432   1.490  0.0321  1.1230  0.2648
  929MOL0     C22552   2.214   0.374   1.570 -0.8756 -0.4016 -0.5871
  929MOL0     C22553   2.249   0.237   1.568 -0.0109  0.5558  0.7517
  929MOL0     O22554   2.340   0.175   1.642 -0.5934  0.0770 -0.4921
  929MOL0     C22555   2.394   0.052   1.580  0.1983  0.3229 -1.3768
  929MOL0     C22556   2.539   0.031   1.640 -0.3203 -0.5442  1.2386
  929MOL0     C22557   2.546   0.032   1.792  0.4535  0.3254 -0.2884
  929MOL0     C22558   2.480  -0.102   1.864  0.2501 -0.1156  0.7102
  929MOL0     C22559   2.532  -0.239   1.834 -0.1268 -0.4131  0.5912
  929MOL0     C22560   2.584  -0.344   1.807  0.2567 -0.3821 -0.3109
  929MOL0     C22561   2.164   0.157   1.485  0.1633 -0.0598  0.5196
  929MOL0     C22562   2.050   0.207   1.418 -0.0716  0.6111 -0.5055
  929MOL0     H22563   1.687   0.154   1.168 -1.2645 -0.7867 -0.8708
  929MOL0     H22564   1.454   0.150   1.086 -1.0225  2.8600 -1.8444
  929MOL0     H22565   1.287   0.544   1.054  0.4847  0.6015  0.8912
  929MOL0     H22566   1.182   0.520   1.197  1.6309 -1.0224  1.5571
  929MOL0     H22567   1.014   0.406   1.053 -0.3208  2.7153  2.3199
  929MOL0     H22568   1.150   0.377   0.932  3.2831  1.2314  0.3491
  929MOL0     H22569   1.139   0.661   0.918  1.5786 -1.1084 -0.3106
  929MOL0     H22570   0.991   0.626   1.011  0.8693 -2.1538  1.6106
  929MOL0     H22571   1.008   0.486   0.752 -1.9337 -3.1500  1.3596
  929MOL0     H22572   0.878   0.522   0.853  1.0258 -0.8514  0.0268
  929MOL0     H22573   0.923   0.785   0.798  1.5394  1.7145 -1.3835
  929MOL0     H22574   0.839   0.676   0.688 -0.5137  1.3868  0.2964
  929MOL0     H22575   0.989   0.812   0.570  1.9749 -0.6931 -2.4315
  929MOL0     H22576   1.072   0.650   0.576  0.3644  0.6109 -1.0556
  929MOL0     H22577   1.144   0.884   0.755 -0.1210  1.7673 -2.5864
  929MOL0     H22578   1.227   0.732   0.738 -2.0975  1.0900  4.0229
  929MOL0     H22579   1.264   0.771   0.494 -0.0177 -1.7332  0.3612
  929MOL0     H22580   1.339   0.898   0.597 -1.6807  2.1376  1.1599
  929MOL0     H22581   1.156   1.118   0.663  2.2258  0.4500 -0.5837
  929MOL0     H22582   0.913   1.287   0.464  0.0250  0.4148  1.7276
  929MOL0     H22583   1.058   1.355   0.394 -2.2038 -2.6306 -3.6798
  929MOL0     H22584   1.141   1.415   0.606  1.5331 -1.7449  0.9723
  929MOL0     H22585   1.048   1.317   0.698  2.2395  2.6125  0.1630
  929MOL0     H22586   0.883   1.536   0.568  2.8149  1.0688 -1.3905
  929MOL0     H22587   0.846   1.453   0.707 -0.9638  0.6726 -1.7327
  929MOL0     H22588   0.948   1.684   0.776  2.8440  2.2121  1.1359
  929MOL0     H22589   1.095   1.618   0.697 -1.7959 -0.6790 -1.2307
  929MOL0     H22590   0.936   1.686   1.054  0.9512  0.1825 -0.0378
  929MOL0     H22591   0.723   1.653   1.170  1.9937  0.1836  1.6683
  929MOL0     H22592   0.266   1.505   1.061  5.2834 -5.1906 -0.8054
  929MOL0     H22593   0.050   1.439   1.154 -1.4654 -1.7435  1.9926
  929MOL0     H22594  -0.020   1.469   1.599 -0.1086  1.0658  0.2781
  929MOL0     H22595   0.035   1.295   1.567 -1.9546 -0.1851 -0.1233
  929MOL0     H22596  -0.226   1.423   1.481 -1.3886 -1.2387 -3.3051
  929MOL0     H22597  -0.220   1.338   1.620 -0.0633  0.3243  0.5049
  929MOL0     H22598  -0.144   1.120   1.464 -0.8407 -0.2024  1.9486
  929MOL0     H22599  -0.172   1.239   1.329 -2.3935  0.5152 -1.2702
  929MOL0     H22600  -0.355   1.132   1.546  2.6279 -1.2841  0.3544
  929MOL0     H22601  -0.397   1.266   1.432  1.2748  0.8591  2.1159
  929MOL0     H22602  -0.330   0.989   1.318  0.5727 -0.0589  1.2569
  929MOL0     H22603  -0.362   1.142   1.233  0.4273  1.6010  0.5956
  929MOL0     H22604  -0.563   0.977   1.241  1.2541 -1.5486  0.5747
  929MOL0     H22605  -0.598   1.133   1.321 -1.2716 -1.2437 -2.4339
  929MOL0     H22606  -0.490   0.899   1.477 -0.7394 -0.0094  3.7529
  929MOL0     H22607  -0.582   1.030   1.538  2.0327 -1.7703  0.0437
  929MOL0     H22608  -0.709   0.791   1.526 -4.7181 -1.8260 -1.4747
  929MOL0     H22609  -0.712   0.834   1.355  3.9713  0.3782 -1.0863
  929MOL0     H22610   0.233   1.419   1.550  3.1488  2.4177  1.3013
  929MOL0     H22611   0.454   1.438   1.452 -0.6390 -2.3643 -0.1015
  929MOL0     H22612   0.700   1.256   1.001 -3.0100  1.6926 -1.1190
  929MOL0     H22613   0.923   1.290   0.892  2.3282 -0.7909  2.4609
  929MOL0     H22614   1.426   0.559   1.260  1.4159  0.1811 -0.5065
  929MOL0     H22615   1.649   0.555   1.305 -0.1969  1.3059 -0.6231
  929MOL0     H22616   2.096   0.538   1.502 -2.3132  1.0640 -2.4474
  929MOL0     H22617   2.287   0.438   1.619  1.4684 -1.3929 -2.5619
  929MOL0     H22618   2.411   0.057   1.472 -0.2053  0.2526 -1.4435
  929MOL0     H22619   2.335  -0.037   1.604  1.4917  0.1670  1.7443
  929MOL0     H22620   2.588  -0.054   1.591  0.4645  1.2962 -1.4101
  929MOL0     H22621   2.591   0.118   1.600 -0.2301 -1.8353 -1.7900
  929MOL0     H22622   2.498   0.122   1.832  1.9660  0.0163  2.3959
  929MOL0     H22623   2.651   0.037   1.821  0.4527  2.5063 -0.4716
  929MOL0     H22624   2.497  -0.093   1.972  0.2382  0.5751  0.6560
  929MOL0     H22625   2.374  -0.094   1.841  0.8334  1.1929 -1.9692
  929MOL0     H22626   2.636  -0.435   1.785  1.1141 -0.0469  0.2732
  929MOL0     H22627   2.173   0.050   1.469 -0.3008  0.1645 -1.5751
  929MOL0     H22628   1.992   0.130   1.367 -0.2326 -0.8319  1.7141
  930MOL0     O22629   9.187   4.414   3.376  0.7608 -0.3116 -0.7937
  930MOL0     C22630   9.144   4.399   3.492 -0.4416  0.9433 -0.5035
  930MOL0     O22631   9.015   4.358   3.531 -0.9564  0.1203 -0.4221
  930MOL0     C22632   8.934   4.291   3.450 -0.0773 -0.5146 -0.3045
  930MOL0     C22633   8.978   4.198   3.345  0.1677 -0.1889 -0.5882
  930MOL0     C22634   8.887   4.115   3.284 -0.0794 -0.2849 -0.4367
  930MOL0     C22635   8.747   4.127   3.300 -0.8932  0.2873  0.0383
  930MOL0     O22636   8.654   4.050   3.231 -0.4081  0.3390  0.6219
  930MOL0     C22637   8.696   3.971   3.124  0.0749  0.3623 -0.1653
  930MOL0     C22638   8.727   3.828   3.185 -0.2010 -0.3556  0.0886
  930MOL0     C22639   8.748   3.709   3.098  0.5239  0.6097 -0.2091
  930MOL0     C22640   8.802   3.593   3.182  0.2959  0.7899 -1.0719
  930MOL0     C22641   8.712   3.466   3.176 -0.5428  0.3841  1.1235
  930MOL0     C22642   8.573   3.493   3.231 -0.6058  0.4642  0.8440
  930MOL0     C22643   8.481   3.361   3.222 -0.0074 -0.3948 -0.5954
  930MOL0     C22644   8.342   3.388   3.270 -0.1467 -0.6962 -0.1336
  930MOL0     N22645   8.252   3.272   3.260  0.2941 -0.4208  0.0005
  930MOL0     C22646   8.203   3.200   3.368  0.1094 -0.5448  0.8322
  930MOL0     C22647   8.125   3.098   3.304  0.0556 -0.1597 -0.6578
  930MOL0     C22648   8.072   2.976   3.372  0.4538  0.8023 -0.1539
  930MOL0     C22649   7.975   3.008   3.488  0.3613 -0.0985  0.0847
  930MOL0     C22650   7.856   3.094   3.447  0.7931 -0.2566  0.8191
  930MOL0     C22651   7.750   2.996   3.402 -0.1302  0.1823  1.2779
  930MOL0     O22652   7.630   3.075   3.357  0.1907 -0.0679 -0.1387
  930MOL0     C22653   7.522   2.998   3.362 -0.1428 -0.9591 -0.1627
  930MOL0     C22654   7.511   2.862   3.359  0.2578 -0.1231 -0.4678
  930MOL0     C22655   7.384   2.805   3.350 -0.2540 -0.1864  0.7401
  930MOL0     C22656   7.270   2.876   3.339 -0.3303  0.1825  0.1323
  930MOL0     C22657   7.143   2.789   3.325 -1.0703 -0.0565 -0.1516
  930MOL0     O22658   7.138   2.669   3.263 -0.3349 -0.0703 -0.4565
  930MOL0     C22659   7.023   2.605   3.254  0.4651  0.3702 -0.2830
  930MOL0     C22660   6.975   2.528   3.357  0.4519  1.1580 -0.4534
  930MOL0     C22661   6.869   2.435   3.344  0.5956 -0.6804  0.0113
  930MOL0     C22662   6.798   2.440   3.222  0.3521  0.4458 -0.1280
  930MOL0     O22663   6.690   2.354   3.217  0.6239  0.4926 -0.3111
  930MOL0     C22664   6.574   2.381   3.138  0.0450  0.2526 -0.7318
  930MOL0     C22665   6.492   2.245   3.151  0.5823 -0.1217  0.0861
  930MOL0     C22666   6.477   2.231   3.303  0.0345  0.0219 -0.0222
  930MOL0     C22667   6.351   2.144   3.339  0.7251  0.7464  0.2372
  930MOL0     C22668   6.306   2.160   3.488 -0.3062 -0.4877 -0.0547
  930MOL0     C22669   6.413   2.133   3.589  0.1813 -1.1659  0.1560
  930MOL0     C22670   6.497   2.009   3.589  0.3253 -0.4723  0.5612
  930MOL0     C22671   6.591   2.005   3.707  0.5476  0.7915 -0.7356
  930MOL0    Cl22672   6.502   2.011   3.851  0.3073 -0.2658 -0.2701
  930MOL0     C22673   6.847   2.519   3.116  0.1438  0.1747 -0.4442
  930MOL0     C22674   6.960   2.595   3.129  0.5982 -0.1873  1.1536
  930MOL0     O22675   7.039   2.847   3.346  0.1661 -1.2419  0.2142
  930MOL0     C22676   7.281   3.017   3.347 -0.5578 -0.6917 -0.1966
  930MOL0     C22677   7.405   3.074   3.357  0.4830 -0.0555  0.4704
  930MOL0     N22678   8.130   3.119   3.172 -0.5576  0.6604  0.2018
  930MOL0     N22679   8.205   3.219   3.145 -0.2008  0.6563  0.1260
  930MOL0     C22680   8.703   4.226   3.392  1.2259 -0.0178  0.0287
  930MOL0     C22681   8.793   4.300   3.463  0.0942  0.5687  0.0451
  930MOL0     C22682   9.240   4.420   3.606  0.3176  1.1316 -0.7526
  930MOL0     C22683   9.380   4.443   3.594 -0.2624 -0.1060  0.0365
  930MOL0     C22684   9.464   4.469   3.701 -0.4599 -0.4980  0.0535
  930MOL0     C22685   9.425   4.469   3.830  0.8747  0.0390 -0.3382
  930MOL0     O22686   9.513   4.512   3.936  0.0333 -0.9565  0.7557
  930MOL0     C22687   9.645   4.449   3.938 -0.6104 -0.3066 -0.2047
  930MOL0     C22688   9.724   4.491   4.065 -0.7555  0.0966  0.0586
  930MOL0     C22689   9.770   4.646   4.072  1.4975  0.6826  0.3139
  930MOL0     C22690   9.803   4.686   4.214 -0.0959  0.5454  0.1530
  930MOL0     C22691   9.670   4.682   4.287 -0.1394  0.2303 -0.1168
  930MOL0     C22692   9.557   4.682   4.347  0.3172 -0.2586 -0.1612
  930MOL0     C22693   9.293   4.428   3.855  0.3959 -1.0835  0.6644
  930MOL0     C22694   9.201   4.407   3.748 -0.1084  0.0067  0.4766
  930MOL0     H22695   9.085   4.195   3.326 -0.0801 -1.4502 -2.0148
  930MOL0     H22696   8.931   4.038   3.221  1.9271 -0.8840  1.5341
  930MOL0     H22697   8.783   4.012   3.072  1.1878  1.7438  2.5562
  930MOL0     H22698   8.615   3.985   3.053  2.4967  0.3329 -3.1286
  930MOL0     H22699   8.638   3.800   3.242  0.4212  1.4447  2.1128
  930MOL0     H22700   8.813   3.836   3.252 -0.2342  0.7544  0.0205
  930MOL0     H22701   8.826   3.732   3.024  0.8858  0.1338  0.0178
  930MOL0     H22702   8.656   3.688   3.043  0.1415 -0.7788  0.8812
  930MOL0     H22703   8.907   3.576   3.157  0.8933  1.7379  0.6214
  930MOL0     H22704   8.810   3.619   3.288 -2.0837 -0.2241 -0.5808
  930MOL0     H22705   8.759   3.390   3.240  1.0466  0.2213 -0.1691
  930MOL0     H22706   8.700   3.433   3.072  0.0277  1.3102  0.7478
  930MOL0     H22707   8.513   3.557   3.166 -0.7252 -0.9253 -0.4790
  930MOL0     H22708   8.584   3.535   3.331 -0.0306  2.0168  0.1567
  930MOL0     H22709   8.487   3.316   3.122 -0.2564 -0.3311 -0.6403
  930MOL0     H22710   8.535   3.290   3.286  1.3124 -0.6801 -1.9659
  930MOL0     H22711   8.299   3.480   3.229  1.8513  1.1686  1.6992
  930MOL0     H22712   8.344   3.408   3.378 -2.0295 -0.1267 -0.1677
  930MOL0     H22713   8.224   3.206   3.474 -0.5536 -2.2661  1.0817
  930MOL0     H22714   8.160   2.925   3.411  0.8855  1.4022 -0.3211
  930MOL0     H22715   8.029   2.915   3.292  1.9254 -0.1692 -0.2272
  930MOL0     H22716   8.028   3.069   3.562 -1.9518  2.6240 -0.3651
  930MOL0     H22717   7.943   2.919   3.543 -0.8376  1.1616  1.5149
  930MOL0     H22718   7.821   3.158   3.528  0.1437  0.3082  0.1165
  930MOL0     H22719   7.893   3.153   3.362  1.4724 -0.6412  0.8453
  930MOL0     H22720   7.719   2.931   3.484 -1.0852 -0.4059  0.4689
  930MOL0     H22721   7.790   2.931   3.324 -2.0862  0.3522  0.0798
  930MOL0     H22722   7.597   2.796   3.362  0.9446  0.7664  0.4583
  930MOL0     H22723   7.385   2.697   3.362  2.6583 -0.1627  1.4942
  930MOL0     H22724   7.035   2.510   3.445 -2.3709 -0.7613  1.2698
  930MOL0     H22725   6.832   2.362   3.416 -1.2651 -0.0811 -0.2926
  930MOL0     H22726   6.598   2.406   3.034 -1.1232 -0.5858 -1.2143
  930MOL0     H22727   6.535   2.464   3.197 -1.1179 -0.8944  0.1637
  930MOL0     H22728   6.529   2.154   3.103  2.4521  1.7532 -2.3163
  930MOL0     H22729   6.396   2.259   3.098  0.6113 -3.6494 -1.1522
  930MOL0     H22730   6.456   2.327   3.352 -2.9050  1.1698 -3.0887
  930MOL0     H22731   6.565   2.176   3.336  0.2395  0.7618  0.6858
  930MOL0     H22732   6.269   2.180   3.276  1.3315  2.0747  0.1938
  930MOL0     H22733   6.359   2.040   3.305 -2.2628  1.2077 -2.2933
  930MOL0     H22734   6.215   2.108   3.520  1.8639 -4.5066  0.2832
  930MOL0     H22735   6.276   2.263   3.511 -0.1680 -0.1809 -1.2119
  930MOL0     H22736   6.350   2.138   3.677  0.2179  0.3659  0.1173
  930MOL0     H22737   6.476   2.221   3.603 -2.5712  0.8778  0.6267
  930MOL0     H22738   6.429   1.925   3.600 -1.3962  0.6272 -1.0593
  930MOL0     H22739   6.544   2.005   3.490 -5.4506  0.6375 -2.6857
  930MOL0     H22740   6.653   2.096   3.706 -0.2199  1.3871  0.7868
  930MOL0     H22741   6.656   1.918   3.708  1.0477  1.1216 -2.3764
  930MOL0     H22742   6.789   2.530   3.024  1.2702  1.6458 -1.0360
  930MOL0     H22743   7.010   2.656   3.053 -0.4955  1.0503  1.3862
  930MOL0     H22744   7.188   3.073   3.337  0.0990  0.4150 -0.2608
  930MOL0     H22745   7.412   3.183   3.364 -3.1470  0.2079  2.8630
  930MOL0     H22746   8.597   4.230   3.415  1.3310 -0.2320  0.5481
  930MOL0     H22747   8.743   4.348   3.547 -0.9702 -4.2931  2.5936
  930MOL0     H22748   9.418   4.457   3.493  1.4608  2.6360  0.9346
  930MOL0     H22749   9.558   4.507   3.661 -0.1920 -0.2358  0.9115
  930MOL0     H22750   9.700   4.461   3.845 -1.4971 -2.3382 -1.0520
  930MOL0     H22751   9.626   4.342   3.949 -2.6737 -0.0986 -1.1881
  930MOL0     H22752   9.681   4.454   4.158 -2.5909  1.6356 -0.1293
  930MOL0     H22753   9.821   4.441   4.056 -0.1314  1.1627  0.7826
  930MOL0     H22754   9.686   4.707   4.038  0.1975 -0.2330  1.7110
  930MOL0     H22755   9.861   4.656   4.011  1.3850 -1.2567 -0.2520
  930MOL0     H22756   9.881   4.622   4.256 -0.6889 -0.2555  0.0622
  930MOL0     H22757   9.837   4.788   4.234 -0.3350  0.9207 -1.2929
  930MOL0     H22758   9.471   4.685   4.410 -0.6876 -0.0619 -1.4947
  930MOL0     H22759   9.266   4.416   3.959  1.2654  2.3161  1.3755
  930MOL0     H22760   9.096   4.384   3.768  0.6913 -2.6929  2.1299
  931MOL0     O22761   4.643   9.673   6.651 -0.2298 -0.1291 -0.3646
  931MOL0     C22762   4.560   9.592   6.603 -0.0214 -0.9596  0.9035
  931MOL0     O22763   4.460   9.533   6.676  0.6251  0.7362 -0.1812
  931MOL0     C22764   4.382   9.615   6.751 -0.1263  0.1681  0.5899
  931MOL0     C22765   4.383   9.753   6.774  0.3680  1.0142 -0.5611
  931MOL0     C22766   4.276   9.808   6.855  0.6065 -0.4185 -0.1060
  931MOL0     C22767   4.175   9.727   6.908 -0.1796  0.4492  0.8779
  931MOL0     O22768   4.083   9.789   6.987 -0.2276 -0.6225 -0.3387
  931MOL0     C22769   4.073   9.727   7.121  0.4174  0.5083 -0.1194
  931MOL0     C22770   3.975   9.618   7.119  0.8504  0.0594  0.1465
  931MOL0     C22771   3.889   9.596   7.249 -0.5337 -0.4655 -0.6719
  931MOL0     C22772   3.977   9.557   7.369  0.2887  0.5986  0.2138
  931MOL0     C22773   3.872   9.548   7.482  0.9510  0.5087 -0.1948
  931MOL0     C22774   3.953   9.576   7.614  0.0505  0.4364 -0.3151
  931MOL0     C22775   3.867   9.535   7.739 -1.5719 -0.7085 -0.0519
  931MOL0     C22776   3.942   9.562   7.870  0.4906 -0.0410  0.2561
  931MOL0     N22777   3.893   9.455   7.968 -0.3009  0.5492  0.3143
  931MOL0     C22778   3.765   9.448   8.026 -0.5148 -0.3620 -0.6079
  931MOL0     C22779   3.756   9.336   8.088 -0.6636  0.3165  0.3765
  931MOL0     C22780   3.633   9.268   8.162 -0.8288  0.1848 -0.2199
  931MOL0     C22781   3.630   9.274   8.323 -0.8542  0.1691 -0.9439
  931MOL0     C22782   3.762   9.219   8.397 -0.0642  0.3301 -0.2666
  931MOL0     C22783   3.789   9.068   8.368  0.0003 -0.4790 -0.4533
  931MOL0     O22784   3.691   8.975   8.406 -0.1804 -0.7457 -0.1672
  931MOL0     C22785   3.674   8.945   8.545  0.2281 -0.8656  0.3729
  931MOL0     C22786   3.539   8.956   8.593 -0.1178 -0.3769 -0.3875
  931MOL0     C22787   3.520   8.958   8.731 -0.1683  0.3843 -0.0323
  931MOL0     C22788   3.630   8.952   8.825 -0.5275 -0.3497  0.4948
  931MOL0     C22789   3.589   8.944   8.967  0.4563 -0.0441  0.1300
  931MOL0     O22790   3.479   9.011   9.002 -0.8945  0.7885 -0.2826
  931MOL0     C22791   3.442   9.019   9.141 -0.4124 -0.5973  0.0617
  931MOL0     C22792   3.418   8.918   9.219  0.2481  0.6238  0.6779
  931MOL0     C22793   3.407   8.929   9.354  0.1678  0.2065 -0.2260
  931MOL0     C22794   3.410   9.054   9.420  0.1768 -0.0395  0.3744
  931MOL0     O22795   3.404   9.058   9.555  0.0069 -0.0649  0.0320
  931MOL0     C22796   3.519   8.999   9.623  0.8048 -0.2050 -0.1784
  931MOL0     C22797   3.602   9.098   9.708  1.2505 -0.6406  0.8008
  931MOL0     C22798   3.550   9.175   9.822 -0.3072  0.3547 -0.2440
  931MOL0     C22799   3.442   9.289   9.798 -0.0049 -0.5283  0.0739
  931MOL0     C22800   3.489   9.411   9.722 -0.3881 -0.9038 -0.0919
  931MOL0     C22801   3.381   9.497   9.657 -0.2278  0.7099  0.3281
  931MOL0     C22802   3.449   9.619   9.583 -0.2058  0.8037  0.4039
  931MOL0     C22803   3.366   9.745   9.569 -0.8746  0.1152  0.6034
  931MOL0    Cl22804   3.224   9.709   9.467 -0.2941  0.1652  0.3482
  931MOL0     C22805   3.428   9.163   9.340  0.8419 -0.8360 -0.1485
  931MOL0     C22806   3.451   9.148   9.201  0.8133  0.4946  0.5933
  931MOL0     O22807   3.653   8.884   9.049 -0.6822  0.6360 -0.0812
  931MOL0     C22808   3.759   8.933   8.774  0.1584 -0.2896 -0.0759
  931MOL0     C22809   3.784   8.936   8.635 -0.7280 -0.0268 -0.6037
  931MOL0     N22810   3.881   9.275   8.070  0.4736  0.0770 -0.3804
  931MOL0     N22811   3.960   9.343   8.005 -0.2855 -0.4549  0.5263
  931MOL0     C22812   4.178   9.592   6.873  0.0621 -0.0584 -1.2994
  931MOL0     C22813   4.279   9.541   6.797 -0.5282 -0.0790  0.3536
  931MOL0     C22814   4.584   9.548   6.462 -0.0933  0.3265  0.4423
  931MOL0     C22815   4.715   9.561   6.407  0.3549 -0.4491 -0.1812
  931MOL0     C22816   4.746   9.530   6.270 -0.4115  0.4252  0.3174
  931MOL0     C22817   4.649   9.465   6.194  1.2395  0.1922  0.7684
  931MOL0     O22818   4.683   9.428   6.074  0.3363 -0.0398 -0.4581
  931MOL0     C22819   4.630   9.502   5.962 -0.0473  0.0130 -0.0061
  931MOL0     C22820   4.751   9.557   5.884 -0.2189  0.3401  0.0874
  931MOL0     C22821   4.859   9.457   5.833  1.4780 -0.0992  0.6493
  931MOL0     C22822   4.971   9.523   5.764  0.7495 -0.4278  0.4753
  931MOL0     C22823   5.064   9.579   5.861 -0.1179 -0.0925 -0.2092
  931MOL0     C22824   5.146   9.630   5.937  0.6299 -0.5691 -0.1463
  931MOL0     C22825   4.514   9.451   6.241 -0.4413 -0.1837 -0.2287
  931MOL0     C22826   4.483   9.496   6.373 -0.3391  0.9464 -0.6497
  931MOL0     H22827   4.462   9.809   6.725 -0.1977 -1.3985 -4.7343
  931MOL0     H22828   4.268   9.916   6.868 -0.8597 -0.0265 -3.3904
  931MOL0     H22829   4.033   9.803   7.189 -3.9816 -2.7450  1.3838
  931MOL0     H22830   4.169   9.695   7.162  1.2237  1.9949 -0.7750
  931MOL0     H22831   4.026   9.524   7.097  3.0120  1.3279 -0.5756
  931MOL0     H22832   3.907   9.637   7.035  1.3338  0.0965 -0.2445
  931MOL0     H22833   3.805   9.527   7.233 -1.3032 -0.2264  1.9227
  931MOL0     H22834   3.836   9.690   7.270 -1.5157 -1.8282  4.0056
  931MOL0     H22835   4.035   9.466   7.356  0.8751  0.8983  0.6841
  931MOL0     H22836   4.046   9.635   7.401  2.8609  0.1829 -3.6699
  931MOL0     H22837   3.822   9.451   7.487 -1.2316  1.5958  0.2206
  931MOL0     H22838   3.795   9.626   7.483  0.2727 -0.1133  2.2507
  931MOL0     H22839   3.978   9.682   7.607 -1.4911  0.7353 -1.9865
  931MOL0     H22840   4.051   9.528   7.608  0.4999  1.4755 -2.3023
  931MOL0     H22841   3.777   9.597   7.733  0.8909  3.2602 -0.3487
  931MOL0     H22842   3.838   9.430   7.733  1.5885 -1.6881 -0.1751
  931MOL0     H22843   3.919   9.660   7.913  3.4072  0.7947  0.0676
  931MOL0     H22844   4.049   9.551   7.855  0.0882 -0.8482 -2.6029
  931MOL0     H22845   3.682   9.518   8.031 -1.6690 -1.6553 -0.9705
  931MOL0     H22846   3.636   9.164   8.127 -1.4854  0.2647 -0.5291
  931MOL0     H22847   3.539   9.305   8.121  0.6296  1.3564 -2.7524
  931MOL0     H22848   3.552   9.223   8.380 -0.6936  1.9069  0.9534
  931MOL0     H22849   3.619   9.376   8.361 -0.4627  0.2015 -0.9042
  931MOL0     H22850   3.843   9.280   8.356 -0.8768  1.0999 -0.7591
  931MOL0     H22851   3.750   9.220   8.506 -1.1284 -5.6919  0.0260
  931MOL0     H22852   3.890   9.051   8.407  0.4843 -0.4179 -1.6303
  931MOL0     H22853   3.802   9.048   8.262  0.7256  1.9248 -0.8754
  931MOL0     H22854   3.457   8.967   8.523 -0.3466  3.0080  0.2152
  931MOL0     H22855   3.417   8.941   8.760  0.1391  0.5252  1.1601
  931MOL0     H22856   3.406   8.823   9.168  0.3322  0.2445  1.3651
  931MOL0     H22857   3.396   8.845   9.421 -0.2095  2.3626  2.6357
  931MOL0     H22858   3.582   8.947   9.551  0.8742  0.1207 -0.3540
  931MOL0     H22859   3.482   8.933   9.702  0.6082 -0.0940 -0.1779
  931MOL0     H22860   3.638   9.172   9.637 -2.8010  0.3230 -0.5113
  931MOL0     H22861   3.691   9.038   9.731  2.9212  0.7185 -1.6927
  931MOL0     H22862   3.640   9.215   9.870  0.0856 -2.3097  1.4185
  931MOL0     H22863   3.502   9.108   9.894 -1.6024  1.2533 -0.2212
  931MOL0     H22864   3.353   9.250   9.748 -1.1411  0.4593  1.2566
  931MOL0     H22865   3.407   9.323   9.896  0.1935  0.8365 -0.3179
  931MOL0     H22866   3.557   9.381   9.642  0.5580  1.5032 -0.2984
  931MOL0     H22867   3.555   9.475   9.782  1.0939  0.0829 -2.6265
  931MOL0     H22868   3.317   9.529   9.739 -1.6940 -1.6584  0.1893
  931MOL0     H22869   3.313   9.448   9.587 -0.3887  2.3537 -0.7463
  931MOL0     H22870   3.545   9.636   9.632 -0.1015 -0.7925  0.7860
  931MOL0     H22871   3.464   9.583   9.481  0.4953 -3.7191  1.8830
  931MOL0     H22872   3.425   9.828   9.532 -0.0736 -0.4641  0.5634
  931MOL0     H22873   3.329   9.780   9.666 -3.7680  1.8439 -0.9818
  931MOL0     H22874   3.431   9.261   9.387  2.6639 -1.1940  0.5564
  931MOL0     H22875   3.472   9.235   9.140  0.4768 -2.7408 -4.7855
  931MOL0     H22876   3.842   8.919   8.842  1.1688  2.7578 -0.5470
  931MOL0     H22877   3.877   8.931   8.578 -1.2594  0.2296 -1.5107
  931MOL0     H22878   4.095   9.531   6.905  1.0485  0.0743  1.9847
  931MOL0     H22879   4.277   9.436   6.770 -1.9255  0.3084 -1.2453
  931MOL0     H22880   4.797   9.594   6.469 -0.6296 -1.2556  1.6300
  931MOL0     H22881   4.846   9.539   6.230 -0.4286 -0.3561  0.0870
  931MOL0     H22882   4.572   9.580   6.012 -3.4203 -2.6104  0.4976
  931MOL0     H22883   4.568   9.443   5.894 -2.4927  2.8776 -0.4810
  931MOL0     H22884   4.709   9.605   5.795  2.1477  0.4912 -1.0028
  931MOL0     H22885   4.812   9.624   5.945  0.1407 -0.5379  0.7021
  931MOL0     H22886   4.811   9.394   5.756 -1.6944  0.1485  2.2431
  931MOL0     H22887   4.895   9.395   5.916  1.1331  0.1688  1.0012
  931MOL0     H22888   5.028   9.459   5.696  1.8157  3.1247 -2.2799
  931MOL0     H22889   4.924   9.609   5.715  0.6680 -0.4203  0.5688
  931MOL0     H22890   5.217   9.678   6.002  0.3389 -0.5343  0.1480
  931MOL0     H22891   4.436   9.412   6.176 -1.5103 -1.0985  1.5095
  931MOL0     H22892   4.379   9.483   6.404 -0.3471  0.8852 -0.7017
  932MOL0     O22893   8.437   7.300   4.001 -0.4649  0.3534  1.2683
  932MOL0     C22894   8.405   7.395   4.066  0.2743 -0.3114  0.7038
  932MOL0     O22895   8.497   7.465   4.144  0.6689 -0.7411 -0.6482
  932MOL0     C22896   8.625   7.419   4.121  0.6799  0.7118 -0.7754
  932MOL0     C22897   8.708   7.476   4.024  0.2708  0.4896 -0.3426
  932MOL0     C22898   8.846   7.442   4.003  0.4976  0.7502  0.0511
  932MOL0     C22899   8.897   7.334   4.080  0.3142  0.7675 -0.0446
  932MOL0     O22900   9.033   7.288   4.067 -0.2082  0.1252  0.2627
  932MOL0     C22901   9.090   7.313   3.935  0.3301  0.0795 -0.2028
  932MOL0     C22902   9.232   7.259   3.922  0.9358 -0.3589  0.5359
  932MOL0     C22903   9.302   7.334   3.812 -0.6478  0.1961  0.3839
  932MOL0     C22904   9.413   7.232   3.754 -0.4207 -0.3200 -0.2864
  932MOL0     C22905   9.523   7.295   3.664 -0.5636 -0.6944  0.1396
  932MOL0     C22906   9.630   7.386   3.737 -0.2174 -0.6918  0.5752
  932MOL0     C22907   9.743   7.419   3.639 -0.0071 -0.9856  0.7020
  932MOL0     C22908   9.870   7.450   3.715 -0.4403  1.0533  0.2522
  932MOL0     N22909   9.957   7.536   3.625 -0.5392 -0.9311  0.8139
  932MOL0     C22910   9.980   7.673   3.637  0.1240 -0.3584 -0.7840
  932MOL0     C22911  10.068   7.712   3.547 -0.6946  0.5636  0.1412
  932MOL0     C22912  10.121   7.848   3.526  0.4219 -0.0185 -0.1202
  932MOL0     C22913  10.273   7.860   3.513  0.2498  0.5937  0.3880
  932MOL0     C22914  10.349   7.815   3.640  0.4938  0.9867  0.0589
  932MOL0     C22915  10.495   7.888   3.635  0.4845 -0.1007  0.2010
  932MOL0     O22916  10.571   7.853   3.529 -0.3951  0.0548 -0.0379
  932MOL0     C22917  10.676   7.937   3.493 -0.3602 -0.8712  0.3010
  932MOL0     C22918  10.700   7.942   3.352 -0.3424  0.1233  0.7844
  932MOL0     C22919  10.808   8.021   3.306  0.0575  0.1638  0.3266
  932MOL0     C22920  10.899   8.086   3.394  0.3348 -0.2560 -0.2199
  932MOL0     C22921  11.014   8.162   3.337  0.2912 -0.5010 -0.9040
  932MOL0     O22922  11.052   8.143   3.213  0.1585  0.0865  0.2982
  932MOL0     C22923  11.148   8.227   3.151 -0.0038  0.5025 -0.4441
  932MOL0     C22924  11.180   8.360   3.170  0.8445 -1.1185  0.0125
  932MOL0     C22925  11.289   8.425   3.106 -0.0248 -0.5125 -0.3158
  932MOL0     C22926  11.352   8.362   3.002 -0.0669  0.0958 -0.0673
  932MOL0     O22927  11.457   8.411   2.929  0.4141  0.2229  0.0089
  932MOL0     C22928  11.563   8.490   2.998  0.1915  0.2112 -0.6704
  932MOL0     C22929  11.655   8.551   2.895 -0.1155  0.1324 -0.6001
  932MOL0     C22930  11.763   8.460   2.844  0.3960  0.1181 -0.4765
  932MOL0     C22931  11.852   8.524   2.744 -0.0274  0.0399  0.2830
  932MOL0     C22932  11.956   8.424   2.701 -0.1791 -0.4591 -0.2634
  932MOL0     C22933  12.056   8.488   2.597  0.7428  0.3530  0.7084
  932MOL0     C22934  12.171   8.578   2.647 -0.8654  0.2496 -0.7475
  932MOL0     C22935  12.303   8.558   2.562  0.5517 -0.5605 -0.0136
  932MOL0    Cl22936  12.425   8.673   2.604  0.4003  0.1459  0.0076
  932MOL0     C22937  11.302   8.237   2.968 -0.4057  1.5139 -0.1586
  932MOL0     C22938  11.208   8.167   3.048  0.3966  1.4275  0.4282
  932MOL0     O22939  11.073   8.235   3.419  0.5899  0.5912 -0.3820
  932MOL0     C22940  10.881   8.080   3.529 -0.0112  0.6819  0.8959
  932MOL0     C22941  10.774   8.004   3.577  0.7493  0.1919 -0.3906
  932MOL0     N22942  10.103   7.596   3.479  0.1728  0.4294 -0.7321
  932MOL0     N22943  10.039   7.491   3.528 -0.4043  0.1572  0.5086
  932MOL0     C22944   8.816   7.283   4.181 -0.5954  0.2121 -0.3158
  932MOL0     C22945   8.687   7.325   4.201  1.0110 -0.3094  0.1552
  932MOL0     C22946   8.264   7.442   4.081 -0.3035  0.2515  0.3378
  932MOL0     C22947   8.174   7.407   3.985 -1.1643 -0.4985 -0.6049
  932MOL0     C22948   8.039   7.435   3.993  0.5221 -0.2668 -0.1299
  932MOL0     C22949   7.984   7.518   4.096  0.4534 -0.0958  0.4672
  932MOL0     O22950   7.849   7.523   4.101 -0.0201 -0.4102  0.3320
  932MOL0     C22951   7.792   7.400   4.156 -0.7487 -0.0135 -0.9477
  932MOL0     C22952   7.666   7.364   4.083  0.2130 -0.3262 -0.0207
  932MOL0     C22953   7.554   7.468   4.055 -0.3141  0.7982  0.1026
  932MOL0     C22954   7.468   7.415   3.942  1.0567  0.6762  0.1763
  932MOL0     C22955   7.364   7.318   3.988 -0.6968 -0.0231  0.7203
  932MOL0     C22956   7.292   7.232   4.024 -0.8953  0.0663  0.1614
  932MOL0     C22957   8.075   7.565   4.199  0.7815  0.5571 -0.2120
  932MOL0     C22958   8.215   7.530   4.187  0.6839 -0.3527  0.6113
  932MOL0     H22959   8.681   7.558   3.958  3.0115  0.9409 -1.0036
  932MOL0     H22960   8.899   7.499   3.928  1.4108  0.7480  0.6709
  932MOL0     H22961   9.087   7.422   3.925  1.7421 -0.0345 -2.6508
  932MOL0     H22962   9.028   7.295   3.848 -0.4152 -0.0154  0.3375
  932MOL0     H22963   9.211   7.154   3.897 -1.4939 -0.2365  1.7377
  932MOL0     H22964   9.298   7.259   4.009  4.4299 -0.3011 -1.9182
  932MOL0     H22965   9.359   7.420   3.851 -0.7864  2.5255 -3.8937
  932MOL0     H22966   9.237   7.376   3.735  1.8022  0.8344 -1.4516
  932MOL0     H22967   9.463   7.179   3.836 -1.0062 -3.7449 -1.9872
  932MOL0     H22968   9.376   7.146   3.698  0.2005 -2.3428  2.1815
  932MOL0     H22969   9.465   7.344   3.585 -0.1149  0.2059  0.3580
  932MOL0     H22970   9.578   7.217   3.610 -1.6860 -0.1931 -1.8639
  932MOL0     H22971   9.671   7.326   3.819  5.0076  1.7311  0.1256
  932MOL0     H22972   9.581   7.475   3.776 -1.7458 -1.0544 -0.4053
  932MOL0     H22973   9.759   7.334   3.573  1.9000  0.3720 -0.6831
  932MOL0     H22974   9.711   7.510   3.588 -1.8519 -1.3981  1.0543
  932MOL0     H22975   9.915   7.351   3.723 -0.6364  1.0083  0.8100
  932MOL0     H22976   9.860   7.505   3.809  3.1942  5.7156 -1.6806
  932MOL0     H22977   9.927   7.729   3.713 -3.3187 -2.5487 -1.3543
  932MOL0     H22978  10.084   7.908   3.610 -1.7483  1.7927 -2.2495
  932MOL0     H22979  10.081   7.897   3.437  0.0464  1.8901  1.0585
  932MOL0     H22980  10.308   7.963   3.498 -2.0812  1.2211 -1.2048
  932MOL0     H22981  10.305   7.802   3.426  2.1021  0.8385  0.8657
  932MOL0     H22982  10.295   7.840   3.732  4.1181 -0.4146  2.8021
  932MOL0     H22983  10.364   7.707   3.631  1.2902  1.0861  0.2067
  932MOL0     H22984  10.543   7.855   3.727 -1.0923 -2.1624  0.3563
  932MOL0     H22985  10.476   7.995   3.644 -3.5992 -0.7232  0.9572
  932MOL0     H22986  10.633   7.892   3.284  0.6225 -0.3887  0.1870
  932MOL0     H22987  10.816   8.019   3.198 -2.8525 -1.1802  0.0446
  932MOL0     H22988  11.133   8.403   3.258  2.0635  1.1871 -0.3641
  932MOL0     H22989  11.311   8.523   3.147 -1.1650 -0.4904  0.2769
  932MOL0     H22990  11.607   8.428   3.076 -0.6685  2.8332  2.1197
  932MOL0     H22991  11.516   8.574   3.050 -0.8499 -2.9188  4.1323
  932MOL0     H22992  11.708   8.638   2.935 -1.5466  2.3603 -3.1898
  932MOL0     H22993  11.596   8.578   2.807  1.0776 -0.4637 -1.6306
  932MOL0     H22994  11.717   8.371   2.799  0.9046 -0.1253 -0.5278
  932MOL0     H22995  11.821   8.429   2.932 -0.0574 -0.7507 -0.4717
  932MOL0     H22996  11.785   8.567   2.669  2.7762  0.4733 -2.1590
  932MOL0     H22997  11.905   8.608   2.791  1.4412 -0.3071 -0.6908
  932MOL0     H22998  11.911   8.336   2.654  0.8906 -1.1546  0.0013
  932MOL0     H22999  12.004   8.387   2.791  0.8760  1.0342 -0.1731
  932MOL0     H23000  12.000   8.555   2.532  0.8349  0.7479  1.0298
  932MOL0     H23001  12.085   8.409   2.528 -1.8958  0.7597 -0.9790
  932MOL0     H23002  12.148   8.685   2.644  0.3415  0.5223 -0.7795
  932MOL0     H23003  12.192   8.552   2.752 -0.3892 -0.5200 -1.0261
  932MOL0     H23004  12.279   8.571   2.456  0.4051  3.0567  0.3453
  932MOL0     H23005  12.326   8.451   2.572 -0.1700 -0.8166 -0.8487
  932MOL0     H23006  11.343   8.183   2.883 -2.6043  2.7520 -2.1151
  932MOL0     H23007  11.188   8.061   3.036  0.8965  1.1315  1.9709
  932MOL0     H23008  10.938   8.130   3.606 -0.7449 -0.2199  2.0541
  932MOL0     H23009  10.757   7.999   3.684  1.8599  1.5863 -0.1187
  932MOL0     H23010   8.848   7.203   4.246  0.5150  2.0609  1.5213
  932MOL0     H23011   8.624   7.285   4.280 -1.0905 -0.9194 -1.7210
  932MOL0     H23012   8.199   7.334   3.908 -3.2222  0.0747 -1.8988
  932MOL0     H23013   7.979   7.384   3.918 -0.6407 -0.6497  1.0286
  932MOL0     H23014   7.776   7.414   4.264 -2.3897 -3.6592 -0.5464
  932MOL0     H23015   7.855   7.313   4.134 -0.2431 -0.1302  0.7432
  932MOL0     H23016   7.702   7.343   3.982  0.4691  0.3182 -0.0742
  932MOL0     H23017   7.621   7.280   4.137  1.7271  0.6518  2.9824
  932MOL0     H23018   7.595   7.556   4.006 -2.0579  2.1358  0.9501
  932MOL0     H23019   7.494   7.494   4.143  0.3615  2.2425  0.1615
  932MOL0     H23020   7.424   7.504   3.897 -1.1389  0.6000  1.9542
  932MOL0     H23021   7.524   7.378   3.856 -0.9822 -0.6904 -0.6399
  932MOL0     H23022   7.228   7.153   4.058 -0.0550 -0.3144  0.8917
  932MOL0     H23023   8.050   7.615   4.292  0.9504  1.7770 -0.8054
  932MOL0     H23024   8.290   7.569   4.255 -0.0985  0.9556  0.7440
  933MOL0     O23025   1.197   3.088   5.710 -0.1128  0.0876  0.0537
  933MOL0     C23026   1.258   3.078   5.821 -0.7574  0.0414 -0.1107
  933MOL0     O23027   1.224   3.144   5.932  0.1809  0.0061  0.3587
  933MOL0     C23028   1.114   3.233   5.925  0.5002  0.1593  0.3004
  933MOL0     C23029   0.988   3.190   5.974  0.0698 -0.4970  0.9466
  933MOL0     C23030   0.881   3.274   5.973 -0.5393  0.1519 -0.2191
  933MOL0     C23031   0.877   3.387   5.894 -0.0433  0.3951  0.4601
  933MOL0     O23032   0.767   3.465   5.890  0.0110  0.4775 -0.0426
  933MOL0     C23033   0.665   3.409   5.818 -0.4659  0.0664  0.1733
  933MOL0     C23034   0.529   3.434   5.891  0.1156 -0.1004 -0.0627
  933MOL0     C23035   0.419   3.358   5.829  0.2541  0.1652  0.6096
  933MOL0     C23036   0.287   3.411   5.872  0.5937 -0.5131  1.0203
  933MOL0     C23037   0.179   3.359   5.782 -0.3966 -0.7864  0.3304
  933MOL0     C23038   0.177   3.202   5.759 -0.6696 -0.0649  0.3908
  933MOL0     C23039   0.126   3.125   5.880  1.3596 -0.0587 -0.2590
  933MOL0     C23040   0.129   2.970   5.864  0.3499 -0.2441  0.7317
  933MOL0     N23041   0.051   2.905   5.976  0.3034 -0.7045 -0.1438
  933MOL0     C23042   0.105   2.848   6.097  0.7692 -0.2078 -0.1073
  933MOL0     C23043   0.007   2.848   6.184  0.2438 -0.2660 -0.9029
  933MOL0     C23044   0.016   2.811   6.329  0.1685 -0.6816 -0.7474
  933MOL0     C23045  -0.111   2.728   6.367 -0.2660 -0.9005 -0.8788
  933MOL0     C23046  -0.107   2.603   6.277 -0.2657 -0.0569  0.5022
  933MOL0     C23047   0.001   2.494   6.296  0.5951 -0.8389 -0.8011
  933MOL0     O23048   0.020   2.411   6.183 -0.4597 -0.6518  0.1830
  933MOL0     C23049   0.011   2.283   6.204  0.1893  0.7106  0.1931
  933MOL0     C23050   0.122   2.200   6.216  0.0940  0.5717  0.1585
  933MOL0     C23051   0.115   2.058   6.234 -0.4216 -0.1024 -0.1657
  933MOL0     C23052  -0.011   2.002   6.253  0.4304 -0.8631  0.2599
  933MOL0     C23053  -0.010   1.864   6.289 -0.1602 -0.2081 -0.1564
  933MOL0     O23054   0.100   1.815   6.334 -0.4943 -0.1649  0.1371
  933MOL0     C23055   0.112   1.685   6.362 -0.4252  0.5305 -0.5760
  933MOL0     C23056   0.028   1.606   6.440 -0.5715  0.0667  0.5837
  933MOL0     C23057   0.064   1.470   6.457  0.0790 -0.5954  1.0278
  933MOL0     C23058   0.179   1.406   6.403 -0.5977 -0.2899  0.1204
  933MOL0     O23059   0.218   1.283   6.454  0.1610 -0.0380 -0.1331
  933MOL0     C23060   0.344   1.231   6.410 -0.2363  0.2666 -0.2100
  933MOL0     C23061   0.474   1.296   6.460 -0.3091  0.4229 -1.1389
  933MOL0     C23062   0.602   1.236   6.390 -0.4398  0.3323 -0.2830
  933MOL0     C23063   0.725   1.285   6.463 -0.1210  0.2281  0.6558
  933MOL0     C23064   0.856   1.249   6.388 -1.2078  0.1814 -0.2100
  933MOL0     C23065   0.869   1.091   6.359 -0.3220 -0.0473 -0.0273
  933MOL0     C23066   0.982   1.055   6.270 -0.1888 -0.0179  0.4815
  933MOL0     C23067   0.963   0.942   6.177  1.1240 -0.2685  0.9564
  933MOL0    Cl23068   0.950   0.790   6.272 -0.0767  0.1022  0.0178
  933MOL0     C23069   0.257   1.492   6.325 -0.2955 -0.3886  0.3812
  933MOL0     C23070   0.230   1.628   6.311  0.8085  0.3063  0.0065
  933MOL0     O23071  -0.115   1.799   6.282 -0.1230 -0.4354  0.5660
  933MOL0     C23072  -0.126   2.085   6.231 -0.6200  0.5017 -0.1452
  933MOL0     C23073  -0.119   2.224   6.213 -0.4451  0.3619  0.4131
  933MOL0     N23074  -0.106   2.880   6.115  0.3679  0.2738 -0.1511
  933MOL0     N23075  -0.083   2.914   5.992  0.1820 -0.5501 -0.0570
  933MOL0     C23076   0.997   3.425   5.832 -0.1349  0.4714  0.5594
  933MOL0     C23077   1.114   3.351   5.853 -0.1799  0.5728  0.4054
  933MOL0     C23078   1.388   3.009   5.812 -0.5809 -0.0928 -0.4509
  933MOL0     C23079   1.435   2.941   5.926 -0.2631 -0.0102 -0.1686
  933MOL0     C23080   1.568   2.892   5.935  0.4172 -0.5906 -0.1212
  933MOL0     C23081   1.644   2.905   5.820  0.4621  0.1787  0.1571
  933MOL0     O23082   1.773   2.848   5.806 -0.2493 -0.0460 -0.2232
  933MOL0     C23083   1.847   2.811   5.916 -0.0798 -0.6501 -1.2768
  933MOL0     C23084   1.913   2.939   5.979 -0.2622  1.0209 -0.0905
  933MOL0     C23085   2.018   2.994   5.876 -0.4665  0.2473  0.5056
  933MOL0     C23086   2.166   2.921   5.861  0.5426  0.4649 -0.1344
  933MOL0     C23087   2.229   2.890   5.992 -0.2759  1.1300  0.2030
  933MOL0     C23088   2.295   2.867   6.087 -0.1598 -0.4825 -0.0151
  933MOL0     C23089   1.605   2.981   5.702 -1.0879  1.0209 -0.9824
  933MOL0     C23090   1.470   3.019   5.697 -0.2002 -0.4126 -0.5140
  933MOL0     H23091   0.990   3.102   6.038 -1.1343 -0.4814  1.0295
  933MOL0     H23092   0.789   3.254   6.028 -0.1508 -2.3709 -0.4053
  933MOL0     H23093   0.686   3.306   5.788  0.6931  0.5819 -0.8735
  933MOL0     H23094   0.665   3.456   5.720  1.4427 -1.3232 -0.5545
  933MOL0     H23095   0.501   3.540   5.897 -1.2661 -0.5043  1.2733
  933MOL0     H23096   0.553   3.396   5.990  1.1882 -1.1791 -0.7065
  933MOL0     H23097   0.435   3.256   5.865 -4.5540 -0.5250  1.4969
  933MOL0     H23098   0.428   3.366   5.720 -1.2279  1.9294  0.5765
  933MOL0     H23099   0.268   3.380   5.975 -2.5172 -3.1777 -0.1612
  933MOL0     H23100   0.290   3.520   5.864  3.7509 -0.5596  0.3546
  933MOL0     H23101   0.169   3.409   5.685 -2.5506 -0.4677  0.6549
  933MOL0     H23102   0.089   3.392   5.835  2.1341  3.8863  2.2917
  933MOL0     H23103   0.272   3.161   5.721 -1.0523 -0.4905 -0.1212
  933MOL0     H23104   0.112   3.176   5.675 -1.2919 -1.4137  1.2702
  933MOL0     H23105   0.181   3.148   5.972  0.4461 -1.6464  0.7460
  933MOL0     H23106   0.022   3.154   5.899  1.2680 -0.4641 -0.1351
  933MOL0     H23107   0.228   2.925   5.850 -0.0302 -0.8379 -0.1241
  933MOL0     H23108   0.074   2.954   5.771 -0.8153  1.2130  1.1323
  933MOL0     H23109   0.210   2.820   6.108  0.6848  0.3500  2.8929
  933MOL0     H23110   0.034   2.901   6.389 -0.4397 -1.1060  0.0874
  933MOL0     H23111   0.100   2.742   6.340 -1.3436 -2.7721 -1.6546
  933MOL0     H23112  -0.203   2.786   6.355  1.4466  1.4807 -4.1421
  933MOL0     H23113  -0.099   2.702   6.473  1.7512  3.9024  0.3448
  933MOL0     H23114  -0.202   2.550   6.287 -0.0919 -1.4402 -3.5160
  933MOL0     H23115  -0.116   2.637   6.173 -0.3022 -1.6943 -0.0496
  933MOL0     H23116  -0.037   2.440   6.383 -3.8427  1.4082 -1.0417
  933MOL0     H23117   0.099   2.539   6.312  0.8989 -1.8729  0.3908
  933MOL0     H23118   0.218   2.250   6.212  0.0723  0.6227  0.2581
  933MOL0     H23119   0.211   2.011   6.252 -1.3643 -1.4627  1.6685
  933MOL0     H23120  -0.057   1.646   6.494  0.5129  1.3091  1.4208
  933MOL0     H23121   0.007   1.396   6.513 -0.4729 -1.5767 -0.7668
  933MOL0     H23122   0.351   1.238   6.301 -0.2515  0.1378 -0.2193
  933MOL0     H23123   0.345   1.123   6.422  0.9576 -0.2491 -3.6673
  933MOL0     H23124   0.474   1.281   6.568  1.1178 -2.6973 -1.4848
  933MOL0     H23125   0.472   1.405   6.450  1.7094  0.7092  0.8986
  933MOL0     H23126   0.593   1.271   6.286  1.5454  1.5037 -0.1100
  933MOL0     H23127   0.597   1.127   6.382  1.5164  0.2512 -1.0813
  933MOL0     H23128   0.716   1.392   6.487  0.1866  0.0777  1.4719
  933MOL0     H23129   0.728   1.235   6.560  0.0049  0.0117  0.5398
  933MOL0     H23130   0.940   1.295   6.440  0.3787 -0.0570 -2.4154
  933MOL0     H23131   0.849   1.304   6.294  1.4078  0.4791 -0.2877
  933MOL0     H23132   0.783   1.053   6.303  1.1872 -2.6267 -0.7765
  933MOL0     H23133   0.881   1.028   6.447 -1.0320 -1.0061 -0.5846
  933MOL0     H23134   1.018   1.136   6.207  0.5018 -1.6004 -1.2693
  933MOL0     H23135   1.072   1.025   6.326 -0.4217 -1.9660 -0.1083
  933MOL0     H23136   1.044   0.931   6.106 -0.9603 -1.6652 -1.3710
  933MOL0     H23137   0.875   0.960   6.115  2.2573 -0.9504 -0.9357
  933MOL0     H23138   0.354   1.465   6.283  0.8007  2.0275  1.1509
  933MOL0     H23139   0.298   1.671   6.239  1.9010  0.6480  1.2082
  933MOL0     H23140  -0.224   2.044   6.249 -0.2364  0.3772  1.8770
  933MOL0     H23141  -0.213   2.277   6.202 -0.8177 -0.4016 -0.1156
  933MOL0     H23142   0.996   3.508   5.762  0.6559  0.2258  0.2435
  933MOL0     H23143   1.200   3.381   5.795 -0.0348 -2.8130 -1.3863
  933MOL0     H23144   1.368   2.938   6.011 -2.3579  7.1030 -0.8522
  933MOL0     H23145   1.617   2.852   6.024  0.7297 -2.0518 -0.9187
  933MOL0     H23146   1.929   2.746   5.885  1.2058 -1.0638  2.5512
  933MOL0     H23147   1.787   2.751   5.985 -1.1373 -2.5830 -3.7405
  933MOL0     H23148   1.825   3.003   5.991 -2.1024 -1.3663 -0.0529
  933MOL0     H23149   1.959   2.925   6.078 -0.1399  3.0532  0.1772
  933MOL0     H23150   2.031   3.095   5.915 -2.3375  0.7289  0.0175
  933MOL0     H23151   1.979   3.008   5.774 -0.4117  0.3428  0.4972
  933MOL0     H23152   2.156   2.830   5.801 -0.6283  0.0585  0.6402
  933MOL0     H23153   2.231   2.988   5.804  3.2361 -3.5478 -2.3193
  933MOL0     H23154   2.354   2.837   6.171  0.3544  0.9777  0.1706
  933MOL0     H23155   1.682   2.974   5.626  1.9838 -3.8096  2.0544
  933MOL0     H23156   1.435   3.070   5.608  0.9931  5.0254  1.7539
  934MOL0     O23157   0.985   2.900   6.841 -0.8705  0.5115 -0.3057
  934MOL0     C23158   1.088   2.868   6.901  0.6039  0.3420 -0.4225
  934MOL0     O23159   1.133   2.923   7.021  0.3494  0.0507  0.9180
  934MOL0     C23160   1.044   3.007   7.094 -0.3799 -0.9234 -0.0031
  934MOL0     C23161   0.908   2.978   7.122 -0.7306  0.0066  0.8441
  934MOL0     C23162   0.832   3.066   7.194  0.9878 -0.5686  0.0039
  934MOL0     C23163   0.878   3.184   7.241 -0.7334  0.0232  0.2417
  934MOL0     O23164   0.793   3.287   7.276  0.4102 -0.6320 -1.0600
  934MOL0     C23165   0.755   3.372   7.169 -0.4893  0.3172 -0.3001
  934MOL0     C23166   0.654   3.481   7.208  0.1613  0.2377  0.5485
  934MOL0     C23167   0.519   3.418   7.232  0.4630  0.1504 -0.4552
  934MOL0     C23168   0.413   3.498   7.302  0.7434 -0.3349 -0.2301
  934MOL0     C23169   0.390   3.640   7.245  0.3138 -0.0076 -0.2724
  934MOL0     C23170   0.260   3.721   7.300  0.0573  0.0822 -1.0330
  934MOL0     C23171   0.292   3.867   7.264 -0.3500  0.4350  0.6208
  934MOL0     C23172   0.267   3.896   7.116  0.3402 -0.4840 -0.9723
  934MOL0     N23173   0.267   4.035   7.086  0.1611 -0.0840  0.6213
  934MOL0     C23174   0.159   4.116   7.092 -0.8665  0.3998  0.4437
  934MOL0     C23175   0.196   4.221   7.014  0.7580 -0.1240  0.7062
  934MOL0     C23176   0.110   4.340   7.013 -0.6208  0.4178  0.8888
  934MOL0     C23177  -0.020   4.340   6.927 -0.2863  0.7794 -0.1421
  934MOL0     C23178  -0.073   4.472   6.904  0.0909 -1.0244  0.3036
  934MOL0     C23179  -0.116   4.533   7.043  0.5596  0.1140 -0.1225
  934MOL0     O23180  -0.217   4.645   7.033 -0.4188  0.0689  0.6246
  934MOL0     C23181  -0.267   4.703   7.143  0.3066  0.6588  0.3959
  934MOL0     C23182  -0.276   4.633   7.264  0.1691  0.3535  0.7183
  934MOL0     C23183  -0.353   4.691   7.367  0.1549  0.0480 -0.5415
  934MOL0     C23184  -0.428   4.807   7.347  0.3500 -0.8645  0.2024
  934MOL0     C23185  -0.510   4.859   7.454  0.0924 -0.6921 -0.3502
  934MOL0     O23186  -0.619   4.919   7.404  0.7439  0.8150 -0.2643
  934MOL0     C23187  -0.727   4.967   7.472 -0.6531  0.6767  0.2955
  934MOL0     C23188  -0.770   4.924   7.597 -1.1195  0.2364  0.0932
  934MOL0     C23189  -0.888   4.978   7.648  0.2861  0.4782  0.7671
  934MOL0     C23190  -0.962   5.080   7.586  0.3597 -0.3612 -0.9334
  934MOL0     O23191  -1.076   5.150   7.638  0.2294 -0.4339  0.0256
  934MOL0     C23192  -1.172   5.085   7.729  0.6316 -0.5218 -0.0374
  934MOL0     C23193  -1.281   5.193   7.766 -0.6977  0.0126  0.0967
  934MOL0     C23194  -1.364   5.232   7.648  0.3333  0.4311  0.6653
  934MOL0     C23195  -1.464   5.337   7.702  0.8782 -0.9599  0.9135
  934MOL0     C23196  -1.575   5.373   7.596 -0.0229 -0.5583 -0.6061
  934MOL0     C23197  -1.669   5.487   7.648 -1.2501  0.6354  1.0338
  934MOL0     C23198  -1.791   5.480   7.557 -0.3437 -0.8767 -0.8795
  934MOL0     C23199  -1.906   5.587   7.577  0.4407  0.7010 -0.2904
  934MOL0    Cl23200  -1.849   5.750   7.533  0.2998  0.5038 -0.2499
  934MOL0     C23201  -0.917   5.128   7.465  1.1501  1.0544 -0.4410
  934MOL0     C23202  -0.806   5.067   7.409 -0.3043  0.1319 -0.6148
  934MOL0     O23203  -0.485   4.829   7.575  0.0018 -0.8940 -0.1104
  934MOL0     C23204  -0.412   4.873   7.224 -1.2293  0.9096  0.0161
  934MOL0     C23205  -0.329   4.826   7.126 -0.9484  0.5028 -0.3677
  934MOL0     N23206   0.321   4.203   6.957  0.5478  0.4659  0.5425
  934MOL0     N23207   0.364   4.092   7.007  0.1989  0.9407  0.1855
  934MOL0     C23208   1.013   3.197   7.241  0.7521 -0.6181  0.4704
  934MOL0     C23209   1.100   3.114   7.163 -0.6381 -0.5798  0.1822
  934MOL0     C23210   1.178   2.778   6.839 -0.6622  0.1652  0.4469
  934MOL0     C23211   1.316   2.755   6.885 -0.2928 -0.5456  0.0689
  934MOL0     C23212   1.408   2.675   6.812  0.0166  0.7546  0.2506
  934MOL0     C23213   1.372   2.620   6.693 -0.1597 -0.4738 -0.8984
  934MOL0     O23214   1.450   2.540   6.614  0.0608  0.4366 -0.1250
  934MOL0     C23215   1.572   2.490   6.642 -0.2213  0.7401 -0.8939
  934MOL0     C23216   1.660   2.438   6.532  0.1318 -0.3702  0.5514
  934MOL0     C23217   1.766   2.348   6.595  0.0133 -0.8370 -1.0246
  934MOL0     C23218   1.861   2.301   6.489 -0.2197  0.1257 -0.4615
  934MOL0     C23219   1.942   2.191   6.551 -0.1186  0.1019 -0.0510
  934MOL0     C23220   2.030   2.116   6.589  0.9203 -0.4074 -0.1849
  934MOL0     C23221   1.248   2.651   6.646 -0.0379  0.4783  1.0388
  934MOL0     C23222   1.148   2.714   6.708  0.2412  0.2083 -0.5498
  934MOL0     H23223   0.878   2.883   7.079  1.7611 -0.2508 -0.5134
  934MOL0     H23224   0.730   3.034   7.211  0.9767 -2.4047 -2.8778
  934MOL0     H23225   0.714   3.334   7.076  0.7109 -0.1110 -0.6760
  934MOL0     H23226   0.839   3.431   7.131 -1.4740  0.4664 -2.3252
  934MOL0     H23227   0.644   3.556   7.128 -0.3103 -1.9171 -1.5092
  934MOL0     H23228   0.677   3.522   7.307 -1.5975  0.7863  0.7770
  934MOL0     H23229   0.539   3.323   7.283 -0.8495  1.0683  1.9172
  934MOL0     H23230   0.492   3.394   7.128 -0.7015 -1.3604  0.1453
  934MOL0     H23231   0.316   3.449   7.296 -0.6156  2.3351 -1.9203
  934MOL0     H23232   0.436   3.512   7.408  2.2307  2.0365 -0.7732
  934MOL0     H23233   0.378   3.625   7.137 -0.2102 -0.2430 -0.1842
  934MOL0     H23234   0.480   3.700   7.259 -0.6639  1.9015 -1.7363
  934MOL0     H23235   0.253   3.704   7.408  0.7615  1.4705 -0.7491
  934MOL0     H23236   0.160   3.696   7.264 -1.1947  2.9823  0.0981
  934MOL0     H23237   0.234   3.933   7.329  0.0528  0.5053  0.9138
  934MOL0     H23238   0.395   3.899   7.282  0.0972 -0.6169  0.0323
  934MOL0     H23239   0.168   3.862   7.082  1.3028 -1.4915 -2.9936
  934MOL0     H23240   0.349   3.855   7.056  1.0129  1.7956 -1.7239
  934MOL0     H23241   0.071   4.087   7.149 -0.3571 -1.9868  0.1097
  934MOL0     H23242   0.173   4.427   6.993  0.6557 -0.2479  1.8830
  934MOL0     H23243   0.072   4.358   7.115  3.1549  1.1043  2.3278
  934MOL0     H23244  -0.096   4.280   6.977  0.2406  1.1373  1.1340
  934MOL0     H23245   0.007   4.307   6.827  2.0037  0.6718  0.4522
  934MOL0     H23246  -0.001   4.541   6.860 -2.3762  2.6666  1.5809
  934MOL0     H23247  -0.160   4.464   6.838 -0.5844 -2.2894  1.3045
  934MOL0     H23248  -0.028   4.570   7.096  1.1124  2.1988 -2.3662
  934MOL0     H23249  -0.162   4.445   7.088  1.4763 -1.3467 -1.9255
  934MOL0     H23250  -0.233   4.535   7.280 -1.0389 -0.6413 -1.6612
  934MOL0     H23251  -0.363   4.636   7.460  1.6141  1.3828  0.4580
  934MOL0     H23252  -0.727   4.841   7.652 -2.0826 -1.5414 -1.6938
  934MOL0     H23253  -0.915   4.950   7.749  1.6301  0.5895  1.1747
  934MOL0     H23254  -1.124   5.043   7.818  0.3653 -0.4540  0.1386
  934MOL0     H23255  -1.217   4.999   7.681  1.4163 -0.9005 -0.1168
  934MOL0     H23256  -1.235   5.284   7.806  1.8925 -0.8422 -0.6963
  934MOL0     H23257  -1.348   5.141   7.835 -2.0291 -1.8622 -2.4419
  934MOL0     H23258  -1.418   5.148   7.603 -0.1799  0.6362  0.8867
  934MOL0     H23259  -1.311   5.277   7.563 -0.2691 -1.6119 -0.8798
  934MOL0     H23260  -1.522   5.301   7.787  1.5176  1.1175  2.2963
  934MOL0     H23261  -1.415   5.429   7.734  2.0261 -0.6332 -1.5141
  934MOL0     H23262  -1.631   5.280   7.581 -1.2225  0.4346 -2.5401
  934MOL0     H23263  -1.526   5.411   7.506 -1.0484  2.7677  0.1033
  934MOL0     H23264  -1.605   5.576   7.650 -0.5499  0.5010 -3.9723
  934MOL0     H23265  -1.693   5.462   7.752  0.9237  0.2737  1.4888
  934MOL0     H23266  -1.748   5.491   7.457 -4.0323 -1.0975 -2.6581
  934MOL0     H23267  -1.837   5.382   7.571 -2.2194  0.2434  1.6240
  934MOL0     H23268  -1.936   5.581   7.682  2.2072  1.4441  0.2993
  934MOL0     H23269  -1.995   5.568   7.517 -0.8207  2.3729  0.9535
  934MOL0     H23270  -0.977   5.199   7.408 -1.3882 -2.3110 -2.3379
  934MOL0     H23271  -0.774   5.107   7.313 -0.6613  0.8809 -0.4246
  934MOL0     H23272  -0.444   4.977   7.222  1.0453  1.7629  1.9500
  934MOL0     H23273  -0.305   4.890   7.041 -0.0390  3.2317  1.8059
  934MOL0     H23274   1.056   3.290   7.278  2.2773 -0.8988 -0.4948
  934MOL0     H23275   1.205   3.141   7.159 -1.7213  4.4170 -2.1706
  934MOL0     H23276   1.351   2.798   6.978 -0.5397 -2.1950  0.9717
  934MOL0     H23277   1.505   2.646   6.850  0.0561  2.7087  1.8285
  934MOL0     H23278   1.543   2.397   6.692 -1.4493  0.2819 -2.3676
  934MOL0     H23279   1.625   2.565   6.701  1.1028  0.5295 -1.7637
  934MOL0     H23280   1.600   2.404   6.448 -0.6026 -1.6531  1.5423
  934MOL0     H23281   1.706   2.526   6.487  1.4681 -1.1111  0.4134
  934MOL0     H23282   1.722   2.261   6.644 -1.1534  0.3734  0.1850
  934MOL0     H23283   1.824   2.393   6.677 -1.3183 -1.6286  0.3909
  934MOL0     H23284   1.810   2.266   6.399 -2.4176 -0.1938  0.8333
  934MOL0     H23285   1.935   2.375   6.456  0.6561 -0.3901  0.3119
  934MOL0     H23286   2.104   2.040   6.601  0.4367 -0.9455 -0.5600
  934MOL0     H23287   1.218   2.621   6.546 -3.6873 -0.0420  2.1663
  934MOL0     H23288   1.052   2.726   6.661 -1.2095 -0.5204  2.0087
  935MOL0     O23289  11.067   0.615   0.483 -0.2875 -0.1347  0.6906
  935MOL0     C23290  11.033   0.652   0.371  0.0760  0.1461  0.0033
  935MOL0     O23291  11.079   0.765   0.304  0.0442  0.8424 -0.2959
  935MOL0     C23292  11.162   0.853   0.364  0.5718  0.8079  0.4586
  935MOL0     C23293  11.123   0.982   0.370 -0.0244  0.1194  0.6548
  935MOL0     C23294  11.203   1.081   0.435 -0.5048 -1.1686  0.0855
  935MOL0     C23295  11.329   1.043   0.501  0.7438  0.2725  0.2630
  935MOL0     O23296  11.400   1.145   0.555  0.0213 -0.4223  0.1275
  935MOL0     C23297  11.541   1.145   0.541  0.2951  0.3174  0.2199
  935MOL0     C23298  11.600   1.171   0.402  0.1262 -0.3345 -0.2970
  935MOL0     C23299  11.730   1.088   0.382 -0.2124 -0.6093  1.1253
  935MOL0     C23300  11.859   1.155   0.446 -0.2591  0.6024  0.1918
  935MOL0     C23301  11.974   1.058   0.451  0.1847  0.2590 -0.4334
  935MOL0     C23302  11.996   0.988   0.310  0.0503  0.3436 -0.6684
  935MOL0     C23303  12.131   0.910   0.311 -0.4869  0.3186 -0.2529
  935MOL0     C23304  12.185   0.901   0.171 -0.5864 -0.6380  0.8668
  935MOL0     N23305  12.099   0.817   0.081 -0.2033  0.4107 -0.9382
  935MOL0     C23306  12.068   0.680   0.093 -0.6452 -0.0372 -0.4214
  935MOL0     C23307  11.999   0.654  -0.023 -0.2955 -0.7946 -0.3086
  935MOL0     C23308  11.940   0.523  -0.057  0.5433 -0.2608  0.1650
  935MOL0     C23309  11.830   0.492   0.041  0.6125  0.6753  0.0388
  935MOL0     C23310  11.781   0.346   0.029 -0.0961  0.3422  0.8976
  935MOL0     C23311  11.720   0.325  -0.108 -0.0224 -0.5763 -0.1695
  935MOL0     O23312  11.643   0.202  -0.090 -0.3728 -0.4730  0.6285
  935MOL0     C23313  11.546   0.170  -0.182  0.5464 -1.2974  0.4801
  935MOL0     C23314  11.501   0.243  -0.299 -0.8933 -0.1363 -0.1545
  935MOL0     C23315  11.393   0.182  -0.373 -0.0593  0.4710  0.0469
  935MOL0     C23316  11.330   0.057  -0.334  0.0302  0.0040  0.0251
  935MOL0     C23317  11.214   0.004  -0.413 -0.1889 -0.5477  0.1238
  935MOL0     O23318  11.200   0.060  -0.531  0.6045  0.1741  0.2059
  935MOL0     C23319  11.100   0.012  -0.614  0.6468 -0.0867  0.2438
  935MOL0     C23320  11.099  -0.114  -0.675 -0.6780  0.0756  0.6546
  935MOL0     C23321  10.985  -0.147  -0.750  0.5758 -0.2044 -0.1299
  935MOL0     C23322  10.880  -0.056  -0.772 -0.1687 -0.2387 -0.1958
  935MOL0     O23323  10.770  -0.108  -0.834 -0.5027 -0.2187  0.3658
  935MOL0     C23324  10.634  -0.049  -0.831 -0.1457  0.1189 -0.5906
  935MOL0     C23325  10.537  -0.160  -0.877 -0.8534 -0.4243  0.5607
  935MOL0     C23326  10.394  -0.127  -0.864  0.2352 -0.1269 -0.3817
  935MOL0     C23327  10.358   0.010  -0.926  0.5102  0.5663 -0.8163
  935MOL0     C23328  10.206   0.007  -0.942 -0.0636 -0.3536 -0.7452
  935MOL0     C23329  10.174   0.162  -0.981 -0.1850  1.1292 -0.2825
  935MOL0     C23330  10.027   0.168  -1.003  0.9367 -0.3007  0.7693
  935MOL0     C23331   9.939   0.125  -0.890 -0.9968 -0.2101 -0.0992
  935MOL0    Cl23332   9.980   0.234  -0.754 -0.1519  0.4560  0.0202
  935MOL0     C23333  10.883   0.070  -0.718 -0.3274 -0.3959  0.0004
  935MOL0     C23334  10.994   0.110  -0.634  1.0594  0.2443 -0.4518
  935MOL0     O23335  11.148  -0.086  -0.364  0.2675  0.4261 -0.4744
  935MOL0     C23336  11.382  -0.010  -0.220  0.3225 -0.7105  1.4615
  935MOL0     C23337  11.490   0.043  -0.154  0.0912 -0.0737 -0.4743
  935MOL0     N23338  11.994   0.771  -0.101  0.0912  0.2269  0.6375
  935MOL0     N23339  12.052   0.867  -0.038  0.0748  0.5484 -0.5632
  935MOL0     C23340  11.360   0.903   0.493 -0.3687 -0.3593  0.8642
  935MOL0     C23341  11.281   0.811   0.424  0.4261  0.4001  1.0335
  935MOL0     C23342  10.932   0.575   0.304 -0.2456  0.9008  0.7045
  935MOL0     C23343  10.869   0.463   0.368  0.2626  0.3448 -0.2629
  935MOL0     C23344  10.768   0.395   0.297 -0.1756 -0.1123  0.4055
  935MOL0     C23345  10.740   0.429   0.163  0.1077 -0.1709 -0.4860
  935MOL0     O23346  10.658   0.348   0.078 -0.5357  0.5145  0.7896
  935MOL0     C23347  10.542   0.288   0.137 -0.0412  0.3118 -0.0158
  935MOL0     C23348  10.435   0.261   0.026 -0.4540  0.8746 -0.1731
  935MOL0     C23349  10.355   0.391  -0.013 -0.3864  0.9771 -0.2580
  935MOL0     C23350  10.415   0.474  -0.123 -1.2387  0.2248  0.5707
  935MOL0     C23351  10.327   0.594  -0.141 -0.4246  0.4107  0.2874
  935MOL0     C23352  10.246   0.677  -0.138  0.6633 -0.9048 -0.0958
  935MOL0     C23353  10.804   0.536   0.100 -0.5712  0.2642 -0.0697
  935MOL0     C23354  10.896   0.604   0.173  0.7633  0.1265 -0.1169
  935MOL0     H23355  11.026   1.000   0.323  0.2860  2.5963  0.8108
  935MOL0     H23356  11.170   1.185   0.433  1.5192 -0.4266 -3.7395
  935MOL0     H23357  11.573   1.045   0.571  0.1148 -0.0248 -0.7072
  935MOL0     H23358  11.589   1.221   0.604 -1.6044  1.7188  0.0734
  935MOL0     H23359  11.611   1.277   0.379 -2.0785  0.7649  2.9489
  935MOL0     H23360  11.517   1.139   0.338  0.6309 -1.2488 -0.5196
  935MOL0     H23361  11.763   1.081   0.278  2.3137  4.0836  1.3611
  935MOL0     H23362  11.718   0.987   0.423 -3.5446 -1.0580 -0.6372
  935MOL0     H23363  11.881   1.240   0.380  1.1501  0.2274  0.1366
  935MOL0     H23364  11.828   1.186   0.547  0.1599  1.4140  0.0850
  935MOL0     H23365  11.950   0.983   0.527  0.0074  1.8456  1.1577
  935MOL0     H23366  12.066   1.102   0.490  0.8910 -0.0637 -1.6803
  935MOL0     H23367  11.999   1.054   0.224 -0.0139 -3.8458 -4.2300
  935MOL0     H23368  11.918   0.916   0.287 -0.1019 -0.1565  1.2309
  935MOL0     H23369  12.209   0.968   0.361 -2.6864  4.2226 -0.9094
  935MOL0     H23370  12.110   0.809   0.348 -2.2234  1.1251  1.1082
  935MOL0     H23371  12.280   0.850   0.187  1.6759  3.2583  1.1684
  935MOL0     H23372  12.205   0.999   0.127  1.5402 -0.4998  2.0170
  935MOL0     H23373  12.100   0.618   0.177  1.0480  1.6740  0.2768
  935MOL0     H23374  12.003   0.434  -0.049 -1.0751 -1.3037  2.3995
  935MOL0     H23375  11.913   0.534  -0.162 -0.1564 -0.0687  0.3547
  935MOL0     H23376  11.750   0.567   0.045 -0.0736 -0.0688  0.5513
  935MOL0     H23377  11.873   0.498   0.141  2.8431 -2.1121 -0.6186
  935MOL0     H23378  11.859   0.270   0.037 -0.8305 -0.4828  0.4002
  935MOL0     H23379  11.703   0.330   0.104 -2.2982  1.4391 -1.0151
  935MOL0     H23380  11.793   0.328  -0.189  2.9376 -0.3077  2.3176
  935MOL0     H23381  11.642   0.400  -0.119  1.1817  0.8670  0.7688
  935MOL0     H23382  11.546   0.331  -0.344  1.5237 -1.6339 -0.8637
  935MOL0     H23383  11.345   0.216  -0.464 -3.9288 -2.0343  0.9384
  935MOL0     H23384  11.165  -0.199  -0.659 -2.2375 -1.4163 -0.4210
  935MOL0     H23385  10.959  -0.247  -0.786 -1.4145 -0.7417  2.4835
  935MOL0     H23386  10.626   0.034  -0.902  0.5536  1.7400  1.1239
  935MOL0     H23387  10.617  -0.019  -0.727 -0.5204  0.7863 -0.8372
  935MOL0     H23388  10.556  -0.252  -0.820  1.6147 -1.2859 -1.4510
  935MOL0     H23389  10.566  -0.186  -0.979 -0.2863  0.7155  0.4158
  935MOL0     H23390  10.369  -0.127  -0.758 -2.8276  0.3092 -1.0134
  935MOL0     H23391  10.329  -0.205  -0.905 -2.2408  2.5516 -1.9232
  935MOL0     H23392  10.377   0.094  -0.858  0.2774  2.2686 -2.7465
  935MOL0     H23393  10.407   0.030  -1.022 -1.3168  3.4199 -1.2825
  935MOL0     H23394  10.164  -0.023  -0.845  0.2816  1.0618 -0.1299
  935MOL0     H23395  10.166  -0.051  -1.026 -0.8191  0.4203 -0.9453
  935MOL0     H23396  10.219   0.181  -1.078 -1.9046  3.6259 -0.7094
  935MOL0     H23397  10.217   0.228  -0.905  0.4306  0.1176  0.2599
  935MOL0     H23398  10.008   0.272  -1.031 -3.9190 -0.8710  0.9703
  935MOL0     H23399   9.995   0.109  -1.089 -0.8973  2.3208 -0.5184
  935MOL0     H23400   9.961   0.020  -0.869  4.0340  0.8875  1.2577
  935MOL0     H23401   9.836   0.147  -0.922 -0.9111 -0.2484 -0.4026
  935MOL0     H23402  10.816   0.151  -0.745 -0.1028 -0.5770 -1.1469
  935MOL0     H23403  10.996   0.210  -0.594 -2.2580  1.1125 -2.0599
  935MOL0     H23404  11.335  -0.106  -0.201 -3.4338  0.9676  1.6001
  935MOL0     H23405  11.525  -0.019  -0.072 -2.4183 -1.1774 -0.1364
  935MOL0     H23406  11.453   0.871   0.540 -0.4640 -0.2183  1.1524
  935MOL0     H23407  11.302   0.705   0.422 -2.7740 -0.3408  1.1269
  935MOL0     H23408  10.888   0.439   0.472 -2.5794 -0.7595  0.1021
  935MOL0     H23409  10.723   0.323   0.364  0.7289 -0.1163  1.0280
  935MOL0     H23410  10.489   0.351   0.208  0.2113 -1.9763  2.3420
  935MOL0     H23411  10.567   0.195   0.189 -1.3314 -0.4944 -0.7724
  935MOL0     H23412  10.480   0.225  -0.067  1.2139  0.4427  0.7643
  935MOL0     H23413  10.356   0.189   0.048  0.2375 -0.2921 -1.3167
  935MOL0     H23414  10.348   0.449   0.080  0.4370 -0.8702  1.0214
  935MOL0     H23415  10.258   0.366  -0.056 -0.0700  4.6819 -3.7099
  935MOL0     H23416  10.517   0.503  -0.099 -0.4556 -3.2999  2.0782
  935MOL0     H23417  10.408   0.415  -0.215 -1.1796 -4.3890  3.2049
  935MOL0     H23418  10.172   0.754  -0.147  3.4930  2.4835  2.5062
  935MOL0     H23419  10.773   0.568   0.001 -0.4396  0.4536 -0.0512
  935MOL0     H23420  10.934   0.689   0.117  1.0518  0.0419 -0.0546
  936MOL0     O23421   2.000  10.159   2.254 -0.3559 -0.1074  0.2108
  936MOL0     C23422   1.961  10.265   2.287  0.1586 -1.0445 -1.6611
  936MOL0     O23423   1.842  10.309   2.267  0.0147 -0.6520 -0.6665
  936MOL0     C23424   1.750  10.218   2.214 -0.1713 -0.4177 -0.3064
  936MOL0     C23425   1.755  10.156   2.087 -0.7871  0.1750 -0.0361
  936MOL0     C23426   1.658  10.073   2.040  0.1916  0.3072 -0.1824
  936MOL0     C23427   1.541  10.052   2.123 -0.5452 -0.2913  1.0509
  936MOL0     O23428   1.425   9.981   2.084  0.1037 -0.2343 -0.5355
  936MOL0     C23429   1.409   9.947   1.944  0.1451 -0.0950  0.1160
  936MOL0     C23430   1.262   9.924   1.909 -0.7060  0.1708 -0.1469
  936MOL0     C23431   1.211   9.786   1.953 -0.3341  0.8016 -0.2389
  936MOL0     C23432   1.062   9.794   1.991 -0.7659  0.4759 -0.4089
  936MOL0     C23433   0.975   9.803   1.862 -0.4804  0.8732  0.4909
  936MOL0     C23434   0.827   9.816   1.913 -0.2120  0.2226  0.0951
  936MOL0     C23435   0.712   9.830   1.817  0.0916  1.3511 -0.3660
  936MOL0     C23436   0.720   9.737   1.700  0.6249  0.7539 -0.2588
  936MOL0     N23437   0.592   9.746   1.631  0.0287  0.0941 -0.6118
  936MOL0     C23438   0.482   9.670   1.655  0.3874  0.0861  0.1030
  936MOL0     C23439   0.412   9.686   1.543  0.1551  0.4613  0.5383
  936MOL0     C23440   0.299   9.589   1.504 -0.1514  0.3245  0.1595
  936MOL0     C23441   0.205   9.569   1.613 -0.1307  0.8304  0.1994
  936MOL0     C23442   0.126   9.698   1.637 -0.1885 -0.3771  0.2668
  936MOL0     C23443   0.057   9.710   1.767  0.5064 -0.0459  1.0980
  936MOL0     O23444   0.148   9.682   1.878  0.4517 -0.2990 -0.2181
  936MOL0     C23445   0.234   9.773   1.933  0.3417  0.5685  0.0878
  936MOL0     C23446   0.265   9.896   1.876 -0.5541 -0.0344 -0.8363
  936MOL0     C23447   0.354   9.979   1.948  0.5375 -0.1815 -0.4370
  936MOL0     C23448   0.405   9.945   2.067  0.4873  0.0056  0.1342
  936MOL0     C23449   0.505  10.028   2.147 -0.0955 -0.6884  1.1798
  936MOL0     O23450   0.477  10.163   2.144  0.4660  0.3769  0.3711
  936MOL0     C23451   0.565  10.244   2.209  0.3538 -0.1503 -0.9825
  936MOL0     C23452   0.614  10.356   2.149  0.3084  0.6687  0.2157
  936MOL0     C23453   0.694  10.444   2.221 -0.4983  0.7898  0.8140
  936MOL0     C23454   0.709  10.420   2.361 -0.5145  0.4395 -0.1797
  936MOL0     O23455   0.782  10.509   2.449 -0.7637  0.7594  0.8375
  936MOL0     C23456   0.817  10.645   2.408  0.2296 -0.2471 -0.5815
  936MOL0     C23457   0.957  10.655   2.352  0.4537  0.2866 -0.0425
  936MOL0     C23458   1.070  10.636   2.460 -0.3823  0.1901  0.4924
  936MOL0     C23459   1.078  10.745   2.569 -0.9989  0.3778  0.5231
  936MOL0     C23460   1.207  10.750   2.641 -0.1045 -1.1433 -1.1686
  936MOL0     C23461   1.222  10.879   2.722  0.0555  0.5324 -0.3515
  936MOL0     C23462   1.333  10.876   2.818  0.4620 -0.4368  0.1723
  936MOL0     C23463   1.474  10.836   2.776  0.7072  0.3660  0.3770
  936MOL0    Cl23464   1.581  10.838   2.923 -0.3976 -0.0897 -0.1637
  936MOL0     C23465   0.657  10.313   2.422  0.2557  0.0412 -0.4149
  936MOL0     C23466   0.576  10.227   2.345 -0.3289  0.8341 -0.3983
  936MOL0     O23467   0.590   9.973   2.218  0.8017 -0.2087  0.5140
  936MOL0     C23468   0.376   9.819   2.123  0.7963 -0.1184  0.8967
  936MOL0     C23469   0.296   9.733   2.051 -0.5416  0.7150  0.5087
  936MOL0     N23470   0.460   9.792   1.473 -0.4523  0.6054  0.4742
  936MOL0     N23471   0.571   9.829   1.527 -0.7271  0.5472 -0.4124
  936MOL0     C23472   1.541  10.107   2.249  1.0101  1.0562 -0.6043
  936MOL0     C23473   1.642  10.194   2.295  0.6143 -0.0048 -0.7993
  936MOL0     C23474   2.061  10.364   2.343 -0.1134  0.4067 -0.1893
  936MOL0     C23475   2.024  10.497   2.359 -0.2467  0.5171  0.4252
  936MOL0     C23476   2.110  10.588   2.420  0.5685  0.4039 -0.0813
  936MOL0     C23477   2.234  10.552   2.473 -0.7031 -0.1575  0.3044
  936MOL0     O23478   2.318  10.633   2.537  0.2161 -0.6117  0.1995
  936MOL0     C23479   2.306  10.773   2.500 -0.4818 -1.1300  0.5949
  936MOL0     C23480   2.450  10.836   2.526  0.1535  0.0503  0.4964
  936MOL0     C23481   2.462  10.863   2.680  0.1682  0.6687 -0.0350
  936MOL0     C23482   2.603  10.864   2.731  0.3784  0.5225  0.5058
  936MOL0     C23483   2.699  10.934   2.637  0.3691  0.0441  0.6796
  936MOL0     C23484   2.775  10.982   2.553 -0.6174 -0.7505  0.0646
  936MOL0     C23485   2.279  10.418   2.452  1.1803  0.2738 -0.5107
  936MOL0     C23486   2.180  10.323   2.404 -0.2993 -0.3967  1.0494
  936MOL0     H23487   1.840  10.174   2.022  2.1831  0.0452  3.4479
  936MOL0     H23488   1.678  10.031   1.942  0.3425  0.5949 -0.2750
  936MOL0     H23489   1.457   9.853   1.916 -0.0978  0.1467 -1.1734
  936MOL0     H23490   1.450  10.035   1.893 -1.8023  0.7263 -0.1285
  936MOL0     H23491   1.255   9.924   1.800 -3.9400 -3.0836 -0.1216
  936MOL0     H23492   1.202  10.004   1.953  0.4076  3.0097 -3.3608
  936MOL0     H23493   1.264   9.751   2.042 -0.5679  2.0152  0.4000
  936MOL0     H23494   1.231   9.708   1.880 -0.8268  1.5088 -1.1482
  936MOL0     H23495   1.025   9.702   2.038 -1.5251  0.2529 -1.4123
  936MOL0     H23496   1.047   9.881   2.056 -1.1958  1.6852 -2.0735
  936MOL0     H23497   0.991   9.725   1.788  0.2764  0.5987  0.9402
  936MOL0     H23498   1.012   9.888   1.804  0.7046 -0.5020 -0.8144
  936MOL0     H23499   0.820   9.886   1.996  0.0178 -0.5231  0.7510
  936MOL0     H23500   0.791   9.726   1.963 -3.4850  1.9422  1.1440
  936MOL0     H23501   0.623   9.821   1.881  1.5069 -0.0075  1.5180
  936MOL0     H23502   0.711   9.933   1.781 -0.4212  1.6745  0.5340
  936MOL0     H23503   0.721   9.633   1.733  0.9644  1.4336  2.0751
  936MOL0     H23504   0.811   9.762   1.646  0.9357  0.9887  0.3642
  936MOL0     H23505   0.464   9.590   1.726  3.5976 -1.8878 -1.1053
  936MOL0     H23506   0.346   9.492   1.485 -2.1209 -0.2770 -2.2259
  936MOL0     H23507   0.247   9.613   1.410 -0.6756 -0.5475  0.2101
  936MOL0     H23508   0.254   9.536   1.705  0.6879 -1.5009 -0.9932
  936MOL0     H23509   0.136   9.491   1.578  0.8314  0.2916 -0.5339
  936MOL0     H23510   0.195   9.783   1.632  0.7344 -1.1614 -0.7456
  936MOL0     H23511   0.058   9.714   1.553  1.5534  0.9299 -0.9645
  936MOL0     H23512  -0.024   9.637   1.772  1.4771 -1.1646  1.0675
  936MOL0     H23513   0.015   9.811   1.762  2.3782  0.7230 -2.1565
  936MOL0     H23514   0.214   9.939   1.791  1.0367  0.3918 -1.6188
  936MOL0     H23515   0.376  10.075   1.903 -0.7719 -1.2903 -3.7300
  936MOL0     H23516   0.595  10.371   2.043  0.7984  2.2188  0.3097
  936MOL0     H23517   0.740  10.525   2.165  0.8961 -1.7722 -1.9669
  936MOL0     H23518   0.807  10.700   2.502 -1.7135  0.6188 -1.2521
  936MOL0     H23519   0.742  10.682   2.338  1.0718 -1.2726 -2.0600
  936MOL0     H23520   0.965  10.749   2.298  0.1875 -0.3978 -1.3243
  936MOL0     H23521   0.971  10.577   2.276 -1.2933  2.4135 -2.7255
  936MOL0     H23522   1.169  10.640   2.413  0.1194 -1.2610  1.3539
  936MOL0     H23523   1.060  10.536   2.502  1.7135  0.1441  0.9864
  936MOL0     H23524   1.078  10.845   2.524  0.3792 -0.1340 -0.6644
  936MOL0     H23525   0.986  10.747   2.629 -3.2129 -1.3384 -2.5020
  936MOL0     H23526   1.296  10.749   2.577  1.1063  1.7215  0.2920
  936MOL0     H23527   1.201  10.666   2.711 -0.4962 -0.8870 -0.8891
  936MOL0     H23528   1.134  10.888   2.787  0.1701 -0.1794 -0.0904
  936MOL0     H23529   1.224  10.968   2.658  0.2006  2.1897  1.8419
  936MOL0     H23530   1.324  10.971   2.873 -0.4499  0.9096 -2.1848
  936MOL0     H23531   1.294  10.800   2.886  0.4751 -0.9581 -0.3996
  936MOL0     H23532   1.507  10.903   2.696  0.4354 -1.8038 -1.6957
  936MOL0     H23533   1.487  10.734   2.737  3.4877  0.1253  1.7152
  936MOL0     H23534   0.667  10.301   2.529  2.3841 -0.6225 -0.6352
  936MOL0     H23535   0.528  10.152   2.407 -0.1899  0.9520 -0.1512
  936MOL0     H23536   0.417   9.786   2.217 -0.0746  2.2868  2.2075
  936MOL0     H23537   0.272   9.643   2.106  0.1190  1.2498  1.7242
  936MOL0     H23538   1.458  10.086   2.316 -0.6374  2.4278 -2.1089
  936MOL0     H23539   1.647  10.249   2.389  0.4904  2.8263 -2.3466
  936MOL0     H23540   1.945  10.540   2.298  1.2977 -0.5299 -2.5227
  936MOL0     H23541   2.082  10.693   2.417 -1.6865 -0.1237  0.2337
  936MOL0     H23542   2.238  10.834   2.562  1.4989  0.3414  1.4284
  936MOL0     H23543   2.300  10.801   2.394  0.2887  2.2245  1.3163
  936MOL0     H23544   2.528  10.775   2.479  1.0403  1.5875 -0.0830
  936MOL0     H23545   2.464  10.928   2.470 -1.8174 -0.5866 -1.1575
  936MOL0     H23546   2.426  10.780   2.742 -2.4605  1.2321 -0.6652
  936MOL0     H23547   2.406  10.955   2.701 -2.2804  0.1376 -3.4397
  936MOL0     H23548   2.609  10.911   2.829  1.0768  2.3366 -0.3581
  936MOL0     H23549   2.627  10.758   2.740 -1.6495  0.0604  1.0738
  936MOL0     H23550   2.855  11.024   2.496 -0.3295 -2.8907 -1.2237
  936MOL0     H23551   2.369  10.389   2.504 -0.7180 -0.1545  2.8806
  936MOL0     H23552   2.205  10.218   2.402 -0.7139 -0.4797 -0.2666
  937MOL0     O23553   3.331   2.215   4.150  0.3477  0.8449 -0.5583
  937MOL0     C23554   3.381   2.275   4.254  1.5615  0.4081  0.1297
  937MOL0     O23555   3.487   2.220   4.335  0.2018  0.1723  0.4472
  937MOL0     C23556   3.544   2.102   4.304 -0.2644  0.1955 -0.0895
  937MOL0     C23557   3.534   2.020   4.196  0.0944 -0.2650 -0.3440
  937MOL0     C23558   3.595   1.898   4.188  0.9043 -0.3836  0.0334
  937MOL0     C23559   3.671   1.854   4.291 -0.7174 -0.2069  0.3854
  937MOL0     O23560   3.728   1.732   4.281 -0.3440  0.4043 -0.4019
  937MOL0     C23561   3.871   1.724   4.272 -0.1253  0.3707 -0.7430
  937MOL0     C23562   3.923   1.683   4.133  0.3240 -0.5543  0.2251
  937MOL0     C23563   3.887   1.784   4.013  0.4389  0.6489 -0.1078
  937MOL0     C23564   3.947   1.732   3.883 -0.4532 -0.7932  0.6129
  937MOL0     C23565   3.894   1.827   3.770 -0.4500  0.0423  0.1663
  937MOL0     C23566   3.971   1.961   3.772  0.0768 -0.1415  0.3162
  937MOL0     C23567   3.974   2.036   3.633  0.1081  0.0456  0.8249
  937MOL0     C23568   3.840   2.091   3.585 -0.4395  0.4042 -0.4106
  937MOL0     N23569   3.785   2.178   3.687  0.0809  0.1824 -0.3430
  937MOL0     C23570   3.727   2.156   3.811 -0.1160  0.6492 -0.2395
  937MOL0     C23571   3.711   2.276   3.874 -0.5799  0.0305  0.2444
  937MOL0     C23572   3.623   2.296   3.995 -0.9558  0.6341 -0.2509
  937MOL0     C23573   3.579   2.448   4.020  0.2585  0.1678 -0.6623
  937MOL0     C23574   3.492   2.502   3.902  0.0107  0.0166  0.1912
  937MOL0     C23575   3.350   2.544   3.961  0.1494 -0.0696 -0.0828
  937MOL0     O23576   3.270   2.583   3.839 -0.8345  0.2881  0.1271
  937MOL0     C23577   3.143   2.617   3.868 -0.0272  0.4111  0.3392
  937MOL0     C23578   3.088   2.728   3.811 -0.2190  0.1074 -0.9467
  937MOL0     C23579   2.963   2.779   3.841 -0.0577  0.4861 -1.0302
  937MOL0     C23580   2.880   2.703   3.937 -0.6539 -0.4232  0.1229
  937MOL0     C23581   2.747   2.760   3.984  0.3929  0.0891  0.1974
  937MOL0     O23582   2.678   2.804   3.878 -0.2069  0.3333 -0.5090
  937MOL0     C23583   2.552   2.878   3.884  0.9623  0.2612  0.5342
  937MOL0     C23584   2.452   2.863   3.981  0.6423  0.1504 -0.4633
  937MOL0     C23585   2.335   2.939   3.977  0.3784 -0.4470  0.4489
  937MOL0     C23586   2.311   3.026   3.872  0.5730  0.0361 -0.6180
  937MOL0     O23587   2.192   3.097   3.876  0.1441 -0.2921 -0.7019
  937MOL0     C23588   2.192   3.236   3.847  0.1400  0.6252 -0.8606
  937MOL0     C23589   2.213   3.315   3.982  0.7606 -0.1271 -0.4816
  937MOL0     C23590   2.202   3.466   3.952 -0.1895  0.6759  0.0821
  937MOL0     C23591   2.193   3.564   4.074  0.1982 -1.2021 -0.6400
  937MOL0     C23592   2.320   3.552   4.164 -0.6071  0.7370  0.0228
  937MOL0     C23593   2.318   3.618   4.297 -0.2058  0.0258 -0.1977
  937MOL0     C23594   2.451   3.594   4.367  0.0402  0.3046 -0.6753
  937MOL0     C23595   2.469   3.660   4.503 -1.0480  0.7189  0.2791
  937MOL0    Cl23596   2.612   3.578   4.584  0.1279 -0.0941 -0.6014
  937MOL0     C23597   2.408   3.041   3.777 -0.0056  0.3489 -0.1381
  937MOL0     C23598   2.535   2.969   3.788  1.0530 -0.7761  0.2758
  937MOL0     O23599   2.697   2.734   4.092 -0.0455  0.2052  0.2212
  937MOL0     C23600   2.934   2.582   3.985 -0.4867 -0.3978 -0.5320
  937MOL0     C23601   3.061   2.538   3.948  0.0069  0.0029 -0.0985
  937MOL0     N23602   3.763   2.374   3.793  0.1554 -0.4761  0.2972
  937MOL0     N23603   3.798   2.314   3.679  0.1137  0.3256 -1.0240
  937MOL0     C23604   3.690   1.933   4.403  0.2649 -0.0131 -0.7046
  937MOL0     C23605   3.633   2.061   4.402 -0.2162 -0.0006  0.1040
  937MOL0     C23606   3.310   2.399   4.297  0.0875  0.4825  0.2776
  937MOL0     C23607   3.178   2.434   4.274 -0.2362 -0.0632  0.3367
  937MOL0     C23608   3.116   2.551   4.328  0.0489  0.3035  0.2673
  937MOL0     C23609   3.191   2.645   4.399  0.6732  0.6224  0.1531
  937MOL0     O23610   3.137   2.760   4.455 -0.6615  0.4859 -0.0726
  937MOL0     C23611   3.166   2.885   4.393  0.0009 -0.4958  0.0270
  937MOL0     C23612   3.112   2.897   4.254 -0.2261  0.9874 -0.5632
  937MOL0     C23613   3.153   3.036   4.207 -0.0371  0.0554  0.5620
  937MOL0     C23614   3.098   3.070   4.074  0.0858  0.2509 -0.6056
  937MOL0     C23615   2.959   3.088   4.084  0.3882 -0.2384 -0.4981
  937MOL0     C23616   2.838   3.103   4.081 -0.2391 -0.5916 -1.3008
  937MOL0     C23617   3.321   2.610   4.427 -0.7898 -0.4404  0.9981
  937MOL0     C23618   3.382   2.494   4.375 -0.2909  0.1938  0.1042
  937MOL0     H23619   3.481   2.055   4.108 -1.5502  0.1253  0.7691
  937MOL0     H23620   3.595   1.842   4.094  2.2702  1.8683 -1.3947
  937MOL0     H23621   3.908   1.659   4.352 -1.1835  2.9256  1.9931
  937MOL0     H23622   3.915   1.823   4.284  0.6680 -0.0050 -0.4596
  937MOL0     H23623   3.882   1.584   4.112  2.2732 -1.2953 -0.3828
  937MOL0     H23624   4.032   1.671   4.143  0.3028 -0.5492  0.4514
  937MOL0     H23625   3.905   1.890   4.033  2.5187  0.6379 -1.5059
  937MOL0     H23626   3.781   1.767   3.995  0.7939  0.3401 -2.1519
  937MOL0     H23627   4.056   1.718   3.887 -0.3294  0.3261  2.3276
  937MOL0     H23628   3.914   1.632   3.856 -0.1032 -1.0146  0.9946
  937MOL0     H23629   3.786   1.837   3.785 -0.8598 -3.7627  0.8188
  937MOL0     H23630   3.906   1.783   3.671 -1.5998  0.0192  0.0227
  937MOL0     H23631   4.076   1.940   3.795 -0.6419  0.0459  4.3963
  937MOL0     H23632   3.934   2.027   3.850 -0.0164  1.9882 -1.4151
  937MOL0     H23633   4.041   2.122   3.631 -0.7367  0.8485 -3.2159
  937MOL0     H23634   4.017   1.967   3.559  2.4471  1.9517  0.2820
  937MOL0     H23635   3.768   2.013   3.556  1.0362 -1.5258  0.8159
  937MOL0     H23636   3.864   2.147   3.494 -0.5738 -1.5493 -1.7174
  937MOL0     H23637   3.714   2.061   3.862 -0.0226  1.7348  1.9285
  937MOL0     H23638   3.684   2.262   4.079 -0.3081 -2.3958 -1.7972
  937MOL0     H23639   3.535   2.233   3.981 -1.4556  0.6636  2.3720
  937MOL0     H23640   3.666   2.515   4.025 -0.4179  1.3155 -3.0028
  937MOL0     H23641   3.520   2.460   4.111 -1.1407  3.9104 -1.8730
  937MOL0     H23642   3.532   2.590   3.852 -1.8474  0.1373 -1.2299
  937MOL0     H23643   3.485   2.423   3.827  1.7429 -0.6059  0.6381
  937MOL0     H23644   3.360   2.628   4.031  3.0571 -1.7421  1.6664
  937MOL0     H23645   3.298   2.456   3.998  0.7263 -3.7214 -6.5325
  937MOL0     H23646   3.154   2.779   3.741  1.0241  0.8718  0.7134
  937MOL0     H23647   2.914   2.855   3.781  1.6232  2.0131 -0.5542
  937MOL0     H23648   2.446   2.784   4.056 -0.7676  1.0313  0.3842
  937MOL0     H23649   2.260   2.941   4.055 -1.5994  1.3529 -1.3520
  937MOL0     H23650   2.093   3.242   3.803 -0.1503 -2.2575 -0.8039
  937MOL0     H23651   2.270   3.276   3.781  0.9891 -0.6793 -0.6894
  937MOL0     H23652   2.315   3.303   4.019  0.6344  2.8396  1.1799
  937MOL0     H23653   2.140   3.302   4.061 -0.4743 -0.6995 -1.6722
  937MOL0     H23654   2.120   3.485   3.882  1.2168  2.1172 -1.2696
  937MOL0     H23655   2.286   3.504   3.894  0.8159  1.5278  2.0194
  937MOL0     H23656   2.187   3.666   4.035 -2.1653 -1.1536 -0.2546
  937MOL0     H23657   2.105   3.548   4.137  0.5948  0.6460  0.4630
  937MOL0     H23658   2.411   3.578   4.109 -1.0129 -1.1377 -1.6691
  937MOL0     H23659   2.325   3.443   4.170  0.9460  0.6740 -1.6089
  937MOL0     H23660   2.232   3.583   4.354 -0.0583  1.0963  0.7154
  937MOL0     H23661   2.306   3.727   4.297  1.2328  0.2733  2.0792
  937MOL0     H23662   2.454   3.487   4.387  0.8314  0.4700  0.1740
  937MOL0     H23663   2.546   3.624   4.321  0.5422  2.3780  1.4767
  937MOL0     H23664   2.375   3.650   4.558 -1.1820  1.7152  0.2520
  937MOL0     H23665   2.484   3.768   4.493 -2.2350  0.7768 -1.2102
  937MOL0     H23666   2.395   3.099   3.686 -0.1686 -0.5421 -0.6968
  937MOL0     H23667   2.607   2.983   3.708 -2.1231 -3.3950 -3.4512
  937MOL0     H23668   2.887   2.530   4.068  1.8666 -1.6418  0.1150
  937MOL0     H23669   3.083   2.438   3.984 -1.5951 -0.2521  0.2740
  937MOL0     H23670   3.736   1.897   4.494 -1.2396  0.5941  0.3350
  937MOL0     H23671   3.642   2.128   4.487 -0.1693 -1.5661  1.3726
  937MOL0     H23672   3.128   2.380   4.194  1.7973  0.8612 -1.6598
  937MOL0     H23673   3.009   2.566   4.319 -0.2969 -2.1131 -0.3601
  937MOL0     H23674   3.274   2.900   4.391 -0.0932  0.2406  0.1144
  937MOL0     H23675   3.122   2.967   4.450 -0.4776 -1.0675  0.4939
  937MOL0     H23676   3.156   2.817   4.194  0.3726 -0.3550  1.5421
  937MOL0     H23677   3.004   2.880   4.265  0.0719 -0.8785 -0.1880
  937MOL0     H23678   3.262   3.036   4.203 -0.0225 -1.5620  0.4527
  937MOL0     H23679   3.130   3.119   4.276  2.9932  0.8254  0.7702
  937MOL0     H23680   3.151   3.154   4.028  0.0329  1.5012  1.4653
  937MOL0     H23681   3.115   2.990   4.002 -0.8724  1.5331 -2.3189
  937MOL0     H23682   2.735   3.123   4.061 -0.2361  1.2320  0.1361
  937MOL0     H23683   3.382   2.675   4.488 -3.2535 -1.2272  4.5727
  937MOL0     H23684   3.488   2.483   4.393 -0.4513 -1.0613  0.3646
  938MOL0     O23685   5.440   1.576   7.142  0.9463  0.0744 -0.2169
  938MOL0     C23686   5.510   1.473   7.123  0.6010 -1.0713 -0.2462
  938MOL0     O23687   5.647   1.473   7.098  0.3489 -0.1627 -0.5107
  938MOL0     C23688   5.728   1.584   7.088  0.4358  0.8339 -0.4092
  938MOL0     C23689   5.832   1.567   7.004 -0.4921 -0.0792  0.4910
  938MOL0     C23690   5.923   1.672   6.969 -0.1999  0.2645  0.0429
  938MOL0     C23691   5.912   1.799   7.032  0.2757 -0.9559  0.5188
  938MOL0     O23692   6.002   1.898   6.992  0.0876  0.5164 -0.1990
  938MOL0     C23693   6.064   1.984   7.090 -0.3262  1.0214  1.2199
  938MOL0     C23694   6.166   2.082   7.036 -0.4048 -0.1181 -0.4063
  938MOL0     C23695   6.308   2.049   7.064 -0.4411 -0.2025  0.4392
  938MOL0     C23696   6.402   2.159   7.007  1.4587  0.4510 -0.6171
  938MOL0     C23697   6.545   2.114   7.042 -0.3290 -0.6089  0.3563
  938MOL0     C23698   6.584   2.128   7.189  0.1593 -0.1742 -0.8278
  938MOL0     C23699   6.735   2.138   7.218  0.2128 -0.4301 -0.0131
  938MOL0     C23700   6.763   2.147   7.371  0.2728  0.9499  0.1440
  938MOL0     N23701   6.911   2.135   7.378 -0.3865 -0.3627  0.0042
  938MOL0     C23702   6.997   2.039   7.338 -0.7254  0.0374  0.4780
  938MOL0     C23703   7.118   2.080   7.377 -0.0357  0.8364 -1.0797
  938MOL0     C23704   7.236   2.001   7.358  0.3271 -0.3028  0.3088
  938MOL0     C23705   7.264   1.902   7.477 -0.1708 -0.0217 -1.6202
  938MOL0     C23706   7.255   1.967   7.615  0.2635 -0.7648  0.4900
  938MOL0     C23707   7.362   2.072   7.628  0.0942 -0.3209 -0.0102
  938MOL0     O23708   7.398   2.054   7.765 -0.3528  0.7502 -0.1483
  938MOL0     C23709   7.536   2.058   7.792 -0.3386  0.1529 -0.6032
  938MOL0     C23710   7.580   2.157   7.872  0.1606  0.7377  0.3677
  938MOL0     C23711   7.712   2.146   7.917  0.1700  0.0077  0.4876
  938MOL0     C23712   7.805   2.044   7.876 -0.2814  0.3694  0.3018
  938MOL0     C23713   7.939   2.043   7.917 -0.4928 -1.0076 -0.1222
  938MOL0     O23714   7.990   2.180   7.936  0.4812  0.1863 -1.1340
  938MOL0     C23715   8.126   2.199   7.933 -0.3981 -0.9442  0.6958
  938MOL0     C23716   8.160   2.300   8.026  0.0348 -0.2554  0.3886
  938MOL0     C23717   8.290   2.339   8.032 -0.5687 -0.5871  1.1477
  938MOL0     C23718   8.389   2.291   7.944  0.3441  0.3901 -0.3490
  938MOL0     O23719   8.521   2.325   7.940 -0.1959  0.6282 -0.2970
  938MOL0     C23720   8.570   2.426   8.026 -0.3180  0.2468  0.1940
  938MOL0     C23721   8.721   2.448   8.006  0.2601  0.4118 -1.1438
  938MOL0     C23722   8.790   2.533   8.124  0.3564  0.2907  0.1532
  938MOL0     C23723   8.769   2.687   8.107  0.1455 -0.2959 -0.6492
  938MOL0     C23724   8.845   2.775   8.203 -0.5153  0.1134 -0.3660
  938MOL0     C23725   8.839   2.744   8.350  0.8867  0.1240  0.3006
  938MOL0     C23726   8.948   2.803   8.435  0.2811 -0.3956  0.6581
  938MOL0     C23727   8.917   2.767   8.579 -0.0658  0.1555  0.0486
  938MOL0    Cl23728   9.052   2.837   8.684  0.0922 -0.2010  0.4053
  938MOL0     C23729   8.356   2.179   7.862 -0.6962  0.2317  0.1485
  938MOL0     C23730   8.220   2.128   7.862 -0.4723 -1.1488  0.9174
  938MOL0     O23731   8.009   1.944   7.925  0.3884  0.5558 -0.1004
  938MOL0     C23732   7.744   1.946   7.798 -0.1083  0.3807 -0.0403
  938MOL0     C23733   7.616   1.950   7.754 -0.2039 -0.2146  0.8346
  938MOL0     N23734   7.121   2.213   7.433  0.7767 -0.1665 -0.9540
  938MOL0     N23735   6.991   2.242   7.435 -1.3117  0.8667  0.9366
  938MOL0     C23736   5.804   1.820   7.124  0.0495  0.1537  0.2499
  938MOL0     C23737   5.714   1.711   7.149  1.4325 -0.7139  0.4595
  938MOL0     C23738   5.437   1.343   7.130  0.2380 -0.6055 -0.0282
  938MOL0     C23739   5.494   1.242   7.198  0.5800 -0.5088 -0.4016
  938MOL0     C23740   5.421   1.122   7.217 -0.2558 -0.1811  0.6339
  938MOL0     C23741   5.287   1.111   7.174 -1.0841 -0.2947 -0.8270
  938MOL0     O23742   5.219   0.992   7.185  0.1563 -0.0402 -0.4913
  938MOL0     C23743   5.123   0.948   7.086  0.0992  0.3311  0.0373
  938MOL0     C23744   5.158   0.935   6.938 -0.2272  0.2486 -0.4831
  938MOL0     C23745   5.232   0.807   6.909 -0.1246  0.8710 -0.7340
  938MOL0     C23746   5.342   0.763   7.000  0.4982  0.5373  0.1269
  938MOL0     C23747   5.467   0.842   6.990  1.0849 -0.6659  0.3092
  938MOL0     C23748   5.567   0.915   6.969 -0.8911 -0.5578  0.0113
  938MOL0     C23749   5.228   1.224   7.120  0.3743  0.2196 -0.0843
  938MOL0     C23750   5.300   1.340   7.094  0.4181  0.3146 -0.5645
  938MOL0     H23751   5.849   1.469   6.962  2.3166  0.9245 -0.9872
  938MOL0     H23752   5.998   1.659   6.892  0.3168  2.7793  0.0455
  938MOL0     H23753   6.108   1.919   7.167 -3.3024 -1.1513  1.2676
  938MOL0     H23754   5.988   2.039   7.147 -1.7648 -0.3311  0.6825
  938MOL0     H23755   6.153   2.180   7.084 -0.3266 -0.9870  1.4970
  938MOL0     H23756   6.156   2.095   6.928 -0.2930  0.6875 -0.3275
  938MOL0     H23757   6.336   1.957   7.012 -0.6046  0.0045 -0.0122
  938MOL0     H23758   6.316   2.041   7.173  1.3850  1.4992  0.4713
  938MOL0     H23759   6.387   2.181   6.901 -0.9093  0.3767 -0.3491
  938MOL0     H23760   6.379   2.256   7.053 -1.1149 -0.4305  0.1575
  938MOL0     H23761   6.610   2.180   6.984  2.9206 -2.3142  1.8200
  938MOL0     H23762   6.564   2.012   7.006  3.1048  0.2778 -0.7746
  938MOL0     H23763   6.544   2.042   7.245  0.3819 -0.0680 -0.5011
  938MOL0     H23764   6.539   2.214   7.239  1.3501 -1.3348  2.5470
  938MOL0     H23765   6.788   2.051   7.178 -1.4067 -1.8311  0.7510
  938MOL0     H23766   6.781   2.224   7.170  0.1212 -0.1891  0.3231
  938MOL0     H23767   6.721   2.060   7.422  0.3677  2.5893  3.2380
  938MOL0     H23768   6.722   2.237   7.418 -0.0397 -0.3935  2.5847
  938MOL0     H23769   6.982   1.938   7.302  1.1114 -0.0173 -0.2237
  938MOL0     H23770   7.308   2.080   7.338 -2.9088  2.0839 -3.1996
  938MOL0     H23771   7.233   1.947   7.263 -0.5657 -0.8164  0.6057
  938MOL0     H23772   7.367   1.869   7.461 -0.3678 -0.8533 -1.2777
  938MOL0     H23773   7.205   1.809   7.477  0.5194 -0.5337  1.2181
  938MOL0     H23774   7.160   2.020   7.628  1.2593  0.6032  2.7774
  938MOL0     H23775   7.263   1.891   7.693 -1.7759 -1.8219 -0.2570
  938MOL0     H23776   7.334   2.178   7.625  1.1892  0.0420  1.2574
  938MOL0     H23777   7.439   2.055   7.552  1.6020 -1.7189  1.7069
  938MOL0     H23778   7.510   2.237   7.896 -0.6028  0.2525 -0.1827
  938MOL0     H23779   7.739   2.228   7.984 -2.8717  2.4375 -0.9765
  938MOL0     H23780   8.089   2.347   8.094  1.6910 -0.6403  2.4983
  938MOL0     H23781   8.309   2.414   8.108 -0.6734 -0.1924  0.7890
  938MOL0     H23782   8.547   2.391   8.127  1.8917  1.8360  1.3320
  938MOL0     H23783   8.524   2.522   8.000  2.2743  1.6912  0.5684
  938MOL0     H23784   8.737   2.492   7.907 -1.6589  2.1332 -0.7447
  938MOL0     H23785   8.767   2.349   7.995 -2.6143 -1.4462  1.6937
  938MOL0     H23786   8.890   2.496   8.148 -0.9700 -2.3481  2.0982
  938MOL0     H23787   8.746   2.506   8.220 -0.4395  2.0914  0.3266
  938MOL0     H23788   8.789   2.712   8.003  2.1445 -0.3937 -0.3240
  938MOL0     H23789   8.663   2.711   8.120  1.1719  4.4678  0.5704
  938MOL0     H23790   8.812   2.879   8.205 -3.5210 -0.6980 -1.6740
  938MOL0     H23791   8.950   2.776   8.174 -0.4722 -3.3988 -0.8030
  938MOL0     H23792   8.841   2.636   8.367 -1.1841 -0.0674 -0.3710
  938MOL0     H23793   8.742   2.781   8.385  0.4149 -0.6357 -0.1719
  938MOL0     H23794   9.042   2.761   8.399 -1.7527 -3.4280 -1.5826
  938MOL0     H23795   8.939   2.911   8.418 -1.3764 -0.4955  0.6991
  938MOL0     H23796   8.916   2.659   8.599  0.9763 -0.8461 -4.2945
  938MOL0     H23797   8.823   2.812   8.612 -0.6584 -1.7813  1.1870
  938MOL0     H23798   8.444   2.136   7.815 -0.4440  0.3382  0.5206
  938MOL0     H23799   8.189   2.040   7.806 -0.6300 -0.1174 -0.6732
  938MOL0     H23800   7.816   1.872   7.764  1.4179  1.1216  1.4305
  938MOL0     H23801   7.576   1.877   7.685  0.6827  0.3848 -0.3600
  938MOL0     H23802   5.787   1.918   7.167  0.7938 -0.5222  2.2066
  938MOL0     H23803   5.638   1.720   7.226 -0.1976 -0.8445 -1.0630
  938MOL0     H23804   5.600   1.252   7.218  0.3883  3.1845 -0.4555
  938MOL0     H23805   5.484   1.039   7.248  0.7195 -0.6455 -2.2712
  938MOL0     H23806   5.044   1.023   7.095  0.8632  1.8640 -4.0743
  938MOL0     H23807   5.084   0.851   7.118  2.7215 -0.4340  1.2360
  938MOL0     H23808   5.075   0.945   6.868 -0.3077  2.0066 -0.1778
  938MOL0     H23809   5.227   1.017   6.917  0.6170 -0.3482 -0.1093
  938MOL0     H23810   5.258   0.814   6.803 -4.4864 -3.5637 -2.5250
  938MOL0     H23811   5.164   0.720   6.911 -1.4040  1.8506  1.0625
  938MOL0     H23812   5.306   0.758   7.103 -2.5834 -0.0960 -0.8781
  938MOL0     H23813   5.374   0.669   6.953  0.8572  0.5818  0.2787
  938MOL0     H23814   5.635   0.985   6.925 -1.7187  1.1891  1.3902
  938MOL0     H23815   5.122   1.214   7.099  0.8200 -0.5959 -2.1370
  938MOL0     H23816   5.247   1.422   7.046 -1.3711 -0.8471 -0.6747
  939MOL0     O23817   2.522   2.956   5.860 -0.2551  0.4710 -0.3749
  939MOL0     C23818   2.620   2.930   5.786  0.2569 -0.1255  0.2322
  939MOL0     O23819   2.627   2.819   5.706  0.0977 -0.9736 -0.2809
  939MOL0     C23820   2.526   2.734   5.733  0.0980  0.0767 -0.0249
  939MOL0     C23821   2.443   2.724   5.622  0.7325 -0.9087 -0.1267
  939MOL0     C23822   2.336   2.624   5.631  1.1167 -0.6918  0.5534
  939MOL0     C23823   2.300   2.556   5.748  0.9192 -0.1687 -0.5012
  939MOL0     O23824   2.192   2.483   5.761 -0.0190  0.4855 -0.1467
  939MOL0     C23825   2.074   2.515   5.689  0.7034  0.3011  0.1342
  939MOL0     C23826   1.952   2.443   5.754  0.1007 -0.3012  0.8094
  939MOL0     C23827   1.815   2.480   5.685  0.8766  0.4264  0.0770
  939MOL0     C23828   1.691   2.403   5.736 -0.5486 -0.9620 -0.0081
  939MOL0     C23829   1.570   2.504   5.761  0.6142  1.0337 -0.4279
  939MOL0     C23830   1.447   2.431   5.809 -0.7394  0.1746  1.2056
  939MOL0     C23831   1.342   2.536   5.860  0.5797 -0.3435 -0.2169
  939MOL0     C23832   1.275   2.614   5.744 -0.0491  0.3604 -0.5023
  939MOL0     N23833   1.146   2.655   5.784  0.7920 -0.2619  0.8055
  939MOL0     C23834   1.031   2.575   5.765  0.0534  0.4705  0.2042
  939MOL0     C23835   0.937   2.633   5.840  0.0173 -0.4083 -0.4576
  939MOL0     C23836   0.796   2.578   5.858 -0.3752 -0.7510 -0.3752
  939MOL0     C23837   0.785   2.495   5.984 -0.4252  0.0930 -1.1582
  939MOL0     C23838   0.848   2.556   6.113  0.6179  0.1377  0.1809
  939MOL0     C23839   0.831   2.441   6.219  0.9807  0.0526  0.5006
  939MOL0     O23840   0.874   2.487   6.343  0.4136  0.2024  0.5265
  939MOL0     C23841   0.848   2.417   6.462  0.4042 -0.8920  0.8336
  939MOL0     C23842   0.883   2.487   6.570 -0.6960  0.6357  0.6604
  939MOL0     C23843   0.870   2.419   6.693 -0.9656 -0.2994  0.6980
  939MOL0     C23844   0.804   2.292   6.707  1.2655 -0.1353 -0.2740
  939MOL0     C23845   0.780   2.236   6.842  0.7145 -1.6268  1.1484
  939MOL0     O23846   0.684   2.134   6.830  0.5098  0.2671 -0.0918
  939MOL0     C23847   0.638   2.078   6.942 -0.1541  0.6400 -1.0808
  939MOL0     C23848   0.500   2.093   6.967 -0.0731 -0.1155 -1.3232
  939MOL0     C23849   0.445   2.019   7.081 -0.0295 -0.4094  0.1448
  939MOL0     C23850   0.537   1.950   7.162  0.6890 -0.1245 -1.2988
  939MOL0     O23851   0.487   1.905   7.283  0.4356 -0.1173  0.0451
  939MOL0     C23852   0.559   1.806   7.356  0.3063  0.4107  0.1645
  939MOL0     C23853   0.471   1.756   7.467  0.1115  0.0839  0.0762
  939MOL0     C23854   0.342   1.701   7.403  0.2336  0.8158  0.5097
  939MOL0     C23855   0.262   1.637   7.527  0.5387 -0.0896  0.0643
  939MOL0     C23856   0.127   1.574   7.471  0.1299 -1.5773 -0.5380
  939MOL0     C23857   0.029   1.525   7.579  0.5860 -0.2703  0.1973
  939MOL0     C23858  -0.117   1.578   7.551  0.3723 -0.2872  0.1204
  939MOL0     C23859  -0.205   1.546   7.675 -0.2065  0.5198 -0.4002
  939MOL0    Cl23860  -0.213   1.376   7.734  0.0206  0.0953 -0.1613
  939MOL0     C23861   0.677   1.956   7.141 -0.2972 -0.6452 -0.4370
  939MOL0     C23862   0.730   2.007   7.026 -0.4699 -0.7903  0.3725
  939MOL0     O23863   0.835   2.271   6.944  0.3862 -0.2245  0.1696
  939MOL0     C23864   0.786   2.218   6.591 -0.5336 -0.1816  0.3479
  939MOL0     C23865   0.816   2.281   6.468  0.0136 -0.6761  0.1858
  939MOL0     N23866   0.989   2.752   5.895  0.6412 -0.9805 -0.0097
  939MOL0     N23867   1.112   2.767   5.859 -0.0242  0.4129  0.0979
  939MOL0     C23868   2.389   2.585   5.856 -0.3154 -0.3320 -0.4186
  939MOL0     C23869   2.507   2.660   5.849  0.1062 -0.5651 -0.7767
  939MOL0     C23870   2.727   3.023   5.770  0.3746  0.8671  0.2595
  939MOL0     C23871   2.745   3.137   5.853  0.5411 -0.5317 -0.1747
  939MOL0     C23872   2.852   3.231   5.835  0.1873  0.8080 -0.1840
  939MOL0     C23873   2.944   3.199   5.736 -0.2841 -0.0060 -0.3237
  939MOL0     O23874   3.062   3.276   5.713 -0.6082  0.2061  0.2936
  939MOL0     C23875   3.129   3.322   5.826 -0.1596 -0.5400 -0.4330
  939MOL0     C23876   3.273   3.342   5.780 -0.4724 -0.5087 -0.6493
  939MOL0     C23877   3.361   3.390   5.893 -0.7327 -0.9035 -0.2492
  939MOL0     C23878   3.498   3.429   5.834 -0.5222  0.5575  0.0183
  939MOL0     C23879   3.596   3.443   5.947  0.6984 -0.0157  0.6997
  939MOL0     C23880   3.680   3.447   6.035  0.5422 -0.1893 -0.0885
  939MOL0     C23881   2.923   3.089   5.650 -0.3823  0.1772 -0.4467
  939MOL0     C23882   2.825   2.999   5.670 -0.3231 -0.1843  0.1672
  939MOL0     H23883   2.451   2.800   5.546  2.4541  3.1574  3.6706
  939MOL0     H23884   2.274   2.634   5.543 -1.4475  1.2238  2.4181
  939MOL0     H23885   2.078   2.462   5.594  3.1307 -2.3532  1.5707
  939MOL0     H23886   2.047   2.621   5.683 -0.2692  0.2829  2.6760
  939MOL0     H23887   1.964   2.471   5.859  4.5259 -0.1176  0.4232
  939MOL0     H23888   1.953   2.335   5.741 -3.6574 -0.2822 -1.0535
  939MOL0     H23889   1.821   2.469   5.576  1.3835  0.2769  0.1134
  939MOL0     H23890   1.796   2.585   5.709  1.0441  0.1218  1.6244
  939MOL0     H23891   1.670   2.333   5.655  2.1135 -2.0658  0.1661
  939MOL0     H23892   1.721   2.348   5.825 -0.1327  0.6859  0.9082
  939MOL0     H23893   1.555   2.557   5.666  0.8440  0.9745 -0.4993
  939MOL0     H23894   1.589   2.579   5.838 -3.8193  1.1715  0.8286
  939MOL0     H23895   1.463   2.365   5.895 -0.5235 -0.5299  0.6359
  939MOL0     H23896   1.410   2.368   5.727  3.7057 -1.3435  0.0885
  939MOL0     H23897   1.262   2.480   5.909  1.2535 -4.1825 -3.0360
  939MOL0     H23898   1.378   2.599   5.941  3.2921  0.3071 -1.7951
  939MOL0     H23899   1.254   2.547   5.660 -0.1694  1.2665 -1.2094
  939MOL0     H23900   1.333   2.704   5.723  0.1386  1.1248  2.7516
  939MOL0     H23901   1.023   2.484   5.707  0.5631  1.9130 -2.2679
  939MOL0     H23902   0.781   2.526   5.763  0.7563  0.7699 -1.4285
  939MOL0     H23903   0.723   2.658   5.871  2.2167  1.6087  0.5400
  939MOL0     H23904   0.826   2.394   5.972  0.3972  0.1090  0.9987
  939MOL0     H23905   0.676   2.498   5.993 -0.3251 -0.8146  0.8121
  939MOL0     H23906   0.950   2.591   6.096  0.1268  2.2919  1.4039
  939MOL0     H23907   0.788   2.643   6.139  0.3510  0.5473 -1.6501
  939MOL0     H23908   0.885   2.353   6.185  1.7535  0.3389  0.9544
  939MOL0     H23909   0.724   2.419   6.223  0.4788  1.5894 -2.0518
  939MOL0     H23910   0.900   2.593   6.555 -3.2738  1.0326  0.1490
  939MOL0     H23911   0.897   2.481   6.778 -1.8337  1.2482 -0.1088
  939MOL0     H23912   0.431   2.142   6.900 -0.4525 -0.8733 -1.4983
  939MOL0     H23913   0.338   2.014   7.096  0.0860 -4.5145  0.8462
  939MOL0     H23914   0.657   1.841   7.390  1.4218 -2.3786  0.0469
  939MOL0     H23915   0.577   1.721   7.291  2.2174  0.6664  0.3229
  939MOL0     H23916   0.446   1.835   7.538 -0.4748  0.5708 -0.6631
  939MOL0     H23917   0.519   1.674   7.521 -3.5677 -0.8559  2.2754
  939MOL0     H23918   0.362   1.633   7.319  2.3030  1.8297  0.1334
  939MOL0     H23919   0.275   1.774   7.356 -0.3976 -0.6515 -0.9807
  939MOL0     H23920   0.311   1.561   7.588  0.8412 -0.3073 -0.4393
  939MOL0     H23921   0.236   1.723   7.589  1.2289  0.3315 -0.2172
  939MOL0     H23922   0.145   1.489   7.405  0.6740 -0.9417 -1.2178
  939MOL0     H23923   0.081   1.650   7.407 -0.9185 -2.1771 -0.5184
  939MOL0     H23924   0.056   1.572   7.674 -1.5073  1.4361  0.0394
  939MOL0     H23925   0.041   1.417   7.593  3.5197 -0.0699 -0.1603
  939MOL0     H23926  -0.119   1.682   7.520 -0.0597 -0.5155 -0.6378
  939MOL0     H23927  -0.167   1.519   7.473 -0.3206  2.0713 -1.3189
  939MOL0     H23928  -0.308   1.567   7.644  0.0491 -1.9880 -3.4008
  939MOL0     H23929  -0.176   1.604   7.764  0.5042  1.9069 -1.4994
  939MOL0     H23930   0.744   1.914   7.216  0.8172 -0.6180 -1.4009
  939MOL0     H23931   0.837   2.000   7.007 -0.0055 -1.4807  2.8086
  939MOL0     H23932   0.766   2.112   6.599  0.2842 -0.1848  3.9088
  939MOL0     H23933   0.812   2.217   6.381  2.7750  2.4636 -2.4760
  939MOL0     H23934   2.387   2.517   5.941  0.2263  1.7193  1.3306
  939MOL0     H23935   2.585   2.667   5.924 -0.6527  0.6803 -0.0704
  939MOL0     H23936   2.671   3.167   5.927  1.8376  3.8943 -0.4335
  939MOL0     H23937   2.868   3.303   5.915  1.6907  1.5565 -1.1245
  939MOL0     H23938   3.133   3.238   5.896  0.1132  0.0403  0.2679
  939MOL0     H23939   3.080   3.408   5.873 -2.7820 -1.6521 -0.9479
  939MOL0     H23940   3.316   3.247   5.746  1.8670  0.6922 -1.2761
  939MOL0     H23941   3.276   3.412   5.696 -0.4045  0.8294  0.4401
  939MOL0     H23942   3.368   3.310   5.967 -2.0612 -1.5814 -0.8244
  939MOL0     H23943   3.314   3.472   5.948  0.5181 -1.4178  1.7040
  939MOL0     H23944   3.531   3.357   5.759  0.2406  3.0473 -2.1674
  939MOL0     H23945   3.488   3.521   5.776 -0.9889  0.2129 -0.4537
  939MOL0     H23946   3.765   3.465   6.098  1.0724  0.4730 -0.9704
  939MOL0     H23947   3.006   3.072   5.583 -0.3264 -1.0504 -0.0799
  939MOL0     H23948   2.835   2.910   5.609 -2.4204  0.9715 -2.0191
  940MOL0     O23949   8.330   8.056   6.569  0.2576 -0.5077 -0.0879
  940MOL0     C23950   8.405   8.119   6.640  0.2715  0.5262 -0.7479
  940MOL0     O23951   8.368   8.219   6.724  0.3052  0.4560 -1.0255
  940MOL0     C23952   8.235   8.258   6.725  0.4784 -0.5000  0.3275
  940MOL0     C23953   8.163   8.290   6.601  0.6455 -0.2067 -0.9880
  940MOL0     C23954   8.021   8.309   6.605 -1.1875 -0.3126  0.0823
  940MOL0     C23955   7.954   8.322   6.731  0.0010 -0.4117  0.5396
  940MOL0     O23956   7.820   8.365   6.717 -0.3791  0.5969 -0.8913
  940MOL0     C23957   7.724   8.338   6.818  0.5720 -0.5418  0.3101
  940MOL0     C23958   7.594   8.375   6.747 -1.0849 -0.5695 -1.4345
  940MOL0     C23959   7.477   8.366   6.831  0.5718 -0.1408 -0.5834
  940MOL0     C23960   7.350   8.435   6.773  1.1869  0.0553  0.9962
  940MOL0     C23961   7.220   8.349   6.781 -0.3045 -0.7771 -0.4746
  940MOL0     C23962   7.097   8.431   6.779  0.4073  0.2356  1.0306
  940MOL0     C23963   6.977   8.353   6.718  1.0348  0.8755 -0.7489
  940MOL0     C23964   6.842   8.421   6.728  0.9679  0.6850 -0.6238
  940MOL0     N23965   6.804   8.484   6.603  0.2312 -0.1293 -0.1012
  940MOL0     C23966   6.735   8.410   6.495  0.3704 -0.1839  0.3490
  940MOL0     C23967   6.708   8.506   6.405 -0.0031  1.4111  0.5441
  940MOL0     C23968   6.643   8.469   6.281  0.0719  0.4180 -0.5525
  940MOL0     C23969   6.499   8.415   6.288 -0.9968  0.7125 -0.5333
  940MOL0     C23970   6.406   8.531   6.325  0.9611  0.2103  0.6644
  940MOL0     C23971   6.254   8.493   6.325  0.0751  0.4776  0.9396
  940MOL0     O23972   6.238   8.433   6.455 -0.6759 -0.1087  0.7120
  940MOL0     C23973   6.121   8.391   6.515 -0.1310 -0.2535 -0.0814
  940MOL0     C23974   6.003   8.364   6.446  0.3221 -0.0811 -0.4097
  940MOL0     C23975   5.882   8.326   6.516 -0.0047  0.1452  1.1134
  940MOL0     C23976   5.883   8.323   6.656  0.5640 -1.0671  0.4230
  940MOL0     C23977   5.756   8.307   6.745  0.0126 -0.2154  0.4177
  940MOL0     O23978   5.773   8.351   6.876  0.3531  0.0021  0.1414
  940MOL0     C23979   5.669   8.339   6.965 -0.5162  0.1489 -0.7825
  940MOL0     C23980   5.596   8.455   7.010 -0.2647  0.5711  0.3373
  940MOL0     C23981   5.493   8.452   7.099  0.1086  1.3486 -0.0638
  940MOL0     C23982   5.460   8.332   7.162 -0.4050  0.0859  0.3014
  940MOL0     O23983   5.371   8.351   7.268  0.7548 -0.0252  0.9836
  940MOL0     C23984   5.318   8.231   7.336 -0.2696 -0.2895 -0.2370
  940MOL0     C23985   5.234   8.131   7.254 -1.0362 -0.7234  0.5870
  940MOL0     C23986   5.171   8.032   7.344  0.0930 -0.0769  0.0369
  940MOL0     C23987   5.088   7.932   7.266 -0.1416  1.5627 -0.3884
  940MOL0     C23988   5.005   7.817   7.344  0.4287 -0.9519 -0.7608
  940MOL0     C23989   4.901   7.884   7.434 -0.8107 -0.1785  0.3922
  940MOL0     C23990   4.795   7.787   7.493 -0.2682 -0.4107  0.2134
  940MOL0     C23991   4.866   7.689   7.587  0.0778  0.4837  0.8792
  940MOL0    Cl23992   4.738   7.583   7.657 -0.4138 -0.1300  0.3277
  940MOL0     C23993   5.526   8.215   7.119 -1.3368 -0.4615 -0.4173
  940MOL0     C23994   5.621   8.218   7.014 -0.2723 -0.9217 -0.4319
  940MOL0     O23995   5.650   8.264   6.702  0.1078  0.0514 -0.1797
  940MOL0     C23996   6.011   8.331   6.721  0.7093  0.7630 -0.2368
  940MOL0     C23997   6.128   8.362   6.649  0.5469 -0.1945  0.5254
  940MOL0     N23998   6.749   8.625   6.449  0.4817  0.0717  0.2360
  940MOL0     N23999   6.802   8.621   6.572 -0.3655 -0.1961  0.3708
  940MOL0     C24000   8.030   8.297   6.850 -0.7398  0.7477  0.5691
  940MOL0     C24001   8.167   8.270   6.842  0.2714  1.6439  0.4309
  940MOL0     C24002   8.547   8.086   6.641 -0.1556  0.1773  0.4876
  940MOL0     C24003   8.652   8.137   6.724 -0.7477  0.3416  0.6943
  940MOL0     C24004   8.786   8.096   6.702  0.2637 -0.0138 -0.7111
  940MOL0     C24005   8.821   8.008   6.607  0.2981  0.8783  0.5830
  940MOL0     O24006   8.955   7.976   6.594 -0.3210 -0.2869 -0.0426
  940MOL0     C24007   9.011   7.888   6.495 -0.7721  0.3282 -0.1212
  940MOL0     C24008   9.166   7.859   6.519  0.0537  0.5459  0.3083
  940MOL0     C24009   9.261   7.974   6.499  0.7171  0.6155 -0.4950
  940MOL0     C24010   9.407   7.932   6.493 -0.0772 -0.2049 -0.1402
  940MOL0     C24011   9.480   8.024   6.578 -0.9177 -0.3140  0.3351
  940MOL0     C24012   9.544   8.105   6.641 -0.0543 -0.2078 -0.4430
  940MOL0     C24013   8.721   7.967   6.520 -0.2496  0.0025  0.1287
  940MOL0     C24014   8.585   7.991   6.541  0.4457  0.6559 -0.3452
  940MOL0     H24015   8.225   8.275   6.513  2.1320  1.3132 -0.2456
  940MOL0     H24016   7.973   8.352   6.518 -0.8768  0.5739  0.3387
  940MOL0     H24017   7.743   8.399   6.907 -2.1040 -0.3172  0.8093
  940MOL0     H24018   7.726   8.234   6.851  3.4144 -0.8678 -0.6542
  940MOL0     H24019   7.588   8.316   6.656  0.5174 -3.0528 -0.0403
  940MOL0     H24020   7.596   8.477   6.706 -0.4919  0.1212  0.2249
  940MOL0     H24021   7.496   8.410   6.929 -0.0339  1.3634 -1.1026
  940MOL0     H24022   7.443   8.265   6.853 -1.3903  0.2856 -1.3974
  940MOL0     H24023   7.326   8.531   6.820 -1.4592 -0.2894  0.4965
  940MOL0     H24024   7.367   8.451   6.667 -0.1986 -0.1214  0.7332
  940MOL0     H24025   7.218   8.295   6.876  0.6444  0.4193  0.2586
  940MOL0     H24026   7.227   8.273   6.702  1.5992 -0.0381 -1.0847
  940MOL0     H24027   7.119   8.513   6.710 -0.7079 -1.4358 -1.4194
  940MOL0     H24028   7.066   8.469   6.877 -0.7970  0.6265  0.5155
  940MOL0     H24029   7.001   8.325   6.615 -0.4358 -1.0680 -0.6315
  940MOL0     H24030   6.974   8.260   6.776 -1.9083 -0.2344 -2.4187
  940MOL0     H24031   6.850   8.490   6.813 -0.5799  0.7210 -0.4645
  940MOL0     H24032   6.762   8.354   6.760  1.8957 -0.4949 -0.7420
  940MOL0     H24033   6.689   8.312   6.493 -0.3952  0.1721 -2.1306
  940MOL0     H24034   6.705   8.392   6.233 -2.1568 -0.5839 -2.0210
  940MOL0     H24035   6.646   8.556   6.215 -1.7200  0.0201 -1.2231
  940MOL0     H24036   6.490   8.340   6.367  2.0453 -0.3954 -1.0878
  940MOL0     H24037   6.468   8.382   6.188 -2.8888  2.3236 -0.5296
  940MOL0     H24038   6.435   8.552   6.429  2.5556  0.6342  0.1618
  940MOL0     H24039   6.401   8.618   6.259  0.8865 -0.7256 -0.6034
  940MOL0     H24040   6.223   8.426   6.245 -0.7403  0.5629  1.1771
  940MOL0     H24041   6.193   8.584   6.322  1.0160  1.1550  1.7771
  940MOL0     H24042   5.998   8.357   6.338  1.1532 -0.3158 -0.4355
  940MOL0     H24043   5.794   8.289   6.464  1.4045 -1.7622 -0.0436
  940MOL0     H24044   5.620   8.547   6.957  2.2574 -0.9245 -1.3403
  940MOL0     H24045   5.442   8.545   7.122  0.6072  0.9143  3.3045
  940MOL0     H24046   5.261   8.269   7.422  0.0168 -0.3277 -0.0306
  940MOL0     H24047   5.391   8.172   7.391  0.5822  3.8020  3.6261
  940MOL0     H24048   5.288   8.073   7.178  2.0837  0.6565  1.5707
  940MOL0     H24049   5.168   8.193   7.193  1.3242  0.9272 -0.4697
  940MOL0     H24050   5.117   8.092   7.417  0.3560 -0.1238  0.2742
  940MOL0     H24051   5.253   7.988   7.402 -0.3483 -0.2704  0.5122
  940MOL0     H24052   5.019   7.984   7.199 -0.2766 -0.0166 -1.5284
  940MOL0     H24053   5.157   7.874   7.205 -2.7140 -0.7678 -1.3347
  940MOL0     H24054   5.077   7.765   7.408  2.0955 -0.9931 -2.5909
  940MOL0     H24055   4.966   7.749   7.268  0.9424  0.4227 -2.3224
  940MOL0     H24056   4.844   7.957   7.375  0.2021  0.1038 -0.2587
  940MOL0     H24057   4.950   7.940   7.513 -0.2456 -1.3121  0.8745
  940MOL0     H24058   4.724   7.853   7.543 -0.5274 -2.5849  2.9131
  940MOL0     H24059   4.751   7.726   7.414  0.3263 -1.7499  0.8796
  940MOL0     H24060   4.922   7.739   7.667  0.2041  0.0905  1.0365
  940MOL0     H24061   4.937   7.634   7.525  1.5083  3.6719 -0.5175
  940MOL0     H24062   5.523   8.126   7.181  3.4330  1.0051  2.5089
  940MOL0     H24063   5.670   8.127   6.978 -0.6581 -1.2369 -0.1758
  940MOL0     H24064   6.004   8.322   6.829 -1.9717  0.6955 -0.3353
  940MOL0     H24065   6.217   8.386   6.705 -0.8476  0.3570  2.6438
  940MOL0     H24066   7.969   8.317   6.938  0.9573 -0.5476  2.1311
  940MOL0     H24067   8.223   8.238   6.929 -0.5072 -0.1911  0.2942
  940MOL0     H24068   8.625   8.202   6.807 -2.1976  6.0847 -3.5799
  940MOL0     H24069   8.853   8.141   6.775 -0.4383 -1.3191  0.7818
  940MOL0     H24070   8.985   7.921   6.394  1.4325 -0.3921 -0.9835
  940MOL0     H24071   8.974   7.785   6.498  1.7018 -0.7533 -2.4807
  940MOL0     H24072   9.189   7.805   6.611  3.1020  2.5481  0.9015
  940MOL0     H24073   9.203   7.787   6.446  3.5881  1.5740  0.8905
  940MOL0     H24074   9.240   8.040   6.583  2.7990  0.8931 -0.1431
  940MOL0     H24075   9.232   8.023   6.405 -2.4062 -2.3824 -1.2915
  940MOL0     H24076   9.419   7.831   6.532 -1.6198  0.1175  1.2793
  940MOL0     H24077   9.441   7.942   6.389  0.4862  1.5053  0.1774
  940MOL0     H24078   9.600   8.174   6.701 -0.5293 -0.7791  0.6990
  940MOL0     H24079   8.732   7.905   6.432 -0.2633  1.0494 -0.6267
  940MOL0     H24080   8.512   7.939   6.479  0.4748 -3.4180  2.6099
  941MOL0     O24081   4.931   6.995   1.903 -0.4730 -0.9180 -0.4008
  941MOL0     C24082   5.036   7.059   1.891 -0.2032  0.3249  0.5555
  941MOL0     O24083   5.039   7.194   1.903  0.8709 -0.1040  0.7871
  941MOL0     C24084   4.908   7.247   1.908 -0.2275  0.4166  0.0886
  941MOL0     C24085   4.871   7.333   2.014 -0.4258 -0.4552  1.0946
  941MOL0     C24086   4.753   7.403   2.010 -0.4994  1.3200 -0.2321
  941MOL0     C24087   4.650   7.380   1.918 -0.0771 -0.0537  0.1445
  941MOL0     O24088   4.524   7.431   1.935 -0.1502 -0.1184 -0.0054
  941MOL0     C24089   4.508   7.539   2.025  0.3936  0.1322 -0.5910
  941MOL0     C24090   4.360   7.583   2.010  0.5427  0.4105 -0.3258
  941MOL0     C24091   4.335   7.703   2.097  0.3262 -0.5851 -0.2440
  941MOL0     C24092   4.188   7.753   2.064 -0.3083 -0.2548  0.8989
  941MOL0     C24093   4.181   7.907   2.090 -0.3596 -1.3460 -0.7813
  941MOL0     C24094   4.191   7.932   2.245 -0.0930 -0.2049 -0.9394
  941MOL0     C24095   4.157   8.070   2.284  0.0145  0.0209 -0.6021
  941MOL0     C24096   4.131   8.069   2.441  0.4782  0.4594  0.6344
  941MOL0     N24097   4.235   8.015   2.525 -0.4651 -0.3022 -0.2581
  941MOL0     C24098   4.369   8.036   2.519 -0.4086  0.1504  0.1253
  941MOL0     C24099   4.420   7.976   2.628 -0.4729  0.7416  0.0932
  941MOL0     C24100   4.557   7.974   2.668 -0.6513  0.5308 -0.0996
  941MOL0     C24101   4.647   7.862   2.609  0.5060  0.0728  0.7057
  941MOL0     C24102   4.796   7.875   2.662  0.9174  1.2464 -0.0642
  941MOL0     C24103   4.890   7.759   2.626 -0.3952  0.3107 -0.6131
  941MOL0     O24104   5.000   7.768   2.722  0.5221 -0.1541  0.0171
  941MOL0     C24105   5.099   7.667   2.716 -0.3667  0.3294  0.2007
  941MOL0     C24106   5.193   7.665   2.824 -0.5028 -1.3530  0.9265
  941MOL0     C24107   5.290   7.565   2.831 -0.4399  0.4168  1.1982
  941MOL0     C24108   5.295   7.463   2.736  0.2198 -0.5833  0.8251
  941MOL0     C24109   5.412   7.379   2.730  0.7109 -0.7459  0.6224
  941MOL0     O24110   5.430   7.302   2.616  0.0638 -0.1702  0.5728
  941MOL0     C24111   5.545   7.229   2.606  0.7650  0.9530 -0.6135
  941MOL0     C24112   5.614   7.227   2.480 -0.3018 -0.2190  0.2460
  941MOL0     C24113   5.726   7.148   2.469  0.5894  0.0219 -0.5257
  941MOL0     C24114   5.767   7.059   2.567 -0.4146 -0.2296 -0.2446
  941MOL0     O24115   5.886   6.997   2.526 -0.4157 -0.0211 -0.6665
  941MOL0     C24116   5.933   6.884   2.593 -0.1448  0.3204 -0.5514
  941MOL0     C24117   6.057   6.819   2.532 -0.0873  0.1810  0.3598
  941MOL0     C24118   6.113   6.711   2.617 -0.6064 -0.0444  0.0261
  941MOL0     C24119   6.241   6.664   2.551  0.3258  0.3325  1.6485
  941MOL0     C24120   6.334   6.582   2.634 -0.4001 -0.1677  0.3355
  941MOL0     C24121   6.446   6.497   2.551  0.6907  0.0226 -0.4153
  941MOL0     C24122   6.533   6.433   2.654 -1.3999 -0.4159 -0.0812
  941MOL0     C24123   6.645   6.538   2.684 -0.5259  0.4626 -0.0592
  941MOL0    Cl24124   6.767   6.546   2.545  0.0277  0.2942 -0.1688
  941MOL0     C24125   5.691   7.044   2.683 -0.2828  0.6432  0.0791
  941MOL0     C24126   5.575   7.129   2.699  0.1889 -1.4436  0.3457
  941MOL0     O24127   5.493   7.384   2.826  0.3054  0.4606  0.1525
  941MOL0     C24128   5.199   7.463   2.625 -0.6645 -0.0161  0.0516
  941MOL0     C24129   5.108   7.568   2.613  0.2402 -0.6472 -0.1724
  941MOL0     N24130   4.328   7.895   2.681  0.3080  0.8869  0.5500
  941MOL0     N24131   4.217   7.922   2.624  0.1594  0.2003 -0.3867
  941MOL0     C24132   4.680   7.288   1.814  0.4725  0.8518 -0.5162
  941MOL0     C24133   4.810   7.224   1.800 -0.2132  0.6896  0.0805
  941MOL0     C24134   5.145   6.992   1.821  0.4196  0.0325 -0.8926
  941MOL0     C24135   5.145   6.852   1.800 -0.9765 -0.3568 -0.6122
  941MOL0     C24136   5.251   6.791   1.745 -0.0440 -0.3648  0.4515
  941MOL0     C24137   5.367   6.858   1.723  0.1957 -0.4290 -0.5712
  941MOL0     O24138   5.469   6.775   1.676  0.0503 -0.0800 -1.1168
  941MOL0     C24139   5.600   6.828   1.643 -0.7482  0.2532  0.2263
  941MOL0     C24140   5.658   6.714   1.553 -0.1311  0.2416 -0.7965
  941MOL0     C24141   5.813   6.725   1.516 -1.1122 -0.5197 -0.7029
  941MOL0     C24142   5.861   6.640   1.404 -0.2457 -0.3074  0.6719
  941MOL0     C24143   6.010   6.649   1.410 -0.5579  0.3194  0.1687
  941MOL0     C24144   6.133   6.650   1.426  0.3882 -0.5867 -0.5212
  941MOL0     C24145   5.382   6.998   1.751  0.1262  0.4106  0.0532
  941MOL0     C24146   5.264   7.069   1.797  0.3295 -0.6816  0.8001
  941MOL0     H24147   4.951   7.364   2.081 -0.5313  5.1220 -0.8741
  941MOL0     H24148   4.741   7.476   2.089  3.6079  1.4003  0.5203
  941MOL0     H24149   4.573   7.622   1.994 -0.2702  1.2148  0.8448
  941MOL0     H24150   4.533   7.519   2.129 -3.0936  1.8455  0.7325
  941MOL0     H24151   4.295   7.503   2.047  1.6874 -0.7377 -0.7433
  941MOL0     H24152   4.335   7.616   1.908 -1.1939  2.7440  0.7528
  941MOL0     H24153   4.403   7.788   2.079  1.3214 -0.6357  2.7913
  941MOL0     H24154   4.357   7.669   2.198  2.4348  0.2415 -0.3746
  941MOL0     H24155   4.171   7.743   1.957 -1.3416  1.2760  0.8962
  941MOL0     H24156   4.119   7.686   2.115 -0.2254 -0.1035  1.2126
  941MOL0     H24157   4.085   7.950   2.058 -0.1386  0.2756  0.6391
  941MOL0     H24158   4.252   7.971   2.037 -0.6616  1.4699  1.9617
  941MOL0     H24159   4.296   7.911   2.271  1.1840  1.3103 -4.2605
  941MOL0     H24160   4.128   7.863   2.302  1.1855  0.0988  0.9313
  941MOL0     H24161   4.225   8.143   2.238  2.0047 -1.8537 -0.8248
  941MOL0     H24162   4.061   8.085   2.235 -0.5781 -0.3524  0.4226
  941MOL0     H24163   4.038   8.017   2.464  0.8434 -1.8756 -2.5388
  941MOL0     H24164   4.113   8.173   2.471 -2.8859  0.8820 -2.1682
  941MOL0     H24165   4.442   8.082   2.453  2.6401 -2.8301  1.1402
  941MOL0     H24166   4.560   7.965   2.777  0.7793 -2.9670 -0.2752
  941MOL0     H24167   4.591   8.070   2.628 -0.1843 -0.3399 -1.8919
  941MOL0     H24168   4.648   7.867   2.499 -1.5074 -0.9622  0.5979
  941MOL0     H24169   4.603   7.763   2.622  1.5726 -0.8811 -2.1690
  941MOL0     H24170   4.843   7.967   2.627 -0.8116  0.6338 -4.7018
  941MOL0     H24171   4.783   7.873   2.771  0.2869  0.8040 -0.1395
  941MOL0     H24172   4.937   7.768   2.527  0.2544  0.8802 -0.2663
  941MOL0     H24173   4.846   7.662   2.647  1.0149 -0.5628 -1.5488
  941MOL0     H24174   5.184   7.741   2.901  0.2458  2.3012 -2.2550
  941MOL0     H24175   5.355   7.576   2.917  0.7224  1.1778  0.2653
  941MOL0     H24176   5.575   7.290   2.401 -1.3483  0.0824  0.9935
  941MOL0     H24177   5.784   7.163   2.378 -0.1939 -1.1120 -1.2378
  941MOL0     H24178   5.853   6.812   2.609  2.4570 -2.1736  2.8250
  941MOL0     H24179   5.956   6.915   2.695 -0.7725 -2.6103  0.5637
  941MOL0     H24180   6.126   6.903   2.521 -1.9252  1.7884  0.5151
  941MOL0     H24181   6.031   6.778   2.434 -3.1976  2.1792  0.1917
  941MOL0     H24182   6.039   6.631   2.613 -3.3830  2.3966 -1.7730
  941MOL0     H24183   6.125   6.744   2.721  1.1503 -1.1536  0.2119
  941MOL0     H24184   6.218   6.607   2.460  4.0234  1.5615 -0.2877
  941MOL0     H24185   6.303   6.747   2.515  0.1517 -0.7238 -1.4029
  941MOL0     H24186   6.272   6.524   2.703 -1.7685 -0.6479 -1.2422
  941MOL0     H24187   6.382   6.656   2.699 -1.5185 -1.0647  2.2562
  941MOL0     H24188   6.497   6.560   2.477  0.8396 -1.3271 -1.4975
  941MOL0     H24189   6.399   6.410   2.506  0.3909  0.4474 -0.9402
  941MOL0     H24190   6.471   6.416   2.742 -0.7754  3.4454  1.2659
  941MOL0     H24191   6.593   6.349   2.617 -2.1774 -1.4577  0.9708
  941MOL0     H24192   6.695   6.490   2.768 -0.1975 -4.0915 -2.5093
  941MOL0     H24193   6.596   6.630   2.715 -1.4087 -0.6834  2.1979
  941MOL0     H24194   5.718   6.982   2.768 -2.8218  3.1291  2.9992
  941MOL0     H24195   5.498   7.123   2.775  0.7068  0.6064  1.1037
  941MOL0     H24196   5.187   7.389   2.547 -1.7433 -0.2363  0.4102
  941MOL0     H24197   5.043   7.576   2.526 -1.5940 -0.2938  1.1761
  941MOL0     H24198   4.605   7.268   1.738 -0.2588  0.2979  0.3265
  941MOL0     H24199   4.828   7.148   1.725  0.4296  0.7953  0.1211
  941MOL0     H24200   5.065   6.788   1.836 -0.7058 -2.0966 -2.8860
  941MOL0     H24201   5.246   6.686   1.718  1.1292 -1.0510  2.6461
  941MOL0     H24202   5.670   6.828   1.727 -0.5553 -0.7611  0.0755
  941MOL0     H24203   5.604   6.929   1.599  2.8195  0.8003  1.4919
  941MOL0     H24204   5.657   6.613   1.594  1.1434 -0.0473 -1.4248
  941MOL0     H24205   5.592   6.709   1.466  0.4008  0.5269 -1.2227
  941MOL0     H24206   5.872   6.702   1.605  1.7193  1.0849 -2.0043
  941MOL0     H24207   5.833   6.832   1.503  0.1503 -0.3363  1.9976
  941MOL0     H24208   5.813   6.542   1.402 -1.5468  0.2887  1.3293
  941MOL0     H24209   5.844   6.692   1.310  0.9319 -0.7213  0.2083
  941MOL0     H24210   6.239   6.636   1.435  0.4041  0.5519  2.0864
  941MOL0     H24211   5.473   7.051   1.723  0.1504  0.7300  0.7309
  941MOL0     H24212   5.266   7.176   1.814  1.1805 -0.6781  0.7043
  942MOL0     O24213  10.330   5.864  11.081  0.6789 -0.4204  0.4837
  942MOL0     C24214  10.379   5.812  11.179  1.2411 -0.0216  0.9621
  942MOL0     O24215  10.319   5.718  11.258 -0.3051  0.9388  0.2164
  942MOL0     C24216  10.187   5.701  11.243  1.3723  0.1426  0.1387
  942MOL0     C24217  10.091   5.799  11.286 -0.6815 -0.1997 -0.6151
  942MOL0     C24218   9.960   5.789  11.262  1.2164 -0.5148 -0.4734
  942MOL0     C24219   9.906   5.670  11.214 -0.6553 -0.4924  0.2084
  942MOL0     O24220   9.782   5.644  11.165  0.1609  0.0081 -0.3692
  942MOL0     C24221   9.686   5.750  11.175  1.0759 -0.3495  0.1843
  942MOL0     C24222   9.559   5.698  11.094  1.4343 -0.6704 -0.4143
  942MOL0     C24223   9.427   5.772  11.109  0.2039 -0.3430 -0.0881
  942MOL0     C24224   9.314   5.688  11.038  0.1848  0.2136 -0.6307
  942MOL0     C24225   9.178   5.762  11.054  0.5271 -0.1797  0.7371
  942MOL0     C24226   9.050   5.677  11.024 -0.2316  0.2143  0.6123
  942MOL0     C24227   8.917   5.736  11.093  0.6087  0.3764 -0.9489
  942MOL0     C24228   8.796   5.642  11.091 -0.5923 -0.3845  0.2315
  942MOL0     N24229   8.679   5.714  11.142 -0.0747 -1.1993  0.2601
  942MOL0     C24230   8.678   5.793  11.258  0.0054 -0.1701  0.2627
  942MOL0     C24231   8.553   5.850  11.262  0.3624  0.5881  1.2761
  942MOL0     C24232   8.512   5.927  11.384 -0.3865 -0.5973 -0.0014
  942MOL0     C24233   8.379   6.002  11.370 -0.4246 -0.3635  0.3248
  942MOL0     C24234   8.346   6.073  11.498  0.4130  0.0255 -0.0568
  942MOL0     C24235   8.214   6.151  11.476 -0.0224  1.0214  1.1878
  942MOL0     O24236   8.108   6.054  11.455  0.3107  0.6868  0.9841
  942MOL0     C24237   7.971   6.079  11.442 -0.1098 -0.6954 -0.4452
  942MOL0     C24238   7.918   6.206  11.434  0.4881  0.7803  0.4705
  942MOL0     C24239   7.778   6.217  11.445 -0.5968 -1.0792  0.1373
  942MOL0     C24240   7.699   6.101  11.460 -0.4719 -1.0900  0.0588
  942MOL0     C24241   7.552   6.113  11.477 -0.6189  0.1427  0.2097
  942MOL0     O24242   7.490   5.991  11.469 -0.5256 -0.0608 -0.2964
  942MOL0     C24243   7.355   5.959  11.462  0.2714  0.3729 -0.6678
  942MOL0     C24244   7.262   6.062  11.424 -0.9443  0.8185  0.0159
  942MOL0     C24245   7.132   6.026  11.408 -0.3690  0.3951  0.0983
  942MOL0     C24246   7.090   5.882  11.398  0.5511  0.0583  0.6212
  942MOL0     O24247   6.966   5.842  11.358  0.2231  0.6210 -0.0539
  942MOL0     C24248   6.860   5.936  11.376 -0.4347 -0.1838 -0.5712
  942MOL0     C24249   6.720   5.872  11.385 -0.1733 -0.0277 -0.1723
  942MOL0     C24250   6.624   5.986  11.424 -0.0276 -0.0660  0.3500
  942MOL0     C24251   6.494   5.928  11.467  0.2957 -0.5315 -1.2931
  942MOL0     C24252   6.373   6.020  11.482 -0.6291 -0.4072  0.0637
  942MOL0     C24253   6.237   5.936  11.470  0.1114 -0.0593  0.1176
  942MOL0     C24254   6.145   5.955  11.588 -0.1790 -0.3805 -0.4403
  942MOL0     C24255   6.026   5.863  11.567  0.6983  0.9939 -0.7316
  942MOL0    Cl24256   5.905   5.883  11.706 -0.3394  0.1157  0.4175
  942MOL0     C24257   7.192   5.785  11.414  0.1727 -0.6191  0.2488
  942MOL0     C24258   7.318   5.827  11.463 -0.3692  0.0081  1.0370
  942MOL0     O24259   7.501   6.220  11.490 -0.5374 -0.0570  0.0496
  942MOL0     C24260   7.756   5.977  11.464  0.1703  0.3908  0.5365
  942MOL0     C24261   7.892   5.966  11.461  0.2522 -0.3842  0.3369
  942MOL0     N24262   8.483   5.811  11.149 -0.4642 -0.6386  0.1299
  942MOL0     N24263   8.560   5.738  11.079 -0.2764 -0.1277  0.0468
  942MOL0     C24264   9.996   5.568  11.191 -0.7222  0.5755 -0.2402
  942MOL0     C24265  10.134   5.577  11.201  0.5396 -0.7717 -0.2745
  942MOL0     C24266  10.526   5.844  11.198  0.0640  0.5997  0.7068
  942MOL0     C24267  10.595   5.799  11.308  0.1132 -0.1128 -0.0236
  942MOL0     C24268  10.728   5.826  11.339  0.2300 -0.6677  0.3181
  942MOL0     C24269  10.797   5.908  11.254 -1.6041  0.8230  0.1168
  942MOL0     O24270  10.929   5.935  11.278  0.2132 -0.8158 -0.0374
  942MOL0     C24271  11.008   5.840  11.343 -0.2079 -0.2890 -0.3996
  942MOL0     C24272  11.160   5.863  11.323 -0.5862 -0.4451  0.0643
  942MOL0     C24273  11.188   6.012  11.356 -0.9746 -0.0929 -0.7359
  942MOL0     C24274  11.336   6.053  11.310  0.1725  0.3300  0.5591
  942MOL0     C24275  11.430   5.976  11.389  0.0511  0.1917  0.0088
  942MOL0     C24276  11.518   5.932  11.456  0.3679  0.6481  0.7162
  942MOL0     C24277  10.740   5.961  11.137 -0.1826 -0.4665  0.4068
  942MOL0     C24278  10.609   5.923  11.106 -0.3408  0.4414  0.4369
  942MOL0     H24279  10.136   5.880  11.343  0.5276 -1.3212  0.0895
  942MOL0     H24280   9.896   5.863  11.309 -1.2367 -2.7023 -0.1395
  942MOL0     H24281   9.703   5.850  11.133 -0.0787 -0.2566 -0.0941
  942MOL0     H24282   9.662   5.757  11.282 -1.1698 -2.3345 -0.1052
  942MOL0     H24283   9.542   5.597  11.132  1.6640 -0.3812  0.4723
  942MOL0     H24284   9.579   5.705  10.987 -1.5222  0.1328 -1.0001
  942MOL0     H24285   9.434   5.870  11.061 -2.0414 -0.2675 -0.3615
  942MOL0     H24286   9.411   5.794  11.215 -2.4446  1.5143 -0.7709
  942MOL0     H24287   9.346   5.683  10.933  0.7045  0.2651 -0.4772
  942MOL0     H24288   9.302   5.590  11.085 -0.3814  0.5761 -0.0103
  942MOL0     H24289   9.181   5.842  10.979  1.4190 -1.0412 -0.1879
  942MOL0     H24290   9.172   5.787  11.160 -2.5895 -1.5610  0.9751
  942MOL0     H24291   9.069   5.585  11.079 -1.3622  0.8549  2.1487
  942MOL0     H24292   9.041   5.634  10.923 -2.6196  1.1420  0.3463
  942MOL0     H24293   8.943   5.765  11.195 -2.1970  0.7131 -0.2544
  942MOL0     H24294   8.888   5.830  11.045 -3.4888  0.6212  1.5454
  942MOL0     H24295   8.820   5.561  11.160  0.1483  1.6582  2.5434
  942MOL0     H24296   8.788   5.602  10.990  3.1087 -2.9157  0.7592
  942MOL0     H24297   8.751   5.789  11.339 -2.2548 -1.8600  2.3362
  942MOL0     H24298   8.589   6.004  11.391 -0.0717 -1.0888  4.1813
  942MOL0     H24299   8.524   5.855  11.465  0.1092  2.4346  2.8297
  942MOL0     H24300   8.295   5.937  11.343 -1.5107  0.2293  2.1442
  942MOL0     H24301   8.392   6.082  11.297 -0.6243  1.6357  2.3829
  942MOL0     H24302   8.348   5.995  11.575  3.3402  1.4672  1.5233
  942MOL0     H24303   8.429   6.140  11.521 -1.1093  1.5798  1.1934
  942MOL0     H24304   8.215   6.213  11.386 -1.7353  2.2578  1.9666
  942MOL0     H24305   8.181   6.209  11.563  0.4798  0.0749  2.0263
  942MOL0     H24306   7.974   6.299  11.424 -0.6442  1.3113 -1.4257
  942MOL0     H24307   7.744   6.320  11.441  0.5158 -0.7461 -1.3024
  942MOL0     H24308   7.287   6.168  11.418  1.1278  0.4478  1.2802
  942MOL0     H24309   7.066   6.110  11.393  0.4224  1.0048 -0.0640
  942MOL0     H24310   6.861   6.005  11.291 -3.6212 -2.8348 -3.0153
  942MOL0     H24311   6.866   5.982  11.475 -0.1053  1.3210 -1.2567
  942MOL0     H24312   6.708   5.790  11.457  0.9007 -0.5412 -0.5368
  942MOL0     H24313   6.700   5.847  11.280  0.3990 -0.9905 -0.0708
  942MOL0     H24314   6.613   6.041  11.331 -0.6489 -2.8107 -1.3055
  942MOL0     H24315   6.669   6.058  11.493 -0.3170  1.7363 -1.2643
  942MOL0     H24316   6.461   5.864  11.385  1.8639 -3.1254 -0.0635
  942MOL0     H24317   6.493   5.864  11.556 -1.8246  0.0634 -0.8418
  942MOL0     H24318   6.378   6.097  11.404  0.3541 -3.0071 -2.6386
  942MOL0     H24319   6.377   6.062  11.583  1.6160  0.5116 -0.3592
  942MOL0     H24320   6.263   5.830  11.466  4.4137  0.8385 -2.1924
  942MOL0     H24321   6.190   5.965  11.376  1.4583 -3.0812 -1.6279
  942MOL0     H24322   6.195   5.936  11.684  0.9064 -0.4928 -1.0084
  942MOL0     H24323   6.111   6.059  11.588 -0.3295 -0.4169 -1.4292
  942MOL0     H24324   6.059   5.760  11.576 -1.2319  0.5021  4.2367
  942MOL0     H24325   5.974   5.870  11.471  0.0597 -1.1894 -0.5887
  942MOL0     H24326   7.166   5.682  11.393 -3.7560  0.2876 -0.1389
  942MOL0     H24327   7.398   5.755  11.472  0.0935  0.4885  0.8259
  942MOL0     H24328   7.699   5.884  11.474  1.1484  0.0168  3.9929
  942MOL0     H24329   7.938   5.868  11.458 -0.1170 -0.5373 -1.3391
  942MOL0     H24330   9.959   5.476  11.147  0.6437 -0.4747  0.6983
  942MOL0     H24331  10.196   5.492  11.174  0.7063 -1.0156  0.8523
  942MOL0     H24332  10.541   5.737  11.378 -1.3621  2.4404  1.2403
  942MOL0     H24333  10.758   5.778  11.432 -0.3198 -1.7334 -0.0325
  942MOL0     H24334  10.995   5.739  11.305  2.0095 -1.3938  1.5102
  942MOL0     H24335  11.002   5.835  11.452  0.2809 -1.3641 -0.4079
  942MOL0     H24336  11.220   5.790  11.378  2.3974  0.1762 -2.1551
  942MOL0     H24337  11.181   5.847  11.217  2.7431 -0.1461  0.5783
  942MOL0     H24338  11.187   6.026  11.465 -2.3286 -2.5234 -0.3639
  942MOL0     H24339  11.115   6.074  11.304 -0.6691 -0.1644 -1.2576
  942MOL0     H24340  11.346   6.026  11.205  1.0053 -0.4173  0.8227
  942MOL0     H24341  11.351   6.161  11.311  0.0609  0.3501  1.5934
  942MOL0     H24342  11.605   5.892  11.504  1.0746  1.4694  0.1605
  942MOL0     H24343  10.799   6.037  11.087  0.2654  0.4019  2.1783
  942MOL0     H24344  10.562   5.960  11.016  3.0687 -0.9408 -2.1114
  943MOL0     O24345   1.367  10.831   3.810  0.1734  0.2193 -0.0691
  943MOL0     C24346   1.473  10.780   3.777  0.0557 -0.3042  0.4224
  943MOL0     O24347   1.493  10.652   3.731 -0.2433 -0.0459  0.8315
  943MOL0     C24348   1.370  10.598   3.687 -0.0522 -0.8303 -0.2507
  943MOL0     C24349   1.283  10.654   3.586  0.2891  0.2600  0.9645
  943MOL0     C24350   1.165  10.587   3.559 -0.1164  0.7750 -0.0249
  943MOL0     C24351   1.132  10.470   3.632  1.2830  0.3751  0.7128
  943MOL0     O24352   1.017  10.394   3.608  0.2339 -0.2286  0.2279
  943MOL0     C24353   0.950  10.399   3.477  0.0521  0.2198  0.2077
  943MOL0     C24354   0.822  10.310   3.460  0.1269  0.1833 -0.0292
  943MOL0     C24355   0.772  10.321   3.311  0.1617 -0.4113 -0.3882
  943MOL0     C24356   0.638  10.268   3.306 -0.1945 -0.0714  0.0918
  943MOL0     C24357   0.517  10.370   3.303 -1.2737 -0.1242  0.4727
  943MOL0     C24358   0.508  10.440   3.166  0.4360 -0.2751 -0.3900
  943MOL0     C24359   0.441  10.351   3.055  0.7427 -0.1921 -0.4410
  943MOL0     C24360   0.516  10.364   2.922 -0.6488  0.3875 -0.1305
  943MOL0     N24361   0.465  10.255   2.830  0.0018  0.3886  0.1200
  943MOL0     C24362   0.524  10.138   2.817  0.8218 -0.8551  0.4809
  943MOL0     C24363   0.495  10.096   2.692 -0.0445 -0.5099  0.5602
  943MOL0     C24364   0.551   9.966   2.627  0.9353  0.1422 -0.2276
  943MOL0     C24365   0.434   9.857   2.627  0.6053  0.6439  0.9253
  943MOL0     C24366   0.309   9.880   2.549 -0.0826  0.4006 -0.0518
  943MOL0     C24367   0.202   9.774   2.569  0.0097  0.8092  0.0056
  943MOL0     O24368   0.103   9.801   2.477  0.6200 -1.0335  0.3968
  943MOL0     C24369  -0.021   9.750   2.512 -0.7363 -0.3223  0.6092
  943MOL0     C24370  -0.037   9.636   2.597 -0.1915 -0.6876  0.1771
  943MOL0     C24371  -0.165   9.594   2.640 -0.4483 -1.0144 -0.0949
  943MOL0     C24372  -0.273   9.677   2.614  0.5113 -0.1132  0.2096
  943MOL0     C24373  -0.408   9.641   2.664  0.4800 -0.3000 -0.1999
  943MOL0     O24374  -0.517   9.731   2.649 -0.0852 -0.1764  0.0249
  943MOL0     C24375  -0.648   9.697   2.661  0.3352  0.8188 -0.0479
  943MOL0     C24376  -0.704   9.648   2.549  0.6918 -0.3182 -0.0157
  943MOL0     C24377  -0.837   9.612   2.543  0.9503 -0.6174  0.4689
  943MOL0     C24378  -0.922   9.621   2.659 -0.6465  0.3882 -0.2944
  943MOL0     O24379  -1.049   9.567   2.650 -0.1605  0.2058 -0.5889
  943MOL0     C24380  -1.140   9.581   2.758  0.1609 -0.3181 -0.1210
  943MOL0     C24381  -1.275   9.557   2.700 -0.4537  0.0473  0.5772
  943MOL0     C24382  -1.382   9.621   2.784 -0.2375  0.6379 -0.0825
  943MOL0     C24383  -1.525   9.588   2.728 -0.2805  0.1149  1.0773
  943MOL0     C24384  -1.632   9.624   2.833 -0.1927  0.1747  0.4268
  943MOL0     C24385  -1.664   9.772   2.823  0.2892  0.5735  0.4355
  943MOL0     C24386  -1.787   9.789   2.916  0.3097  0.4101  0.0612
  943MOL0     C24387  -1.831   9.939   2.930  0.0704 -0.3850  0.4400
  943MOL0    Cl24388  -1.925   9.978   3.089 -0.2941  0.3554  0.2135
  943MOL0     C24389  -0.861   9.673   2.779  1.0268 -0.4324 -0.7010
  943MOL0     C24390  -0.729   9.708   2.777 -0.0688 -0.0479 -0.4827
  943MOL0     O24391  -0.431   9.521   2.690 -0.5214 -0.2843  0.1895
  943MOL0     C24392  -0.262   9.784   2.530  0.1315 -0.6628  0.6678
  943MOL0     C24393  -0.143   9.820   2.473  0.0951 -0.0747  0.3869
  943MOL0     N24394   0.393  10.184   2.641 -0.2033  0.3785  0.3553
  943MOL0     N24395   0.384  10.281   2.727 -0.4363  0.0621  0.5176
  943MOL0     C24396   1.211  10.416   3.731 -0.3685 -0.0852  0.5827
  943MOL0     C24397   1.332  10.486   3.760  0.0031 -0.3751 -1.0490
  943MOL0     C24398   1.595  10.863   3.779 -0.9008  0.1874 -0.3297
  943MOL0     C24399   1.596  10.998   3.812  0.3956  0.4927 -0.5449
  943MOL0     C24400   1.713  11.070   3.811  0.4038  0.4198 -1.1442
  943MOL0     C24401   1.837  11.010   3.775  0.4244 -0.0777 -0.4904
  943MOL0     O24402   1.959  11.059   3.780 -0.4436 -0.1224 -0.0673
  943MOL0     C24403   1.978  11.187   3.841 -0.4184  0.8446  1.0242
  943MOL0     C24404   2.123  11.224   3.844  0.9728  0.2323 -0.1690
  943MOL0     C24405   2.208  11.147   3.952 -0.2929 -0.2156  0.5914
  943MOL0     C24406   2.359  11.172   3.917  0.5225 -0.5390 -0.1491
  943MOL0     C24407   2.407  11.095   3.806 -0.1442  0.0175  0.1358
  943MOL0     C24408   2.458  11.027   3.712 -0.1108 -0.4554  0.1017
  943MOL0     C24409   1.841  10.875   3.748  0.9563 -0.4792  1.0770
  943MOL0     C24410   1.723  10.805   3.754 -0.3096 -1.0610  0.0720
  943MOL0     H24411   1.316  10.741   3.530  2.7988  0.0303  1.9299
  943MOL0     H24412   1.108  10.631   3.479  2.3923 -0.4047 -2.6325
  943MOL0     H24413   1.023  10.385   3.397  0.4703  1.3311  0.3806
  943MOL0     H24414   0.917  10.500   3.451  0.4714 -0.0901 -1.6634
  943MOL0     H24415   0.745  10.353   3.525 -0.5688  1.3319 -1.5482
  943MOL0     H24416   0.837  10.205   3.486 -0.2371 -0.0783 -0.8404
  943MOL0     H24417   0.844  10.267   3.248  2.0742  1.2521  0.2460
  943MOL0     H24418   0.776  10.429   3.292  2.3522 -0.3851 -0.0363
  943MOL0     H24419   0.631  10.208   3.215  2.7953  1.4110 -1.2901
  943MOL0     H24420   0.606  10.208   3.391  1.9419 -1.4334  0.0076
  943MOL0     H24421   0.518  10.444   3.384  0.0964 -0.8954  1.2013
  943MOL0     H24422   0.426  10.311   3.302 -2.3081  1.4062  0.6346
  943MOL0     H24423   0.608  10.464   3.126  0.0723  0.5732 -0.8230
  943MOL0     H24424   0.455  10.535   3.181 -0.1687 -0.9764  2.5454
  943MOL0     H24425   0.442  10.244   3.079  0.4382 -0.0008  0.4796
  943MOL0     H24426   0.338  10.384   3.040 -0.3023 -1.6991  2.5400
  943MOL0     H24427   0.621  10.348   2.946 -1.2775 -1.7954  1.5131
  943MOL0     H24428   0.499  10.453   2.861 -2.7849  1.2959  1.6582
  943MOL0     H24429   0.603  10.088   2.874  0.2671 -1.6938  0.5395
  943MOL0     H24430   0.636   9.933   2.689  3.5218  3.2892 -1.8079
  943MOL0     H24431   0.587   9.984   2.525  0.7247  1.0438 -0.1441
  943MOL0     H24432   0.426   9.829   2.732  2.0694 -1.7884  0.4700
  943MOL0     H24433   0.480   9.768   2.582 -0.4940 -1.0317  2.9717
  943MOL0     H24434   0.268   9.972   2.593  1.7098  0.0457  2.6370
  943MOL0     H24435   0.321   9.895   2.442  1.0043  0.3687  0.0570
  943MOL0     H24436   0.160   9.781   2.670 -0.8079  1.7090 -0.3796
  943MOL0     H24437   0.242   9.677   2.539  0.6266  1.5047 -1.5051
  943MOL0     H24438   0.049   9.576   2.623  2.7055  0.5306 -5.0812
  943MOL0     H24439  -0.176   9.508   2.706 -1.6045  0.1163  1.2578
  943MOL0     H24440  -0.631   9.628   2.471  2.1481 -1.7313  1.6083
  943MOL0     H24441  -0.884   9.575   2.453  3.5254 -0.8332 -0.8914
  943MOL0     H24442  -1.128   9.678   2.807  1.3700 -1.1784  1.3895
  943MOL0     H24443  -1.113   9.509   2.836  2.3587  2.8461  2.2746
  943MOL0     H24444  -1.288   9.448   2.704  3.3909 -0.6722 -1.6384
  943MOL0     H24445  -1.278   9.601   2.599  1.5385 -1.4239 -0.1920
  943MOL0     H24446  -1.359   9.727   2.798  2.7534  0.2072 -1.0325
  943MOL0     H24447  -1.369   9.586   2.886 -0.1828  2.3069  0.5223
  943MOL0     H24448  -1.536   9.647   2.636  0.2509  0.9834  1.5562
  943MOL0     H24449  -1.543   9.485   2.696 -3.0811  1.0929 -1.0162
  943MOL0     H24450  -1.584   9.588   2.924 -0.1828  0.4164  0.5191
  943MOL0     H24451  -1.727   9.572   2.820 -1.0837  1.5025  1.3289
  943MOL0     H24452  -1.691   9.798   2.720  1.6587  1.7486  0.3499
  943MOL0     H24453  -1.584   9.838   2.857  2.0075 -1.4765  0.5612
  943MOL0     H24454  -1.876   9.729   2.896  0.5340 -1.3503  3.6367
  943MOL0     H24455  -1.763   9.763   3.019 -5.0333  0.5099  1.6418
  943MOL0     H24456  -1.899   9.954   2.846 -0.3875 -3.9100  0.0251
  943MOL0     H24457  -1.742  10.002   2.917 -0.1665  0.1225  1.2433
  943MOL0     H24458  -0.914   9.686   2.873 -1.8192  3.0627 -2.5199
  943MOL0     H24459  -0.684   9.727   2.874  0.7215 -3.7926  0.0239
  943MOL0     H24460  -0.341   9.854   2.507 -1.8343 -3.1592 -0.6756
  943MOL0     H24461  -0.140   9.904   2.405  2.3334 -1.8943 -1.9725
  943MOL0     H24462   1.190  10.320   3.778 -1.7598  0.5587  1.3497
  943MOL0     H24463   1.407  10.452   3.831  0.1025  1.2345 -0.3402
  943MOL0     H24464   1.504  11.052   3.832  1.1831  1.6967 -0.0640
  943MOL0     H24465   1.693  11.176   3.827  3.0760  0.4656  4.1343
  943MOL0     H24466   1.941  11.180   3.943  0.8069 -0.4817  1.4053
  943MOL0     H24467   1.923  11.265   3.786  1.7967 -0.4237 -3.3942
  943MOL0     H24468   2.160  11.211   3.742  1.4466 -0.5047  0.0838
  943MOL0     H24469   2.125  11.326   3.883  0.7896  0.1075  0.1696
  943MOL0     H24470   2.187  11.040   3.945 -0.8486 -0.2019  1.8097
  943MOL0     H24471   2.189  11.183   4.054  0.3326  1.1978  0.2308
  943MOL0     H24472   2.367  11.280   3.908 -1.8218 -0.2704  0.2703
  943MOL0     H24473   2.432  11.146   3.994  3.2005  2.4468 -1.4773
  943MOL0     H24474   2.518  10.968   3.646  2.4154 -1.3543  2.9383
  943MOL0     H24475   1.937  10.834   3.718  2.2454  2.7051  0.4235
  943MOL0     H24476   1.736  10.704   3.717  1.5624 -0.7766 -0.1582
  944MOL0     O24477   3.755   6.336   8.157 -0.5188 -0.3172  0.2161
  944MOL0     C24478   3.862   6.329   8.100 -0.4848 -0.4245 -0.4279
  944MOL0     O24479   3.889   6.237   7.998 -0.8050  0.9691 -0.3979
  944MOL0     C24480   3.789   6.142   7.978 -0.0001  0.1606 -0.2342
  944MOL0     C24481   3.748   6.047   8.075 -1.0908 -0.4645 -0.0095
  944MOL0     C24482   3.636   5.965   8.059  0.2281  0.2082 -0.6831
  944MOL0     C24483   3.575   5.963   7.931  1.1228  0.2141 -0.6905
  944MOL0     O24484   3.461   5.884   7.913 -0.4077  0.1012  0.1259
  944MOL0     C24485   3.474   5.746   7.952 -0.8411  0.0187  0.0782
  944MOL0     C24486   3.361   5.675   7.875 -0.5275  0.3896 -0.8009
  944MOL0     C24487   3.221   5.728   7.920 -0.0942 -0.4603 -0.0250
  944MOL0     C24488   3.114   5.638   7.866 -0.2424 -0.7778  0.1954
  944MOL0     C24489   2.973   5.684   7.894  0.0265 -0.0712 -0.1880
  944MOL0     C24490   2.927   5.691   8.045  0.1406 -0.5882 -0.1807
  944MOL0     C24491   2.793   5.756   8.061  0.5390 -0.1321  0.2791
  944MOL0     C24492   2.783   5.907   8.011 -0.5537 -0.1672  0.1136
  944MOL0     N24493   2.900   5.990   8.053  0.2412  0.7705  0.4878
  944MOL0     C24494   3.002   6.034   7.965 -0.8541  0.4718 -0.2669
  944MOL0     C24495   3.085   6.106   8.038  0.4905 -0.9502  0.8012
  944MOL0     C24496   3.217   6.166   8.005  0.4182 -0.7596 -0.2075
  944MOL0     C24497   3.237   6.302   8.083 -0.1104  0.1678  0.2797
  944MOL0     C24498   3.352   6.373   8.026 -0.9988  0.5309  0.3448
  944MOL0     C24499   3.416   6.486   8.101  0.5198 -0.3068  0.4376
  944MOL0     O24500   3.317   6.561   8.168  0.3541  0.1370 -0.8134
  944MOL0     C24501   3.365   6.668   8.239 -0.5797 -0.7584  0.0692
  944MOL0     C24502   3.494   6.682   8.286  0.0837  0.9940 -0.4099
  944MOL0     C24503   3.532   6.803   8.350  0.3570 -0.0422  0.4815
  944MOL0     C24504   3.444   6.917   8.341 -0.0628 -0.2148  0.7716
  944MOL0     C24505   3.484   7.047   8.396  0.2236  0.2080 -0.4620
  944MOL0     O24506   3.590   7.054   8.485  0.2790 -0.4248 -0.9370
  944MOL0     C24507   3.634   7.174   8.536  0.0262 -0.3640  0.9695
  944MOL0     C24508   3.613   7.192   8.677 -0.1915 -0.4616 -0.0804
  944MOL0     C24509   3.662   7.308   8.742  0.1153 -0.6390  0.2844
  944MOL0     C24510   3.721   7.412   8.667  0.9458  0.8494 -0.1856
  944MOL0     O24511   3.765   7.524   8.726  0.5733 -0.3377  0.2181
  944MOL0     C24512   3.905   7.563   8.727  0.6015  0.0925  0.0630
  944MOL0     C24513   3.921   7.687   8.811  0.4753 -0.8288  0.8597
  944MOL0     C24514   3.940   7.666   8.951 -0.9313 -0.3507 -0.0613
  944MOL0     C24515   3.991   7.795   9.026 -0.1045  0.3886  1.1700
  944MOL0     C24516   3.957   7.796   9.175 -0.0342  0.0128 -0.8161
  944MOL0     C24517   4.035   7.912   9.236  0.3172  0.8811 -0.0169
  944MOL0     C24518   3.994   7.913   9.387  0.4901  0.0257 -0.4615
  944MOL0     C24519   4.062   8.030   9.461  0.2886 -0.3742  0.1329
  944MOL0    Cl24520   3.988   8.191   9.411  0.2366  0.1007 -0.0111
  944MOL0     C24521   3.747   7.387   8.525 -0.0365 -0.3195 -0.7700
  944MOL0     C24522   3.703   7.270   8.463 -0.2790 -0.7134 -0.7927
  944MOL0     O24523   3.437   7.147   8.345  0.0187  0.7482  0.6893
  944MOL0     C24524   3.319   6.898   8.290 -0.5691 -0.1871  0.5438
  944MOL0     C24525   3.283   6.776   8.243  0.2404  0.2457  0.2122
  944MOL0     N24526   3.021   6.122   8.160 -0.3487 -0.2899  0.3398
  944MOL0     N24527   2.910   6.044   8.171 -0.7897  0.1309  0.6310
  944MOL0     C24528   3.618   6.041   7.827  0.2443 -0.0353  0.0117
  944MOL0     C24529   3.717   6.137   7.856 -0.0014  0.3372  0.8019
  944MOL0     C24530   3.957   6.443   8.121  0.4619 -0.0796  0.0091
  944MOL0     C24531   4.054   6.457   8.020 -0.4338  0.2414 -0.3537
  944MOL0     C24532   4.136   6.573   8.013  0.6688  0.4039  0.7329
  944MOL0     C24533   4.124   6.679   8.107 -0.2055 -0.1015  0.6720
  944MOL0     O24534   4.192   6.798   8.100  0.1080 -0.9198 -0.1071
  944MOL0     C24535   4.253   6.831   7.979 -0.7943 -0.5278  0.5488
  944MOL0     C24536   4.274   6.982   7.981 -0.2140 -0.2914 -0.6774
  944MOL0     C24537   4.374   7.020   8.088  0.0666 -0.0933  0.1373
  944MOL0     C24538   4.376   7.172   8.124 -0.0286  0.4755 -1.0317
  944MOL0     C24539   4.472   7.250   8.044 -0.5456 -0.3526 -0.5120
  944MOL0     C24540   4.532   7.329   7.978  0.2025  0.6942  0.0669
  944MOL0     C24541   4.042   6.656   8.216  0.1411  0.3976 -0.4732
  944MOL0     C24542   3.959   6.541   8.222  0.2049 -0.7507 -0.4011
  944MOL0     H24543   3.809   6.056   8.165  0.0369  1.5598 -0.9165
  944MOL0     H24544   3.601   5.903   8.141  4.2236 -1.7622 -0.2309
  944MOL0     H24545   3.476   5.724   8.059  1.3425 -0.1618  0.0442
  944MOL0     H24546   3.566   5.710   7.907 -0.9994  3.1664 -3.2547
  944MOL0     H24547   3.369   5.568   7.892  1.5615  0.7481  0.9729
  944MOL0     H24548   3.378   5.678   7.767  2.6267 -0.4138 -0.4112
  944MOL0     H24549   3.217   5.833   7.888 -0.6194 -1.2457 -2.8397
  944MOL0     H24550   3.218   5.718   8.029  1.5818 -2.6479 -0.1128
  944MOL0     H24551   3.115   5.632   7.756 -0.1310  1.8819 -0.0208
  944MOL0     H24552   3.127   5.542   7.917 -3.3236 -1.5071 -0.1977
  944MOL0     H24553   2.898   5.625   7.840 -1.0146  0.7087  0.3591
  944MOL0     H24554   2.955   5.788   7.863 -3.4611 -0.1029  1.1975
  944MOL0     H24555   2.993   5.752   8.109 -3.2864  2.9514  0.4087
  944MOL0     H24556   2.929   5.590   8.085  1.4799 -0.1082  1.0600
  944MOL0     H24557   2.725   5.691   8.005 -0.5886  2.1137 -1.0828
  944MOL0     H24558   2.761   5.749   8.166 -1.1027  2.5790  0.0593
  944MOL0     H24559   2.696   5.959   8.051  0.3004  1.0085  0.4710
  944MOL0     H24560   2.773   5.899   7.903 -2.3134 -1.2920  0.3051
  944MOL0     H24561   3.010   5.993   7.865  0.3876  0.2292 -0.0816
  944MOL0     H24562   3.223   6.182   7.897 -1.5047 -1.5874 -0.4694
  944MOL0     H24563   3.298   6.103   8.043 -0.3868 -1.7110 -0.0256
  944MOL0     H24564   3.259   6.292   8.190 -1.1256  0.0887  0.4933
  944MOL0     H24565   3.142   6.356   8.075 -0.3280  0.4018  3.1919
  944MOL0     H24566   3.424   6.297   7.995  1.4885  2.8587  0.0479
  944MOL0     H24567   3.312   6.420   7.936  0.0154  2.9887  1.0956
  944MOL0     H24568   3.479   6.541   8.029 -0.8424 -1.1591 -1.5014
  944MOL0     H24569   3.479   6.433   8.173  0.0031 -2.7126 -0.8004
  944MOL0     H24570   3.563   6.598   8.286  0.2375  1.0583 -2.7714
  944MOL0     H24571   3.626   6.816   8.402  0.6060 -0.6505  0.2006
  944MOL0     H24572   3.558   7.126   8.743  0.6332 -0.9074  0.1718
  944MOL0     H24573   3.650   7.319   8.849 -0.0159  0.9713  0.1200
  944MOL0     H24574   3.941   7.588   8.627  2.8847  1.1413  1.0764
  944MOL0     H24575   3.965   7.477   8.759  0.6349  0.1308  0.1019
  944MOL0     H24576   3.835   7.752   8.798 -0.6271 -1.6870  3.1454
  944MOL0     H24577   4.015   7.725   8.771 -0.5725  2.1290  1.0076
  944MOL0     H24578   4.010   7.586   8.975 -1.2146 -0.5661  0.0547
  944MOL0     H24579   3.844   7.642   8.997 -0.5334 -2.7761 -0.4079
  944MOL0     H24580   4.098   7.793   9.002 -0.2534  1.6147  0.3300
  944MOL0     H24581   3.949   7.887   8.984 -1.1315  0.2691  1.9052
  944MOL0     H24582   3.984   7.702   9.224  2.2916  0.9501 -0.1343
  944MOL0     H24583   3.850   7.815   9.188  0.4228  2.4502 -0.2069
  944MOL0     H24584   4.001   7.999   9.179  1.6433 -1.8262 -5.7600
  944MOL0     H24585   4.143   7.899   9.225  0.8208  3.0735  1.6818
  944MOL0     H24586   3.889   7.942   9.395  1.0271  2.4885 -1.4177
  944MOL0     H24587   4.008   7.815   9.432 -0.2675  0.1387  0.0584
  944MOL0     H24588   4.170   8.026   9.447  0.3156 -2.4728  0.4896
  944MOL0     H24589   4.035   8.021   9.567 -1.2112 -0.2504 -0.2135
  944MOL0     H24590   3.810   7.461   8.476  1.2703 -0.4297  0.6677
  944MOL0     H24591   3.720   7.261   8.356 -2.1613 -2.1355 -1.0389
  944MOL0     H24592   3.253   6.984   8.294  0.8565  1.1471 -2.0780
  944MOL0     H24593   3.184   6.764   8.200  0.0251  0.3253  0.6763
  944MOL0     H24594   3.570   6.049   7.730  0.3055 -3.2600 -0.3858
  944MOL0     H24595   3.738   6.206   7.775  3.1963 -0.8081  0.4992
  944MOL0     H24596   4.069   6.373   7.954 -0.3236 -1.7379  2.0739
  944MOL0     H24597   4.215   6.586   7.940 -1.3965  0.2186 -1.7069
  944MOL0     H24598   4.188   6.822   7.892  0.6499  2.1823 -0.9567
  944MOL0     H24599   4.347   6.777   7.961 -0.5010  0.6427 -1.7769
  944MOL0     H24600   4.308   7.021   7.884 -0.8544  3.5012  0.4826
  944MOL0     H24601   4.178   7.030   7.998 -0.8164 -1.1988 -1.4335
  944MOL0     H24602   4.477   6.986   8.076  0.6669  1.1716  1.3206
  944MOL0     H24603   4.355   6.965   8.181  2.9660 -2.4547 -0.5363
  944MOL0     H24604   4.276   7.212   8.107 -0.5731 -0.1011  0.5834
  944MOL0     H24605   4.401   7.187   8.229 -1.4345 -2.6693 -0.1245
  944MOL0     H24606   4.594   7.397   7.923  2.0489 -0.6199  0.4603
  944MOL0     H24607   4.044   6.727   8.298 -0.4713 -0.3312  0.1915
  944MOL0     H24608   3.902   6.514   8.310  0.9355  0.6092  0.5159
  945MOL0     O24609   5.301   8.910   3.568 -1.2221 -0.5306 -0.4567
  945MOL0     C24610   5.365   9.017   3.571  0.0023 -0.8534 -0.4306
  945MOL0     O24611   5.495   9.028   3.569 -1.4650  0.2446 -0.2483
  945MOL0     C24612   5.566   8.910   3.572 -0.2427 -0.3376  0.3116
  945MOL0     C24613   5.587   8.852   3.699  0.4214  0.2240  0.2854
  945MOL0     C24614   5.661   8.737   3.709 -0.3587  0.1361 -0.2644
  945MOL0     C24615   5.711   8.674   3.597  0.1915  0.5799 -0.0350
  945MOL0     O24616   5.772   8.553   3.598  0.8657 -0.2105 -0.5393
  945MOL0     C24617   5.851   8.511   3.705  0.6485 -0.0672  0.0646
  945MOL0     C24618   5.942   8.389   3.680 -0.9523  0.6380  0.1201
  945MOL0     C24619   6.049   8.375   3.789  0.4402 -0.7613  0.1802
  945MOL0     C24620   6.112   8.238   3.800 -0.1246 -0.6554 -0.0413
  945MOL0     C24621   6.185   8.196   3.677 -0.0082 -0.1365 -0.7124
  945MOL0     C24622   6.271   8.076   3.721 -0.2090 -0.0365 -0.0093
  945MOL0     C24623   6.354   8.006   3.609 -0.2359  0.5559  0.4935
  945MOL0     C24624   6.403   7.865   3.638 -0.1162 -0.7577  0.7233
  945MOL0     N24625   6.482   7.854   3.758 -0.8434 -0.0441  0.0030
  945MOL0     C24626   6.440   7.863   3.892 -0.0834 -0.7627  0.0311
  945MOL0     C24627   6.546   7.815   3.958 -0.3530  0.5269 -0.5715
  945MOL0     C24628   6.543   7.793   4.111 -0.2251 -0.9610  0.1050
  945MOL0     C24629   6.497   7.922   4.189  0.3226 -0.1943 -0.3575
  945MOL0     C24630   6.581   8.048   4.153  0.1024  0.0321  1.0166
  945MOL0     C24631   6.517   8.178   4.211 -0.0347 -0.4876 -0.6196
  945MOL0     O24632   6.401   8.193   4.132  0.3594 -0.8162 -0.0906
  945MOL0     C24633   6.297   8.259   4.194  0.6120  0.7679 -0.4475
  945MOL0     C24634   6.319   8.377   4.278  0.5495  0.9356  0.1344
  945MOL0     C24635   6.211   8.431   4.341 -0.5788 -0.2256  0.2205
  945MOL0     C24636   6.079   8.377   4.317 -0.0880 -2.0950  0.9305
  945MOL0     C24637   5.955   8.440   4.373 -0.3125  0.6365  0.2258
  945MOL0     O24638   5.838   8.402   4.313  0.2968 -0.2531 -0.0716
  945MOL0     C24639   5.728   8.479   4.350  0.1708  0.4058  0.0220
  945MOL0     C24640   5.623   8.421   4.428  0.8280 -0.3698 -0.6682
  945MOL0     C24641   5.509   8.502   4.456  0.0839 -0.3512 -1.3978
  945MOL0     C24642   5.499   8.631   4.409 -0.1054 -0.6135 -0.7250
  945MOL0     O24643   5.389   8.704   4.449 -0.4347  0.3358 -0.2386
  945MOL0     C24644   5.363   8.836   4.387  0.0023 -0.1388 -0.7121
  945MOL0     C24645   5.220   8.866   4.422  0.3945  0.0284 -0.1929
  945MOL0     C24646   5.127   8.769   4.359  0.5942  0.0893 -0.5421
  945MOL0     C24647   5.001   8.761   4.435  0.4722  0.9062 -0.3264
  945MOL0     C24648   4.907   8.650   4.377 -1.0845 -0.2443  0.5628
  945MOL0     C24649   4.774   8.642   4.453  0.2533  0.0298 -0.2410
  945MOL0     C24650   4.708   8.510   4.401 -0.9068 -0.8638  1.4890
  945MOL0     C24651   4.592   8.481   4.487 -0.6760  0.7648 -0.2902
  945MOL0    Cl24652   4.457   8.600   4.473 -0.0585 -0.2240  0.0829
  945MOL0     C24653   5.601   8.688   4.326  0.4835  0.3881  0.8002
  945MOL0     C24654   5.714   8.609   4.294  0.1797 -0.0965  0.2413
  945MOL0     O24655   5.968   8.513   4.463  0.3396  0.3932 -0.0905
  945MOL0     C24656   6.066   8.272   4.223  0.7727 -0.1208 -0.7524
  945MOL0     C24657   6.172   8.208   4.165 -0.3436 -0.3932  0.2231
  945MOL0     N24658   6.638   7.756   3.874  0.1926 -0.1142  1.0754
  945MOL0     N24659   6.604   7.791   3.753 -0.3691  0.6482  0.3317
  945MOL0     C24660   5.694   8.737   3.475  0.0455 -0.5373 -0.2029
  945MOL0     C24661   5.625   8.853   3.456 -0.6020  0.6553  0.0341
  945MOL0     C24662   5.280   9.132   3.594 -1.1280  0.4092  0.5400
  945MOL0     C24663   5.342   9.250   3.633 -0.9687 -0.0959  0.0978
  945MOL0     C24664   5.257   9.360   3.661  0.7000  0.3472 -1.0765
  945MOL0     C24665   5.117   9.353   3.648  0.3757  0.0444 -0.6434
  945MOL0     O24666   5.035   9.452   3.663  1.1869 -0.3471  0.1141
  945MOL0     C24667   5.006   9.504   3.797 -0.4699 -0.7952  0.2877
  945MOL0     C24668   4.914   9.411   3.885 -0.1057 -0.3139  0.5643
  945MOL0     C24669   4.766   9.441   3.860 -0.3548 -0.2531  0.6570
  945MOL0     C24670   4.721   9.364   3.726 -0.4254  1.2362  0.4115
  945MOL0     C24671   4.584   9.399   3.675  0.8301  0.8026  0.1857
  945MOL0     C24672   4.474   9.438   3.639 -0.0069  0.7067  0.7268
  945MOL0     C24673   5.068   9.234   3.614  0.0860 -0.4372  0.8164
  945MOL0     C24674   5.141   9.120   3.590  0.4629 -0.0821 -0.8638
  945MOL0     H24675   5.554   8.912   3.783 -1.7981 -0.8747  0.2806
  945MOL0     H24676   5.675   8.689   3.805  1.5826  0.6339 -0.2563
  945MOL0     H24677   5.790   8.504   3.795  3.2042  1.9156  2.1251
  945MOL0     H24678   5.921   8.594   3.715  0.4552  0.1694 -0.5202
  945MOL0     H24679   6.002   8.384   3.588  1.4751 -0.0821  1.6505
  945MOL0     H24680   5.870   8.307   3.679 -2.5993  2.0215  0.7736
  945MOL0     H24681   6.007   8.398   3.888  2.4506 -0.5180  1.0223
  945MOL0     H24682   6.134   8.441   3.767  0.4298 -1.1185 -0.9512
  945MOL0     H24683   6.180   8.233   3.885 -1.7018  0.9446  1.3974
  945MOL0     H24684   6.029   8.174   3.833 -2.7254  1.9829 -1.0353
  945MOL0     H24685   6.247   8.274   3.632  1.7400 -0.6039  0.7994
  945MOL0     H24686   6.113   8.160   3.602  1.0267  0.7635 -2.2028
  945MOL0     H24687   6.214   7.995   3.767 -1.1882  0.0933 -0.9493
  945MOL0     H24688   6.344   8.119   3.790  3.3354  0.7470 -3.8758
  945MOL0     H24689   6.281   8.005   3.527 -0.4193  0.3647  0.6561
  945MOL0     H24690   6.439   8.070   3.584 -1.2721  2.0791  0.6987
  945MOL0     H24691   6.480   7.853   3.562  0.9581  4.0243  0.7547
  945MOL0     H24692   6.330   7.783   3.637 -0.4510 -0.4652 -0.6078
  945MOL0     H24693   6.346   7.906   3.924 -0.6189  0.1967 -2.5921
  945MOL0     H24694   6.645   7.772   4.145  0.6650  1.1345 -1.0682
  945MOL0     H24695   6.468   7.717   4.134 -1.5951 -0.0887 -1.3244
  945MOL0     H24696   6.509   7.897   4.295 -2.3226 -1.1613 -0.2109
  945MOL0     H24697   6.390   7.936   4.172  0.3203 -1.5777 -1.6743
  945MOL0     H24698   6.684   8.055   4.189  0.5398  2.0195 -0.4239
  945MOL0     H24699   6.592   8.070   4.046  2.0397  0.0923  1.1797
  945MOL0     H24700   6.585   8.262   4.198 -1.9146  1.3590  0.8171
  945MOL0     H24701   6.489   8.161   4.315  0.7053 -0.1729 -0.3617
  945MOL0     H24702   6.412   8.429   4.297  1.1067 -0.4902  1.6417
  945MOL0     H24703   6.219   8.507   4.418  0.7056  0.4209 -0.5157
  945MOL0     H24704   5.641   8.323   4.469  0.2447 -0.0108  0.4968
  945MOL0     H24705   5.434   8.460   4.523 -1.2841  2.7136 -0.7965
  945MOL0     H24706   5.375   8.839   4.278 -4.2825 -0.4151 -1.3935
  945MOL0     H24707   5.433   8.903   4.438 -1.7597  0.2039  1.4380
  945MOL0     H24708   5.190   8.966   4.392  0.9142  0.2147 -0.1102
  945MOL0     H24709   5.204   8.851   4.529  1.7954 -1.9175 -0.1942
  945MOL0     H24710   5.178   8.672   4.361  3.1280  1.3522 -0.5171
  945MOL0     H24711   5.114   8.791   4.252  0.3274  1.0091 -0.3265
  945MOL0     H24712   5.015   8.736   4.541 -1.8192 -4.2519 -0.9231
  945MOL0     H24713   4.944   8.854   4.439  1.8593  1.7515  2.2631
  945MOL0     H24714   4.959   8.554   4.379 -2.1557 -0.8416  0.9143
  945MOL0     H24715   4.892   8.684   4.274 -0.0930  0.5255  0.6571
  945MOL0     H24716   4.717   8.732   4.429 -0.6282 -0.4861 -0.1497
  945MOL0     H24717   4.775   8.633   4.562  1.9525 -3.5556 -0.4024
  945MOL0     H24718   4.687   8.525   4.294 -0.7631  0.2299  1.6028
  945MOL0     H24719   4.777   8.425   4.394 -2.0708 -1.7199 -2.3528
  945MOL0     H24720   4.621   8.486   4.592  0.5902  1.9653 -0.6719
  945MOL0     H24721   4.563   8.375   4.481  0.4431  0.2029  2.7261
  945MOL0     H24722   5.588   8.789   4.291 -1.1584 -0.1490 -0.2443
  945MOL0     H24723   5.780   8.661   4.225  2.0478 -2.4225  0.1209
  945MOL0     H24724   5.960   8.253   4.210  0.3434  0.8943  0.9570
  945MOL0     H24725   6.156   8.122   4.100 -0.8063  1.2526 -1.9680
  945MOL0     H24726   5.737   8.682   3.391  1.4054 -2.3359  1.5723
  945MOL0     H24727   5.630   8.900   3.358 -1.2906 -0.1880 -0.4184
  945MOL0     H24728   5.449   9.261   3.641 -0.8771 -0.3683 -0.7095
  945MOL0     H24729   5.310   9.451   3.686  2.8998 -1.2625  0.5735
  945MOL0     H24730   4.974   9.608   3.792  0.8809 -0.4186 -1.2876
  945MOL0     H24731   5.104   9.506   3.845 -1.1383  2.4124  1.8009
  945MOL0     H24732   4.936   9.307   3.859 -1.2251 -0.1795 -1.0897
  945MOL0     H24733   4.930   9.424   3.993  1.7342 -1.1962  0.4282
  945MOL0     H24734   4.753   9.547   3.835 -0.1926 -0.3803  0.0264
  945MOL0     H24735   4.713   9.407   3.950  1.6800 -0.7929  1.7118
  945MOL0     H24736   4.784   9.387   3.639  1.3365  1.8829  1.7914
  945MOL0     H24737   4.719   9.256   3.746 -1.8700  1.3655  1.0338
  945MOL0     H24738   4.376   9.468   3.608  0.1505 -0.8992 -1.6558
  945MOL0     H24739   4.961   9.220   3.602  0.4125 -0.2807 -4.0318
  945MOL0     H24740   5.099   9.033   3.541  2.6005 -1.2178 -0.8055
  946MOL0     O24741   3.262   6.335   5.654  0.0117  1.0011 -0.1597
  946MOL0     C24742   3.315   6.289   5.751  1.0503 -0.4633  0.2771
  946MOL0     O24743   3.250   6.238   5.859  0.5492 -0.0195 -0.1898
  946MOL0     C24744   3.113   6.233   5.865 -0.7032 -0.5405 -0.3061
  946MOL0     C24745   3.066   6.134   5.955 -0.6775  0.2417 -0.2250
  946MOL0     C24746   2.934   6.119   5.988  0.0794  0.3974  0.0213
  946MOL0     C24747   2.848   6.211   5.932  0.3143  0.9246  0.3370
  946MOL0     O24748   2.713   6.198   5.965  0.4281 -0.2102  0.3643
  946MOL0     C24749   2.650   6.322   5.994  0.6413 -0.0929 -0.6032
  946MOL0     C24750   2.526   6.276   6.070  0.1529  0.5907 -0.1342
  946MOL0     C24751   2.439   6.386   6.127 -0.8069 -0.9020 -0.0035
  946MOL0     C24752   2.316   6.328   6.181 -0.4213  1.1593 -0.0308
  946MOL0     C24753   2.209   6.335   6.074  0.1581 -0.0726 -0.1981
  946MOL0     C24754   2.073   6.288   6.122 -0.6743  0.5114  0.4061
  946MOL0     C24755   1.960   6.344   6.032  0.1892  0.3525  0.3388
  946MOL0     C24756   1.817   6.299   6.076 -0.6533 -0.1311 -0.1368
  946MOL0     N24757   1.788   6.290   6.223 -0.7080  0.1157  0.5360
  946MOL0     C24758   1.721   6.367   6.310 -0.3780 -0.4709 -1.0605
  946MOL0     C24759   1.731   6.306   6.430  0.4709  0.2353  0.0053
  946MOL0     C24760   1.684   6.381   6.553 -0.2315 -0.2464  0.3229
  946MOL0     C24761   1.545   6.333   6.597 -0.0442 -0.4098  0.8002
  946MOL0     C24762   1.430   6.394   6.510  0.2209  0.2744 -0.1160
  946MOL0     C24763   1.302   6.368   6.578 -0.5583 -0.0463  0.3988
  946MOL0     O24764   1.197   6.433   6.495  0.0636 -0.3881 -0.4491
  946MOL0     C24765   1.069   6.431   6.544 -0.1019  0.2434  0.3741
  946MOL0     C24766   0.970   6.498   6.462 -0.8367 -0.4450  0.1148
  946MOL0     C24767   0.844   6.530   6.513 -0.2391  0.2836 -0.4987
  946MOL0     C24768   0.809   6.484   6.641  0.3471 -0.2912 -0.7643
  946MOL0     C24769   0.676   6.508   6.708 -0.2009 -0.5638  0.2329
  946MOL0     O24770   0.604   6.599   6.629  0.6435 -0.8878 -0.2153
  946MOL0     C24771   0.474   6.623   6.678  0.2300  0.6466 -0.1858
  946MOL0     C24772   0.454   6.747   6.738 -0.3051 -0.2460 -0.6783
  946MOL0     C24773   0.328   6.775   6.806 -0.3267  0.8475 -0.7349
  946MOL0     C24774   0.225   6.675   6.805 -0.3465 -0.5197 -0.0985
  946MOL0     O24775   0.105   6.709   6.872 -0.0503 -0.2679  0.3258
  946MOL0     C24776  -0.016   6.656   6.828 -0.0331  0.2803 -0.8196
  946MOL0     C24777  -0.139   6.712   6.914  0.4888  0.7753 -0.1293
  946MOL0     C24778  -0.274   6.712   6.841 -0.9042 -0.2552 -0.6937
  946MOL0     C24779  -0.376   6.777   6.919  0.2449  0.6300 -0.5777
  946MOL0     C24780  -0.427   6.687   7.037 -0.2485  0.2419  0.8405
  946MOL0     C24781  -0.497   6.773   7.138  1.0423 -0.2683 -0.5469
  946MOL0     C24782  -0.635   6.825   7.087 -1.3583  0.4929  1.4849
  946MOL0     C24783  -0.741   6.716   7.051  0.6986  0.0670  0.3945
  946MOL0    Cl24784  -0.882   6.800   6.980 -0.3146  0.0072 -0.3036
  946MOL0     C24785   0.254   6.551   6.748 -0.6580  0.9750 -0.2437
  946MOL0     C24786   0.374   6.531   6.672 -0.6827 -0.2270 -0.4054
  946MOL0     O24787   0.653   6.464   6.815 -0.5042 -0.1491 -0.5485
  946MOL0     C24788   0.909   6.417   6.715 -0.1828  0.2824  0.0874
  946MOL0     C24789   1.031   6.387   6.670  0.1764  0.7323 -0.3725
  946MOL0     N24790   1.792   6.181   6.414 -0.1997 -0.6393  0.6047
  946MOL0     N24791   1.825   6.174   6.285 -0.4099 -0.0403 -0.3635
  946MOL0     C24792   2.884   6.299   5.828 -0.0148  1.0430 -0.0509
  946MOL0     C24793   3.021   6.326   5.807 -0.4472  1.3304 -0.3574
  946MOL0     C24794   3.463   6.291   5.748 -0.8035  0.7875 -0.0692
  946MOL0     C24795   3.537   6.317   5.632  0.5827  0.5396 -0.8244
  946MOL0     C24796   3.671   6.286   5.613 -0.3513 -0.6564  0.6178
  946MOL0     C24797   3.743   6.250   5.728 -0.6460 -0.2023  0.5417
  946MOL0     O24798   3.882   6.241   5.737  0.2110 -1.0037 -0.8133
  946MOL0     C24799   3.968   6.309   5.638 -0.7295 -0.4744  0.5436
  946MOL0     C24800   4.103   6.256   5.655  0.1135 -0.0562 -0.4988
  946MOL0     C24801   4.162   6.290   5.793 -0.6809  0.2813 -1.1930
  946MOL0     C24802   4.225   6.431   5.791  1.5572 -0.2749  0.2288
  946MOL0     C24803   4.312   6.443   5.907  0.3207 -0.4669 -0.0557
  946MOL0     C24804   4.362   6.448   6.021  0.3067 -0.6417 -0.3308
  946MOL0     C24805   3.672   6.218   5.848 -0.1618  0.0840 -0.8373
  946MOL0     C24806   3.532   6.240   5.855  0.2105 -0.7229  0.4766
  946MOL0     H24807   3.131   6.068   6.011 -1.0829  0.0583  0.0298
  946MOL0     H24808   2.912   6.039   6.058 -1.9183  1.9224  1.2381
  946MOL0     H24809   2.613   6.379   5.909 -0.7282  0.5493  0.3833
  946MOL0     H24810   2.714   6.387   6.055  4.1458 -0.7305 -3.2740
  946MOL0     H24811   2.552   6.211   6.154 -0.2962  0.5613 -0.0134
  946MOL0     H24812   2.461   6.216   6.005  0.3048  1.7605 -1.4115
  946MOL0     H24813   2.420   6.471   6.059 -0.0988 -0.1417  0.7253
  946MOL0     H24814   2.503   6.429   6.205 -0.1790 -3.2218  0.8369
  946MOL0     H24815   2.333   6.225   6.214  0.2858  0.3119 -2.7623
  946MOL0     H24816   2.289   6.388   6.269  0.8230  2.7795 -0.6922
  946MOL0     H24817   2.221   6.295   5.973 -2.9202  0.8559 -1.0410
  946MOL0     H24818   2.204   6.443   6.058 -1.2058 -0.1866 -0.6118
  946MOL0     H24819   2.045   6.324   6.221  0.5904  1.3733  0.4781
  946MOL0     H24820   2.071   6.179   6.113  0.6010  0.2917  2.1541
  946MOL0     H24821   1.953   6.452   6.050 -0.5013  0.5083 -0.7098
  946MOL0     H24822   1.965   6.318   5.926  0.0150  1.0207  0.1611
  946MOL0     H24823   1.798   6.197   6.042  0.7281 -0.8555  1.1553
  946MOL0     H24824   1.746   6.361   6.020  1.4535  2.0150 -0.5822
  946MOL0     H24825   1.680   6.467   6.297 -0.9881 -0.4042  1.0640
  946MOL0     H24826   1.671   6.488   6.536 -2.5373 -0.6814 -1.1278
  946MOL0     H24827   1.760   6.359   6.629  1.1894 -0.0911 -0.9969
  946MOL0     H24828   1.539   6.349   6.705  3.0187 -0.3808  1.0612
  946MOL0     H24829   1.539   6.225   6.585  0.5825 -0.1725 -2.7022
  946MOL0     H24830   1.442   6.499   6.481  2.0150 -0.3005 -1.6283
  946MOL0     H24831   1.407   6.345   6.416 -3.3007  1.0497  0.2069
  946MOL0     H24832   1.312   6.402   6.682 -1.4316  2.0290 -0.1623
  946MOL0     H24833   1.286   6.260   6.574  0.1507 -0.1239 -2.5834
  946MOL0     H24834   1.000   6.542   6.368  0.3169 -3.4499 -1.0129
  946MOL0     H24835   0.773   6.588   6.457  1.8313  0.8683 -2.6679
  946MOL0     H24836   0.526   6.828   6.746 -0.8689  0.1447  0.8159
  946MOL0     H24837   0.319   6.862   6.869 -0.7050 -2.0986  3.7398
  946MOL0     H24838  -0.008   6.547   6.832  0.7041  0.3466 -0.4243
  946MOL0     H24839  -0.028   6.698   6.727 -1.5676  2.1538  0.0951
  946MOL0     H24840  -0.117   6.816   6.938  0.6747  1.6179 -3.5102
  946MOL0     H24841  -0.142   6.638   6.995  0.4900 -0.4588 -1.2196
  946MOL0     H24842  -0.305   6.609   6.821 -1.2864 -0.0603 -1.1029
  946MOL0     H24843  -0.272   6.749   6.739  1.1070 -1.9375 -1.3445
  946MOL0     H24844  -0.339   6.871   6.961 -0.8315  0.5409  0.6340
  946MOL0     H24845  -0.450   6.795   6.841  0.0806 -0.7443 -0.7746
  946MOL0     H24846  -0.347   6.628   7.080 -2.1484 -2.4290  0.9485
  946MOL0     H24847  -0.490   6.601   7.011  1.2252 -0.1372 -1.8635
  946MOL0     H24848  -0.426   6.849   7.172  0.6074 -1.3901  3.4184
  946MOL0     H24849  -0.503   6.705   7.223  0.8596  1.4792  0.9040
  946MOL0     H24850  -0.682   6.880   7.170 -0.8760  1.8186  0.9049
  946MOL0     H24851  -0.612   6.890   7.003  0.2696  0.5743  1.9710
  946MOL0     H24852  -0.763   6.649   7.135  0.0028 -1.3395 -0.8561
  946MOL0     H24853  -0.713   6.648   6.969  0.3290  0.7891 -0.3440
  946MOL0     H24854   0.181   6.471   6.741 -1.2722  1.2257  2.3154
  946MOL0     H24855   0.388   6.432   6.631 -0.6279  0.1796 -1.4213
  946MOL0     H24856   0.882   6.371   6.809  2.4591 -1.8584 -0.0531
  946MOL0     H24857   1.100   6.354   6.748  0.3393  1.4353 -0.2178
  946MOL0     H24858   2.817   6.359   5.768  2.2524  1.0557 -2.7913
  946MOL0     H24859   3.054   6.404   5.739  2.5303  1.2350  0.8046
  946MOL0     H24860   3.480   6.357   5.549  3.3340  3.8557 -1.3625
  946MOL0     H24861   3.711   6.297   5.513  0.0805 -0.3373  0.8230
  946MOL0     H24862   3.968   6.418   5.652  3.2147 -0.1662 -0.5663
  946MOL0     H24863   3.939   6.279   5.537  1.3245 -0.4053 -0.1167
  946MOL0     H24864   4.104   6.147   5.643 -0.3824  0.0400 -1.4973
  946MOL0     H24865   4.152   6.289   5.563 -0.7301  0.5433 -0.7375
  946MOL0     H24866   4.232   6.208   5.815 -0.4182  0.4837 -1.2737
  946MOL0     H24867   4.082   6.283   5.867 -0.1233 -1.5631 -0.7034
  946MOL0     H24868   4.285   6.452   5.702  0.0230  0.6594 -0.6247
  946MOL0     H24869   4.147   6.508   5.791  0.8996 -0.9299 -0.0302
  946MOL0     H24870   4.413   6.441   6.115 -2.0333 -0.5705  1.0141
  946MOL0     H24871   3.734   6.165   5.920  2.1709  0.4661 -2.4478
  946MOL0     H24872   3.478   6.214   5.946 -2.0441 -0.7876 -0.8030
  947MOL0     O24873   5.398   0.120  11.263  0.6222  1.1605 -0.3868
  947MOL0     C24874   5.494   0.122  11.334  1.0290  0.1121 -0.9369
  947MOL0     O24875   5.494   0.172  11.456  0.0600 -0.2692 -0.4305
  947MOL0     C24876   5.382   0.240  11.502 -0.9292  0.4819 -0.1212
  947MOL0     C24877   5.282   0.175  11.571  0.3474  0.0669  0.6672
  947MOL0     C24878   5.171   0.249  11.621 -0.0521  0.9303  0.0100
  947MOL0     C24879   5.158   0.384  11.599 -0.2837  1.2164  0.4595
  947MOL0     O24880   5.060   0.464  11.643 -0.2372  0.1368 -0.4268
  947MOL0     C24881   5.023   0.459  11.784 -1.0771  0.8053 -0.5001
  947MOL0     C24882   4.910   0.562  11.806 -1.1122  1.1035 -0.0872
  947MOL0     C24883   4.871   0.585  11.954  1.0722  0.2638 -0.6416
  947MOL0     C24884   4.875   0.459  12.042  0.4847 -0.1352 -0.0442
  947MOL0     C24885   4.901   0.481  12.189 -0.0003 -0.0409  0.6620
  947MOL0     C24886   4.849   0.606  12.254 -0.4886 -0.0644 -0.2486
  947MOL0     C24887   4.905   0.620  12.396 -0.7860 -0.7193  0.4810
  947MOL0     C24888   4.839   0.525  12.501 -0.7673  0.3653 -1.4050
  947MOL0     N24889   4.827   0.587  12.639  0.3775  0.3843  0.0934
  947MOL0     C24890   4.736   0.685  12.674 -0.4117 -0.8168 -0.6078
  947MOL0     C24891   4.761   0.699  12.810  0.2388  0.5278 -0.3257
  947MOL0     C24892   4.707   0.798  12.910 -0.4142  0.5193  0.4689
  947MOL0     C24893   4.651   0.928  12.853  0.0383 -0.9802  0.5967
  947MOL0     C24894   4.622   1.026  12.966 -0.0497  0.3154 -1.0984
  947MOL0     C24895   4.579   0.969  13.102  0.2784 -0.1562  0.6668
  947MOL0     O24896   4.538   1.083  13.183  0.0275 -0.4219  0.1289
  947MOL0     C24897   4.412   1.143  13.180  0.4484  0.5169 -0.8587
  947MOL0     C24898   4.307   1.082  13.107  0.9232  0.7008 -0.0169
  947MOL0     C24899   4.174   1.123  13.125 -0.5425 -0.1410  0.9663
  947MOL0     C24900   4.146   1.230  13.208  0.1598 -0.4826 -1.1225
  947MOL0     C24901   4.006   1.276  13.211 -0.0756 -0.4960 -0.2904
  947MOL0     O24902   3.988   1.384  13.310 -0.2081 -0.0217  0.0217
  947MOL0     C24903   3.867   1.433  13.336  0.1565 -0.5978 -0.5198
  947MOL0     C24904   3.844   1.482  13.463  0.1327 -0.1836 -0.1779
  947MOL0     C24905   3.724   1.546  13.492  0.4090  0.8186 -0.2615
  947MOL0     C24906   3.624   1.559  13.398  0.1272 -0.7664  1.1417
  947MOL0     O24907   3.504   1.621  13.421 -0.4570 -0.3815 -0.8023
  947MOL0     C24908   3.458   1.639  13.551  0.6086 -0.4519  0.0268
  947MOL0     C24909   3.316   1.689  13.559  0.2143  0.3994 -0.3231
  947MOL0     C24910   3.218   1.570  13.547  0.9255 -0.1573 -0.1699
  947MOL0     C24911   3.068   1.609  13.563 -0.2260 -0.3698 -0.3523
  947MOL0     C24912   3.036   1.655  13.705  0.6124  0.1708  0.8479
  947MOL0     C24913   2.885   1.690  13.711  0.5014  0.2886  1.1209
  947MOL0     C24914   2.789   1.599  13.780 -0.9004 -0.5068 -0.5245
  947MOL0     C24915   2.650   1.662  13.789 -0.7309 -0.1337 -0.3085
  947MOL0    Cl24916   2.595   1.716  13.622  0.2330  0.0757 -0.3440
  947MOL0     C24917   3.652   1.518  13.265 -0.2610  0.1595 -0.3610
  947MOL0     C24918   3.773   1.455  13.240  0.7570 -0.7980  1.2535
  947MOL0     O24919   3.928   1.239  13.125  0.3706 -0.1034 -0.2339
  947MOL0     C24920   4.254   1.289  13.281  0.3427 -0.6735  0.4481
  947MOL0     C24921   4.383   1.249  13.264 -0.0123 -0.7570 -0.1498
  947MOL0     N24922   4.863   0.618  12.842 -0.3646 -0.4894  0.0814
  947MOL0     N24923   4.893   0.541  12.739  0.0799  0.4362  1.0588
  947MOL0     C24924   5.272   0.444  11.535  0.4043  0.1896  0.9237
  947MOL0     C24925   5.374   0.379  11.500  0.6699  0.4255  0.3970
  947MOL0     C24926   5.623   0.058  11.277  0.4784  0.1979  0.2648
  947MOL0     C24927   5.657   0.048  11.136  0.1193 -0.1325  0.2954
  947MOL0     C24928   5.778  -0.019  11.086  1.1559 -0.2363  0.6057
  947MOL0     C24929   5.867  -0.071  11.182 -0.3473  0.2001  0.5069
  947MOL0     O24930   5.994  -0.120  11.152  0.7897 -0.2985  1.4341
  947MOL0     C24931   6.042  -0.238  11.203  0.9877 -0.4259 -0.4112
  947MOL0     C24932   6.145  -0.278  11.094  0.1284 -0.2933  0.0444
  947MOL0     C24933   6.241  -0.405  11.113 -0.7010  0.2577  0.3819
  947MOL0     C24934   6.362  -0.390  11.013  0.4317 -0.2362 -0.7254
  947MOL0     C24935   6.467  -0.306  11.064  0.4752 -0.6103 -0.1119
  947MOL0     C24936   6.552  -0.224  11.096  0.2653  0.5209 -0.4416
  947MOL0     C24937   5.823  -0.076  11.317 -0.0296 -0.0499  0.8651
  947MOL0     C24938   5.711  -0.015  11.365  0.2392  0.2812  0.1105
  947MOL0     H24939   5.277   0.067  11.563  1.0441  0.1147 -0.7923
  947MOL0     H24940   5.100   0.182  11.669 -1.6926  0.8553 -2.3684
  947MOL0     H24941   5.104   0.483  11.853 -1.7099 -0.5965  0.7764
  947MOL0     H24942   4.991   0.358  11.812  1.9577  0.4113  2.0135
  947MOL0     H24943   4.819   0.526  11.756 -1.5753 -4.1926  3.6734
  947MOL0     H24944   4.934   0.661  11.768 -1.5466  1.3619  0.3058
  947MOL0     H24945   4.768   0.621  11.961  0.8371 -0.6888  2.6874
  947MOL0     H24946   4.924   0.672  11.993  0.8449  0.5707 -1.0040
  947MOL0     H24947   4.779   0.407  12.042  0.6722 -0.5585 -1.9225
  947MOL0     H24948   4.947   0.382  12.012  0.3087 -1.3346  2.4349
  947MOL0     H24949   5.010   0.490  12.196 -0.1123  2.7733  0.1211
  947MOL0     H24950   4.878   0.392  12.248  1.5941  0.2809  1.8652
  947MOL0     H24951   4.740   0.608  12.264 -0.3031  2.5989  3.0316
  947MOL0     H24952   4.874   0.701  12.205  1.1474 -0.1612  0.3460
  947MOL0     H24953   5.014   0.614  12.392 -0.8464 -4.3728  0.8568
  947MOL0     H24954   4.877   0.722  12.422 -0.5800 -0.1445 -1.4143
  947MOL0     H24955   4.891   0.429  12.506 -1.7944 -0.1866  3.1577
  947MOL0     H24956   4.737   0.506  12.466 -1.3832  1.5743 -0.3334
  947MOL0     H24957   4.666   0.735  12.607  1.4993 -0.5836 -2.5151
  947MOL0     H24958   4.780   0.824  12.987  0.9147  1.1554 -0.9488
  947MOL0     H24959   4.626   0.741  12.956 -0.3081  1.3816  1.7633
  947MOL0     H24960   4.561   0.907  12.794  0.1550  0.9542 -0.3405
  947MOL0     H24961   4.728   0.975  12.791  1.5238 -1.5626  1.9375
  947MOL0     H24962   4.710   1.087  12.989 -0.4145  0.2224  0.6661
  947MOL0     H24963   4.544   1.089  12.922 -0.0685 -0.3509 -2.0579
  947MOL0     H24964   4.662   0.912  13.145 -0.3465 -0.1390  1.9451
  947MOL0     H24965   4.490   0.905  13.095 -0.5588  1.0270 -0.0074
  947MOL0     H24966   4.331   1.004  13.036  0.0888 -0.2211  0.6834
  947MOL0     H24967   4.096   1.075  13.067 -0.7918  1.1149  0.2358
  947MOL0     H24968   3.918   1.477  13.542  1.2571  1.5373 -1.0893
  947MOL0     H24969   3.711   1.578  13.595  2.6950  1.8789 -0.2458
  947MOL0     H24970   3.526   1.709  13.601  1.7306 -1.5557  0.1100
  947MOL0     H24971   3.456   1.543  13.603 -1.1819  0.0813  1.0114
  947MOL0     H24972   3.299   1.760  13.477  0.8110  1.4980  0.4867
  947MOL0     H24973   3.307   1.754  13.646  2.0083  2.2248 -1.4101
  947MOL0     H24974   3.240   1.497  13.626  0.5924 -0.4968 -0.3907
  947MOL0     H24975   3.241   1.513  13.457 -0.0778 -1.1699  0.1871
  947MOL0     H24976   3.054   1.699  13.501 -2.0393  0.1445  0.7133
  947MOL0     H24977   2.992   1.541  13.525 -1.4395  1.1895 -0.8518
  947MOL0     H24978   3.095   1.744  13.726  0.0688  0.9692 -0.8292
  947MOL0     H24979   3.062   1.586  13.786 -0.1168 -0.1261  0.8326
  947MOL0     H24980   2.844   1.698  13.610  0.4969  4.3077  1.2995
  947MOL0     H24981   2.868   1.793  13.744 -2.6980  0.6818 -1.2670
  947MOL0     H24982   2.773   1.505  13.728 -1.6888 -0.7411  0.1280
  947MOL0     H24983   2.823   1.578  13.881 -2.2986 -2.1605 -0.3624
  947MOL0     H24984   2.649   1.747  13.858 -0.7367 -1.3789  1.2793
  947MOL0     H24985   2.573   1.596  13.831 -1.1491 -2.1172 -3.8220
  947MOL0     H24986   3.572   1.530  13.193 -3.1555 -2.9141  1.9813
  947MOL0     H24987   3.789   1.431  13.135 -2.2830 -1.8938  0.9283
  947MOL0     H24988   4.238   1.362  13.361 -0.9277 -0.4733  0.0341
  947MOL0     H24989   4.462   1.299  13.319 -0.3982 -0.0534 -0.2240
  947MOL0     H24990   5.266   0.552  11.521  3.0947  0.0265 -3.3845
  947MOL0     H24991   5.455   0.439  11.458  1.2453  0.7854  1.9235
  947MOL0     H24992   5.583   0.053  11.057  0.1436 -3.1077 -0.0303
  947MOL0     H24993   5.790  -0.022  10.978 -3.5977 -0.9270 -0.1147
  947MOL0     H24994   5.961  -0.311  11.196  1.1909 -0.6348 -0.6065
  947MOL0     H24995   6.080  -0.224  11.305 -1.8764 -1.2364  0.8567
  947MOL0     H24996   6.088  -0.305  11.005 -1.2854 -2.6606  1.5630
  947MOL0     H24997   6.201  -0.187  11.070 -0.4520 -0.2591 -1.2458
  947MOL0     H24998   6.193  -0.501  11.092  0.9477 -1.0152  2.1427
  947MOL0     H24999   6.274  -0.408  11.218 -0.5061  0.3786  0.3242
  947MOL0     H25000   6.399  -0.493  11.005  1.6751  0.3026 -2.3934
  947MOL0     H25001   6.310  -0.350  10.926 -0.4454  1.9589  0.7216
  947MOL0     H25002   6.617  -0.147  11.132  1.3474 -0.9857  1.0059
  947MOL0     H25003   5.891  -0.115  11.392  3.3157 -0.5030 -2.0979
  947MOL0     H25004   5.694  -0.028  11.471  3.6339 -1.2280  0.6266
  948MOL0     O25005   9.358  10.582   8.081  0.0567  0.2208 -0.6570
  948MOL0     C25006   9.447  10.575   8.162 -0.1019  0.2103  0.3569
  948MOL0     O25007   9.429  10.519   8.284 -0.1169 -0.2219 -0.1041
  948MOL0     C25008   9.327  10.428   8.300  0.7944  0.2311  0.4183
  948MOL0     C25009   9.365  10.297   8.331  0.2051  0.3191  0.0219
  948MOL0     C25010   9.278  10.198   8.390 -0.1847 -0.5599  0.6512
  948MOL0     C25011   9.146  10.246   8.412  0.2183  0.1445  0.5621
  948MOL0     O25012   9.070  10.150   8.469 -0.1076 -0.5399  0.7693
  948MOL0     C25013   9.094  10.143   8.616 -0.1480  0.4848  0.0966
  948MOL0     C25014   8.974  10.089   8.685 -0.8509 -0.5264  0.2879
  948MOL0     C25015   8.844  10.116   8.617  0.0470 -0.2591  0.4525
  948MOL0     C25016   8.730  10.084   8.724 -0.4813  0.4189  0.4670
  948MOL0     C25017   8.616   9.996   8.659 -0.5622 -0.0289  0.4541
  948MOL0     C25018   8.530   9.957   8.777  0.3712  0.0309 -0.0004
  948MOL0     C25019   8.401   9.896   8.714 -0.0369 -0.0300 -1.0211
  948MOL0     C25020   8.303   9.868   8.829 -0.3095 -0.0295  0.2319
  948MOL0     N25021   8.159   9.873   8.781 -0.9734  0.7653  0.3504
  948MOL0     C25022   8.095   9.774   8.712  0.2265  0.5524 -0.0970
  948MOL0     C25023   7.972   9.823   8.704  0.0387 -0.2183  0.2186
  948MOL0     C25024   7.854   9.751   8.636 -0.4157 -0.5948 -0.3603
  948MOL0     C25025   7.765   9.696   8.757 -0.1183  0.2959 -0.2802
  948MOL0     C25026   7.640   9.625   8.696 -0.8150 -0.3916 -0.5146
  948MOL0     C25027   7.582   9.543   8.815  0.8268  0.4283  0.1220
  948MOL0     O25028   7.456   9.492   8.765 -0.5700  0.5241  0.2722
  948MOL0     C25029   7.334   9.563   8.767 -1.0593 -0.0839 -0.6522
  948MOL0     C25030   7.317   9.690   8.820  0.4572  0.5988 -1.2383
  948MOL0     C25031   7.187   9.738   8.838  0.6422  0.1885  1.3227
  948MOL0     C25032   7.075   9.655   8.810 -0.5681  0.1583  0.3062
  948MOL0     C25033   6.939   9.697   8.841  0.6901  0.0613  0.2892
  948MOL0     O25034   6.844   9.670   8.761 -0.2719  0.1993 -0.1868
  948MOL0     C25035   6.710   9.691   8.791 -0.3193  0.5966  0.2094
  948MOL0     C25036   6.625   9.577   8.824  1.3024 -0.6583  0.9243
  948MOL0     C25037   6.486   9.589   8.827  0.4182 -0.1279  0.1618
  948MOL0     C25038   6.416   9.712   8.806 -0.1475 -0.4033 -0.3416
  948MOL0     O25039   6.286   9.743   8.792 -0.6085 -0.0816  0.0511
  948MOL0     C25040   6.183   9.663   8.849  0.2782 -0.2484  0.9205
  948MOL0     C25041   6.052   9.685   8.780  0.4515 -0.3927  0.0554
  948MOL0     C25042   6.025   9.565   8.682 -0.2408  0.5932  0.4405
  948MOL0     C25043   5.882   9.582   8.623 -0.8807 -0.1505 -0.2414
  948MOL0     C25044   5.858   9.486   8.498 -0.0468  0.3810  0.0708
  948MOL0     C25045   5.738   9.531   8.424 -0.4955 -1.0619 -0.0057
  948MOL0     C25046   5.626   9.553   8.511 -0.0372 -0.0694 -0.3773
  948MOL0     C25047   5.500   9.565   8.420  0.0586 -0.2283 -0.8369
  948MOL0    Cl25048   5.364   9.551   8.526  0.0793  0.5188  0.2492
  948MOL0     C25049   6.504   9.820   8.779  0.2406  0.2508 -0.4188
  948MOL0     C25050   6.644   9.809   8.777 -0.0442  0.6181 -1.0330
  948MOL0     O25051   6.931   9.764   8.942 -1.3079 -0.0706  0.1395
  948MOL0     C25052   7.094   9.535   8.743 -0.0307 -0.5290  0.0844
  948MOL0     C25053   7.224   9.494   8.721  0.1376 -0.2726  0.0688
  948MOL0     N25054   7.965   9.948   8.760  0.2507  0.5762  0.1384
  948MOL0     N25055   8.083   9.981   8.794  0.5831 -0.2636 -0.6044
  948MOL0     C25056   9.100  10.365   8.362  0.3505  0.5821  0.1695
  948MOL0     C25057   9.192  10.458   8.326  0.0807 -0.6590  0.6386
  948MOL0     C25058   9.590  10.630   8.126  0.6378  0.3538 -0.1888
  948MOL0     C25059   9.702  10.585   8.187  0.2209 -0.0217 -0.2252
  948MOL0     C25060   9.829  10.643   8.157 -0.3029  0.8221  1.1660
  948MOL0     C25061   9.829  10.751   8.065 -0.3155 -0.2060 -0.1688
  948MOL0     O25062   9.941  10.835   8.033  1.0749 -0.5248 -0.5500
  948MOL0     C25063  10.068  10.802   8.089  0.1248 -0.2003 -0.1288
  948MOL0     C25064  10.082  10.869   8.224  0.5857  1.0842 -0.6011
  948MOL0     C25065  10.137  11.008   8.219  0.4833  0.4807  0.5294
  948MOL0     C25066  10.156  11.070   8.365  0.4350  0.7876 -0.1582
  948MOL0     C25067  10.146  11.217   8.344 -1.6002  0.9460  0.0649
  948MOL0     C25068  10.143  11.337   8.333  0.5491 -0.4818  0.2759
  948MOL0     C25069   9.717  10.784   7.996  0.4454  0.7205 -0.3819
  948MOL0     C25070   9.594  10.714   8.017 -0.1561  0.8447 -0.5814
  948MOL0     H25071   9.471  10.277   8.323  0.5302  2.0771 -0.4325
  948MOL0     H25072   9.311  10.096   8.410  4.4901  0.5207 -0.3834
  948MOL0     H25073   9.122  10.237   8.664  0.5323 -0.5043  1.7195
  948MOL0     H25074   9.176  10.073   8.632 -1.1872 -1.9630 -3.8104
  948MOL0     H25075   8.966  10.141   8.781 -0.5236 -1.6180  0.9183
  948MOL0     H25076   8.985   9.982   8.703 -1.8349 -0.8913 -1.1306
  948MOL0     H25077   8.826  10.053   8.529  1.1687  1.5062 -1.1025
  948MOL0     H25078   8.838  10.220   8.586  0.1008 -0.3773  0.0398
  948MOL0     H25079   8.767  10.032   8.813  0.5526  1.3518  0.6071
  948MOL0     H25080   8.680  10.178   8.749 -2.0393 -0.2432 -0.0369
  948MOL0     H25081   8.651   9.911   8.600  0.9033  0.4121  0.6526
  948MOL0     H25082   8.565  10.069   8.594  0.1421  1.2428  1.2753
  948MOL0     H25083   8.498  10.041   8.839 -1.5039 -2.5210  2.8210
  948MOL0     H25084   8.579   9.880   8.838  0.5129 -2.2054 -2.7112
  948MOL0     H25085   8.353   9.967   8.645 -1.3656  2.5092  2.2666
  948MOL0     H25086   8.428   9.804   8.661  0.6916 -0.3176 -0.1629
  948MOL0     H25087   8.317   9.941   8.908 -3.6596 -0.3771  1.3005
  948MOL0     H25088   8.326   9.774   8.880  3.6102  1.0737  0.7850
  948MOL0     H25089   8.131   9.678   8.676 -3.0370  0.4093 -3.6329
  948MOL0     H25090   7.882   9.673   8.565 -1.4661 -0.1040 -1.3451
  948MOL0     H25091   7.801   9.827   8.579  1.7476 -1.1565 -3.3167
  948MOL0     H25092   7.727   9.753   8.842 -0.6062 -1.4488  0.7322
  948MOL0     H25093   7.818   9.620   8.815 -2.7605 -1.0018  0.5573
  948MOL0     H25094   7.584   9.712   8.660  0.5344 -0.2992 -2.5847
  948MOL0     H25095   7.672   9.555   8.618 -1.2451 -0.5601 -0.5388
  948MOL0     H25096   7.556   9.601   8.904 -2.4698  0.0878 -0.4651
  948MOL0     H25097   7.661   9.471   8.837  1.5312  1.6142  1.5924
  948MOL0     H25098   7.399   9.745   8.865 -0.0772  1.8776 -1.7694
  948MOL0     H25099   7.165   9.824   8.901 -1.0796 -0.1652  1.2672
  948MOL0     H25100   6.676   9.483   8.843 -0.2072 -1.6473  0.2779
  948MOL0     H25101   6.424   9.510   8.870 -1.4958  0.9421 -0.5047
  948MOL0     H25102   6.172   9.700   8.952 -1.7960  0.4091  0.5040
  948MOL0     H25103   6.214   9.559   8.837 -1.0912 -0.4834 -0.9834
  948MOL0     H25104   6.054   9.779   8.724  0.0810 -1.8557 -2.6379
  948MOL0     H25105   5.973   9.685   8.856  2.9410  0.9948  2.8213
  948MOL0     H25106   6.036   9.463   8.720  0.3320  0.7237  0.6380
  948MOL0     H25107   6.090   9.572   8.594 -2.6984 -0.6841 -1.6092
  948MOL0     H25108   5.814   9.553   8.704 -2.7619 -0.1425 -1.7345
  948MOL0     H25109   5.867   9.689   8.606  1.3078  0.3028  0.3583
  948MOL0     H25110   5.828   9.393   8.547 -1.9837  1.2831  0.7151
  948MOL0     H25111   5.942   9.474   8.429 -1.2909  0.3799 -1.4940
  948MOL0     H25112   5.705   9.460   8.347 -2.3875 -2.7743  2.2398
  948MOL0     H25113   5.769   9.624   8.375 -4.1100  0.6790  0.6274
  948MOL0     H25114   5.606   9.465   8.572  0.3499  0.7105  0.9107
  948MOL0     H25115   5.640   9.649   8.562  0.8337 -0.4400  0.1015
  948MOL0     H25116   5.498   9.474   8.359 -0.9616 -0.6456 -0.2128
  948MOL0     H25117   5.498   9.657   8.362  0.1721  0.5644  0.3895
  948MOL0     H25118   6.468   9.921   8.762 -0.7564 -0.3565 -2.1857
  948MOL0     H25119   6.708   9.891   8.747 -0.2867  1.6290  1.0130
  948MOL0     H25120   7.008   9.485   8.700  1.7251 -1.1067 -3.0543
  948MOL0     H25121   7.246   9.394   8.685  2.3658  0.0280  0.4293
  948MOL0     H25122   8.995  10.388   8.367  0.1622 -0.5559  2.7818
  948MOL0     H25123   9.149  10.553   8.295  1.7606  0.3088  1.0959
  948MOL0     H25124   9.701  10.513   8.268 -0.8233 -2.0587 -1.9730
  948MOL0     H25125   9.917  10.606   8.208 -1.0468 -5.3157 -1.1913
  948MOL0     H25126  10.158  10.839   8.038  0.1253  0.5269  0.3794
  948MOL0     H25127  10.082  10.694   8.088  0.7725 -0.1413  0.7725
  948MOL0     H25128   9.984  10.880   8.271  1.4332 -0.3006  1.6913
  948MOL0     H25129  10.151  10.812   8.288  3.0240  2.1552 -2.1430
  948MOL0     H25130  10.068  11.071   8.162 -0.3898 -0.5946  0.3539
  948MOL0     H25131  10.234  11.000   8.171  1.3172 -0.4741  2.2721
  948MOL0     H25132  10.081  11.036   8.437  2.0344 -0.5531  0.9590
  948MOL0     H25133  10.259  11.048   8.393  1.5315  4.1791 -1.0592
  948MOL0     H25134  10.147  11.444   8.327 -0.6333 -0.1981  2.9198
  948MOL0     H25135   9.709  10.864   7.923 -0.3273 -0.5555 -1.7648
  948MOL0     H25136   9.516  10.744   7.948 -0.2368 -3.4645 -2.7319
  949MOL0     O25137  10.471   5.652   7.166  0.1457  0.3627 -0.5223
  949MOL0     C25138  10.538   5.584   7.244  0.1623 -0.4000  0.1936
  949MOL0     O25139  10.506   5.565   7.369  0.3378  0.6993 -0.1756
  949MOL0     C25140  10.392   5.618   7.425  0.0168 -0.0675 -0.6733
  949MOL0     C25141  10.328   5.532   7.512 -0.1584 -0.2941 -0.0203
  949MOL0     C25142  10.227   5.579   7.601 -1.0317 -0.2191 -1.0565
  949MOL0     C25143  10.175   5.714   7.585  0.6485  0.6332 -0.0338
  949MOL0     O25144  10.084   5.754   7.674  0.0397  0.6338 -0.5174
  949MOL0     C25145   9.990   5.853   7.637 -0.1867 -0.1105  0.0244
  949MOL0     C25146  10.015   5.986   7.710  0.3930  0.3005 -0.0368
  949MOL0     C25147   9.907   6.103   7.673  0.6855  0.2231 -1.0667
  949MOL0     C25148   9.761   6.075   7.711  0.6870 -0.3879 -1.0031
  949MOL0     C25149   9.695   6.209   7.745  0.2989  0.4606 -0.1123
  949MOL0     C25150   9.680   6.318   7.633 -0.3906  0.4739  0.1760
  949MOL0     C25151   9.610   6.443   7.693  0.3279 -0.6044  0.1127
  949MOL0     C25152   9.639   6.562   7.611 -0.4173  0.0403 -0.4528
  949MOL0     N25153   9.574   6.672   7.668 -0.7371 -0.3233  0.5604
  949MOL0     C25154   9.444   6.702   7.668 -0.2742  0.7798  0.6326
  949MOL0     C25155   9.426   6.823   7.725  0.1274  0.5176  0.4692
  949MOL0     C25156   9.296   6.901   7.731  0.0289 -0.2504  0.8426
  949MOL0     C25157   9.232   6.945   7.591 -0.2642 -0.1466 -0.5341
  949MOL0     C25158   9.120   7.056   7.606 -0.6291  0.4203 -0.1005
  949MOL0     C25159   9.110   7.149   7.484  0.3699 -0.1633  0.1081
  949MOL0     O25160   9.038   7.065   7.390  0.0009 -0.8865 -0.2439
  949MOL0     C25161   8.898   7.067   7.385  0.5493  1.1157  0.0477
  949MOL0     C25162   8.818   7.119   7.488  0.2818  0.0376 -0.2716
  949MOL0     C25163   8.679   7.118   7.482 -0.7198 -0.0543 -0.7371
  949MOL0     C25164   8.608   7.056   7.381 -0.0094  0.8311  0.0934
  949MOL0     C25165   8.456   7.060   7.377 -1.3874 -0.3553  0.7225
  949MOL0     O25166   8.398   7.136   7.473 -0.1142 -0.0225 -0.0326
  949MOL0     C25167   8.259   7.155   7.468  0.6252 -0.0032  0.9347
  949MOL0     C25168   8.172   7.192   7.350  0.6924  0.1497  0.1992
  949MOL0     C25169   8.033   7.182   7.363  0.7274  0.1281 -1.1332
  949MOL0     C25170   7.975   7.173   7.490 -0.2401  0.0792 -0.2955
  949MOL0     O25171   7.845   7.177   7.519 -0.9654 -0.1918  0.2705
  949MOL0     C25172   7.745   7.198   7.424  1.6125 -1.0079 -0.1562
  949MOL0     C25173   7.613   7.173   7.503 -1.2711  0.3627  0.1405
  949MOL0     C25174   7.493   7.213   7.414  0.2044  0.1237  0.4155
  949MOL0     C25175   7.367   7.198   7.497  0.7292 -0.0143 -0.6471
  949MOL0     C25176   7.234   7.222   7.424  0.0711  0.5539 -1.2316
  949MOL0     C25177   7.114   7.259   7.525 -0.3482 -1.0097  0.2885
  949MOL0     C25178   7.055   7.137   7.599 -0.7889  0.2480 -0.2377
  949MOL0     C25179   6.938   7.167   7.689  0.2764  0.1375 -1.1493
  949MOL0    Cl25180   6.871   7.024   7.762 -0.0904 -0.1137  0.1739
  949MOL0     C25181   8.053   7.145   7.603 -0.2588  0.0663  0.5920
  949MOL0     C25182   8.194   7.142   7.593 -0.5634 -0.1306 -0.3201
  949MOL0     O25183   8.407   7.013   7.275 -0.1310  0.4162  0.0255
  949MOL0     C25184   8.683   6.985   7.283  0.7826  0.1028  0.3846
  949MOL0     C25185   8.831   6.996   7.280  0.3724 -0.0351 -0.7481
  949MOL0     N25186   9.551   6.860   7.777 -0.0307 -0.4851 -0.2451
  949MOL0     N25187   9.635   6.774   7.725 -0.7649  0.7861 -0.1754
  949MOL0     C25188  10.233   5.802   7.477  0.7036  0.2931 -0.0480
  949MOL0     C25189  10.344   5.745   7.416  0.1149 -0.2225  0.6378
  949MOL0     C25190  10.659   5.526   7.181 -0.2601  1.2496 -0.2593
  949MOL0     C25191  10.727   5.425   7.255 -0.9324  0.7835  0.2414
  949MOL0     C25192  10.839   5.373   7.192  0.4170 -0.5308  0.5490
  949MOL0     C25193  10.888   5.405   7.069  0.7732  1.6909  0.4811
  949MOL0     O25194  10.988   5.327   7.021 -0.3663  0.3549 -0.3285
  949MOL0     C25195  11.046   5.358   6.896 -0.2618  0.5036 -0.5327
  949MOL0     C25196  11.174   5.442   6.914  0.7478 -0.5072 -0.0939
  949MOL0     C25197  11.234   5.483   6.774 -0.0611 -0.8197 -0.5813
  949MOL0     C25198  11.369   5.541   6.783 -1.4912  0.0708  0.8301
  949MOL0     C25199  11.376   5.654   6.871 -0.6291 -0.1578 -0.3762
  949MOL0     C25200  11.380   5.736   6.961  1.2165  0.8652  0.2260
  949MOL0     C25201  10.825   5.513   7.007 -0.5841  0.2058  0.4185
  949MOL0     C25202  10.710   5.563   7.062 -0.1963 -0.4897 -0.5329
  949MOL0     H25203  10.370   5.432   7.514 -2.2409 -1.2168  1.4674
  949MOL0     H25204  10.190   5.519   7.683  0.2027 -2.1752 -1.8412
  949MOL0     H25205   9.893   5.818   7.675 -0.6864 -1.1103 -2.0314
  949MOL0     H25206   9.967   5.855   7.530 -2.9879 -2.2631  0.4571
  949MOL0     H25207  10.115   6.021   7.683  1.2409 -1.5554  0.5188
  949MOL0     H25208  10.006   5.964   7.817 -3.6794 -2.1104 -0.6722
  949MOL0     H25209   9.916   6.119   7.565 -0.1337 -2.1525 -1.5469
  949MOL0     H25210   9.926   6.198   7.724 -1.2828  0.2649 -0.3082
  949MOL0     H25211   9.698   6.026   7.636 -3.1175  0.1003  1.5966
  949MOL0     H25212   9.748   6.012   7.799  1.3279 -0.1151 -0.7076
  949MOL0     H25213   9.746   6.238   7.837  0.3617 -3.3452  1.2253
  949MOL0     H25214   9.596   6.193   7.791  1.5089  1.4145  3.0796
  949MOL0     H25215   9.641   6.287   7.536  1.2588 -2.4090  0.3187
  949MOL0     H25216   9.784   6.346   7.610 -1.0663  0.7815 -2.9725
  949MOL0     H25217   9.502   6.427   7.686  0.4270 -1.1739 -0.1804
  949MOL0     H25218   9.638   6.461   7.797  3.0816 -0.9942 -0.4816
  949MOL0     H25219   9.599   6.538   7.512  0.4932 -0.9931 -0.5950
  949MOL0     H25220   9.745   6.589   7.610 -0.7853  1.7147  0.6569
  949MOL0     H25221   9.363   6.635   7.640  1.6180 -1.5854  0.4749
  949MOL0     H25222   9.312   7.000   7.776  2.0036 -0.7503  1.3706
  949MOL0     H25223   9.231   6.839   7.792 -1.2128 -2.3851 -2.4307
  949MOL0     H25224   9.189   6.857   7.542  3.0381 -2.7035  0.7747
  949MOL0     H25225   9.314   6.983   7.529  0.7439 -0.6359  0.4679
  949MOL0     H25226   9.023   7.005   7.614 -0.0901 -0.4755  1.1444
  949MOL0     H25227   9.127   7.109   7.701 -0.5785 -1.2995  0.9001
  949MOL0     H25228   9.209   7.180   7.449 -0.5344  1.8705 -0.8028
  949MOL0     H25229   9.049   7.237   7.504  1.7046  0.9511 -0.5143
  949MOL0     H25230   8.865   7.167   7.573  4.1515 -2.3505 -0.8074
  949MOL0     H25231   8.614   7.169   7.552  0.5607 -0.2738  0.6676
  949MOL0     H25232   8.215   7.196   7.251 -2.6492 -2.2968 -1.5617
  949MOL0     H25233   7.968   7.197   7.277 -4.3518 -0.3088  2.2151
  949MOL0     H25234   7.742   7.124   7.344  0.2529 -1.0875 -0.0624
  949MOL0     H25235   7.742   7.303   7.394 -5.5555  0.1815  2.6834
  949MOL0     H25236   7.610   7.221   7.601  1.3237  1.7324 -0.3657
  949MOL0     H25237   7.610   7.065   7.520  3.2048  0.0736  0.2402
  949MOL0     H25238   7.480   7.147   7.328  0.2657 -0.3152  0.7378
  949MOL0     H25239   7.513   7.314   7.377  2.2695  0.3177  1.8616
  949MOL0     H25240   7.365   7.100   7.546  0.2022  1.3975  2.3628
  949MOL0     H25241   7.362   7.274   7.575 -1.5680  1.2075 -1.8577
  949MOL0     H25242   7.204   7.138   7.361 -0.5346 -0.8219  0.8027
  949MOL0     H25243   7.258   7.310   7.364  1.2508  2.8927  2.3237
  949MOL0     H25244   7.031   7.291   7.462 -0.3555 -2.2877 -0.3859
  949MOL0     H25245   7.146   7.338   7.593 -1.9148 -1.8338  2.0896
  949MOL0     H25246   7.032   7.063   7.522  4.0838  0.4232 -2.2452
  949MOL0     H25247   7.134   7.084   7.652 -1.0058 -3.8149 -3.4264
  949MOL0     H25248   6.861   7.216   7.628  0.8397 -0.8448 -2.7100
  949MOL0     H25249   6.971   7.236   7.768  1.7605 -0.7747 -0.9324
  949MOL0     H25250   8.000   7.136   7.698 -2.1771  1.3333 -0.2964
  949MOL0     H25251   8.249   7.119   7.683 -1.0907 -2.9790 -0.6083
  949MOL0     H25252   8.650   6.937   7.191 -0.9550 -0.7801  1.4085
  949MOL0     H25253   8.897   6.938   7.217  0.7687  1.5028 -1.8190
  949MOL0     H25254  10.212   5.907   7.464  2.0470  0.2697 -3.2699
  949MOL0     H25255  10.412   5.807   7.359  0.8236 -1.4274  0.1579
  949MOL0     H25256  10.699   5.394   7.355  0.8923 -1.6254  0.0864
  949MOL0     H25257  10.908   5.300   7.233  5.2087  4.1110  1.7350
  949MOL0     H25258  10.976   5.404   6.826 -0.4779  2.0281  0.6157
  949MOL0     H25259  11.080   5.261   6.860  1.6227  0.0901  2.0658
  949MOL0     H25260  11.158   5.533   6.972  1.2870  1.7157 -3.1965
  949MOL0     H25261  11.251   5.391   6.973  1.3605  0.9045  0.3757
  949MOL0     H25262  11.169   5.553   6.720 -0.2707  1.5145  2.4195
  949MOL0     H25263  11.248   5.403   6.701 -1.1981  0.7557 -2.6640
  949MOL0     H25264  11.437   5.456   6.797  0.1009  0.4244 -3.3950
  949MOL0     H25265  11.396   5.568   6.680 -1.5775 -1.9839  0.2190
  949MOL0     H25266  11.373   5.811   7.037  0.5619  1.1589 -0.1110
  949MOL0     H25267  10.842   5.556   6.909 -0.1492 -1.7229 -0.3972
  949MOL0     H25268  10.658   5.644   7.012 -0.4717  0.9061  1.9032
  950MOL0     O25269   7.186   1.906   1.293 -0.3500  0.1511 -0.0255
  950MOL0     C25270   7.264   1.927   1.206 -0.0978 -0.3994  0.1142
  950MOL0     O25271   7.237   1.929   1.071 -0.2690 -0.4874  0.0427
  950MOL0     C25272   7.126   1.860   1.037  0.1757  0.3808 -1.1234
  950MOL0     C25273   7.003   1.925   1.022 -0.1701 -0.0609  0.9618
  950MOL0     C25274   6.888   1.865   0.986 -0.0078 -0.6726  0.4987
  950MOL0     C25275   6.877   1.724   0.988 -1.2242 -0.1710 -0.2348
  950MOL0     O25276   6.766   1.647   0.985  0.2643  0.0673  0.5224
  950MOL0     C25277   6.645   1.725   0.961  0.4906  0.1184  0.0571
  950MOL0     C25278   6.523   1.626   0.963  0.2212  0.1958 -0.4078
  950MOL0     C25279   6.392   1.698   0.933  0.1576  0.4974 -0.6116
  950MOL0     C25280   6.264   1.619   0.967  0.0422 -0.6245  0.8288
  950MOL0     C25281   6.130   1.694   0.958 -0.5074 -0.1868  0.7253
  950MOL0     C25282   6.053   1.677   1.090  0.0826 -0.0273 -0.5747
  950MOL0     C25283   5.907   1.730   1.076 -0.3064  0.3805  0.6937
  950MOL0     C25284   5.821   1.713   1.206  0.3631 -0.5572 -0.6162
  950MOL0     N25285   5.688   1.769   1.170 -0.4314  0.1053 -0.7581
  950MOL0     C25286   5.595   1.693   1.110  0.1296  0.1677  0.9826
  950MOL0     C25287   5.493   1.782   1.084  0.3002 -0.4511  0.3776
  950MOL0     C25288   5.363   1.743   1.022 -0.5173  0.0848  0.3294
  950MOL0     C25289   5.342   1.809   0.880 -0.3864 -0.4237  0.8889
  950MOL0     C25290   5.443   1.754   0.775 -0.6202  0.0314  0.1529
  950MOL0     C25291   5.437   1.830   0.642 -0.8279 -0.0349 -0.5364
  950MOL0     O25292   5.526   1.764   0.552 -0.6249 -0.0759  0.3073
  950MOL0     C25293   5.658   1.807   0.540  0.8386 -2.2335  0.3419
  950MOL0     C25294   5.713   1.901   0.624  0.1018  0.5140 -0.3841
  950MOL0     C25295   5.845   1.947   0.608 -0.7239 -0.0981 -0.4555
  950MOL0     C25296   5.926   1.898   0.499  0.5943 -0.6732 -0.3397
  950MOL0     C25297   6.067   1.932   0.505  0.2596  0.0650  0.6562
  950MOL0     O25298   6.133   1.964   0.619  0.2575  0.6402 -0.2019
  950MOL0     C25299   6.263   1.975   0.613  0.5773  0.3795 -0.9151
  950MOL0     C25300   6.351   1.879   0.564  0.7190 -0.3853  0.8189
  950MOL0     C25301   6.488   1.913   0.549 -0.2700  0.3762 -0.2890
  950MOL0     C25302   6.539   2.025   0.603 -0.4599 -0.2965 -0.4383
  950MOL0     O25303   6.669   2.059   0.580  0.5422 -0.1030 -0.7214
  950MOL0     C25304   6.763   1.962   0.621 -0.8381 -0.0258  0.1210
  950MOL0     C25305   6.905   2.012   0.636 -0.2323  0.4933  0.9441
  950MOL0     C25306   7.010   1.899   0.614  0.3660 -0.1252  1.4260
  950MOL0     C25307   7.152   1.947   0.632  0.8577  0.0112  0.5372
  950MOL0     C25308   7.263   1.840   0.622  0.5766  0.8166 -1.0348
  950MOL0     C25309   7.397   1.876   0.570 -1.2984 -0.7536  0.6740
  950MOL0     C25310   7.496   1.762   0.589 -0.5764  0.3445 -0.1457
  950MOL0     C25311   7.635   1.776   0.533  0.0477  0.0606 -0.2252
  950MOL0    Cl25312   7.687   1.941   0.558 -0.1739  0.2223  0.3590
  950MOL0     C25313   6.451   2.127   0.654 -1.3166  0.5167  0.7233
  950MOL0     C25314   6.317   2.094   0.659 -0.0258 -0.7972 -0.0275
  950MOL0     O25315   6.127   1.922   0.394 -0.2098 -1.0484  0.3879
  950MOL0     C25316   5.861   1.807   0.412 -0.7250 -0.1923 -0.2951
  950MOL0     C25317   5.735   1.770   0.429  0.7548 -0.7833  0.2003
  950MOL0     N25318   5.535   1.914   1.120 -0.0986 -0.3760  0.4844
  950MOL0     N25319   5.651   1.899   1.174  0.4256 -0.2272 -0.3141
  950MOL0     C25320   6.991   1.652   1.009 -0.2672 -0.6603 -0.4071
  950MOL0     C25321   7.115   1.714   1.033  0.0351 -0.0512  0.3105
  950MOL0     C25322   7.407   1.944   1.246  0.9132  0.1674 -0.2239
  950MOL0     C25323   7.454   1.944   1.381  0.2661 -0.3652 -0.1176
  950MOL0     C25324   7.591   1.960   1.410 -0.1810  0.5284  0.0611
  950MOL0     C25325   7.687   1.974   1.317 -0.6976 -0.2155 -0.3883
  950MOL0     O25326   7.819   1.991   1.344 -0.3217 -0.3263  0.5618
  950MOL0     C25327   7.884   1.939   1.463  0.2395 -0.3976  0.1612
  950MOL0     C25328   7.924   1.789   1.456  0.7995  1.5808  0.4198
  950MOL0     C25329   8.068   1.773   1.388 -0.0236 -0.0545 -1.4322
  950MOL0     C25330   8.109   1.641   1.329  0.4100  0.7720 -0.7762
  950MOL0     C25331   8.231   1.640   1.249 -0.2281 -1.9904 -0.2079
  950MOL0     C25332   8.328   1.650   1.178 -0.4455 -0.7930 -0.3200
  950MOL0     C25333   7.638   1.979   1.184 -0.0564 -0.1994  0.5864
  950MOL0     C25334   7.500   1.968   1.141 -0.4132  0.5662  0.1211
  950MOL0     H25335   7.008   2.034   1.016 -2.1489  0.0892  1.2999
  950MOL0     H25336   6.812   1.942   0.979  2.1772  1.6734  0.8373
  950MOL0     H25337   6.641   1.784   0.870  1.1067  1.6152  0.9608
  950MOL0     H25338   6.627   1.798   1.041 -2.6177 -1.4979  1.0090
  950MOL0     H25339   6.528   1.573   1.058 -2.0018  0.2816 -0.1851
  950MOL0     H25340   6.537   1.550   0.885 -0.3627 -3.8224  3.0279
  950MOL0     H25341   6.398   1.732   0.829 -3.1635  1.0260 -0.7280
  950MOL0     H25342   6.388   1.782   1.003  3.0720 -0.4791  0.8772
  950MOL0     H25343   6.251   1.542   0.890 -1.6938  0.7795 -0.3363
  950MOL0     H25344   6.284   1.576   1.066  0.6391 -1.0849  0.5185
  950MOL0     H25345   6.072   1.659   0.873  1.3633  0.8245 -1.0378
  950MOL0     H25346   6.148   1.802   0.948 -1.1411 -0.0936  0.5509
  950MOL0     H25347   6.106   1.723   1.173 -0.7678 -2.5693  1.5012
  950MOL0     H25348   6.059   1.569   1.105  0.8904  0.0227 -0.5077
  950MOL0     H25349   5.910   1.839   1.066  3.3449  0.2779 -0.7215
  950MOL0     H25350   5.862   1.687   0.987  0.9629 -2.2243  1.2017
  950MOL0     H25351   5.871   1.780   1.276 -1.8168  0.1933  0.3084
  950MOL0     H25352   5.811   1.609   1.238  0.1528 -0.2156  0.4620
  950MOL0     H25353   5.586   1.586   1.091  1.5227  0.4705 -1.9984
  950MOL0     H25354   5.288   1.774   1.096 -0.6734  0.0177  0.2018
  950MOL0     H25355   5.349   1.634   1.022  0.5000 -0.0471 -0.0839
  950MOL0     H25356   5.345   1.916   0.900 -1.1777 -0.0913 -0.6107
  950MOL0     H25357   5.239   1.793   0.849 -0.0774  2.2602 -2.0911
  950MOL0     H25358   5.545   1.783   0.804 -0.9084  1.9261 -0.5839
  950MOL0     H25359   5.428   1.647   0.759  0.3677 -0.1155  0.1549
  950MOL0     H25360   5.459   1.935   0.663 -2.0292 -0.1841  1.6942
  950MOL0     H25361   5.336   1.832   0.600 -2.2380 -2.6391  2.3449
  950MOL0     H25362   5.662   1.937   0.713  1.9856 -0.5743  1.2121
  950MOL0     H25363   5.875   2.027   0.676 -0.8316  0.1542 -0.7019
  950MOL0     H25364   6.325   1.785   0.516  0.3314  0.9308 -1.7124
  950MOL0     H25365   6.551   1.839   0.501  0.7777  1.3837 -0.5120
  950MOL0     H25366   6.759   1.883   0.546 -0.5575 -2.6621  2.7136
  950MOL0     H25367   6.730   1.919   0.716  0.7093 -0.6769  0.4007
  950MOL0     H25368   6.924   2.058   0.733 -0.5349  2.1629  0.2625
  950MOL0     H25369   6.921   2.094   0.564 -2.0001  2.5766  2.7777
  950MOL0     H25370   7.003   1.849   0.517 -2.0836 -0.3118  1.6258
  950MOL0     H25371   6.982   1.826   0.691  0.4837  1.6412  3.2385
  950MOL0     H25372   7.177   2.014   0.549 -1.7862 -2.5217 -2.5968
  950MOL0     H25373   7.152   1.994   0.730  2.5443  0.5308  0.3196
  950MOL0     H25374   7.225   1.754   0.567 -1.1641  0.5600  0.4606
  950MOL0     H25375   7.275   1.805   0.725 -0.5739  2.8145 -0.1414
  950MOL0     H25376   7.433   1.964   0.624  1.4066 -0.1516 -1.8710
  950MOL0     H25377   7.398   1.894   0.462  0.0645  1.6190  1.0093
  950MOL0     H25378   7.518   1.759   0.696 -0.8852 -1.0499 -0.1085
  950MOL0     H25379   7.465   1.661   0.560 -1.5497  0.5065  0.2770
  950MOL0     H25380   7.640   1.763   0.425  0.1359 -2.4794  0.0074
  950MOL0     H25381   7.701   1.701   0.579 -2.6336 -1.1540  1.9176
  950MOL0     H25382   6.489   2.224   0.682 -2.8370  0.9824  1.3001
  950MOL0     H25383   6.239   2.149   0.711 -0.6936 -2.1645  0.4554
  950MOL0     H25384   5.915   1.764   0.328  1.3172  0.1511  0.7798
  950MOL0     H25385   5.689   1.706   0.355 -0.9552  1.6115 -0.9355
  950MOL0     H25386   6.969   1.546   1.019  0.4516 -1.4791 -5.3469
  950MOL0     H25387   7.205   1.660   1.062 -0.1830 -0.1281  0.8362
  950MOL0     H25388   7.378   1.933   1.458 -1.1597 -0.5173 -1.4953
  950MOL0     H25389   7.622   1.976   1.513  2.3195  0.6296 -0.6479
  950MOL0     H25390   7.817   1.953   1.548 -1.6991  1.2291 -1.5322
  950MOL0     H25391   7.972   2.004   1.474 -0.5632  0.9546 -1.1087
  950MOL0     H25392   7.936   1.754   1.559  3.1423 -1.3930 -0.7176
  950MOL0     H25393   7.839   1.735   1.413 -0.4063  2.4045  1.6775
  950MOL0     H25394   8.140   1.786   1.469 -0.8890 -3.0041 -0.0361
  950MOL0     H25395   8.083   1.845   1.308 -0.8277 -1.6045 -3.0631
  950MOL0     H25396   8.117   1.567   1.408 -1.5762 -0.4394 -1.6255
  950MOL0     H25397   8.034   1.605   1.257  1.6111 -1.7765 -0.8560
  950MOL0     H25398   8.416   1.654   1.117  0.9281 -1.5489  1.5056
  950MOL0     H25399   7.705   1.993   1.101  0.5169  1.1573  1.2508
  950MOL0     H25400   7.474   1.965   1.036  1.1407  0.2365 -0.2898
  951MOL0     O25401   6.194   5.591   6.380  0.1205 -0.0724  0.0759
  951MOL0     C25402   6.295   5.671   6.373 -0.4233  0.8889  0.7979
  951MOL0     O25403   6.420   5.640   6.425 -0.3543 -1.2536  0.1801
  951MOL0     C25404   6.465   5.515   6.461  0.5803 -0.4015  0.0142
  951MOL0     C25405   6.404   5.395   6.422 -0.0419 -0.2933 -1.4923
  951MOL0     C25406   6.452   5.273   6.445 -0.0538 -0.5016 -0.2548
  951MOL0     C25407   6.570   5.263   6.512  0.1609  0.3864 -0.0252
  951MOL0     O25408   6.615   5.133   6.523  0.4354 -0.8401 -0.0029
  951MOL0     C25409   6.643   5.094   6.656 -0.6433 -0.3040  0.0462
  951MOL0     C25410   6.659   4.944   6.664 -0.4660  0.2773 -0.7096
  951MOL0     C25411   6.764   4.876   6.586  0.5431  0.0880  0.3933
  951MOL0     C25412   6.898   4.899   6.650  0.0699 -0.4551 -0.1324
  951MOL0     C25413   7.006   4.800   6.612  0.1170  0.9666  0.0758
  951MOL0     C25414   7.149   4.844   6.657  0.2151 -0.5444  0.5143
  951MOL0     C25415   7.259   4.742   6.625  0.2760  0.4578  0.8495
  951MOL0     C25416   7.281   4.746   6.477  0.9126  0.1747 -0.1260
  951MOL0     N25417   7.389   4.643   6.445 -0.6437 -0.7840  0.3230
  951MOL0     C25418   7.504   4.608   6.516 -0.0903 -0.2974 -0.1447
  951MOL0     C25419   7.569   4.518   6.434  0.3725 -0.0912 -0.3818
  951MOL0     C25420   7.699   4.447   6.461 -0.9677  0.5556  0.4789
  951MOL0     C25421   7.813   4.541   6.510 -0.4010 -0.1944  0.4530
  951MOL0     C25422   7.956   4.480   6.487 -0.6171  0.3853  1.0468
  951MOL0     C25423   8.046   4.561   6.383  0.5862 -0.3078  0.8024
  951MOL0     O25424   8.078   4.692   6.435  0.3574  0.1441 -0.1629
  951MOL0     C25425   8.159   4.694   6.545  0.1600 -0.0638  0.2351
  951MOL0     C25426   8.101   4.733   6.668 -0.9705 -0.6159 -0.1802
  951MOL0     C25427   8.177   4.740   6.786 -0.4411  0.9653  0.4135
  951MOL0     C25428   8.312   4.694   6.794  0.2219  0.5128  0.2350
  951MOL0     C25429   8.375   4.686   6.931  0.3242  0.6053  0.4000
  951MOL0     O25430   8.291   4.656   7.028  0.7726  0.2918  0.6750
  951MOL0     C25431   8.323   4.643   7.160  0.2835  0.4276  0.2109
  951MOL0     C25432   8.448   4.618   7.227 -0.0893 -0.5534  0.4673
  951MOL0     C25433   8.458   4.599   7.367  0.2849 -0.7235 -0.6081
  951MOL0     C25434   8.344   4.616   7.451  0.1184 -0.3177  0.1734
  951MOL0     O25435   8.355   4.609   7.587  0.4567 -0.5351 -0.6306
  951MOL0     C25436   8.475   4.550   7.647  0.4978 -0.5391 -0.1667
  951MOL0     C25437   8.454   4.568   7.802 -1.0856 -0.2631  0.4206
  951MOL0     C25438   8.345   4.477   7.856  1.4057  0.2483  0.2128
  951MOL0     C25439   8.349   4.329   7.817  0.0426  0.3623 -0.9100
  951MOL0     C25440   8.460   4.248   7.895  0.0213 -0.5474  0.7142
  951MOL0     C25441   8.425   4.199   8.037 -0.7130 -0.3069  0.6573
  951MOL0     C25442   8.524   4.107   8.113 -0.9855 -0.8960  0.0698
  951MOL0     C25443   8.455   4.067   8.249  0.4570  0.5682 -0.2209
  951MOL0    Cl25444   8.529   3.923   8.320 -0.5096  0.1930  0.5639
  951MOL0     C25445   8.222   4.640   7.391 -0.1352 -0.3247 -0.7002
  951MOL0     C25446   8.213   4.650   7.252  0.2955 -0.1944  0.0317
  951MOL0     O25447   8.491   4.712   6.948 -0.2600 -0.1431 -0.3270
  951MOL0     C25448   8.367   4.661   6.673 -0.1312  0.0279  0.5431
  951MOL0     C25449   8.292   4.659   6.547  0.2617  0.1289 -0.1270
  951MOL0     N25450   7.501   4.499   6.323  0.6234  0.0966 -0.4416
  951MOL0     N25451   7.389   4.578   6.328  0.4481  0.5327  0.0811
  951MOL0     C25452   6.650   5.373   6.541  0.6154 -0.4379 -0.1528
  951MOL0     C25453   6.592   5.500   6.521 -0.3186 -0.5244 -0.1313
  951MOL0     C25454   6.292   5.802   6.300  0.1142  0.7787  0.8308
  951MOL0     C25455   6.407   5.857   6.250 -0.2521 -0.4769  1.2012
  951MOL0     C25456   6.411   5.980   6.173 -0.0845  0.3535 -0.1941
  951MOL0     C25457   6.289   6.047   6.152 -0.2370  0.7013  0.2198
  951MOL0     O25458   6.275   6.167   6.075  0.4144  0.0984 -0.4139
  951MOL0     C25459   6.396   6.220   6.010  0.4512 -0.6174  0.5251
  951MOL0     C25460   6.364   6.363   5.957 -0.4739 -0.1443  0.0974
  951MOL0     C25461   6.316   6.470   6.059  0.3635  1.0510  0.6799
  951MOL0     C25462   6.412   6.483   6.174  0.4464 -0.9392 -0.2647
  951MOL0     C25463   6.437   6.626   6.221 -0.1800  0.9989  0.8414
  951MOL0     C25464   6.422   6.736   6.258  0.0371  0.8718  0.7319
  951MOL0     C25465   6.167   5.989   6.201  0.0867  0.1479 -0.3567
  951MOL0     C25466   6.170   5.869   6.280  0.6159 -0.2003  0.0338
  951MOL0     H25467   6.307   5.393   6.374 -2.2583  3.1757  2.2402
  951MOL0     H25468   6.393   5.187   6.415 -2.5666  0.4249  1.6488
  951MOL0     H25469   6.558   5.119   6.721 -0.3118 -3.3887  1.8554
  951MOL0     H25470   6.741   5.140   6.669  0.0270 -0.6753 -2.9983
  951MOL0     H25471   6.564   4.911   6.621 -0.5277 -0.8661  0.2454
  951MOL0     H25472   6.671   4.916   6.769  3.9297  0.3832 -0.9876
  951MOL0     H25473   6.754   4.922   6.488  0.2636 -1.8219 -0.5225
  951MOL0     H25474   6.740   4.771   6.566  0.9803  0.6314 -3.7172
  951MOL0     H25475   6.933   5.000   6.623  0.9453 -1.3673 -2.7720
  951MOL0     H25476   6.878   4.883   6.756 -0.1718  0.6591  0.0009
  951MOL0     H25477   6.995   4.778   6.505 -0.6924 -4.4743  0.9888
  951MOL0     H25478   6.986   4.699   6.647 -0.5986  1.8397  2.3763
  951MOL0     H25479   7.146   4.860   6.765  1.2385 -3.3311  1.0355
  951MOL0     H25480   7.172   4.938   6.607 -3.9050  1.1443  1.4203
  951MOL0     H25481   7.352   4.781   6.666  1.1226  1.9307 -2.1755
  951MOL0     H25482   7.231   4.643   6.663  3.3000 -1.1919 -0.8060
  951MOL0     H25483   7.319   4.844   6.446  2.4057  0.1222  1.4077
  951MOL0     H25484   7.190   4.716   6.424  1.4369 -1.6868 -0.0646
  951MOL0     H25485   7.532   4.648   6.612 -0.2457 -2.2827  0.7797
  951MOL0     H25486   7.735   4.391   6.374  1.7041 -3.0395  3.5278
  951MOL0     H25487   7.677   4.375   6.540 -0.4209  0.0562  0.1851
  951MOL0     H25488   7.796   4.579   6.611 -0.2923  0.2944  0.2884
  951MOL0     H25489   7.803   4.623   6.439  0.3885  1.4974  2.2092
  951MOL0     H25490   8.000   4.469   6.586 -0.2850  2.3891  1.1665
  951MOL0     H25491   7.937   4.376   6.458 -4.5428  1.1039  0.4602
  951MOL0     H25492   7.993   4.576   6.288  0.6916  2.4899  1.1073
  951MOL0     H25493   8.139   4.504   6.380  1.1333  0.4619  2.2720
  951MOL0     H25494   7.996   4.761   6.665 -1.0995 -1.1463 -1.5426
  951MOL0     H25495   8.151   4.792   6.877 -2.9716 -2.0000  1.5511
  951MOL0     H25496   8.538   4.600   7.168 -0.2149 -2.1829  0.7215
  951MOL0     H25497   8.558   4.563   7.390 -0.7258 -3.6027 -0.2696
  951MOL0     H25498   8.564   4.599   7.606  0.3866 -1.3767 -1.4667
  951MOL0     H25499   8.482   4.444   7.619 -1.4498 -0.6569 -0.3296
  951MOL0     H25500   8.414   4.668   7.818  1.6917  0.9286  0.4980
  951MOL0     H25501   8.554   4.561   7.846 -0.2457  0.3754 -1.2986
  951MOL0     H25502   8.249   4.515   7.822  1.3330 -0.1678 -0.0680
  951MOL0     H25503   8.350   4.473   7.965  2.3573  0.6348  0.1901
  951MOL0     H25504   8.256   4.283   7.849 -1.1745  1.2354 -2.9826
  951MOL0     H25505   8.357   4.305   7.710 -1.3202  0.9175 -1.1525
  951MOL0     H25506   8.554   4.304   7.890 -0.9912  1.1866  0.2014
  951MOL0     H25507   8.475   4.159   7.834 -1.4155  1.5031 -2.9895
  951MOL0     H25508   8.333   4.142   8.022  0.9638 -2.4918 -2.1130
  951MOL0     H25509   8.404   4.277   8.111  0.1555  0.7001 -0.1305
  951MOL0     H25510   8.534   4.013   8.058  0.1257 -0.3780 -0.6561
  951MOL0     H25511   8.623   4.153   8.123 -0.5423 -0.6603 -3.7882
  951MOL0     H25512   8.352   4.036   8.227  1.0744 -3.7598  1.9335
  951MOL0     H25513   8.453   4.148   8.322 -3.3452  0.3478  0.1402
  951MOL0     H25514   8.133   4.663   7.448  0.5777  2.6063 -0.5769
  951MOL0     H25515   8.114   4.675   7.215  0.8571 -0.2377 -1.5434
  951MOL0     H25516   8.470   4.626   6.674 -0.4964 -1.0841  0.8816
  951MOL0     H25517   8.351   4.633   6.460  3.2805  0.5885  1.6490
  951MOL0     H25518   6.753   5.352   6.565  0.2220 -1.4087  0.8033
  951MOL0     H25519   6.657   5.580   6.553 -2.1252  0.1835  2.0507
  951MOL0     H25520   6.504   5.822   6.283  0.5053  2.5605  2.4668
  951MOL0     H25521   6.500   6.027   6.133 -0.0521  1.6167  1.2960
  951MOL0     H25522   6.425   6.161   5.922 -0.2078  0.4094 -0.4021
  951MOL0     H25523   6.479   6.230   6.081 -1.1074 -0.8361  2.4401
  951MOL0     H25524   6.460   6.386   5.908  0.3086 -3.9747 -0.5152
  951MOL0     H25525   6.288   6.350   5.880  0.8186  2.2080 -1.7454
  951MOL0     H25526   6.212   6.453   6.087 -0.4226  1.0870 -1.9025
  951MOL0     H25527   6.306   6.559   5.996  0.3104  0.6798  0.1545
  951MOL0     H25528   6.369   6.431   6.260 -7.2736  2.0404 -1.4298
  951MOL0     H25529   6.511   6.447   6.145 -0.2324 -1.1527 -2.5165
  951MOL0     H25530   6.400   6.834   6.294  1.5736  0.7527  2.0919
  951MOL0     H25531   6.074   6.043   6.190 -0.2362 -0.0650  1.1045
  951MOL0     H25532   6.070   5.841   6.313  0.6448  1.9903  2.2034
  952MOL0     O25533  10.628   5.118   2.918  0.4091  0.5891 -0.4292
  952MOL0     C25534  10.715   5.176   2.857  0.2429  1.0991  1.1050
  952MOL0     O25535  10.695   5.283   2.769 -1.0089  0.2345 -0.5258
  952MOL0     C25536  10.577   5.343   2.769  0.2359 -0.1669  0.6781
  952MOL0     C25537  10.453   5.288   2.730 -0.1899 -0.3441  0.0437
  952MOL0     C25538  10.344   5.368   2.709  0.7311  0.0734 -0.4071
  952MOL0     C25539  10.355   5.504   2.728 -0.6307  0.1688  0.3041
  952MOL0     O25540  10.258   5.594   2.688 -0.8162  0.2144 -0.2472
  952MOL0     C25541  10.128   5.540   2.668 -0.2409  1.1033 -0.1247
  952MOL0     C25542  10.022   5.645   2.637 -0.1137  0.5936  0.2740
  952MOL0     C25543   9.882   5.572   2.617 -0.0019 -0.4730  0.0298
  952MOL0     C25544   9.786   5.696   2.594 -0.1580 -0.1454  0.7723
  952MOL0     C25545   9.646   5.638   2.614  0.3710  0.6236  0.7991
  952MOL0     C25546   9.534   5.707   2.526  0.8156 -0.4003 -0.1411
  952MOL0     C25547   9.400   5.640   2.547 -0.2689 -0.3465  0.7550
  952MOL0     C25548   9.337   5.666   2.684 -0.3945  0.6615 -0.2220
  952MOL0     N25549   9.201   5.655   2.653  0.4518  0.1756  0.4467
  952MOL0     C25550   9.124   5.539   2.643 -0.5934  0.7737 -0.2813
  952MOL0     C25551   8.996   5.583   2.649  0.1959  0.3715  0.2984
  952MOL0     C25552   8.866   5.498   2.664 -0.0663 -0.0338  0.1653
  952MOL0     C25553   8.738   5.562   2.615 -0.3843  0.1912  0.0011
  952MOL0     C25554   8.667   5.651   2.713 -0.1416  0.0421 -0.3077
  952MOL0     C25555   8.598   5.581   2.840 -0.6701  0.1774  0.2307
  952MOL0     O25556   8.490   5.494   2.797  0.1317 -0.6404 -0.4049
  952MOL0     C25557   8.401   5.442   2.884 -0.0049  0.6925  0.1213
  952MOL0     C25558   8.411   5.446   3.028  0.1923 -0.0793 -0.2745
  952MOL0     C25559   8.301   5.397   3.108 -0.5276 -0.4644  0.3339
  952MOL0     C25560   8.179   5.346   3.045 -0.9010 -0.9866  0.3627
  952MOL0     C25561   8.062   5.299   3.134 -0.1459  0.7322 -0.2329
  952MOL0     O25562   7.950   5.238   3.068 -0.7875 -0.0387  0.5001
  952MOL0     C25563   7.862   5.151   3.129  0.0289 -0.7265 -0.5926
  952MOL0     C25564   7.738   5.137   3.058 -1.1428 -0.0647  0.2862
  952MOL0     C25565   7.632   5.068   3.107  0.1166 -0.1476 -0.1177
  952MOL0     C25566   7.645   4.991   3.231 -0.2530 -1.5690  0.2924
  952MOL0     O25567   7.550   4.915   3.289  1.0589 -0.5865 -0.3885
  952MOL0     C25568   7.421   4.935   3.240  1.2677  0.8143 -0.0866
  952MOL0     C25569   7.381   4.832   3.127  0.1086 -0.0096  0.4576
  952MOL0     C25570   7.407   4.686   3.159 -0.1818  0.0771 -0.3498
  952MOL0     C25571   7.306   4.651   3.275  0.7422  0.1335  0.3669
  952MOL0     C25572   7.263   4.505   3.255  0.1870 -0.2108 -0.5019
  952MOL0     C25573   7.364   4.404   3.314 -0.9720  0.2099  0.2745
  952MOL0     C25574   7.374   4.418   3.467  0.8970 -0.6130 -0.0695
  952MOL0     C25575   7.238   4.390   3.530 -0.9277 -1.0550  0.1063
  952MOL0    Cl25576   7.276   4.366   3.691 -0.2055  0.2585  0.2622
  952MOL0     C25577   7.773   5.001   3.300 -1.0818  0.7409  0.5020
  952MOL0     C25578   7.874   5.072   3.244  0.1795  0.0081 -0.2555
  952MOL0     O25579   8.065   5.304   3.255  0.0543  0.3841 -0.4372
  952MOL0     C25580   8.175   5.352   2.897  0.5258 -0.2066 -0.4391
  952MOL0     C25581   8.284   5.395   2.820 -0.0330  0.4021 -0.1741
  952MOL0     N25582   8.992   5.720   2.652 -0.0798 -0.2245 -0.2015
  952MOL0     N25583   9.115   5.764   2.656 -0.5136  0.1153  0.2055
  952MOL0     C25584  10.462   5.560   2.799 -0.1077 -0.4249  0.4107
  952MOL0     C25585  10.581   5.484   2.799 -0.3888  0.3478  0.6601
  952MOL0     C25586  10.862   5.123   2.868  0.7813  0.4576  0.7632
  952MOL0     C25587  10.968   5.181   2.797  1.3616 -0.6098 -0.1520
  952MOL0     C25588  11.095   5.124   2.791 -1.0007  0.6739 -0.4149
  952MOL0     C25589  11.115   5.012   2.870 -0.7866  0.2203  0.1291
  952MOL0     O25590  11.251   4.995   2.884  0.8584  0.3303 -0.4381
  952MOL0     C25591  11.298   4.896   2.983 -0.5828  0.1688 -0.7568
  952MOL0     C25592  11.449   4.888   2.973 -0.2689  0.2699 -0.2580
  952MOL0     C25593  11.516   5.025   2.998 -0.0733  0.6007  0.0299
  952MOL0     C25594  11.546   5.064   3.139  0.5434  0.6675 -0.5635
  952MOL0     C25595  11.635   5.181   3.157  0.2375 -0.2456  0.0005
  952MOL0     C25596  11.725   5.263   3.196  0.0598 -0.8083  0.6563
  952MOL0     C25597  11.011   4.953   2.936 -0.3932 -0.6265 -0.2070
  952MOL0     C25598  10.880   4.998   2.931 -0.1466  0.0096 -0.0456
  952MOL0     H25599  10.452   5.181   2.712 -1.5448 -0.1889 -0.9635
  952MOL0     H25600  10.249   5.324   2.681  0.4018  0.2809  0.3777
  952MOL0     H25601  10.091   5.500   2.763 -0.7143  3.9916  0.9994
  952MOL0     H25602  10.137   5.461   2.592 -1.3430 -1.3552  2.1402
  952MOL0     H25603  10.060   5.692   2.546 -1.8078  1.5100  0.0055
  952MOL0     H25604  10.026   5.711   2.724 -0.1275 -0.2795  0.9561
  952MOL0     H25605   9.857   5.524   2.712 -1.6827 -3.1410 -1.6403
  952MOL0     H25606   9.876   5.504   2.531  3.1235 -1.4512  0.4605
  952MOL0     H25607   9.793   5.785   2.657 -0.1162 -0.3310  1.0299
  952MOL0     H25608   9.799   5.732   2.491  0.1439  1.2062  1.2680
  952MOL0     H25609   9.606   5.642   2.716  2.5760  1.0223  1.6922
  952MOL0     H25610   9.658   5.532   2.587 -2.5995  0.3090  0.2818
  952MOL0     H25611   9.544   5.702   2.417  0.0332  3.6284 -0.5550
  952MOL0     H25612   9.533   5.815   2.542  1.7649  0.1224 -3.0811
  952MOL0     H25613   9.342   5.659   2.457  2.1704 -2.3142 -1.3656
  952MOL0     H25614   9.421   5.533   2.552 -1.4922 -0.6714 -0.4420
  952MOL0     H25615   9.371   5.760   2.730  4.2628 -2.0211  2.5574
  952MOL0     H25616   9.376   5.594   2.756 -1.0727  0.5541  0.0395
  952MOL0     H25617   9.157   5.436   2.645  1.2613  1.3411 -0.0387
  952MOL0     H25618   8.861   5.460   2.767  0.9191  1.9129  0.9865
  952MOL0     H25619   8.896   5.412   2.603  0.6104  0.2456  0.0912
  952MOL0     H25620   8.672   5.487   2.570  0.3321 -0.6513  0.3258
  952MOL0     H25621   8.771   5.623   2.530 -1.2461 -1.2453 -1.4305
  952MOL0     H25622   8.738   5.726   2.748  1.1820 -1.1948 -0.2393
  952MOL0     H25623   8.597   5.714   2.657  0.9782  1.9965  0.4089
  952MOL0     H25624   8.570   5.654   2.917  2.6039 -0.2553  2.0164
  952MOL0     H25625   8.673   5.516   2.887  0.9251  1.8483  0.0845
  952MOL0     H25626   8.489   5.496   3.084 -2.1573  1.0606  2.1701
  952MOL0     H25627   8.324   5.391   3.214  4.6067 -2.1329 -0.5721
  952MOL0     H25628   7.732   5.205   2.974  1.3558  3.6258  2.8173
  952MOL0     H25629   7.541   5.062   3.047 -0.6458  0.7768  0.8960
  952MOL0     H25630   7.395   5.037   3.210 -1.6674  0.0701 -0.3804
  952MOL0     H25631   7.361   4.916   3.330  3.8768  1.2255  1.8810
  952MOL0     H25632   7.438   4.852   3.036  4.3278 -0.9136  2.6664
  952MOL0     H25633   7.276   4.836   3.095  0.3022 -2.4257 -0.7094
  952MOL0     H25634   7.506   4.661   3.199 -1.0182 -3.0820 -0.0488
  952MOL0     H25635   7.394   4.620   3.073  0.5334 -1.4772  0.7020
  952MOL0     H25636   7.348   4.670   3.374  1.3939 -1.0978  0.3385
  952MOL0     H25637   7.214   4.709   3.264 -1.3698 -3.3505 -2.7285
  952MOL0     H25638   7.249   4.486   3.149  0.9386 -3.6178 -0.0794
  952MOL0     H25639   7.167   4.482   3.302 -0.2002 -0.6142 -1.4771
  952MOL0     H25640   7.453   4.434   3.257 -2.0858  1.1561 -1.0641
  952MOL0     H25641   7.341   4.299   3.295 -2.3493  0.4296  0.5554
  952MOL0     H25642   7.449   4.348   3.505 -0.6199 -2.9071 -1.0643
  952MOL0     H25643   7.402   4.515   3.507 -1.7884  0.0780  0.3124
  952MOL0     H25644   7.192   4.299   3.492 -1.4642 -1.3132  1.3419
  952MOL0     H25645   7.166   4.472   3.523 -0.5913 -0.8786 -2.2647
  952MOL0     H25646   7.798   4.935   3.383 -1.0460 -0.1144 -0.1610
  952MOL0     H25647   7.966   5.054   3.300  0.5490  1.0671 -0.4949
  952MOL0     H25648   8.082   5.312   2.857  0.7929 -0.5673 -0.7145
  952MOL0     H25649   8.280   5.391   2.712  1.1198  3.1603 -0.3983
  952MOL0     H25650  10.468   5.667   2.818  1.9694 -0.2458 -0.9452
  952MOL0     H25651  10.676   5.533   2.818 -0.3728  0.2524  0.8261
  952MOL0     H25652  10.950   5.261   2.726  3.1299  0.0695  0.1236
  952MOL0     H25653  11.171   5.180   2.740 -0.3143 -0.0861 -0.2457
  952MOL0     H25654  11.267   4.793   2.966 -1.6037  0.7683 -2.9782
  952MOL0     H25655  11.268   4.933   3.082 -1.6906 -0.5343 -0.8169
  952MOL0     H25656  11.486   4.823   3.053  2.7348  1.4032 -0.6169
  952MOL0     H25657  11.476   4.855   2.873 -3.2252  1.8834 -1.7273
  952MOL0     H25658  11.460   5.110   2.957  0.2028 -0.3659 -2.5463
  952MOL0     H25659  11.609   5.013   2.941 -0.1389 -0.8254  0.1941
  952MOL0     H25660  11.456   5.090   3.197  0.8376 -1.6406  1.0826
  952MOL0     H25661  11.582   4.974   3.189 -1.5146  0.3248  0.4382
  952MOL0     H25662  11.793   5.339   3.229 -1.5259  0.6122  0.8302
  952MOL0     H25663  11.039   4.865   2.994 -0.8733 -0.2173  0.6684
  952MOL0     H25664  10.793   4.946   2.970  0.2672 -1.2660 -0.7550
  953MOL0     O25665   2.333   5.490   6.031 -0.9919 -0.5508 -0.7921
  953MOL0     C25666   2.340   5.481   6.151 -0.5212  1.2654 -0.1533
  953MOL0     O25667   2.459   5.481   6.220  0.1716  0.3278  0.0569
  953MOL0     C25668   2.568   5.408   6.173  0.4775 -0.3040  0.2457
  953MOL0     C25669   2.647   5.328   6.246  0.2660  0.2856  0.3066
  953MOL0     C25670   2.763   5.270   6.201 -0.2519  0.1914 -0.2596
  953MOL0     C25671   2.796   5.280   6.071  0.6159  0.6298  0.4213
  953MOL0     O25672   2.902   5.206   6.027  0.1696 -0.5863  0.0867
  953MOL0     C25673   2.895   5.145   5.893 -0.3157 -0.4624 -0.8038
  953MOL0     C25674   3.046   5.123   5.843 -0.2304 -0.5724 -0.5607
  953MOL0     C25675   3.119   5.257   5.831 -0.6034 -0.8159 -0.2362
  953MOL0     C25676   3.251   5.256   5.755 -0.9836 -0.1677  0.2642
  953MOL0     C25677   3.369   5.195   5.837  0.7705 -0.5222 -0.9242
  953MOL0     C25678   3.481   5.169   5.752  0.2738 -0.5272 -0.0816
  953MOL0     C25679   3.463   5.038   5.665  0.3939  0.4913 -0.1618
  953MOL0     C25680   3.396   4.919   5.746 -0.5743  0.0395  0.7687
  953MOL0     N25681   3.413   4.812   5.646 -0.4448 -0.5779 -0.3545
  953MOL0     C25682   3.530   4.731   5.620  0.8562  0.2210  0.7261
  953MOL0     C25683   3.484   4.634   5.538 -0.3213  0.5055  0.9832
  953MOL0     C25684   3.556   4.502   5.514  0.0071  0.2944 -0.0666
  953MOL0     C25685   3.711   4.491   5.524  0.5022  0.1813  0.9136
  953MOL0     C25686   3.751   4.384   5.414 -0.7863 -0.3234 -0.2518
  953MOL0     C25687   3.907   4.361   5.427  0.5979  0.6042 -0.6308
  953MOL0     O25688   3.972   4.432   5.331 -0.8495 -0.5865  0.9897
  953MOL0     C25689   4.101   4.389   5.296 -0.6971  0.2720  0.8820
  953MOL0     C25690   4.167   4.277   5.349 -0.5925  0.2421 -0.9066
  953MOL0     C25691   4.295   4.240   5.305  0.2804  0.2571 -0.1508
  953MOL0     C25692   4.355   4.289   5.186 -0.2598 -0.0820 -0.3578
  953MOL0     C25693   4.481   4.235   5.132 -0.0014 -0.5798 -0.3984
  953MOL0     O25694   4.531   4.307   5.029 -0.2609  0.0298 -0.5054
  953MOL0     C25695   4.655   4.293   4.968 -0.1964 -0.0629 -0.1959
  953MOL0     C25696   4.750   4.192   4.996 -0.4780  0.1290  0.6690
  953MOL0     C25697   4.874   4.199   4.941 -0.8387  0.0117 -0.6135
  953MOL0     C25698   4.918   4.311   4.870 -0.4017  0.7587  0.3095
  953MOL0     O25699   5.048   4.329   4.817  0.0648 -0.6466 -0.9481
  953MOL0     C25700   5.126   4.208   4.805  0.3250 -0.6772 -0.5920
  953MOL0     C25701   5.232   4.215   4.695  0.3026 -0.2404 -0.1764
  953MOL0     C25702   5.359   4.269   4.754 -0.3268 -0.3900  0.6734
  953MOL0     C25703   5.467   4.282   4.650 -0.4679 -0.7714  1.3079
  953MOL0     C25704   5.437   4.386   4.528  0.2307  0.6811 -0.9164
  953MOL0     C25705   5.554   4.419   4.448 -0.4643  0.4906 -0.4031
  953MOL0     C25706   5.519   4.544   4.361  0.1054 -0.4041  0.8612
  953MOL0     C25707   5.498   4.677   4.439  0.1946  0.4234  0.5746
  953MOL0    Cl25708   5.525   4.825   4.333  0.4640 -0.5388  0.6834
  953MOL0     C25709   4.827   4.406   4.842 -0.0535  0.0817 -0.0884
  953MOL0     C25710   4.701   4.393   4.888  1.1246 -0.9908 -0.9329
  953MOL0     O25711   4.525   4.133   5.184  0.2189  0.7630 -0.2848
  953MOL0     C25712   4.283   4.398   5.136  0.3506 -0.4613  0.0243
  953MOL0     C25713   4.161   4.450   5.181 -0.7992 -0.6622  0.0258
  953MOL0     N25714   3.347   4.651   5.527 -0.4328 -0.0967  1.2771
  953MOL0     N25715   3.302   4.756   5.588  0.2342 -0.3582 -0.1985
  953MOL0     C25716   2.723   5.371   5.990 -0.0376 -0.0189  0.6155
  953MOL0     C25717   2.614   5.434   6.041 -0.6603  0.3170 -0.0885
  953MOL0     C25718   2.217   5.517   6.225 -1.0001 -0.1620  0.5241
  953MOL0     C25719   2.088   5.503   6.173 -0.5427 -0.1657 -0.7626
  953MOL0     C25720   1.980   5.527   6.253 -0.0702  0.1429 -0.0273
  953MOL0     C25721   1.995   5.576   6.384  1.0737  0.6562  0.2904
  953MOL0     O25722   1.898   5.592   6.478  0.0016  0.4541  0.5071
  953MOL0     C25723   1.782   5.507   6.474  0.2682  0.1934  0.1593
  953MOL0     C25724   1.800   5.363   6.535 -0.7375  0.8308 -0.1446
  953MOL0     C25725   1.679   5.268   6.526 -0.1158 -0.0780  0.3812
  953MOL0     C25726   1.647   5.234   6.375 -0.1167  0.2007  0.0838
  953MOL0     C25727   1.543   5.132   6.381  0.3446  0.2168 -0.7689
  953MOL0     C25728   1.452   5.045   6.375 -0.4326 -0.2639 -0.6103
  953MOL0     C25729   2.124   5.604   6.431  0.4934 -0.3744 -0.5723
  953MOL0     C25730   2.235   5.567   6.355 -0.4922  0.2742 -1.0283
  953MOL0     H25731   2.637   5.301   6.351 -2.4970 -1.1221 -0.2283
  953MOL0     H25732   2.821   5.202   6.262  0.1178 -1.8528 -2.6893
  953MOL0     H25733   2.821   5.195   5.830 -0.3088  2.5163  1.3114
  953MOL0     H25734   2.848   5.047   5.891  0.7874 -0.9931 -1.6099
  953MOL0     H25735   3.034   5.093   5.739 -0.9956  1.2448 -1.0324
  953MOL0     H25736   3.098   5.051   5.908 -2.1993  0.5150  2.4036
  953MOL0     H25737   3.147   5.309   5.923  0.7286 -1.6104 -0.1573
  953MOL0     H25738   3.060   5.324   5.768  1.6225  1.9782  0.4270
  953MOL0     H25739   3.233   5.202   5.662 -1.4957 -0.2907  0.4284
  953MOL0     H25740   3.283   5.358   5.732 -0.9664 -0.4132 -0.8470
  953MOL0     H25741   3.332   5.105   5.886  0.2182  0.8827  1.4365
  953MOL0     H25742   3.396   5.262   5.919 -0.4954 -1.2450  0.1089
  953MOL0     H25743   3.568   5.144   5.814  1.9161  1.6528 -1.3671
  953MOL0     H25744   3.507   5.260   5.697  2.1911  0.2594  1.9387
  953MOL0     H25745   3.407   5.063   5.575 -0.9876  0.4964  0.6641
  953MOL0     H25746   3.556   5.000   5.622 -0.0683  0.0925 -0.8331
  953MOL0     H25747   3.288   4.930   5.760 -1.1269  0.5655 -2.8675
  953MOL0     H25748   3.447   4.887   5.837  2.4355 -0.0277 -0.8060
  953MOL0     H25749   3.625   4.755   5.667  1.3889  1.1440 -0.7451
  953MOL0     H25750   3.531   4.477   5.411 -0.5323  1.2545 -0.1783
  953MOL0     H25751   3.506   4.440   5.589  0.4154  0.2100  0.1386
  953MOL0     H25752   3.743   4.459   5.624 -0.6846  0.8948  1.5440
  953MOL0     H25753   3.768   4.581   5.502  2.9916 -1.0046  2.1868
  953MOL0     H25754   3.705   4.287   5.433  0.6010 -0.6623  1.6505
  953MOL0     H25755   3.726   4.413   5.311  0.9513  2.2323 -0.0485
  953MOL0     H25756   3.919   4.253   5.411 -1.9543 -0.2162  2.0480
  953MOL0     H25757   3.931   4.383   5.531  0.0855 -0.8972 -0.1618
  953MOL0     H25758   4.116   4.205   5.414  1.5480  0.0727  0.6917
  953MOL0     H25759   4.329   4.146   5.346  0.0316  0.0781 -0.3500
  953MOL0     H25760   4.716   4.107   5.054 -1.9607 -0.2966 -0.7479
  953MOL0     H25761   4.936   4.114   4.967 -0.3100  0.0508 -1.6820
  953MOL0     H25762   5.057   4.133   4.765 -0.8502  0.0075  0.0890
  953MOL0     H25763   5.162   4.175   4.902 -0.3924  2.3155  0.8064
  953MOL0     H25764   5.185   4.275   4.616 -2.5264 -2.4248 -0.3067
  953MOL0     H25765   5.253   4.118   4.649 -0.4457 -0.1498 -0.7301
  953MOL0     H25766   5.398   4.200   4.831  0.4452 -2.0582 -1.1160
  953MOL0     H25767   5.340   4.369   4.793  0.7187  1.4454 -3.0822
  953MOL0     H25768   5.552   4.333   4.696 -1.2328  1.5027  0.3786
  953MOL0     H25769   5.505   4.181   4.631  0.7479  0.1944 -2.1303
  953MOL0     H25770   5.388   4.473   4.571  1.1109  0.0298  1.5771
  953MOL0     H25771   5.358   4.339   4.469 -2.5500  1.5223  1.9376
  953MOL0     H25772   5.576   4.329   4.390 -0.9165 -0.2273  0.5189
  953MOL0     H25773   5.639   4.446   4.511 -0.1465 -0.8830 -0.2081
  953MOL0     H25774   5.600   4.560   4.289  0.2133 -0.6314  0.9319
  953MOL0     H25775   5.441   4.513   4.290  1.5625 -0.3472 -0.8472
  953MOL0     H25776   5.558   4.683   4.531 -0.3861 -3.5035  1.4018
  953MOL0     H25777   5.400   4.701   4.482  1.9205  2.0923  4.0209
  953MOL0     H25778   4.859   4.487   4.778  1.6013 -1.9093 -1.9387
  953MOL0     H25779   4.630   4.473   4.872 -2.7349 -3.6848  1.1689
  953MOL0     H25780   4.318   4.461   5.055  2.0946 -1.0751  0.2618
  953MOL0     H25781   4.118   4.535   5.129  1.5236 -0.9529 -2.6597
  953MOL0     H25782   2.757   5.391   5.889  1.7717  0.8053  1.3251
  953MOL0     H25783   2.567   5.511   5.980 -1.4968  0.3459  0.5766
  953MOL0     H25784   2.067   5.472   6.072  0.0073 -0.7205 -0.7116
  953MOL0     H25785   1.881   5.518   6.209  1.0330 -1.0824 -2.3846
  953MOL0     H25786   1.751   5.484   6.372 -2.4924  3.6048  0.0412
  953MOL0     H25787   1.710   5.566   6.531  2.5351  2.7586  0.5523
  953MOL0     H25788   1.884   5.315   6.482  0.1989  0.9066  1.2122
  953MOL0     H25789   1.821   5.354   6.642  0.4528 -1.8912 -0.5064
  953MOL0     H25790   1.584   5.295   6.572 -1.9954 -2.0906 -2.0311
  953MOL0     H25791   1.701   5.176   6.582 -0.7029  0.8455  2.1859
  953MOL0     H25792   1.617   5.319   6.314  0.4833  1.5274  1.5711
  953MOL0     H25793   1.730   5.193   6.316 -0.2658 -0.7749  0.5335
  953MOL0     H25794   1.370   4.975   6.368 -0.8622  0.2818 -1.1509
  953MOL0     H25795   2.141   5.628   6.536  1.2227  1.7862 -1.1209
  953MOL0     H25796   2.333   5.583   6.398  1.0940  0.4672 -4.3721
  954MOL0     O25797   0.619   1.352   9.254 -0.3457 -0.4871 -0.9297
  954MOL0     C25798   0.594   1.250   9.313 -0.2490  0.5917 -0.8540
  954MOL0     O25799   0.682   1.161   9.361 -0.8704 -0.7153 -0.2023
  954MOL0     C25800   0.812   1.178   9.321  0.7385 -0.7647 -0.0823
  954MOL0     C25801   0.886   1.293   9.353 -0.6762  0.3938 -0.3556
  954MOL0     C25802   1.024   1.283   9.355 -0.1768 -0.1612  0.8635
  954MOL0     C25803   1.092   1.164   9.315 -0.6736  1.4204 -0.0238
  954MOL0     O25804   1.227   1.136   9.319 -0.1389 -0.1339 -0.2316
  954MOL0     C25805   1.310   1.234   9.384  0.9048 -0.1216 -1.4285
  954MOL0     C25806   1.450   1.169   9.396  0.0063  0.3173  1.2914
  954MOL0     C25807   1.543   1.261   9.472 -0.3063 -0.2051 -0.0887
  954MOL0     C25808   1.683   1.198   9.509 -0.1272 -0.8038  0.0683
  954MOL0     C25809   1.681   1.094   9.620 -0.5201 -0.3057 -0.2805
  954MOL0     C25810   1.815   1.053   9.675  0.1325 -0.3089 -0.1942
  954MOL0     C25811   1.912   0.988   9.571 -0.1549  0.3925  1.2340
  954MOL0     C25812   2.052   1.014   9.609 -0.2853  0.5089 -0.0234
  954MOL0     N25813   2.089   1.155   9.612  0.2679 -0.4132  0.4857
  954MOL0     C25814   2.129   1.218   9.501  0.3009 -0.4756  0.9192
  954MOL0     C25815   2.187   1.328   9.549 -0.0562  0.0555  0.3867
  954MOL0     C25816   2.219   1.450   9.467  0.5179 -1.0840 -0.0695
  954MOL0     C25817   2.083   1.495   9.406  0.7041 -0.1154 -1.0571
  954MOL0     C25818   2.077   1.621   9.323 -0.8046  0.0735  0.0694
  954MOL0     C25819   1.930   1.658   9.279 -0.6206 -0.3361 -0.2222
  954MOL0     O25820   1.862   1.551   9.218  0.1031  0.3627  0.3834
  954MOL0     C25821   1.729   1.558   9.183  0.6215 -0.7225  0.0812
  954MOL0     C25822   1.652   1.679   9.174 -0.0477  0.3080 -0.1435
  954MOL0     C25823   1.511   1.671   9.156 -0.1547 -0.5015 -0.6959
  954MOL0     C25824   1.447   1.539   9.136  0.0276 -1.4253  0.8224
  954MOL0     C25825   1.293   1.542   9.119 -0.0306  0.3052 -0.0007
  954MOL0     O25826   1.230   1.658   9.122 -0.1487 -1.0255 -0.4538
  954MOL0     C25827   1.095   1.676   9.121  0.7339  0.0070 -0.3917
  954MOL0     C25828   1.009   1.620   9.206 -0.4911  0.4775 -0.6770
  954MOL0     C25829   0.868   1.638   9.214 -0.5078  0.8935 -0.1967
  954MOL0     C25830   0.818   1.743   9.140 -0.5914 -0.2704 -0.2850
  954MOL0     O25831   0.691   1.789   9.145  0.3217  0.3417  0.3841
  954MOL0     C25832   0.586   1.730   9.229  0.0248 -0.4043 -0.7808
  954MOL0     C25833   0.462   1.806   9.189 -0.0203  0.1115  0.4763
  954MOL0     C25834   0.457   1.950   9.244  0.1465  0.6109  1.2652
  954MOL0     C25835   0.347   2.040   9.179 -0.2897 -0.9215 -0.1074
  954MOL0     C25836   0.200   1.973   9.204 -0.2423  0.7767  0.7233
  954MOL0     C25837   0.099   2.085   9.208  0.0860  0.2453 -0.3856
  954MOL0     C25838  -0.047   2.023   9.243 -0.4500  0.2763  0.1414
  954MOL0     C25839  -0.153   2.118   9.182  0.0492 -0.6957 -0.2501
  954MOL0    Cl25840  -0.139   2.273   9.260 -0.2122 -0.3632 -0.2462
  954MOL0     C25841   0.905   1.803   9.044 -0.0857 -0.3425 -0.9795
  954MOL0     C25842   1.038   1.761   9.024  0.7397 -0.8085 -0.7075
  954MOL0     O25843   1.238   1.433   9.113  0.3912  0.5983  0.0806
  954MOL0     C25844   1.529   1.428   9.133 -0.1851  0.6941 -0.4419
  954MOL0     C25845   1.665   1.439   9.164 -0.5444  0.4270  0.0068
  954MOL0     N25846   2.205   1.325   9.691  0.2711 -0.3461  0.2005
  954MOL0     N25847   2.142   1.216   9.723  0.3716  1.1562  0.7324
  954MOL0     C25848   1.012   1.055   9.270 -0.3232  0.2321 -0.6075
  954MOL0     C25849   0.875   1.060   9.279  1.0988 -0.7941 -0.4570
  954MOL0     C25850   0.455   1.191   9.305 -0.4598 -0.5227  0.7489
  954MOL0     C25851   0.418   1.054   9.328 -0.1603 -0.2941  0.6654
  954MOL0     C25852   0.282   1.023   9.327 -0.5656  0.5519 -0.3016
  954MOL0     C25853   0.182   1.110   9.297  0.8651 -0.3174 -0.0639
  954MOL0     O25854   0.052   1.064   9.296  0.4472 -0.9619 -0.0282
  954MOL0     C25855  -0.067   1.139   9.276  1.1972  0.0467  0.5937
  954MOL0     C25856  -0.131   1.179   9.405  0.3628 -0.1164  0.2552
  954MOL0     C25857  -0.066   1.311   9.472  0.1988 -0.0048  0.6411
  954MOL0     C25858  -0.140   1.342   9.604 -0.2575 -0.5882 -0.7286
  954MOL0     C25859  -0.283   1.373   9.580  0.2582  0.1707  0.2057
  954MOL0     C25860  -0.393   1.413   9.559 -0.0101  0.6136 -0.6328
  954MOL0     C25861   0.215   1.244   9.258  0.5501 -0.0780 -0.1182
  954MOL0     C25862   0.351   1.273   9.267  0.6009  0.0204  0.3632
  954MOL0     H25863   0.851   1.381   9.405 -0.8640  0.8132 -1.1681
  954MOL0     H25864   1.090   1.365   9.380 -0.1180  1.1864 -2.9832
  954MOL0     H25865   1.273   1.261   9.484  4.5531  3.8793 -0.8548
  954MOL0     H25866   1.307   1.330   9.332 -0.2423 -0.6817 -2.4501
  954MOL0     H25867   1.500   1.154   9.300  1.4991  1.2531  1.8938
  954MOL0     H25868   1.432   1.072   9.444 -0.5026 -0.5025 -0.4894
  954MOL0     H25869   1.489   1.290   9.562 -2.5890 -1.3637 -0.9679
  954MOL0     H25870   1.559   1.347   9.406  0.2971 -0.0512  0.2569
  954MOL0     H25871   1.713   1.152   9.415  3.7795 -1.9334  1.6797
  954MOL0     H25872   1.757   1.277   9.525 -1.0781  0.8255 -2.8191
  954MOL0     H25873   1.629   1.008   9.578  1.4161 -1.6455 -0.0521
  954MOL0     H25874   1.624   1.134   9.705 -0.3106  0.6237 -0.5680
  954MOL0     H25875   1.810   0.992   9.765 -0.9083 -2.2455 -1.4929
  954MOL0     H25876   1.862   1.143   9.715 -2.5328  1.0829  0.0141
  954MOL0     H25877   1.880   0.883   9.572 -1.8391  0.7672 -1.8704
  954MOL0     H25878   1.891   1.037   9.476  0.9028 -0.1573  0.7044
  954MOL0     H25879   2.110   0.955   9.537  0.3829  1.1508 -0.0233
  954MOL0     H25880   2.068   0.973   9.709  0.3977  0.4130 -0.1635
  954MOL0     H25881   2.103   1.196   9.398  0.7283 -2.3439  1.1727
  954MOL0     H25882   2.294   1.437   9.388 -1.5216  0.8226 -2.5073
  954MOL0     H25883   2.257   1.532   9.529 -0.1547  1.0241 -2.2558
  954MOL0     H25884   2.008   1.491   9.485 -1.9349  0.8550 -3.3557
  954MOL0     H25885   2.051   1.422   9.331 -1.7260 -1.4205  1.0965
  954MOL0     H25886   2.118   1.708   9.376  1.4709 -0.9725  0.1600
  954MOL0     H25887   2.139   1.588   9.239 -2.0956 -2.5722  0.0544
  954MOL0     H25888   1.938   1.745   9.213  3.7343 -1.4096 -1.4832
  954MOL0     H25889   1.885   1.663   9.378 -1.4611 -2.1908 -0.4752
  954MOL0     H25890   1.708   1.771   9.190 -0.5714  0.9799 -1.8553
  954MOL0     H25891   1.467   1.768   9.139  1.4057 -0.0811 -2.8787
  954MOL0     H25892   1.052   1.549   9.276  0.3644  1.3660 -0.2805
  954MOL0     H25893   0.806   1.590   9.289 -0.5967  1.1477 -0.1065
  954MOL0     H25894   0.610   1.752   9.333 -2.1095  0.0269 -0.3312
  954MOL0     H25895   0.571   1.624   9.205  0.1810 -1.5028  3.2617
  954MOL0     H25896   0.379   1.751   9.234 -0.6251  1.0402  0.5152
  954MOL0     H25897   0.447   1.803   9.081  0.8201  0.5372  0.3360
  954MOL0     H25898   0.559   1.988   9.232  0.2656 -0.2210 -0.7867
  954MOL0     H25899   0.443   1.946   9.352  0.0791  1.8729  1.3259
  954MOL0     H25900   0.352   2.135   9.234  0.6389 -3.2311  4.1630
  954MOL0     H25901   0.357   2.058   9.071 -3.6584 -0.0198 -0.3930
  954MOL0     H25902   0.199   1.926   9.303  0.0549  0.0253  0.3811
  954MOL0     H25903   0.167   1.904   9.126 -2.9507  1.0976  1.5052
  954MOL0     H25904   0.106   2.142   9.115 -2.4798  1.3233  0.0155
  954MOL0     H25905   0.121   2.153   9.291 -1.4835 -0.7977  0.9252
  954MOL0     H25906  -0.056   1.923   9.199  0.3434 -0.1299  0.8567
  954MOL0     H25907  -0.064   2.029   9.351 -0.0314 -1.5074  0.3377
  954MOL0     H25908  -0.254   2.078   9.195 -2.0119  1.5137 -6.1020
  954MOL0     H25909  -0.152   2.131   9.073 -0.3179 -1.1413 -0.3087
  954MOL0     H25910   0.852   1.882   8.993 -0.4122 -0.7004 -1.1972
  954MOL0     H25911   1.112   1.808   8.961  0.8156  1.2298  0.8038
  954MOL0     H25912   1.481   1.331   9.126  2.8611 -0.9923  0.1089
  954MOL0     H25913   1.721   1.345   9.162 -2.0740 -0.5085 -1.0010
  954MOL0     H25914   1.059   0.964   9.234  0.2162  0.8447 -1.4867
  954MOL0     H25915   0.813   0.975   9.250 -1.8508  1.5698 -1.5766
  954MOL0     H25916   0.491   0.979   9.357 -0.5638 -0.6914  0.6563
  954MOL0     H25917   0.252   0.927   9.369  3.6969 -1.7190 -1.7481
  954MOL0     H25918  -0.131   1.074   9.217  1.2193  0.1675  0.4332
  954MOL0     H25919  -0.060   1.229   9.213 -1.2604  0.7027  1.1530
  954MOL0     H25920  -0.238   1.197   9.395  0.4150 -0.2666 -0.6710
  954MOL0     H25921  -0.113   1.090   9.466 -1.9254 -0.3745  0.6271
  954MOL0     H25922  -0.046   1.395   9.405 -0.4555 -0.8410 -0.6592
  954MOL0     H25923   0.036   1.288   9.504 -0.3785 -0.6593  2.0955
  954MOL0     H25924  -0.126   1.252   9.664  0.4396 -1.3478 -1.9915
  954MOL0     H25925  -0.097   1.434   9.644 -1.2493  0.2159 -1.4437
  954MOL0     H25926  -0.491   1.451   9.536 -0.2652  0.7916  0.6498
  954MOL0     H25927   0.146   1.315   9.213 -2.2847 -3.0839 -0.9192
  954MOL0     H25928   0.369   1.371   9.223 -0.8684 -0.0353 -0.4383
  955MOL0     O25929   2.519   4.922   5.706  0.1316  0.2163  0.0058
  955MOL0     C25930   2.627   4.945   5.657 -0.0028 -0.2810  0.2340
  955MOL0     O25931   2.662   5.053   5.577 -1.2971  0.5601  0.3173
  955MOL0     C25932   2.572   5.158   5.573 -0.5497  1.1877  0.5383
  955MOL0     C25933   2.504   5.176   5.455  0.5282  0.0989  0.1744
  955MOL0     C25934   2.410   5.278   5.444  0.1275  0.3517  0.8233
  955MOL0     C25935   2.383   5.367   5.546  0.3450  0.2801 -0.4648
  955MOL0     O25936   2.295   5.471   5.524 -0.0493  0.7889  0.0523
  955MOL0     C25937   2.199   5.499   5.623 -0.5352  1.2551  0.9722
  955MOL0     C25938   2.117   5.620   5.575  0.6788 -0.5964  0.0538
  955MOL0     C25939   1.989   5.640   5.660  0.2306 -0.6159 -0.8693
  955MOL0     C25940   2.018   5.683   5.807  0.2505 -0.5491  0.8545
  955MOL0     C25941   1.890   5.742   5.889  0.7058  0.2707 -0.5048
  955MOL0     C25942   1.933   5.825   6.016 -0.0636 -0.7366 -0.3971
  955MOL0     C25943   1.835   5.847   6.137  1.0626 -0.6991 -0.6173
  955MOL0     C25944   1.694   5.902   6.102  0.3933 -0.5980  0.6028
  955MOL0     N25945   1.590   5.796   6.124 -0.6563  0.1679  1.3056
  955MOL0     C25946   1.553   5.741   6.247 -1.1296  0.1418 -0.7875
  955MOL0     C25947   1.490   5.628   6.221 -1.1852  0.3510  0.3189
  955MOL0     C25948   1.430   5.523   6.308 -0.0573  0.6533 -0.2987
  955MOL0     C25949   1.281   5.513   6.302  0.1121 -0.3275  0.1128
  955MOL0     C25950   1.217   5.635   6.364 -0.3744  0.1614 -0.4410
  955MOL0     C25951   1.068   5.637   6.362  1.0403 -0.2087  0.3220
  955MOL0     O25952   1.017   5.701   6.247  0.3701  0.9373 -0.7493
  955MOL0     C25953   0.885   5.738   6.250  0.3136  0.5969  0.6823
  955MOL0     C25954   0.793   5.712   6.355 -0.8000 -0.9172  0.0917
  955MOL0     C25955   0.669   5.768   6.353  0.9838  0.8074  0.2006
  955MOL0     C25956   0.627   5.850   6.251 -0.4741 -0.9092 -0.0304
  955MOL0     C25957   0.493   5.911   6.252 -0.3691  0.0960 -0.0089
  955MOL0     O25958   0.470   6.015   6.166 -0.7170 -0.3591 -0.1188
  955MOL0     C25959   0.337   6.051   6.149 -0.0888 -0.2931  0.3597
  955MOL0     C25960   0.279   6.019   6.026 -0.0296  0.4487 -0.0432
  955MOL0     C25961   0.146   6.046   5.995 -0.2143 -0.2525  0.4502
  955MOL0     C25962   0.064   6.099   6.095 -0.4723 -0.5328  0.0980
  955MOL0     O25963  -0.060   6.136   6.059  0.4416 -0.1447  0.6502
  955MOL0     C25964  -0.167   6.063   6.128  0.3646 -0.6229  0.3161
  955MOL0     C25965  -0.259   6.157   6.203 -0.0869  0.6132  0.3326
  955MOL0     C25966  -0.351   6.231   6.100  0.5044  0.2007 -0.4925
  955MOL0     C25967  -0.490   6.172   6.105 -0.3076  0.0975  0.7282
  955MOL0     C25968  -0.576   6.265   6.017 -0.2249  0.0980 -0.3373
  955MOL0     C25969  -0.706   6.204   5.993 -0.8257  0.0574 -0.5660
  955MOL0     C25970  -0.771   6.242   5.870  0.2293 -0.0447  0.5136
  955MOL0     C25971  -0.908   6.300   5.885 -0.3859  0.1609  0.2665
  955MOL0    Cl25972  -0.876   6.449   5.991 -0.0123  0.6616 -0.3181
  955MOL0     C25973   0.118   6.136   6.226 -0.7251  1.0878 -0.3721
  955MOL0     C25974   0.251   6.096   6.256 -0.0311 -0.3546  0.3136
  955MOL0     O25975   0.414   5.871   6.339  0.3796 -0.4921 -0.0226
  955MOL0     C25976   0.716   5.875   6.142 -0.2653  0.2466 -1.4165
  955MOL0     C25977   0.848   5.817   6.142 -0.0880  0.6133  0.1273
  955MOL0     N25978   1.456   5.634   6.087  0.2427  0.3218  0.2046
  955MOL0     N25979   1.528   5.721   6.031 -0.3765  1.1836  0.7715
  955MOL0     C25980   2.448   5.336   5.670  0.9219 -0.2309  0.0070
  955MOL0     C25981   2.540   5.226   5.685  0.9468  0.3630 -0.1939
  955MOL0     C25982   2.727   4.839   5.668  0.3461 -0.2981 -0.7801
  955MOL0     C25983   2.704   4.727   5.750  0.1351 -0.3563 -0.0036
  955MOL0     C25984   2.805   4.639   5.779  0.3704  0.5388 -0.1483
  955MOL0     C25985   2.933   4.652   5.725  0.2792 -0.6563  0.2900
  955MOL0     O25986   3.027   4.566   5.754 -0.1992 -0.8870 -0.6146
  955MOL0     C25987   3.098   4.613   5.871 -0.0733  1.0565  0.2438
  955MOL0     C25988   3.151   4.495   5.960 -0.2434  0.1129  0.3769
  955MOL0     C25989   3.308   4.465   5.925 -0.1014 -0.0830 -0.5940
  955MOL0     C25990   3.362   4.341   5.996 -0.2383 -0.2407 -0.3300
  955MOL0     C25991   3.325   4.330   6.140  0.4156  0.0090  0.6611
  955MOL0     C25992   3.307   4.296   6.248  0.1367  0.5978  0.1571
  955MOL0     C25993   2.952   4.757   5.636 -0.7577  0.1817  0.7432
  955MOL0     C25994   2.855   4.850   5.618  0.3535 -0.3918  0.7419
  955MOL0     H25995   2.530   5.114   5.370  2.1962  0.0629  0.6824
  955MOL0     H25996   2.353   5.296   5.354  0.1402 -1.0464  0.5073
  955MOL0     H25997   2.251   5.543   5.709  0.2307  1.9403  0.1752
  955MOL0     H25998   2.143   5.408   5.648  1.2214 -0.9917 -2.4199
  955MOL0     H25999   2.093   5.598   5.471  1.9840  0.1491 -0.4193
  955MOL0     H26000   2.174   5.713   5.568 -0.3377  0.1271  1.0351
  955MOL0     H26001   1.940   5.542   5.662  0.2792 -0.9068 -5.2351
  955MOL0     H26002   1.916   5.705   5.612 -1.2905  0.7927  2.9153
  955MOL0     H26003   2.074   5.604   5.858 -1.0066 -1.6096  0.6351
  955MOL0     H26004   2.080   5.773   5.795  0.6212 -0.6277  2.0649
  955MOL0     H26005   1.823   5.661   5.919 -0.4960  2.1829  2.5011
  955MOL0     H26006   1.826   5.807   5.828 -0.8049  1.2990  2.0242
  955MOL0     H26007   1.951   5.929   5.985  2.2912 -0.8824  0.2542
  955MOL0     H26008   2.028   5.778   6.041  1.0248  0.1674 -2.5428
  955MOL0     H26009   1.823   5.761   6.203 -0.1982  1.9993  2.9651
  955MOL0     H26010   1.887   5.915   6.204  0.8358 -1.9074  0.8443
  955MOL0     H26011   1.689   5.930   5.996 -1.1960  0.0816  0.8323
  955MOL0     H26012   1.670   5.993   6.157  1.0366  0.3175 -0.5825
  955MOL0     H26013   1.582   5.769   6.347 -1.3471  2.6669 -1.3834
  955MOL0     H26014   1.464   5.548   6.409  0.0487  0.2168 -0.2283
  955MOL0     H26015   1.461   5.430   6.260 -0.8868 -0.1923  0.7773
  955MOL0     H26016   1.242   5.431   6.363 -0.3621 -1.3141 -1.4626
  955MOL0     H26017   1.241   5.509   6.200 -1.0953  0.4396  0.5320
  955MOL0     H26018   1.249   5.634   6.469 -0.8124  2.0935 -0.2438
  955MOL0     H26019   1.261   5.725   6.320 -0.7240  0.0284 -1.0713
  955MOL0     H26020   1.029   5.689   6.450 -2.1997 -1.0455 -0.4843
  955MOL0     H26021   1.034   5.534   6.372 -0.9034  0.2243 -1.1533
  955MOL0     H26022   0.813   5.645   6.439 -0.5244 -0.6566  0.2323
  955MOL0     H26023   0.599   5.748   6.434 -1.3615  3.1913 -1.0868
  955MOL0     H26024   0.347   5.975   5.954 -1.1235 -0.7185 -0.3905
  955MOL0     H26025   0.103   6.007   5.903  2.3274  2.0464 -1.8735
  955MOL0     H26026  -0.132   5.978   6.187 -1.1357  0.1406  2.4485
  955MOL0     H26027  -0.236   6.015   6.058  1.9112 -1.2678 -0.8139
  955MOL0     H26028  -0.208   6.238   6.255  0.5457 -0.0646  0.7760
  955MOL0     H26029  -0.317   6.099   6.276 -2.9511  0.0107 -2.1811
  955MOL0     H26030  -0.313   6.231   5.998  1.6173 -2.4887 -0.1617
  955MOL0     H26031  -0.362   6.334   6.137 -2.1923  0.1705 -1.0374
  955MOL0     H26032  -0.490   6.066   6.078 -1.4754  0.3759 -0.4459
  955MOL0     H26033  -0.533   6.171   6.206 -3.5035 -2.5720 -0.4573
  955MOL0     H26034  -0.525   6.285   5.922 -1.4608 -1.4754 -1.3833
  955MOL0     H26035  -0.600   6.364   6.058 -2.1667  0.3633 -1.9421
  955MOL0     H26036  -0.774   6.228   6.075 -1.2111  0.2863 -0.9459
  955MOL0     H26037  -0.689   6.096   5.996 -2.1002 -0.2427 -2.4074
  955MOL0     H26038  -0.716   6.311   5.805 -0.9753  2.5178  2.0481
  955MOL0     H26039  -0.776   6.152   5.807  2.3799  0.4124 -0.3824
  955MOL0     H26040  -0.989   6.236   5.922 -0.3171 -0.0025  0.1348
  955MOL0     H26041  -0.938   6.317   5.782 -1.9018 -2.2441  0.2409
  955MOL0     H26042   0.062   6.187   6.303  0.7483  0.8533  0.8909
  955MOL0     H26043   0.304   6.133   6.343 -0.0935  2.3750 -0.7049
  955MOL0     H26044   0.682   5.933   6.057  0.1074  0.4884 -1.4016
  955MOL0     H26045   0.910   5.823   6.053 -0.2669  1.7924  0.0590
  955MOL0     H26046   2.432   5.398   5.758  0.4434 -0.7870  0.3252
  955MOL0     H26047   2.580   5.206   5.784 -0.2461  2.3887  0.7586
  955MOL0     H26048   2.604   4.708   5.789  0.4832 -1.7629  0.2784
  955MOL0     H26049   2.771   4.565   5.851 -1.0393 -0.0606 -1.3596
  955MOL0     H26050   3.038   4.686   5.926 -2.1243 -1.5609  1.6696
  955MOL0     H26051   3.183   4.660   5.820  0.1127 -0.6876 -1.1301
  955MOL0     H26052   3.140   4.526   6.064 -2.8692  1.3731 -0.1887
  955MOL0     H26053   3.095   4.402   5.954 -0.8074  0.4954 -0.4052
  955MOL0     H26054   3.366   4.552   5.955  0.1944 -1.0440  1.8566
  955MOL0     H26055   3.318   4.457   5.816 -2.4852  0.4806 -0.9094
  955MOL0     H26056   3.317   4.254   5.947 -1.2715 -0.1069  0.3701
  955MOL0     H26057   3.470   4.345   5.978  0.0394  0.7039  1.3949
  955MOL0     H26058   3.305   4.265   6.351  3.1297 -0.7353 -0.0760
  955MOL0     H26059   3.045   4.765   5.581 -1.4865 -0.9602 -0.7366
  955MOL0     H26060   2.877   4.910   5.530 -1.0990  0.4508  0.9254
  956MOL0     O26061   3.516   6.971   6.032 -0.1057 -0.4159  0.3344
  956MOL0     C26062   3.489   7.092   6.026 -1.0243  0.2372 -0.0205
  956MOL0     O26063   3.572   7.194   6.068  0.9064  0.0812 -0.4322
  956MOL0     C26064   3.698   7.164   6.104 -1.1474 -0.7236  0.1882
  956MOL0     C26065   3.792   7.134   6.006 -1.0288 -0.5516  0.1877
  956MOL0     C26066   3.922   7.104   6.047 -0.4287 -0.3077 -0.3689
  956MOL0     C26067   3.953   7.116   6.176  0.9048 -0.2919 -0.1532
  956MOL0     O26068   4.082   7.093   6.211 -0.4568 -0.4012  0.2731
  956MOL0     C26069   4.130   7.077   6.355  1.1895 -0.4207 -0.3893
  956MOL0     C26070   4.277   7.058   6.340 -0.0524  0.3935  0.1007
  956MOL0     C26071   4.309   6.913   6.281 -1.3844 -0.0016 -0.1452
  956MOL0     C26072   4.463   6.887   6.282  0.2192  0.8822  0.3402
  956MOL0     C26073   4.502   6.748   6.227  0.0951  0.6506 -0.8855
  956MOL0     C26074   4.653   6.728   6.248  0.7121 -0.2852  0.4148
  956MOL0     C26075   4.695   6.598   6.186 -0.1463  0.3234 -0.0364
  956MOL0     C26076   4.848   6.587   6.186  0.1646 -1.1331  0.2084
  956MOL0     N26077   4.882   6.483   6.098 -0.0814  0.7159  0.9671
  956MOL0     C26078   4.853   6.347   6.112 -0.1943 -0.2096 -0.5959
  956MOL0     C26079   4.902   6.287   6.005 -0.0766  0.4943 -0.1696
  956MOL0     C26080   4.892   6.140   5.997  0.4666 -0.7668 -0.5252
  956MOL0     C26081   5.012   6.079   5.923 -0.0383  0.3453 -0.0886
  956MOL0     C26082   5.113   6.020   6.013 -1.1755 -0.5499 -0.5413
  956MOL0     C26083   5.170   6.111   6.125  1.0583  0.1823  0.0512
  956MOL0     O26084   5.202   6.244   6.078 -0.7560 -0.2613  0.4598
  956MOL0     C26085   5.322   6.241   6.007  0.3991 -0.0947  0.8451
  956MOL0     C26086   5.455   6.228   6.067 -0.0647  0.9786  0.0653
  956MOL0     C26087   5.568   6.241   5.983 -0.6135 -0.1964  0.4725
  956MOL0     C26088   5.560   6.263   5.848 -0.2306 -0.4477  0.4217
  956MOL0     C26089   5.685   6.259   5.772  0.1774  0.0821 -0.1119
  956MOL0     O26090   5.798   6.312   5.824 -0.5287 -0.5670 -0.4345
  956MOL0     C26091   5.914   6.279   5.762 -0.2692 -0.5068 -0.6429
  956MOL0     C26092   5.957   6.346   5.645 -0.0930  0.2588 -0.5372
  956MOL0     C26093   6.085   6.316   5.596 -0.9550  0.2871  0.3595
  956MOL0     C26094   6.164   6.216   5.645 -0.5348  0.3824  0.3062
  956MOL0     O26095   6.284   6.194   5.574  0.0804  0.2600 -0.0232
  956MOL0     C26096   6.355   6.066   5.597 -0.2347  1.2324  0.0128
  956MOL0     C26097   6.490   6.105   5.526 -0.2828  0.1555  0.0990
  956MOL0     C26098   6.467   6.133   5.376 -0.2572  0.0373  0.0394
  956MOL0     C26099   6.597   6.183   5.312 -1.2636 -0.4878  0.0637
  956MOL0     C26100   6.555   6.293   5.217  0.3482 -0.4937 -0.1818
  956MOL0     C26101   6.505   6.419   5.298 -0.4539 -0.9813 -0.5341
  956MOL0     C26102   6.500   6.553   5.219  0.1757 -0.4254  0.2866
  956MOL0     C26103   6.398   6.649   5.272  0.7240 -0.9363 -1.1408
  956MOL0    Cl26104   6.388   6.797   5.176 -0.2403 -0.5609  0.2044
  956MOL0     C26105   6.118   6.147   5.755  0.1057  0.1456 -0.1809
  956MOL0     C26106   5.998   6.186   5.814 -1.2968  0.3384 -0.6051
  956MOL0     O26107   5.679   6.210   5.658  0.7050  0.9784 -0.5378
  956MOL0     C26108   5.432   6.299   5.788 -0.3146  0.4812 -0.5422
  956MOL0     C26109   5.316   6.283   5.871 -1.0338 -0.2594 -0.2273
  956MOL0     N26110   4.957   6.375   5.919  0.1886  0.3961 -0.8587
  956MOL0     N26111   4.947   6.490   5.974  0.7790 -1.4493  0.0473
  956MOL0     C26112   3.858   7.150   6.273 -0.2915  0.0509  0.1026
  956MOL0     C26113   3.726   7.187   6.236  0.2618 -0.0174  1.1506
  956MOL0     C26114   3.367   7.132   5.957  0.2681  0.1912  0.2155
  956MOL0     C26115   3.313   7.052   5.857  0.6461  0.0608  0.0854
  956MOL0     C26116   3.205   7.099   5.787  1.1603 -0.0680 -0.1065
  956MOL0     C26117   3.139   7.225   5.817  0.0187 -0.6980  0.5134
  956MOL0     O26118   3.030   7.270   5.747 -0.4907  0.4546 -0.3505
  956MOL0     C26119   2.915   7.181   5.743  0.5785  0.9217 -0.1151
  956MOL0     C26120   2.781   7.259   5.755 -0.6976  0.0654 -0.3748
  956MOL0     C26121   2.761   7.336   5.892 -0.1215 -0.0987 -1.0224
  956MOL0     C26122   2.665   7.256   5.985 -0.4080  0.0563  0.0777
  956MOL0     C26123   2.531   7.231   5.932 -1.3686 -0.1023 -0.8242
  956MOL0     C26124   2.415   7.224   5.887 -0.5070  0.3802 -0.5944
  956MOL0     C26125   3.199   7.306   5.917 -0.4027  0.1087 -0.1553
  956MOL0     C26126   3.313   7.255   5.976  0.1764 -0.1469 -0.8222
  956MOL0     H26127   3.774   7.138   5.899  1.7860  1.1885 -0.3457
  956MOL0     H26128   3.993   7.066   5.975 -2.3642 -0.2988 -2.3723
  956MOL0     H26129   4.095   6.984   6.400  2.2552 -0.4869  0.3341
  956MOL0     H26130   4.117   7.172   6.409 -1.0268 -0.4431 -0.7990
  956MOL0     H26131   4.322   7.072   6.439 -0.0619 -0.6198  0.2552
  956MOL0     H26132   4.330   7.124   6.272  0.2885 -1.4314 -1.4678
  956MOL0     H26133   4.269   6.907   6.179  2.4984  0.7897 -1.9169
  956MOL0     H26134   4.261   6.841   6.347  2.2407  0.2653  3.1081
  956MOL0     H26135   4.518   6.959   6.220 -1.3986  2.0608  0.1852
  956MOL0     H26136   4.495   6.881   6.386  2.1440 -0.3685 -0.2794
  956MOL0     H26137   4.465   6.737   6.124 -0.8852  0.3436 -0.5091
  956MOL0     H26138   4.448   6.668   6.279 -0.2713  1.7035  0.4216
  956MOL0     H26139   4.663   6.730   6.357  0.5081 -2.4262  0.5157
  956MOL0     H26140   4.706   6.808   6.197 -0.9046  0.2158 -0.5255
  956MOL0     H26141   4.667   6.515   6.252 -1.6732  0.0714 -0.9459
  956MOL0     H26142   4.653   6.577   6.087  0.2118  2.4994 -0.6897
  956MOL0     H26143   4.905   6.590   6.279  0.5560  4.1254  0.0885
  956MOL0     H26144   4.875   6.685   6.146  0.8605 -0.9354  1.1184
  956MOL0     H26145   4.801   6.298   6.193 -0.6278  0.2729 -0.5817
  956MOL0     H26146   4.792   6.121   5.956  0.1634  0.6073 -0.4708
  956MOL0     H26147   4.898   6.107   6.101  0.3870 -1.6468 -0.7991
  956MOL0     H26148   5.052   6.157   5.858  0.5832  0.9403  0.9760
  956MOL0     H26149   4.965   6.004   5.859  0.5624  1.1061 -1.4546
  956MOL0     H26150   5.073   5.927   6.054 -1.7686 -0.0726 -0.0094
  956MOL0     H26151   5.207   6.009   5.959  1.3279  0.3520  3.2797
  956MOL0     H26152   5.259   6.063   6.168  1.7328 -0.8580 -2.3164
  956MOL0     H26153   5.091   6.124   6.200 -0.9902 -1.7599 -1.6449
  956MOL0     H26154   5.453   6.234   6.176  1.5059  5.3001  0.0586
  956MOL0     H26155   5.667   6.238   6.026 -0.1976 -1.4058 -0.4919
  956MOL0     H26156   5.902   6.420   5.588  1.8744  3.8907  1.9114
  956MOL0     H26157   6.136   6.367   5.514 -0.6559 -0.5758 -0.0085
  956MOL0     H26158   6.306   5.975   5.559  2.5381 -1.4891  2.3565
  956MOL0     H26159   6.374   6.043   5.702  1.4344  0.4402 -0.4135
  956MOL0     H26160   6.569   6.030   5.534  0.4163  0.7583 -0.9084
  956MOL0     H26161   6.522   6.193   5.583 -0.6359 -1.2283  2.5679
  956MOL0     H26162   6.386   6.205   5.366 -0.2493 -0.1375 -1.6216
  956MOL0     H26163   6.430   6.042   5.329  0.2744  0.1200 -0.5472
  956MOL0     H26164   6.664   6.229   5.385 -2.5215 -0.3860  1.2120
  956MOL0     H26165   6.646   6.097   5.265  0.5154 -0.5667  1.9117
  956MOL0     H26166   6.479   6.255   5.147 -2.4652 -0.4411  2.6291
  956MOL0     H26167   6.646   6.321   5.163 -0.8656  0.9074 -1.5959
  956MOL0     H26168   6.586   6.433   5.369 -0.3208 -2.5186 -0.3369
  956MOL0     H26169   6.412   6.407   5.355 -1.5011  1.3585 -1.6408
  956MOL0     H26170   6.596   6.604   5.229  2.0727 -3.3198 -1.6676
  956MOL0     H26171   6.482   6.535   5.112  0.4892 -1.0477  0.3352
  956MOL0     H26172   6.420   6.686   5.373 -1.0951  2.0367 -1.7006
  956MOL0     H26173   6.304   6.594   5.286  0.2642  0.3153  1.4758
  956MOL0     H26174   6.165   6.060   5.799 -2.3512 -1.6291 -0.8273
  956MOL0     H26175   5.985   6.149   5.915 -0.2821  0.2775 -0.4841
  956MOL0     H26176   5.437   6.319   5.682 -0.9761  2.5005 -0.2356
  956MOL0     H26177   5.218   6.304   5.828 -1.7957 -0.9368  1.1123
  956MOL0     H26178   3.884   7.140   6.378  1.8189  1.4146 -0.2257
  956MOL0     H26179   3.649   7.199   6.312  2.8553  1.0192  3.7679
  956MOL0     H26180   3.353   6.952   5.838  0.1105 -0.0176 -0.7155
  956MOL0     H26181   3.151   7.034   5.718 -0.6412  0.7783  0.4317
  956MOL0     H26182   2.932   7.113   5.827 -0.1514  0.9819  0.0885
  956MOL0     H26183   2.914   7.132   5.645 -3.7266 -0.7608  0.5340
  956MOL0     H26184   2.783   7.330   5.672  2.2090  0.8571  0.2495
  956MOL0     H26185   2.701   7.187   5.738 -1.6140  1.6039 -3.1137
  956MOL0     H26186   2.721   7.435   5.866  1.0602  0.9659  1.0091
  956MOL0     H26187   2.858   7.356   5.937  0.0199  1.4762 -1.9267
  956MOL0     H26188   2.714   7.164   6.016  1.1031  0.9765  0.5433
  956MOL0     H26189   2.654   7.315   6.077 -0.5994  1.0766 -0.5765
  956MOL0     H26190   2.314   7.211   5.854 -0.7017 -0.6136  0.3282
  956MOL0     H26191   3.158   7.397   5.958  0.5954 -0.1743  1.5813
  956MOL0     H26192   3.374   7.323   6.035 -2.2059 -0.2668  1.9996
  957MOL0     O26193   5.290   1.477   8.028  0.1028 -1.0335 -0.0146
  957MOL0     C26194   5.366   1.452   7.938  0.1676  0.4640 -0.8019
  957MOL0     O26195   5.349   1.364   7.831 -0.1866  0.0418  0.3035
  957MOL0     C26196   5.235   1.292   7.802 -0.3684  0.0760  0.1161
  957MOL0     C26197   5.104   1.307   7.856 -0.8934  0.1911 -0.6468
  957MOL0     C26198   5.002   1.223   7.825  0.3555  0.4250  0.0436
  957MOL0     C26199   5.015   1.130   7.720  0.1023 -0.9981  0.6852
  957MOL0     O26200   4.917   1.043   7.674  0.4381 -0.1249 -0.3699
  957MOL0     C26201   4.786   1.047   7.730 -0.4198 -0.3467 -0.7155
  957MOL0     C26202   4.691   1.163   7.702  0.0333  0.0463  0.2305
  957MOL0     C26203   4.641   1.153   7.561  0.7618 -0.4563 -0.2207
  957MOL0     C26204   4.553   1.285   7.529 -0.0721  0.8446  0.3463
  957MOL0     C26205   4.507   1.276   7.386 -0.4502  0.1250 -0.4736
  957MOL0     C26206   4.536   1.406   7.309 -0.1776 -0.0338 -0.1768
  957MOL0     C26207   4.486   1.394   7.157  0.3586  0.7871 -0.2478
  957MOL0     C26208   4.514   1.528   7.089 -0.4117 -0.3344  0.0544
  957MOL0     N26209   4.656   1.569   7.099 -0.0299 -0.0206 -0.6056
  957MOL0     C26210   4.755   1.510   7.030  0.2825  0.8712  0.7175
  957MOL0     C26211   4.867   1.581   7.037 -0.1045 -0.3131 -0.3118
  957MOL0     C26212   4.999   1.563   6.973 -0.9173 -0.1011  0.3216
  957MOL0     C26213   5.016   1.636   6.841 -0.4249 -0.3199  0.7663
  957MOL0     C26214   4.956   1.566   6.718  0.6013 -0.1850 -0.2805
  957MOL0     C26215   4.817   1.624   6.678  0.1969 -0.1497 -0.7775
  957MOL0     O26216   4.718   1.528   6.716 -0.2230 -0.2458  0.1181
  957MOL0     C26217   4.608   1.574   6.657 -0.7049 -0.5416  0.8502
  957MOL0     C26218   4.514   1.649   6.730  0.4017  0.8655 -0.0775
  957MOL0     C26219   4.399   1.707   6.669 -0.5073  0.3338 -0.1002
  957MOL0     C26220   4.374   1.689   6.535  0.7146  0.0903  0.5653
  957MOL0     C26221   4.252   1.740   6.469 -0.1891  0.9162  0.8458
  957MOL0     O26222   4.158   1.797   6.555  0.4923  0.1401  0.3685
  957MOL0     C26223   4.048   1.852   6.491 -0.1695 -0.0964  0.3737
  957MOL0     C26224   3.934   1.789   6.532 -0.3143  0.9438  0.1402
  957MOL0     C26225   3.808   1.832   6.495  0.0693  0.3120  0.0229
  957MOL0     C26226   3.800   1.937   6.398 -0.9511  0.0732 -0.2215
  957MOL0     O26227   3.679   1.979   6.345 -0.0293 -0.4226 -0.6537
  957MOL0     C26228   3.573   1.990   6.432  0.0823 -0.8216 -1.3066
  957MOL0     C26229   3.461   2.066   6.376  0.3853  0.2947 -0.2259
  957MOL0     C26230   3.343   2.059   6.472  1.2533  0.7083 -0.1942
  957MOL0     C26231   3.223   2.154   6.441  0.5741 -0.2720  1.3742
  957MOL0     C26232   3.108   2.149   6.545  1.0258  0.6915 -0.6453
  957MOL0     C26233   2.983   2.227   6.515  0.0042 -1.0756  1.3701
  957MOL0     C26234   3.007   2.377   6.523 -0.6398 -0.5328  0.6979
  957MOL0     C26235   2.874   2.452   6.513  0.0805 -0.1699  0.2585
  957MOL0    Cl26236   2.785   2.417   6.663  0.1098 -0.1602 -0.0133
  957MOL0     C26237   3.914   2.001   6.361  0.2097 -0.0697 -0.7318
  957MOL0     C26238   4.039   1.966   6.409 -0.0846  0.1643  0.6556
  957MOL0     O26239   4.245   1.718   6.347  0.1345 -0.5334 -0.1239
  957MOL0     C26240   4.472   1.617   6.461 -0.3897  0.2883  0.2756
  957MOL0     C26241   4.583   1.540   6.525  0.1880  0.2621  0.1916
  957MOL0     N26242   4.831   1.689   7.117  0.6208  1.1095  1.0277
  957MOL0     N26243   4.703   1.688   7.131  0.0083  0.2911  0.4906
  957MOL0     C26244   5.140   1.121   7.662  0.2768  0.5074  0.5446
  957MOL0     C26245   5.257   1.196   7.701  0.2017  0.2158  0.4743
  957MOL0     C26246   5.490   1.548   7.935  0.9880  0.3846 -0.3535
  957MOL0     C26247   5.604   1.509   7.867 -0.7456 -0.3602  0.1897
  957MOL0     C26248   5.712   1.602   7.848 -0.1646  0.0593 -0.7351
  957MOL0     C26249   5.714   1.728   7.899  0.2457  0.3402  0.2209
  957MOL0     O26250   5.814   1.818   7.879 -0.1431  1.0024  0.2833
  957MOL0     C26251   5.938   1.763   7.915  0.4264 -0.7356  0.1726
  957MOL0     C26252   6.037   1.870   7.914  0.1754  0.1983  1.3432
  957MOL0     C26253   6.166   1.834   7.986 -0.2299 -0.0521 -0.5717
  957MOL0     C26254   6.258   1.959   7.984  0.3134 -0.5417  0.7905
  957MOL0     C26255   6.391   1.922   8.033  0.8931  0.3493  0.7404
  957MOL0     C26256   6.504   1.877   8.059  0.1522  0.0862 -1.4347
  957MOL0     C26257   5.604   1.767   7.965  0.8796  0.3153  0.5483
  957MOL0     C26258   5.491   1.682   7.981 -0.0632  0.0823  0.2250
  957MOL0     H26259   5.090   1.386   7.928 -1.0854  2.0665 -2.6161
  957MOL0     H26260   4.909   1.235   7.880 -1.0960  0.6791 -2.3043
  957MOL0     H26261   4.806   1.041   7.837 -2.0890 -1.6646 -0.4346
  957MOL0     H26262   4.735   0.955   7.700  1.1905 -0.5584 -3.1352
  957MOL0     H26263   4.734   1.260   7.729 -0.2519  0.5807 -1.1169
  957MOL0     H26264   4.604   1.147   7.765 -1.0429 -2.7437 -1.7366
  957MOL0     H26265   4.586   1.058   7.554  2.5620 -1.5981  0.5350
  957MOL0     H26266   4.724   1.150   7.491  0.7179 -1.0923 -0.2585
  957MOL0     H26267   4.461   1.284   7.589  0.4422  1.3715  1.1645
  957MOL0     H26268   4.613   1.371   7.559  0.8900 -0.1375  1.3475
  957MOL0     H26269   4.400   1.256   7.387 -0.8765  2.1589 -0.8229
  957MOL0     H26270   4.553   1.188   7.341 -0.4805 -0.9853  1.5723
  957MOL0     H26271   4.642   1.429   7.307  0.3680 -2.3136 -0.1742
  957MOL0     H26272   4.475   1.482   7.359 -0.2925  0.3525 -0.8975
  957MOL0     H26273   4.529   1.313   7.097  0.1979  1.1620 -0.8773
  957MOL0     H26274   4.380   1.369   7.158  1.2489 -3.9355 -0.1540
  957MOL0     H26275   4.463   1.602   7.151  2.3339 -1.7127  4.4297
  957MOL0     H26276   4.477   1.534   6.986 -2.6538  2.8539  0.8841
  957MOL0     H26277   4.754   1.410   6.988  4.7656  0.1378  1.8119
  957MOL0     H26278   5.011   1.457   6.948 -1.4388 -0.1511  0.2727
  957MOL0     H26279   5.078   1.591   7.044  0.5409 -2.9613 -0.0141
  957MOL0     H26280   5.119   1.654   6.808 -1.6398  1.2137 -2.4893
  957MOL0     H26281   4.971   1.734   6.857 -3.7780 -1.0223 -2.9258
  957MOL0     H26282   5.017   1.607   6.637  0.5067  5.6366  2.1009
  957MOL0     H26283   4.964   1.457   6.721 -0.9466 -0.3097  0.6178
  957MOL0     H26284   4.811   1.646   6.571 -1.2027 -0.2184 -0.7209
  957MOL0     H26285   4.794   1.717   6.731 -2.3344  1.3240 -4.1243
  957MOL0     H26286   4.527   1.673   6.835  3.4609 -2.6099  0.5284
  957MOL0     H26287   4.326   1.760   6.729 -0.1427  0.0292  0.6236
  957MOL0     H26288   3.952   1.703   6.596 -3.2332 -0.6529 -0.9871
  957MOL0     H26289   3.711   1.795   6.528 -0.1543  0.6425 -0.2497
  957MOL0     H26290   3.607   2.045   6.520 -0.9353  0.1394 -1.4899
  957MOL0     H26291   3.547   1.891   6.470  0.9878 -0.6995 -0.2993
  957MOL0     H26292   3.434   2.007   6.288  5.2110 -1.8776 -0.5902
  957MOL0     H26293   3.493   2.168   6.354  2.1309 -0.0209  0.6369
  957MOL0     H26294   3.393   2.097   6.562  2.4724 -2.2959  0.5204
  957MOL0     H26295   3.304   1.959   6.491  3.1929  0.1010  0.8246
  957MOL0     H26296   3.263   2.256   6.440  2.4817 -0.9574 -0.2360
  957MOL0     H26297   3.181   2.115   6.348 -1.3300 -0.9917  2.4896
  957MOL0     H26298   3.138   2.186   6.644 -0.0507  0.3475 -0.1754
  957MOL0     H26299   3.062   2.053   6.570 -0.7337  1.8848  0.9987
  957MOL0     H26300   2.910   2.211   6.596 -0.9175 -1.1885  0.5437
  957MOL0     H26301   2.952   2.205   6.412  2.5159  0.4318  0.1937
  957MOL0     H26302   3.059   2.416   6.611  0.1954  1.1204 -0.4736
  957MOL0     H26303   3.074   2.389   6.438  1.1123 -3.2878  1.5577
  957MOL0     H26304   2.818   2.433   6.421 -0.8875 -0.0013  0.8048
  957MOL0     H26305   2.908   2.555   6.522 -0.2574 -0.0481  0.1435
  957MOL0     H26306   3.901   2.082   6.291 -0.8438 -0.4159 -0.9490
  957MOL0     H26307   4.125   2.027   6.382  0.1243  1.2746  3.5467
  957MOL0     H26308   4.462   1.608   6.354  1.7843 -0.4148  0.0850
  957MOL0     H26309   4.652   1.472   6.476 -0.0516  0.2157 -0.0876
  957MOL0     H26310   5.163   1.040   7.593  2.5329  2.0854 -0.6754
  957MOL0     H26311   5.358   1.172   7.669  0.1652 -2.0631  1.8567
  957MOL0     H26312   5.613   1.422   7.803  1.0350 -0.1711  0.1405
  957MOL0     H26313   5.794   1.562   7.788 -1.1520 -1.8591 -0.8840
  957MOL0     H26314   5.966   1.685   7.844  2.0394 -0.7658  0.7954
  957MOL0     H26315   5.934   1.732   8.020 -0.9547  3.6675  1.6121
  957MOL0     H26316   6.061   1.899   7.811  0.5234  1.2993  1.7148
  957MOL0     H26317   6.002   1.967   7.951  0.9364  0.7651  0.5984
  957MOL0     H26318   6.221   1.756   7.933  0.8295  1.2020 -1.3969
  957MOL0     H26319   6.138   1.817   8.090  0.3793  1.0144 -0.2174
  957MOL0     H26320   6.278   1.998   7.883 -3.0811  2.3674  1.0335
  957MOL0     H26321   6.211   2.040   8.041 -1.7507 -1.6651  0.7729
  957MOL0     H26322   6.590   1.831   8.103 -2.2217 -0.7046  2.9955
  957MOL0     H26323   5.587   1.869   7.998 -2.2970 -0.3029  1.0952
  957MOL0     H26324   5.412   1.737   8.031 -1.2858 -0.8674 -0.5920
  958MOL0     O26325   4.050   4.893   4.547  0.1574  0.1654  0.1610
  958MOL0     C26326   3.989   4.872   4.444 -0.9147 -0.8526 -0.1508
  958MOL0     O26327   4.036   4.801   4.337 -0.0166 -0.0747 -0.0548
  958MOL0     C26328   4.154   4.727   4.351  0.2209 -0.6129 -0.2263
  958MOL0     C26329   4.176   4.641   4.462  0.0834 -0.4711  0.1898
  958MOL0     C26330   4.301   4.581   4.477 -0.9639 -0.2597  0.7209
  958MOL0     C26331   4.404   4.598   4.377  0.8298 -0.5642  0.0365
  958MOL0     O26332   4.529   4.547   4.383  0.0005  0.0409  1.2589
  958MOL0     C26333   4.583   4.493   4.501  0.2642  0.0733 -1.2631
  958MOL0     C26334   4.734   4.443   4.481 -0.2140 -0.4052  0.2527
  958MOL0     C26335   4.758   4.351   4.359  0.5264  0.3104  0.3163
  958MOL0     C26336   4.667   4.224   4.351 -0.4633  0.8049  0.6490
  958MOL0     C26337   4.725   4.091   4.291 -0.0584 -0.5673 -0.1643
  958MOL0     C26338   4.612   3.996   4.276  0.0538 -0.2412 -0.2607
  958MOL0     C26339   4.656   3.858   4.246  0.2652 -0.1050  0.0918
  958MOL0     C26340   4.551   3.752   4.247  0.4298  0.1325 -0.2080
  958MOL0     N26341   4.441   3.770   4.147  0.3641  0.1008 -0.5250
  958MOL0     C26342   4.318   3.833   4.178  0.3270 -0.1090  0.0708
  958MOL0     C26343   4.259   3.851   4.054  0.3667  0.2793  0.1787
  958MOL0     C26344   4.113   3.881   4.031  0.1802  0.4128  0.7424
  958MOL0     C26345   4.085   3.928   3.891 -0.9500 -0.1997 -0.5203
  958MOL0     C26346   3.966   4.023   3.889  0.5283 -0.0531 -1.0673
  958MOL0     C26347   3.902   4.045   3.752 -1.0291 -0.1198  0.1090
  958MOL0     O26348   3.800   3.963   3.723  0.6905  0.0751 -0.0978
  958MOL0     C26349   3.722   3.982   3.611  0.2336 -0.3806 -0.6202
  958MOL0     C26350   3.610   3.908   3.601 -0.0464  0.4392 -0.1147
  958MOL0     C26351   3.519   3.936   3.501  0.2832  0.0008 -0.5220
  958MOL0     C26352   3.543   4.031   3.408 -0.3521 -0.2878  0.0643
  958MOL0     C26353   3.434   4.056   3.307  0.6692 -0.1446  0.6816
  958MOL0     O26354   3.363   3.952   3.251  0.3246 -0.0430 -0.0540
  958MOL0     C26355   3.246   3.967   3.175  0.0026 -0.6724 -0.0676
  958MOL0     C26356   3.245   4.039   3.060  0.2824  0.0920 -0.0000
  958MOL0     C26357   3.125   4.059   2.993 -0.1577 -0.0241  0.2703
  958MOL0     C26358   3.013   3.991   3.044  0.2098  0.0746  1.0177
  958MOL0     O26359   2.890   3.983   2.981 -0.3904  0.1577 -0.1844
  958MOL0     C26360   2.893   3.961   2.838  0.4810 -0.3351  0.4769
  958MOL0     C26361   2.755   3.934   2.789 -0.8166  0.5747  1.0296
  958MOL0     C26362   2.770   3.936   2.638  0.6321  0.3384  0.5315
  958MOL0     C26363   2.652   3.857   2.573  0.0901  0.1047  0.6391
  958MOL0     C26364   2.652   3.849   2.418 -0.1325 -0.5673  0.5721
  958MOL0     C26365   2.760   3.739   2.376  0.4518  0.2652  0.5760
  958MOL0     C26366   2.681   3.602   2.351 -0.2664 -0.3669  0.3465
  958MOL0     C26367   2.766   3.508   2.273  0.2083 -0.2334  0.6908
  958MOL0    Cl26368   2.913   3.463   2.365  0.3702 -0.2236 -0.2360
  958MOL0     C26369   3.022   3.906   3.152 -0.5309  0.2794  0.5400
  958MOL0     C26370   3.141   3.899   3.220  0.8853 -0.3258 -0.4788
  958MOL0     O26371   3.415   4.179   3.287 -0.1344  0.1516  0.8269
  958MOL0     C26372   3.652   4.116   3.414 -0.0706  0.3152  0.7153
  958MOL0     C26373   3.749   4.091   3.517  0.5528  0.3036  0.0757
  958MOL0     N26374   4.340   3.788   3.962 -0.1519 -1.0993  0.3308
  958MOL0     N26375   4.450   3.750   4.014  0.0906  0.0034  0.1751
  958MOL0     C26376   4.381   4.691   4.278  0.5420 -0.5941  0.7748
  958MOL0     C26377   4.258   4.755   4.260 -0.6515  0.1004  0.8548
  958MOL0     C26378   3.860   4.941   4.440  0.2237  0.7981 -0.0235
  958MOL0     C26379   3.756   4.876   4.377  0.6235 -0.2277 -0.3521
  958MOL0     C26380   3.630   4.948   4.360  0.0268  0.4935 -0.6420
  958MOL0     C26381   3.607   5.076   4.418 -0.1263  1.0117  0.7295
  958MOL0     O26382   3.486   5.133   4.403 -0.4487 -0.0486  0.8843
  958MOL0     C26383   3.459   5.250   4.489  0.1485 -0.4075 -0.1088
  958MOL0     C26384   3.442   5.204   4.633 -0.1389 -0.7956 -0.2196
  958MOL0     C26385   3.401   5.317   4.736  0.3014  0.5506  1.0061
  958MOL0     C26386   3.525   5.404   4.772  0.5318 -0.1478  0.3918
  958MOL0     C26387   3.646   5.330   4.816  0.0166 -0.4199 -0.1799
  958MOL0     C26388   3.743   5.271   4.855  0.3356  0.4032 -0.9126
  958MOL0     C26389   3.717   5.134   4.482 -0.0931  0.4195 -1.0498
  958MOL0     C26390   3.838   5.063   4.495  0.0116 -0.2816  0.3766
  958MOL0     H26391   4.102   4.620   4.539  0.9826  1.1296  1.5780
  958MOL0     H26392   4.326   4.515   4.560 -0.7477 -0.5331  0.4390
  958MOL0     H26393   4.520   4.414   4.544  1.1731  1.2051  2.5752
  958MOL0     H26394   4.593   4.575   4.573  1.9193 -1.3187  0.2005
  958MOL0     H26395   4.774   4.409   4.578 -2.1351 -1.2903  0.7980
  958MOL0     H26396   4.782   4.538   4.457 -3.1246  1.6903  2.0189
  958MOL0     H26397   4.863   4.320   4.368 -0.0484 -1.5283  1.3278
  958MOL0     H26398   4.738   4.399   4.263 -1.7741  1.5098  1.3115
  958MOL0     H26399   4.619   4.202   4.447  2.6084 -0.4521  2.0239
  958MOL0     H26400   4.586   4.250   4.282  1.1415 -1.6429 -2.4379
  958MOL0     H26401   4.803   4.045   4.353  1.0734  2.6260  0.9929
  958MOL0     H26402   4.776   4.104   4.195 -0.9288 -2.2274 -0.8998
  958MOL0     H26403   4.562   4.034   4.187  3.5704  1.1949 -1.8091
  958MOL0     H26404   4.545   3.994   4.363 -1.1153  0.6658 -1.1032
  958MOL0     H26405   4.704   3.864   4.148 -0.1612  0.3900 -0.0923
  958MOL0     H26406   4.731   3.824   4.318 -0.3478  1.4063  1.5190
  958MOL0     H26407   4.513   3.745   4.350  0.7035  0.4172 -0.0872
  958MOL0     H26408   4.605   3.658   4.229  0.8900  0.6825 -1.8546
  958MOL0     H26409   4.278   3.867   4.273 -1.8306  0.6459 -1.0388
  958MOL0     H26410   4.078   3.953   4.105  1.4376  2.8166 -0.8456
  958MOL0     H26411   4.062   3.786   4.047  2.7887 -0.5891  4.7663
  958MOL0     H26412   4.043   3.842   3.837 -0.8105 -0.5250 -0.1115
  958MOL0     H26413   4.171   3.980   3.847 -0.2252  0.1657  1.2571
  958MOL0     H26414   3.891   3.979   3.955 -0.4433  1.1566 -1.3272
  958MOL0     H26415   4.005   4.115   3.931  0.6144  0.9718 -3.2471
  958MOL0     H26416   3.978   4.048   3.673  1.6049  0.4324  2.5208
  958MOL0     H26417   3.859   4.145   3.757 -1.2992 -0.2340  0.0953
  958MOL0     H26418   3.593   3.829   3.673 -0.9627  0.7919  0.0742
  958MOL0     H26419   3.425   3.884   3.489 -0.5058  1.2634  0.0173
  958MOL0     H26420   3.326   4.101   3.024 -1.3341  1.2610 -1.8119
  958MOL0     H26421   3.114   4.133   2.913  2.1208 -1.5868 -1.5991
  958MOL0     H26422   2.966   3.887   2.806  3.4666  2.0284  1.3990
  958MOL0     H26423   2.929   4.053   2.791  1.5547 -0.5184  0.9281
  958MOL0     H26424   2.686   4.013   2.819 -1.7573 -0.1421  0.8410
  958MOL0     H26425   2.720   3.844   2.841  0.1510  0.5242  1.5977
  958MOL0     H26426   2.866   3.889   2.613  0.0479 -0.5797 -0.0365
  958MOL0     H26427   2.773   4.037   2.597 -1.2879  1.2614  2.4989
  958MOL0     H26428   2.640   3.761   2.625 -2.2878  0.8493  1.5927
  958MOL0     H26429   2.556   3.907   2.590  0.4308  0.5325  1.3614
  958MOL0     H26430   2.699   3.943   2.388 -2.2654  0.6037  0.7087
  958MOL0     H26431   2.551   3.842   2.378  1.4096  0.1609 -4.0515
  958MOL0     H26432   2.836   3.727   2.453  2.6122  3.1945 -0.8866
  958MOL0     H26433   2.809   3.770   2.283  1.6487 -4.5840 -0.6666
  958MOL0     H26434   2.668   3.557   2.450 -0.5149  0.7214  0.8265
  958MOL0     H26435   2.587   3.635   2.308  2.1065  3.3727 -2.5492
  958MOL0     H26436   2.785   3.568   2.183 -2.3875  2.6302  1.8702
  958MOL0     H26437   2.708   3.422   2.238 -2.5870  2.7759 -2.8428
  958MOL0     H26438   2.936   3.844   3.177  0.2559 -0.7690  0.6728
  958MOL0     H26439   3.158   3.835   3.306 -0.6179 -1.5742 -1.0518
  958MOL0     H26440   3.655   4.199   3.345  2.0886 -1.0904 -1.0133
  958MOL0     H26441   3.838   4.152   3.529 -1.2385  3.3595 -0.8125
  958MOL0     H26442   4.470   4.720   4.223  0.2963 -2.8589 -0.9394
  958MOL0     H26443   4.225   4.809   4.172  1.8800 -1.4179 -1.1937
  958MOL0     H26444   3.765   4.782   4.324 -0.0393 -0.8338  0.5709
  958MOL0     H26445   3.544   4.907   4.307  0.2643  1.3618 -1.7381
  958MOL0     H26446   3.362   5.286   4.453 -2.2192 -2.8292  3.2789
  958MOL0     H26447   3.539   5.324   4.476  0.7043 -0.9600  0.1287
  958MOL0     H26448   3.375   5.118   4.645 -1.2286  0.2671  1.8297
  958MOL0     H26449   3.540   5.162   4.659  0.2238 -0.1160 -0.4631
  958MOL0     H26450   3.366   5.263   4.825  0.4290  0.4977  1.0240
  958MOL0     H26451   3.311   5.363   4.695 -1.5453 -2.9882  0.7187
  958MOL0     H26452   3.544   5.481   4.697  0.0928  3.3006  3.4801
  958MOL0     H26453   3.492   5.471   4.852 -2.0547 -2.7682  1.7091
  958MOL0     H26454   3.831   5.221   4.889 -0.1178 -1.0774 -1.8416
  958MOL0     H26455   3.720   5.235   4.522  1.2129 -0.1461  0.3408
  958MOL0     H26456   3.919   5.116   4.544  1.2033 -0.9233 -0.8429
  959MOL0     O26457   0.143   8.041   7.537  0.3281  0.1400 -0.0052
  959MOL0     C26458   0.200   8.135   7.596  0.5276 -1.0107 -0.6935
  959MOL0     O26459   0.167   8.269   7.590 -0.3764 -0.3195  0.3339
  959MOL0     C26460   0.068   8.329   7.522  0.4279 -0.4413  0.9606
  959MOL0     C26461  -0.061   8.277   7.501  0.3846 -0.0862  0.1120
  959MOL0     C26462  -0.143   8.343   7.410  0.6316  0.7733 -0.1095
  959MOL0     C26463  -0.116   8.480   7.373  0.1993  0.2227 -0.5641
  959MOL0     O26464  -0.201   8.557   7.299  0.0332 -0.0346  0.5683
  959MOL0     C26465  -0.314   8.493   7.245  0.1752  0.3088 -0.6828
  959MOL0     C26466  -0.376   8.600   7.148 -0.0115  0.0071  0.0725
  959MOL0     C26467  -0.275   8.613   7.026 -0.6704  0.4234  0.0761
  959MOL0     C26468  -0.333   8.714   6.925 -0.3052 -0.3297  0.4363
  959MOL0     C26469  -0.240   8.770   6.812 -0.8394 -0.6422  0.4477
  959MOL0     C26470  -0.177   8.667   6.717  1.6146  0.1549 -0.5691
  959MOL0     C26471  -0.282   8.609   6.619 -0.5399 -0.0933  0.2321
  959MOL0     C26472  -0.203   8.521   6.521 -0.3838  0.0010  0.1917
  959MOL0     N26473  -0.294   8.459   6.423 -0.3354  0.1504  0.6920
  959MOL0     C26474  -0.276   8.335   6.371  0.4825 -1.0658 -0.2989
  959MOL0     C26475  -0.377   8.313   6.285 -0.0429  0.2838  0.7384
  959MOL0     C26476  -0.409   8.195   6.193  0.7238 -0.0091 -0.3357
  959MOL0     C26477  -0.425   8.053   6.251  0.3528  0.3270  0.4946
  959MOL0     C26478  -0.547   8.034   6.350 -0.2401  0.2493 -0.3005
  959MOL0     C26479  -0.523   7.924   6.459  0.2456  0.1603  0.2870
  959MOL0     O26480  -0.607   7.933   6.568  0.3596  0.2087 -0.0858
  959MOL0     C26481  -0.731   7.922   6.529 -0.2069  0.7034  0.7954
  959MOL0     C26482  -0.810   8.031   6.500 -0.5806  0.9684 -0.0423
  959MOL0     C26483  -0.941   8.024   6.459  0.3206 -1.6448 -0.7465
  959MOL0     C26484  -1.007   7.902   6.448 -0.7469  0.5335  0.7263
  959MOL0     C26485  -1.147   7.892   6.418  0.1351 -0.2124 -0.3935
  959MOL0     O26486  -1.194   7.791   6.335 -0.1199 -0.3838  0.5444
  959MOL0     C26487  -1.325   7.779   6.300  0.0615 -0.3300  0.1856
  959MOL0     C26488  -1.434   7.775   6.384  0.2576  0.7156  0.4763
  959MOL0     C26489  -1.569   7.763   6.340  0.4542  0.1322  0.9091
  959MOL0     C26490  -1.594   7.734   6.203 -0.4752 -0.0769  0.4279
  959MOL0     O26491  -1.709   7.715   6.135  0.3858  0.5307 -0.2543
  959MOL0     C26492  -1.843   7.755   6.175 -0.5198 -0.2244 -0.5994
  959MOL0     C26493  -1.957   7.721   6.078  0.7126 -0.4745  0.0707
  959MOL0     C26494  -2.096   7.745   6.144  0.3818  0.3583 -0.7360
  959MOL0     C26495  -2.227   7.721   6.056  0.1939 -0.0868 -0.5004
  959MOL0     C26496  -2.351   7.685   6.126 -0.4763  1.0339 -0.3939
  959MOL0     C26497  -2.477   7.655   6.040  0.4847 -0.2759 -0.8051
  959MOL0     C26498  -2.543   7.779   5.978 -1.3472  0.0986  0.3949
  959MOL0     C26499  -2.688   7.758   5.952 -1.0059 -0.3187  0.6248
  959MOL0    Cl26500  -2.774   7.781   6.107 -0.1342 -0.0158  0.2189
  959MOL0     C26501  -1.481   7.742   6.119 -0.1637 -0.5180  0.2213
  959MOL0     C26502  -1.351   7.764   6.164 -0.3388  0.7000  0.3328
  959MOL0     O26503  -1.219   7.978   6.468 -0.1369 -0.0608  0.4400
  959MOL0     C26504  -0.931   7.791   6.476 -0.5696  0.8520  0.1652
  959MOL0     C26505  -0.795   7.798   6.507 -0.4409  0.2805  0.2006
  959MOL0     N26506  -0.468   8.414   6.287 -0.5196  0.6544 -0.1454
  959MOL0     N26507  -0.410   8.509   6.364  0.6428  0.2496  0.4879
  959MOL0     C26508  -0.002   8.536   7.424 -0.1351 -0.7261 -1.0862
  959MOL0     C26509   0.096   8.461   7.487  0.0953  0.3680  0.6767
  959MOL0     C26510   0.317   8.101   7.671 -1.3563 -0.3161  0.2041
  959MOL0     C26511   0.360   8.178   7.785 -0.5304 -0.5632  0.0942
  959MOL0     C26512   0.477   8.144   7.843  0.1288 -0.2506 -0.4435
  959MOL0     C26513   0.555   8.033   7.822 -0.3468  0.5041  0.8566
  959MOL0     O26514   0.679   8.021   7.885 -0.2833  0.3585  0.5494
  959MOL0     C26515   0.742   7.891   7.868  0.5719  0.1423  0.0499
  959MOL0     C26516   0.859   7.872   7.960  0.2686  0.4373  0.2871
  959MOL0     C26517   0.992   7.954   7.921 -0.1170  0.4356  0.7627
  959MOL0     C26518   1.071   7.886   7.805  0.3593  0.3959  0.2547
  959MOL0     C26519   1.186   7.969   7.779  0.2377  0.3442  0.6232
  959MOL0     C26520   1.278   8.039   7.735  0.5136 -0.1424 -0.5580
  959MOL0     C26521   0.491   7.939   7.738 -0.3908 -0.2249 -0.2088
  959MOL0     C26522   0.380   7.981   7.655  0.2993 -0.1735  0.2426
  959MOL0     H26523  -0.089   8.177   7.532 -2.3347  0.9754  1.4611
  959MOL0     H26524  -0.239   8.301   7.384  1.2981 -0.3566 -0.8335
  959MOL0     H26525  -0.385   8.467   7.324 -0.0202  2.6093 -0.0314
  959MOL0     H26526  -0.287   8.402   7.192 -2.4699  0.5158 -2.6005
  959MOL0     H26527  -0.387   8.696   7.199  1.8103  1.4991 -2.1371
  959MOL0     H26528  -0.477   8.571   7.118  0.0557 -1.5901  1.2310
  959MOL0     H26529  -0.261   8.514   6.981 -2.5892  0.3982 -0.5395
  959MOL0     H26530  -0.180   8.656   7.060 -0.5576  0.0299  0.2578
  959MOL0     H26531  -0.417   8.666   6.875 -0.6445 -0.9431  1.5726
  959MOL0     H26532  -0.370   8.800   6.981  1.5195  1.8747 -1.5338
  959MOL0     H26533  -0.160   8.826   6.862 -0.5755  2.3556 -2.8513
  959MOL0     H26534  -0.283   8.843   6.743  0.9381 -1.0723 -1.2101
  959MOL0     H26535  -0.145   8.588   6.786  2.8994  1.2015  0.0926
  959MOL0     H26536  -0.089   8.704   6.664  1.2963  0.5356 -0.8337
  959MOL0     H26537  -0.359   8.556   6.676 -1.8805 -0.8132 -2.0755
  959MOL0     H26538  -0.332   8.685   6.559 -1.0716 -0.5578  0.0707
  959MOL0     H26539  -0.141   8.446   6.569  0.9982  0.3480 -0.9776
  959MOL0     H26540  -0.130   8.580   6.464 -1.0122 -0.5819 -1.2942
  959MOL0     H26541  -0.186   8.278   6.387  3.0374  2.9240  1.2030
  959MOL0     H26542  -0.329   8.184   6.119 -0.7723 -2.4277 -1.7466
  959MOL0     H26543  -0.510   8.207   6.154 -0.1853 -1.9469  1.2408
  959MOL0     H26544  -0.334   8.025   6.305  0.6189  1.0709  0.4499
  959MOL0     H26545  -0.439   7.986   6.166 -0.7850  0.4885  0.5390
  959MOL0     H26546  -0.549   8.129   6.405  2.5397  0.3149 -0.1833
  959MOL0     H26547  -0.638   8.013   6.293  0.3414  0.8276 -1.4673
  959MOL0     H26548  -0.420   7.921   6.497  0.6469 -1.5414 -0.8161
  959MOL0     H26549  -0.531   7.827   6.409 -0.1122  0.7682 -0.8451
  959MOL0     H26550  -0.777   8.132   6.522  1.3901  0.3888 -0.1011
  959MOL0     H26551  -0.991   8.121   6.456  1.0647 -1.2493 -0.6955
  959MOL0     H26552  -1.424   7.787   6.491  0.8051 -3.9005  1.1895
  959MOL0     H26553  -1.655   7.764   6.406  0.2397  1.6257  0.6467
  959MOL0     H26554  -1.854   7.862   6.197  1.6903 -0.9206  6.4153
  959MOL0     H26555  -1.864   7.712   6.273  0.0022  1.0979  0.1291
  959MOL0     H26556  -1.944   7.622   6.034  3.1088 -0.9120  1.5759
  959MOL0     H26557  -1.950   7.786   5.990 -3.3413 -2.1524 -1.7243
  959MOL0     H26558  -2.099   7.849   6.177 -1.3146  0.2866 -0.5757
  959MOL0     H26559  -2.104   7.684   6.234 -1.2785  0.7282 -0.6006
  959MOL0     H26560  -2.253   7.802   5.988 -3.9260 -2.0683 -1.5901
  959MOL0     H26561  -2.197   7.637   5.993 -0.2026 -1.3255  0.9063
  959MOL0     H26562  -2.375   7.762   6.201  3.3553  3.4811 -1.4146
  959MOL0     H26563  -2.330   7.596   6.186 -0.3735  0.0129 -1.9078
  959MOL0     H26564  -2.556   7.601   6.093 -0.3790  1.9124  0.3001
  959MOL0     H26565  -2.455   7.590   5.955 -0.8088  2.5644 -3.5152
  959MOL0     H26566  -2.530   7.868   6.040 -0.5148 -1.3797  2.4326
  959MOL0     H26567  -2.486   7.798   5.886 -3.1367  1.2963 -0.5442
  959MOL0     H26568  -2.693   7.654   5.918  0.1752 -1.0780  2.6224
  959MOL0     H26569  -2.728   7.822   5.873  0.4419 -2.1507 -1.7542
  959MOL0     H26570  -1.497   7.715   6.016  0.3568 -1.6843  0.4319
  959MOL0     H26571  -1.270   7.757   6.093 -0.5659  3.1132 -0.2238
  959MOL0     H26572  -0.992   7.704   6.494 -1.0661  1.4805  1.6799
  959MOL0     H26573  -0.743   7.708   6.536  0.3334  0.4743 -0.5555
  959MOL0     H26574   0.027   8.637   7.398  0.2398  0.0179  1.8975
  959MOL0     H26575   0.188   8.505   7.523  1.7512 -2.1644 -0.2330
  959MOL0     H26576   0.310   8.272   7.808 -3.4681 -2.0371  0.2117
  959MOL0     H26577   0.515   8.202   7.926 -0.5474  0.0855 -0.3617
  959MOL0     H26578   0.774   7.888   7.763  1.9683 -4.6979  0.3569
  959MOL0     H26579   0.682   7.802   7.886  2.7614 -1.1691  1.3485
  959MOL0     H26580   0.830   7.917   8.056 -0.6835 -0.1872  0.3003
  959MOL0     H26581   0.887   7.767   7.973 -0.6481  0.3247  1.5677
  959MOL0     H26582   1.053   7.944   8.011  0.2429 -1.5577  0.3353
  959MOL0     H26583   0.967   8.059   7.902  3.0357  1.1794  0.2649
  959MOL0     H26584   1.101   7.783   7.824 -0.1870 -0.0833 -1.3234
  959MOL0     H26585   1.012   7.894   7.713 -2.1022  1.5646  1.8106
  959MOL0     H26586   1.365   8.090   7.698  2.5871 -2.3581  0.9573
  959MOL0     H26587   0.528   7.841   7.710  1.5954  0.3153  0.3422
  959MOL0     H26588   0.348   7.902   7.588 -0.9979 -0.0509  0.7040
  960MOL0     O26589   1.273   2.595  11.288 -0.5161 -0.1117  0.0574
  960MOL0     C26590   1.331   2.701  11.259  0.6264 -0.3536 -0.7426
  960MOL0     O26591   1.273   2.816  11.202 -0.4966 -0.1902  0.8560
  960MOL0     C26592   1.139   2.817  11.189  0.2591 -0.4731 -0.2857
  960MOL0     C26593   1.098   2.864  11.069  0.3207 -0.0220  1.0080
  960MOL0     C26594   0.964   2.860  11.038 -1.1107 -0.8030 -0.2801
  960MOL0     C26595   0.871   2.828  11.140 -0.2746  0.6278  0.5372
  960MOL0     O26596   0.736   2.816  11.117 -0.0885 -0.2356 -0.4115
  960MOL0     C26597   0.679   2.859  10.986  0.2251  0.7818 -0.2611
  960MOL0     C26598   0.524   2.879  10.999 -1.0256 -0.2112 -0.0425
  960MOL0     C26599   0.447   2.747  11.049 -0.6592 -0.3552  0.2197
  960MOL0     C26600   0.304   2.797  11.071 -0.2431  0.3443 -0.6010
  960MOL0     C26601   0.220   2.674  11.097 -0.8968  0.2710  0.0977
  960MOL0     C26602   0.071   2.692  11.097 -0.2006 -0.5090  0.2320
  960MOL0     C26603   0.010   2.551  11.123 -0.2025  0.6545 -0.0849
  960MOL0     C26604  -0.148   2.561  11.102 -0.0268  1.0852 -0.4584
  960MOL0     N26605  -0.216   2.622  11.213  0.7763 -0.2905  0.5030
  960MOL0     C26606  -0.218   2.594  11.348  0.2490 -0.0291 -0.6348
  960MOL0     C26607  -0.315   2.657  11.404 -0.5456  1.1196 -0.7261
  960MOL0     C26608  -0.373   2.665  11.542 -0.0713 -0.3004 -0.0866
  960MOL0     C26609  -0.303   2.587  11.660 -0.0488  0.0582  0.0114
  960MOL0     C26610  -0.397   2.575  11.775  0.2519  0.2537 -0.4967
  960MOL0     C26611  -0.392   2.697  11.874 -0.2633  0.0234  0.6013
  960MOL0     O26612  -0.467   2.676  11.991 -0.2408 -0.2325 -0.0769
  960MOL0     C26613  -0.600   2.712  11.979  0.3261 -0.6743  0.6916
  960MOL0     C26614  -0.680   2.751  11.866 -0.3064 -1.0609 -0.4025
  960MOL0     C26615  -0.811   2.787  11.880 -0.2563 -0.5343 -0.8656
  960MOL0     C26616  -0.868   2.787  12.008 -0.5222  0.4817  0.1622
  960MOL0     C26617  -1.008   2.836  12.020 -0.3669 -0.5486 -0.5813
  960MOL0     O26618  -1.077   2.785  12.122  0.9154  0.0429 -1.3268
  960MOL0     C26619  -1.215   2.794  12.134 -0.9015 -0.5485  0.1845
  960MOL0     C26620  -1.302   2.701  12.076 -0.0991  0.8580 -1.0587
  960MOL0     C26621  -1.442   2.715  12.081 -0.3174  0.2020 -0.9441
  960MOL0     C26622  -1.498   2.818  12.158  0.0824  0.2114  0.2936
  960MOL0     O26623  -1.634   2.836  12.139 -0.3352 -0.5505 -0.1651
  960MOL0     C26624  -1.700   2.944  12.207  0.1141 -0.0221  0.1465
  960MOL0     C26625  -1.740   2.896  12.348 -0.1020 -0.3726 -0.3511
  960MOL0     C26626  -1.825   3.001  12.415  0.2831 -0.5939  0.2778
  960MOL0     C26627  -1.854   2.970  12.560  0.6288  0.8136 -0.4992
  960MOL0     C26628  -1.996   2.985  12.594  0.1044  0.0322  0.3568
  960MOL0     C26629  -2.050   3.133  12.579 -0.3162  0.2720  0.8379
  960MOL0     C26630  -2.205   3.166  12.597 -0.5721  0.6183 -0.4332
  960MOL0     C26631  -2.269   3.115  12.475  0.8899  0.2828 -0.3383
  960MOL0    Cl26632  -2.434   3.186  12.485 -0.4393  0.2778 -0.0267
  960MOL0     C26633  -1.413   2.908  12.218  0.3911 -0.2405  0.3486
  960MOL0     C26634  -1.270   2.899  12.210  0.7582 -0.0747  1.0728
  960MOL0     O26635  -1.050   2.901  11.931  0.1524  0.1150  0.0625
  960MOL0     C26636  -0.797   2.735  12.121 -0.2024 -0.9168  0.7699
  960MOL0     C26637  -0.661   2.705  12.103  0.0295 -0.1833  0.3518
  960MOL0     N26638  -0.378   2.726  11.302 -0.1481 -0.6935  0.5710
  960MOL0     N26639  -0.320   2.708  11.187  0.0044  0.2477 -0.7715
  960MOL0     C26640   0.913   2.814  11.270  0.3147 -0.5027  0.7477
  960MOL0     C26641   1.047   2.806  11.294 -0.8038  0.3793 -0.1609
  960MOL0     C26642   1.477   2.692  11.266  0.2314  0.7406 -0.6295
  960MOL0     C26643   1.551   2.591  11.332 -0.0976  0.3376 -0.3550
  960MOL0     C26644   1.692   2.581  11.337  0.1254 -0.3867 -0.0974
  960MOL0     C26645   1.770   2.680  11.290  0.4506  0.1305  0.6286
  960MOL0     O26646   1.909   2.659  11.286 -0.1970  0.3583  0.0087
  960MOL0     C26647   1.991   2.768  11.249 -0.0069  0.9019 -0.5600
  960MOL0     C26648   2.139   2.749  11.298 -0.2667 -0.2878  0.2918
  960MOL0     C26649   2.151   2.771  11.446 -0.4647 -0.8145  0.2244
  960MOL0     C26650   2.303   2.758  11.486  0.3550 -0.1472 -0.5818
  960MOL0     C26651   2.377   2.879  11.455  0.6677 -0.8129  0.5155
  960MOL0     C26652   2.434   2.974  11.408 -0.6422  0.0976  0.3575
  960MOL0     C26653   1.701   2.792  11.250  0.8915 -0.3461 -0.4994
  960MOL0     C26654   1.560   2.796  11.234 -0.2396 -0.3954 -0.5908
  960MOL0     H26655   1.178   2.898  11.004 -2.0495 -0.0411 -2.1206
  960MOL0     H26656   0.938   2.877  10.934 -0.2639  0.0093 -0.3795
  960MOL0     H26657   0.686   2.779  10.912  3.5475 -0.9533  1.6582
  960MOL0     H26658   0.717   2.958  10.960 -0.2778  1.9461  2.9814
  960MOL0     H26659   0.488   2.917  10.903  0.5942  0.4854 -0.4217
  960MOL0     H26660   0.510   2.959  11.072  0.1785  0.0977 -0.1303
  960MOL0     H26661   0.491   2.696  11.134  0.3341  2.3551  1.4275
  960MOL0     H26662   0.434   2.669  10.974 -3.7122  1.2655 -1.1704
  960MOL0     H26663   0.297   2.874  11.149  1.1294  0.9217 -1.0143
  960MOL0     H26664   0.274   2.853  10.982 -2.5403  3.1418  1.6998
  960MOL0     H26665   0.241   2.628  11.194 -4.0513 -4.4275 -1.1090
  960MOL0     H26666   0.253   2.595  11.028 -0.4096  1.2454 -0.8214
  960MOL0     H26667   0.031   2.728  11.002 -3.0463 -4.8945 -0.4814
  960MOL0     H26668   0.044   2.755  11.183  2.1754 -0.2624  0.8651
  960MOL0     H26669   0.055   2.470  11.066 -3.5629 -1.0871 -0.5261
  960MOL0     H26670   0.019   2.525  11.228 -4.8115 -0.6679  0.2220
  960MOL0     H26671  -0.195   2.463  11.094 -3.6046  2.7076 -1.4440
  960MOL0     H26672  -0.173   2.609  11.006  0.3372 -2.1423 -2.3020
  960MOL0     H26673  -0.134   2.539  11.391  0.5013  1.1531  0.4399
  960MOL0     H26674  -0.479   2.639  11.541 -0.6875  1.7147  2.4140
  960MOL0     H26675  -0.372   2.773  11.562 -1.4127 -0.2055 -0.4647
  960MOL0     H26676  -0.215   2.640  11.697 -0.5599  0.2512  0.9909
  960MOL0     H26677  -0.263   2.491  11.627  1.1006  0.7419 -0.6465
  960MOL0     H26678  -0.499   2.568  11.736  1.1890  1.9060 -3.5407
  960MOL0     H26679  -0.365   2.489  11.835  0.8508  0.2228 -0.8529
  960MOL0     H26680  -0.422   2.785  11.816 -0.2942 -0.0305  0.5346
  960MOL0     H26681  -0.286   2.712  11.899 -0.2833 -0.9013  1.2715
  960MOL0     H26682  -0.639   2.741  11.766 -0.0228 -1.2999 -0.2632
  960MOL0     H26683  -0.872   2.802  11.792 -0.1596 -0.0785 -0.8579
  960MOL0     H26684  -1.251   2.629  12.012  1.4641  0.2096  0.8173
  960MOL0     H26685  -1.503   2.648  12.020 -1.4283 -0.7136  1.0727
  960MOL0     H26686  -1.794   2.969  12.157 -1.0812 -2.9863  0.6939
  960MOL0     H26687  -1.645   3.038  12.208 -0.3333  0.2463  1.3600
  960MOL0     H26688  -1.662   2.893  12.425 -0.5658  1.8796  0.2905
  960MOL0     H26689  -1.801   2.806  12.341 -1.8665  0.8493 -1.5911
  960MOL0     H26690  -1.916   3.013  12.357 -0.7378 -2.3235  1.4428
  960MOL0     H26691  -1.772   3.097  12.407  0.4903 -0.7871 -0.7500
  960MOL0     H26692  -1.829   2.864  12.576  0.7418  0.7562 -1.0576
  960MOL0     H26693  -1.797   3.037  12.626 -0.3591 -0.7996  2.1749
  960MOL0     H26694  -2.011   2.965  12.700 -0.5291  1.6633  0.5944
  960MOL0     H26695  -2.059   2.907  12.551 -1.3441 -0.8041  3.6533
  960MOL0     H26696  -2.021   3.172  12.481 -1.0867 -0.0003  0.4984
  960MOL0     H26697  -1.999   3.187  12.659  0.7802  0.8938 -0.2511
  960MOL0     H26698  -2.261   3.138  12.686 -2.8159  2.8536 -1.0004
  960MOL0     H26699  -2.224   3.273  12.613 -2.8299 -0.1346  2.8684
  960MOL0     H26700  -2.281   3.006  12.478  2.4101  0.0370 -1.6639
  960MOL0     H26701  -2.225   3.145  12.380  2.2153 -0.9878 -0.1656
  960MOL0     H26702  -1.449   2.990  12.280  1.6788 -0.0130  0.8404
  960MOL0     H26703  -1.203   2.963  12.267 -0.9712  0.2762  2.8200
  960MOL0     H26704  -0.839   2.733  12.221 -0.7936  2.3175  0.7091
  960MOL0     H26705  -0.605   2.686  12.194  0.0934 -1.2814  0.0969
  960MOL0     H26706   0.837   2.790  11.343 -1.6229 -1.6733 -1.5142
  960MOL0     H26707   1.092   2.784  11.390  0.9203 -1.5136 -1.3178
  960MOL0     H26708   1.500   2.500  11.360 -0.8315 -0.3408 -3.5348
  960MOL0     H26709   1.738   2.498  11.390  1.8882  1.3676  1.2519
  960MOL0     H26710   1.959   2.855  11.306 -2.0205 -0.2762  0.2102
  960MOL0     H26711   1.986   2.792  11.142 -0.4937 -2.4382 -1.4142
  960MOL0     H26712   2.169   2.647  11.272  1.5953  0.9529 -3.2058
  960MOL0     H26713   2.208   2.816  11.244 -1.6912  0.5932 -0.4985
  960MOL0     H26714   2.093   2.692  11.495  3.0375 -2.5816  1.9390
  960MOL0     H26715   2.116   2.872  11.464 -0.3253 -0.6100 -0.5949
  960MOL0     H26716   2.306   2.764  11.595  0.3391  2.1001 -0.6582
  960MOL0     H26717   2.353   2.663  11.466  0.6545 -0.9483  3.2724
  960MOL0     H26718   2.501   3.055  11.388 -1.2471  1.5291  3.5553
  960MOL0     H26719   1.756   2.880  11.221  1.4819 -1.3014 -2.4393
  960MOL0     H26720   1.519   2.887  11.191 -1.3366  0.3196  1.8335
  961MOL0     O26721   6.118   2.883   9.328 -0.1766  0.4330 -0.4590
  961MOL0     C26722   6.099   2.969   9.244 -0.2572  0.1771  1.2459
  961MOL0     O26723   6.189   3.058   9.202 -0.2403 -0.0365  0.1888
  961MOL0     C26724   6.328   3.023   9.208 -0.2950  0.4652  1.1182
  961MOL0     C26725   6.427   3.110   9.265  0.2287 -0.8445 -0.4104
  961MOL0     C26726   6.559   3.071   9.288 -0.1332  0.2568  0.7803
  961MOL0     C26727   6.594   2.944   9.245  0.7970  0.3833 -0.3649
  961MOL0     O26728   6.724   2.914   9.271 -0.5265 -0.2197  0.5228
  961MOL0     C26729   6.771   2.778   9.293  0.7160 -0.3844 -0.8719
  961MOL0     C26730   6.887   2.797   9.375 -1.0895  0.0355 -0.3457
  961MOL0     C26731   7.020   2.835   9.319  0.0818 -0.4430 -0.7191
  961MOL0     C26732   7.109   2.892   9.440 -0.0416 -0.0952 -0.5639
  961MOL0     C26733   7.251   2.941   9.402 -0.5251  0.3735 -0.2496
  961MOL0     C26734   7.242   3.023   9.276  0.4373 -0.1773 -0.1287
  961MOL0     C26735   7.364   3.110   9.247  0.0182  0.5417  0.7298
  961MOL0     C26736   7.355   3.193   9.112  0.9353 -0.2414  0.1419
  961MOL0     N26737   7.462   3.278   9.079  0.0905  0.0800 -0.0715
  961MOL0     C26738   7.585   3.272   9.130 -1.1075  0.1249 -0.3817
  961MOL0     C26739   7.649   3.381   9.077  0.2663 -0.1391 -0.3142
  961MOL0     C26740   7.787   3.427   9.099 -0.1601  0.0913  0.8467
  961MOL0     C26741   7.795   3.473   9.245  0.6432  0.0388 -0.4073
  961MOL0     C26742   7.712   3.610   9.277  0.4836  0.3672 -0.3936
  961MOL0     C26743   7.743   3.656   9.418  0.2959  0.4065 -0.6042
  961MOL0     O26744   7.877   3.701   9.437  0.8154  0.0936  0.1390
  961MOL0     C26745   7.965   3.632   9.519  0.3431 -0.3057 -0.0726
  961MOL0     C26746   7.940   3.570   9.640  0.0733 -0.6786 -1.0029
  961MOL0     C26747   8.036   3.490   9.708 -0.6783 -0.4799  0.6094
  961MOL0     C26748   8.170   3.499   9.660  0.0881  0.3261  0.3178
  961MOL0     C26749   8.284   3.434   9.741  0.4710  0.6990  0.2649
  961MOL0     O26750   8.261   3.320   9.813 -0.4512  0.2989 -0.2304
  961MOL0     C26751   8.360   3.233   9.863 -0.0505  0.5523  0.6955
  961MOL0     C26752   8.497   3.226   9.837 -0.0345  0.6634  0.7090
  961MOL0     C26753   8.572   3.126   9.890 -0.4577 -0.8851 -0.0090
  961MOL0     C26754   8.521   3.037   9.989 -0.3250 -0.7148  0.0869
  961MOL0     O26755   8.596   2.945  10.067  0.2680 -0.1751 -0.1424
  961MOL0     C26756   8.737   2.926  10.034 -0.9935  0.0478 -0.2220
  961MOL0     C26757   8.833   3.022  10.107 -0.1308 -0.2949 -0.5209
  961MOL0     C26758   8.983   3.006  10.073 -0.1492  0.6807  0.0844
  961MOL0     C26759   9.058   2.887  10.144  0.2671 -0.4799 -0.1315
  961MOL0     C26760   9.207   2.909  10.140 -0.3749 -1.1504 -0.0287
  961MOL0     C26761   9.280   2.922  10.003  0.5702  0.0335  0.2172
  961MOL0     C26762   9.433   2.926  10.019  0.1934 -0.6492 -0.4833
  961MOL0     C26763   9.502   3.033  10.110 -0.8136 -0.2103  0.0028
  961MOL0    Cl26764   9.500   3.197  10.022  0.0095  0.4192 -0.0793
  961MOL0     C26765   8.383   3.049  10.019  0.3287  0.2492 -0.0897
  961MOL0     C26766   8.298   3.131   9.947 -0.4408  0.6640 -0.1663
  961MOL0     O26767   8.392   3.489   9.712  0.2820  0.6198 -0.7552
  961MOL0     C26768   8.203   3.572   9.542 -0.3451 -0.1724 -0.2735
  961MOL0     C26769   8.099   3.628   9.476  0.4313  0.1428  0.2326
  961MOL0     N26770   7.550   3.455   9.014 -0.6825  0.3714  0.3667
  961MOL0     N26771   7.440   3.391   9.012  0.5088 -0.9320 -1.3480
  961MOL0     C26772   6.508   2.865   9.181 -0.2480  0.5858  0.1896
  961MOL0     C26773   6.377   2.903   9.162  0.6714  1.0213 -0.2896
  961MOL0     C26774   5.969   2.941   9.169 -0.3046  1.0798 -0.3266
  961MOL0     C26775   5.960   2.891   9.039  1.0506  0.1040 -0.0548
  961MOL0     C26776   5.837   2.850   8.986 -0.1158 -0.6018 -0.3410
  961MOL0     C26777   5.712   2.864   9.054  0.6637 -0.5995  0.2045
  961MOL0     O26778   5.599   2.825   8.991 -0.7057 -0.3348  0.1671
  961MOL0     C26779   5.469   2.828   9.045 -0.1224  0.6050  0.1650
  961MOL0     C26780   5.363   2.779   8.944 -1.1276  0.0081  0.9357
  961MOL0     C26781   5.346   2.867   8.825  0.4175  0.4693  0.4867
  961MOL0     C26782   5.276   2.997   8.866 -0.2122 -0.0089  1.1904
  961MOL0     C26783   5.251   3.072   8.732  0.7577 -0.0606 -1.3964
  961MOL0     C26784   5.229   3.145   8.636 -0.3780  0.5649 -0.2940
  961MOL0     C26785   5.727   2.915   9.187  0.2791  0.0798 -0.0432
  961MOL0     C26786   5.853   2.950   9.247  1.5806  1.7057  0.0489
  961MOL0     H26787   6.397   3.205   9.307  2.0620 -1.3028  2.1441
  961MOL0     H26788   6.642   3.116   9.340  0.5564 -1.0933  0.8885
  961MOL0     H26789   6.813   2.733   9.203 -0.6537 -1.6193 -0.9274
  961MOL0     H26790   6.696   2.723   9.350  2.5542  0.9771  3.2890
  961MOL0     H26791   6.913   2.701   9.419 -0.9117  0.1601 -0.1768
  961MOL0     H26792   6.856   2.863   9.457  1.3751  3.5957 -2.0011
  961MOL0     H26793   6.994   2.906   9.240 -2.4961  0.0048  0.4668
  961MOL0     H26794   7.065   2.744   9.277 -1.2125 -1.5957  0.3064
  961MOL0     H26795   7.060   2.976   9.490 -1.2471 -1.2794  0.2946
  961MOL0     H26796   7.116   2.808   9.510 -1.0017  1.8247  1.9950
  961MOL0     H26797   7.320   2.858   9.383 -0.7698  0.1387 -0.1248
  961MOL0     H26798   7.293   2.998   9.486  1.3532 -1.9320  0.5139
  961MOL0     H26799   7.165   3.100   9.286  1.5001  1.2265 -1.9318
  961MOL0     H26800   7.208   2.956   9.196 -0.2724  0.8213 -0.6848
  961MOL0     H26801   7.387   3.191   9.317  1.6029  0.3864  0.4087
  961MOL0     H26802   7.447   3.039   9.239  0.8046  1.1802  2.6116
  961MOL0     H26803   7.264   3.253   9.115  1.2029  0.1264  1.0400
  961MOL0     H26804   7.355   3.132   9.021  3.0103 -2.4011  1.4671
  961MOL0     H26805   7.627   3.196   9.196 -1.8425  1.4444  1.7143
  961MOL0     H26806   7.805   3.506   9.025  0.1039 -0.8381 -0.1157
  961MOL0     H26807   7.854   3.348   9.065 -1.5766  0.2697 -2.9043
  961MOL0     H26808   7.899   3.480   9.277  0.5988 -1.1133  0.0762
  961MOL0     H26809   7.747   3.396   9.307 -0.0572 -0.0300 -1.0270
  961MOL0     H26810   7.728   3.690   9.204 -0.7903 -0.8283 -2.0939
  961MOL0     H26811   7.605   3.592   9.289  0.6153  0.0579  0.3070
  961MOL0     H26812   7.713   3.583   9.492  0.2945  0.1490 -0.8575
  961MOL0     H26813   7.717   3.761   9.433  3.9238  1.5042 -0.8215
  961MOL0     H26814   7.845   3.582   9.691 -0.5038 -0.5968 -2.0807
  961MOL0     H26815   8.013   3.434   9.798 -1.0087 -0.3128  0.6294
  961MOL0     H26816   8.541   3.308   9.781  0.5154  0.2616  0.5409
  961MOL0     H26817   8.678   3.136   9.866 -0.1092  3.1551  2.3464
  961MOL0     H26818   8.760   2.934   9.928 -1.5519 -0.1684 -0.3621
  961MOL0     H26819   8.757   2.823  10.066 -0.1021  0.2268 -0.1637
  961MOL0     H26820   8.817   3.046  10.213 -2.5793  2.0638 -1.3194
  961MOL0     H26821   8.803   3.117  10.062 -1.2100 -0.3497  0.0425
  961MOL0     H26822   9.029   3.100  10.105 -0.0405  1.0747 -1.1540
  961MOL0     H26823   8.994   3.005   9.964 -3.6979 -1.8406 -0.4243
  961MOL0     H26824   9.024   2.885  10.248 -0.0265  3.5796  0.0079
  961MOL0     H26825   9.021   2.793  10.103  0.3432 -0.3805 -0.4281
  961MOL0     H26826   9.238   2.824  10.201 -1.3583 -1.1052  0.5703
  961MOL0     H26827   9.227   3.000  10.197 -0.5686 -0.9002 -0.3543
  961MOL0     H26828   9.255   3.016   9.952  0.7543 -0.4520 -0.7909
  961MOL0     H26829   9.262   2.846   9.926 -1.1090  2.8618 -2.4385
  961MOL0     H26830   9.466   2.837  10.073 -1.7736  0.1544  2.3251
  961MOL0     H26831   9.488   2.938   9.926  0.6964  1.9361  0.0766
  961MOL0     H26832   9.598   3.002  10.152 -0.1067  0.8365 -0.7545
  961MOL0     H26833   9.444   3.044  10.202 -1.4627  2.5063 -0.6368
  961MOL0     H26834   8.334   2.995  10.100  1.5127 -1.3846 -0.4271
  961MOL0     H26835   8.196   3.133   9.983 -1.0921 -0.7820 -1.7761
  961MOL0     H26836   8.305   3.577   9.507 -0.0785 -0.4455  0.4536
  961MOL0     H26837   8.115   3.674   9.379  2.8763  1.0426  0.9829
  961MOL0     H26838   6.540   2.767   9.146  2.0642  1.8518 -1.5903
  961MOL0     H26839   6.308   2.829   9.121  0.2076 -0.1290  2.3775
  961MOL0     H26840   6.051   2.890   8.979 -0.8777  2.7630 -3.3721
  961MOL0     H26841   5.823   2.810   8.886 -3.9146 -0.4337 -0.0054
  961MOL0     H26842   5.449   2.931   9.076 -0.8459 -0.1507  2.4487
  961MOL0     H26843   5.449   2.762   9.130 -2.6730  1.1966  0.1165
  961MOL0     H26844   5.396   2.682   8.907 -1.1918  1.6665 -4.2360
  961MOL0     H26845   5.267   2.771   8.996  0.5048 -0.0913  4.1816
  961MOL0     H26846   5.290   2.810   8.750 -0.3474  2.1718 -0.2952
  961MOL0     H26847   5.444   2.886   8.780  0.9911 -0.3319  1.3582
  961MOL0     H26848   5.182   2.961   8.909 -1.1067  2.1552  1.1609
  961MOL0     H26849   5.328   3.063   8.936  3.6608 -2.2025  0.6503
  961MOL0     H26850   5.187   3.213   8.565 -2.6914  0.8986  1.2947
  961MOL0     H26851   5.637   2.916   9.248 -0.8755 -2.0474 -1.5521
  961MOL0     H26852   5.839   2.995   9.345  0.9377  0.0199  0.7618
  962MOL0     O26853   7.876   8.618   7.896 -0.9121  0.1078  0.1979
  962MOL0     C26854   7.935   8.517   7.941 -0.6612 -0.1640  0.6390
  962MOL0     O26855   7.892   8.387   7.935 -0.0591 -0.1980 -0.2237
  962MOL0     C26856   7.774   8.360   7.868 -0.1957  0.1735  0.0609
  962MOL0     C26857   7.656   8.431   7.866  1.1890 -0.1611  0.8401
  962MOL0     C26858   7.539   8.382   7.799 -0.4025  0.3790 -0.8321
  962MOL0     C26859   7.543   8.263   7.728 -1.1735 -0.9120  0.5969
  962MOL0     O26860   7.428   8.205   7.672 -0.5528 -0.6134 -1.4847
  962MOL0     C26861   7.303   8.270   7.696  0.1507 -0.1982  0.2020
  962MOL0     C26862   7.189   8.184   7.626  0.2692  0.3381 -0.7381
  962MOL0     C26863   7.192   8.188   7.467 -0.2654  0.3279 -0.3781
  962MOL0     C26864   7.076   8.125   7.403  0.3008 -0.2612  0.2563
  962MOL0     C26865   7.093   8.167   7.251  0.4034 -0.5843  0.1656
  962MOL0     C26866   6.977   8.117   7.163  0.1757  0.1701 -0.6141
  962MOL0     C26867   6.843   8.170   7.207  0.3143  0.2608  0.0771
  962MOL0     C26868   6.736   8.141   7.105  0.0033  0.8070 -0.4665
  962MOL0     N26869   6.717   8.001   7.082  0.1482  0.1709  0.1215
  962MOL0     C26870   6.633   7.926   7.164 -0.9768 -0.3506 -0.5469
  962MOL0     C26871   6.578   7.839   7.080 -0.1334  0.0464 -1.5676
  962MOL0     C26872   6.471   7.733   7.114  0.2562 -0.1255  0.5924
  962MOL0     C26873   6.514   7.606   7.178 -0.1283  0.9745  0.0858
  962MOL0     C26874   6.391   7.519   7.190 -0.2566  1.0767  1.1180
  962MOL0     C26875   6.317   7.531   7.321  0.8833 -0.7777 -0.7019
  962MOL0     O26876   6.187   7.607   7.307  0.9711  0.2009  0.2487
  962MOL0     C26877   6.121   7.616   7.422 -0.0274  0.1022 -0.5899
  962MOL0     C26878   5.984   7.640   7.407 -0.8817 -0.2764  0.4438
  962MOL0     C26879   5.895   7.632   7.514 -0.0598 -0.0594  0.5262
  962MOL0     C26880   5.945   7.631   7.642 -1.2686  0.2842 -0.9919
  962MOL0     C26881   5.854   7.641   7.758 -0.4874  0.3558 -0.0373
  962MOL0     O26882   5.727   7.653   7.736  0.5668  0.1522  0.7566
  962MOL0     C26883   5.651   7.684   7.842  0.4512  0.1939  0.3270
  962MOL0     C26884   5.580   7.582   7.903  0.5646  0.7687 -0.3455
  962MOL0     C26885   5.498   7.618   8.016  0.2000 -0.0110  0.4903
  962MOL0     C26886   5.490   7.745   8.063 -0.6472 -0.0464 -0.3430
  962MOL0     O26887   5.420   7.779   8.180 -0.1384 -0.1437  0.0918
  962MOL0     C26888   5.346   7.675   8.257  0.0514 -0.3182  0.1076
  962MOL0     C26889   5.284   7.746   8.370 -0.5504 -0.5650 -0.2234
  962MOL0     C26890   5.244   7.895   8.326 -0.7685  0.4802 -0.0667
  962MOL0     C26891   5.129   7.940   8.400 -0.7965 -0.3419  0.4867
  962MOL0     C26892   5.115   7.908   8.542  1.1370 -0.6014 -0.2698
  962MOL0     C26893   5.007   8.007   8.601 -0.0333  0.2997 -0.2436
  962MOL0     C26894   5.015   7.991   8.753 -0.4168 -0.0123 -0.4625
  962MOL0     C26895   4.937   8.102   8.837  0.0089  0.4779  0.4590
  962MOL0    Cl26896   4.759   8.066   8.836 -0.2953 -0.1738 -0.1475
  962MOL0     C26897   5.554   7.843   7.993  0.4053  0.7773 -0.6591
  962MOL0     C26898   5.642   7.817   7.882 -0.0870  0.4068 -0.5810
  962MOL0     O26899   5.901   7.639   7.872 -0.2238  0.0156  0.3533
  962MOL0     C26900   6.084   7.631   7.661 -0.4309  0.0146  0.4008
  962MOL0     C26901   6.172   7.619   7.553 -0.1540 -0.5313 -0.0242
  962MOL0     N26902   6.623   7.867   6.950  0.4376  0.0763  0.3389
  962MOL0     N26903   6.715   7.959   6.956  0.3034 -0.0189  0.8752
  962MOL0     C26904   7.650   8.191   7.731 -0.4339  0.3428  0.1489
  962MOL0     C26905   7.767   8.236   7.806  1.0179 -0.7044  0.7657
  962MOL0     C26906   8.069   8.542   8.010  0.5750  0.9473  1.0098
  962MOL0     C26907   8.164   8.629   7.964  0.2975 -0.2402  0.3532
  962MOL0     C26908   8.294   8.639   8.026  0.3017 -0.0968 -0.1954
  962MOL0     C26909   8.316   8.568   8.145  0.0711 -0.7852 -1.0479
  962MOL0     O26910   8.436   8.579   8.202  0.3200  0.2660 -0.2221
  962MOL0     C26911   8.465   8.497   8.314 -0.2589  0.4683 -0.6083
  962MOL0     C26912   8.599   8.524   8.360 -0.1974  0.1506 -0.8618
  962MOL0     C26913   8.700   8.525   8.252 -0.8277  1.3041  0.4248
  962MOL0     C26914   8.831   8.572   8.304  0.5731 -0.2768 -0.2304
  962MOL0     C26915   8.950   8.546   8.224 -0.5833 -0.3421 -0.0706
  962MOL0     C26916   9.047   8.518   8.154  0.2839  0.4594 -0.9480
  962MOL0     C26917   8.209   8.487   8.198  0.1863  0.3652 -0.1393
  962MOL0     C26918   8.095   8.465   8.123 -0.4248 -0.1201  0.4556
  962MOL0     H26919   7.666   8.527   7.917  0.3482 -0.3808  1.4446
  962MOL0     H26920   7.443   8.430   7.814  0.0796  1.2205 -0.3562
  962MOL0     H26921   7.316   8.359   7.633 -0.2301 -1.3219 -1.5551
  962MOL0     H26922   7.301   8.280   7.804 -0.6880  0.1063  0.1629
  962MOL0     H26923   7.094   8.229   7.655 -0.3159 -1.5394  0.4302
  962MOL0     H26924   7.186   8.082   7.665  0.3597  1.0122  1.1104
  962MOL0     H26925   7.287   8.148   7.429 -1.4699 -2.0539 -1.0773
  962MOL0     H26926   7.193   8.293   7.435  0.2299 -0.7390 -4.4259
  962MOL0     H26927   7.069   8.016   7.405  0.5043 -0.3929 -2.3482
  962MOL0     H26928   6.985   8.171   7.443  0.1556 -1.5957  1.5442
  962MOL0     H26929   7.189   8.129   7.213 -0.4045  0.8384 -3.8205
  962MOL0     H26930   7.093   8.275   7.230 -2.7588 -0.9641 -2.6155
  962MOL0     H26931   6.970   8.010   7.184 -1.3875 -0.0531 -2.0570
  962MOL0     H26932   6.995   8.140   7.058 -1.5469  0.9796 -0.7563
  962MOL0     H26933   6.815   8.132   7.305 -1.6788  1.5173  0.0527
  962MOL0     H26934   6.851   8.279   7.215  1.0033  0.1777  0.6902
  962MOL0     H26935   6.771   8.185   7.011  4.0188 -1.3591 -0.1912
  962MOL0     H26936   6.640   8.189   7.128 -0.9189 -1.2349  0.2415
  962MOL0     H26937   6.621   7.924   7.271  0.9710 -2.7860 -0.2827
  962MOL0     H26938   6.409   7.706   7.027  1.1665  2.4849 -0.9946
  962MOL0     H26939   6.393   7.785   7.171  0.9631  1.9416 -0.2272
  962MOL0     H26940   6.554   7.621   7.278  2.1564 -2.2980 -0.1653
  962MOL0     H26941   6.591   7.550   7.124  0.5715  0.1695  1.8581
  962MOL0     H26942   6.313   7.532   7.114 -0.9855  0.3003  1.7173
  962MOL0     H26943   6.417   7.415   7.168  1.2287  1.5860  0.3217
  962MOL0     H26944   6.380   7.576   7.397 -1.2684  0.0074  0.7303
  962MOL0     H26945   6.286   7.433   7.358 -0.2996 -0.4692 -0.8175
  962MOL0     H26946   5.946   7.617   7.308 -2.2182 -0.8854  1.0739
  962MOL0     H26947   5.789   7.631   7.493 -0.5495  2.1380  2.5120
  962MOL0     H26948   5.583   7.476   7.882  2.7845  0.5615  0.6928
  962MOL0     H26949   5.445   7.537   8.064  3.0209 -2.4502 -0.2032
  962MOL0     H26950   5.419   7.603   8.293 -2.8730 -2.6640  1.8633
  962MOL0     H26951   5.270   7.624   8.197  0.1538 -1.6485  1.0623
  962MOL0     H26952   5.347   7.743   8.458  0.1284  2.7040 -0.4471
  962MOL0     H26953   5.190   7.694   8.393 -2.6333  1.9272 -2.3534
  962MOL0     H26954   5.227   7.904   8.219 -0.2867 -1.3729 -0.3330
  962MOL0     H26955   5.327   7.962   8.350 -1.2917  2.1081 -2.4790
  962MOL0     H26956   5.128   8.048   8.379 -1.8273 -0.7253 -1.7038
  962MOL0     H26957   5.054   7.879   8.350 -1.9182  2.8371 -2.0465
  962MOL0     H26958   5.210   7.935   8.588  0.3437  4.2756 -0.9471
  962MOL0     H26959   5.093   7.801   8.552  1.0245 -0.7385 -1.6695
  962MOL0     H26960   4.906   7.986   8.565 -0.1775 -3.3836  1.8706
  962MOL0     H26961   5.041   8.103   8.561 -0.0404 -0.6132 -2.6056
  962MOL0     H26962   4.976   7.891   8.772  1.8755 -1.0592 -0.9412
  962MOL0     H26963   5.122   8.003   8.773 -0.5261  3.2390 -1.1853
  962MOL0     H26964   4.971   8.198   8.797 -3.0437  0.9028 -1.4749
  962MOL0     H26965   4.980   8.101   8.937  2.5878 -1.0679 -0.5357
  962MOL0     H26966   5.540   7.940   8.041  0.7037 -0.4500  2.0834
  962MOL0     H26967   5.686   7.905   7.839 -1.3574  0.6628 -1.4123
  962MOL0     H26968   6.131   7.621   7.758 -2.0725  0.7572  1.3127
  962MOL0     H26969   6.277   7.609   7.578 -0.8020 -1.3399  2.6485
  962MOL0     H26970   7.659   8.100   7.674  0.1974  1.7304 -2.1012
  962MOL0     H26971   7.854   8.171   7.809 -0.0978 -2.2189  1.7764
  962MOL0     H26972   8.146   8.700   7.884 -0.0305 -2.6868 -1.8748
  962MOL0     H26973   8.372   8.710   7.999  0.9198  0.1794  2.1143
  962MOL0     H26974   8.442   8.393   8.291  2.1689 -0.3540  0.3819
  962MOL0     H26975   8.401   8.511   8.402  2.5519  3.3575  1.2142
  962MOL0     H26976   8.599   8.622   8.409 -0.8565 -0.8728  1.3153
  962MOL0     H26977   8.622   8.462   8.447 -1.4858  1.0481  0.1719
  962MOL0     H26978   8.684   8.593   8.168 -0.3103 -1.3907 -2.0429
  962MOL0     H26979   8.717   8.424   8.213  4.2033  1.9615  0.3492
  962MOL0     H26980   8.822   8.678   8.326 -1.7892 -0.5477  0.3269
  962MOL0     H26981   8.864   8.509   8.388  1.9286 -0.6768 -1.0369
  962MOL0     H26982   9.130   8.494   8.091  0.8111  1.7017 -0.7555
  962MOL0     H26983   8.215   8.414   8.278 -1.1568  0.0100 -0.3363
  962MOL0     H26984   8.022   8.388   8.145 -1.9203  1.9031  3.3659
  963MOL0     O26985   7.437   4.488   0.632 -0.5089  1.2008 -0.5821
  963MOL0     C26986   7.442   4.483   0.754  0.0949  0.6198 -1.1897
  963MOL0     O26987   7.354   4.413   0.843 -0.5154 -0.3637 -0.2302
  963MOL0     C26988   7.265   4.325   0.783 -0.9966 -0.3097  0.9481
  963MOL0     C26989   7.152   4.364   0.720  0.2482  0.2475  0.1108
  963MOL0     C26990   7.074   4.278   0.633 -0.4447  0.2942  0.6905
  963MOL0     C26991   7.120   4.148   0.625  0.1048 -0.4404  0.8551
  963MOL0     O26992   7.065   4.055   0.541  0.0136 -0.0973  0.7879
  963MOL0     C26993   6.932   4.080   0.491 -0.0327  1.0576  0.2252
  963MOL0     C26994   6.875   3.946   0.449  0.1719  0.3532 -1.9165
  963MOL0     C26995   6.772   3.899   0.559 -1.1218 -0.1713 -0.6316
  963MOL0     C26996   6.692   3.773   0.508 -0.2256  0.7045 -0.3384
  963MOL0     C26997   6.551   3.773   0.565 -0.4875  0.5406  0.3687
  963MOL0     C26998   6.549   3.758   0.719  0.1792 -0.4003 -0.1953
  963MOL0     C26999   6.411   3.732   0.793  0.2276 -0.1574  1.0456
  963MOL0     C27000   6.284   3.797   0.738 -0.7774  0.0728  0.1114
  963MOL0     N27001   6.167   3.723   0.782 -0.2474 -0.8337  0.1451
  963MOL0     C27002   6.101   3.630   0.710 -1.2014  0.2453  0.4413
  963MOL0     C27003   6.020   3.566   0.796 -0.2569  0.3567  0.3970
  963MOL0     C27004   5.936   3.440   0.754 -0.8179 -0.7730 -0.1537
  963MOL0     C27005   5.799   3.468   0.691 -0.2488 -0.1521  1.0952
  963MOL0     C27006   5.726   3.329   0.670  0.0994  0.1394  0.9127
  963MOL0     C27007   5.586   3.339   0.604 -0.2200 -0.6986  0.7788
  963MOL0     O27008   5.528   3.204   0.591 -0.8169  0.3637 -0.2853
  963MOL0     C27009   5.446   3.178   0.485 -0.3874 -0.6518 -0.1621
  963MOL0     C27010   5.310   3.141   0.513  0.3526 -0.5502  0.3534
  963MOL0     C27011   5.224   3.111   0.401 -0.4586  0.0272 -1.1968
  963MOL0     C27012   5.265   3.135   0.269 -0.9325 -0.4659 -0.1185
  963MOL0     C27013   5.176   3.115   0.159 -0.0580  0.2355 -0.2627
  963MOL0     O27014   5.039   3.122   0.167  0.5264  1.0171  0.3139
  963MOL0     C27015   4.949   3.090   0.066  0.2947  0.4080  0.3466
  963MOL0     C27016   4.823   3.034   0.100 -0.5439  0.1705  0.3756
  963MOL0     C27017   4.736   3.009  -0.005  0.1772 -0.2052 -0.2981
  963MOL0     C27018   4.765   3.044  -0.140 -0.5369  0.5971  0.5275
  963MOL0     O27019   4.677   3.043  -0.248 -0.4328  0.4720  0.5154
  963MOL0     C27020   4.566   2.959  -0.222  1.3621  0.3051  0.2645
  963MOL0     C27021   4.488   2.916  -0.336  0.2413  0.9548 -0.4329
  963MOL0     C27022   4.403   3.024  -0.395  1.2025  0.8133  0.8923
  963MOL0     C27023   4.316   2.966  -0.504 -0.0350 -0.5107 -1.2558
  963MOL0     C27024   4.205   3.063  -0.543 -0.1241 -0.9371  0.6737
  963MOL0     C27025   4.112   3.009  -0.644  0.7510  0.4941 -0.0619
  963MOL0     C27026   4.022   3.108  -0.688  0.1061 -0.4368  0.3141
  963MOL0     C27027   3.913   3.062  -0.785  0.0246  0.7338  0.1890
  963MOL0    Cl27028   3.972   3.017  -0.955 -0.6111 -0.5565  0.0056
  963MOL0     C27029   4.892   3.085  -0.172  0.8163  0.0613  0.3629
  963MOL0     C27030   4.976   3.120  -0.069  0.5195 -0.5073 -0.4458
  963MOL0     O27031   5.237   3.063   0.064  0.8342 -0.8054 -0.6384
  963MOL0     C27032   5.393   3.182   0.247  0.7987  0.7541 -0.0931
  963MOL0     C27033   5.487   3.207   0.352 -0.5868  0.1122 -0.6092
  963MOL0     N27034   6.017   3.639   0.917 -0.2852 -0.1790 -0.5706
  963MOL0     N27035   6.116   3.730   0.907 -0.0023 -0.3176  1.0998
  963MOL0     C27036   7.227   4.104   0.703  0.3881  0.4595  0.2198
  963MOL0     C27037   7.296   4.194   0.777 -0.1032  0.4345 -0.8396
  963MOL0     C27038   7.556   4.559   0.817  1.1722  0.0391 -0.1833
  963MOL0     C27039   7.665   4.625   0.749  0.4490  0.2941 -0.4856
  963MOL0     C27040   7.778   4.672   0.813  0.6318 -0.4774  0.2177
  963MOL0     C27041   7.780   4.693   0.950  0.3119 -0.6103 -1.3216
  963MOL0     O27042   7.894   4.743   1.009 -1.2037 -0.3683  0.5808
  963MOL0     C27043   7.959   4.673   1.106 -0.8342  0.3801 -0.3658
  963MOL0     C27044   7.975   4.731   1.246  1.4804 -0.2562  1.1846
  963MOL0     C27045   7.999   4.884   1.249  0.4043 -0.0391 -0.7047
  963MOL0     C27046   8.128   4.917   1.325  0.6854  0.3523 -0.2355
  963MOL0     C27047   8.141   5.066   1.337  0.4097 -0.9142 -0.0371
  963MOL0     C27048   8.152   5.190   1.347  0.0819 -0.2010  0.1433
  963MOL0     C27049   7.676   4.639   1.018  1.0973 -0.0098 -0.2739
  963MOL0     C27050   7.565   4.569   0.959 -0.5455 -0.1004  0.8527
  963MOL0     H27051   7.141   4.468   0.691 -1.6567  0.2905  0.8535
  963MOL0     H27052   6.984   4.304   0.579  0.5054 -0.1113 -1.1659
  963MOL0     H27053   6.939   4.154   0.410 -0.5194  4.0723  2.7598
  963MOL0     H27054   6.861   4.131   0.556  1.8959  2.3872  1.4019
  963MOL0     H27055   6.952   3.868   0.446  1.1743  0.6564  4.1592
  963MOL0     H27056   6.820   3.959   0.355  0.5255 -2.2732 -2.5850
  963MOL0     H27057   6.709   3.984   0.585  1.6910  2.5086 -1.9169
  963MOL0     H27058   6.825   3.880   0.652  2.6348  3.8387 -1.6468
  963MOL0     H27059   6.678   3.785   0.400 -2.3751  0.7139 -0.1122
  963MOL0     H27060   6.728   3.673   0.533 -6.3604 -2.0621 -0.8023
  963MOL0     H27061   6.496   3.691   0.519  2.5324 -2.0849  1.0401
  963MOL0     H27062   6.501   3.866   0.536  2.0192  1.2822 -2.1540
  963MOL0     H27063   6.593   3.843   0.771 -0.7732  0.3174 -0.5293
  963MOL0     H27064   6.619   3.675   0.739 -1.4493 -2.6266 -2.9556
  963MOL0     H27065   6.397   3.623   0.801 -0.4841 -0.1039  0.5691
  963MOL0     H27066   6.432   3.772   0.893 -1.5602  0.8757  1.0449
  963MOL0     H27067   6.280   3.799   0.629  0.6705  2.5852  0.0254
  963MOL0     H27068   6.285   3.901   0.770  2.1354 -0.2834  1.5061
  963MOL0     H27069   6.127   3.605   0.607  1.4885 -0.2644  1.1579
  963MOL0     H27070   5.918   3.387   0.848  1.1124 -0.9348  0.1685
  963MOL0     H27071   5.995   3.375   0.689 -2.7111 -2.3578 -0.3516
  963MOL0     H27072   5.818   3.525   0.599 -2.6174  0.8469  1.1496
  963MOL0     H27073   5.744   3.539   0.753  2.2331  2.5304  0.4540
  963MOL0     H27074   5.778   3.252   0.611 -1.7970 -1.9340  1.7728
  963MOL0     H27075   5.704   3.285   0.768 -2.2072 -1.1741 -0.0985
  963MOL0     H27076   5.596   3.378   0.502  0.0961  1.0052  1.4344
  963MOL0     H27077   5.526   3.400   0.672  0.3537 -2.1003  2.6272
  963MOL0     H27078   5.280   3.124   0.616  0.0396 -2.8384 -0.0674
  963MOL0     H27079   5.127   3.075   0.434  1.6698 -2.6254  3.0535
  963MOL0     H27080   4.799   2.995   0.198 -0.2537 -3.7214 -0.9335
  963MOL0     H27081   4.634   2.991   0.028 -0.8611  3.1797 -1.2495
  963MOL0     H27082   4.503   3.012  -0.150  4.1301  2.1615  1.5085
  963MOL0     H27083   4.584   2.866  -0.168 -3.2052 -0.1217  1.4841
  963MOL0     H27084   4.410   2.844  -0.306 -3.6210  5.5058  1.7111
  963MOL0     H27085   4.554   2.865  -0.407 -0.2323 -2.4732  1.3529
  963MOL0     H27086   4.474   3.088  -0.448 -1.2497  1.8317 -1.3959
  963MOL0     H27087   4.340   3.082  -0.326 -1.2003  0.8208 -1.1580
  963MOL0     H27088   4.375   2.940  -0.592  1.3327  0.1337 -0.5617
  963MOL0     H27089   4.268   2.878  -0.459  0.0817  1.5843  3.5812
  963MOL0     H27090   4.254   3.158  -0.568 -0.4494 -0.6830  0.9820
  963MOL0     H27091   4.144   3.079  -0.453 -0.8573 -2.6880  0.5211
  963MOL0     H27092   4.060   2.917  -0.616  1.4811 -0.4320 -1.6011
  963MOL0     H27093   4.187   2.980  -0.719  1.9926 -0.0555  1.3463
  963MOL0     H27094   3.974   3.165  -0.608  0.3095  4.7670 -2.7666
  963MOL0     H27095   4.081   3.180  -0.745  0.4168 -0.8356  0.1316
  963MOL0     H27096   3.842   3.143  -0.801  0.1871  0.5700 -1.6184
  963MOL0     H27097   3.867   2.973  -0.742 -2.7936  2.0301  0.0323
  963MOL0     H27098   4.922   3.108  -0.274  1.2618  0.5790  0.6019
  963MOL0     H27099   5.064   3.179  -0.092 -1.1325  1.7010 -1.4610
  963MOL0     H27100   5.432   3.203   0.148 -1.5511 -0.1391 -1.2890
  963MOL0     H27101   5.590   3.236   0.336 -0.7271  1.2694  0.4047
  963MOL0     H27102   7.263   4.002   0.696 -0.4041  0.1502  0.5037
  963MOL0     H27103   7.395   4.159   0.807  0.4891  1.2386 -1.8073
  963MOL0     H27104   7.661   4.613   0.641 -1.9013 -1.3851 -0.2925
  963MOL0     H27105   7.871   4.692   0.761  2.0815 -1.1830  2.4076
  963MOL0     H27106   8.050   4.642   1.054 -1.7978  0.0205 -1.9101
  963MOL0     H27107   7.899   4.583   1.125 -0.1766  0.1410  0.6764
  963MOL0     H27108   7.883   4.717   1.303  1.0394 -2.1428  0.0966
  963MOL0     H27109   8.052   4.677   1.302  0.7606 -0.1815  2.2877
  963MOL0     H27110   7.909   4.928   1.294 -0.4584 -1.7244 -0.6884
  963MOL0     H27111   8.017   4.925   1.150  0.0450  0.0338 -0.7416
  963MOL0     H27112   8.128   4.877   1.427  0.1345 -0.3298 -0.4927
  963MOL0     H27113   8.221   4.897   1.272  1.8064  1.6151  1.1771
  963MOL0     H27114   8.135   5.293   1.371  1.2167  0.6420 -2.3143
  963MOL0     H27115   7.673   4.654   1.126 -1.1380 -0.1958 -0.2669
  963MOL0     H27116   7.485   4.546   1.029 -1.4033 -0.6513 -0.2718
  964MOL0     O27117   2.600  11.128   8.386 -0.1841 -1.4173  0.4893
  964MOL0     C27118   2.546  11.236   8.359  0.1450  0.2002 -0.9893
  964MOL0     O27119   2.594  11.357   8.320 -0.5068 -0.1897  0.0102
  964MOL0     C27120   2.726  11.352   8.281 -0.7007 -0.6898 -0.7805
  964MOL0     C27121   2.825  11.382   8.387 -0.4279  0.5107  0.2909
  964MOL0     C27122   2.962  11.382   8.349 -0.1157 -0.1139 -0.1202
  964MOL0     C27123   2.996  11.370   8.214  0.1012  0.9604  0.0910
  964MOL0     O27124   3.130  11.372   8.189 -0.0971  0.3117  0.3039
  964MOL0     C27125   3.171  11.323   8.060 -0.5803  0.0374  0.2228
  964MOL0     C27126   3.326  11.279   8.068  0.2294 -0.6796  1.1535
  964MOL0     C27127   3.336  11.156   8.156  0.0683 -0.0943 -0.2665
  964MOL0     C27128   3.487  11.128   8.184 -0.1645 -0.4431  0.3344
  964MOL0     C27129   3.577  11.111   8.063 -0.3086  0.9280  0.2097
  964MOL0     C27130   3.716  11.068   8.102 -0.5102  1.0881  0.5111
  964MOL0     C27131   3.806  11.035   7.983 -0.7071  0.2607  0.1985
  964MOL0     C27132   3.922  10.946   8.039  0.3150 -0.6424 -0.3979
  964MOL0     N27133   3.984  10.898   7.908 -0.1547 -0.0833 -0.1895
  964MOL0     C27134   4.084  10.970   7.839  0.7357  0.4301 -0.0540
  964MOL0     C27135   4.114  10.892   7.735 -0.3140 -0.2086  0.8181
  964MOL0     C27136   4.222  10.892   7.634  0.4838 -1.3382 -1.3200
  964MOL0     C27137   4.352  10.858   7.709  0.3192  0.1515 -0.3217
  964MOL0     C27138   4.472  10.913   7.636 -1.0923  0.6179  0.0185
  964MOL0     C27139   4.513  10.826   7.515 -0.0047  0.1083 -0.9566
  964MOL0     O27140   4.631  10.897   7.469 -0.2450  0.4773  0.5507
  964MOL0     C27141   4.667  10.873   7.342 -0.6153  0.0354  0.1582
  964MOL0     C27142   4.707  10.739   7.291  1.3213 -0.4056 -0.4499
  964MOL0     C27143   4.719  10.724   7.148  0.3951  0.4077  0.8022
  964MOL0     C27144   4.703  10.830   7.054 -0.5242 -0.2867 -0.6018
  964MOL0     C27145   4.713  10.808   6.914  0.3103 -0.2517 -0.5765
  964MOL0     O27146   4.747  10.683   6.881 -0.3166  0.1481 -0.2087
  964MOL0     C27147   4.722  10.653   6.754  0.6298 -0.2108 -0.2208
  964MOL0     C27148   4.602  10.609   6.688 -0.4069  0.6147 -1.3026
  964MOL0     C27149   4.593  10.572   6.557 -0.7942 -0.6654  0.3441
  964MOL0     C27150   4.697  10.590   6.468 -0.2356 -0.2129  0.3801
  964MOL0     O27151   4.686  10.580   6.335 -0.2250 -0.2271 -0.0522
  964MOL0     C27152   4.682  10.440   6.294 -0.4071 -0.4072 -0.8677
  964MOL0     C27153   4.663  10.412   6.142  0.5209 -1.0122 -0.7694
  964MOL0     C27154   4.704  10.523   6.047  0.2030 -0.5891 -0.6303
  964MOL0     C27155   4.853  10.544   6.038 -0.5587  0.4272  0.7080
  964MOL0     C27156   4.899  10.616   5.912  0.2095  0.2232 -0.8580
  964MOL0     C27157   5.048  10.651   5.920  0.0846  0.1388  0.3014
  964MOL0     C27158   5.111  10.740   5.812  1.1129 -0.1204  0.5361
  964MOL0     C27159   5.185  10.673   5.692  0.6052  0.2409 -0.6005
  964MOL0    Cl27160   5.088  10.543   5.625 -0.3337 -0.2463  0.0439
  964MOL0     C27161   4.816  10.637   6.529  0.7276  0.3471 -0.4025
  964MOL0     C27162   4.824  10.665   6.669  0.3053  0.2882 -0.2800
  964MOL0     O27163   4.679  10.896   6.840  0.4652 -0.8919  0.7729
  964MOL0     C27164   4.671  10.958   7.116  0.6331  0.0444 -0.0596
  964MOL0     C27165   4.648  10.983   7.254 -0.2860  0.8138 -0.4128
  964MOL0     N27166   4.021  10.786   7.731  0.0981  0.2478  0.2794
  964MOL0     N27167   3.949  10.784   7.839 -0.5095  0.0678  0.0818
  964MOL0     C27168   2.904  11.346   8.115 -0.7768  0.9867 -0.0209
  964MOL0     C27169   2.769  11.330   8.155 -0.4042  0.4318 -0.2381
  964MOL0     C27170   2.394  11.242   8.391 -0.3570  0.1046  0.3332
  964MOL0     C27171   2.321  11.358   8.389  0.3015 -0.8444  0.1680
  964MOL0     C27172   2.185  11.361   8.416  0.6669 -0.3939  0.3990
  964MOL0     C27173   2.122  11.247   8.451 -0.1343  0.0634 -0.1901
  964MOL0     O27174   1.987  11.257   8.477 -0.2603  0.0127  0.2198
  964MOL0     C27175   1.900  11.152   8.509 -0.7691 -0.2577  0.0066
  964MOL0     C27176   1.866  11.069   8.381  0.4579  0.0163  0.3770
  964MOL0     C27177   1.750  10.967   8.396 -0.8218  0.7367 -0.0263
  964MOL0     C27178   1.613  11.020   8.378  0.1548  0.3145 -0.4014
  964MOL0     C27179   1.567  11.115   8.479  0.9172  1.0929 -0.1127
  964MOL0     C27180   1.544  11.187   8.576 -1.3673 -1.3277 -0.1411
  964MOL0     C27181   2.189  11.124   8.464 -1.1048  0.0912 -0.4174
  964MOL0     C27182   2.328  11.126   8.426  0.3501  0.3926 -0.0340
  964MOL0     H27183   2.789  11.402   8.488  1.6247  1.1425  0.9468
  964MOL0     H27184   3.037  11.399   8.425 -1.8145 -0.4195  1.7101
  964MOL0     H27185   3.155  11.401   7.985 -0.8859  0.5540  0.8218
  964MOL0     H27186   3.120  11.229   8.036 -1.3308  0.2631  0.9393
  964MOL0     H27187   3.374  11.365   8.116  0.2994 -0.7655  1.2362
  964MOL0     H27188   3.378  11.264   7.973  1.8287 -0.6909  2.0050
  964MOL0     H27189   3.301  11.074   8.091 -0.5405  1.3272 -1.7970
  964MOL0     H27190   3.286  11.157   8.253 -2.2945  1.0911 -1.3873
  964MOL0     H27191   3.539  11.204   8.242  2.9213 -4.1951  3.0197
  964MOL0     H27192   3.489  11.034   8.241 -1.7112 -1.4164 -1.1166
  964MOL0     H27193   3.580  11.204   8.005  2.9943  0.2876 -0.8381
  964MOL0     H27194   3.531  11.027   8.010 -0.6326  0.6191  0.9752
  964MOL0     H27195   3.701  10.980   8.165  0.4176  0.2133 -0.4497
  964MOL0     H27196   3.764  11.146   8.162  0.7881 -0.1796  1.1928
  964MOL0     H27197   3.761  10.982   7.898 -1.2997  1.7985 -0.4767
  964MOL0     H27198   3.851  11.126   7.942  0.7112 -0.2445  0.5792
  964MOL0     H27199   3.886  10.861   8.099 -0.0319 -1.1878 -1.3451
  964MOL0     H27200   3.996  11.010   8.087  2.0962  0.2496 -3.9296
  964MOL0     H27201   4.146  11.057   7.859  1.4469 -0.1522  0.3200
  964MOL0     H27202   4.225  10.991   7.587  0.1411 -0.9488 -0.5351
  964MOL0     H27203   4.216  10.820   7.552  2.5449 -0.9040 -1.9223
  964MOL0     H27204   4.367  10.753   7.736 -0.3282 -0.3908 -1.9219
  964MOL0     H27205   4.354  10.907   7.807  1.1463 -0.3685 -0.0687
  964MOL0     H27206   4.461  11.021   7.621  0.6758  0.8393  0.0082
  964MOL0     H27207   4.557  10.904   7.705 -1.0966 -0.9786 -0.1390
  964MOL0     H27208   4.431  10.828   7.442  0.4399 -0.1669 -1.4700
  964MOL0     H27209   4.537  10.723   7.540 -2.5534 -0.1861  0.6261
  964MOL0     H27210   4.732  10.657   7.357  4.8211 -1.2172 -2.4952
  964MOL0     H27211   4.735  10.624   7.108 -4.8873  0.5893 -2.7733
  964MOL0     H27212   4.522  10.580   6.756  1.2439 -0.0152  0.4435
  964MOL0     H27213   4.493  10.555   6.519 -1.8236  0.7158  2.3175
  964MOL0     H27214   4.607  10.387   6.354 -0.8012 -0.6621 -1.5815
  964MOL0     H27215   4.785  10.408   6.315  2.0553  4.4797 -3.6707
  964MOL0     H27216   4.555  10.395   6.139  0.6270 -1.8181 -0.1800
  964MOL0     H27217   4.706  10.318   6.108 -1.1659 -2.6370  1.3072
  964MOL0     H27218   4.655  10.620   6.059  0.6289 -0.4286 -0.1398
  964MOL0     H27219   4.673  10.475   5.954  2.2734 -3.8173  0.1935
  964MOL0     H27220   4.893  10.587   6.130  2.1309 -2.8317  1.2594
  964MOL0     H27221   4.902  10.448   6.053 -0.7337  0.6058  2.7076
  964MOL0     H27222   4.848  10.711   5.896  0.1664 -0.0197 -2.3211
  964MOL0     H27223   4.874  10.554   5.825 -2.1614  0.6044 -0.5075
  964MOL0     H27224   5.103  10.556   5.919 -4.5462 -2.8990 -1.7738
  964MOL0     H27225   5.066  10.711   6.009  2.3832 -0.1887  0.1216
  964MOL0     H27226   5.028  10.801   5.776 -0.0726 -3.4196 -2.9870
  964MOL0     H27227   5.165  10.820   5.863 -1.6011  2.3104 -0.1451
  964MOL0     H27228   5.275  10.626   5.732  1.1490 -0.2423 -2.3322
  964MOL0     H27229   5.197  10.747   5.613 -1.2394  0.7010 -0.4892
  964MOL0     H27230   4.905  10.645   6.468  1.3287  0.4576  0.4773
  964MOL0     H27231   4.918  10.705   6.706 -0.1514  2.2244 -1.1029
  964MOL0     H27232   4.649  11.039   7.049  2.1838  1.4606  1.0383
  964MOL0     H27233   4.625  11.085   7.285  1.7238  0.0708  4.4510
  964MOL0     H27234   2.944  11.339   8.014  2.5743 -0.6031  1.2788
  964MOL0     H27235   2.696  11.304   8.079 -0.5838  2.1921 -0.7083
  964MOL0     H27236   2.381  11.445   8.363  0.2118 -0.1062  2.2051
  964MOL0     H27237   2.131  11.454   8.404 -0.6079 -0.9534  1.5683
  964MOL0     H27238   1.800  11.187   8.537 -1.3379 -2.5016  0.9999
  964MOL0     H27239   1.960  11.092   8.579 -0.3699  0.6806  0.4919
  964MOL0     H27240   1.832  11.125   8.294  2.3391 -1.2914 -1.2884
  964MOL0     H27241   1.954  11.006   8.361  0.9454  1.7696 -4.3456
  964MOL0     H27242   1.757  10.915   8.492  0.6903 -1.8232 -1.4389
  964MOL0     H27243   1.770  10.890   8.321 -1.5315  0.9976 -0.5026
  964MOL0     H27244   1.593  11.055   8.277  3.3129 -0.2919 -1.3506
  964MOL0     H27245   1.554  10.928   8.377  0.0355  0.3797 -2.3066
  964MOL0     H27246   1.521  11.261   8.649 -1.5022  0.8446 -2.2758
  964MOL0     H27247   2.151  11.030   8.502  1.7957 -0.6747  0.8014
  964MOL0     H27248   2.379  11.030   8.432 -1.5453 -0.7849 -1.4780
  965MOL0     O27249   3.014  10.723   1.142 -0.3274 -0.5930  0.1259
  965MOL0     C27250   3.041  10.819   1.069  0.9853 -0.1980 -0.1492
  965MOL0     O27251   2.950  10.888   0.987  0.5717  0.6623 -0.2575
  965MOL0     C27252   2.810  10.858   1.003 -1.7138  0.8719 -0.3273
  965MOL0     C27253   2.766  10.875   1.133  0.4738 -0.1100 -1.1222
  965MOL0     C27254   2.623  10.872   1.155  0.1991 -0.8638  0.3620
  965MOL0     C27255   2.539  10.833   1.060 -0.3686 -0.3891 -0.8795
  965MOL0     O27256   2.407  10.831   1.109  0.0394 -0.0754  0.0319
  965MOL0     C27257   2.294  10.823   1.014 -1.1499  0.8689 -0.2723
  965MOL0     C27258   2.279  10.935   0.918  0.4939 -0.1781  0.2711
  965MOL0     C27259   2.135  10.935   0.861 -0.3400  0.4191 -0.2727
  965MOL0     C27260   2.116  11.020   0.739  0.1235 -0.7273 -0.0278
  965MOL0     C27261   1.981  11.009   0.667 -0.3226  0.3137 -0.2946
  965MOL0     C27262   1.868  11.059   0.763  1.4431  0.8297 -0.6277
  965MOL0     C27263   1.727  11.045   0.705 -0.0412  0.2066  0.4947
  965MOL0     C27264   1.635  11.146   0.775  0.8728 -0.8968  0.2215
  965MOL0     N27265   1.501  11.138   0.720 -0.3833 -0.0389 -0.1214
  965MOL0     C27266   1.422  11.033   0.731 -0.0102 -0.5222  0.2421
  965MOL0     C27267   1.329  11.059   0.638 -0.5523  0.0176  1.4657
  965MOL0     C27268   1.224  10.953   0.611  1.0241 -0.2211 -0.2075
  965MOL0     C27269   1.100  11.017   0.537  0.7659 -0.3583 -0.4724
  965MOL0     C27270   0.967  10.925   0.525 -0.1899 -0.6698 -0.0238
  965MOL0     C27271   0.908  10.873   0.655 -0.6718  0.1588  0.4266
  965MOL0     O27272   0.773  10.924   0.662  0.4738  0.1924  0.3673
  965MOL0     C27273   0.664  10.835   0.639  0.1357 -0.0883  0.8716
  965MOL0     C27274   0.537  10.878   0.672 -0.0933  0.6044  0.4827
  965MOL0     C27275   0.418  10.804   0.641 -0.4974  0.3980  0.1927
  965MOL0     C27276   0.438  10.672   0.590 -1.6411 -0.0387  0.2530
  965MOL0     C27277   0.314  10.586   0.565  0.9617 -0.1986 -0.2553
  965MOL0     O27278   0.194  10.654   0.562  0.0235 -0.6182 -0.1739
  965MOL0     C27279   0.071  10.588   0.546  0.8589  0.1885 -0.7718
  965MOL0     C27280   0.034  10.470   0.621 -0.1985  0.4547 -0.5532
  965MOL0     C27281  -0.098  10.423   0.619  0.8549  0.4033 -0.3589
  965MOL0     C27282  -0.193  10.486   0.532  0.3835  0.5123  0.0245
  965MOL0     O27283  -0.323  10.436   0.520  0.1334  0.6709 -0.1668
  965MOL0     C27284  -0.347  10.353   0.413 -0.1878  0.5557  0.5371
  965MOL0     C27285  -0.491  10.308   0.415  0.5432 -1.0249  0.7839
  965MOL0     C27286  -0.590  10.413   0.369 -0.8848 -0.1483 -0.1879
  965MOL0     C27287  -0.725  10.355   0.363  0.6796 -0.1996 -0.4937
  965MOL0     C27288  -0.830  10.464   0.333  0.1823  0.0130  0.2228
  965MOL0     C27289  -0.965  10.414   0.272  0.4148  0.6479 -0.1137
  965MOL0     C27290  -1.032  10.530   0.206 -0.0420 -0.3873  0.5443
  965MOL0     C27291  -1.183  10.498   0.158 -0.5161  0.4061  0.5137
  965MOL0    Cl27292  -1.290  10.456   0.303 -0.1310  0.0342  0.1382
  965MOL0     C27293  -0.158  10.599   0.457 -0.1785 -0.3242 -0.4122
  965MOL0     C27294  -0.028  10.651   0.472  0.6780  0.1213  0.9138
  965MOL0     O27295   0.325  10.458   0.576  0.6221 -1.0303  0.1779
  965MOL0     C27296   0.569  10.633   0.545  0.3973  0.2860  1.0652
  965MOL0     C27297   0.680  10.711   0.570 -0.4790  0.5929  0.0447
  965MOL0     N27298   1.352  11.166   0.563 -0.5766  0.4119  0.1380
  965MOL0     N27299   1.466  11.205   0.605 -0.5072 -0.2756  0.1837
  965MOL0     C27300   2.586  10.796   0.941  0.3035  0.2372  0.2623
  965MOL0     C27301   2.720  10.811   0.913  0.2830  0.7590  0.0995
  965MOL0     C27302   3.187  10.849   1.054 -0.2486  0.2161 -0.8960
  965MOL0     C27303   3.288  10.777   1.126  0.2393 -0.2124 -0.3876
  965MOL0     C27304   3.420  10.807   1.108 -0.1649  0.1455  0.1863
  965MOL0     C27305   3.455  10.917   1.030 -0.1566 -0.7471 -0.5150
  965MOL0     O27306   3.591  10.957   1.013  0.0247  0.9099  0.5516
  965MOL0     C27307   3.697  10.868   1.056 -0.4925 -0.6519  0.5893
  965MOL0     C27308   3.828  10.879   0.969  0.6188  0.2246 -0.3070
  965MOL0     C27309   3.906  11.004   1.004  0.6977  0.3138  0.5389
  965MOL0     C27310   3.979  11.004   1.137 -0.4732 -0.6561  0.8182
  965MOL0     C27311   4.072  10.900   1.126 -1.1503 -0.6105  0.1909
  965MOL0     C27312   4.155  10.815   1.123 -0.1522  0.0590 -0.1745
  965MOL0     C27313   3.361  11.003   0.982 -0.2323 -0.4113 -0.6438
  965MOL0     C27314   3.226  10.968   0.991  0.6672 -0.1985 -0.5004
  965MOL0     H27315   2.832  10.904   1.214 -1.5060  0.6106  0.3099
  965MOL0     H27316   2.583  10.881   1.256 -2.6721 -0.0589 -0.7604
  965MOL0     H27317   2.206  10.820   1.079 -2.4050 -2.1376 -1.8920
  965MOL0     H27318   2.305  10.728   0.961 -0.4067  0.5662  0.3859
  965MOL0     H27319   2.350  10.932   0.834 -0.5132 -0.2644 -0.6040
  965MOL0     H27320   2.288  11.030   0.971  1.3059  0.1485 -0.4210
  965MOL0     H27321   2.080  10.977   0.946  1.8682 -1.1751  2.1091
  965MOL0     H27322   2.115  10.833   0.829 -0.9466  1.5994 -4.2195
  965MOL0     H27323   2.142  11.122   0.769 -1.4303  0.7491 -3.3076
  965MOL0     H27324   2.195  10.990   0.670 -0.2339  1.5016 -1.5047
  965MOL0     H27325   1.965  10.908   0.628  3.7644 -0.2689 -0.9412
  965MOL0     H27326   1.989  11.058   0.569 -2.3941 -1.3135 -1.3567
  965MOL0     H27327   1.884  11.167   0.773 -0.1332  1.2960 -2.3991
  965MOL0     H27328   1.869  11.020   0.865  1.7260  3.2086  0.3482
  965MOL0     H27329   1.730  11.066   0.598 -0.9412  1.1411  0.6426
  965MOL0     H27330   1.681  10.949   0.734 -0.6368 -0.0304 -1.1583
  965MOL0     H27331   1.666  11.250   0.760 -1.1850 -0.1866  0.5368
  965MOL0     H27332   1.641  11.129   0.883  1.2065  0.1041  0.3775
  965MOL0     H27333   1.420  10.950   0.801 -4.1110 -0.6504  0.2315
  965MOL0     H27334   1.191  10.902   0.702 -2.7629  1.7946 -0.2669
  965MOL0     H27335   1.269  10.883   0.540  1.2844  1.5521 -1.8914
  965MOL0     H27336   1.134  11.048   0.438  1.1806  1.5312  0.2232
  965MOL0     H27337   1.075  11.113   0.584 -2.1463 -1.1090 -0.2983
  965MOL0     H27338   0.896  10.994   0.479  1.2414 -1.0801 -3.0940
  965MOL0     H27339   0.980  10.847   0.449  0.5443 -1.4927  0.9161
  965MOL0     H27340   0.962  10.902   0.745 -0.9016  1.3503  0.1944
  965MOL0     H27341   0.906  10.763   0.654  0.0795  0.0980  2.2590
  965MOL0     H27342   0.530  10.980   0.708 -0.8138  0.3818  0.9990
  965MOL0     H27343   0.317  10.834   0.668 -0.7786 -1.0129  0.8286
  965MOL0     H27344   0.104  10.426   0.692  0.0400 -0.9299 -1.6153
  965MOL0     H27345  -0.122  10.344   0.690 -1.5291  0.2510 -1.2748
  965MOL0     H27346  -0.273  10.276   0.438 -1.7362 -1.8363 -1.6885
  965MOL0     H27347  -0.328  10.404   0.319 -0.2258 -1.4309 -0.6022
  965MOL0     H27348  -0.517  10.277   0.517 -0.6756 -1.3395  0.3920
  965MOL0     H27349  -0.507  10.223   0.348  0.4918 -0.6781  0.3578
  965MOL0     H27350  -0.553  10.463   0.279  0.9458  1.5648  1.3952
  965MOL0     H27351  -0.589  10.494   0.443  1.4989 -0.4684  0.2189
  965MOL0     H27352  -0.736  10.278   0.286 -1.7704  0.3044 -0.7313
  965MOL0     H27353  -0.738  10.317   0.465  1.8683  1.6810  0.4218
  965MOL0     H27354  -0.774  10.520   0.257  1.5440 -3.7798 -1.8765
  965MOL0     H27355  -0.858  10.519   0.423 -0.6281 -3.8955  2.5823
  965MOL0     H27356  -1.017  10.383   0.363 -0.2260 -0.1272 -0.7240
  965MOL0     H27357  -0.949  10.335   0.197 -2.0153  1.1333 -1.2678
  965MOL0     H27358  -1.019  10.621   0.264 -1.6691 -0.9040  1.7967
  965MOL0     H27359  -0.975  10.566   0.120 -0.7231 -3.0230 -1.1476
  965MOL0     H27360  -1.190  10.413   0.090 -0.0144  0.6193  0.1904
  965MOL0     H27361  -1.224  10.583   0.103 -1.3565 -0.1117  0.3287
  965MOL0     H27362  -0.233  10.635   0.388 -0.7757  0.9169  0.8397
  965MOL0     H27363  -0.006  10.741   0.415  0.0432  0.1206  0.6620
  965MOL0     H27364   0.559  10.546   0.481  0.5370 -0.3112  1.8476
  965MOL0     H27365   0.771  10.661   0.539  0.4335  0.3697  2.8601
  965MOL0     H27366   2.523  10.755   0.862  1.7518  0.2294 -0.9292
  965MOL0     H27367   2.756  10.783   0.815  1.2205  0.5699  0.4889
  965MOL0     H27368   3.248  10.703   1.195 -1.2068 -1.1013 -2.0688
  965MOL0     H27369   3.500  10.758   1.162  0.3024 -0.6653 -1.1837
  965MOL0     H27370   3.673  10.762   1.039 -0.3553 -0.7855  1.1747
  965MOL0     H27371   3.713  10.876   1.164 -2.7710 -0.5802  0.9638
  965MOL0     H27372   3.884  10.786   0.988 -2.8806 -1.4359  3.1770
  965MOL0     H27373   3.801  10.886   0.863  4.7388  1.5072 -1.4808
  965MOL0     H27374   3.836  11.089   1.007 -0.0570 -0.1455 -1.8687
  965MOL0     H27375   3.980  11.042   0.933  0.5771  0.6124  0.5672
  965MOL0     H27376   4.019  11.105   1.151  1.8188 -1.5635  1.4257
  965MOL0     H27377   3.912  10.968   1.216 -3.4030 -2.4770 -2.2382
  965MOL0     H27378   4.223  10.733   1.119 -1.4387 -1.0202 -1.0453
  965MOL0     H27379   3.380  11.103   0.943 -3.9726  1.4268  1.6801
  965MOL0     H27380   3.160  11.028   0.929  2.1640 -1.4740 -3.5036
  966MOL0     O27381  10.424  10.359   5.485  0.0404  0.9495  0.3142
  966MOL0     C27382  10.398  10.298   5.587 -0.5412 -0.6184 -0.1739
  966MOL0     O27383  10.496  10.290   5.695  0.4053  0.9208  0.4953
  966MOL0     C27384  10.607  10.358   5.682  0.1990 -0.4310  0.4884
  966MOL0     C27385  10.640  10.441   5.789  0.3960  0.2851  0.2079
  966MOL0     C27386  10.762  10.501   5.791  0.2463 -0.7206  0.5293
  966MOL0     C27387  10.851  10.496   5.677 -0.4544  0.6380  0.9073
  966MOL0     O27388  10.973  10.561   5.674  0.5966  0.3029  0.9849
  966MOL0     C27389  11.062  10.540   5.787  0.5163 -0.8331 -1.0462
  966MOL0     C27390  11.147  10.423   5.771  0.3364  0.8764 -1.4414
  966MOL0     C27391  11.208  10.406   5.637  0.7741 -0.6863 -0.5461
  966MOL0     C27392  11.301  10.288   5.631  0.1029 -0.7891  0.0441
  966MOL0     C27393  11.424  10.298   5.727 -0.1752 -0.7661  0.5696
  966MOL0     C27394  11.504  10.419   5.679 -0.2360  0.6049  0.6540
  966MOL0     C27395  11.622  10.449   5.786  0.3077 -0.3581 -0.4610
  966MOL0     C27396  11.579  10.530   5.910  0.5196 -0.8086  0.9487
  966MOL0     N27397  11.535  10.447   6.026 -0.0604  0.2755 -0.3579
  966MOL0     C27398  11.420  10.458   6.098  0.7736  0.9220 -0.2164
  966MOL0     C27399  11.433  10.363   6.190 -0.0033 -0.4772  0.4653
  966MOL0     C27400  11.342  10.335   6.308 -0.0786  0.1991 -0.3069
  966MOL0     C27401  11.218  10.264   6.266 -0.2085  0.6403 -0.4719
  966MOL0     C27402  11.236  10.120   6.228 -0.0639 -0.4018  0.2469
  966MOL0     C27403  11.123  10.030   6.183 -0.4758 -0.0729  0.4768
  966MOL0     O27404  11.054  10.097   6.078 -0.7265 -1.0174 -0.6061
  966MOL0     C27405  10.944  10.034   6.027 -0.8337 -0.3048  0.0041
  966MOL0     C27406  10.874  10.110   5.934  0.7381 -0.5025 -0.0494
  966MOL0     C27407  10.759  10.063   5.867  0.1581  0.1287  0.6563
  966MOL0     C27408  10.724   9.931   5.876  0.0503 -0.2477 -0.0311
  966MOL0     C27409  10.597   9.889   5.818  0.5285 -0.8570 -0.2237
  966MOL0     O27410  10.524   9.817   5.899  0.0194 -0.1790 -0.2672
  966MOL0     C27411  10.407   9.781   5.849 -0.2753 -0.1572  0.7829
  966MOL0     C27412  10.299   9.859   5.799 -0.3643 -0.3501  0.1057
  966MOL0     C27413  10.180   9.802   5.752 -0.5271 -0.4037 -0.7512
  966MOL0     C27414  10.165   9.664   5.746  0.5395 -0.1374 -0.4593
  966MOL0     O27415  10.045   9.606   5.702 -0.0006 -0.0457 -0.4225
  966MOL0     C27416  10.016   9.594   5.566 -0.1564  0.4190  0.8303
  966MOL0     C27417   9.890   9.517   5.520 -0.9876  0.4533 -0.3300
  966MOL0     C27418   9.862   9.393   5.596 -0.9501  0.0904 -0.3717
  966MOL0     C27419   9.727   9.321   5.561 -0.0443 -0.3726  0.4438
  966MOL0     C27420   9.702   9.192   5.654  0.2214 -0.8711  0.0611
  966MOL0     C27421   9.588   9.108   5.609  0.8255 -0.0527  0.6247
  966MOL0     C27422   9.560   8.989   5.697  0.9869  0.7596  0.2471
  966MOL0     C27423   9.416   8.941   5.661 -0.1796 -0.7795 -0.0538
  966MOL0    Cl27424   9.406   8.763   5.690  0.1248  0.2797  0.2027
  966MOL0     C27425  10.271   9.586   5.794 -0.4209  0.7137 -0.4921
  966MOL0     C27426  10.389   9.643   5.839 -0.2148  0.3120  0.5650
  966MOL0     O27427  10.564   9.929   5.702 -0.1222  0.0773 -0.7162
  966MOL0     C27428  10.801   9.847   5.955  0.2404 -0.0449  0.1776
  966MOL0     C27429  10.911   9.898   6.024 -0.2317  0.8400  0.4371
  966MOL0     N27430  11.549  10.279   6.168  1.0892  0.3258  0.0902
  966MOL0     N27431  11.605  10.339   6.065 -0.0554 -0.4529  0.3910
  966MOL0     C27432  10.819  10.419   5.570  0.3990 -0.3698  0.1780
  966MOL0     C27433  10.699  10.340   5.577 -0.7305 -0.1141  0.2315
  966MOL0     C27434  10.267  10.243   5.607  0.0868  0.5124  0.6852
  966MOL0     C27435  10.227  10.223   5.737 -0.0537 -0.3648 -0.2189
  966MOL0     C27436  10.091  10.182   5.765 -0.3206 -0.0883  0.2719
  966MOL0     C27437  10.001  10.156   5.658 -0.3604  0.6548  0.2134
  966MOL0     O27438   9.877  10.100   5.661  0.3210  0.2256  0.0342
  966MOL0     C27439   9.834  10.056   5.792  0.2265 -0.8289 -0.2811
  966MOL0     C27440   9.693  10.004   5.790 -0.1304 -0.8768  0.5571
  966MOL0     C27441   9.657   9.932   5.928  0.0194  0.0003 -0.2435
  966MOL0     C27442   9.604  10.021   6.048 -0.1600 -0.2640 -0.6321
  966MOL0     C27443   9.608   9.934   6.172  0.8866  0.3851  0.1682
  966MOL0     C27444   9.604   9.867   6.278  0.1111  0.4190 -0.1814
  966MOL0     C27445  10.049  10.170   5.526  0.2812  0.2485  0.2377
  966MOL0     C27446  10.185  10.213   5.503  0.3605 -0.0744  0.7836
  966MOL0     H27447  10.566  10.448   5.868  0.9326  1.1823  0.6475
  966MOL0     H27448  10.782  10.561   5.879 -1.7536  2.6362 -1.1154
  966MOL0     H27449  10.998  10.536   5.876 -2.2023 -0.8552 -2.8813
  966MOL0     H27450  11.131  10.624   5.787 -0.7161  0.5502  4.0751
  966MOL0     H27451  11.081  10.336   5.782 -2.0494  2.5946 -1.4507
  966MOL0     H27452  11.224  10.419   5.848  0.3772  2.2764 -1.3933
  966MOL0     H27453  11.256  10.500   5.611  0.6979 -0.7532 -0.9287
  966MOL0     H27454  11.121  10.399   5.571 -1.2574  1.4057  1.6849
  966MOL0     H27455  11.247  10.194   5.648 -0.0308 -1.3262 -2.8234
  966MOL0     H27456  11.341  10.282   5.529  0.3041  0.9277 -0.0080
  966MOL0     H27457  11.483  10.206   5.718 -1.7558 -2.0289  2.2669
  966MOL0     H27458  11.397  10.307   5.832 -0.6286 -3.1736  0.7233
  966MOL0     H27459  11.451  10.513   5.663  0.4441  1.5709  3.5716
  966MOL0     H27460  11.559  10.397   5.587  0.9180  0.5394  1.3445
  966MOL0     H27461  11.672  10.357   5.818  0.1221 -1.1469 -2.3240
  966MOL0     H27462  11.689  10.519   5.737  0.4402  1.0995  1.6750
  966MOL0     H27463  11.496  10.599   5.892 -0.1100 -1.8226 -0.2008
  966MOL0     H27464  11.668  10.592   5.924 -0.6848  0.7378  2.0905
  966MOL0     H27465  11.334  10.524   6.093  0.0166 -0.1401 -2.5266
  966MOL0     H27466  11.298  10.431   6.333 -1.9776 -0.3741 -1.2743
  966MOL0     H27467  11.396  10.288   6.391  1.4567  2.6806  0.1880
  966MOL0     H27468  11.177  10.329   6.187 -0.9891  2.5500  1.3936
  966MOL0     H27469  11.150  10.268   6.352 -1.2830 -0.1644 -1.2454
  966MOL0     H27470  11.324  10.116   6.163  0.9257 -1.2592  1.5795
  966MOL0     H27471  11.257  10.066   6.321 -3.2564  1.0091  1.9116
  966MOL0     H27472  11.068  10.023   6.278  0.8106  1.7687  1.4232
  966MOL0     H27473  11.165   9.936   6.147  2.6863  2.4260 -3.0477
  966MOL0     H27474  10.904  10.213   5.924  0.4215  0.0787  3.5845
  966MOL0     H27475  10.699  10.132   5.808  0.5490 -0.2353 -0.1853
  966MOL0     H27476  10.301   9.968   5.806  0.5565 -0.3976  0.6516
  966MOL0     H27477  10.106   9.872   5.715  1.9056  2.2791 -0.8842
  966MOL0     H27478  10.105   9.544   5.525 -2.2047 -0.8724 -2.4429
  966MOL0     H27479  10.013   9.694   5.522  0.8675  0.8514  1.6944
  966MOL0     H27480   9.912   9.498   5.415  3.8792  2.5932  0.0415
  966MOL0     H27481   9.800   9.577   5.538 -0.9560  0.4637 -0.2112
  966MOL0     H27482   9.870   9.408   5.704 -0.1277 -0.1556 -0.3944
  966MOL0     H27483   9.942   9.320   5.580 -0.3257  0.6946 -0.0302
  966MOL0     H27484   9.651   9.395   5.586  0.6924  1.0961 -1.4227
  966MOL0     H27485   9.730   9.288   5.457  1.1468  1.8644 -0.3005
  966MOL0     H27486   9.675   9.218   5.757 -0.2193 -3.4551  0.6583
  966MOL0     H27487   9.794   9.133   5.649 -0.6843 -2.4011  0.6192
  966MOL0     H27488   9.590   9.081   5.503  3.4551  3.1265 -0.3125
  966MOL0     H27489   9.507   9.181   5.617  1.0656  0.1500  1.2477
  966MOL0     H27490   9.622   8.900   5.684 -1.4893 -0.7677 -2.1790
  966MOL0     H27491   9.579   9.019   5.801 -1.2198  0.3169  0.8345
  966MOL0     H27492   9.395   8.969   5.557 -1.0373 -3.6800 -0.7572
  966MOL0     H27493   9.336   8.986   5.721 -0.9706 -0.2812 -1.4488
  966MOL0     H27494  10.255   9.479   5.787  0.6842  0.4904  0.0219
  966MOL0     H27495  10.474   9.584   5.872  0.5326  1.0084 -0.0393
  966MOL0     H27496  10.770   9.743   5.962 -1.2828  0.1181 -2.6047
  966MOL0     H27497  10.954   9.825   6.092 -0.9827  0.5457  0.6067
  966MOL0     H27498  10.884  10.420   5.483 -0.0859  0.4548 -0.1810
  966MOL0     H27499  10.670  10.278   5.493  2.2946  0.9064 -1.7751
  966MOL0     H27500  10.303  10.232   5.814  1.0725 -4.8524 -0.5025
  966MOL0     H27501  10.065  10.181   5.871  0.3168 -1.2051  0.4311
  966MOL0     H27502   9.830  10.141   5.860  0.3585 -1.0738  0.0347
  966MOL0     H27503   9.900   9.979   5.835  4.0709  1.8310 -0.8838
  966MOL0     H27504   9.625  10.084   5.759  1.2445 -1.0256 -3.4606
  966MOL0     H27505   9.683   9.933   5.707 -0.1032 -0.1695 -0.0668
  966MOL0     H27506   9.745   9.881   5.970 -0.3527  1.3377  2.3574
  966MOL0     H27507   9.568   9.870   5.916 -1.5045  2.0966 -0.3162
  966MOL0     H27508   9.660  10.110   6.080 -0.4179 -0.3672  0.1241
  966MOL0     H27509   9.505  10.059   6.022 -0.1265 -0.3888 -0.9509
  966MOL0     H27510   9.599   9.813   6.370  0.6621 -1.7124 -1.3208
  966MOL0     H27511   9.989  10.156   5.437 -1.9317  4.3547  0.8336
  966MOL0     H27512  10.214  10.247   5.404 -0.5226 -1.9027 -0.1514
  967MOL0     O27513   6.419   5.418   8.609  0.3552  0.0178  0.2227
  967MOL0     C27514   6.499   5.338   8.649 -0.0691 -1.4768  0.0486
  967MOL0     O27515   6.488   5.256   8.754  0.0507 -0.4709 -1.2033
  967MOL0     C27516   6.366   5.250   8.816  1.0902  0.0177  0.0388
  967MOL0     C27517   6.354   5.231   8.950 -0.8837  0.3319  0.0271
  967MOL0     C27518   6.224   5.221   9.012  1.0419 -0.7633 -1.2435
  967MOL0     C27519   6.100   5.227   8.946  0.1693 -0.2126 -1.0490
  967MOL0     O27520   5.984   5.241   9.023 -0.2937  0.2077 -0.7979
  967MOL0     C27521   5.859   5.273   8.968  0.0759 -0.3217 -0.4443
  967MOL0     C27522   5.751   5.277   9.076 -0.5724  0.0222 -0.4007
  967MOL0     C27523   5.712   5.132   9.125  0.0432 -0.4186 -0.5809
  967MOL0     C27524   5.568   5.132   9.186 -0.6310 -0.2121 -0.7069
  967MOL0     C27525   5.555   5.199   9.321 -0.0283  0.5331  0.0224
  967MOL0     C27526   5.405   5.220   9.365  0.4485  0.7037  0.4899
  967MOL0     C27527   5.308   5.107   9.350 -1.0303  1.0139  0.1036
  967MOL0     C27528   5.164   5.149   9.370 -0.3395 -0.5247 -0.0869
  967MOL0     N27529   5.115   5.095   9.502 -0.2577  0.4187  0.4733
  967MOL0     C27530   5.148   5.144   9.625  0.8091  0.2748 -0.3581
  967MOL0     C27531   5.110   5.052   9.720 -0.1924 -0.6893  0.0628
  967MOL0     C27532   5.122   5.049   9.866  0.2120 -0.7060  0.4230
  967MOL0     C27533   5.146   4.908   9.912 -0.2275 -0.2197  0.1900
  967MOL0     C27534   5.186   4.898  10.072  0.0792 -0.6297  0.4678
  967MOL0     C27535   5.338   4.895  10.094 -1.0305 -0.3837  1.5600
  967MOL0     O27536   5.408   5.016  10.073  0.0973  0.0536 -0.8463
  967MOL0     C27537   5.541   5.000  10.059 -0.0290 -0.6860 -0.3569
  967MOL0     C27538   5.601   5.031   9.939 -0.0296 -0.4764  0.1882
  967MOL0     C27539   5.742   5.027   9.919  0.1737  0.3401  0.0365
  967MOL0     C27540   5.826   4.995  10.028  1.0450 -0.4901 -0.1025
  967MOL0     C27541   5.977   4.983  10.011 -0.0531 -0.9436  0.5143
  967MOL0     O27542   6.025   4.996   9.884 -0.0386  0.5860 -0.1122
  967MOL0     C27543   6.154   5.037   9.848 -0.2434  0.8703 -0.2114
  967MOL0     C27544   6.177   5.044   9.707 -0.5977  0.5225  0.3707
  967MOL0     C27545   6.299   5.092   9.659 -0.0227  0.2614 -0.4538
  967MOL0     C27546   6.403   5.118   9.740  0.0608  0.0097  0.4424
  967MOL0     O27547   6.525   5.149   9.677 -0.0561 -0.4265 -0.5101
  967MOL0     C27548   6.645   5.142   9.747 -0.0103 -0.2235 -0.5644
  967MOL0     C27549   6.752   5.187   9.653  0.3394 -0.3943 -0.3014
  967MOL0     C27550   6.893   5.203   9.726 -0.1334 -0.2222 -0.2558
  967MOL0     C27551   7.006   5.235   9.637  0.4226 -0.1407  0.4829
  967MOL0     C27552   7.148   5.237   9.696  0.4800 -0.9111 -0.7222
  967MOL0     C27553   7.190   5.101   9.758  0.1366 -0.5434  0.7262
  967MOL0     C27554   7.336   5.104   9.782 -0.0177 -0.8862 -0.1286
  967MOL0     C27555   7.366   4.962   9.843  0.4437 -0.9199 -0.1359
  967MOL0    Cl27556   7.537   4.916   9.846 -0.2379 -0.7583  0.3728
  967MOL0     C27557   6.390   5.091   9.880 -1.0557  1.1317  0.1653
  967MOL0     C27558   6.267   5.057   9.935  0.4483 -0.3361 -0.7934
  967MOL0     O27559   6.047   4.962  10.106  0.2178  1.0846 -0.5167
  967MOL0     C27560   5.763   4.943  10.139 -0.3125  0.5354  0.2952
  967MOL0     C27561   5.629   4.954  10.157 -0.2239 -0.3104  0.2975
  967MOL0     N27562   5.037   4.960   9.657  0.1099  0.4218  0.3833
  967MOL0     N27563   5.042   4.986   9.528 -1.1267 -0.6867  0.7308
  967MOL0     C27564   6.115   5.241   8.813 -0.1510 -0.4936  0.0279
  967MOL0     C27565   6.242   5.253   8.752  0.2112  0.7488 -0.0654
  967MOL0     C27566   6.617   5.323   8.564  0.2152  0.5597  0.4328
  967MOL0     C27567   6.728   5.258   8.624  0.1166 -0.2901 -0.1447
  967MOL0     C27568   6.846   5.253   8.547  0.8534  0.7352  0.4770
  967MOL0     C27569   6.873   5.321   8.425 -0.3027 -0.4430  0.2775
  967MOL0     O27570   6.998   5.325   8.388  0.2060  0.3714  0.0469
  967MOL0     C27571   7.023   5.358   8.253  0.0178  0.2172 -1.3038
  967MOL0     C27572   6.974   5.263   8.146 -0.5986  0.6085  0.0020
  967MOL0     C27573   7.052   5.128   8.158 -0.1038 -0.5053  0.7099
  967MOL0     C27574   6.947   5.016   8.183 -0.4010 -0.2196 -0.2901
  967MOL0     C27575   7.026   4.894   8.195 -0.7664  0.8591 -0.1849
  967MOL0     C27576   7.100   4.794   8.180 -0.4657 -0.1885 -0.7694
  967MOL0     C27577   6.762   5.394   8.376  0.4948  1.5930  0.7701
  967MOL0     C27578   6.633   5.387   8.432  0.2315  0.3456 -0.5277
  967MOL0     H27579   6.448   5.232   9.004 -2.4504  0.5270  2.9253
  967MOL0     H27580   6.228   5.209   9.120  1.1963 -2.3798 -1.4056
  967MOL0     H27581   5.832   5.200   8.891 -1.0740 -0.0213 -0.3418
  967MOL0     H27582   5.876   5.373   8.927 -1.8027 -0.4755 -1.7286
  967MOL0     H27583   5.659   5.326   9.041  0.4290  3.3110  1.1538
  967MOL0     H27584   5.800   5.333   9.156  1.4262 -2.7507  0.4829
  967MOL0     H27585   5.787   5.096   9.195 -0.9784 -3.8122 -1.0453
  967MOL0     H27586   5.709   5.056   9.046  0.2231  0.0814 -1.0723
  967MOL0     H27587   5.500   5.185   9.118 -0.6347  1.3851  0.5072
  967MOL0     H27588   5.536   5.030   9.208  0.4286  0.0115  2.2570
  967MOL0     H27589   5.594   5.301   9.321 -0.0477  0.5400 -0.2432
  967MOL0     H27590   5.604   5.128   9.388  0.9127  1.5136  0.3849
  967MOL0     H27591   5.365   5.305   9.308  0.1106  0.8008  0.8690
  967MOL0     H27592   5.409   5.253   9.469 -0.9932 -0.7188  1.0440
  967MOL0     H27593   5.314   5.075   9.246 -0.3561 -2.2352  1.0382
  967MOL0     H27594   5.329   5.017   9.408 -0.2903  0.0654 -1.5835
  967MOL0     H27595   5.110   5.114   9.282 -2.3743  1.7247  0.1657
  967MOL0     H27596   5.158   5.257   9.386 -2.2910 -0.7481  0.9757
  967MOL0     H27597   5.204   5.233   9.653  2.6436 -0.6853 -0.8015
  967MOL0     H27598   5.023   5.082   9.901  0.4515 -0.8647  1.2639
  967MOL0     H27599   5.192   5.123   9.905 -1.4434  1.2625 -0.1621
  967MOL0     H27600   5.222   4.856   9.854  0.1762  0.0947  0.4368
  967MOL0     H27601   5.052   4.853   9.897 -1.5373  1.0514  3.0192
  967MOL0     H27602   5.142   4.980  10.130  1.4843 -1.4462  2.8123
  967MOL0     H27603   5.139   4.805  10.104 -1.7709  0.3576  0.7965
  967MOL0     H27604   5.382   4.812  10.037 -0.4752  0.8741  0.0569
  967MOL0     H27605   5.353   4.860  10.196  1.5138 -1.5618  0.8551
  967MOL0     H27606   5.528   5.069   9.868  0.2579 -1.1255 -0.4743
  967MOL0     H27607   5.778   5.061   9.823 -3.0660  1.1139 -1.0065
  967MOL0     H27608   6.092   5.044   9.639  0.8694 -3.7191 -1.8576
  967MOL0     H27609   6.322   5.092   9.553  1.1308 -3.7840 -0.4038
  967MOL0     H27610   6.665   5.042   9.787  2.1767  1.7529  3.9854
  967MOL0     H27611   6.644   5.218   9.826  1.1795  1.1188 -1.7722
  967MOL0     H27612   6.730   5.283   9.605  2.2538  0.2094 -0.0790
  967MOL0     H27613   6.766   5.115   9.573  1.0914  0.4592 -0.9600
  967MOL0     H27614   6.926   5.108   9.768 -2.7803 -1.1539 -0.1486
  967MOL0     H27615   6.885   5.276   9.807 -2.4268 -3.0332  2.2305
  967MOL0     H27616   7.009   5.168   9.551 -1.4570  1.6677 -1.1013
  967MOL0     H27617   6.971   5.320   9.578 -2.0516 -1.3588  0.0537
  967MOL0     H27618   7.157   5.313   9.774 -1.4813 -1.6961  0.3474
  967MOL0     H27619   7.215   5.259   9.612  1.2281  1.5248  0.4360
  967MOL0     H27620   7.169   5.017   9.692  1.7382 -1.6431  1.5504
  967MOL0     H27621   7.127   5.089   9.846 -1.0981 -0.0653 -0.0662
  967MOL0     H27622   7.400   5.122   9.696 -0.1623  2.2674  0.3106
  967MOL0     H27623   7.357   5.185   9.853 -2.2114 -0.6731  0.3389
  967MOL0     H27624   7.320   4.885   9.781  1.5796  0.1773 -2.4530
  967MOL0     H27625   7.326   4.945   9.944  0.4125 -1.8624 -0.2917
  967MOL0     H27626   6.478   5.114   9.939  0.3364 -0.6334 -1.0862
  967MOL0     H27627   6.263   5.058  10.043  1.2720 -2.1599 -0.7155
  967MOL0     H27628   5.825   4.894  10.213 -1.0050  0.0030  0.5350
  967MOL0     H27629   5.599   4.921  10.256  0.1908  2.2822  1.3813
  967MOL0     H27630   6.024   5.242   8.755  0.1133 -2.7671 -0.5469
  967MOL0     H27631   6.244   5.258   8.643  0.8021 -0.6849 -0.1374
  967MOL0     H27632   6.738   5.215   8.723  3.5735 -3.6959 -1.6762
  967MOL0     H27633   6.925   5.203   8.602  0.9232  0.8536  0.4863
  967MOL0     H27634   7.130   5.375   8.244 -0.0235  0.3530 -1.5355
  967MOL0     H27635   6.975   5.457   8.249  0.5002  0.5026 -0.3969
  967MOL0     H27636   6.866   5.246   8.142 -0.6464  0.3190  1.6691
  967MOL0     H27637   7.007   5.321   8.059  1.7991  0.7106  0.9041
  967MOL0     H27638   7.130   5.138   8.235  0.6314  0.7559 -0.1593
  967MOL0     H27639   7.096   5.119   8.059  0.6489 -1.2510  1.1045
  967MOL0     H27640   6.904   5.028   8.283 -0.3769  1.9572 -0.4816
  967MOL0     H27641   6.864   5.007   8.113  0.1838 -0.2020 -0.9942
  967MOL0     H27642   7.167   4.710   8.175  2.3111  1.6965  1.3976
  967MOL0     H27643   6.774   5.447   8.282 -0.3573  0.3600 -0.0622
  967MOL0     H27644   6.551   5.441   8.387 -1.0247 -1.2088 -0.2244
  968MOL0     O27645   8.536   3.351  11.211  0.2942  0.4662 -0.1620
  968MOL0     C27646   8.528   3.471  11.217  0.5516 -0.3305 -0.5574
  968MOL0     O27647   8.619   3.562  11.275 -0.2550  0.1162 -0.5950
  968MOL0     C27648   8.742   3.514  11.314 -0.4605 -0.4031  1.2965
  968MOL0     C27649   8.820   3.438  11.226  1.1365  0.5080 -0.0594
  968MOL0     C27650   8.943   3.375  11.265  0.3713 -1.4478 -0.1208
  968MOL0     C27651   8.990   3.402  11.394 -0.3341  0.1340 -0.4583
  968MOL0     O27652   9.110   3.357  11.445  0.1410  0.0340 -1.0175
  968MOL0     C27653   9.139   3.230  11.404 -0.3485 -0.0217 -0.2261
  968MOL0     C27654   9.223   3.156  11.514 -1.0469 -1.2108  0.1324
  968MOL0     C27655   9.374   3.160  11.489  0.1481 -0.1637  0.1614
  968MOL0     C27656   9.472   3.072  11.578  0.0552  0.2682 -0.3424
  968MOL0     C27657   9.553   3.157  11.674  0.2431 -0.4840 -0.4994
  968MOL0     C27658   9.673   3.079  11.713 -0.4503  0.0190 -0.1544
  968MOL0     C27659   9.724   3.127  11.845  0.2817  0.0776 -0.7471
  968MOL0     C27660   9.869   3.074  11.873 -0.3437 -0.7348 -0.0808
  968MOL0     N27661   9.925   3.149  11.984  0.3798  0.7767  0.6367
  968MOL0     C27662  10.061   3.168  12.013  0.7773 -0.3796  0.8641
  968MOL0     C27663  10.059   3.234  12.132 -0.9709  0.8069  0.5604
  968MOL0     C27664  10.178   3.310  12.204 -0.4319 -0.0625  0.0228
  968MOL0     C27665  10.260   3.215  12.291  0.3248  0.3718 -0.0571
  968MOL0     C27666  10.389   3.285  12.335  0.1957  0.0986  0.5572
  968MOL0     C27667  10.500   3.195  12.293 -0.3490 -0.4931  0.0265
  968MOL0     O27668  10.617   3.249  12.354  1.1424 -0.4788  0.4079
  968MOL0     C27669  10.739   3.195  12.330  0.6391  0.1382 -0.0248
  968MOL0     C27670  10.768   3.098  12.236  0.5399  0.5783  0.3372
  968MOL0     C27671  10.908   3.070  12.202 -0.6636  0.1139  0.3561
  968MOL0     C27672  11.006   3.123  12.285  0.3103  0.4472  0.2976
  968MOL0     C27673  11.145   3.096  12.259  0.5949  0.2259 -1.1611
  968MOL0     O27674  11.222   3.066  12.360  1.0841 -0.3277 -0.5432
  968MOL0     C27675  11.360   3.054  12.350  0.1788 -0.3702  0.1597
  968MOL0     C27676  11.433   2.994  12.248  0.0184 -0.8132  0.1796
  968MOL0     C27677  11.571   2.996  12.240 -0.6566  0.5848 -0.3751
  968MOL0     C27678  11.649   3.043  12.355  0.3076  0.4185  0.1230
  968MOL0     O27679  11.782   3.033  12.351  0.1142 -0.1160  0.0965
  968MOL0     C27680  11.839   3.035  12.479  0.2247 -0.4087 -0.0288
  968MOL0     C27681  11.985   2.997  12.464 -0.4240  0.7908 -0.1007
  968MOL0     C27682  12.073   2.970  12.589  0.3526 -0.2886  0.4009
  968MOL0     C27683  12.194   2.896  12.541 -0.2966  0.3300  0.0033
  968MOL0     C27684  12.299   2.909  12.642 -0.1319 -0.0847  0.4166
  968MOL0     C27685  12.424   2.843  12.591 -0.5083 -0.6089  0.4742
  968MOL0     C27686  12.536   2.848  12.692  0.0368 -0.7240  0.2501
  968MOL0     C27687  12.667   2.854  12.619 -0.3612 -0.9739 -0.8725
  968MOL0    Cl27688  12.706   3.024  12.583 -0.2916 -0.1703  0.2019
  968MOL0     C27689  11.574   3.102  12.459  0.6043 -0.4779 -0.4776
  968MOL0     C27690  11.430   3.102  12.459  0.2121 -0.7050 -0.0719
  968MOL0     O27691  11.185   3.115  12.146  0.5329  1.1332  0.4496
  968MOL0     C27692  10.968   3.218  12.388  0.4260  0.0793  0.4736
  968MOL0     C27693  10.837   3.249  12.413 -0.8926 -0.1263  0.2409
  968MOL0     N27694   9.927   3.270  12.160 -0.5057  0.3629  1.0389
  968MOL0     N27695   9.851   3.211  12.078 -0.8269 -1.0315  0.0589
  968MOL0     C27696   8.907   3.476  11.482  0.7378  0.0515  0.5213
  968MOL0     C27697   8.790   3.541  11.443  0.4647  0.3859 -0.2519
  968MOL0     C27698   8.416   3.518  11.136  0.3591 -0.8744  0.0085
  968MOL0     C27699   8.404   3.657  11.102  0.5100 -0.9755 -0.3405
  968MOL0     C27700   8.295   3.700  11.021 -0.3821 -0.6465 -0.1886
  968MOL0     C27701   8.194   3.610  10.991 -0.1213  0.2782  0.2480
  968MOL0     O27702   8.094   3.670  10.905  0.9049 -0.1360 -0.4109
  968MOL0     C27703   7.993   3.577  10.872 -0.5117  0.2314 -0.4532
  968MOL0     C27704   7.876   3.642  10.791  0.6975 -0.5425  0.3116
  968MOL0     C27705   7.735   3.570  10.821  0.2757  0.0657  0.2174
  968MOL0     C27706   7.649   3.622  10.938 -0.1948  0.6461  0.7389
  968MOL0     C27707   7.549   3.529  10.992 -0.4567  0.1586  0.7031
  968MOL0     C27708   7.453   3.470  11.030 -0.3647 -0.3386 -0.4883
  968MOL0     C27709   8.200   3.478  11.040  0.7453 -0.3415  1.3898
  968MOL0     C27710   8.313   3.432  11.104 -0.2808 -0.5327  0.0500
  968MOL0     H27711   8.774   3.423  11.129  2.6088  2.4187 -1.1274
  968MOL0     H27712   8.992   3.322  11.184 -1.4196 -3.5342  0.0637
  968MOL0     H27713   9.181   3.224  11.303  4.1131  0.5381  1.3862
  968MOL0     H27714   9.048   3.172  11.385  0.3189 -0.9919 -0.5542
  968MOL0     H27715   9.197   3.049  11.510 -0.1116 -1.4714  0.6776
  968MOL0     H27716   9.201   3.180  11.619  2.9144 -2.0547  1.3087
  968MOL0     H27717   9.404   3.265  11.485 -1.7486  0.3833 -0.6736
  968MOL0     H27718   9.386   3.117  11.389 -0.2854 -0.1349  0.0948
  968MOL0     H27719   9.405   3.000  11.625  0.7074  0.9054  1.6623
  968MOL0     H27720   9.546   3.030  11.510 -0.6590  1.1239 -1.7049
  968MOL0     H27721   9.484   3.174  11.757 -0.2622  2.4086 -1.4005
  968MOL0     H27722   9.592   3.247  11.625  0.4398 -0.5098 -0.3921
  968MOL0     H27723   9.755   3.103  11.645 -2.4958  3.1427 -1.7810
  968MOL0     H27724   9.653   2.973  11.734 -1.0319  0.2477  0.5061
  968MOL0     H27725   9.733   3.236  11.831  1.8257 -0.3437 -3.7460
  968MOL0     H27726   9.654   3.096  11.924 -0.8485  5.0288  0.5857
  968MOL0     H27727   9.932   3.100  11.787 -1.3312  2.0565 -0.0746
  968MOL0     H27728   9.882   2.966  11.886  2.2559 -0.3763  1.0050
  968MOL0     H27729  10.138   3.140  11.942  0.0627 -0.1644 -0.0218
  968MOL0     H27730  10.158   3.397  12.267 -2.5514 -0.5514  0.0865
  968MOL0     H27731  10.249   3.353  12.133 -1.2656  0.5230 -0.4641
  968MOL0     H27732  10.283   3.127  12.230 -1.0251 -1.2312  1.6372
  968MOL0     H27733  10.199   3.176  12.372 -3.3878  3.0088 -1.3433
  968MOL0     H27734  10.403   3.387  12.298  0.9586 -0.8973 -2.2271
  968MOL0     H27735  10.391   3.281  12.444  2.3625  1.6363  0.6296
  968MOL0     H27736  10.517   3.198  12.185 -0.9571 -2.2813 -0.1560
  968MOL0     H27737  10.493   3.092  12.330 -0.9278  0.7022  3.6590
  968MOL0     H27738  10.697   3.056  12.165  0.5630  1.1582 -0.0374
  968MOL0     H27739  10.932   3.008  12.116  0.5155  1.3878 -0.2673
  968MOL0     H27740  11.376   2.968  12.160  0.7851  2.7623 -1.5746
  968MOL0     H27741  11.615   2.947  12.153  1.2078 -2.5424  2.0977
  968MOL0     H27742  11.787   2.961  12.541  0.2215  0.1138  0.6036
  968MOL0     H27743  11.838   3.135  12.525  0.2616 -0.9618  1.2340
  968MOL0     H27744  12.029   3.076  12.402  0.8243 -0.2906 -0.6506
  968MOL0     H27745  11.991   2.908  12.400  4.6918 -1.1103  2.4305
  968MOL0     H27746  12.013   2.915  12.662 -1.5169  3.9747  2.4291
  968MOL0     H27747  12.099   3.061  12.645 -0.4008 -0.8246  1.6737
  968MOL0     H27748  12.175   2.790  12.527 -0.5400  0.1580  1.4515
  968MOL0     H27749  12.235   2.943  12.451 -2.4197  1.7767 -0.2848
  968MOL0     H27750  12.274   2.864  12.739  1.9874 -2.4510 -0.0084
  968MOL0     H27751  12.316   3.016  12.655 -0.8429  0.5133 -2.7558
  968MOL0     H27752  12.462   2.879  12.494 -0.4968  0.3248  0.8098
  968MOL0     H27753  12.399   2.740  12.566 -1.8255 -0.1448 -0.2004
  968MOL0     H27754  12.516   2.943  12.743 -2.3052  0.0099 -1.7867
  968MOL0     H27755  12.539   2.767  12.765  0.4836 -0.9962 -0.0624
  968MOL0     H27756  12.674   2.789  12.531 -0.4599 -1.2758 -0.6563
  968MOL0     H27757  12.749   2.827  12.687  0.2202  2.0253 -0.2388
  968MOL0     H27758  11.630   3.152  12.539  1.1577  0.4944 -1.4408
  968MOL0     H27759  11.382   3.150  12.544 -0.9583  2.5307 -2.3554
  968MOL0     H27760  11.041   3.272  12.447 -1.2155 -0.5999  3.3417
  968MOL0     H27761  10.804   3.329  12.479 -2.5987 -3.3098  3.6441
  968MOL0     H27762   8.946   3.482  11.583 -0.2265 -1.6272  1.0363
  968MOL0     H27763   8.748   3.610  11.515  3.6856  0.0748  2.1470
  968MOL0     H27764   8.479   3.723  11.145  1.6291 -3.7503  2.3763
  968MOL0     H27765   8.294   3.806  10.997  1.9614 -0.2880  0.9919
  968MOL0     H27766   7.960   3.529  10.965  0.0774  1.2606  0.3087
  968MOL0     H27767   8.047   3.502  10.812  2.9354  1.1083  1.2876
  968MOL0     H27768   7.872   3.750  10.810 -3.3267 -0.2207 -1.2722
  968MOL0     H27769   7.892   3.632  10.683  1.8674  0.5416  0.3604
  968MOL0     H27770   7.750   3.462  10.829 -0.5271 -0.0833 -0.1250
  968MOL0     H27771   7.675   3.598  10.734  0.1096  2.0157  0.9055
  968MOL0     H27772   7.719   3.663  11.012 -0.3495  3.4902 -0.5619
  968MOL0     H27773   7.600   3.716  10.913 -2.9552 -0.0851  2.8548
  968MOL0     H27774   7.373   3.411  11.071 -2.3851  3.9473  2.4849
  968MOL0     H27775   8.134   3.399  11.004 -0.1262 -0.4859  3.1954
  968MOL0     H27776   8.307   3.329  11.137 -0.8801 -1.6077 -3.0588
  969MOL0     O27777   4.914  10.444   7.389  0.1943 -0.6446 -0.2307
  969MOL0     C27778   4.886  10.329   7.369 -0.3523 -0.2960  0.3447
  969MOL0     O27779   4.772  10.269   7.416  0.0750  0.2879 -0.2224
  969MOL0     C27780   4.676  10.341   7.484  0.1065 -0.9645  0.1467
  969MOL0     C27781   4.544  10.352   7.441 -0.3538 -0.5189  0.6585
  969MOL0     C27782   4.449  10.422   7.514 -0.6658 -0.4843  0.1677
  969MOL0     C27783   4.482  10.465   7.653  0.5546 -0.8025 -0.7055
  969MOL0     O27784   4.401  10.497   7.754 -1.5938 -0.3043 -0.0185
  969MOL0     C27785   4.260  10.484   7.727 -0.7557 -0.6431 -0.0242
  969MOL0     C27786   4.183  10.506   7.862  0.1922  0.3316  0.3892
  969MOL0     C27787   4.211  10.393   7.965 -0.4469 -0.1955  0.2677
  969MOL0     C27788   4.133  10.407   8.085  0.3782  0.1411  0.3945
  969MOL0     C27789   4.039  10.286   8.105  0.3456  0.1847 -0.1387
  969MOL0     C27790   3.924  10.349   8.191 -0.0688  0.1763  0.3574
  969MOL0     C27791   3.827  10.234   8.219  0.1819  0.0153  0.1717
  969MOL0     C27792   3.698  10.290   8.282  0.2467  0.4135  0.0266
  969MOL0     N27793   3.647  10.203   8.392 -0.6354 -1.1469  0.3063
  969MOL0     C27794   3.722  10.136   8.486 -0.2295  0.5003 -0.4733
  969MOL0     C27795   3.634  10.104   8.587  0.0015  0.0200  0.6000
  969MOL0     C27796   3.656  10.032   8.715 -0.2545  1.1189 -0.2137
  969MOL0     C27797   3.737   9.904   8.678  0.4747  0.0022  0.1487
  969MOL0     C27798   3.727   9.791   8.778  0.2562  0.3706  0.0344
  969MOL0     C27799   3.793   9.820   8.916  0.3976 -0.3291 -0.6825
  969MOL0     O27800   3.932   9.793   8.908 -0.0483 -0.1458 -0.3523
  969MOL0     C27801   4.005   9.838   9.021 -0.6344 -0.5966  0.4472
  969MOL0     C27802   4.131   9.788   9.008 -0.4288  0.0508 -0.2331
  969MOL0     C27803   4.219   9.818   9.118 -0.1219  0.2372  0.3960
  969MOL0     C27804   4.182   9.892   9.234  0.3239 -0.0614 -0.9547
  969MOL0     C27805   4.285   9.918   9.333 -0.4329  0.1899 -0.7389
  969MOL0     O27806   4.416   9.931   9.294  0.4449 -0.0581 -0.2423
  969MOL0     C27807   4.508   9.983   9.380  0.1407 -0.0291  0.2774
  969MOL0     C27808   4.492  10.111   9.440  0.4470  0.2196  0.7342
  969MOL0     C27809   4.595  10.170   9.514 -0.9035 -0.1192 -0.7722
  969MOL0     C27810   4.709  10.094   9.538  0.1626 -0.0471  0.4408
  969MOL0     O27811   4.809  10.142   9.622 -0.0622 -0.2501 -0.5073
  969MOL0     C27812   4.789  10.102   9.762  0.4447 -0.1331  0.1402
  969MOL0     C27813   4.713  10.204   9.852  0.0520  0.5223  0.5009
  969MOL0     C27814   4.576  10.157   9.894 -0.1449  0.0440  0.0427
  969MOL0     C27815   4.505  10.264   9.983  0.6459 -0.0539  0.2728
  969MOL0     C27816   4.368  10.225  10.038 -0.5919 -0.8045  0.0420
  969MOL0     C27817   4.254  10.203   9.928 -0.2500  0.2035  0.4547
  969MOL0     C27818   4.215  10.336   9.866 -0.4286  0.2366 -0.6960
  969MOL0     C27819   4.067  10.339   9.828 -0.3288  0.0445  0.1892
  969MOL0    Cl27820   4.067  10.224   9.693 -0.3846  0.0628 -0.0466
  969MOL0     C27821   4.715   9.960   9.495  0.1032  0.1282 -0.1209
  969MOL0     C27822   4.620   9.906   9.411  0.4783 -0.4548  0.0195
  969MOL0     O27823   4.247   9.918   9.448 -1.1089  0.1395  0.5292
  969MOL0     C27824   4.050   9.922   9.244 -0.1050  0.2227 -0.3596
  969MOL0     C27825   3.961   9.896   9.144  0.8237 -0.3353 -0.2297
  969MOL0     N27826   3.516  10.156   8.552  0.4422  0.0757 -0.3515
  969MOL0     N27827   3.522  10.222   8.449  0.6578  0.1122 -0.2075
  969MOL0     C27828   4.617  10.470   7.682 -0.0261 -0.6607  0.1413
  969MOL0     C27829   4.710  10.416   7.598  0.4470 -0.6234  0.7929
  969MOL0     C27830   4.975  10.263   7.278  0.0869 -0.5463  0.7247
  969MOL0     C27831   5.080  10.334   7.210  0.1588 -0.3086 -0.0584
  969MOL0     C27832   5.183  10.266   7.136 -0.6957 -1.0831  0.2303
  969MOL0     C27833   5.173  10.128   7.125  0.1777  0.2129 -0.1528
  969MOL0     O27834   5.273  10.042   7.082  0.2623 -0.0165 -0.1744
  969MOL0     C27835   5.391  10.086   7.014 -0.7620  0.3584  0.4240
  969MOL0     C27836   5.386  10.060   6.862 -0.0443  0.7022  0.7561
  969MOL0     C27837   5.519  10.068   6.791 -0.5296  0.4958  0.0251
  969MOL0     C27838   5.532   9.993   6.666 -0.2308 -0.0044 -0.0629
  969MOL0     C27839   5.660  10.006   6.588  0.8683 -0.1004 -1.1196
  969MOL0     C27840   5.748  10.008   6.506  0.2632 -0.5193 -0.9544
  969MOL0     C27841   5.063  10.066   7.180 -0.5917 -0.4809  1.2409
  969MOL0     C27842   4.965  10.130   7.255  0.4207 -0.3586 -0.8101
  969MOL0     H27843   4.518  10.300   7.349  1.1310  3.0221 -1.9854
  969MOL0     H27844   4.345  10.427   7.485 -0.8066 -0.3643  0.6683
  969MOL0     H27845   4.231  10.389   7.681  0.6208 -1.5249  0.8730
  969MOL0     H27846   4.240  10.561   7.651  1.3681  0.0052  0.0062
  969MOL0     H27847   4.079  10.507   7.830 -1.3374 -1.4743  4.5733
  969MOL0     H27848   4.215  10.604   7.898 -0.9692  0.5672  0.8276
  969MOL0     H27849   4.319  10.400   7.982 -0.2590  0.9508 -1.1246
  969MOL0     H27850   4.186  10.295   7.922 -1.4961  0.2910 -0.2945
  969MOL0     H27851   4.202  10.409   8.170  0.4341 -0.3201  0.3616
  969MOL0     H27852   4.078  10.501   8.093 -1.4770 -0.9441  1.0133
  969MOL0     H27853   4.090  10.200   8.149  1.1565  0.4908 -0.4704
  969MOL0     H27854   3.998  10.265   8.006  1.2745  0.8313 -0.6723
  969MOL0     H27855   3.867  10.427   8.140  0.4021  0.3035  0.0285
  969MOL0     H27856   3.957  10.388   8.288  1.9649 -2.0947  0.6707
  969MOL0     H27857   3.788  10.179   8.133 -0.0748 -1.5424  1.2493
  969MOL0     H27858   3.873  10.167   8.293  0.3149  1.0919  1.0909
  969MOL0     H27859   3.617  10.291   8.208 -0.1427  2.6725  0.4088
  969MOL0     H27860   3.703  10.393   8.319 -2.7986  0.2679  1.1420
  969MOL0     H27861   3.825  10.103   8.488  1.3749  4.8030  1.0514
  969MOL0     H27862   3.564  10.021   8.773 -0.0815 -1.1142 -0.2952
  969MOL0     H27863   3.721  10.092   8.778 -1.2743 -0.8527  2.9540
  969MOL0     H27864   3.841   9.932   8.662 -0.0780  1.2496 -1.5201
  969MOL0     H27865   3.695   9.880   8.580  1.7816  0.7267 -0.6101
  969MOL0     H27866   3.619   9.783   8.791 -0.2370  2.5450 -1.9789
  969MOL0     H27867   3.769   9.697   8.741  1.8162  1.2661 -0.5685
  969MOL0     H27868   3.748   9.762   8.997 -0.1939  0.5187 -0.3927
  969MOL0     H27869   3.783   9.928   8.933 -2.9713 -0.2605 -2.4781
  969MOL0     H27870   4.173   9.747   8.917  0.3925  1.4721 -0.5399
  969MOL0     H27871   4.324   9.800   9.101 -0.3943 -1.1104  0.0201
  969MOL0     H27872   4.391  10.150   9.436  1.2937  2.7034  1.4689
  969MOL0     H27873   4.603  10.270   9.556 -1.1147 -0.8054  0.9682
  969MOL0     H27874   4.889  10.087   9.803  0.0722 -1.6571  0.5796
  969MOL0     H27875   4.742  10.004   9.775 -3.4971  0.7989 -4.3236
  969MOL0     H27876   4.705  10.301   9.803  3.2412  1.1144  0.9045
  969MOL0     H27877   4.774  10.217   9.942  2.0906 -0.5860 -0.6246
  969MOL0     H27878   4.569  10.058   9.940 -3.4690 -1.1844 -2.6547
  969MOL0     H27879   4.516  10.148   9.802  1.3405 -0.6874 -0.8816
  969MOL0     H27880   4.566  10.266  10.073  0.5707 -0.8346  0.3449
  969MOL0     H27881   4.499  10.364   9.938  0.4837 -0.8182 -1.5010
  969MOL0     H27882   4.345  10.296  10.118  1.1944 -2.4828  2.1995
  969MOL0     H27883   4.384  10.128  10.087  0.7003 -0.0297  1.2266
  969MOL0     H27884   4.163  10.162   9.974  0.5422 -1.7025  0.4355
  969MOL0     H27885   4.287  10.130   9.854  1.2364  1.4033 -0.1093
  969MOL0     H27886   4.235  10.415   9.938  2.1024 -1.9878  1.2545
  969MOL0     H27887   4.281  10.352   9.780  2.3005 -1.9222  0.8381
  969MOL0     H27888   4.035  10.438   9.794 -0.8137  0.6024  2.1173
  969MOL0     H27889   4.000  10.319   9.912  1.9246  2.4412  2.7761
  969MOL0     H27890   4.796   9.893   9.525 -0.0882  0.2424  0.6688
  969MOL0     H27891   4.611   9.802   9.380 -0.4543 -0.3898  0.0585
  969MOL0     H27892   4.000   9.969   9.328  0.0558  2.2713 -1.3453
  969MOL0     H27893   3.859   9.930   9.131  1.9500  2.5155 -2.8733
  969MOL0     H27894   4.648  10.498   7.782 -0.9592 -2.2167  0.8895
  969MOL0     H27895   4.810  10.407   7.638  1.8558 -3.1235 -2.6811
  969MOL0     H27896   5.100  10.440   7.211  3.2553 -0.7735  2.8091
  969MOL0     H27897   5.271  10.318   7.098 -1.3972 -1.4452 -2.0653
  969MOL0     H27898   5.472  10.027   7.058  0.0295  1.8970  1.1333
  969MOL0     H27899   5.430  10.187   7.034  1.9364  0.2755 -3.2759
  969MOL0     H27900   5.332   9.966   6.849  2.8122 -1.4988  3.4161
  969MOL0     H27901   5.335  10.145   6.816 -3.0663 -1.3848 -0.0792
  969MOL0     H27902   5.595  10.021   6.854 -1.5780  0.0022  0.9705
  969MOL0     H27903   5.549  10.172   6.782  4.5524 -0.5097  1.7197
  969MOL0     H27904   5.525   9.885   6.680 -1.2548  0.1291  0.5372
  969MOL0     H27905   5.455  10.027   6.595  2.2158  0.9801 -2.4502
  969MOL0     H27906   5.826  10.012   6.434  1.0252  0.0298 -0.1171
  969MOL0     H27907   5.050   9.959   7.190  0.0335 -0.6124  0.7164
  969MOL0     H27908   4.887  10.072   7.305  0.5465  0.6514  0.6253
  970MOL0     O27909   1.483   9.800  11.026  0.4749 -0.0231 -0.3220
  970MOL0     C27910   1.514   9.919  11.047  0.4511  0.2160 -0.9168
  970MOL0     O27911   1.419  10.017  11.061 -0.7315 -0.4966  0.7064
  970MOL0     C27912   1.287   9.986  11.083 -0.4118  0.1141  0.3897
  970MOL0     C27913   1.223  10.009  11.206 -0.2544 -0.0211  0.0203
  970MOL0     C27914   1.085   9.993  11.221 -0.1904 -0.0567  1.4031
  970MOL0     C27915   1.007   9.947  11.110 -0.8851  0.6987 -0.1552
  970MOL0     O27916   0.870   9.941  11.122  0.7339 -0.6390  0.0279
  970MOL0     C27917   0.793   9.907  11.001 -0.6072  0.3044 -0.1009
  970MOL0     C27918   0.653   9.937  11.049  0.1369 -0.3100  0.5275
  970MOL0     C27919   0.555   9.891  10.940 -0.4396  1.1809  0.2194
  970MOL0     C27920   0.419   9.941  10.975  0.0974  0.1244 -0.2738
  970MOL0     C27921   0.381  10.070  10.901  0.9764 -0.0345 -0.6357
  970MOL0     C27922   0.228  10.098  10.886 -0.0004 -0.4745 -0.2913
  970MOL0     C27923   0.145  10.072  11.024  0.7240  0.1458  0.6584
  970MOL0     C27924   0.015  10.162  11.044  0.1526 -0.6172  0.0308
  970MOL0     N27925  -0.076  10.144  10.923  0.0491 -0.8634 -0.0410
  970MOL0     C27926  -0.049  10.215  10.804 -0.3232  0.6185  0.6269
  970MOL0     C27927  -0.151  10.168  10.724 -0.0029 -1.2616  0.5447
  970MOL0     C27928  -0.189  10.218  10.581  0.0549  0.8640  0.0278
  970MOL0     C27929  -0.303  10.141  10.525  0.6751  0.3829  0.5741
  970MOL0     C27930  -0.335  10.177  10.376 -0.2539 -0.2697  0.0980
  970MOL0     C27931  -0.393  10.314  10.361  0.0499 -0.2029 -0.0691
  970MOL0     O27932  -0.481  10.361  10.469 -0.2083 -0.2620 -0.0615
  970MOL0     C27933  -0.618  10.365  10.466  1.0068  0.2646  0.7111
  970MOL0     C27934  -0.686  10.445  10.555 -0.1521  0.1715  0.1755
  970MOL0     C27935  -0.826  10.434  10.564 -0.4486 -0.0539 -0.6365
  970MOL0     C27936  -0.901  10.350  10.482 -0.2487  0.7045 -0.6831
  970MOL0     C27937  -1.044  10.317  10.502  0.4427 -0.0604  0.1148
  970MOL0     O27938  -1.100  10.205  10.441  0.6479  0.1899 -0.6119
  970MOL0     C27939  -1.233  10.195  10.470 -1.3231  0.5902 -0.3471
  970MOL0     C27940  -1.331  10.279  10.427 -0.0528  0.1123  0.1378
  970MOL0     C27941  -1.461  10.278  10.469 -1.0676 -0.0287 -0.0324
  970MOL0     C27942  -1.501  10.180  10.560 -0.4897  0.0721 -0.5219
  970MOL0     O27943  -1.628  10.162  10.603 -0.7837  0.6901 -0.6767
  970MOL0     C27944  -1.732  10.242  10.556 -0.7080 -0.2849 -0.5269
  970MOL0     C27945  -1.862  10.189  10.599 -0.3827 -0.0449  0.0432
  970MOL0     C27946  -1.977  10.290  10.570  0.5042  0.1828  0.4013
  970MOL0     C27947  -2.109  10.224  10.611  0.2232 -1.2336 -1.1603
  970MOL0     C27948  -2.231  10.322  10.629 -0.3485  0.3522  0.2035
  970MOL0     C27949  -2.344  10.254  10.681  0.1900  0.0511  0.8702
  970MOL0     C27950  -2.454  10.357  10.685 -0.4256  0.1866 -0.2172
  970MOL0     C27951  -2.584  10.324  10.757 -0.1583 -0.8423  0.2967
  970MOL0    Cl27952  -2.577  10.276  10.926 -0.2383 -0.1323  0.3480
  970MOL0     C27953  -1.408  10.098  10.612  0.2252  0.0067  0.0097
  970MOL0     C27954  -1.281  10.102  10.562 -0.3058 -0.4349  0.9097
  970MOL0     O27955  -1.103  10.404  10.575 -0.5428 -0.0338  0.2624
  970MOL0     C27956  -0.830  10.288  10.381 -0.4490  0.3842 -0.2461
  970MOL0     C27957  -0.692  10.290  10.374 -0.6822 -0.5699 -0.5708
  970MOL0     N27958  -0.226  10.073  10.795 -0.1603  0.4535  0.6334
  970MOL0     N27959  -0.180  10.065  10.916 -0.5383 -0.6443  0.2624
  970MOL0     C27960   1.078   9.925  10.992  0.3861  0.3383 -0.2916
  970MOL0     C27961   1.215   9.942  10.980  0.0844  1.0778 -0.3746
  970MOL0     C27962   1.653   9.954  11.070 -0.6179 -0.5419  0.7488
  970MOL0     C27963   1.746   9.861  11.119  0.5953  0.1712  0.1265
  970MOL0     C27964   1.873   9.895  11.161 -0.5840  0.1290  0.2299
  970MOL0     C27965   1.911  10.025  11.148 -0.1044  0.7975  1.0756
  970MOL0     O27966   2.026  10.078  11.186  0.6186 -0.0103  0.5201
  970MOL0     C27967   2.130   9.994  11.232 -0.6625  0.2453 -0.6670
  970MOL0     C27968   2.262  10.069  11.236  0.0433  0.4838  0.5545
  970MOL0     C27969   2.276  10.188  11.323 -0.5495  0.2566  0.7874
  970MOL0     C27970   2.246  10.159  11.463  0.2647 -0.3339 -0.1148
  970MOL0     C27971   2.269  10.267  11.553 -1.0613 -1.4836 -0.3048
  970MOL0     C27972   2.300  10.363  11.636  0.0507  0.1748 -0.5348
  970MOL0     C27973   1.826  10.120  11.088 -0.0754 -0.5735  0.1826
  970MOL0     C27974   1.699  10.079  11.049 -0.5804 -0.9096 -0.9029
  970MOL0     H27975   1.280  10.041  11.292 -0.3501  1.4614 -0.4472
  970MOL0     H27976   1.033  10.020  11.312 -1.7056  0.3873  0.4389
  970MOL0     H27977   0.809   9.800  10.983 -0.5009  0.0978  1.1078
  970MOL0     H27978   0.818   9.966  10.913 -3.2902 -1.2571 -2.0638
  970MOL0     H27979   0.654  10.046  11.049  2.8381 -0.2669 -0.3483
  970MOL0     H27980   0.627   9.898  11.148  0.8568 -0.4185  0.6785
  970MOL0     H27981   0.558   9.781  10.939  3.6279  1.1606 -0.1684
  970MOL0     H27982   0.583   9.928  10.841  0.7534  1.4247  0.6358
  970MOL0     H27983   0.351   9.860  10.947 -3.7725  2.1162  2.4854
  970MOL0     H27984   0.403   9.940  11.083 -0.1854 -0.4512 -0.3130
  970MOL0     H27985   0.439  10.086  10.810 -2.1822  0.6502 -2.6898
  970MOL0     H27986   0.408  10.160  10.958 -3.2450 -0.1697  2.0313
  970MOL0     H27987   0.190  10.045  10.798 -0.4192 -0.7485  0.0529
  970MOL0     H27988   0.226  10.206  10.874  0.0319 -0.1099  2.3730
  970MOL0     H27989   0.115   9.969  11.043 -0.4536  0.2410 -0.5707
  970MOL0     H27990   0.207  10.090  11.113  1.9124 -3.1972  0.6545
  970MOL0     H27991   0.048  10.266  11.052 -0.2605 -0.5434  0.9361
  970MOL0     H27992  -0.038  10.134  11.135  1.1590 -4.0780 -0.3126
  970MOL0     H27993   0.027  10.291  10.789 -0.4230  0.5474 -0.2632
  970MOL0     H27994  -0.112  10.204  10.504 -0.4143  1.6468 -0.6045
  970MOL0     H27995  -0.220  10.321  10.600  0.5016  1.1112 -0.5544
  970MOL0     H27996  -0.392  10.151  10.587 -0.8210  1.8158 -1.6532
  970MOL0     H27997  -0.276  10.035  10.517  3.1125  1.0661 -1.4045
  970MOL0     H27998  -0.238  10.173  10.324 -1.3580  2.0013 -2.3519
  970MOL0     H27999  -0.400  10.102  10.330 -2.7933  1.3345  0.9376
  970MOL0     H28000  -0.453  10.324  10.270  2.6266  1.1762 -1.7084
  970MOL0     H28001  -0.312  10.387  10.355  1.4989 -1.8978 -2.7521
  970MOL0     H28002  -0.630  10.513  10.618 -0.8331  0.3124  0.6475
  970MOL0     H28003  -0.880  10.492  10.638  1.3697  0.2398  0.5091
  970MOL0     H28004  -1.306  10.372  10.377 -0.5556 -0.0260 -0.3776
  970MOL0     H28005  -1.525  10.363  10.446 -0.9824  0.9352  2.8203
  970MOL0     H28006  -1.745  10.229  10.449 -1.0431 -0.4495 -0.4663
  970MOL0     H28007  -1.723  10.346  10.590  1.8020 -0.6771  0.2298
  970MOL0     H28008  -1.870  10.180  10.708  1.3842 -0.3442  0.1869
  970MOL0     H28009  -1.889  10.092  10.558 -2.8807 -0.8427  3.1896
  970MOL0     H28010  -1.981  10.311  10.463  0.6028  0.9327  0.5332
  970MOL0     H28011  -1.966  10.388  10.619 -0.3830 -1.3865  3.9974
  970MOL0     H28012  -2.137  10.156  10.530  0.8415 -0.5058 -2.0080
  970MOL0     H28013  -2.114  10.168  10.705  0.1690 -0.1425 -0.5004
  970MOL0     H28014  -2.257  10.366  10.533  1.9031 -0.1683 -0.6941
  970MOL0     H28015  -2.192  10.405  10.689 -0.4669  2.3111 -2.2740
  970MOL0     H28016  -2.320  10.221  10.783  2.2098  1.3960  0.8969
  970MOL0     H28017  -2.364  10.168  10.617  1.5846  1.6569 -1.9405
  970MOL0     H28018  -2.418  10.443  10.741 -2.5166 -0.1311  1.7235
  970MOL0     H28019  -2.474  10.400  10.586 -0.1144 -0.3520 -0.5175
  970MOL0     H28020  -2.631  10.251  10.690  0.4396 -0.7939 -0.1879
  970MOL0     H28021  -2.650  10.411  10.760  0.6939 -0.1835  0.2799
  970MOL0     H28022  -1.439  10.023  10.684 -2.7394  0.6657 -0.4552
  970MOL0     H28023  -1.217  10.019  10.590 -2.7626 -2.9519 -0.3856
  970MOL0     H28024  -0.888  10.226  10.313 -3.0939  3.8972 -1.4819
  970MOL0     H28025  -0.635  10.227  10.306  1.3841  0.5318  0.0623
  970MOL0     H28026   1.024   9.883  10.908  3.4575 -1.1755 -1.6521
  970MOL0     H28027   1.261   9.918  10.885  1.6442  1.1932  0.3199
  970MOL0     H28028   1.725   9.759  11.148 -0.5808  0.4100  0.1768
  970MOL0     H28029   1.924   9.829  11.230  2.7988  0.6308 -1.5781
  970MOL0     H28030   2.143   9.907  11.168 -1.8167  1.4014 -2.5606
  970MOL0     H28031   2.115   9.954  11.333  0.5794 -3.0328 -1.6558
  970MOL0     H28032   2.346  10.002  11.259 -0.2174  0.1127  0.4285
  970MOL0     H28033   2.273  10.099  11.131  0.7544 -1.7829 -0.0757
  970MOL0     H28034   2.202  10.259  11.285  0.8571  1.2568 -0.1624
  970MOL0     H28035   2.374  10.233  11.306 -0.2792 -0.5905 -0.0216
  970MOL0     H28036   2.144  10.124  11.477  0.4348 -0.6438  0.3696
  970MOL0     H28037   2.320  10.082  11.490  1.7627  1.2502  0.4750
  970MOL0     H28038   2.333  10.439  11.703  1.6273 -1.0228  0.1110
  970MOL0     H28039   1.855  10.223  11.068 -2.6924  0.2116  0.0877
  970MOL0     H28040   1.637  10.162  11.016 -1.4355 -1.5841 -1.0237
  971MOL0     O28041   3.558   9.838  10.790 -0.3426 -0.5874  0.4801
  971MOL0     C28042   3.538   9.927  10.710 -0.0792  0.5014  0.2072
  971MOL0     O28043   3.418   9.982  10.684 -0.1874  0.2272 -0.3108
  971MOL0     C28044   3.318   9.961  10.785 -0.9932 -1.1243 -0.3077
  971MOL0     C28045   3.345  10.002  10.917  0.1792 -0.0421 -0.3129
  971MOL0     C28046   3.256   9.994  11.020  0.7370 -0.1319 -0.7317
  971MOL0     C28047   3.139   9.926  10.991 -0.1130 -0.4059 -1.0642
  971MOL0     O28048   3.046   9.929  11.094 -0.5062  0.1129 -0.3527
  971MOL0     C28049   2.921   9.854  11.082 -0.0742 -0.6890 -0.1829
  971MOL0     C28050   2.852   9.835  11.216 -0.8199  0.0722  0.5440
  971MOL0     C28051   2.792   9.967  11.263  0.1597 -1.2192  0.4077
  971MOL0     C28052   2.733   9.952  11.401 -0.2951  0.2756  0.3771
  971MOL0     C28053   2.682  10.090  11.452 -0.6967 -0.0157 -0.3778
  971MOL0     C28054   2.657  10.083  11.605  0.2357  0.3529 -0.1091
  971MOL0     C28055   2.658  10.221  11.668  0.0985  0.8893 -0.5798
  971MOL0     C28056   2.689  10.212  11.827  0.0213 -0.2199 -0.0727
  971MOL0     N28057   2.617  10.322  11.899 -0.3432 -0.5438  0.7437
  971MOL0     C28058   2.489  10.321  11.938  0.3454  0.3588  0.0747
  971MOL0     C28059   2.465  10.440  11.990  1.1849 -1.7997  0.4576
  971MOL0     C28060   2.326  10.482  12.029  0.0080  0.4227 -0.2711
  971MOL0     C28061   2.298  10.608  11.947  0.6200 -0.5410  0.0199
  971MOL0     C28062   2.146  10.646  11.946 -0.9993  0.1147 -0.1079
  971MOL0     C28063   2.082  10.592  11.828 -0.3208 -0.4226  0.4857
  971MOL0     O28064   1.968  10.670  11.795 -0.6695  0.5293 -0.0785
  971MOL0     C28065   1.847  10.608  11.812  0.0165 -0.2721  0.4056
  971MOL0     C28066   1.732  10.686  11.838  0.1729 -0.2515  0.3602
  971MOL0     C28067   1.602  10.635  11.845 -0.7917  0.2077 -0.2090
  971MOL0     C28068   1.580  10.498  11.828  0.2342  0.3612 -0.6078
  971MOL0     C28069   1.446  10.448  11.834  0.2206 -0.2887  0.4838
  971MOL0     O28070   1.432  10.309  11.836  0.0477  0.4898 -0.1171
  971MOL0     C28071   1.310  10.245  11.798 -0.4270 -0.1656 -0.8736
  971MOL0     C28072   1.176  10.299  11.795  0.0936 -0.3519 -0.9029
  971MOL0     C28073   1.068  10.220  11.752  0.0422 -0.8206 -0.0041
  971MOL0     C28074   1.087  10.090  11.708  0.2787 -0.1094 -0.1621
  971MOL0     O28075   0.989   9.998  11.667 -0.1108  0.2408  0.0825
  971MOL0     C28076   0.873  10.064  11.615  0.0268  0.2219 -0.0005
  971MOL0     C28077   0.782   9.956  11.559  0.5651 -1.0485  0.9954
  971MOL0     C28078   0.717   9.854  11.656 -0.2052 -0.6220  0.6238
  971MOL0     C28079   0.626   9.746  11.595 -0.7599  0.5926  0.2379
  971MOL0     C28080   0.545   9.683  11.709 -0.4587 -0.1592 -0.6328
  971MOL0     C28081   0.499   9.545  11.662  1.0225  0.2138  0.2665
  971MOL0     C28082   0.410   9.477  11.760  0.9044  0.4631 -0.2419
  971MOL0     C28083   0.316   9.390  11.685 -0.0903  0.2767  0.2886
  971MOL0    Cl28084   0.180   9.483  11.603  0.3832  0.2776  0.5014
  971MOL0     C28085   1.216  10.038  11.711 -0.1988  0.3558  0.8376
  971MOL0     C28086   1.324  10.114  11.761  0.3583  0.5313  0.3261
  971MOL0     O28087   1.351  10.533  11.837 -0.0150 -0.2749 -0.2209
  971MOL0     C28088   1.689  10.412  11.802 -0.5674  0.4222 -0.4423
  971MOL0     C28089   1.823  10.468  11.802  0.7234 -0.0931  0.8455
  971MOL0     N28090   2.585  10.511  11.995 -0.2082 -0.2813 -0.1980
  971MOL0     N28091   2.672  10.438  11.945 -1.0315  0.0149 -0.2172
  971MOL0     C28092   3.114   9.888  10.858  0.5304 -1.2577 -0.5815
  971MOL0     C28093   3.191   9.912  10.749 -0.5009  0.4349 -0.6820
  971MOL0     C28094   3.657   9.987  10.639  0.7344 -0.0437  0.5865
  971MOL0     C28095   3.789   9.939  10.656  0.6404  0.3598  0.1866
  971MOL0     C28096   3.893  10.001  10.595 -0.3383 -0.3548 -0.1664
  971MOL0     C28097   3.879  10.108  10.514 -0.0307 -0.7779 -0.2039
  971MOL0     O28098   4.000  10.170  10.482  0.0241  0.3011  0.4915
  971MOL0     C28099   4.007  10.215  10.347 -0.4588 -0.1332 -0.0295
  971MOL0     C28100   3.980  10.374  10.337 -0.5382  0.0967  0.6550
  971MOL0     C28101   4.048  10.466  10.438 -0.7090  0.2155 -0.0847
  971MOL0     C28102   4.197  10.447  10.450 -0.4482  0.2791 -0.4265
  971MOL0     C28103   4.253  10.514  10.559 -0.1767  0.7191 -0.1906
  971MOL0     C28104   4.296  10.571  10.650  0.2567 -0.4278  0.9881
  971MOL0     C28105   3.746  10.155  10.483 -0.3331 -1.1823 -0.5316
  971MOL0     C28106   3.638  10.093  10.544 -0.6557  0.0602  0.2131
  971MOL0     H28107   3.443  10.045  10.934  0.9126 -2.3682  1.9717
  971MOL0     H28108   3.278  10.025  11.122  0.4641  2.7969 -1.4618
  971MOL0     H28109   2.942   9.756  11.037  1.1989 -0.7817  0.5624
  971MOL0     H28110   2.860   9.911  11.011 -2.8802 -0.6009  2.1312
  971MOL0     H28111   2.928   9.805  11.289 -0.5125 -0.5602 -0.0193
  971MOL0     H28112   2.791   9.744  11.212  0.3003 -0.6827 -0.3271
  971MOL0     H28113   2.713  10.007  11.200  0.2609  2.0139  2.0865
  971MOL0     H28114   2.873  10.041  11.266 -1.6346  0.8589 -0.3017
  971MOL0     H28115   2.641   9.893  11.394 -0.2028  0.1724  0.0379
  971MOL0     H28116   2.793   9.901  11.476 -1.7383  0.3960  1.6786
  971MOL0     H28117   2.600  10.130  11.392 -1.3254  0.1511  0.5786
  971MOL0     H28118   2.762  10.163  11.439  0.5913 -1.3245 -0.1394
  971MOL0     H28119   2.747  10.039  11.648  1.8747  0.8443 -2.8484
  971MOL0     H28120   2.560  10.034  11.621 -0.4475  1.8369  0.5258
  971MOL0     H28121   2.735  10.289  11.631 -0.7364  2.3593  0.2984
  971MOL0     H28122   2.563  10.265  11.637 -1.4491 -3.1875 -2.2998
  971MOL0     H28123   2.795  10.217  11.852  0.1713  1.8920 -0.9723
  971MOL0     H28124   2.641  10.115  11.848 -1.6788 -0.1888 -3.2137
  971MOL0     H28125   2.419  10.239  11.923 -1.6554  1.5660  2.2671
  971MOL0     H28126   2.327  10.504  12.136 -1.0885 -1.0182  0.0694
  971MOL0     H28127   2.251  10.407  12.004 -0.2576  0.0400  1.5279
  971MOL0     H28128   2.334  10.604  11.844 -0.5928  0.7503 -0.5001
  971MOL0     H28129   2.354  10.690  11.993 -1.4027  0.4323  0.9157
  971MOL0     H28130   2.082  10.613  12.028 -0.0811 -0.5208  0.3620
  971MOL0     H28131   2.142  10.756  11.943 -0.8638  0.1349  0.3795
  971MOL0     H28132   2.071  10.483  11.835  0.7346 -0.6691 -1.0537
  971MOL0     H28133   2.150  10.611  11.744  0.2639 -0.8788  0.8459
  971MOL0     H28134   1.750  10.793  11.844  0.0688 -0.1752 -0.5874
  971MOL0     H28135   1.518  10.703  11.850 -2.2474 -1.6007  1.0793
  971MOL0     H28136   1.148  10.393  11.843  3.7497  0.4890 -0.0941
  971MOL0     H28137   0.973  10.268  11.769  1.5830  2.1950  0.8897
  971MOL0     H28138   0.909  10.138  11.542 -0.1210  0.9450  0.6431
  971MOL0     H28139   0.823  10.118  11.695  0.5277 -0.7971  1.0213
  971MOL0     H28140   0.849   9.895  11.498  1.6818 -0.4085  1.5471
  971MOL0     H28141   0.693  10.001  11.514  0.8956  0.0469  1.4055
  971MOL0     H28142   0.651   9.908  11.725 -0.0438  0.9387 -0.3996
  971MOL0     H28143   0.793   9.806  11.719 -0.8145 -1.0317  1.0580
  971MOL0     H28144   0.556   9.783  11.520 -0.1873  0.7263 -0.2367
  971MOL0     H28145   0.696   9.680  11.544  1.5961  2.3700  0.9872
  971MOL0     H28146   0.457   9.733  11.749 -2.1318 -1.4119 -2.5081
  971MOL0     H28147   0.615   9.670  11.792 -0.8687  1.4330 -0.0029
  971MOL0     H28148   0.587   9.493  11.622 -1.6972 -3.1842 -1.8907
  971MOL0     H28149   0.434   9.572  11.579  2.1378  3.4313  0.3187
  971MOL0     H28150   0.466   9.412  11.829 -4.1414 -0.9953  3.0277
  971MOL0     H28151   0.348   9.547  11.817  0.7921 -0.5225  0.9045
  971MOL0     H28152   0.271   9.327  11.763  2.9128 -0.0579  1.8758
  971MOL0     H28153   0.363   9.315  11.622 -2.2852 -1.8009  0.9658
  971MOL0     H28154   1.231   9.940  11.667  2.0207 -0.0976  2.4421
  971MOL0     H28155   1.424  10.071  11.769  0.0999  0.1873  2.3613
  971MOL0     H28156   1.676  10.305  11.785  1.7061  0.2582 -1.5620
  971MOL0     H28157   1.902  10.394  11.793 -0.3980 -1.0832 -2.2547
  971MOL0     H28158   3.013   9.853  10.839  0.3887 -0.5796 -1.1169
  971MOL0     H28159   3.179   9.889  10.644  0.5660 -2.1289 -0.3058
  971MOL0     H28160   3.803   9.864  10.732  0.9887  0.2072 -0.0246
  971MOL0     H28161   3.987   9.987  10.647 -2.0001  0.6352  3.3710
  971MOL0     H28162   3.938  10.169  10.276  0.2276  0.5168 -1.1593
  971MOL0     H28163   4.108  10.196  10.308 -1.8609 -1.5895 -3.3251
  971MOL0     H28164   4.004  10.402  10.234 -4.5394 -4.4788 -1.9192
  971MOL0     H28165   3.874  10.401  10.340 -0.6964 -0.3237 -0.5048
  971MOL0     H28166   4.009  10.456  10.540  1.6874  2.2811  1.1509
  971MOL0     H28167   4.031  10.571  10.416 -2.1348 -0.2918 -1.6168
  971MOL0     H28168   4.218  10.340  10.464  1.0375  0.5208 -0.6888
  971MOL0     H28169   4.243  10.482  10.357 -1.0987  1.2852 -0.3835
  971MOL0     H28170   4.325  10.636  10.730 -2.4756  1.2046  0.7635
  971MOL0     H28171   3.732  10.243  10.421  1.6077 -0.1327  0.4305
  971MOL0     H28172   3.538  10.134  10.531 -2.2594 -4.0130 -2.1930
  972MOL0     O28173   7.573   4.099   7.740 -0.7893 -0.3499 -0.3455
  972MOL0     C28174   7.666   4.016   7.739 -0.0489 -0.0486 -0.0135
  972MOL0     O28175   7.745   3.977   7.841  0.6288  0.0464  0.6952
  972MOL0     C28176   7.712   4.014   7.971  0.3311  0.0801  0.5244
  972MOL0     C28177   7.724   3.911   8.057 -0.1641  0.2763 -0.6306
  972MOL0     C28178   7.726   3.933   8.199  0.7566 -0.4102 -0.3351
  972MOL0     C28179   7.700   4.062   8.243 -0.6941  0.6085  0.0936
  972MOL0     O28180   7.722   4.110   8.366  0.2859 -1.4008 -0.0376
  972MOL0     C28181   7.701   4.036   8.486 -0.0392  0.4482  0.3310
  972MOL0     C28182   7.741   4.118   8.611 -0.1307 -0.2082 -1.2651
  972MOL0     C28183   7.654   4.242   8.650 -0.1201 -0.5883 -0.3992
  972MOL0     C28184   7.694   4.289   8.789 -0.2109  0.5356 -0.2166
  972MOL0     C28185   7.623   4.424   8.823  0.2012  0.9645  0.4459
  972MOL0     C28186   7.613   4.441   8.971  0.1323 -0.3452 -0.5472
  972MOL0     C28187   7.505   4.533   9.013 -0.1521 -1.3351 -0.0747
  972MOL0     C28188   7.539   4.679   8.976  0.2627  0.4591 -0.4801
  972MOL0     N28189   7.422   4.762   8.973  0.4759  1.1062  0.1857
  972MOL0     C28190   7.359   4.800   8.861  1.2639  0.1811  0.8549
  972MOL0     C28191   7.245   4.864   8.902 -0.5204  0.0031 -0.4895
  972MOL0     C28192   7.140   4.928   8.813 -0.2967 -0.8207  0.1035
  972MOL0     C28193   7.059   4.819   8.736 -0.0578 -0.4678  0.7998
  972MOL0     C28194   6.930   4.777   8.808 -0.7150  0.5983 -1.4082
  972MOL0     C28195   6.824   4.879   8.823 -0.5339 -0.6895 -0.3242
  972MOL0     O28196   6.748   4.882   8.695 -0.1056 -0.5713 -0.3968
  972MOL0     C28197   6.606   4.895   8.692 -0.8037  0.0861  0.4601
  972MOL0     C28198   6.552   4.915   8.564  0.2606 -0.0830  0.4718
  972MOL0     C28199   6.411   4.910   8.549 -0.5640  0.6522  0.8647
  972MOL0     C28200   6.325   4.898   8.659 -0.1474 -0.0657  0.5864
  972MOL0     C28201   6.174   4.890   8.624  0.2714 -0.2091 -0.0877
  972MOL0     O28202   6.098   4.840   8.723 -0.4127 -0.0134 -0.2911
  972MOL0     C28203   5.962   4.840   8.709 -0.5237 -1.1739 -0.6476
  972MOL0     C28204   5.900   4.767   8.600 -0.0021  0.4927  0.6509
  972MOL0     C28205   5.762   4.765   8.589 -0.9295  1.5364 -1.0485
  972MOL0     C28206   5.681   4.822   8.690  0.0013  0.8853  0.5719
  972MOL0     O28207   5.547   4.826   8.691  0.5550  0.3956  0.0016
  972MOL0     C28208   5.500   4.692   8.699  0.1107  0.6247  0.7667
  972MOL0     C28209   5.352   4.696   8.742  0.6873  0.1953 -0.2109
  972MOL0     C28210   5.273   4.756   8.631 -0.5549 -0.3870 -0.0364
  972MOL0     C28211   5.153   4.837   8.691 -0.5546  0.0865  0.2558
  972MOL0     C28212   5.056   4.737   8.762  0.4711 -0.5348 -0.4625
  972MOL0     C28213   4.983   4.650   8.660 -0.6065 -0.0381 -1.0257
  972MOL0     C28214   4.846   4.602   8.706 -0.4125  0.2759  0.1461
  972MOL0     C28215   4.850   4.540   8.841  0.7772 -0.2367  0.3692
  972MOL0    Cl28216   4.682   4.472   8.883  0.1699  0.1601 -0.3961
  972MOL0     C28217   5.741   4.894   8.796 -0.5760 -0.1025  0.0482
  972MOL0     C28218   5.879   4.903   8.800 -0.0834  0.3555  0.3434
  972MOL0     O28219   6.129   4.938   8.520  0.1048 -0.3214 -0.4360
  972MOL0     C28220   6.387   4.884   8.788  0.1931 -0.0065  0.0117
  972MOL0     C28221   6.529   4.885   8.812  0.2516  0.4119  0.2233
  972MOL0     N28222   7.249   4.852   9.038  0.2060  0.0541  1.4068
  972MOL0     N28223   7.350   4.785   9.082 -0.0037  0.6909  0.3823
  972MOL0     C28224   7.699   4.164   8.152 -0.6798  0.2812  0.2135
  972MOL0     C28225   7.699   4.139   8.016 -0.2894 -0.5100  0.4824
  972MOL0     C28226   7.678   3.924   7.620  0.1729 -0.0385 -0.2908
  972MOL0     C28227   7.575   3.923   7.517 -0.4831  0.0556 -0.0951
  972MOL0     C28228   7.606   3.840   7.411  0.4432 -1.0144  0.9120
  972MOL0     C28229   7.718   3.756   7.403 -0.8229 -0.1979  1.0609
  972MOL0     O28230   7.745   3.675   7.295  0.3331 -0.8715  0.4091
  972MOL0     C28231   7.669   3.681   7.170  0.5130 -0.0164 -0.3470
  972MOL0     C28232   7.742   3.587   7.068 -0.4847  0.7521 -0.2113
  972MOL0     C28233   7.707   3.620   6.926  0.4466 -0.2485  0.6646
  972MOL0     C28234   7.713   3.501   6.839 -0.7008  0.1418  0.4405
  972MOL0     C28235   7.858   3.472   6.817  0.6844 -1.0168  0.1753
  972MOL0     C28236   7.977   3.446   6.806 -0.5597 -0.1451 -0.5749
  972MOL0     C28237   7.810   3.759   7.500  0.2658  0.9463  0.5608
  972MOL0     C28238   7.793   3.843   7.612 -0.3455  1.8411  0.1176
  972MOL0     H28239   7.750   3.810   8.024  2.1555  0.8896 -0.8584
  972MOL0     H28240   7.751   3.860   8.275  2.7491 -0.6603 -1.1761
  972MOL0     H28241   7.744   3.936   8.481 -2.3789 -0.6031 -3.5922
  972MOL0     H28242   7.594   4.017   8.500 -0.4284 -0.1778 -2.8089
  972MOL0     H28243   7.843   4.153   8.590 -0.4328  1.3807 -0.2870
  972MOL0     H28244   7.748   4.058   8.702 -0.6623 -0.9295 -1.6952
  972MOL0     H28245   7.546   4.221   8.653  0.3695 -3.3394  1.4984
  972MOL0     H28246   7.670   4.327   8.584 -0.7228  1.2217  1.6361
  972MOL0     H28247   7.661   4.209   8.857  1.8527  0.7365  1.1093
  972MOL0     H28248   7.803   4.289   8.781 -0.2604  0.6215 -0.9507
  972MOL0     H28249   7.521   4.419   8.785  0.4679  0.6863 -0.2516
  972MOL0     H28250   7.683   4.507   8.786  1.7162 -0.0271  0.5578
  972MOL0     H28251   7.709   4.465   9.018 -0.6815 -1.1634  1.6966
  972MOL0     H28252   7.569   4.350   9.012 -2.1423  1.7525  2.0375
  972MOL0     H28253   7.409   4.515   8.963 -0.2895  1.2787 -0.8908
  972MOL0     H28254   7.494   4.541   9.122 -2.1042  0.7480 -0.3523
  972MOL0     H28255   7.589   4.683   8.878  0.8757  2.3181 -0.1143
  972MOL0     H28256   7.608   4.711   9.055  1.0134 -0.3880 -0.7744
  972MOL0     H28257   7.386   4.781   8.758 -0.2795 -1.4706  0.7179
  972MOL0     H28258   7.181   5.000   8.742 -4.2971  1.4608 -0.1793
  972MOL0     H28259   7.063   4.976   8.873 -0.5950  0.2392 -1.0844
  972MOL0     H28260   7.114   4.730   8.704 -0.8186 -1.6594  2.6622
  972MOL0     H28261   7.021   4.865   8.644  1.4469 -2.8614 -1.1280
  972MOL0     H28262   6.885   4.686   8.766  0.7700 -0.7842 -0.1427
  972MOL0     H28263   6.963   4.738   8.905  0.7548  0.3536 -1.9905
  972MOL0     H28264   6.865   4.978   8.846 -0.9176 -1.2192  3.1945
  972MOL0     H28265   6.764   4.852   8.911 -1.7457  0.9825 -0.5878
  972MOL0     H28266   6.620   4.934   8.481 -1.1781  0.4993 -0.6163
  972MOL0     H28267   6.375   4.922   8.447  2.7685  3.7043 -0.1627
  972MOL0     H28268   5.975   4.718   8.538 -0.2501 -0.0916  0.8182
  972MOL0     H28269   5.716   4.718   8.503  1.4971  0.5990 -1.9178
  972MOL0     H28270   5.555   4.633   8.773  0.2859 -1.4838 -0.9139
  972MOL0     H28271   5.502   4.655   8.596 -0.9061  2.0739  0.1931
  972MOL0     H28272   5.354   4.758   8.833  0.0311 -0.6556  0.4063
  972MOL0     H28273   5.307   4.599   8.765  0.5299  0.4860  0.7522
  972MOL0     H28274   5.239   4.672   8.570  1.6362 -0.8035 -0.7719
  972MOL0     H28275   5.335   4.822   8.569  4.0991 -2.7883  1.5684
  972MOL0     H28276   5.202   4.907   8.759  1.0706 -0.5624 -0.2019
  972MOL0     H28277   5.114   4.892   8.605  0.7352 -0.9911 -1.0659
  972MOL0     H28278   4.989   4.804   8.817 -0.8900  2.0095 -4.7532
  972MOL0     H28279   5.101   4.680   8.844  0.5027  1.5097  1.0210
  972MOL0     H28280   5.043   4.563   8.635 -0.8887 -1.0515  1.5126
  972MOL0     H28281   4.963   4.709   8.570 -0.9998 -0.5632 -1.2889
  972MOL0     H28282   4.780   4.688   8.715 -0.4707  0.0074  3.6936
  972MOL0     H28283   4.798   4.530   8.640 -2.6845 -0.1881  2.1631
  972MOL0     H28284   4.873   4.628   8.901  2.1814  1.0875 -1.9683
  972MOL0     H28285   4.929   4.468   8.859  0.2058 -0.3764  2.5578
  972MOL0     H28286   5.665   4.934   8.863 -0.0509  1.0672 -0.0371
  972MOL0     H28287   5.926   4.958   8.881 -2.1956 -1.1031  2.7163
  972MOL0     H28288   6.320   4.890   8.873 -0.4289 -0.4838 -0.4358
  972MOL0     H28289   6.563   4.873   8.915  1.6084  0.0612 -0.2379
  972MOL0     H28290   7.693   4.268   8.184  1.9164  0.5618 -0.0253
  972MOL0     H28291   7.698   4.222   7.946 -1.2121 -0.2587  0.7801
  972MOL0     H28292   7.483   3.979   7.525 -0.5231  0.0753 -0.6822
  972MOL0     H28293   7.530   3.823   7.335 -0.4506 -0.7317  1.7219
  972MOL0     H28294   7.652   3.780   7.127  2.1851  1.1624  1.5070
  972MOL0     H28295   7.570   3.634   7.170  1.4269 -2.0469 -0.0352
  972MOL0     H28296   7.851   3.591   7.084 -0.3241 -0.1565 -0.9858
  972MOL0     H28297   7.706   3.486   7.089 -1.2002  1.5647  3.0867
  972MOL0     H28298   7.747   3.717   6.894 -0.8242  0.9509  2.5332
  972MOL0     H28299   7.602   3.648   6.924  1.2034  3.0120 -1.1603
  972MOL0     H28300   7.670   3.411   6.884  1.0658  0.0648  2.0721
  972MOL0     H28301   7.677   3.515   6.737  0.0691  1.1820  0.2960
  972MOL0     H28302   8.083   3.436   6.795 -0.5677  0.0931 -0.8957
  972MOL0     H28303   7.908   3.713   7.497  0.5655  1.4943  1.5499
  972MOL0     H28304   7.869   3.831   7.689 -0.5085 -1.5967 -0.0912
  973MOL0     O28305   7.166   0.604  11.243  0.0321 -0.4125 -0.0934
  973MOL0     C28306   7.123   0.593  11.131 -0.3385  0.4828  0.4110
  973MOL0     O28307   6.997   0.596  11.098  1.0401  0.1290  0.2400
  973MOL0     C28308   6.907   0.584  11.203 -0.5498 -0.0242 -0.2688
  973MOL0     C28309   6.833   0.697  11.227  0.6350 -0.1154  0.5399
  973MOL0     C28310   6.728   0.691  11.324 -0.3105  0.3004 -0.0088
  973MOL0     C28311   6.705   0.580  11.402  0.5838  0.3297 -0.2540
  973MOL0     O28312   6.589   0.576  11.487 -0.1223 -0.0129 -0.2094
  973MOL0     C28313   6.503   0.468  11.519  0.2220 -0.4410  0.0734
  973MOL0     C28314   6.417   0.399  11.403 -0.5090 -0.2422 -0.0894
  973MOL0     C28315   6.329   0.276  11.444 -0.4392 -0.3159 -0.7272
  973MOL0     C28316   6.386   0.142  11.434  0.1991 -0.7692  0.5354
  973MOL0     C28317   6.280   0.034  11.421 -0.8521  0.2982  0.1465
  973MOL0     C28318   6.340  -0.106  11.415 -0.7488  0.3549 -0.4867
  973MOL0     C28319   6.425  -0.160  11.539 -0.2086 -0.6568 -0.2725
  973MOL0     C28320   6.455  -0.308  11.556  1.0064  1.0771  0.1919
  973MOL0     N28321   6.339  -0.377  11.599  0.2507  0.1425  0.0308
  973MOL0     C28322   6.233  -0.418  11.520  0.1878 -0.6018 -0.4192
  973MOL0     C28323   6.155  -0.489  11.603  1.0523  0.4976 -0.4031
  973MOL0     C28324   6.022  -0.559  11.560 -0.7722 -0.4365  0.3953
  973MOL0     C28325   5.906  -0.466  11.603  0.9729 -0.8560  0.1179
  973MOL0     C28326   5.764  -0.520  11.569  1.2791 -0.4482 -0.1224
  973MOL0     C28327   5.652  -0.420  11.610 -0.1351 -0.2677 -0.4451
  973MOL0     O28328   5.527  -0.487  11.587  0.6214  0.5592  0.3107
  973MOL0     C28329   5.403  -0.427  11.609 -0.0449 -0.3427 -0.3753
  973MOL0     C28330   5.389  -0.301  11.640  0.3500 -0.9646  0.3347
  973MOL0     C28331   5.257  -0.251  11.646 -0.8423  1.2340 -0.4567
  973MOL0     C28332   5.143  -0.321  11.624  0.0140 -0.0732  0.6067
  973MOL0     C28333   5.012  -0.248  11.631 -0.1524  0.4202 -0.1757
  973MOL0     O28334   4.907  -0.323  11.659 -0.2283  0.2784 -0.1367
  973MOL0     C28335   4.780  -0.266  11.685  0.3057 -0.4415  0.3023
  973MOL0     C28336   4.675  -0.360  11.725  0.6138  0.2469 -0.6304
  973MOL0     C28337   4.542  -0.325  11.735  0.3959  0.7901 -0.3781
  973MOL0     C28338   4.502  -0.189  11.730  0.4000  0.8710  0.2105
  973MOL0     O28339   4.365  -0.159  11.739  0.0517 -0.3300 -0.2988
  973MOL0     C28340   4.348  -0.055  11.836  0.5502  0.6585  0.2654
  973MOL0     C28341   4.210  -0.054  11.908  0.5171 -0.0007  0.0036
  973MOL0     C28342   4.185   0.053  12.017 -0.2567 -0.2491  0.8758
  973MOL0     C28343   4.071   0.025  12.112  0.1629  0.0120  0.0015
  973MOL0     C28344   4.044   0.150  12.192 -0.0718 -0.3463  0.7267
  973MOL0     C28345   3.913   0.224  12.176 -0.4888  0.2705 -0.4659
  973MOL0     C28346   3.889   0.271  12.034  0.5496  0.6748  0.7472
  973MOL0     C28347   3.770   0.364  12.024  0.3985 -0.0603  0.5390
  973MOL0    Cl28348   3.621   0.283  12.076 -0.0300 -0.2757 -0.0478
  973MOL0     C28349   4.596  -0.093  11.707  0.3243  0.1397 -0.3902
  973MOL0     C28350   4.732  -0.131  11.676 -0.4355  0.3072 -0.6665
  973MOL0     O28351   5.016  -0.122  11.615 -0.5768  0.1987 -0.1017
  973MOL0     C28352   5.161  -0.451  11.587 -0.8417  0.6078  0.4924
  973MOL0     C28353   5.293  -0.504  11.577 -0.1515  0.0731 -0.5312
  973MOL0     N28354   6.215  -0.487  11.729  0.5335  0.0366 -0.2618
  973MOL0     N28355   6.325  -0.424  11.723  0.5524  0.1407  0.8080
  973MOL0     C28356   6.781   0.461  11.371 -0.7935 -0.6401 -0.0889
  973MOL0     C28357   6.883   0.469  11.278 -0.3535  0.0961  0.2866
  973MOL0     C28358   7.214   0.603  11.022  0.2016  0.2272  0.0389
  973MOL0     C28359   7.352   0.594  11.047 -0.0268  0.5894 -0.0684
  973MOL0     C28360   7.441   0.607  10.940  0.9168 -0.0046 -0.0859
  973MOL0     C28361   7.393   0.622  10.812  0.7524 -1.1138  0.0725
  973MOL0     O28362   7.489   0.633  10.711  0.0596  0.1088  0.1071
  973MOL0     C28363   7.467   0.532  10.610 -0.0393 -0.4667 -0.3035
  973MOL0     C28364   7.582   0.522  10.515  0.6414  0.2132 -0.5734
  973MOL0     C28365   7.551   0.455  10.375 -0.2250  0.2228  1.3036
  973MOL0     C28366   7.672   0.459  10.285 -0.3257 -0.1580  1.2142
  973MOL0     C28367   7.780   0.360  10.310 -0.1095 -0.5937 -0.2724
  973MOL0     C28368   7.884   0.301  10.330  0.0521  0.0463 -0.2643
  973MOL0     C28369   7.252   0.626  10.784  0.3746 -0.3722 -0.3950
  973MOL0     C28370   7.160   0.612  10.887 -0.0887 -0.1726 -0.7004
  973MOL0     H28371   6.862   0.790  11.179  0.0494  1.2828  2.7374
  973MOL0     H28372   6.680   0.788  11.325  1.1707  1.0740 -0.6823
  973MOL0     H28373   6.427   0.509  11.586  0.2166  1.5597 -1.0849
  973MOL0     H28374   6.557   0.389  11.572 -2.2204 -1.2785  1.5044
  973MOL0     H28375   6.482   0.366  11.322 -1.7331 -1.8041 -0.4708
  973MOL0     H28376   6.347   0.474  11.365  0.3631 -0.2422 -1.7848
  973MOL0     H28377   6.237   0.280  11.385  0.7978 -1.0581 -2.8229
  973MOL0     H28378   6.311   0.294  11.551  1.5432 -1.8666 -0.0762
  973MOL0     H28379   6.461   0.143  11.354  0.3943  1.5346  0.6661
  973MOL0     H28380   6.433   0.138  11.533 -1.9493  0.6253  1.6906
  973MOL0     H28381   6.224   0.046  11.328 -0.8280 -1.7983 -0.1769
  973MOL0     H28382   6.213   0.032  11.509 -0.2425 -0.6345  0.6023
  973MOL0     H28383   6.389  -0.126  11.319  3.4860 -0.9918  1.7176
  973MOL0     H28384   6.259  -0.180  11.412 -1.0943  0.6036  1.3580
  973MOL0     H28385   6.515  -0.097  11.537 -0.1643 -0.7270 -1.3724
  973MOL0     H28386   6.375  -0.132  11.632 -1.7649  0.3269 -1.3522
  973MOL0     H28387   6.529  -0.316  11.637  1.6959 -0.2243 -0.5387
  973MOL0     H28388   6.496  -0.348  11.463 -0.9838 -0.7103  0.0067
  973MOL0     H28389   6.227  -0.408  11.412 -1.8145 -2.2039 -0.5217
  973MOL0     H28390   6.022  -0.661  11.600  1.6698  0.0709  1.8578
  973MOL0     H28391   6.024  -0.559  11.451 -1.2584 -2.1255  0.3494
  973MOL0     H28392   5.915  -0.366  11.558 -0.7917 -0.6507  0.1455
  973MOL0     H28393   5.912  -0.457  11.712 -3.1849 -4.2719  0.9239
  973MOL0     H28394   5.770  -0.536  11.461  4.2039  0.6899 -0.2175
  973MOL0     H28395   5.735  -0.614  11.618  0.2796 -0.2741 -0.3606
  973MOL0     H28396   5.656  -0.326  11.555  4.4012  0.6399  0.9895
  973MOL0     H28397   5.656  -0.382  11.713 -4.1779 -1.6826  0.4313
  973MOL0     H28398   5.472  -0.234  11.657 -1.2888  1.2429  0.0735
  973MOL0     H28399   5.251  -0.144  11.666 -1.3048  0.8230  1.8391
  973MOL0     H28400   4.712  -0.462  11.730 -0.4234 -0.1380 -0.6651
  973MOL0     H28401   4.461  -0.392  11.763  0.5998  0.2790 -0.9928
  973MOL0     H28402   4.339   0.038  11.779 -0.0433  2.2558  2.7811
  973MOL0     H28403   4.430  -0.039  11.908  0.4029  3.6586 -0.0834
  973MOL0     H28404   4.191  -0.151  11.955  1.6897 -0.4304 -0.3680
  973MOL0     H28405   4.139  -0.027  11.829 -0.5272  0.5398  1.0819
  973MOL0     H28406   4.155   0.146  11.969 -5.1274  0.1913  4.0946
  973MOL0     H28407   4.281   0.059  12.070 -0.3687 -2.7111  1.4693
  973MOL0     H28408   3.977  -0.000  12.063 -0.3930  0.0716  1.0054
  973MOL0     H28409   4.088  -0.058  12.181 -0.1348  0.2661  0.3881
  973MOL0     H28410   4.134   0.208  12.169  0.7349 -2.3792 -1.7591
  973MOL0     H28411   4.043   0.121  12.297 -0.4869 -1.3417  0.4622
  973MOL0     H28412   3.905   0.310  12.243  2.1066  1.4397 -1.5172
  973MOL0     H28413   3.827   0.162  12.205  0.7451  0.4069  4.3256
  973MOL0     H28414   3.979   0.329  12.011  1.1096 -0.2490  0.5567
  973MOL0     H28415   3.888   0.190  11.961  1.3478  2.1400 -0.9767
  973MOL0     H28416   3.755   0.394  11.920 -3.3666 -1.3561  0.5363
  973MOL0     H28417   3.779   0.452  12.088 -0.0602 -1.9293  3.3595
  973MOL0     H28418   4.553   0.004  11.689  1.8577  0.7482 -0.9715
  973MOL0     H28419   4.786  -0.037  11.670 -3.2936  1.9943 -2.2101
  973MOL0     H28420   5.074  -0.510  11.561 -0.9083  1.0174 -0.2268
  973MOL0     H28421   5.307  -0.605  11.539 -0.5809  0.3575 -1.4866
  973MOL0     H28422   6.757   0.361  11.406 -1.8550 -0.2738  0.2955
  973MOL0     H28423   6.939   0.379  11.255 -0.2876 -0.4169  2.3109
  973MOL0     H28424   7.393   0.576  11.146  0.2667 -1.2909 -0.4865
  973MOL0     H28425   7.548   0.597  10.959  1.4214 -2.0107 -3.2224
  973MOL0     H28426   7.374   0.558  10.559  0.0367  1.7834  0.6170
  973MOL0     H28427   7.452   0.436  10.660 -1.4550 -0.0095  0.1910
  973MOL0     H28428   7.622   0.622  10.505  1.2042  0.5419  3.3072
  973MOL0     H28429   7.667   0.469  10.559 -0.6167 -1.3474  0.1086
  973MOL0     H28430   7.470   0.509  10.326  0.2352 -0.2523 -0.0459
  973MOL0     H28431   7.527   0.349  10.385 -1.0475  0.2399 -0.2153
  973MOL0     H28432   7.637   0.437  10.184 -0.5309 -1.6163  1.5939
  973MOL0     H28433   7.702   0.565  10.291  0.7332 -0.3775  0.2301
  973MOL0     H28434   7.985   0.265  10.337  0.5759  1.5776  0.6196
  973MOL0     H28435   7.220   0.623  10.680  2.6874  2.3478 -1.3142
  973MOL0     H28436   7.053   0.619  10.873 -0.3272 -2.7026 -0.4781
  974MOL0     O28437   8.363   3.361   5.005  0.6140  0.1940 -0.3417
  974MOL0     C28438   8.320   3.256   5.045  0.4123  0.2698  0.3633
  974MOL0     O28439   8.189   3.245   5.089  0.3835 -0.5833  0.1487
  974MOL0     C28440   8.103   3.358   5.107  0.0232  0.3457 -0.3691
  974MOL0     C28441   8.108   3.428   5.225 -0.5301 -1.0848  0.9050
  974MOL0     C28442   8.016   3.532   5.244 -0.0360  0.5388 -1.3079
  974MOL0     C28443   7.927   3.565   5.134 -0.5103  0.2604  0.6299
  974MOL0     O28444   7.851   3.673   5.131 -0.0779 -0.3428  0.2484
  974MOL0     C28445   7.762   3.709   5.238 -0.1305 -0.4751 -0.2835
  974MOL0     C28446   7.617   3.674   5.190 -0.3229  0.2920 -0.0831
  974MOL0     C28447   7.508   3.724   5.286  0.0268 -1.1213  0.2010
  974MOL0     C28448   7.373   3.669   5.247  0.0734  0.3254 -0.7646
  974MOL0     C28449   7.248   3.750   5.310  0.3540 -1.1528  1.2649
  974MOL0     C28450   7.238   3.777   5.458 -0.1385 -0.0277 -0.4300
  974MOL0     C28451   7.139   3.895   5.485 -0.4432 -0.3525 -0.6673
  974MOL0     C28452   7.004   3.844   5.533 -1.3192 -0.3195 -0.2980
  974MOL0     N28453   6.903   3.954   5.544  0.2990  0.3713 -1.1643
  974MOL0     C28454   6.865   4.021   5.440  0.4616  0.5683  0.7071
  974MOL0     C28455   6.740   4.074   5.469 -1.1120  0.3737  0.4042
  974MOL0     C28456   6.659   4.154   5.382  0.6923 -0.8635  0.0275
  974MOL0     C28457   6.546   4.065   5.328  0.4373  0.0684  0.3890
  974MOL0     C28458   6.448   4.142   5.235 -0.1228  0.4175 -0.8838
  974MOL0     C28459   6.353   4.240   5.319 -0.1362  0.4778  0.1184
  974MOL0     O28460   6.273   4.307   5.217  0.5101 -0.5762  0.3107
  974MOL0     C28461   6.139   4.316   5.239 -0.2380  0.0090 -0.7677
  974MOL0     C28462   6.092   4.378   5.357  0.8021 -0.6765 -0.0855
  974MOL0     C28463   5.951   4.380   5.378 -0.5716 -0.5774 -0.2521
  974MOL0     C28464   5.856   4.341   5.283 -0.0368 -0.5925 -0.5533
  974MOL0     C28465   5.711   4.329   5.327 -0.1958 -0.3509 -0.2528
  974MOL0     O28466   5.625   4.300   5.231 -0.7425 -0.2111  0.5680
  974MOL0     C28467   5.487   4.324   5.252 -0.2846 -0.7918  0.1336
  974MOL0     C28468   5.412   4.277   5.355  0.4787  0.5625  0.0564
  974MOL0     C28469   5.280   4.313   5.368  0.3040  0.6269  0.3583
  974MOL0     C28470   5.219   4.403   5.268 -0.2881 -0.1206 -0.0899
  974MOL0     O28471   5.083   4.428   5.252  0.2393  0.2803  0.1569
  974MOL0     C28472   4.997   4.337   5.315 -0.3886 -0.7082 -0.6730
  974MOL0     C28473   4.856   4.375   5.275  0.0375  0.6429  0.0650
  974MOL0     C28474   4.772   4.476   5.364 -0.3489 -0.8296  0.6288
  974MOL0     C28475   4.692   4.400   5.469  0.0867  0.2048 -0.2244
  974MOL0     C28476   4.621   4.480   5.570  0.4945  0.4015 -0.3034
  974MOL0     C28477   4.510   4.570   5.519 -0.6485 -0.6485  1.1158
  974MOL0     C28478   4.456   4.674   5.612  0.4433 -0.3649 -0.4012
  974MOL0     C28479   4.377   4.597   5.723 -0.1685 -0.4272 -0.1932
  974MOL0    Cl28480   4.233   4.513   5.666  0.6402 -0.1690 -0.1979
  974MOL0     C28481   5.296   4.444   5.160 -0.2615  0.2258  0.0543
  974MOL0     C28482   5.431   4.400   5.157 -0.1502 -0.9128  0.6443
  974MOL0     O28483   5.678   4.355   5.445 -1.2267 -0.1521 -0.7817
  974MOL0     C28484   5.906   4.292   5.160  0.3510 -1.1209 -0.3678
  974MOL0     C28485   6.041   4.271   5.145  0.2361 -0.5101 -0.9662
  974MOL0     N28486   6.728   4.047   5.601  0.8805 -0.1681 -0.3252
  974MOL0     N28487   6.824   3.977   5.647 -0.0473  0.4793  0.2508
  974MOL0     C28488   7.919   3.493   5.015  0.2276 -0.1085 -0.8677
  974MOL0     C28489   8.016   3.387   5.000  0.9059 -1.0187 -0.3254
  974MOL0     C28490   8.405   3.138   5.036 -0.2837  0.2103  0.5924
  974MOL0     C28491   8.533   3.160   4.976  0.6985  0.1250  0.4229
  974MOL0     C28492   8.616   3.042   4.967  1.0594 -1.2460 -0.0335
  974MOL0     C28493   8.573   2.917   5.015 -0.3899 -0.2652 -0.6424
  974MOL0     O28494   8.668   2.815   5.022  0.9902 -0.3750  0.1834
  974MOL0     C28495   8.630   2.695   5.085  0.4817 -1.0097  0.3228
  974MOL0     C28496   8.764   2.629   5.103 -0.2849 -0.1218  0.7853
  974MOL0     C28497   8.750   2.485   5.104 -0.0408 -0.3624 -0.2239
  974MOL0     C28498   8.883   2.406   5.105  0.5480 -0.1343 -0.2296
  974MOL0     C28499   8.863   2.271   5.150 -0.2484  0.0856  0.7213
  974MOL0     C28500   8.856   2.162   5.176 -0.3978  0.6080 -0.2328
  974MOL0     C28501   8.442   2.899   5.060 -0.9674 -0.2976  0.5176
  974MOL0     C28502   8.367   3.011   5.081  0.2845 -0.2501  0.5181
  974MOL0     H28503   8.183   3.404   5.300  1.7679  1.6450 -0.3396
  974MOL0     H28504   8.012   3.581   5.341  2.1637  1.9787 -1.8648
  974MOL0     H28505   7.765   3.818   5.251  3.3282 -0.4254 -0.6539
  974MOL0     H28506   7.787   3.658   5.331 -2.8913 -1.7935 -0.1670
  974MOL0     H28507   7.621   3.565   5.192 -1.5197  0.2334  0.0014
  974MOL0     H28508   7.591   3.705   5.088 -0.0133 -1.8333 -0.8454
  974MOL0     H28509   7.515   3.833   5.282 -0.0755 -1.1354 -0.4877
  974MOL0     H28510   7.529   3.696   5.390  1.3671  1.4339  0.7052
  974MOL0     H28511   7.371   3.668   5.137  0.6403  5.9639 -1.1165
  974MOL0     H28512   7.351   3.566   5.274 -2.9703  1.3632  1.3115
  974MOL0     H28513   7.154   3.709   5.271 -1.2978  3.6800 -0.4751
  974MOL0     H28514   7.252   3.845   5.256  2.1998 -1.6707  0.4003
  974MOL0     H28515   7.335   3.815   5.494 -1.0602  2.6449 -0.5400
  974MOL0     H28516   7.217   3.691   5.521  1.6429 -0.1655  0.0453
  974MOL0     H28517   7.188   3.958   5.559  0.8917 -1.9606 -0.1310
  974MOL0     H28518   7.132   3.966   5.402  2.9790  0.4238 -0.4305
  974MOL0     H28519   7.002   3.792   5.629 -1.3898 -3.4381 -1.8372
  974MOL0     H28520   6.972   3.775   5.453 -2.9277  0.0355 -0.0032
  974MOL0     H28521   6.911   4.034   5.343 -1.0073  0.5698 -0.0149
  974MOL0     H28522   6.716   4.190   5.296 -0.7756  2.2544  0.1979
  974MOL0     H28523   6.613   4.240   5.432 -0.3742 -0.2142 -1.9392
  974MOL0     H28524   6.485   4.022   5.408  0.1405  3.9098  2.4275
  974MOL0     H28525   6.585   3.981   5.269 -4.7993 -1.7596 -1.0871
  974MOL0     H28526   6.513   4.193   5.163  0.8292 -1.3746 -1.3394
  974MOL0     H28527   6.375   4.082   5.181 -1.4796  1.8842 -0.7633
  974MOL0     H28528   6.400   4.312   5.386 -0.3779 -0.5119  1.3879
  974MOL0     H28529   6.286   4.176   5.377  0.3355  0.8866  1.1312
  974MOL0     H28530   6.164   4.409   5.432  2.8021  1.7127 -2.7821
  974MOL0     H28531   5.896   4.428   5.458  0.3734  1.9179 -0.9994
  974MOL0     H28532   5.463   4.211   5.424 -1.1302  0.4454  1.1951
  974MOL0     H28533   5.216   4.263   5.440  0.5984 -0.8837 -0.3911
  974MOL0     H28534   5.012   4.331   5.424  2.8064  2.8667 -0.7066
  974MOL0     H28535   5.015   4.238   5.273  1.8971 -0.9002  0.5804
  974MOL0     H28536   4.795   4.285   5.261 -1.1310  1.1646  1.4614
  974MOL0     H28537   4.860   4.408   5.171 -0.1036  3.6074  0.8944
  974MOL0     H28538   4.707   4.545   5.310 -1.5776 -0.4883  2.4685
  974MOL0     H28539   4.842   4.539   5.419  1.5476 -2.4510  0.2256
  974MOL0     H28540   4.622   4.337   5.412  1.3880 -2.5859  1.0572
  974MOL0     H28541   4.755   4.322   5.513 -0.9649 -1.3023 -1.2510
  974MOL0     H28542   4.697   4.545   5.614  1.4824  0.7962 -2.4661
  974MOL0     H28543   4.583   4.407   5.642 -0.4805  0.3882 -0.8138
  974MOL0     H28544   4.425   4.508   5.489 -0.8185 -0.0355  0.3158
  974MOL0     H28545   4.546   4.629   5.434 -3.6698 -1.5006 -0.9015
  974MOL0     H28546   4.534   4.743   5.646  0.6951 -2.2001  3.2755
  974MOL0     H28547   4.386   4.738   5.558 -1.4398 -0.2409  2.0120
  974MOL0     H28548   4.345   4.670   5.798 -2.2911 -0.7408 -0.7298
  974MOL0     H28549   4.444   4.521   5.767  1.6271  0.2228 -1.6600
  974MOL0     H28550   5.259   4.509   5.083  1.1300 -0.5824 -1.3575
  974MOL0     H28551   5.498   4.439   5.081 -0.1075  1.9477  2.0342
  974MOL0     H28552   5.830   4.272   5.085 -0.5399 -0.4398  0.3224
  974MOL0     H28553   6.078   4.224   5.055  1.0880  0.1853 -0.9965
  974MOL0     H28554   7.843   3.528   4.947 -1.7435 -0.5359  1.0210
  974MOL0     H28555   8.028   3.332   4.907 -1.2312  0.2697 -1.4400
  974MOL0     H28556   8.581   3.249   4.938  0.4876  0.8910  1.8830
  974MOL0     H28557   8.714   3.060   4.924  1.2926  2.6749  1.7016
  974MOL0     H28558   8.554   2.644   5.024 -0.1649  1.0607 -0.6896
  974MOL0     H28559   8.578   2.714   5.180 -2.5671  3.1200 -1.8397
  974MOL0     H28560   8.825   2.652   5.015 -1.4718 -2.2191 -0.6814
  974MOL0     H28561   8.811   2.671   5.192  0.9207  0.1464  0.0510
  974MOL0     H28562   8.699   2.454   5.012  0.3248  2.7788 -1.6164
  974MOL0     H28563   8.686   2.464   5.190  0.0817  1.5394  0.3680
  974MOL0     H28564   8.918   2.408   5.001 -0.5296 -0.8063 -0.6350
  974MOL0     H28565   8.955   2.439   5.180 -1.4054 -2.8595  3.1754
  974MOL0     H28566   8.835   2.057   5.186 -1.0886  0.7516 -0.0819
  974MOL0     H28567   8.392   2.809   5.093 -2.8377  1.7429  3.8574
  974MOL0     H28568   8.271   2.999   5.131 -0.5378  2.4373 -0.2893
  975MOL0     O28569   4.372   4.211   8.458  0.0083 -0.8788 -0.5194
  975MOL0     C28570   4.406   4.245   8.337  0.6364 -0.0642  0.3863
  975MOL0     O28571   4.327   4.240   8.223 -0.6535 -0.3118 -0.8028
  975MOL0     C28572   4.210   4.174   8.239  0.3533 -0.0888 -0.2738
  975MOL0     C28573   4.184   4.066   8.158  0.7894  0.1451  0.0446
  975MOL0     C28574   4.065   3.988   8.177  0.0793 -0.8304  0.5358
  975MOL0     C28575   3.964   4.021   8.271  0.7748 -0.0746  0.1333
  975MOL0     O28576   3.848   3.946   8.282 -0.2652 -0.9669 -0.2312
  975MOL0     C28577   3.780   3.935   8.413  0.8407 -1.3112  0.2060
  975MOL0     C28578   3.678   3.835   8.422  0.1771  0.0252  0.1294
  975MOL0     C28579   3.711   3.699   8.369 -0.0795  0.4566  0.0805
  975MOL0     C28580   3.835   3.641   8.424 -0.2525 -0.5180  0.0816
  975MOL0     C28581   3.863   3.491   8.385  0.3418 -0.0039 -0.2949
  975MOL0     C28582   3.753   3.397   8.432  0.7259  0.0516  0.5011
  975MOL0     C28583   3.771   3.268   8.353 -0.3287  1.4399  0.4936
  975MOL0     C28584   3.667   3.150   8.379  0.7828 -0.4319  0.3058
  975MOL0     N28585   3.529   3.191   8.339 -0.0608 -0.2414 -0.5490
  975MOL0     C28586   3.410   3.158   8.396  0.2124 -0.3795  0.3537
  975MOL0     C28587   3.314   3.163   8.293  0.3347  0.3827  0.1779
  975MOL0     C28588   3.174   3.129   8.307 -0.1202 -0.2571 -0.4253
  975MOL0     C28589   3.086   3.256   8.298  0.2173  0.6052  0.1928
  975MOL0     C28590   2.941   3.225   8.340  0.0379 -1.0117  0.5250
  975MOL0     C28591   2.868   3.354   8.382 -0.2779 -0.4571  1.7086
  975MOL0     O28592   2.736   3.310   8.423  0.2190  0.6326  0.1029
  975MOL0     C28593   2.629   3.389   8.419 -0.1028  0.6437 -0.6256
  975MOL0     C28594   2.639   3.523   8.462 -0.1081 -0.2409  0.0664
  975MOL0     C28595   2.528   3.609   8.479  0.2848 -0.3539  0.0758
  975MOL0     C28596   2.399   3.549   8.444 -0.5795  0.1606 -0.3764
  975MOL0     C28597   2.275   3.625   8.474 -0.5732  0.0737 -0.6578
  975MOL0     O28598   2.162   3.589   8.410 -0.3147 -0.6467 -0.2232
  975MOL0     C28599   2.039   3.637   8.443  0.1731  0.2053 -0.3866
  975MOL0     C28600   1.936   3.542   8.450  0.6774  1.0825 -0.1951
  975MOL0     C28601   1.808   3.574   8.485  0.6761 -0.9394 -0.1891
  975MOL0     C28602   1.780   3.716   8.494  0.2228  0.4299  0.6034
  975MOL0     O28603   1.651   3.757   8.508  0.9387  0.6522  0.5154
  975MOL0     C28604   1.572   3.711   8.396  0.1967 -0.5817  0.7188
  975MOL0     C28605   1.424   3.735   8.428  0.4806 -0.0253  0.5788
  975MOL0     C28606   1.357   3.624   8.512  0.2156  0.2249 -0.4785
  975MOL0     C28607   1.208   3.649   8.526 -0.3616 -0.4643 -0.0262
  975MOL0     C28608   1.133   3.523   8.578  0.0758 -0.7622  0.2664
  975MOL0     C28609   0.979   3.533   8.583  0.8428 -0.3133 -0.3819
  975MOL0     C28610   0.925   3.404   8.641 -0.6192 -0.1197 -0.2626
  975MOL0     C28611   0.770   3.400   8.634 -0.6686 -0.0264  0.6573
  975MOL0    Cl28612   0.706   3.397   8.465 -0.1950  0.1447  0.0857
  975MOL0     C28613   1.875   3.809   8.476 -0.9987  0.2362  0.9073
  975MOL0     C28614   2.015   3.773   8.450  0.3484 -0.1422 -0.3928
  975MOL0     O28615   2.278   3.677   8.591  0.1948  0.3569 -0.1005
  975MOL0     C28616   2.383   3.417   8.397  0.8291  0.3765  0.2292
  975MOL0     C28617   2.502   3.335   8.381  0.0920 -0.0761 -0.9797
  975MOL0     N28618   3.375   3.195   8.180  0.8217  0.3696 -0.1010
  975MOL0     N28619   3.499   3.211   8.210 -0.8150 -0.6393  1.4155
  975MOL0     C28620   3.987   4.140   8.343 -0.5670 -0.3385  0.1679
  975MOL0     C28621   4.112   4.217   8.336  0.3225 -1.3111  0.7682
  975MOL0     C28622   4.547   4.294   8.316  0.3731 -0.3112  0.3358
  975MOL0     C28623   4.585   4.343   8.193  1.3318 -0.1370 -0.1326
  975MOL0     C28624   4.714   4.380   8.166 -0.1354 -0.5297 -0.2757
  975MOL0     C28625   4.811   4.380   8.266  0.0625  0.2517 -0.3147
  975MOL0     O28626   4.940   4.433   8.240 -0.8572 -0.2650 -0.4008
  975MOL0     C28627   5.036   4.444   8.351 -0.1712  1.0104 -0.2309
  975MOL0     C28628   5.168   4.471   8.295  1.0201  0.1065 -0.2377
  975MOL0     C28629   5.168   4.607   8.221 -0.0116 -0.2050 -0.1493
  975MOL0     C28630   5.087   4.716   8.291 -0.0619 -0.3257 -0.3121
  975MOL0     C28631   5.089   4.838   8.208 -0.5508 -0.4135 -0.1457
  975MOL0     C28632   5.095   4.937   8.130 -0.2724  0.3404  0.7234
  975MOL0     C28633   4.771   4.346   8.400 -0.4217 -0.1380  0.2490
  975MOL0     C28634   4.635   4.305   8.423 -0.1477  0.2299  0.2520
  975MOL0     H28635   4.260   4.047   8.082  1.4682 -0.4104  0.8493
  975MOL0     H28636   4.050   3.901   8.114 -0.5714  0.0581 -0.5933
  975MOL0     H28637   3.729   4.030   8.430  2.2243 -0.5516  0.3270
  975MOL0     H28638   3.846   3.930   8.500  0.7328 -0.5308  0.3433
  975MOL0     H28639   3.596   3.872   8.360 -0.6285 -2.4815 -0.4043
  975MOL0     H28640   3.631   3.834   8.521 -1.7348  0.6405 -0.7138
  975MOL0     H28641   3.714   3.716   8.261 -1.4904  0.7094  0.0502
  975MOL0     H28642   3.625   3.635   8.393  1.1628 -0.1749  3.3084
  975MOL0     H28643   3.922   3.693   8.382 -0.1413  0.5728  1.5651
  975MOL0     H28644   3.834   3.652   8.533  2.1683 -2.1481  0.3733
  975MOL0     H28645   3.960   3.457   8.422  0.9042  0.5897 -1.1892
  975MOL0     H28646   3.865   3.479   8.276 -1.5825 -1.0392 -0.2685
  975MOL0     H28647   3.653   3.432   8.409  0.8388 -2.0776 -4.4270
  975MOL0     H28648   3.766   3.385   8.540 -1.0613 -1.0128  0.6370
  975MOL0     H28649   3.761   3.299   8.249  0.3669  0.4725  0.1267
  975MOL0     H28650   3.872   3.227   8.356 -0.9165 -0.3555 -1.7495
  975MOL0     H28651   3.667   3.113   8.481 -0.0757 -3.3889 -0.6749
  975MOL0     H28652   3.711   3.075   8.312  3.0637  0.2848  0.9014
  975MOL0     H28653   3.386   3.116   8.493  0.2614  0.2898  0.6538
  975MOL0     H28654   3.163   3.084   8.406 -0.2750  2.8960  1.1198
  975MOL0     H28655   3.148   3.059   8.227 -1.2948  0.8017 -1.0182
  975MOL0     H28656   3.099   3.301   8.199  0.3838 -0.5583 -0.3412
  975MOL0     H28657   3.121   3.332   8.368  1.8596 -0.6068  0.7518
  975MOL0     H28658   2.885   3.194   8.252  0.1419  0.3410 -0.0456
  975MOL0     H28659   2.940   3.160   8.428  0.7800 -0.0752  1.2530
  975MOL0     H28660   2.868   3.423   8.297  2.9913 -2.4009 -0.0947
  975MOL0     H28661   2.914   3.402   8.469  2.4257  0.7753 -0.2625
  975MOL0     H28662   2.737   3.563   8.488  1.0161 -0.5909 -3.1934
  975MOL0     H28663   2.552   3.713   8.501  3.7346 -0.9272 -0.4753
  975MOL0     H28664   1.973   3.440   8.446  0.9970  1.0733  1.8588
  975MOL0     H28665   1.733   3.495   8.483  1.2230 -1.4963 -2.4906
  975MOL0     H28666   1.577   3.603   8.376 -0.8651 -1.0607  2.6933
  975MOL0     H28667   1.608   3.766   8.309  0.1366  1.5526  1.9667
  975MOL0     H28668   1.379   3.741   8.329 -0.6142 -2.3420  0.8391
  975MOL0     H28669   1.399   3.832   8.472  0.3117  0.4171 -0.4618
  975MOL0     H28670   1.400   3.621   8.613  2.3597 -3.8986 -1.2621
  975MOL0     H28671   1.388   3.530   8.465  1.4220 -0.2023  1.0725
  975MOL0     H28672   1.181   3.738   8.584 -1.0035 -1.1428  0.7533
  975MOL0     H28673   1.164   3.669   8.428 -2.3059  0.7892  1.0411
  975MOL0     H28674   1.172   3.513   8.680 -0.1540  0.7446  0.5293
  975MOL0     H28675   1.161   3.433   8.523  1.2532  1.1177 -2.4680
  975MOL0     H28676   0.940   3.563   8.485 -1.4828 -3.2959 -0.5356
  975MOL0     H28677   0.942   3.606   8.655 -1.8035 -1.7066 -0.1958
  975MOL0     H28678   0.969   3.323   8.583 -0.3115 -0.5278  0.5235
  975MOL0     H28679   0.954   3.376   8.743  1.4026  1.3677 -0.3642
  975MOL0     H28680   0.727   3.482   8.693 -1.1006 -1.7917  2.9436
  975MOL0     H28681   0.737   3.305   8.677  0.9840  0.2023  2.5782
  975MOL0     H28682   1.850   3.915   8.471  2.1672  1.0765  0.5717
  975MOL0     H28683   2.083   3.857   8.439  1.5998 -1.0619  0.0966
  975MOL0     H28684   2.286   3.373   8.377  0.3969  1.2761  0.3083
  975MOL0     H28685   2.499   3.231   8.352  3.1576  0.0412 -2.1446
  975MOL0     H28686   3.927   4.176   8.426 -0.2496  2.0045 -0.5387
  975MOL0     H28687   4.138   4.302   8.398  1.0638 -0.8646 -0.1330
  975MOL0     H28688   4.520   4.354   8.107  0.6895 -0.8383  0.2505
  975MOL0     H28689   4.744   4.413   8.067  0.4954 -2.0359 -0.6038
  975MOL0     H28690   5.043   4.355   8.414 -1.7589  2.3888  2.0557
  975MOL0     H28691   4.993   4.522   8.414  1.4992  1.5784  0.2428
  975MOL0     H28692   5.238   4.472   8.380 -1.4519  0.7186  1.9182
  975MOL0     H28693   5.189   4.394   8.221 -1.0161  1.5141 -2.4045
  975MOL0     H28694   5.135   4.588   8.119  5.3175 -1.5192 -1.9188
  975MOL0     H28695   5.268   4.649   8.205 -0.1035 -0.0092 -0.2177
  975MOL0     H28696   4.984   4.682   8.300  0.2208 -1.4916 -1.2475
  975MOL0     H28697   5.127   4.735   8.391  2.4571 -1.7371 -0.9677
  975MOL0     H28698   5.100   5.022   8.065  0.0230  1.0896  1.7020
  975MOL0     H28699   4.841   4.341   8.482  3.3711  0.3652 -2.6765
  975MOL0     H28700   4.602   4.276   8.523 -1.1284 -0.0265 -0.1301
  976MOL0     O28701   9.825  10.025   7.701  0.1453  0.2678 -0.2755
  976MOL0     C28702   9.897   9.961   7.780 -0.4307  0.4542  0.7735
  976MOL0     O28703   9.862   9.837   7.826  0.4621 -0.0234  0.1260
  976MOL0     C28704   9.739   9.787   7.791 -0.3929  0.0229  0.7284
  976MOL0     C28705   9.641   9.797   7.884 -0.4353 -0.5784  0.1940
  976MOL0     C28706   9.510   9.758   7.847 -0.9535  0.5389 -0.1053
  976MOL0     C28707   9.488   9.703   7.723  0.4938  0.1546 -0.2699
  976MOL0     O28708   9.360   9.662   7.684 -0.1693  0.1837 -0.3327
  976MOL0     C28709   9.245   9.684   7.758  0.7892  0.2232  0.5402
  976MOL0     C28710   9.123   9.652   7.657  0.6925  0.6298 -0.5504
  976MOL0     C28711   8.991   9.662   7.733  0.0947  0.2679  0.6399
  976MOL0     C28712   8.982   9.563   7.853  0.7600  0.1184  0.8720
  976MOL0     C28713   8.863   9.585   7.946 -0.3533 -0.5819  0.9215
  976MOL0     C28714   8.730   9.621   7.868 -1.0888 -0.2625 -0.1505
  976MOL0     C28715   8.610   9.630   7.966  0.7102 -0.9226 -1.1744
  976MOL0     C28716   8.481   9.620   7.890  0.3085 -0.5978  0.6291
  976MOL0     N28717   8.441   9.483   7.875 -0.7452 -0.8109 -0.1576
  976MOL0     C28718   8.343   9.451   7.784 -0.7307  0.1326  0.1992
  976MOL0     C28719   8.315   9.325   7.818  1.2550  0.1316  0.5716
  976MOL0     C28720   8.226   9.230   7.739  0.8734  0.0037  0.4769
  976MOL0     C28721   8.076   9.263   7.736 -0.5555  0.2512 -0.2876
  976MOL0     C28722   7.998   9.162   7.657  0.2462 -0.2429 -0.3231
  976MOL0     C28723   7.851   9.171   7.670  0.2267 -1.0695  0.3406
  976MOL0     O28724   7.818   9.134   7.802 -0.0272 -0.0134 -0.8417
  976MOL0     C28725   7.688   9.149   7.844  0.6207  0.9433  0.1263
  976MOL0     C28726   7.581   9.195   7.761 -0.4660 -0.3215  0.1673
  976MOL0     C28727   7.456   9.221   7.815  0.6489 -0.4102 -0.1530
  976MOL0     C28728   7.427   9.186   7.954  0.4052  0.3255  0.6119
  976MOL0     C28729   7.289   9.195   8.011  0.0561 -0.0936  0.2600
  976MOL0     O28730   7.248   9.098   8.088  0.3090  0.4765  0.1341
  976MOL0     C28731   7.118   9.091   8.131  0.2639 -0.2514  0.3487
  976MOL0     C28732   7.101   9.031   8.249 -0.3017  0.3233 -0.5238
  976MOL0     C28733   6.976   9.015   8.311 -0.3254  0.5092 -0.8730
  976MOL0     C28734   6.861   9.051   8.248  0.4516  0.6917  0.9324
  976MOL0     O28735   6.731   9.047   8.304 -0.4108  0.0474 -0.9015
  976MOL0     C28736   6.708   8.941   8.403 -0.8568 -0.5652 -0.1950
  976MOL0     C28737   6.564   8.925   8.447 -0.6652 -0.6825  0.0620
  976MOL0     C28738   6.491   8.857   8.322  0.1285 -0.6885  0.0593
  976MOL0     C28739   6.410   8.958   8.236  0.3438  0.4373 -0.1460
  976MOL0     C28740   6.312   8.913   8.136  0.3868  1.1290  0.3963
  976MOL0     C28741   6.378   8.803   8.050  0.8156 -0.2024 -0.0820
  976MOL0     C28742   6.282   8.787   7.937  0.5266  0.1238  0.6410
  976MOL0     C28743   6.335   8.697   7.826  0.4604  0.7327 -1.0037
  976MOL0    Cl28744   6.289   8.530   7.873 -0.1085 -0.3183  0.2196
  976MOL0     C28745   6.873   9.117   8.125  0.1213 -0.4310  0.1463
  976MOL0     C28746   7.003   9.139   8.065 -0.1096  0.1506 -0.5380
  976MOL0     O28747   7.219   9.282   7.955  0.3239 -0.1766 -0.1723
  976MOL0     C28748   7.535   9.144   8.037 -0.2294 -0.5447  0.7104
  976MOL0     C28749   7.663   9.123   7.983 -0.5935 -0.5783 -0.9389
  976MOL0     N28750   8.382   9.286   7.936  0.4326  0.8874 -0.1229
  976MOL0     N28751   8.462   9.380   7.971 -0.1095 -0.4546 -0.1115
  976MOL0     C28752   9.590   9.686   7.631 -1.3618  0.2296  0.5448
  976MOL0     C28753   9.715   9.728   7.661  0.2136 -0.6695 -0.3812
  976MOL0     C28754  10.029  10.016   7.806  0.0447 -0.1483 -0.6926
  976MOL0     C28755  10.062  10.142   7.751 -0.1935 -0.3918 -0.2020
  976MOL0     C28756  10.187  10.196   7.792  0.8101  0.3331 -0.2763
  976MOL0     C28757  10.282  10.131   7.872  0.3431 -0.4443 -0.3799
  976MOL0     O28758  10.403  10.195   7.894 -0.0860 -0.0575  0.0985
  976MOL0     C28759  10.522  10.119   7.923  0.4406 -0.0316 -1.2633
  976MOL0     C28760  10.596  10.093   7.789 -0.3407  0.3866 -0.5445
  976MOL0     C28761  10.728  10.016   7.790 -0.4779  0.2274 -0.1686
  976MOL0     C28762  10.730   9.878   7.863 -1.0654 -0.7386  0.2156
  976MOL0     C28763  10.804   9.780   7.790  0.8913 -0.1738 -0.2910
  976MOL0     C28764  10.882   9.713   7.727  0.4832  0.7522 -0.5872
  976MOL0     C28765  10.257   9.997   7.909 -0.5114 -0.7438 -0.4977
  976MOL0     C28766  10.132   9.946   7.878  0.0472  0.4438 -0.2514
  976MOL0     H28767   9.659   9.849   7.978 -1.0998 -0.4559  0.2588
  976MOL0     H28768   9.434   9.752   7.923  2.4328 -2.9334  3.4312
  976MOL0     H28769   9.235   9.791   7.778 -3.9929  0.2347 -0.7901
  976MOL0     H28770   9.242   9.636   7.856 -0.6774  0.7197  0.7583
  976MOL0     H28771   9.141   9.548   7.632  0.7175  0.6000 -0.4111
  976MOL0     H28772   9.127   9.706   7.562 -3.7923  0.6855 -0.9292
  976MOL0     H28773   8.914   9.634   7.661  0.4855 -0.4772  0.5056
  976MOL0     H28774   8.979   9.767   7.764  0.0229  0.9071 -1.4247
  976MOL0     H28775   8.983   9.462   7.811  2.8913  1.1936 -1.9624
  976MOL0     H28776   9.069   9.550   7.918  0.8037  0.9438  0.9936
  976MOL0     H28777   8.891   9.669   8.009  2.2600  1.9772 -3.2115
  976MOL0     H28778   8.850   9.488   7.996 -1.6127 -2.4366 -2.6348
  976MOL0     H28779   8.712   9.536   7.801 -1.3152 -1.8117  1.7999
  976MOL0     H28780   8.736   9.715   7.812 -0.4855  0.6085  1.3259
  976MOL0     H28781   8.607   9.553   8.045  0.5840  0.6147  0.3879
  976MOL0     H28782   8.619   9.723   8.023 -0.0743 -1.8149  0.4861
  976MOL0     H28783   8.494   9.665   7.791  2.0333 -1.7225  0.3031
  976MOL0     H28784   8.409   9.672   7.954  1.5086  0.9817  0.7745
  976MOL0     H28785   8.305   9.493   7.691  0.4834 -1.3119 -1.0178
  976MOL0     H28786   8.238   9.129   7.781  0.5507 -0.3443 -0.2510
  976MOL0     H28787   8.258   9.229   7.635 -0.7775 -0.3149 -0.0646
  976MOL0     H28788   8.067   9.361   7.688  4.3926  0.7453 -0.6893
  976MOL0     H28789   8.043   9.256   7.840  1.7867 -4.6525  0.4145
  976MOL0     H28790   8.028   9.161   7.552 -0.1271  0.2839 -0.4410
  976MOL0     H28791   8.019   9.065   7.701  0.4768  0.5815  1.5015
  976MOL0     H28792   7.791   9.116   7.597  0.4954 -0.1932 -0.5493
  976MOL0     H28793   7.818   9.272   7.647  0.4878 -1.5418 -2.3730
  976MOL0     H28794   7.597   9.230   7.660 -1.0350  3.3517  1.1930
  976MOL0     H28795   7.373   9.269   7.763  0.6987  0.9549  0.9511
  976MOL0     H28796   7.189   8.990   8.298 -0.6171 -0.9553 -0.9865
  976MOL0     H28797   6.981   8.977   8.413  0.4043  0.1468 -1.0341
  976MOL0     H28798   6.780   8.963   8.482  1.2912 -2.6892 -1.4125
  976MOL0     H28799   6.737   8.844   8.359 -0.5193 -1.1165  1.1843
  976MOL0     H28800   6.528   9.026   8.467 -0.5968 -0.3630 -1.2941
  976MOL0     H28801   6.566   8.863   8.537 -1.3967 -0.8781 -0.0594
  976MOL0     H28802   6.419   8.792   8.372 -0.6409 -2.4081 -3.0669
  976MOL0     H28803   6.562   8.799   8.261 -1.4988 -1.9465 -0.7053
  976MOL0     H28804   6.352   9.014   8.310  1.3641 -1.1131  1.9144
  976MOL0     H28805   6.477   9.026   8.183  1.6537 -1.2014 -0.6967
  976MOL0     H28806   6.294   9.005   8.079  3.5411 -0.2942 -3.3662
  976MOL0     H28807   6.220   8.882   8.185 -0.2225  0.3692 -1.1584
  976MOL0     H28808   6.381   8.713   8.112 -0.1105  0.8646  1.6027
  976MOL0     H28809   6.478   8.827   8.013 -1.0109  0.1855 -5.7507
  976MOL0     H28810   6.178   8.762   7.958  0.2113  1.4358  0.7451
  976MOL0     H28811   6.269   8.884   7.889  0.4768  0.9481  2.2403
  976MOL0     H28812   6.443   8.714   7.822  0.5027  1.7927  2.0262
  976MOL0     H28813   6.281   8.726   7.735 -3.3698 -2.7527 -0.1191
  976MOL0     H28814   6.781   9.153   8.079  0.1318  1.3797  1.4450
  976MOL0     H28815   7.012   9.189   7.969  0.1670  1.2411  0.0406
  976MOL0     H28816   7.517   9.130   8.143  1.0457  0.8814  1.1625
  976MOL0     H28817   7.743   9.080   8.044 -1.8291 -0.6693  0.6877
  976MOL0     H28818   9.572   9.625   7.542 -1.9770  0.7833  0.2784
  976MOL0     H28819   9.792   9.714   7.586  0.8846  0.9369 -0.0426
  976MOL0     H28820  10.004  10.201   7.682  1.2901  0.2350 -0.9617
  976MOL0     H28821  10.211  10.298   7.765  1.4124  0.2324 -0.1298
  976MOL0     H28822  10.507  10.020   7.969 -0.1278  1.0808  1.1414
  976MOL0     H28823  10.592  10.179   7.982  0.9126  0.4074 -2.2596
  976MOL0     H28824  10.532  10.025   7.730  0.6864  0.8347 -2.2584
  976MOL0     H28825  10.620  10.187   7.738  2.1512  0.0429 -0.1119
  976MOL0     H28826  10.797  10.085   7.841 -0.7442  0.1870  0.2505
  976MOL0     H28827  10.761  10.006   7.686  0.2467  5.8053 -0.8075
  976MOL0     H28828  10.771   9.906   7.961 -0.8794  0.2052 -0.1147
  976MOL0     H28829  10.635   9.835   7.894  0.6084 -5.8661 -0.8056
  976MOL0     H28830  10.964   9.663   7.679  1.6113  2.9552 -1.0861
  976MOL0     H28831  10.321   9.937   7.973 -1.5802 -1.8164 -0.3990
  976MOL0     H28832  10.122   9.843   7.910  0.3783  0.2155 -0.8770
  977MOL0     O28833   5.353   8.812   4.730  0.9041 -0.5843  0.3059
  977MOL0     C28834   5.449   8.742   4.772  0.5299 -0.9106 -0.0247
  977MOL0     O28835   5.445   8.622   4.836  0.8883 -0.1366  1.0349
  977MOL0     C28836   5.327   8.556   4.863 -0.5209  0.0046 -0.1371
  977MOL0     C28837   5.307   8.497   4.987  0.0028  0.1620  1.0264
  977MOL0     C28838   5.180   8.453   5.033  0.0153 -0.6725  0.1979
  977MOL0     C28839   5.061   8.475   4.956 -0.1882 -0.2782 -0.2181
  977MOL0     O28840   4.939   8.461   5.016 -0.4659 -0.2330 -0.8584
  977MOL0     C28841   4.824   8.518   4.960  0.2588  0.0520 -0.2476
  977MOL0     C28842   4.701   8.522   5.059  0.0123  0.3037  0.8668
  977MOL0     C28843   4.728   8.597   5.185  0.0032 -0.3322 -0.8732
  977MOL0     C28844   4.619   8.592   5.287  0.7771  0.9011 -0.3697
  977MOL0     C28845   4.656   8.684   5.409 -0.2372  0.4153 -0.5413
  977MOL0     C28846   4.559   8.677   5.518 -0.4013 -0.6818  0.4187
  977MOL0     C28847   4.427   8.742   5.472 -0.3770 -0.4150 -0.0829
  977MOL0     C28848   4.359   8.762   5.612 -0.4580  0.3741 -0.7914
  977MOL0     N28849   4.230   8.823   5.593 -0.2853 -0.4940 -0.3371
  977MOL0     C28850   4.222   8.952   5.569 -0.6354 -0.5540 -0.2495
  977MOL0     C28851   4.092   8.982   5.586  0.8238 -0.0843  0.0500
  977MOL0     C28852   4.039   9.125   5.574 -0.0866 -0.5614  0.3303
  977MOL0     C28853   4.033   9.187   5.709 -0.0949  0.5646  0.5774
  977MOL0     C28854   3.993   9.097   5.825 -0.3153 -0.2281 -0.2804
  977MOL0     C28855   3.850   9.040   5.825  0.6912  0.5435  1.1010
  977MOL0     O28856   3.758   9.143   5.835  0.1175 -0.1122  0.0678
  977MOL0     C28857   3.629   9.134   5.791  0.2939 -0.4779 -0.5129
  977MOL0     C28858   3.558   9.246   5.745 -0.4430 -1.1941  0.2535
  977MOL0     C28859   3.428   9.223   5.692  0.1118 -0.9441 -0.1791
  977MOL0     C28860   3.368   9.102   5.681 -0.3143  0.5488  0.0424
  977MOL0     C28861   3.236   9.086   5.619 -1.1063 -0.1097 -0.5953
  977MOL0     O28862   3.207   8.964   5.575  0.0310 -0.0647  0.1224
  977MOL0     C28863   3.085   8.940   5.515 -1.1084  0.1521  0.7178
  977MOL0     C28864   3.098   8.885   5.384  0.2892 -0.7843 -0.2606
  977MOL0     C28865   2.987   8.848   5.316  0.4084 -0.0155  0.0280
  977MOL0     C28866   2.858   8.873   5.370  0.4266 -0.1800  0.2665
  977MOL0     O28867   2.752   8.831   5.312  0.9338 -0.5015 -0.5495
  977MOL0     C28868   2.744   8.686   5.303 -0.0716 -0.9881  0.0334
  977MOL0     C28869   2.593   8.655   5.263  0.4905 -0.5321  0.0257
  977MOL0     C28870   2.495   8.677   5.375 -0.3739 -0.4018 -0.3895
  977MOL0     C28871   2.358   8.630   5.337 -0.5508 -0.3376  0.2736
  977MOL0     C28872   2.259   8.670   5.454  1.0308  0.9316  0.5154
  977MOL0     C28873   2.124   8.618   5.405  0.1681 -0.7503 -0.1704
  977MOL0     C28874   2.029   8.656   5.519 -1.3722  0.8213 -0.1499
  977MOL0     C28875   1.888   8.645   5.466  0.2816 -0.4927  0.0048
  977MOL0    Cl28876   1.771   8.690   5.591  0.0644 -0.4306 -0.0520
  977MOL0     C28877   2.852   8.948   5.488 -0.4023 -0.2630  0.2405
  977MOL0     C28878   2.961   8.969   5.570  0.2606 -0.5121  0.1921
  977MOL0     O28879   3.158   9.186   5.610 -0.5970 -0.4097  0.0069
  977MOL0     C28880   3.440   8.987   5.716  1.7821  0.4834  0.2564
  977MOL0     C28881   3.566   9.005   5.778  0.5274  0.1912 -0.3815
  977MOL0     N28882   4.024   8.863   5.592 -0.3165  0.5400 -0.6228
  977MOL0     N28883   4.104   8.764   5.608 -0.3786 -0.5587  0.5132
  977MOL0     C28884   5.091   8.506   4.815 -0.3766 -0.0413  0.5050
  977MOL0     C28885   5.220   8.542   4.770  0.9133  0.2617 -0.2959
  977MOL0     C28886   5.581   8.787   4.736 -0.0212 -0.7430 -0.0067
  977MOL0     C28887   5.602   8.922   4.700  1.1255  0.0666 -0.2153
  977MOL0     C28888   5.729   8.964   4.664  0.1999  0.9157 -0.0317
  977MOL0     C28889   5.835   8.882   4.645 -0.2521 -0.3808 -0.0357
  977MOL0     O28890   5.946   8.943   4.587 -0.3341  0.1497  0.2844
  977MOL0     C28891   6.046   8.854   4.541 -0.0395 -1.0907  0.1658
  977MOL0     C28892   6.168   8.854   4.626 -0.1923  0.1410  0.3610
  977MOL0     C28893   6.149   8.784   4.761 -0.3788 -0.4047  0.6313
  977MOL0     C28894   6.285   8.777   4.825  0.7860 -0.1081  0.5241
  977MOL0     C28895   6.370   8.665   4.775 -0.1271 -1.0722 -0.3263
  977MOL0     C28896   6.435   8.575   4.734  0.7633  0.3612  0.8986
  977MOL0     C28897   5.821   8.741   4.687  0.5378 -0.4632  0.0232
  977MOL0     C28898   5.696   8.702   4.731  0.6803 -0.2973 -0.4455
  977MOL0     H28899   5.400   8.490   5.043  0.7425  1.5611  0.0440
  977MOL0     H28900   5.148   8.427   5.133 -0.7533  1.9255  0.7095
  977MOL0     H28901   4.800   8.469   4.865  0.6409 -2.6274  0.9509
  977MOL0     H28902   4.859   8.618   4.932  0.3255  0.6378  1.8205
  977MOL0     H28903   4.674   8.418   5.079 -0.0285  0.2396  0.4820
  977MOL0     H28904   4.622   8.574   5.004 -0.9774 -3.6456 -1.8895
  977MOL0     H28905   4.757   8.701   5.164  0.7499  0.1434  2.1090
  977MOL0     H28906   4.815   8.560   5.238  1.2971  2.2743 -0.9908
  977MOL0     H28907   4.521   8.615   5.242  0.3155 -2.2736 -1.1845
  977MOL0     H28908   4.603   8.490   5.320  0.4205  0.8054 -0.8187
  977MOL0     H28909   4.682   8.789   5.390 -3.3097  1.6769  1.5171
  977MOL0     H28910   4.746   8.635   5.446 -0.2227  0.9681  0.1682
  977MOL0     H28911   4.598   8.726   5.608 -2.5744  0.2732  0.8915
  977MOL0     H28912   4.552   8.572   5.550 -0.0712 -0.9267 -0.2809
  977MOL0     H28913   4.432   8.844   5.431 -0.7269 -0.6197 -0.6367
  977MOL0     H28914   4.354   8.687   5.413 -0.1621  1.8743 -2.6867
  977MOL0     H28915   4.422   8.825   5.675 -0.5261 -1.9150  1.7950
  977MOL0     H28916   4.336   8.675   5.675  0.2313  3.5500  4.3736
  977MOL0     H28917   4.297   9.030   5.565  1.4607 -2.4860 -0.2003
  977MOL0     H28918   3.938   9.138   5.534  0.1806  5.7039  0.6943
  977MOL0     H28919   4.106   9.192   5.518  0.4126  0.1287  1.7141
  977MOL0     H28920   3.961   9.270   5.709  0.2278  0.8766  1.9137
  977MOL0     H28921   4.134   9.227   5.715 -0.5052  2.3493 -2.3583
  977MOL0     H28922   4.057   9.008   5.833  0.6203  0.1371 -2.9070
  977MOL0     H28923   4.007   9.162   5.912 -2.2550 -1.0863  0.7283
  977MOL0     H28924   3.848   8.970   5.909 -2.8010 -1.0209 -0.1169
  977MOL0     H28925   3.831   8.993   5.728 -0.2324  2.6204  0.2242
  977MOL0     H28926   3.609   9.341   5.738 -0.6692 -1.1214 -0.5672
  977MOL0     H28927   3.382   9.313   5.652  2.3204  0.4771  0.2761
  977MOL0     H28928   3.200   8.899   5.351  0.8885  1.5206  2.2049
  977MOL0     H28929   2.998   8.794   5.222  1.6115 -0.3318  0.3285
  977MOL0     H28930   2.776   8.645   5.399  1.2646 -2.7611 -1.0993
  977MOL0     H28931   2.815   8.652   5.227  1.7658  0.3289  1.0905
  977MOL0     H28932   2.565   8.553   5.236 -1.5218  0.0709 -0.3673
  977MOL0     H28933   2.566   8.719   5.178 -0.2957 -1.5600 -0.5187
  977MOL0     H28934   2.490   8.782   5.406  2.1602 -0.4060  0.3149
  977MOL0     H28935   2.540   8.630   5.463  2.8512  2.9659 -0.0102
  977MOL0     H28936   2.318   8.689   5.254 -3.8441  0.4079  2.2107
  977MOL0     H28937   2.354   8.524   5.308  0.9866  0.1862 -2.2434
  977MOL0     H28938   2.260   8.779   5.464  0.5000  1.0497 -0.5704
  977MOL0     H28939   2.296   8.618   5.543 -0.6622 -2.7367 -0.7256
  977MOL0     H28940   2.137   8.509   5.396 -1.8644 -1.0780  0.3145
  977MOL0     H28941   2.102   8.660   5.307  2.2087 -0.6414 -0.6192
  977MOL0     H28942   2.041   8.583   5.599 -0.6108  2.5512  1.3797
  977MOL0     H28943   2.047   8.758   5.555  1.6495  1.3233 -2.6811
  977MOL0     H28944   1.865   8.545   5.427 -0.2488 -1.9205  3.5864
  977MOL0     H28945   1.889   8.720   5.386  0.4494 -1.5743 -1.0492
  977MOL0     H28946   2.754   8.974   5.526 -0.0701 -2.4138  2.8971
  977MOL0     H28947   2.957   9.024   5.663  0.7638  0.1828 -0.1891
  977MOL0     H28948   3.384   8.894   5.706  2.4903 -0.0729  1.2599
  977MOL0     H28949   3.632   8.919   5.789  0.6788 -0.1798 -3.3756
  977MOL0     H28950   5.009   8.529   4.748  0.6296  0.1932 -0.6927
  977MOL0     H28951   5.232   8.584   4.671  2.2858 -0.0899 -0.3055
  977MOL0     H28952   5.522   8.992   4.722 -1.7856 -2.9977 -0.1552
  977MOL0     H28953   5.756   9.069   4.665 -0.1055  1.0183  1.6530
  977MOL0     H28954   6.076   8.896   4.444  0.7716 -3.0431 -0.4812
  977MOL0     H28955   6.009   8.752   4.527 -1.5253 -0.1912 -4.0775
  977MOL0     H28956   6.251   8.800   4.580 -0.1270 -0.0539  0.6995
  977MOL0     H28957   6.193   8.960   4.629  0.5424  0.0058 -0.6336
  977MOL0     H28958   6.103   8.684   4.752 -2.3516  0.5042 -0.0414
  977MOL0     H28959   6.082   8.849   4.818 -0.2844  2.1317 -1.9289
  977MOL0     H28960   6.334   8.874   4.810 -0.2057  0.6640  1.9695
  977MOL0     H28961   6.262   8.763   4.931 -4.8963 -3.0203 -0.7022
  977MOL0     H28962   6.495   8.489   4.715 -0.3948  0.2574 -3.4364
  977MOL0     H28963   5.905   8.674   4.698  1.2025  0.7450  3.9100
  977MOL0     H28964   5.695   8.594   4.746 -1.8536 -0.3230 -0.4457
  978MOL0     O28965   3.235   7.091   1.757  0.7047 -0.1783  1.0879
  978MOL0     C28966   3.241   7.070   1.881  0.2883  0.0351  0.0705
  978MOL0     O28967   3.130   7.048   1.969 -0.0078  0.2050 -0.2286
  978MOL0     C28968   3.005   7.020   1.912 -0.1773 -0.5685  0.5034
  978MOL0     C28969   2.944   7.100   1.812  0.1518 -0.1491 -0.6214
  978MOL0     C28970   2.809   7.089   1.793 -0.0304 -1.0337 -0.1084
  978MOL0     C28971   2.722   7.006   1.859  0.3178 -0.0461 -0.0758
  978MOL0     O28972   2.589   6.982   1.832 -0.6466 -0.1269  0.0513
  978MOL0     C28973   2.503   7.092   1.864  0.0959  0.4277 -0.1806
  978MOL0     C28974   2.366   7.021   1.849  0.2072  0.5865 -0.6678
  978MOL0     C28975   2.334   6.916   1.958  0.2543 -0.3489  0.0537
  978MOL0     C28976   2.199   6.847   1.931  0.2165 -0.0685  0.2360
  978MOL0     C28977   2.067   6.942   1.938  0.1129  1.0200 -0.3725
  978MOL0     C28978   1.940   6.879   1.880 -1.0140  0.8462 -0.4603
  978MOL0     C28979   1.914   6.743   1.941  0.2305  0.0063  0.8139
  978MOL0     C28980   1.767   6.699   1.906 -0.2546 -1.1532 -0.6131
  978MOL0     N28981   1.661   6.770   1.987  0.1843  0.4165  0.1981
  978MOL0     C28982   1.580   6.872   1.938 -1.0686  0.2535  0.8130
  978MOL0     C28983   1.532   6.941   2.036 -0.1174  0.2040 -0.7001
  978MOL0     C28984   1.432   7.062   2.019  0.9561 -0.3647  0.6271
  978MOL0     C28985   1.296   7.031   2.074  0.7327  0.2498 -0.2482
  978MOL0     C28986   1.190   7.125   2.010 -1.7276  0.0746  0.3604
  978MOL0     C28987   1.051   7.081   2.048  0.2439  0.1707  0.5268
  978MOL0     O28988   0.983   7.155   1.951  0.7460 -0.0282 -0.3615
  978MOL0     C28989   0.844   7.157   1.971 -0.0034  0.6259  0.5699
  978MOL0     C28990   0.781   7.262   1.910 -0.1585  0.4657  0.4273
  978MOL0     C28991   0.651   7.285   1.954  0.3132 -0.6017  0.2813
  978MOL0     C28992   0.576   7.183   2.014  0.2019 -0.0989  0.8019
  978MOL0     C28993   0.428   7.205   2.016 -0.1103 -0.8271  0.4887
  978MOL0     O28994   0.382   7.332   2.006 -0.1479 -0.1249 -0.1688
  978MOL0     C28995   0.246   7.370   2.002 -0.7634 -0.0108 -0.5619
  978MOL0     C28996   0.133   7.298   2.043  0.1485 -0.1997  0.1182
  978MOL0     C28997   0.013   7.368   2.042  1.0253  0.2255 -0.0569
  978MOL0     C28998   0.003   7.507   2.015  0.4484  0.2710 -0.5564
  978MOL0     O28999  -0.122   7.574   2.021  0.5258  0.0266  0.5351
  978MOL0     C29000  -0.195   7.527   2.134  0.0578 -0.5812  0.4593
  978MOL0     C29001  -0.324   7.599   2.149  0.9016  0.3560  0.2784
  978MOL0     C29002  -0.404   7.572   2.266  0.6655 -0.2198 -0.6526
  978MOL0     C29003  -0.531   7.655   2.286 -0.8636  0.3760 -0.1974
  978MOL0     C29004  -0.618   7.588   2.397 -0.5310 -1.6874  0.9190
  978MOL0     C29005  -0.542   7.591   2.530  0.2266  0.2725  0.4348
  978MOL0     C29006  -0.629   7.582   2.650  0.8652  0.1474  0.8570
  978MOL0     C29007  -0.555   7.612   2.777  0.2372 -1.2727 -0.1002
  978MOL0    Cl29008  -0.632   7.551   2.928 -0.0685  0.1241 -0.3625
  978MOL0     C29009   0.115   7.575   1.969 -0.4941  0.0304  0.7825
  978MOL0     C29010   0.238   7.507   1.964 -0.6354  0.1183  0.3604
  978MOL0     O29011   0.361   7.108   2.036 -0.0676 -0.1592 -0.3821
  978MOL0     C29012   0.645   7.081   2.074  0.7072  0.4256 -0.7111
  978MOL0     C29013   0.778   7.068   2.058 -0.1764  0.2658  0.0371
  978MOL0     N29014   1.593   6.898   2.151 -0.2355 -1.1427 -0.2559
  978MOL0     N29015   1.667   6.806   2.119 -0.5526  0.0949 -0.1865
  978MOL0     C29016   2.786   6.919   1.952  0.0287 -0.2643 -0.2050
  978MOL0     C29017   2.921   6.925   1.978  0.1681 -0.1656 -0.7884
  978MOL0     C29018   3.364   7.073   1.955  0.7041  0.6061  0.2940
  978MOL0     C29019   3.487   7.069   1.880 -0.1694  0.9239  0.7272
  978MOL0     C29020   3.611   7.038   1.942 -0.5406  0.3432 -0.2549
  978MOL0     C29021   3.614   7.043   2.086 -0.2218  0.1647 -0.1720
  978MOL0     O29022   3.737   7.031   2.154 -0.6334  0.8634  0.7600
  978MOL0     C29023   3.858   7.065   2.088  0.7822 -0.1789  0.1888
  978MOL0     C29024   3.971   7.066   2.198  0.3136  0.6548  0.2733
  978MOL0     C29025   4.116   7.064   2.158 -0.6188 -0.3670  0.0403
  978MOL0     C29026   4.156   6.945   2.063  0.0913 -0.6714  0.0035
  978MOL0     C29027   4.295   6.938   2.033 -1.0364  0.1727 -0.4886
  978MOL0     C29028   4.414   6.940   2.021  0.0590 -0.0017 -0.6818
  978MOL0     C29029   3.496   7.060   2.165  0.7726  0.2029 -1.4203
  978MOL0     C29030   3.371   7.067   2.097  0.4026 -0.5691  1.0160
  978MOL0     H29031   3.005   7.167   1.752 -2.3442  1.7769 -1.1349
  978MOL0     H29032   2.773   7.155   1.715  3.4779 -2.0597 -2.9226
  978MOL0     H29033   2.509   7.174   1.792  1.0784 -0.1062 -0.7426
  978MOL0     H29034   2.526   7.119   1.967  3.0707 -0.0277 -0.6203
  978MOL0     H29035   2.373   6.970   1.753  3.7215  1.5281 -1.0340
  978MOL0     H29036   2.295   7.104   1.837  1.7953  1.8049 -2.2460
  978MOL0     H29037   2.328   6.953   2.061 -2.5395  2.0114 -0.8385
  978MOL0     H29038   2.408   6.836   1.948 -1.4586 -2.1891  1.1617
  978MOL0     H29039   2.205   6.799   1.833  1.5328  0.3502  0.0956
  978MOL0     H29040   2.187   6.771   2.008 -1.0238 -2.0840 -1.8054
  978MOL0     H29041   2.087   7.025   1.870 -2.5821  0.9984 -1.3060
  978MOL0     H29042   2.049   6.969   2.042  0.3508 -3.6951  1.1112
  978MOL0     H29043   1.947   6.867   1.772  0.9870  1.6194 -0.4516
  978MOL0     H29044   1.858   6.949   1.902 -1.0863  0.4085  0.7657
  978MOL0     H29045   1.983   6.664   1.908  0.0111 -0.1477  0.7229
  978MOL0     H29046   1.924   6.749   2.049 -0.5421  0.5327  0.8606
  978MOL0     H29047   1.765   6.593   1.934  0.7741 -0.6580  1.5408
  978MOL0     H29048   1.749   6.690   1.798 -0.3112 -2.2576 -0.5306
  978MOL0     H29049   1.560   6.892   1.833  1.4648 -1.0696  0.0058
  978MOL0     H29050   1.430   7.104   1.918  0.6798  1.0295  1.1904
  978MOL0     H29051   1.480   7.133   2.086  0.9720 -1.6276  2.0066
  978MOL0     H29052   1.296   7.040   2.183  0.2550  1.4196 -0.3336
  978MOL0     H29053   1.269   6.927   2.053 -1.0232  0.6186  0.0339
  978MOL0     H29054   1.214   7.224   2.048  1.1294 -0.9254  1.4474
  978MOL0     H29055   1.203   7.113   1.902  0.5397 -0.0070  0.6015
  978MOL0     H29056   1.022   7.110   2.149 -1.4235  1.3685 -0.2389
  978MOL0     H29057   1.039   6.974   2.031 -4.2615  0.7249 -1.2754
  978MOL0     H29058   0.847   7.326   1.853  3.0570 -2.6088  0.3525
  978MOL0     H29059   0.599   7.374   1.921 -3.2539 -2.3431  0.6858
  978MOL0     H29060   0.155   7.196   2.074 -0.4983  0.4972  3.2538
  978MOL0     H29061  -0.075   7.309   2.067  0.6024  0.3313 -1.2562
  978MOL0     H29062  -0.140   7.544   2.227 -0.3353  3.2660  0.1439
  978MOL0     H29063  -0.220   7.423   2.114 -1.9289 -0.5447  2.4993
  978MOL0     H29064  -0.381   7.583   2.057  0.1420 -0.3969  0.8641
  978MOL0     H29065  -0.306   7.707   2.145 -1.7610  0.9993  2.2835
  978MOL0     H29066  -0.343   7.590   2.355 -3.1890  1.2768  1.9212
  978MOL0     H29067  -0.432   7.467   2.258 -0.2588 -0.1089  0.8971
  978MOL0     H29068  -0.511   7.760   2.307 -1.9888  0.3769  1.0127
  978MOL0     H29069  -0.594   7.648   2.196  1.4416 -2.8444 -1.7818
  978MOL0     H29070  -0.632   7.481   2.380 -1.1829 -1.6295  1.0960
  978MOL0     H29071  -0.713   7.641   2.401  1.0582  1.4464  0.6481
  978MOL0     H29072  -0.487   7.685   2.544 -1.5344  1.3885  0.2023
  978MOL0     H29073  -0.473   7.507   2.532  0.1460  0.2018  0.2550
  978MOL0     H29074  -0.714   7.650   2.635 -0.3787 -1.3804  0.7903
  978MOL0     H29075  -0.669   7.481   2.649  0.8718  0.1476  0.2164
  978MOL0     H29076  -0.554   7.718   2.801 -1.3646 -0.8393 -1.7474
  978MOL0     H29077  -0.452   7.573   2.772  0.5733 -0.7221  1.7089
  978MOL0     H29078   0.108   7.681   1.947  0.5175  0.2860  1.6379
  978MOL0     H29079   0.324   7.569   1.942  0.5963 -1.1680  1.4194
  978MOL0     H29080   0.597   7.005   2.135 -0.5137 -1.6068 -3.9701
  978MOL0     H29081   0.820   6.980   2.107 -2.5071  0.3900  2.5119
  978MOL0     H29082   2.730   6.839   2.001  0.6086 -0.0198  0.8961
  978MOL0     H29083   2.954   6.852   2.051  0.9959  1.6736  0.7474
  978MOL0     H29084   3.474   7.097   1.776 -0.7622  0.7048  0.7431
  978MOL0     H29085   3.705   7.017   1.892 -0.0434  0.9352  0.4102
  978MOL0     H29086   3.854   7.163   2.040  2.0760  1.8290  3.7992
  978MOL0     H29087   3.887   6.991   2.012 -1.0490  2.3796 -3.2680
  978MOL0     H29088   3.969   7.160   2.253  0.3768  0.1791  1.1090
  978MOL0     H29089   3.953   6.987   2.272  1.5707  1.8774  1.9629
  978MOL0     H29090   4.179   7.064   2.248  0.2277 -1.7641 -0.5226
  978MOL0     H29091   4.134   7.160   2.109 -1.1297 -0.3427 -0.1030
  978MOL0     H29092   4.145   6.854   2.122  2.1417  0.7378  2.7816
  978MOL0     H29093   4.099   6.942   1.969 -1.4572 -1.8875  0.9304
  978MOL0     H29094   4.520   6.948   2.036 -0.1573 -1.6074  2.8388
  978MOL0     H29095   3.513   7.048   2.272 -0.8808  0.3544 -1.1222
  978MOL0     H29096   3.275   7.057   2.147  0.4166  0.0516  1.1816
  979MOL0     O29097   0.981   8.322   7.350  0.6465 -0.2121 -0.1792
  979MOL0     C29098   1.025   8.208   7.392  0.3229 -0.1323 -0.2590
  979MOL0     O29099   1.010   8.164   7.517 -0.6360 -0.2433  0.6510
  979MOL0     C29100   0.944   8.252   7.599 -0.4636 -0.0126  0.2174
  979MOL0     C29101   1.024   8.323   7.685  0.4731  0.1272 -1.4740
  979MOL0     C29102   0.966   8.426   7.775  0.4405 -1.1255  0.4149
  979MOL0     C29103   0.829   8.449   7.761  0.8047  0.5806 -0.0079
  979MOL0     O29104   0.764   8.547   7.833  0.4388 -0.3257  0.1962
  979MOL0     C29105   0.709   8.521   7.966 -0.4996  0.3651  0.6140
  979MOL0     C29106   0.612   8.620   8.011  1.0647  0.0234  0.3618
  979MOL0     C29107   0.523   8.683   7.901 -0.5404  0.1392 -0.3937
  979MOL0     C29108   0.432   8.581   7.831 -0.4642  0.9480 -0.5184
  979MOL0     C29109   0.317   8.647   7.764 -0.3536 -0.5483 -0.4590
  979MOL0     C29110   0.368   8.762   7.682  0.6285 -0.2177 -0.3870
  979MOL0     C29111   0.260   8.807   7.591 -0.2612 -0.3496  0.4244
  979MOL0     C29112   0.306   8.939   7.527 -0.0352  0.3901  0.6136
  979MOL0     N29113   0.202   9.008   7.451  0.5486 -0.3742  0.2375
  979MOL0     C29114   0.135   8.954   7.350 -0.4605 -0.9396 -1.2243
  979MOL0     C29115   0.027   9.028   7.330  0.6473 -1.1583  0.7729
  979MOL0     C29116  -0.085   8.992   7.233 -0.5746 -0.4396 -0.1774
  979MOL0     C29117  -0.076   9.063   7.090 -0.3093  0.0647 -0.8325
  979MOL0     C29118   0.061   9.043   7.027  1.1981  0.9472 -0.3067
  979MOL0     C29119   0.067   9.100   6.888 -0.6072 -0.0165  0.0994
  979MOL0     O29120  -0.006   9.025   6.794 -0.4353 -0.1524 -0.1230
  979MOL0     C29121   0.061   8.962   6.693  0.4581 -0.3784 -0.4286
  979MOL0     C29122   0.020   8.981   6.559 -0.1351  0.4013 -0.3321
  979MOL0     C29123   0.097   8.938   6.453 -0.5254  0.2938  0.3405
  979MOL0     C29124   0.203   8.847   6.469  0.2724 -1.0243  0.0425
  979MOL0     C29125   0.269   8.786   6.352 -0.1699  0.7261  0.2516
  979MOL0     O29126   0.229   8.827   6.232 -0.5517 -0.3280  0.4419
  979MOL0     C29127   0.318   8.818   6.118  0.3851 -0.2679  0.1226
  979MOL0     C29128   0.449   8.775   6.121  0.6226  0.3862 -0.1388
  979MOL0     C29129   0.531   8.764   6.005  0.0497  0.3032 -0.2706
  979MOL0     C29130   0.480   8.799   5.884  0.1040 -0.0797 -0.1315
  979MOL0     O29131   0.568   8.793   5.776 -0.0165  0.6230 -0.6679
  979MOL0     C29132   0.509   8.752   5.657 -0.0991  0.2920  0.5515
  979MOL0     C29133   0.612   8.677   5.575  0.7452  1.4804 -0.8046
  979MOL0     C29134   0.595   8.517   5.583  0.3697 -0.2625  0.1430
  979MOL0     C29135   0.613   8.473   5.733  0.0584  0.4190 -0.6539
  979MOL0     C29136   0.767   8.442   5.760 -0.3643 -0.5583 -0.0811
  979MOL0     C29137   0.794   8.431   5.906  0.6755  0.8008  0.4693
  979MOL0     C29138   0.790   8.281   5.958  1.2695 -0.1460  0.0167
  979MOL0     C29139   0.927   8.230   5.930  0.1495  0.5092 -0.9881
  979MOL0    Cl29140   0.952   8.064   5.986 -0.0099 -0.6724 -0.0186
  979MOL0     C29141   0.350   8.853   5.867  0.9122  0.1419 -0.3155
  979MOL0     C29142   0.272   8.864   5.994 -0.1303 -0.7695  0.5671
  979MOL0     O29143   0.334   8.682   6.377 -0.4250 -0.9189  0.1340
  979MOL0     C29144   0.234   8.818   6.604 -0.2685  0.6517 -0.4770
  979MOL0     C29145   0.168   8.877   6.718 -0.6009  0.0476  0.4325
  979MOL0     N29146   0.032   9.133   7.414  1.2169 -0.0196 -0.3581
  979MOL0     N29147   0.134   9.125   7.489  0.3808  0.3745  0.0125
  979MOL0     C29148   0.752   8.364   7.683  0.2282 -0.4201 -0.3509
  979MOL0     C29149   0.803   8.265   7.607  0.5730 -0.4465  0.3662
  979MOL0     C29150   1.123   8.134   7.306 -0.7271  0.3722 -0.3355
  979MOL0     C29151   1.179   8.195   7.186  0.5081 -0.4567  0.6352
  979MOL0     C29152   1.279   8.146   7.106  0.7300  0.2248  1.0479
  979MOL0     C29153   1.349   8.027   7.150  0.3233 -1.1326  0.8143
  979MOL0     O29154   1.461   7.981   7.085  0.0418 -1.4086 -0.5269
  979MOL0     C29155   1.455   7.909   6.960  0.3407  0.1536 -0.2758
  979MOL0     C29156   1.599   7.887   6.912 -0.5000 -0.5338 -0.1551
  979MOL0     C29157   1.598   7.806   6.779 -0.2658  0.4721 -0.5068
  979MOL0     C29158   1.732   7.739   6.777  0.2900  0.7384  0.0062
  979MOL0     C29159   1.758   7.688   6.643 -0.6863 -0.1471  0.3133
  979MOL0     C29160   1.756   7.636   6.528 -0.0017  0.5298  0.3836
  979MOL0     C29161   1.306   7.974   7.276 -0.2417  0.2380  0.8679
  979MOL0     C29162   1.193   8.014   7.343 -0.4055 -0.2621  0.0157
  979MOL0     H29163   1.129   8.296   7.695  0.1840 -0.2380  2.0252
  979MOL0     H29164   1.030   8.491   7.835  0.2048 -1.3019  0.8583
  979MOL0     H29165   0.793   8.515   8.037  1.0491  1.4849 -1.0439
  979MOL0     H29166   0.671   8.419   7.966  0.7271 -0.1130  1.2815
  979MOL0     H29167   0.656   8.703   8.067 -1.1483  2.4454 -1.2519
  979MOL0     H29168   0.536   8.576   8.077  1.2344  0.4113  0.8224
  979MOL0     H29169   0.587   8.729   7.825 -0.4152  2.0730  0.8360
  979MOL0     H29170   0.466   8.765   7.945  1.1418  2.8619 -2.9564
  979MOL0     H29171   0.492   8.519   7.762  2.0241  0.3208  2.0049
  979MOL0     H29172   0.394   8.501   7.895  5.1141  0.3211  2.6089
  979MOL0     H29173   0.248   8.690   7.838  0.9860 -1.3646  1.3368
  979MOL0     H29174   0.262   8.566   7.715 -0.1801 -1.0915  0.2418
  979MOL0     H29175   0.460   8.737   7.628  0.6003 -2.3793  0.4908
  979MOL0     H29176   0.388   8.840   7.757 -2.7712 -2.0193  2.6859
  979MOL0     H29177   0.237   8.720   7.529 -1.6413 -0.3326  0.8696
  979MOL0     H29178   0.166   8.828   7.644  0.5262 -0.0215  1.7405
  979MOL0     H29179   0.375   8.905   7.450 -2.1568  0.3178 -1.3585
  979MOL0     H29180   0.351   9.012   7.596 -2.5823  0.6073  2.1805
  979MOL0     H29181   0.151   8.854   7.310 -5.5051 -1.8166 -1.6874
  979MOL0     H29182  -0.174   9.031   7.283 -0.4256  1.2164 -1.1405
  979MOL0     H29183  -0.091   8.883   7.229  0.9722 -0.5306 -0.8646
  979MOL0     H29184  -0.093   9.169   7.111 -0.5344 -0.6248  3.2745
  979MOL0     H29185  -0.162   9.022   7.035 -1.6531  0.5820  0.7844
  979MOL0     H29186   0.136   9.097   7.086 -0.2722  2.8570 -0.0789
  979MOL0     H29187   0.081   8.935   7.021  2.7379  1.2360 -0.7568
  979MOL0     H29188   0.172   9.098   6.859 -0.2378 -1.4596  1.3909
  979MOL0     H29189   0.031   9.203   6.886 -0.7915 -0.0302  1.5292
  979MOL0     H29190  -0.065   9.042   6.531 -0.5810 -0.4879 -0.9714
  979MOL0     H29191   0.056   8.967   6.356 -0.9825 -4.8490 -1.3165
  979MOL0     H29192   0.494   8.754   6.218 -2.4210 -1.4141  1.0205
  979MOL0     H29193   0.633   8.728   6.007  0.0829 -0.0035 -3.0643
  979MOL0     H29194   0.474   8.837   5.599  0.7146  0.0882 -0.2747
  979MOL0     H29195   0.423   8.686   5.669 -1.0252  1.3207 -0.3346
  979MOL0     H29196   0.713   8.697   5.612  0.3110  1.9004  0.1982
  979MOL0     H29197   0.599   8.719   5.475  1.2420  2.0973 -0.6229
  979MOL0     H29198   0.655   8.460   5.511  0.7312 -0.8886  0.9282
  979MOL0     H29199   0.492   8.488   5.559 -0.0335  0.2360  1.2095
  979MOL0     H29200   0.573   8.545   5.805 -0.4879 -1.8979  1.4906
  979MOL0     H29201   0.545   8.390   5.749  0.4765  0.4310  1.5294
  979MOL0     H29202   0.821   8.525   5.715 -0.9347 -0.8800 -1.4085
  979MOL0     H29203   0.783   8.350   5.703  0.3334  0.1338 -1.0109
  979MOL0     H29204   0.711   8.479   5.958  0.3371  0.1917  0.4914
  979MOL0     H29205   0.890   8.470   5.943 -0.0490  2.2570  0.8947
  979MOL0     H29206   0.759   8.283   6.063 -0.5286 -3.6176 -0.3129
  979MOL0     H29207   0.713   8.218   5.912  0.5217  0.5705  0.2566
  979MOL0     H29208   1.003   8.294   5.975 -0.7948  0.9743  0.0224
  979MOL0     H29209   0.958   8.241   5.826 -0.3920  2.6459 -0.9726
  979MOL0     H29210   0.313   8.878   5.769 -0.5096  1.8381  0.5897
  979MOL0     H29211   0.170   8.900   5.992  0.2675  0.3621 -0.3309
  979MOL0     H29212   0.310   8.743   6.625 -1.9958 -0.1223  3.9717
  979MOL0     H29213   0.197   8.854   6.820  2.4003  0.2063 -0.2852
  979MOL0     H29214   0.644   8.362   7.673  0.2784  2.5585 -3.1621
  979MOL0     H29215   0.742   8.205   7.540  1.0974 -1.6148  0.8987
  979MOL0     H29216   1.143   8.296   7.170  1.5526 -0.3212 -1.0283
  979MOL0     H29217   1.313   8.181   7.009 -1.4478 -1.6449 -0.4958
  979MOL0     H29218   1.391   7.957   6.885  0.4796  1.4691  0.4244
  979MOL0     H29219   1.410   7.810   6.972  0.5412 -0.1028 -1.4652
  979MOL0     H29220   1.636   7.988   6.891  0.5714 -0.5965  1.2385
  979MOL0     H29221   1.650   7.833   6.993  0.2076  1.9271  1.1444
  979MOL0     H29222   1.594   7.883   6.702  1.1429  3.4017  2.1114
  979MOL0     H29223   1.517   7.733   6.774  0.8116 -0.7161 -1.4360
  979MOL0     H29224   1.824   7.794   6.799  1.0594  0.2892 -1.9001
  979MOL0     H29225   1.742   7.651   6.841  2.1052  2.0550  1.6654
  979MOL0     H29226   1.742   7.584   6.436  0.1990 -0.4863  0.9198
  979MOL0     H29227   1.372   7.892   7.304  0.1216 -0.1274 -0.9293
  979MOL0     H29228   1.164   7.951   7.427 -5.0230  0.1740 -0.9999
  980MOL0     O29229   1.380   4.229   3.164  0.1031 -0.8020  0.4027
  980MOL0     C29230   1.389   4.125   3.217  0.2020 -0.1204 -0.4780
  980MOL0     O29231   1.472   4.102   3.325 -0.1313 -0.7097  0.2103
  980MOL0     C29232   1.570   4.185   3.359 -0.8473  0.0546  0.3302
  980MOL0     C29233   1.666   4.220   3.259  0.4660 -0.8331 -0.3385
  980MOL0     C29234   1.763   4.316   3.284  0.4268 -0.2309 -0.2561
  980MOL0     C29235   1.769   4.384   3.409  0.0771  0.1891  0.8391
  980MOL0     O29236   1.861   4.485   3.448 -0.3829 -0.7180  0.6226
  980MOL0     C29237   1.959   4.533   3.357 -0.1813  0.6789  0.9043
  980MOL0     C29238   2.060   4.636   3.413 -0.0511 -0.3455 -0.6693
  980MOL0     C29239   2.193   4.618   3.346 -0.2918  0.4728  0.0195
  980MOL0     C29240   2.292   4.723   3.391 -0.0292 -0.4234 -0.2384
  980MOL0     C29241   2.427   4.706   3.319 -0.0766  0.2002 -1.3788
  980MOL0     C29242   2.534   4.796   3.382  0.4678  0.0923  0.2355
  980MOL0     C29243   2.674   4.759   3.341 -0.2076  0.3396 -0.1180
  980MOL0     C29244   2.733   4.626   3.395 -0.3593  0.0370  1.2557
  980MOL0     N29245   2.884   4.626   3.381 -0.0006  0.6766  0.0958
  980MOL0     C29246   2.968   4.719   3.439 -1.0541  0.1772  0.4627
  980MOL0     C29247   3.086   4.658   3.444 -1.0920  0.1523 -0.8306
  980MOL0     C29248   3.224   4.695   3.511  0.6085  0.4029  0.3381
  980MOL0     C29249   3.228   4.663   3.658 -0.7312 -0.4469  0.0501
  980MOL0     C29250   3.360   4.712   3.731  0.9657 -0.8192  0.2661
  980MOL0     C29251   3.371   4.865   3.751  0.0557  0.7888  0.1846
  980MOL0     O29252   3.288   4.904   3.858  0.2798 -0.4245 -0.0855
  980MOL0     C29253   3.158   4.924   3.829 -0.4205 -0.0690  0.5623
  980MOL0     C29254   3.114   5.011   3.727 -0.1856  0.0403  0.5800
  980MOL0     C29255   2.981   5.005   3.689 -0.6416  0.6219  0.1392
  980MOL0     C29256   2.877   4.923   3.750 -0.1741 -0.4237 -0.0717
  980MOL0     C29257   2.734   4.927   3.711 -0.5932  0.3667 -0.0962
  980MOL0     O29258   2.646   4.898   3.810 -0.1599 -0.1306  0.3313
  980MOL0     C29259   2.511   4.914   3.786  0.3074  0.3046  0.3605
  980MOL0     C29260   2.451   5.035   3.743  0.0243 -1.1889 -0.1340
  980MOL0     C29261   2.316   5.034   3.707 -0.1142  0.0682  0.6667
  980MOL0     C29262   2.229   4.922   3.713 -0.9280 -0.6691  0.0047
  980MOL0     O29263   2.104   4.920   3.675 -0.0684  0.1459  0.5227
  980MOL0     C29264   2.016   4.914   3.790 -0.7965 -0.2751  0.3309
  980MOL0     C29265   1.891   4.958   3.735  0.4728 -0.2959  0.2010
  980MOL0     C29266   1.816   4.857   3.649 -1.2174 -0.1294 -0.7547
  980MOL0     C29267   1.763   4.724   3.705  0.1048  0.0993 -0.4884
  980MOL0     C29268   1.625   4.754   3.777 -0.7341 -0.4600  0.4023
  980MOL0     C29269   1.598   4.630   3.867 -0.6148  0.8497  0.7181
  980MOL0     C29270   1.499   4.668   3.976 -0.5316 -0.1257  0.3727
  980MOL0     C29271   1.484   4.559   4.088  0.5125  0.3224 -0.6116
  980MOL0    Cl29272   1.330   4.616   4.142 -0.2860  0.2819 -0.3905
  980MOL0     C29273   2.293   4.817   3.784  0.3574  0.5198 -0.2117
  980MOL0     C29274   2.427   4.808   3.815  0.2295 -0.3202  0.1435
  980MOL0     O29275   2.705   4.964   3.606  0.9030  0.4769  0.5390
  980MOL0     C29276   2.932   4.847   3.861  0.4060  0.2514  0.2369
  980MOL0     C29277   3.066   4.851   3.907  0.3777  1.0651 -0.4264
  980MOL0     N29278   3.073   4.534   3.387 -0.9594  0.7959 -0.0484
  980MOL0     N29279   2.955   4.520   3.342  0.4463 -0.0477 -0.5493
  980MOL0     C29280   1.673   4.351   3.504 -0.2803  0.4954 -0.7962
  980MOL0     C29281   1.583   4.246   3.482 -0.5624 -0.8693 -0.5924
  980MOL0     C29282   1.284   4.022   3.181 -0.3109  0.2498  0.1592
  980MOL0     C29283   1.280   3.897   3.233 -0.4787 -0.2306  0.5194
  980MOL0     C29284   1.174   3.808   3.196 -0.2294  0.4960 -0.4701
  980MOL0     C29285   1.074   3.844   3.113  0.4060  0.0345  1.1144
  980MOL0     O29286   0.975   3.749   3.093  0.0989  0.1528 -0.1161
  980MOL0     C29287   0.848   3.781   3.026 -0.0860  0.6406 -0.8689
  980MOL0     C29288   0.749   3.859   3.114  0.3626  0.0745 -0.1969
  980MOL0     C29289   0.636   3.933   3.031  0.1253  0.1278  0.0029
  980MOL0     C29290   0.528   3.831   2.998  0.4623  0.9908 -0.3664
  980MOL0     C29291   0.419   3.901   2.933 -0.7207  0.0832  0.6777
  980MOL0     C29292   0.328   3.963   2.881  0.0933 -1.3189 -0.4121
  980MOL0     C29293   1.076   3.975   3.052  0.3020  0.1332  0.0301
  980MOL0     C29294   1.182   4.059   3.087  0.2964  0.1376 -0.5521
  980MOL0     H29295   1.653   4.191   3.155 -0.0777 -0.3963 -0.3955
  980MOL0     H29296   1.832   4.342   3.205  1.6915 -1.0740  0.5255
  980MOL0     H29297   1.910   4.582   3.273 -0.7683 -0.5925  0.4792
  980MOL0     H29298   2.004   4.447   3.306 -2.1705  0.6562 -0.9603
  980MOL0     H29299   2.068   4.624   3.521 -2.0432  1.3756 -0.2735
  980MOL0     H29300   2.020   4.737   3.397  1.5461  0.8447  2.0986
  980MOL0     H29301   2.174   4.645   3.242  0.0957  0.5642 -0.0262
  980MOL0     H29302   2.231   4.519   3.374 -0.7192  0.1683 -0.4436
  980MOL0     H29303   2.263   4.823   3.358 -0.4579  1.7552  5.5834
  980MOL0     H29304   2.310   4.726   3.498  2.1829 -1.6845 -0.5138
  980MOL0     H29305   2.414   4.732   3.213  0.1613  0.7008 -1.2883
  980MOL0     H29306   2.456   4.600   3.327 -1.8796 -0.3133 -1.3302
  980MOL0     H29307   2.525   4.812   3.490  0.5019  2.7966 -0.1124
  980MOL0     H29308   2.506   4.896   3.349 -2.5542 -0.0114  2.0467
  980MOL0     H29309   2.685   4.762   3.232 -0.9906  3.3359 -0.2081
  980MOL0     H29310   2.733   4.839   3.387 -1.8102  1.1699  0.5805
  980MOL0     H29311   2.715   4.545   3.323  8.0159 -1.3623 -0.3107
  980MOL0     H29312   2.706   4.603   3.499  1.3179 -1.5694  1.3911
  980MOL0     H29313   2.940   4.818   3.472  1.6159  1.3580 -0.5822
  980MOL0     H29314   3.245   4.802   3.497  1.2509  0.4506  1.5793
  980MOL0     H29315   3.301   4.638   3.460 -2.7175 -4.5523  0.1567
  980MOL0     H29316   3.215   4.555   3.673  0.2092 -1.0761 -3.0620
  980MOL0     H29317   3.137   4.701   3.706 -0.5662  0.4856 -0.3495
  980MOL0     H29318   3.374   4.658   3.824  0.7332 -0.5236  0.4790
  980MOL0     H29319   3.443   4.691   3.663  0.8706  0.8749 -0.4438
  980MOL0     H29320   3.346   4.908   3.653 -2.2651  1.1123  0.8785
  980MOL0     H29321   3.471   4.894   3.785 -0.0346  0.0950  1.0636
  980MOL0     H29322   3.180   5.081   3.677  1.0655  1.0108  3.3526
  980MOL0     H29323   2.958   5.059   3.598  0.8517  2.1880  0.6287
  980MOL0     H29324   2.511   5.121   3.717 -0.9342 -0.3544  0.3440
  980MOL0     H29325   2.290   5.136   3.678 -2.2265 -0.5433  0.2489
  980MOL0     H29326   2.055   4.989   3.860  1.1965 -1.6769  0.8194
  980MOL0     H29327   2.006   4.816   3.837  1.0248  0.3656  2.2370
  980MOL0     H29328   1.912   5.051   3.682  0.2830 -0.5594 -0.3462
  980MOL0     H29329   1.833   4.974   3.826  2.1036  0.3444  1.1701
  980MOL0     H29330   1.881   4.826   3.566  0.5124  1.5981 -0.1116
  980MOL0     H29331   1.740   4.912   3.594 -0.8707 -0.2453 -1.3620
  980MOL0     H29332   1.757   4.647   3.627 -1.0340 -0.1371 -0.1778
  980MOL0     H29333   1.831   4.671   3.772 -1.4984  0.4812  1.5446
  980MOL0     H29334   1.544   4.779   3.707  0.0365 -0.3486 -0.4786
  980MOL0     H29335   1.631   4.839   3.846 -2.3258 -0.3240  0.4257
  980MOL0     H29336   1.693   4.594   3.907 -0.4371  0.4804 -0.0150
  980MOL0     H29337   1.552   4.550   3.808 -0.4199  0.5095  1.0302
  980MOL0     H29338   1.536   4.758   4.027  1.2585 -1.4803  1.5902
  980MOL0     H29339   1.407   4.698   3.926 -0.4687  1.1034  0.9457
  980MOL0     H29340   1.566   4.567   4.159  0.9078 -0.7609 -0.9322
  980MOL0     H29341   1.474   4.461   4.041  1.5089 -0.0815 -0.0066
  980MOL0     H29342   2.225   4.739   3.817  1.5762  0.2489  1.8721
  980MOL0     H29343   2.478   4.722   3.857  0.2018  0.6117  2.2479
  980MOL0     H29344   2.853   4.793   3.913 -0.0059  2.1640  1.6941
  980MOL0     H29345   3.104   4.800   3.994  1.4333 -0.8672 -1.9440
  980MOL0     H29346   1.678   4.408   3.597 -0.2359 -1.0140  0.1651
  980MOL0     H29347   1.507   4.211   3.551 -1.5274  0.4346 -0.9536
  980MOL0     H29348   1.354   3.878   3.310  0.4120 -1.2288 -0.5511
  980MOL0     H29349   1.178   3.706   3.232  0.6085  0.5510 -0.3915
  980MOL0     H29350   0.814   3.684   2.989  1.2472  0.2278 -1.0583
  980MOL0     H29351   0.864   3.851   2.943 -1.2934 -0.2651 -1.9200
  980MOL0     H29352   0.698   3.806   3.195 -3.9544  4.6724  0.6604
  980MOL0     H29353   0.809   3.939   3.158  0.2455 -0.0627  0.2171
  980MOL0     H29354   0.672   3.974   2.937  0.9454 -1.4302 -0.4048
  980MOL0     H29355   0.590   4.012   3.091 -0.5737  1.8799 -2.6819
  980MOL0     H29356   0.559   3.754   2.927 -3.3923  1.1520 -2.5257
  980MOL0     H29357   0.495   3.791   3.095 -0.4584 -2.6094 -2.0173
  980MOL0     H29358   0.256   4.025   2.831  1.4465  2.1804  1.6106
  980MOL0     H29359   1.003   4.019   2.985  0.4846  0.0245 -0.2456
  980MOL0     H29360   1.172   4.160   3.049  2.1882 -0.1930 -2.0798
  981MOL0     O29361   8.189   5.682   5.490 -0.6038 -0.7787 -0.3225
  981MOL0     C29362   8.184   5.558   5.475  0.6710 -0.3691 -0.5261
  981MOL0     O29363   8.066   5.489   5.452  0.4668  0.0935  0.4108
  981MOL0     C29364   7.946   5.554   5.453 -0.1580  0.6034 -0.1069
  981MOL0     C29365   7.906   5.632   5.563 -0.4026 -0.4162  0.1240
  981MOL0     C29366   7.781   5.697   5.564  0.0185 -0.3094 -0.3676
  981MOL0     C29367   7.690   5.686   5.459  0.8313 -0.3961  0.3137
  981MOL0     O29368   7.576   5.766   5.474 -0.1684  0.1110  0.0143
  981MOL0     C29369   7.459   5.691   5.432 -0.9508  0.0885 -0.2949
  981MOL0     C29370   7.336   5.773   5.477 -0.1046  0.2203 -0.6349
  981MOL0     C29371   7.292   5.752   5.625 -0.2181  0.7141 -0.1382
  981MOL0     C29372   7.237   5.878   5.703  0.3054  0.0243 -0.6165
  981MOL0     C29373   7.330   5.998   5.719  0.5782 -0.4083  0.1000
  981MOL0     C29374   7.475   5.951   5.750 -0.3551  0.4909 -0.0364
  981MOL0     C29375   7.577   6.057   5.721 -0.3042 -0.6741  0.9533
  981MOL0     C29376   7.609   6.070   5.572  0.9894 -0.2123 -0.9212
  981MOL0     N29377   7.716   6.157   5.540 -0.3972  0.5439  0.8184
  981MOL0     C29378   7.720   6.288   5.566 -0.0383 -0.6971 -0.2650
  981MOL0     C29379   7.844   6.331   5.547  0.2132 -0.1840  0.3375
  981MOL0     C29380   7.904   6.471   5.577  0.3838  0.6203 -0.1914
  981MOL0     C29381   7.884   6.512   5.720 -0.8603  0.4192 -0.4068
  981MOL0     C29382   7.978   6.450   5.829 -0.1558 -1.0223  0.7789
  981MOL0     C29383   8.128   6.492   5.800 -0.2500 -0.2890 -1.0758
  981MOL0     O29384   8.191   6.495   5.932 -0.5847  0.3192  0.5221
  981MOL0     C29385   8.323   6.537   5.931  0.5937 -0.3897  0.1734
  981MOL0     C29386   8.374   6.566   6.059 -0.0102 -0.8326  0.4857
  981MOL0     C29387   8.497   6.640   6.068 -0.0234  0.2098 -0.5100
  981MOL0     C29388   8.567   6.678   5.956 -0.1241  0.0741  0.0749
  981MOL0     C29389   8.686   6.767   5.965 -0.1284  0.1466  0.2138
  981MOL0     O29390   8.751   6.786   5.845 -0.1306 -0.1359 -0.7167
  981MOL0     C29391   8.886   6.807   5.836 -0.3852 -0.3556 -0.6041
  981MOL0     C29392   8.981   6.738   5.915  0.0271 -0.8710 -0.0743
  981MOL0     C29393   9.118   6.745   5.897  0.8109 -0.7035  0.6801
  981MOL0     C29394   9.171   6.819   5.796  0.7021 -0.0428 -0.1807
  981MOL0     O29395   9.298   6.822   5.755  0.3778 -0.9091 -0.7206
  981MOL0     C29396   9.398   6.764   5.834 -1.6342 -0.1036 -0.0567
  981MOL0     C29397   9.526   6.770   5.739 -0.5337 -0.9324 -0.4496
  981MOL0     C29398   9.649   6.706   5.790 -0.0373 -0.1248 -0.0884
  981MOL0     C29399   9.776   6.745   5.710  0.9933 -1.0628 -0.2875
  981MOL0     C29400   9.894   6.639   5.748 -0.2420  0.3905 -0.0159
  981MOL0     C29401  10.028   6.658   5.672  0.2628  0.2545  0.2497
  981MOL0     C29402  10.106   6.787   5.707 -0.0382  0.1178  0.0547
  981MOL0     C29403  10.255   6.771   5.677  0.6763 -0.1799  0.0230
  981MOL0    Cl29404  10.301   6.759   5.503  0.2115 -0.0281 -0.2335
  981MOL0     C29405   9.082   6.883   5.717  0.8444  0.8241  0.1094
  981MOL0     C29406   8.944   6.887   5.737  0.3479  0.0987  0.4423
  981MOL0     O29407   8.715   6.827   6.067 -0.4136  0.1974  0.2747
  981MOL0     C29408   8.513   6.649   5.832 -0.2094  0.1745 -0.0411
  981MOL0     C29409   8.394   6.573   5.810 -0.1487 -0.4655 -0.0700
  981MOL0     N29410   7.913   6.233   5.499 -0.2446 -0.3076 -0.0585
  981MOL0     N29411   7.834   6.128   5.476 -0.1421  0.7720  0.0116
  981MOL0     C29412   7.733   5.603   5.352  0.3338  0.2840 -0.9139
  981MOL0     C29413   7.862   5.541   5.346  0.5073  0.3184  0.2305
  981MOL0     C29414   8.319   5.489   5.490  0.5615 -0.2174 -0.8479
  981MOL0     C29415   8.324   5.353   5.500 -0.4845 -0.5998  0.1039
  981MOL0     C29416   8.443   5.280   5.538 -0.6840  0.3519  0.4837
  981MOL0     C29417   8.562   5.350   5.544  0.0762  0.8227  0.7993
  981MOL0     O29418   8.675   5.267   5.548  0.6672 -0.1502 -0.1710
  981MOL0     C29419   8.809   5.330   5.528 -0.0127  0.0434 -0.7257
  981MOL0     C29420   8.910   5.221   5.514  0.4290  0.0984 -0.1782
  981MOL0     C29421   9.050   5.281   5.500  0.3410 -0.4704 -0.4507
  981MOL0     C29422   9.097   5.318   5.356  0.0935 -0.5611  0.1177
  981MOL0     C29423   9.207   5.418   5.359  0.8330  0.6441  0.2686
  981MOL0     C29424   9.291   5.499   5.360 -0.1004 -0.3377  0.0283
  981MOL0     C29425   8.557   5.487   5.551 -0.9134  0.1063 -0.2751
  981MOL0     C29426   8.438   5.558   5.523 -1.1892 -0.5902  0.4176
  981MOL0     H29427   7.977   5.649   5.643 -1.6497  1.5026  0.8876
  981MOL0     H29428   7.769   5.766   5.648  0.3131 -0.9575  0.2152
  981MOL0     H29429   7.446   5.600   5.491 -1.0735  0.9953  1.1554
  981MOL0     H29430   7.446   5.657   5.329 -0.1839  0.3207 -0.4724
  981MOL0     H29431   7.254   5.733   5.416  1.6605 -2.2147 -1.5481
  981MOL0     H29432   7.353   5.880   5.461 -2.6625  1.2268  2.3681
  981MOL0     H29433   7.378   5.704   5.672  0.1687  1.4107 -0.1192
  981MOL0     H29434   7.205   5.686   5.615 -1.1275  1.9064 -0.2452
  981MOL0     H29435   7.144   5.927   5.673 -0.4603 -1.3226 -0.5192
  981MOL0     H29436   7.206   5.836   5.799  1.4398 -2.2049 -1.1603
  981MOL0     H29437   7.313   6.069   5.800  4.1006  1.0577 -0.2390
  981MOL0     H29438   7.334   6.048   5.622  2.1483 -3.1889 -1.3934
  981MOL0     H29439   7.510   5.862   5.698 -1.3714 -1.5623  2.5819
  981MOL0     H29440   7.486   5.930   5.856  0.0862 -0.6010 -0.2909
  981MOL0     H29441   7.538   6.149   5.765  0.4253 -0.3761  0.9931
  981MOL0     H29442   7.673   6.017   5.754 -0.2021 -4.8361 -3.2870
  981MOL0     H29443   7.521   6.111   5.522  2.9730  2.3178 -2.6345
  981MOL0     H29444   7.639   5.974   5.527 -2.8063 -1.0911 -1.9683
  981MOL0     H29445   7.649   6.343   5.627 -0.8972 -0.4908 -1.4216
  981MOL0     H29446   7.871   6.561   5.523 -2.2555  1.6079  2.7287
  981MOL0     H29447   8.011   6.465   5.558  0.2212  1.0186 -1.3076
  981MOL0     H29448   7.779   6.494   5.746 -0.5959 -1.2563 -0.4193
  981MOL0     H29449   7.901   6.620   5.723  0.7197  0.2836 -2.2956
  981MOL0     H29450   7.957   6.487   5.930  2.5951 -0.0190  1.0618
  981MOL0     H29451   7.961   6.342   5.835  0.6670 -1.1268  1.4147
  981MOL0     H29452   8.127   6.592   5.755 -0.2885  0.3749  0.3491
  981MOL0     H29453   8.184   6.421   5.738  2.2878  0.2296  0.4485
  981MOL0     H29454   8.295   6.540   6.128 -3.3534 -1.3665 -3.1802
  981MOL0     H29455   8.529   6.660   6.169 -2.0778 -0.7471  0.3990
  981MOL0     H29456   8.951   6.688   6.007  2.1938  2.0016  2.3578
  981MOL0     H29457   9.181   6.697   5.971  1.0500  0.1077  1.0136
  981MOL0     H29458   9.392   6.657   5.855 -3.4661 -0.1858 -0.8290
  981MOL0     H29459   9.415   6.824   5.924  1.5309 -0.9372  0.0053
  981MOL0     H29460   9.548   6.877   5.729  0.7327 -0.8951  2.0397
  981MOL0     H29461   9.497   6.720   5.646  0.8324 -2.6002 -0.0307
  981MOL0     H29462   9.643   6.598   5.809 -1.0931  0.4601  3.7732
  981MOL0     H29463   9.674   6.744   5.889  1.6253 -0.6575 -0.2664
  981MOL0     H29464   9.761   6.745   5.601 -0.1551  2.6783 -0.2812
  981MOL0     H29465   9.801   6.849   5.735 -0.1480 -0.4592 -1.5102
  981MOL0     H29466   9.863   6.535   5.734  2.6612 -0.8989  2.0120
  981MOL0     H29467   9.922   6.647   5.854  2.3304 -0.6553 -0.5258
  981MOL0     H29468   9.997   6.663   5.567 -2.4656  2.7561  1.0404
  981MOL0     H29469  10.095   6.572   5.669 -2.8738 -2.3544 -0.6903
  981MOL0     H29470  10.057   6.870   5.655  0.3503  0.1183 -0.3149
  981MOL0     H29471  10.087   6.800   5.814 -1.0313  1.1241 -0.2288
  981MOL0     H29472  10.300   6.689   5.734  0.0766 -1.1122 -0.8005
  981MOL0     H29473  10.299   6.866   5.707 -0.9662  0.7130 -0.2943
  981MOL0     H29474   9.123   6.926   5.627  0.8361 -3.5270 -2.1955
  981MOL0     H29475   8.873   6.932   5.668  0.0008  1.0776  1.4062
  981MOL0     H29476   8.559   6.684   5.741 -1.1720  3.5184  0.6302
  981MOL0     H29477   8.348   6.562   5.712 -0.1083 -2.3809  0.0807
  981MOL0     H29478   7.670   5.582   5.266  1.3021  0.7108 -1.7509
  981MOL0     H29479   7.884   5.475   5.263  0.7154  0.2864  0.3100
  981MOL0     H29480   8.237   5.292   5.481 -0.9933 -0.5574  2.0369
  981MOL0     H29481   8.444   5.172   5.550 -0.7446  0.4170  1.0919
  981MOL0     H29482   8.829   5.389   5.618 -1.0922  0.0564 -0.4715
  981MOL0     H29483   8.806   5.392   5.439  0.2654  1.1823  0.0371
  981MOL0     H29484   8.915   5.152   5.599 -4.3877 -1.4675 -0.8717
  981MOL0     H29485   8.897   5.147   5.434  1.5885  0.7873 -1.0307
  981MOL0     H29486   9.129   5.235   5.560  0.9153  1.1183  0.0599
  981MOL0     H29487   9.050   5.377   5.552 -0.0321 -0.6322 -0.1548
  981MOL0     H29488   9.133   5.228   5.304 -3.4839 -0.8274 -2.2648
  981MOL0     H29489   9.014   5.365   5.303 -0.1713 -0.8937  0.2358
  981MOL0     H29490   9.366   5.575   5.369  0.7445 -1.1886  0.2443
  981MOL0     H29491   8.647   5.546   5.566 -2.3749  2.9760 -1.9205
  981MOL0     H29492   8.447   5.665   5.532 -3.3714 -0.0637 -2.2755
  982MOL0     O29493   4.356   7.568   4.445  0.1844  0.0293  0.3416
  982MOL0     C29494   4.332   7.615   4.335  0.4172  0.0963 -0.6943
  982MOL0     O29495   4.215   7.677   4.301  0.2744  0.8147  0.2150
  982MOL0     C29496   4.148   7.750   4.393  0.2718  0.5875  0.4957
  982MOL0     C29497   4.011   7.728   4.398  0.2592 -0.2882 -0.7880
  982MOL0     C29498   3.926   7.814   4.470 -0.6375  0.1180 -0.8430
  982MOL0     C29499   3.988   7.907   4.551 -0.4097 -0.1060  0.0582
  982MOL0     O29500   3.923   7.996   4.631 -0.1999  0.2556  0.3422
  982MOL0     C29501   3.834   7.926   4.723 -0.0801 -0.2858  0.0331
  982MOL0     C29502   3.894   7.871   4.858  0.7352  0.4314  0.4312
  982MOL0     C29503   3.970   7.975   4.929  0.0542  0.4704 -0.1417
  982MOL0     C29504   4.048   7.913   5.049 -0.2762  0.1047 -0.3890
  982MOL0     C29505   4.116   7.996   5.138 -0.4280 -0.8204 -1.1197
  982MOL0     C29506   4.245   7.933   5.195 -0.1024  0.0363  0.2503
  982MOL0     C29507   4.277   7.995   5.333 -0.6416 -0.6972 -0.7124
  982MOL0     C29508   4.359   8.121   5.319  0.7054 -0.6598 -0.4098
  982MOL0     N29509   4.438   8.169   5.428  0.4515  0.3461  0.6149
  982MOL0     C29510   4.554   8.112   5.467 -0.4831  0.1226 -0.4555
  982MOL0     C29511   4.623   8.204   5.533 -0.4114 -0.2578 -0.5179
  982MOL0     C29512   4.762   8.199   5.591 -0.0176  0.5658  0.3359
  982MOL0     C29513   4.857   8.146   5.489  0.3504 -0.3880 -0.1432
  982MOL0     C29514   4.911   8.264   5.408 -0.3918  0.1287  0.7332
  982MOL0     C29515   4.996   8.221   5.289 -0.0039 -0.3833 -0.5174
  982MOL0     O29516   5.126   8.185   5.344  0.0591 -0.3407 -0.0523
  982MOL0     C29517   5.227   8.189   5.254 -0.6426 -0.4188 -0.5520
  982MOL0     C29518   5.216   8.154   5.123 -0.0295  1.0302  0.8963
  982MOL0     C29519   5.341   8.154   5.043 -0.2632 -0.3307  0.7396
  982MOL0     C29520   5.465   8.205   5.091  0.3460 -0.6977 -0.4379
  982MOL0     C29521   5.578   8.210   5.001 -1.0332 -0.2581 -0.8131
  982MOL0     O29522   5.579   8.139   4.890 -0.8220  0.6605  0.3558
  982MOL0     C29523   5.692   8.153   4.801  0.8791 -0.2089 -0.7837
  982MOL0     C29524   5.771   8.036   4.789  0.7529  0.2870 -0.0668
  982MOL0     C29525   5.898   8.051   4.725 -1.0512 -0.4604  0.0466
  982MOL0     C29526   5.943   8.181   4.681  0.1555 -0.0639 -0.6368
  982MOL0     O29527   6.068   8.199   4.626  1.0906  0.0517  0.8346
  982MOL0     C29528   6.162   8.085   4.644 -0.1944 -0.5545 -0.0390
  982MOL0     C29529   6.300   8.146   4.630  0.1845 -0.4684 -0.2965
  982MOL0     C29530   6.399   8.031   4.648  0.0629 -0.2568 -0.0081
  982MOL0     C29531   6.536   8.080   4.667 -0.6450  0.1339 -0.7280
  982MOL0     C29532   6.642   7.971   4.645  0.4274  1.1834 -0.1855
  982MOL0     C29533   6.648   7.852   4.744 -0.3314 -0.2457 -0.3915
  982MOL0     C29534   6.777   7.780   4.743 -0.4465  0.4378  0.3719
  982MOL0     C29535   6.797   7.671   4.632 -0.2759  0.6226 -0.0702
  982MOL0    Cl29536   6.818   7.754   4.475  0.1269  0.2357 -0.1108
  982MOL0     C29537   5.857   8.294   4.697  0.4125  0.6606  0.2395
  982MOL0     C29538   5.727   8.279   4.755 -0.3741 -0.2578  1.1143
  982MOL0     O29539   5.669   8.283   5.037  0.2864 -0.5235  0.8484
  982MOL0     C29540   5.473   8.236   5.227 -0.0768  0.7073  0.3859
  982MOL0     C29541   5.357   8.228   5.303 -0.7279  0.1991  1.0543
  982MOL0     N29542   4.548   8.322   5.527  0.1074  0.0110  0.1620
  982MOL0     N29543   4.434   8.297   5.469 -0.0712  0.7726 -0.4509
  982MOL0     C29544   4.128   7.923   4.555  0.9351  0.0465 -0.5762
  982MOL0     C29545   4.202   7.854   4.467 -0.3741  1.0208 -0.0105
  982MOL0     C29546   4.428   7.596   4.227 -0.7745 -0.4106  0.0457
  982MOL0     C29547   4.424   7.694   4.131 -0.3368 -0.2049  0.0420
  982MOL0     C29548   4.513   7.670   4.017 -0.0875 -0.4934  0.3875
  982MOL0     C29549   4.588   7.549   3.998  0.2944  0.2401 -0.7313
  982MOL0     O29550   4.660   7.515   3.888 -0.1865 -0.1705 -0.3506
  982MOL0     C29551   4.728   7.616   3.817  0.0701 -0.0025  0.8883
  982MOL0     C29552   4.823   7.711   3.896  0.3703  0.2717 -0.0777
  982MOL0     C29553   4.888   7.823   3.806  0.2401  0.7233 -0.3650
  982MOL0     C29554   4.959   7.780   3.680 -0.2138 -0.1247 -0.7098
  982MOL0     C29555   5.047   7.665   3.676  0.1532  0.0062 -0.3223
  982MOL0     C29556   5.135   7.584   3.648 -0.3190 -0.2685 -0.9626
  982MOL0     C29557   4.583   7.463   4.097  0.5336  0.1069  0.4667
  982MOL0     C29558   4.501   7.475   4.207  0.4242  0.4240 -0.6294
  982MOL0     H29559   3.962   7.651   4.341  0.1183  0.4882 -1.7431
  982MOL0     H29560   3.818   7.812   4.468 -0.7040 -2.1470  0.6480
  982MOL0     H29561   3.770   7.851   4.675 -1.3891  0.9183 -0.1784
  982MOL0     H29562   3.754   7.993   4.758 -0.3321 -0.1215 -0.8271
  982MOL0     H29563   3.959   7.786   4.832 -0.9593 -1.3639  1.7816
  982MOL0     H29564   3.822   7.828   4.929 -0.5622 -1.6115 -1.9503
  982MOL0     H29565   3.900   8.043   4.979 -1.1225  0.4922 -1.7301
  982MOL0     H29566   4.039   8.029   4.864 -0.8694  2.4791  0.4658
  982MOL0     H29567   3.977   7.846   5.099  1.2585 -1.0046  0.3918
  982MOL0     H29568   4.122   7.849   5.002 -1.4712  0.1717 -2.4677
  982MOL0     H29569   4.056   8.042   5.216  1.7482 -2.0167  1.4125
  982MOL0     H29570   4.145   8.081   5.076 -1.6550 -1.5168 -2.7370
  982MOL0     H29571   4.323   7.936   5.119 -0.0377  0.6088  0.3296
  982MOL0     H29572   4.224   7.829   5.222 -1.4424  0.7708  2.2991
  982MOL0     H29573   4.189   8.014   5.394  0.5978 -1.1349  1.3100
  982MOL0     H29574   4.339   7.921   5.385 -0.0601 -2.0386 -3.1555
  982MOL0     H29575   4.292   8.198   5.280  0.9067 -1.3861 -2.3342
  982MOL0     H29576   4.434   8.097   5.242  0.7786  0.6679 -0.7671
  982MOL0     H29577   4.582   8.009   5.448  3.4917  0.9815 -0.0806
  982MOL0     H29578   4.750   8.136   5.680 -2.4024  0.8790  0.3095
  982MOL0     H29579   4.799   8.299   5.613  0.5518  1.1905 -2.9483
  982MOL0     H29580   4.819   8.063   5.429 -0.5169  0.1653 -0.3584
  982MOL0     H29581   4.948   8.108   5.536  0.5262 -3.9144 -2.8769
  982MOL0     H29582   4.838   8.333   5.365 -2.8656 -0.8761  3.0533
  982MOL0     H29583   4.980   8.319   5.471 -2.4839  2.6224  1.0307
  982MOL0     H29584   4.994   8.305   5.220 -1.9013  0.5375  0.5673
  982MOL0     H29585   4.959   8.136   5.231  1.6945 -2.4210  1.1839
  982MOL0     H29586   5.122   8.116   5.085  0.1457  1.5595 -0.0871
  982MOL0     H29587   5.339   8.125   4.938  3.6972 -0.6874  0.5966
  982MOL0     H29588   5.737   7.943   4.835 -3.1162  1.2895 -0.4968
  982MOL0     H29589   5.953   7.959   4.708 -0.6745  0.1732 -2.4567
  982MOL0     H29590   6.149   8.009   4.566 -0.8217  1.1004 -1.6157
  982MOL0     H29591   6.157   8.042   4.745 -1.8230  3.1766  1.6736
  982MOL0     H29592   6.313   8.222   4.707 -5.7566  0.0146  0.7072
  982MOL0     H29593   6.310   8.194   4.532 -0.6221 -3.4943 -2.0307
  982MOL0     H29594   6.396   7.959   4.566 -1.9236 -1.0454  0.7053
  982MOL0     H29595   6.386   7.968   4.736  0.8714  0.1911  0.4454
  982MOL0     H29596   6.560   8.153   4.589 -2.4571 -1.6735 -3.1198
  982MOL0     H29597   6.557   8.119   4.767 -0.5082 -1.6865 -0.0036
  982MOL0     H29598   6.741   8.016   4.655  1.2268 -0.4657 -0.3273
  982MOL0     H29599   6.624   7.927   4.547 -1.8348 -0.3579  0.8459
  982MOL0     H29600   6.557   7.796   4.720  0.3222 -2.1676  1.3465
  982MOL0     H29601   6.642   7.887   4.848  4.0232  1.7619 -0.6298
  982MOL0     H29602   6.861   7.851   4.738 -1.2657  1.3926 -0.3404
  982MOL0     H29603   6.783   7.726   4.837  0.5313 -0.8212 -0.3784
  982MOL0     H29604   6.721   7.593   4.624 -1.3629  1.6236  0.1920
  982MOL0     H29605   6.879   7.604   4.660 -3.3478 -2.3130  2.9490
  982MOL0     H29606   5.876   8.389   4.647 -0.6536  1.2049  0.8360
  982MOL0     H29607   5.654   8.358   4.772  0.8411  2.1320 -3.1386
  982MOL0     H29608   5.570   8.268   5.265  1.3895 -3.1060  0.2165
  982MOL0     H29609   5.361   8.268   5.404 -0.8515 -1.7449  1.8704
  982MOL0     H29610   4.180   7.996   4.617  1.3429 -0.2641 -0.5442
  982MOL0     H29611   4.310   7.866   4.473 -0.2890 -0.2869  2.6161
  982MOL0     H29612   4.360   7.781   4.135 -0.8246 -0.6158  1.8550
  982MOL0     H29613   4.525   7.751   3.946  0.1840 -1.3816 -0.6049
  982MOL0     H29614   4.653   7.663   3.751  1.5979  0.0020 -0.9288
  982MOL0     H29615   4.789   7.565   3.742 -0.8120  1.0351 -0.5988
  982MOL0     H29616   4.767   7.751   3.981  0.9909 -1.1071  1.0104
  982MOL0     H29617   4.901   7.649   3.940  1.3297  2.0992  0.9267
  982MOL0     H29618   4.953   7.870   3.881  0.8785  0.2771 -0.6282
  982MOL0     H29619   4.810   7.894   3.780 -2.4856 -1.1637  1.9398
  982MOL0     H29620   4.879   7.752   3.611 -1.0723 -3.1859  1.3353
  982MOL0     H29621   5.010   7.871   3.648  1.4950  0.1376  2.3691
  982MOL0     H29622   5.213   7.518   3.617 -0.1554 -0.4516 -0.1937
  982MOL0     H29623   4.631   7.366   4.084 -0.7495 -0.2561 -2.2025
  982MOL0     H29624   4.490   7.401   4.286  0.0732  1.0911 -0.0380
  983MOL0     O29625   6.729   7.382   7.778  0.0836  0.5143 -0.8647
  983MOL0     C29626   6.615   7.410   7.758  0.4961 -0.1400 -0.8061
  983MOL0     O29627   6.547   7.401   7.643  0.3954 -0.5073  0.2740
  983MOL0     C29628   6.617   7.362   7.525 -0.0872  0.2851 -0.0100
  983MOL0     C29629   6.726   7.435   7.480 -0.6158 -0.4524  0.4425
  983MOL0     C29630   6.789   7.410   7.358  0.1010  0.0998 -0.0296
  983MOL0     C29631   6.752   7.300   7.273 -0.1842 -0.0845  1.3579
  983MOL0     O29632   6.799   7.270   7.145  0.6874  0.3715 -0.2690
  983MOL0     C29633   6.942   7.263   7.130 -0.5160  0.4611  0.4765
  983MOL0     C29634   6.984   7.149   7.038  0.7840 -0.8438  0.3784
  983MOL0     C29635   7.111   7.078   7.060  0.8527 -0.2310 -0.4791
  983MOL0     C29636   7.131   6.964   6.959 -0.0837  0.3330 -1.0027
  983MOL0     C29637   7.257   6.881   6.976  0.2556 -0.1343  0.0753
  983MOL0     C29638   7.383   6.959   7.012 -0.2923  0.4512 -0.4380
  983MOL0     C29639   7.437   7.061   6.909  1.0434 -0.1046 -0.6641
  983MOL0     C29640   7.557   7.140   6.971  0.7053  0.5346  1.0325
  983MOL0     N29641   7.677   7.063   7.001 -0.7454  0.2760  0.6015
  983MOL0     C29642   7.719   6.954   6.932 -0.7610  0.0236  0.4374
  983MOL0     C29643   7.832   6.914   7.008  0.5982 -0.3070  0.0950
  983MOL0     C29644   7.901   6.783   6.966 -0.0804 -0.9527 -0.6616
  983MOL0     C29645   8.028   6.809   6.874 -0.1045  0.2898 -0.3998
  983MOL0     C29646   8.133   6.704   6.918 -0.0703 -0.3293  0.1272
  983MOL0     C29647   8.251   6.713   6.823  0.3834  0.5940  0.3285
  983MOL0     O29648   8.335   6.601   6.843  0.3235 -0.0253 -0.0084
  983MOL0     C29649   8.439   6.621   6.934 -0.1265  0.3613  0.0586
  983MOL0     C29650   8.554   6.547   6.918 -0.9370 -0.3261  1.1404
  983MOL0     C29651   8.657   6.556   7.008  0.4046 -0.3529  0.1628
  983MOL0     C29652   8.642   6.627   7.127 -1.1868  0.5133  0.7581
  983MOL0     C29653   8.755   6.625   7.226  1.3290  0.0154 -0.5476
  983MOL0     O29654   8.733   6.679   7.353 -0.4314  0.0602  0.1158
  983MOL0     C29655   8.832   6.654   7.449  1.2754 -0.7229  0.8936
  983MOL0     C29656   8.882   6.523   7.481 -0.4636  0.0393 -0.3585
  983MOL0     C29657   8.978   6.506   7.588  0.3619  0.4173  0.4071
  983MOL0     C29658   9.008   6.615   7.675  0.1812 -0.2607  0.2824
  983MOL0     O29659   9.086   6.606   7.787  0.4390  0.2091 -0.1354
  983MOL0     C29660   9.156   6.478   7.813 -1.3687 -0.1955 -1.3227
  983MOL0     C29661   9.251   6.505   7.932  0.0303  0.1766 -0.0395
  983MOL0     C29662   9.339   6.390   7.959 -0.2646 -0.4276 -0.1865
  983MOL0     C29663   9.284   6.251   7.952  0.9419  0.6593 -0.2196
  983MOL0     C29664   9.216   6.226   8.084  0.0735  0.8137  0.1793
  983MOL0     C29665   9.139   6.096   8.098 -0.6435  0.5342  0.5878
  983MOL0     C29666   9.002   6.085   8.023  0.5410  0.2929 -0.6222
  983MOL0     C29667   8.923   5.969   8.065  0.6813  0.0114 -0.1248
  983MOL0    Cl29668   8.841   5.987   8.216 -0.0405 -0.2453 -0.2644
  983MOL0     C29669   8.957   6.741   7.635 -0.0104  0.1647  0.3349
  983MOL0     C29670   8.864   6.757   7.530  0.2401 -0.8923 -0.6385
  983MOL0     O29671   8.861   6.572   7.186  0.0046 -0.3083 -0.7182
  983MOL0     C29672   8.525   6.702   7.152  0.1064  0.3808 -0.6698
  983MOL0     C29673   8.424   6.698   7.058 -0.7242  0.2957 -0.6955
  983MOL0     N29674   7.858   6.994   7.116 -0.5200 -0.0181 -0.5069
  983MOL0     N29675   7.770   7.084   7.107 -0.4070 -0.2887 -0.8899
  983MOL0     C29676   6.647   7.217   7.323  0.6426 -0.2344 -0.2698
  983MOL0     C29677   6.583   7.247   7.448 -0.2045 -0.5271  0.2126
  983MOL0     C29678   6.526   7.456   7.869 -0.1280  0.7750  0.4025
  983MOL0     C29679   6.391   7.427   7.869  0.7392 -0.2856 -1.2443
  983MOL0     C29680   6.302   7.491   7.959  0.1350  0.1399  1.2902
  983MOL0     C29681   6.351   7.559   8.070 -0.1576 -0.0399 -0.1057
  983MOL0     O29682   6.271   7.616   8.168  0.2623  0.1135 -0.2821
  983MOL0     C29683   6.138   7.559   8.195 -0.0085  0.3244 -0.6943
  983MOL0     C29684   6.111   7.557   8.341  0.4239 -0.0955  0.3995
  983MOL0     C29685   5.961   7.525   8.359 -0.4300  0.0274 -0.6175
  983MOL0     C29686   5.930   7.568   8.501  0.3817 -0.5411  0.1928
  983MOL0     C29687   5.787   7.561   8.511  0.0777 -0.9904 -1.0778
  983MOL0     C29688   5.664   7.567   8.508  0.3957  0.4165  1.1894
  983MOL0     C29689   6.493   7.588   8.072  0.5209  0.2110  0.1792
  983MOL0     C29690   6.582   7.526   7.974  0.4307  0.8821  1.3285
  983MOL0     H29691   6.770   7.510   7.545 -1.0129  0.5076 -0.3799
  983MOL0     H29692   6.871   7.477   7.336  1.5270 -1.3697  0.6538
  983MOL0     H29693   6.997   7.258   7.224 -0.5939 -0.1471  0.4893
  983MOL0     H29694   6.961   7.359   7.081  1.3264 -0.6891 -1.2270
  983MOL0     H29695   6.979   7.188   6.936  1.4966 -2.9040 -0.5036
  983MOL0     H29696   6.899   7.079   7.039 -0.5300  0.6018 -1.7756
  983MOL0     H29697   7.108   7.041   7.163  0.8593  0.8131 -0.0881
  983MOL0     H29698   7.193   7.152   7.054 -1.1175  2.3271  1.6498
  983MOL0     H29699   7.044   6.898   6.966 -0.0699  0.3652 -0.4322
  983MOL0     H29700   7.132   7.005   6.858 -0.9458  0.3118 -1.0291
  983MOL0     H29701   7.275   6.835   6.879  3.7589 -1.2204  1.1181
  983MOL0     H29702   7.235   6.811   7.058 -4.5535  3.1249  2.0570
  983MOL0     H29703   7.460   6.883   7.027  0.3177  0.3754 -3.3712
  983MOL0     H29704   7.364   7.003   7.111  0.0861 -1.6437  0.6226
  983MOL0     H29705   7.465   7.007   6.818  0.1238 -1.0747 -0.3922
  983MOL0     H29706   7.361   7.135   6.882 -0.0288 -0.4108  1.3383
  983MOL0     H29707   7.515   7.192   7.058 -1.3449  0.1368  0.3548
  983MOL0     H29708   7.591   7.210   6.895  2.1435 -0.4210  0.7710
  983MOL0     H29709   7.673   6.913   6.842  1.8806 -0.3657 -0.8077
  983MOL0     H29710   7.827   6.718   6.920 -1.5447 -0.3328  0.7246
  983MOL0     H29711   7.937   6.748   7.064 -0.5970  0.5539  0.1019
  983MOL0     H29712   8.066   6.907   6.903 -0.0135 -0.0895  0.8233
  983MOL0     H29713   8.002   6.817   6.768 -1.7436 -2.3493 -0.3035
  983MOL0     H29714   8.170   6.708   7.021  1.3366  0.1340 -0.3673
  983MOL0     H29715   8.088   6.604   6.906 -0.1502 -0.6880  2.7300
  983MOL0     H29716   8.312   6.804   6.821 -0.9659  1.5132  0.1086
  983MOL0     H29717   8.211   6.716   6.721  0.9258  3.6350  0.1024
  983MOL0     H29718   8.548   6.498   6.821  0.6387 -0.0561  0.8838
  983MOL0     H29719   8.745   6.493   6.999 -1.7312 -3.5975  0.3229
  983MOL0     H29720   8.848   6.430   7.438 -0.4346 -0.5073  0.7650
  983MOL0     H29721   9.017   6.407   7.606 -0.6073  0.3871  2.6398
  983MOL0     H29722   9.210   6.442   7.725 -2.8984 -3.3509 -1.1207
  983MOL0     H29723   9.070   6.417   7.843 -0.5567 -0.0407  1.6447
  983MOL0     H29724   9.192   6.534   8.019 -1.0167 -0.3192 -0.5602
  983MOL0     H29725   9.314   6.590   7.907  0.9485 -0.6511 -0.6343
  983MOL0     H29726   9.386   6.411   8.056  1.9483  0.4157 -1.3643
  983MOL0     H29727   9.418   6.389   7.884  0.9194 -4.1073  0.9014
  983MOL0     H29728   9.202   6.232   7.882  0.8324  0.3634 -0.0119
  983MOL0     H29729   9.363   6.176   7.950  1.3014  1.0202 -2.6433
  983MOL0     H29730   9.140   6.300   8.113 -0.6386 -1.0621  3.7167
  983MOL0     H29731   9.300   6.233   8.154  1.2557 -0.1087 -1.0917
  983MOL0     H29732   9.109   6.093   8.203 -1.8566 -1.0483  0.2462
  983MOL0     H29733   9.208   6.015   8.071  3.0254  3.3267  0.9644
  983MOL0     H29734   8.946   6.177   8.039  1.3882  0.8935 -1.0524
  983MOL0     H29735   9.013   6.088   7.914 -3.8216 -3.9504 -1.5196
  983MOL0     H29736   8.982   5.877   8.058  0.4634 -0.4234  2.7956
  983MOL0     H29737   8.841   5.965   7.992  0.0911  3.9151  0.1175
  983MOL0     H29738   8.976   6.825   7.701  0.0178 -1.9805  3.2541
  983MOL0     H29739   8.803   6.845   7.511  1.1911 -0.7250 -3.3998
  983MOL0     H29740   8.523   6.763   7.242  2.0664  0.3625 -0.5719
  983MOL0     H29741   8.339   6.757   7.092  0.3830  1.0557  0.8355
  983MOL0     H29742   6.595   7.146   7.261 -0.9166 -0.3214  1.0715
  983MOL0     H29743   6.494   7.191   7.477 -1.8364  0.3226 -2.7598
  983MOL0     H29744   6.343   7.372   7.788 -1.2162 -1.4298  0.6009
  983MOL0     H29745   6.198   7.473   7.933  0.8676 -1.5658 -0.7533
  983MOL0     H29746   6.126   7.457   8.158 -0.0131  0.7868 -2.0305
  983MOL0     H29747   6.066   7.620   8.140 -0.7026  0.2652  0.1212
  983MOL0     H29748   6.178   7.488   8.392  2.3859  0.0599 -1.8293
  983MOL0     H29749   6.128   7.658   8.380 -1.7654  1.0948 -1.4462
  983MOL0     H29750   5.947   7.418   8.341  1.1302  0.3107 -4.4714
  983MOL0     H29751   5.889   7.572   8.291 -0.8398  0.0283 -0.1909
  983MOL0     H29752   5.984   7.511   8.578  1.1299 -0.8064 -0.5100
  983MOL0     H29753   5.964   7.671   8.516  4.0939 -1.6138  0.3174
  983MOL0     H29754   5.558   7.577   8.498  0.2769 -1.3898  0.4303
  983MOL0     H29755   6.526   7.656   8.150 -1.4256 -1.1791  2.3316
  983MOL0     H29756   6.688   7.549   7.968  1.5865 -3.6724  1.0476
  984MOL0     O29757   0.995   3.289   4.961  0.0784  0.1794  0.6560
  984MOL0     C29758   1.011   3.331   4.847  0.5287  0.7486  0.7336
  984MOL0     O29759   0.913   3.346   4.753  0.1410  0.6605  0.1579
  984MOL0     C29760   0.782   3.321   4.762 -0.8137 -0.1349 -0.0920
  984MOL0     C29761   0.685   3.414   4.732  0.4801 -0.6464  0.3030
  984MOL0     C29762   0.548   3.380   4.727 -0.2339 -0.7688  0.8022
  984MOL0     C29763   0.517   3.249   4.752  1.0163  0.1175  0.1481
  984MOL0     O29764   0.385   3.211   4.751  0.3656  0.1315 -0.3598
  984MOL0     C29765   0.274   3.305   4.757 -0.4776  0.3070  0.0062
  984MOL0     C29766   0.147   3.224   4.784 -0.0590 -0.5222 -0.1265
  984MOL0     C29767   0.035   3.317   4.811  0.0988 -0.1186  1.0299
  984MOL0     C29768  -0.096   3.245   4.852 -0.2637 -0.1437  0.2417
  984MOL0     C29769  -0.201   3.353   4.875 -0.1065  0.0344 -0.1086
  984MOL0     C29770  -0.346   3.290   4.857  0.3647 -0.2999 -0.9150
  984MOL0     C29771  -0.463   3.386   4.889 -0.7854  0.3697 -0.6547
  984MOL0     C29772  -0.597   3.336   4.833 -0.1791  0.3629 -0.3127
  984MOL0     N29773  -0.710   3.418   4.875 -1.2239 -0.2212  0.1368
  984MOL0     C29774  -0.771   3.404   4.992  0.1290  0.3575  0.2299
  984MOL0     C29775  -0.889   3.464   4.965  0.6647 -0.1491 -0.6603
  984MOL0     C29776  -1.003   3.454   5.062 -0.2746 -0.3639 -0.6329
  984MOL0     C29777  -1.011   3.579   5.151 -0.2993  1.3040  0.1972
  984MOL0     C29778  -0.917   3.582   5.270 -0.0998 -0.7051 -0.1398
  984MOL0     C29779  -0.960   3.494   5.389 -0.9926 -0.5927 -0.2467
  984MOL0     O29780  -0.939   3.569   5.506 -0.3296  0.3249 -0.4347
  984MOL0     C29781  -1.035   3.537   5.601 -0.0832 -0.5668 -0.3040
  984MOL0     C29782  -1.134   3.636   5.613  0.9726  0.1653 -0.3449
  984MOL0     C29783  -1.245   3.621   5.710 -0.2920 -0.3412  0.7698
  984MOL0     C29784  -1.257   3.510   5.791 -0.3829  0.6555  0.3633
  984MOL0     C29785  -1.367   3.489   5.881  0.4460 -0.6554 -0.2336
  984MOL0     O29786  -1.467   3.586   5.893  0.3307 -0.1219  0.7887
  984MOL0     C29787  -1.576   3.581   5.976  0.3231  0.1699  0.5730
  984MOL0     C29788  -1.588   3.496   6.087  0.2344 -0.5321  0.8203
  984MOL0     C29789  -1.707   3.492   6.173  0.2731 -0.1082  0.2146
  984MOL0     C29790  -1.811   3.579   6.140 -1.2620  0.9703  0.8206
  984MOL0     O29791  -1.919   3.575   6.217  0.4460 -0.4924  0.3266
  984MOL0     C29792  -1.985   3.703   6.240 -0.1450 -0.0822 -0.3597
  984MOL0     C29793  -2.119   3.730   6.169  0.1441  0.2886 -0.1655
  984MOL0     C29794  -2.213   3.615   6.169 -0.1166 -0.6004  0.5242
  984MOL0     C29795  -2.274   3.556   6.299  0.7008 -0.1085 -0.3176
  984MOL0     C29796  -2.309   3.405   6.265 -0.9197 -0.0935 -1.1180
  984MOL0     C29797  -2.391   3.348   6.377  0.1703  0.4678 -0.6721
  984MOL0     C29798  -2.477   3.232   6.328 -0.1303  1.3636 -0.3989
  984MOL0     C29799  -2.566   3.190   6.450 -0.2315  1.7796  0.0186
  984MOL0    Cl29800  -2.671   3.066   6.409  0.3411 -0.2112 -0.0726
  984MOL0     C29801  -1.807   3.658   6.020 -0.5278 -0.7205 -0.8684
  984MOL0     C29802  -1.690   3.658   5.940  0.9263 -0.2267 -0.6073
  984MOL0     O29803  -1.366   3.385   5.945  0.6413 -0.7547  0.0456
  984MOL0     C29804  -1.157   3.405   5.770 -0.2871 -0.3661 -0.2019
  984MOL0     C29805  -1.048   3.424   5.675  0.2813 -0.1361  0.2543
  984MOL0     N29806  -0.879   3.535   4.848 -0.8495  0.4436  0.4522
  984MOL0     N29807  -0.771   3.497   4.786  0.7639  0.3622  0.2937
  984MOL0     C29808   0.613   3.156   4.764  0.3095  0.4870 -0.8812
  984MOL0     C29809   0.747   3.194   4.775 -0.5126  1.7447  0.0326
  984MOL0     C29810   1.148   3.379   4.801  1.3862 -1.0348  0.0250
  984MOL0     C29811   1.168   3.462   4.700  0.4817 -0.2237  0.1055
  984MOL0     C29812   1.294   3.498   4.660 -0.3303 -0.2094  0.1641
  984MOL0     C29813   1.407   3.450   4.728 -0.8042  0.7955 -0.0213
  984MOL0     O29814   1.539   3.462   4.688 -0.7505  0.0943  0.5067
  984MOL0     C29815   1.566   3.525   4.563  0.3282 -0.2270  0.4069
  984MOL0     C29816   1.707   3.509   4.505  0.0856  0.0528  0.8731
  984MOL0     C29817   1.810   3.604   4.565 -0.1529 -0.1694 -1.1084
  984MOL0     C29818   1.954   3.579   4.515 -0.2925  0.4273 -0.3619
  984MOL0     C29819   2.055   3.642   4.600  0.1916 -0.0140 -0.3460
  984MOL0     C29820   2.141   3.686   4.675 -0.0869 -0.6923  0.3127
  984MOL0     C29821   1.385   3.381   4.852 -0.4943  0.2130  0.0306
  984MOL0     C29822   1.253   3.343   4.881 -0.5945 -0.2430 -0.6004
  984MOL0     H29823   0.702   3.518   4.706 -2.0162 -0.4486 -0.8435
  984MOL0     H29824   0.474   3.453   4.695  0.1192 -0.5122  0.5691
  984MOL0     H29825   0.268   3.375   4.674 -1.8763  2.3628  1.7138
  984MOL0     H29826   0.290   3.366   4.847  1.2252 -3.9273  2.8959
  984MOL0     H29827   0.157   3.157   4.869  1.1346  0.2897  0.4048
  984MOL0     H29828   0.114   3.183   4.688 -0.0930 -0.4352 -0.1523
  984MOL0     H29829   0.022   3.362   4.712 -0.1419  1.2923  1.6736
  984MOL0     H29830   0.061   3.386   4.892  0.4009  1.0154  0.0079
  984MOL0     H29831  -0.122   3.181   4.767 -1.5672 -0.1695  0.6348
  984MOL0     H29832  -0.085   3.189   4.945 -2.5166 -1.4559 -0.2010
  984MOL0     H29833  -0.188   3.438   4.807  3.9416  0.7461  1.2655
  984MOL0     H29834  -0.193   3.381   4.980  0.1313 -3.7285  1.0455
  984MOL0     H29835  -0.354   3.204   4.924 -1.1979  1.3361  1.1325
  984MOL0     H29836  -0.371   3.236   4.766 -3.0099 -0.9044  0.2317
  984MOL0     H29837  -0.462   3.398   4.998 -2.0289 -1.2464 -0.4189
  984MOL0     H29838  -0.440   3.486   4.854 -1.7075  0.7909 -0.1148
  984MOL0     H29839  -0.613   3.237   4.876  0.8073  0.7754  1.0577
  984MOL0     H29840  -0.598   3.329   4.724 -1.2982 -2.9849 -0.2062
  984MOL0     H29841  -0.746   3.329   5.067 -0.7327 -2.1097 -1.7748
  984MOL0     H29842  -1.006   3.354   5.107 -0.6284 -2.7671 -5.3600
  984MOL0     H29843  -1.094   3.463   5.002  0.1709  2.2866 -1.0354
  984MOL0     H29844  -1.113   3.594   5.188 -0.5827  1.1047 -0.4802
  984MOL0     H29845  -0.981   3.662   5.086 -2.8350  2.2363  0.1111
  984MOL0     H29846  -0.814   3.560   5.242  0.5170  2.7531 -1.0866
  984MOL0     H29847  -0.906   3.682   5.313 -0.9418 -0.6956  0.0868
  984MOL0     H29848  -0.904   3.399   5.388 -2.9592 -1.8833  1.7518
  984MOL0     H29849  -1.067   3.472   5.383 -0.9285 -1.8899  1.9663
  984MOL0     H29850  -1.121   3.731   5.561 -0.6199  2.1619  2.5911
  984MOL0     H29851  -1.320   3.699   5.722 -0.8000 -1.2083  5.2589
  984MOL0     H29852  -1.505   3.442   6.131  1.3754  0.8268  0.3759
  984MOL0     H29853  -1.724   3.427   6.258 -5.7519  1.1830  0.5012
  984MOL0     H29854  -1.924   3.789   6.211 -1.8129  1.2103 -0.1780
  984MOL0     H29855  -2.009   3.715   6.346  0.6793  0.9153 -0.2613
  984MOL0     H29856  -2.103   3.776   6.071 -0.9620  1.7065  0.2776
  984MOL0     H29857  -2.168   3.811   6.225 -0.2242  1.9336 -2.6824
  984MOL0     H29858  -2.155   3.536   6.122  1.9689  0.4910  1.1320
  984MOL0     H29859  -2.296   3.639   6.101  1.7362 -1.6768 -2.2467
  984MOL0     H29860  -2.200   3.552   6.380 -1.4910  0.3563  1.8392
  984MOL0     H29861  -2.352   3.621   6.339  1.2259 -0.1503  0.8169
  984MOL0     H29862  -2.221   3.340   6.259 -0.9037 -0.1921 -0.1005
  984MOL0     H29863  -2.360   3.396   6.169 -0.0936 -1.4927 -1.4575
  984MOL0     H29864  -2.451   3.422   6.431  1.3572  1.9535 -1.3154
  984MOL0     H29865  -2.328   3.304   6.454  3.4754  0.6017 -3.0638
  984MOL0     H29866  -2.547   3.262   6.249  0.5724  0.7321 -1.2802
  984MOL0     H29867  -2.411   3.158   6.282  0.5253  1.9860 -0.4748
  984MOL0     H29868  -2.616   3.282   6.480  0.1921  2.1975 -0.5348
  984MOL0     H29869  -2.505   3.149   6.531 -1.6779  0.1850  0.3563
  984MOL0     H29870  -1.891   3.719   5.990 -1.2108 -2.3352 -2.3887
  984MOL0     H29871  -1.692   3.730   5.859  0.1318  0.6538  0.1772
  984MOL0     H29872  -1.153   3.318   5.835  2.1600 -0.2046 -0.0182
  984MOL0     H29873  -0.971   3.348   5.663 -0.0980 -0.4973  0.0865
  984MOL0     H29874   0.578   3.054   4.781  2.7100 -0.3031 -0.4104
  984MOL0     H29875   0.821   3.117   4.792 -2.5413 -0.4972 -0.7274
  984MOL0     H29876   1.090   3.504   4.637  0.7260 -1.6029 -1.1823
  984MOL0     H29877   1.297   3.557   4.569 -0.1796 -3.2050 -1.9113
  984MOL0     H29878   1.540   3.630   4.579 -0.7807 -0.5901  1.0827
  984MOL0     H29879   1.496   3.480   4.491  1.2218 -0.7117 -0.1882
  984MOL0     H29880   1.741   3.406   4.519  0.9429  0.5796  3.1078
  984MOL0     H29881   1.712   3.528   4.398 -0.5531  1.1914  1.0367
  984MOL0     H29882   1.799   3.588   4.672 -2.9454 -0.2981 -1.3353
  984MOL0     H29883   1.783   3.709   4.558  1.4325  0.2237 -1.7858
  984MOL0     H29884   1.970   3.476   4.484 -0.5710  1.1437 -3.2017
  984MOL0     H29885   1.956   3.639   4.424 -5.7239  1.5089 -0.0973
  984MOL0     H29886   2.218   3.730   4.735  0.0865  2.2746 -1.8798
  984MOL0     H29887   1.467   3.349   4.917 -1.1986  1.4921  1.6176
  984MOL0     H29888   1.255   3.279   4.969  2.9957 -1.1923 -1.1819
  985MOL0     O29889   7.721   4.876   9.280 -0.2885 -0.6324 -0.1061
  985MOL0     C29890   7.834   4.908   9.320 -0.3193  0.0299  0.2653
  985MOL0     O29891   7.952   4.889   9.251 -0.9749  0.1159 -0.7978
  985MOL0     C29892   7.957   4.806   9.136  0.3706 -0.0074 -0.5412
  985MOL0     C29893   7.900   4.845   9.018 -0.8288 -1.0169 -0.4462
  985MOL0     C29894   7.907   4.758   8.910  0.2050 -0.6033  0.1339
  985MOL0     C29895   7.966   4.639   8.916 -0.9844 -0.1584  0.2533
  985MOL0     O29896   7.971   4.554   8.805  0.0212 -0.6704  0.2621
  985MOL0     C29897   8.039   4.610   8.690  0.6456 -0.3924  0.0194
  985MOL0     C29898   7.972   4.557   8.561 -0.9884  0.0214 -0.5355
  985MOL0     C29899   7.833   4.616   8.524  0.3899  0.7637 -0.9099
  985MOL0     C29900   7.810   4.570   8.381  0.5540 -0.0059  0.4094
  985MOL0     C29901   7.681   4.618   8.325  0.5300  0.5014  0.5403
  985MOL0     C29902   7.564   4.524   8.371  0.0307  0.0953  0.6295
  985MOL0     C29903   7.429   4.582   8.333 -1.3254 -0.3737 -0.2611
  985MOL0     C29904   7.323   4.486   8.354 -0.7731 -0.2026 -0.5322
  985MOL0     N29905   7.291   4.470   8.498  0.3315 -0.1051 -0.5698
  985MOL0     C29906   7.297   4.350   8.569 -0.1275 -0.7882 -0.8477
  985MOL0     C29907   7.262   4.371   8.694  0.3495 -0.4202  0.5067
  985MOL0     C29908   7.224   4.268   8.800 -0.9053  0.1586 -0.0890
  985MOL0     C29909   7.074   4.276   8.827 -0.6611 -0.8822 -1.2195
  985MOL0     C29910   7.042   4.375   8.942 -0.0164 -0.0271  0.2728
  985MOL0     C29911   6.897   4.411   8.942  0.7192 -0.2708 -0.1000
  985MOL0     O29912   6.869   4.506   9.042 -0.7633 -0.0427 -0.4329
  985MOL0     C29913   6.733   4.497   9.073 -0.6989  0.2947 -0.1218
  985MOL0     C29914   6.635   4.555   8.998  0.4889  0.7114  0.2253
  985MOL0     C29915   6.504   4.541   9.011  0.1245 -0.1389 -0.3581
  985MOL0     C29916   6.453   4.492   9.132 -0.8826  0.1860  1.0571
  985MOL0     C29917   6.317   4.496   9.166 -0.4022  0.2309 -1.0997
  985MOL0     O29918   6.280   4.418   9.276  0.0741  0.5652  0.3146
  985MOL0     C29919   6.144   4.399   9.303 -0.1141  1.3806 -0.0923
  985MOL0     C29920   6.110   4.362   9.434  0.7430  0.0743 -0.1483
  985MOL0     C29921   5.987   4.328   9.464  0.4876  0.1735 -0.0355
  985MOL0     C29922   5.882   4.321   9.360  0.0400 -0.4564 -0.5136
  985MOL0     O29923   5.756   4.276   9.409  0.5862  0.6963  0.3317
  985MOL0     C29924   5.657   4.238   9.318  0.6481 -0.1064  0.0253
  985MOL0     C29925   5.545   4.169   9.396  0.3472  0.1505  0.0253
  985MOL0     C29926   5.421   4.142   9.308  0.2375 -0.0261 -0.2512
  985MOL0     C29927   5.307   4.084   9.386  0.1190  0.1195 -0.2054
  985MOL0     C29928   5.165   4.084   9.325  0.0791  0.8230  0.6600
  985MOL0     C29929   5.095   4.215   9.344 -0.3248  0.4443  0.6181
  985MOL0     C29930   4.963   4.230   9.279  0.7700  1.1779  1.5731
  985MOL0     C29931   4.857   4.116   9.314  0.3077 -0.9609  0.0143
  985MOL0    Cl29932   4.809   4.123   9.487 -0.1248  0.0230 -0.0281
  985MOL0     C29933   5.920   4.335   9.224 -0.5085  0.5290 -0.4111
  985MOL0     C29934   6.050   4.379   9.202  0.3654  0.0744  0.2773
  985MOL0     O29935   6.238   4.568   9.107 -0.0379  0.4897  0.4157
  985MOL0     C29936   6.552   4.443   9.222  0.0246 -0.1269 -0.1905
  985MOL0     C29937   6.690   4.444   9.194  0.3529 -0.4689 -0.1211
  985MOL0     N29938   7.248   4.505   8.703  1.2158  0.6454 -0.7611
  985MOL0     N29939   7.254   4.569   8.593  1.0118 -0.2718 -0.6883
  985MOL0     C29940   8.020   4.600   9.041  0.5388  1.1721  0.3895
  985MOL0     C29941   8.015   4.684   9.153  0.1856  0.5631  0.6847
  985MOL0     C29942   7.841   4.955   9.465  1.1631  0.4011  0.9310
  985MOL0     C29943   7.956   4.941   9.527 -0.7261 -0.5048  0.3469
  985MOL0     C29944   7.980   4.987   9.654 -0.1834 -0.4396 -1.0305
  985MOL0     C29945   7.871   5.040   9.726 -0.3462  0.0817 -0.3552
  985MOL0     O29946   7.882   5.104   9.846  0.4724 -0.4252 -1.0629
  985MOL0     C29947   7.913   5.240   9.849 -0.2818  0.8873  0.1285
  985MOL0     C29948   7.982   5.283   9.978  0.5504  0.0497 -0.1285
  985MOL0     C29949   7.890   5.249  10.096 -1.2615 -0.4007  0.6362
  985MOL0     C29950   7.955   5.167  10.219  1.5576 -0.9509  0.0197
  985MOL0     C29951   8.025   5.256  10.320 -0.1224  0.5024  0.0163
  985MOL0     C29952   8.071   5.335  10.406 -0.5556 -0.5844 -0.1211
  985MOL0     C29953   7.744   5.051   9.656  0.2339 -0.6446  0.8120
  985MOL0     C29954   7.729   5.009   9.523 -0.1773 -0.0270 -0.0232
  985MOL0     H29955   7.845   4.939   9.028  3.9335  1.9011  2.4101
  985MOL0     H29956   7.858   4.776   8.815  1.3662 -0.0032 -0.3629
  985MOL0     H29957   8.147   4.591   8.689  0.2927 -2.9205  1.0769
  985MOL0     H29958   8.044   4.718   8.681  2.0914 -0.5769 -2.0701
  985MOL0     H29959   7.964   4.448   8.573  1.0228  0.0171  1.4369
  985MOL0     H29960   8.046   4.586   8.485  3.0891  0.8723  3.3442
  985MOL0     H29961   7.839   4.724   8.537 -2.9028  0.7572  2.3550
  985MOL0     H29962   7.755   4.579   8.591 -1.0355  1.2674 -2.2555
  985MOL0     H29963   7.895   4.610   8.325 -0.5959  0.3257 -1.1702
  985MOL0     H29964   7.809   4.461   8.389  2.5466  0.1073  4.6352
  985MOL0     H29965   7.684   4.620   8.216  0.5165 -1.5776  0.4571
  985MOL0     H29966   7.667   4.718   8.366 -1.2584 -0.1212  1.5493
  985MOL0     H29967   7.570   4.507   8.479 -2.6038 -2.8814  0.4457
  985MOL0     H29968   7.582   4.427   8.325 -2.5136  0.5021 -1.4684
  985MOL0     H29969   7.408   4.673   8.392 -1.5733 -0.9927  0.6222
  985MOL0     H29970   7.437   4.622   8.231 -0.0236  1.0753  0.3568
  985MOL0     H29971   7.356   4.389   8.314 -1.9366  0.9716 -4.9182
  985MOL0     H29972   7.237   4.511   8.292  0.1689  2.2663 -0.9426
  985MOL0     H29973   7.296   4.252   8.522  0.9956 -1.6432  0.7959
  985MOL0     H29974   7.277   4.267   8.896 -1.0317 -0.8702 -0.0186
  985MOL0     H29975   7.240   4.168   8.757  0.7224  0.5070 -0.3403
  985MOL0     H29976   7.019   4.184   8.851 -0.9125 -0.1779  1.1879
  985MOL0     H29977   7.024   4.322   8.742 -3.0969  0.5389  0.8302
  985MOL0     H29978   7.065   4.333   9.040 -1.5939 -1.3511  0.1203
  985MOL0     H29979   7.108   4.461   8.931  4.5562 -3.1867 -0.0944
  985MOL0     H29980   6.839   4.320   8.954 -4.2394  2.1853 -2.4260
  985MOL0     H29981   6.876   4.452   8.842  0.5792 -1.0094 -0.3810
  985MOL0     H29982   6.664   4.609   8.909 -2.6720 -1.8635 -2.6755
  985MOL0     H29983   6.445   4.577   8.928  0.0158  0.6470  0.0537
  985MOL0     H29984   6.192   4.346   9.503  1.0445 -0.3356 -0.5989
  985MOL0     H29985   5.969   4.294   9.565  2.1431  1.7699  0.8486
  985MOL0     H29986   5.685   4.175   9.234  0.4486  0.3713 -0.4090
  985MOL0     H29987   5.619   4.331   9.273 -2.2530 -0.9256  0.5832
  985MOL0     H29988   5.517   4.242   9.472 -0.8580 -0.8080  0.5339
  985MOL0     H29989   5.586   4.078   9.441 -0.7936  0.0528  0.9384
  985MOL0     H29990   5.445   4.075   9.225  0.3807  1.4407 -1.4502
  985MOL0     H29991   5.380   4.237   9.272 -1.5676 -0.4263  0.6283
  985MOL0     H29992   5.328   3.979   9.409 -0.1966  0.3161  1.0489
  985MOL0     H29993   5.315   4.122   9.488  2.0816 -3.0861  0.9718
  985MOL0     H29994   5.098   4.012   9.374 -1.0676  3.0202  2.5077
  985MOL0     H29995   5.184   4.054   9.221 -0.0511 -2.1879  1.4198
  985MOL0     H29996   5.155   4.303   9.317 -0.5374  0.2333 -0.6149
  985MOL0     H29997   5.088   4.216   9.453  2.3925 -4.0228  1.0857
  985MOL0     H29998   4.929   4.329   9.310 -0.9391  0.0135  3.6925
  985MOL0     H29999   4.970   4.238   9.170  0.4045  0.0055  1.4470
  985MOL0     H30000   4.885   4.011   9.297 -2.6823 -1.9938  0.8008
  985MOL0     H30001   4.763   4.140   9.264  1.3943 -2.4452 -2.9802
  985MOL0     H30002   5.844   4.331   9.147 -0.4098 -0.2830 -0.4708
  985MOL0     H30003   6.071   4.392   9.096  2.6429  0.6729  0.7505
  985MOL0     H30004   6.515   4.386   9.307  1.6800  0.5533  1.0541
  985MOL0     H30005   6.757   4.395   9.263 -0.8098 -2.3162 -0.2264
  985MOL0     H30006   8.055   4.498   9.051 -0.4080  0.9313  1.4358
  985MOL0     H30007   8.038   4.656   9.255 -1.3275 -1.5245  0.5099
  985MOL0     H30008   8.046   4.902   9.481 -1.0989 -0.5557 -0.3470
  985MOL0     H30009   8.074   4.966   9.704 -0.2478 -1.6498 -1.3793
  985MOL0     H30010   7.819   5.289   9.823  0.9031  2.6281 -1.1210
  985MOL0     H30011   7.980   5.267   9.766 -1.4451  1.6755 -0.5851
  985MOL0     H30012   8.076   5.228   9.979  0.2081 -0.5548 -0.1803
  985MOL0     H30013   8.003   5.390   9.979 -0.9153  0.3600  1.3237
  985MOL0     H30014   7.798   5.195  10.072 -1.7785  0.9892 -0.6949
  985MOL0     H30015   7.856   5.344  10.136  0.9087  1.8288 -2.3147
  985MOL0     H30016   7.881   5.118  10.283  0.4168  1.9558  1.0474
  985MOL0     H30017   8.034   5.106  10.173  0.6100 -1.6571 -0.7307
  985MOL0     H30018   8.098   5.408  10.479  2.1028 -3.0627  1.5815
  985MOL0     H30019   7.671   5.116   9.704 -0.4733  1.3934 -2.6312
  985MOL0     H30020   7.636   5.016   9.468 -1.0096  2.0860  1.5010
  986MOL0     O30021   6.345  11.313   3.323  1.1533 -0.1737 -0.2994
  986MOL0     C30022   6.390  11.403   3.258 -0.3914  0.1494  0.5331
  986MOL0     O30023   6.321  11.494   3.180  0.3610  0.3353  0.1613
  986MOL0     C30024   6.184  11.516   3.174  0.7790  0.3063  0.5653
  986MOL0     C30025   6.144  11.641   3.129 -0.0231 -0.6999  0.9019
  986MOL0     C30026   6.008  11.675   3.131  0.3797 -0.3516  0.0111
  986MOL0     C30027   5.911  11.583   3.178 -0.0773  0.7016 -0.0700
  986MOL0     O30028   5.775  11.623   3.190 -0.5820  0.1214  0.3419
  986MOL0     C30029   5.681  11.553   3.271 -0.4466  0.1411 -0.2288
  986MOL0     C30030   5.542  11.599   3.235  0.2453 -0.1354  0.1414
  986MOL0     C30031   5.439  11.499   3.253  0.3738  0.3054 -0.1240
  986MOL0     C30032   5.394  11.491   3.401 -0.7656  0.0873  0.1220
  986MOL0     C30033   5.280  11.396   3.428 -0.4142  0.5798 -0.4730
  986MOL0     C30034   5.142  11.426   3.385 -0.0930 -0.0014 -0.2404
  986MOL0     C30035   5.048  11.306   3.422 -0.4640  0.4950 -0.0163
  986MOL0     C30036   4.895  11.325   3.390 -0.1253  0.2450  0.4813
  986MOL0     N30037   4.831  11.414   3.483  0.5333  0.3093 -0.1600
  986MOL0     C30038   4.841  11.404   3.624 -0.0292 -0.5077 -0.6336
  986MOL0     C30039   4.775  11.513   3.675 -0.5176 -0.3428  0.0127
  986MOL0     C30040   4.774  11.561   3.826 -0.3846  0.3062 -0.1836
  986MOL0     C30041   4.634  11.615   3.841 -0.0662  0.2523 -0.6464
  986MOL0     C30042   4.614  11.665   3.991 -0.2334 -0.1506  0.0068
  986MOL0     C30043   4.461  11.672   4.032 -0.4176 -0.4924  0.1652
  986MOL0     O30044   4.438  11.741   4.155 -0.2072 -0.4218  0.0558
  986MOL0     C30045   4.304  11.769   4.187 -0.3214 -0.1116 -0.6245
  986MOL0     C30046   4.293  11.863   4.287 -0.3887 -0.2579 -0.0800
  986MOL0     C30047   4.179  11.915   4.350  0.6070 -1.0267  0.8871
  986MOL0     C30048   4.053  11.867   4.293  1.0376 -0.7587 -0.3113
  986MOL0     C30049   3.924  11.916   4.344 -0.2047 -0.1874 -0.5314
  986MOL0     O30050   3.920  11.919   4.486  0.0741  0.2544  0.4858
  986MOL0     C30051   3.798  11.893   4.560 -0.0732 -0.1142 -0.1632
  986MOL0     C30052   3.798  11.946   4.685  0.1754 -0.5331  0.4344
  986MOL0     C30053   3.685  11.932   4.770 -0.5499 -0.6104 -0.0201
  986MOL0     C30054   3.574  11.864   4.724  1.0197  0.8183 -1.0320
  986MOL0     O30055   3.461  11.867   4.800 -0.3236 -0.5449 -0.1256
  986MOL0     C30056   3.348  11.934   4.746 -0.6164 -0.2948  0.0462
  986MOL0     C30057   3.221  11.947   4.835  0.0602 -0.5489  0.7291
  986MOL0     C30058   3.101  11.989   4.757  0.8751 -0.2687 -0.1487
  986MOL0     C30059   3.100  12.142   4.739  0.1114  1.3107 -0.0490
  986MOL0     C30060   2.960  12.183   4.691 -0.0882 -0.6073 -0.5804
  986MOL0     C30061   2.853  12.182   4.802 -0.5212 -0.7438 -0.6960
  986MOL0     C30062   2.740  12.263   4.765 -0.6267 -0.0511 -0.5560
  986MOL0     C30063   2.642  12.184   4.669 -0.4875  0.0985  0.4804
  986MOL0    Cl30064   2.525  12.291   4.601 -0.5610  0.1199  0.1071
  986MOL0     C30065   3.577  11.808   4.590  0.4551 -0.7012  0.3422
  986MOL0     C30066   3.687  11.831   4.514  0.0854  0.7045  0.6528
  986MOL0     O30067   3.832  11.931   4.266 -0.6611 -0.2051  0.4764
  986MOL0     C30068   4.064  11.774   4.189  0.4425  0.1866 -1.0265
  986MOL0     C30069   4.182  11.724   4.137 -0.2996  0.3247  0.3843
  986MOL0     N30070   4.729  11.585   3.569 -0.1177  0.7308  0.6379
  986MOL0     N30071   4.760  11.526   3.459 -0.2315 -0.5209  0.2641
  986MOL0     C30072   5.947  11.450   3.227 -0.1675 -0.2535  0.3747
  986MOL0     C30073   6.088  11.419   3.216  1.3258 -0.0423 -0.4864
  986MOL0     C30074   6.540  11.419   3.260  0.1358  0.5664  0.1615
  986MOL0     C30075   6.594  11.535   3.212  1.4173  0.1585  0.2907
  986MOL0     C30076   6.734  11.548   3.178  0.1824 -0.9126  0.5889
  986MOL0     C30077   6.819  11.438   3.189 -0.9881  0.5141 -0.3550
  986MOL0     O30078   6.960  11.452   3.173 -0.5474 -0.3342  0.2806
  986MOL0     C30079   7.035  11.326   3.170  0.1862  0.0663 -0.6848
  986MOL0     C30080   7.155  11.355   3.075 -0.4696  0.0028 -0.8854
  986MOL0     C30081   7.229  11.230   3.046 -0.8989  0.2918  0.3862
  986MOL0     C30082   7.322  11.184   3.167 -0.2436  0.3072  0.8346
  986MOL0     C30083   7.384  11.053   3.146  0.2619  0.8160  0.0493
  986MOL0     C30084   7.435  10.940   3.147 -0.3497 -0.2966 -1.0101
  986MOL0     C30085   6.762  11.327   3.256 -0.0227  0.3110 -0.1870
  986MOL0     C30086   6.627  11.315   3.289 -0.2686 -0.1405  0.5041
  986MOL0     H30087   6.226  11.702   3.092 -0.4786 -1.0610 -0.8050
  986MOL0     H30088   5.964  11.771   3.105 -1.6838 -1.2278  0.0680
  986MOL0     H30089   5.701  11.567   3.378  0.4942 -1.4289 -0.1737
  986MOL0     H30090   5.687  11.446   3.250  1.1289  0.7907 -3.9701
  986MOL0     H30091   5.539  11.604   3.125  1.4423  1.9033  0.1440
  986MOL0     H30092   5.523  11.697   3.280  1.1202  0.0110  0.2020
  986MOL0     H30093   5.468  11.396   3.230  2.5505  0.2489  2.3927
  986MOL0     H30094   5.348  11.533   3.202 -0.9915 -1.7938  0.7467
  986MOL0     H30095   5.479  11.473   3.467  0.0297 -1.9859 -1.3776
  986MOL0     H30096   5.354  11.583   3.446 -4.2665 -2.1508  2.0570
  986MOL0     H30097   5.283  11.367   3.533  1.6413 -0.9517 -0.8928
  986MOL0     H30098   5.300  11.302   3.375 -2.2455 -0.6132  0.8116
  986MOL0     H30099   5.149  11.447   3.277  1.4438 -1.5202 -0.4893
  986MOL0     H30100   5.098  11.510   3.438 -3.9343 -2.2961  0.6524
  986MOL0     H30101   5.067  11.210   3.372 -1.1326 -0.3341  1.2800
  986MOL0     H30102   5.067  11.292   3.529 -2.1012 -0.6787  0.1442
  986MOL0     H30103   4.847  11.228   3.405 -1.2022  1.0965  3.0940
  986MOL0     H30104   4.892  11.364   3.287  0.9393 -2.3027 -0.5857
  986MOL0     H30105   4.893  11.321   3.670  0.6258 -1.2828 -2.6408
  986MOL0     H30106   4.845  11.643   3.837  1.2533 -0.8342 -1.7774
  986MOL0     H30107   4.795  11.471   3.884 -3.2333 -2.1490 -2.5932
  986MOL0     H30108   4.565  11.531   3.826  0.6275 -0.2482 -1.1081
  986MOL0     H30109   4.604  11.690   3.768  0.2035  0.3255 -0.6824
  986MOL0     H30110   4.671  11.617   4.071 -1.2645  0.7715  1.3329
  986MOL0     H30111   4.648  11.769   3.996  0.7309 -0.5059  1.4865
  986MOL0     H30112   4.426  11.570   4.053  2.4000 -1.3674  1.0508
  986MOL0     H30113   4.408  11.701   3.941  1.5770 -0.0627 -0.9103
  986MOL0     H30114   4.382  11.900   4.336 -1.7937 -0.1471  2.5333
  986MOL0     H30115   4.190  11.986   4.432 -1.3985  0.1256  0.2327
  986MOL0     H30116   3.886  12.002   4.715  0.8133 -0.7805 -0.9020
  986MOL0     H30117   3.679  11.961   4.875 -3.0451  0.3290 -0.3542
  986MOL0     H30118   3.315  11.874   4.661 -1.5000  0.1704  0.0490
  986MOL0     H30119   3.386  12.031   4.715 -3.8995  1.6163  1.5248
  986MOL0     H30120   3.230  12.018   4.917  0.3786  0.4003 -0.1075
  986MOL0     H30121   3.190  11.852   4.881  1.1018 -1.6829 -0.8064
  986MOL0     H30122   3.014  11.949   4.809 -0.3245  3.4038  0.9763
  986MOL0     H30123   3.107  11.944   4.657 -2.4018 -4.9715  1.4148
  986MOL0     H30124   3.124  12.192   4.834  0.8168 -2.4392  1.9443
  986MOL0     H30125   3.184  12.167   4.674 -0.1148 -2.5127 -2.0962
  986MOL0     H30126   2.925  12.105   4.623 -0.5221 -0.7646 -0.1714
  986MOL0     H30127   2.965  12.282   4.644  3.9457  0.4513  1.5600
  986MOL0     H30128   2.897  12.232   4.889 -2.9137  1.5723 -0.6899
  986MOL0     H30129   2.817  12.085   4.836 -3.5448  1.0544  1.7293
  986MOL0     H30130   2.683  12.280   4.858 -0.8875  0.4708 -0.8036
  986MOL0     H30131   2.762  12.364   4.728  0.0202  0.5374  1.3081
  986MOL0     H30132   2.598  12.096   4.718 -0.5555  0.7473  1.6253
  986MOL0     H30133   2.699  12.140   4.587  1.0901 -0.1363  1.6634
  986MOL0     H30134   3.491  11.753   4.552 -0.0224 -1.6724  2.6564
  986MOL0     H30135   3.680  11.812   4.407 -0.7087  0.5219  0.7284
  986MOL0     H30136   3.980  11.733   4.134 -1.9437 -0.2341  2.6132
  986MOL0     H30137   4.190  11.644   4.063 -1.7701 -0.3875  0.9417
  986MOL0     H30138   5.874  11.372   3.247 -2.8190  1.9304 -0.0703
  986MOL0     H30139   6.104  11.317   3.250 -3.7583 -0.5909  1.1597
  986MOL0     H30140   6.537  11.626   3.194  1.6787  0.4937  1.0824
  986MOL0     H30141   6.773  11.642   3.140 -1.0580 -0.1293  1.1973
  986MOL0     H30142   6.982  11.243   3.122  2.2454  0.3058 -3.6268
  986MOL0     H30143   7.078  11.295   3.266 -2.1175 -2.3230 -0.3150
  986MOL0     H30144   7.118  11.382   2.976 -2.3204 -0.7597 -0.4472
  986MOL0     H30145   7.222  11.437   3.101  2.1047 -1.3498 -2.8634
  986MOL0     H30146   7.279  11.248   2.950 -1.2602  1.0126  0.3313
  986MOL0     H30147   7.157  11.148   3.036  1.7764 -2.1282 -0.3733
  986MOL0     H30148   7.394  11.263   3.189  0.7598  0.5195 -2.6611
  986MOL0     H30149   7.248  11.171   3.247 -0.2676  0.9811  0.9329
  986MOL0     H30150   7.495  10.852   3.144  0.0430 -0.0562 -0.3868
  986MOL0     H30151   6.816  11.240   3.292 -0.3288  0.1977 -0.0060
  986MOL0     H30152   6.584  11.226   3.334 -0.4269  0.0597  0.7527
  987MOL0     O30153  11.037   6.034   7.562  0.1731 -0.4088  0.2803
  987MOL0     C30154  11.138   6.085   7.514  0.0819 -0.7395  0.6410
  987MOL0     O30155  11.140   6.212   7.462  0.5354 -0.2159 -0.0651
  987MOL0     C30156  11.017   6.263   7.430 -0.3789  0.0724  0.4862
  987MOL0     C30157  10.936   6.296   7.538 -0.3549  0.0902  1.0879
  987MOL0     C30158  10.822   6.367   7.522  0.1992  0.0988 -0.1875
  987MOL0     C30159  10.781   6.411   7.396  0.7986  0.4540  0.0837
  987MOL0     O30160  10.670   6.483   7.360  0.7192  0.9545  0.4017
  987MOL0     C30161  10.584   6.561   7.448  0.3282  0.8267 -0.1491
  987MOL0     C30162  10.615   6.708   7.460 -0.7858 -1.4753  0.0199
  987MOL0     C30163  10.746   6.727   7.536  0.3530 -0.1203 -0.3466
  987MOL0     C30164  10.788   6.874   7.528 -0.5872 -0.7642  0.5572
  987MOL0     C30165  10.939   6.884   7.543  0.1132 -0.3373  0.6200
  987MOL0     C30166  11.002   7.027   7.533  0.5108 -0.4840 -0.1729
  987MOL0     C30167  11.152   7.016   7.476  0.8469  0.3987  0.2047
  987MOL0     C30168  11.222   7.144   7.512  0.7497 -0.8353  0.8605
  987MOL0     N30169  11.365   7.132   7.496 -0.3374 -0.3478  0.2014
  987MOL0     C30170  11.468   7.139   7.590 -0.2401  0.6015 -0.1774
  987MOL0     C30171  11.586   7.154   7.528  0.2597 -0.0158 -0.5886
  987MOL0     C30172  11.729   7.151   7.589  0.8702 -0.3005 -0.0225
  987MOL0     C30173  11.836   7.200   7.494 -0.3671  0.7678 -0.9379
  987MOL0     C30174  11.900   7.090   7.416 -0.1621 -0.7995  0.0071
  987MOL0     C30175  11.996   7.004   7.503 -0.0467 -0.6549 -0.3363
  987MOL0     O30176  12.104   7.089   7.559 -1.5251 -0.3768  0.4521
  987MOL0     C30177  12.232   7.045   7.605 -0.3243  0.2309 -0.4827
  987MOL0     C30178  12.263   6.909   7.614  0.0645 -0.1725 -1.2506
  987MOL0     C30179  12.390   6.864   7.644 -1.2603  1.0047 -0.3987
  987MOL0     C30180  12.491   6.951   7.686  0.0981  0.5951  0.1337
  987MOL0     C30181  12.628   6.906   7.697  0.0343  0.1243 -0.7178
  987MOL0     O30182  12.714   7.002   7.751  0.8194  0.3401  0.2956
  987MOL0     C30183  12.847   6.984   7.784  0.5608  1.0534 -0.2815
  987MOL0     C30184  12.901   6.871   7.837  0.0981  0.3523 -0.4054
  987MOL0     C30185  13.033   6.862   7.879  0.4623  0.3379 -0.3302
  987MOL0     C30186  13.121   6.957   7.840  0.3776 -0.1949 -0.3109
  987MOL0     O30187  13.258   6.934   7.866 -0.6539  0.2834 -0.1413
  987MOL0     C30188  13.367   7.024   7.843  0.4200 -0.2269 -0.4970
  987MOL0     C30189  13.419   7.074   7.987  0.7715  0.0345  0.3483
  987MOL0     C30190  13.554   7.143   7.959 -0.6465 -0.3736 -0.8685
  987MOL0     C30191  13.652   7.121   8.082 -0.5910 -0.2912  0.8844
  987MOL0     C30192  13.802   7.166   8.051  0.2937 -0.6474  0.4255
  987MOL0     C30193  13.817   7.311   7.997 -0.4202  0.0290 -0.3236
  987MOL0     C30194  13.746   7.409   8.088 -1.1556 -0.6102 -0.0775
  987MOL0     C30195  13.762   7.551   8.044 -1.3629  0.5170 -0.2013
  987MOL0    Cl30196  13.714   7.565   7.879  0.1955  0.0782 -0.2259
  987MOL0     C30197  13.071   7.082   7.805 -1.0460 -0.5246 -0.5068
  987MOL0     C30198  12.936   7.089   7.771  0.8280 -0.3565  0.8543
  987MOL0     O30199  12.660   6.794   7.660  0.2723  0.1396  0.0713
  987MOL0     C30200  12.458   7.089   7.679  0.0339 -0.0245  0.1012
  987MOL0     C30201  12.339   7.131   7.628  0.6558  0.2631 -0.6682
  987MOL0     N30202  11.543   7.185   7.394  0.6633  0.7703 -0.6558
  987MOL0     N30203  11.414   7.149   7.372  0.6066  0.1721 -0.6108
  987MOL0     C30204  10.859   6.376   7.281  0.0984 -0.1025 -0.3421
  987MOL0     C30205  10.972   6.303   7.300 -0.3743  0.4372 -0.0438
  987MOL0     C30206  11.262   6.009   7.541  0.1272  0.9436 -1.2775
  987MOL0     C30207  11.267   5.881   7.602 -0.2064 -0.4318 -0.2890
  987MOL0     C30208  11.393   5.824   7.617  0.7997  0.2422 -0.3224
  987MOL0     C30209  11.513   5.874   7.585 -0.7972  0.3215  0.4597
  987MOL0     O30210  11.626   5.786   7.603 -0.2647 -0.8062 -0.3952
  987MOL0     C30211  11.747   5.828   7.551 -0.1820 -0.1390  0.1860
  987MOL0     C30212  11.751   5.863   7.404  0.4614 -0.3020  1.2902
  987MOL0     C30213  11.716   5.740   7.311 -0.1855  0.1618 -0.2109
  987MOL0     C30214  11.569   5.711   7.287  0.1943  0.1811  0.1554
  987MOL0     C30215  11.549   5.571   7.246  0.8765  0.8456  0.8371
  987MOL0     C30216  11.536   5.456   7.203 -0.3749 -0.0747 -0.1488
  987MOL0     C30217  11.504   6.006   7.540  0.4727  0.0143 -0.6761
  987MOL0     C30218  11.382   6.067   7.512 -0.6596 -0.3050  0.4925
  987MOL0     H30219  10.960   6.268   7.640  0.7831 -3.6007 -0.0312
  987MOL0     H30220  10.753   6.368   7.606  1.4375  0.9723  0.8406
  987MOL0     H30221  10.578   6.515   7.547  0.9138 -0.2988 -0.6139
  987MOL0     H30222  10.487   6.551   7.399 -0.2808 -2.9565  1.4298
  987MOL0     H30223  10.532   6.752   7.517 -1.4895 -1.1814 -1.1949
  987MOL0     H30224  10.627   6.747   7.359 -2.1296 -1.8719 -0.3119
  987MOL0     H30225  10.817   6.655   7.495  1.3423  1.4634 -1.5144
  987MOL0     H30226  10.722   6.703   7.640 -0.1865 -1.0611 -0.6729
  987MOL0     H30227  10.756   6.925   7.437 -1.2237  1.6282  2.0485
  987MOL0     H30228  10.746   6.933   7.610 -1.0441 -2.3091  1.4977
  987MOL0     H30229  10.976   6.828   7.457 -2.3537  1.2173 -1.6007
  987MOL0     H30230  10.960   6.840   7.641 -2.9960  0.9187  1.9940
  987MOL0     H30231  10.995   7.082   7.628 -3.2400 -1.7801  0.4607
  987MOL0     H30232  10.945   7.084   7.458  0.7743  0.3705  0.2625
  987MOL0     H30233  11.206   6.936   7.527  1.0788  1.3304  1.4629
  987MOL0     H30234  11.158   7.000   7.368 -0.5933  0.8141  0.0376
  987MOL0     H30235  11.207   7.162   7.619 -0.3542  0.0685  0.5635
  987MOL0     H30236  11.174   7.229   7.463  2.8489 -0.3238 -0.4575
  987MOL0     H30237  11.460   7.108   7.694  0.4564 -1.4241 -0.6862
  987MOL0     H30238  11.749   7.051   7.628  1.8813  0.2003  0.7790
  987MOL0     H30239  11.732   7.223   7.672  0.7810 -1.0387  0.6305
  987MOL0     H30240  11.908   7.247   7.561 -0.7776 -3.4113  2.9605
  987MOL0     H30241  11.790   7.278   7.432  1.1857  1.1691 -1.6249
  987MOL0     H30242  11.829   7.029   7.358 -3.1848  1.8091  0.7100
  987MOL0     H30243  11.968   7.137   7.344 -2.5042  2.0861 -0.4966
  987MOL0     H30244  12.035   6.916   7.450 -0.7305 -1.7722  0.9644
  987MOL0     H30245  11.937   6.966   7.587  0.4317  0.1371  0.3754
  987MOL0     H30246  12.188   6.842   7.574 -0.9327  1.4755 -2.2426
  987MOL0     H30247  12.404   6.756   7.647 -0.2536  1.1427  1.4145
  987MOL0     H30248  12.844   6.779   7.841  0.8069 -0.1576 -1.4176
  987MOL0     H30249  13.063   6.772   7.930  0.2093  0.4757  0.0645
  987MOL0     H30250  13.350   7.104   7.771 -3.9893 -0.8596 -0.4120
  987MOL0     H30251  13.452   6.961   7.814  0.6439  0.2705 -0.9302
  987MOL0     H30252  13.441   6.977   8.032  1.8157 -0.4648 -1.1676
  987MOL0     H30253  13.347   7.136   8.041  0.2670  0.2113 -0.5093
  987MOL0     H30254  13.537   7.251   7.949  0.3767 -0.0818  0.2372
  987MOL0     H30255  13.590   7.106   7.863 -0.2661  3.0658 -2.2119
  987MOL0     H30256  13.621   7.172   8.174  2.1497 -0.5794  2.0919
  987MOL0     H30257  13.648   7.014   8.100  2.0447 -0.3593  1.6066
  987MOL0     H30258  13.844   7.093   7.981  0.5592 -0.0175 -0.0902
  987MOL0     H30259  13.857   7.166   8.145  0.1899  3.6316  0.6867
  987MOL0     H30260  13.777   7.310   7.895 -0.2024  0.2018 -0.4101
  987MOL0     H30261  13.922   7.338   7.989 -0.8066  1.5041 -0.8191
  987MOL0     H30262  13.639   7.390   8.090 -1.7341  2.1586 -1.2137
  987MOL0     H30263  13.791   7.414   8.188 -0.1391  0.6892 -0.5695
  987MOL0     H30264  13.862   7.593   8.053 -0.7610 -0.6305 -1.2645
  987MOL0     H30265  13.696   7.611   8.107  0.0669  2.2934 -0.3149
  987MOL0     H30266  13.133   7.170   7.804  0.7954 -1.7186  1.0595
  987MOL0     H30267  12.895   7.188   7.756 -3.9776 -1.9166  1.8614
  987MOL0     H30268  12.542   7.156   7.693  0.2113 -0.4448  1.1646
  987MOL0     H30269  12.319   7.237   7.619 -0.9469 -0.1383 -2.3647
  987MOL0     H30270  10.835   6.406   7.179  0.4071  0.3083 -0.2929
  987MOL0     H30271  11.031   6.281   7.211  0.0064  0.2280  0.2543
  987MOL0     H30272  11.175   5.831   7.629 -0.6081  0.2775 -0.3190
  987MOL0     H30273  11.396   5.718   7.639 -2.1089  0.2840  0.6419
  987MOL0     H30274  11.830   5.758   7.562 -0.0479  0.0175  0.1711
  987MOL0     H30275  11.777   5.915   7.609  0.6134 -1.8071  2.4055
  987MOL0     H30276  11.694   5.951   7.375 -1.0129 -1.2868  1.0805
  987MOL0     H30277  11.849   5.900   7.373 -0.4961  2.3905  1.2180
  987MOL0     H30278  11.758   5.654   7.364  0.7831  1.2818  0.8890
  987MOL0     H30279  11.764   5.757   7.214 -0.5395  3.1694  0.0400
  987MOL0     H30280  11.512   5.739   7.376 -0.1772  2.1648 -0.6503
  987MOL0     H30281  11.531   5.779   7.210  2.4716  1.9892  0.5108
  987MOL0     H30282  11.526   5.357   7.163  2.4520 -0.7038  0.5100
  987MOL0     H30283  11.590   6.072   7.539 -0.2606  1.0562  0.7946
  987MOL0     H30284  11.385   6.166   7.468  2.5458 -0.2010  0.7139
  988MOL0     O30285  10.554   0.694   0.763 -0.1278 -0.3111 -0.2503
  988MOL0     C30286  10.557   0.782   0.852 -0.2408  0.1519  0.7380
  988MOL0     O30287  10.505   0.769   0.982  0.7114  0.2630  0.3462
  988MOL0     C30288  10.411   0.676   1.020 -0.1905  0.0003  0.2004
  988MOL0     C30289  10.401   0.658   1.164 -0.1831  0.4072  0.6877
  988MOL0     C30290  10.310   0.568   1.216  0.4500 -0.1846 -0.9933
  988MOL0     C30291  10.219   0.505   1.134 -0.0612 -0.0983 -0.2591
  988MOL0     O30292  10.115   0.451   1.201  1.2516  0.3166 -0.0619
  988MOL0     C30293  10.060   0.334   1.142 -0.3829  0.0628  0.6489
  988MOL0     C30294   9.994   0.245   1.234  1.4037 -0.2534 -1.3014
  988MOL0     C30295  10.086   0.181   1.343  0.4269  0.1194 -0.1067
  988MOL0     C30296  10.003   0.112   1.448 -0.3572  0.5841 -1.0157
  988MOL0     C30297  10.085   0.039   1.541  0.8837  0.7192 -0.4639
  988MOL0     C30298   9.994  -0.032   1.643 -0.9183  0.5197  0.5470
  988MOL0     C30299  10.051  -0.053   1.784 -0.3417 -0.0051  0.0202
  988MOL0     C30300   9.974  -0.145   1.868  0.4785  0.5345 -0.4569
  988MOL0     N30301   9.934  -0.274   1.806  0.7415  0.0789 -0.7708
  988MOL0     C30302  10.021  -0.368   1.755  0.2281  0.8225  0.0032
  988MOL0     C30303   9.936  -0.473   1.723 -0.4059 -0.2084  0.0223
  988MOL0     C30304   9.983  -0.598   1.652  0.4973  1.3829 -0.1551
  988MOL0     C30305  10.013  -0.717   1.749  0.1551 -0.1608  0.5954
  988MOL0     C30306   9.899  -0.810   1.773  1.2928  0.5627  0.4590
  988MOL0     C30307   9.852  -0.818   1.923 -0.0899  0.2427 -0.3958
  988MOL0     O30308   9.819  -0.689   1.987  0.1769 -0.3561 -0.4898
  988MOL0     C30309   9.758  -0.693   2.112 -0.4490 -0.7478  0.2496
  988MOL0     C30310   9.752  -0.811   2.193 -0.2406 -0.3687  0.3032
  988MOL0     C30311   9.712  -0.803   2.325 -1.0229 -0.2749  0.3042
  988MOL0     C30312   9.674  -0.677   2.388 -0.4184  0.0262 -0.5307
  988MOL0     C30313   9.608  -0.673   2.523 -0.6703 -0.4001 -0.9648
  988MOL0     O30314   9.602  -0.791   2.598  1.2405 -0.0606 -0.3298
  988MOL0     C30315   9.519  -0.817   2.710 -0.2142  0.6923  0.8936
  988MOL0     C30316   9.445  -0.719   2.771 -0.9409  0.6996  0.2209
  988MOL0     C30317   9.362  -0.756   2.875  0.2011  0.5497  0.0602
  988MOL0     C30318   9.355  -0.891   2.922  0.4281 -0.3048  0.4287
  988MOL0     O30319   9.267  -0.910   3.022  0.4615 -0.2505  0.3800
  988MOL0     C30320   9.273  -1.034   3.093  0.3023  0.3516 -0.0623
  988MOL0     C30321   9.142  -1.042   3.173  0.2457  0.3600  0.4453
  988MOL0     C30322   9.014  -1.014   3.100  0.8947 -0.1302 -0.5411
  988MOL0     C30323   8.900  -1.044   3.198  0.0919  0.7905  0.4867
  988MOL0     C30324   8.758  -1.013   3.142 -0.0040  0.2636  0.6219
  988MOL0     C30325   8.644  -1.057   3.238 -0.8563  0.2921  0.3415
  988MOL0     C30326   8.514  -1.062   3.156 -1.2987 -0.0838  0.3855
  988MOL0     C30327   8.400  -1.113   3.235  0.0685 -0.5070  0.0258
  988MOL0    Cl30328   8.417  -1.283   3.286 -0.1634  0.1536  0.1940
  988MOL0     C30329   9.435  -0.990   2.852 -0.3015 -0.1657  1.0252
  988MOL0     C30330   9.522  -0.945   2.755 -0.6277  1.1099  0.9876
  988MOL0     O30331   9.583  -0.563   2.578 -0.1804 -0.6773  0.5413
  988MOL0     C30332   9.689  -0.562   2.306  1.4048  0.1155 -0.1489
  988MOL0     C30333   9.719  -0.566   2.169  0.2745  0.1335 -0.1028
  988MOL0     N30334   9.805  -0.429   1.740 -1.0022 -0.6925 -0.7799
  988MOL0     N30335   9.805  -0.314   1.794 -0.5056 -0.4879  0.4064
  988MOL0     C30336  10.232   0.505   1.001 -0.0464 -0.1172  0.4738
  988MOL0     C30337  10.328   0.584   0.938  0.2540  0.6101 -0.5869
  988MOL0     C30338  10.629   0.911   0.819 -0.3198  0.8537  0.6718
  988MOL0     C30339  10.665   0.990   0.927  0.2616 -0.3035  0.0157
  988MOL0     C30340  10.726   1.114   0.900  0.4535  0.2301  0.4749
  988MOL0     C30341  10.742   1.165   0.770  0.3493 -0.4828 -0.1291
  988MOL0     O30342  10.787   1.294   0.772 -0.2930 -0.0057 -0.3224
  988MOL0     C30343  10.766   1.359   0.648  1.0406 -0.5264 -0.8995
  988MOL0     C30344  10.787   1.515   0.679  1.4703  0.4545 -0.1982
  988MOL0     C30345  10.936   1.545   0.690  0.8886  0.0994  0.3892
  988MOL0     C30346  10.965   1.694   0.713  0.8775 -0.3111 -0.0835
  988MOL0     C30347  11.099   1.706   0.668 -0.8575 -0.2911  0.3030
  988MOL0     C30348  11.201   1.749   0.631  0.2893  0.1885  0.3809
  988MOL0     C30349  10.713   1.088   0.660 -0.3334 -0.0989 -0.7924
  988MOL0     C30350  10.673   0.953   0.689 -0.4725  0.3110 -0.6344
  988MOL0     H30351  10.450   0.721   1.237 -2.2513  0.4726  2.1068
  988MOL0     H30352  10.303   0.561   1.324 -0.5698 -0.9536 -1.0949
  988MOL0     H30353  10.143   0.284   1.092 -1.2897 -0.6229 -0.1961
  988MOL0     H30354   9.996   0.373   1.063  2.8719  1.6052 -1.3946
  988MOL0     H30355   9.937   0.173   1.175  1.2285 -0.0585 -1.3711
  988MOL0     H30356   9.913   0.290   1.294  1.7132 -0.0737 -1.0122
  988MOL0     H30357  10.146   0.260   1.389 -0.3787 -0.2934  1.7286
  988MOL0     H30358  10.148   0.104   1.295 -1.5212 -0.9991 -0.9449
  988MOL0     H30359   9.933   0.171   1.508 -1.8912 -0.6381 -1.5273
  988MOL0     H30360   9.940   0.034   1.404 -1.3657 -0.6190  2.2623
  988MOL0     H30361  10.147   0.114   1.590  1.9906 -0.0763 -0.6056
  988MOL0     H30362  10.148  -0.037   1.495 -0.5142 -1.8134  1.4782
  988MOL0     H30363   9.971  -0.131   1.601  0.5026  0.3837  0.0246
  988MOL0     H30364   9.896   0.015   1.654 -0.4075  2.0042 -0.8176
  988MOL0     H30365  10.154  -0.090   1.780 -1.0052 -2.3784  2.3999
  988MOL0     H30366  10.056   0.050   1.820  3.0259 -0.3292  0.8254
  988MOL0     H30367   9.882  -0.097   1.903  1.9536  2.0306  1.6156
  988MOL0     H30368  10.019  -0.166   1.966 -4.1361 -3.7098  1.2116
  988MOL0     H30369  10.128  -0.375   1.743  0.2579 -1.4541  1.0549
  988MOL0     H30370  10.074  -0.584   1.592 -0.9055 -0.4320 -2.9346
  988MOL0     H30371   9.904  -0.634   1.586  1.0637  1.0583 -0.6781
  988MOL0     H30372  10.045  -0.674   1.844  3.6164  0.4351 -0.6599
  988MOL0     H30373  10.099  -0.774   1.713 -0.2858 -0.4485 -0.0290
  988MOL0     H30374   9.811  -0.794   1.709  2.2074  0.7682 -0.7989
  988MOL0     H30375   9.916  -0.912   1.738 -0.9553  0.7071 -1.2814
  988MOL0     H30376   9.927  -0.877   1.977 -1.1766  0.3415  1.3058
  988MOL0     H30377   9.760  -0.877   1.919 -0.4416  0.6100  1.4570
  988MOL0     H30378   9.780  -0.909   2.156  0.5678  0.2128 -0.6597
  988MOL0     H30379   9.719  -0.895   2.381 -0.1678  1.0199  2.4648
  988MOL0     H30380   9.450  -0.614   2.746  1.8245 -0.1623 -3.9157
  988MOL0     H30381   9.304  -0.677   2.921 -0.4743  0.8709 -1.2785
  988MOL0     H30382   9.356  -1.046   3.163  0.8918  1.8315 -0.4650
  988MOL0     H30383   9.278  -1.118   3.023  2.4827  2.0875 -2.1213
  988MOL0     H30384   9.150  -0.978   3.261 -0.2115  0.4034  0.4576
  988MOL0     H30385   9.130  -1.145   3.206  2.4986 -0.1784 -0.2221
  988MOL0     H30386   9.005  -1.065   3.004  0.9247 -2.6875  0.7106
  988MOL0     H30387   9.021  -0.906   3.082 -1.0866  0.2878  0.7867
  988MOL0     H30388   8.891  -1.149   3.225 -2.5088  0.4551 -1.2813
  988MOL0     H30389   8.914  -0.976   3.282  0.4116  2.4587 -0.8580
  988MOL0     H30390   8.750  -1.058   3.042 -1.7451 -1.8290  1.6161
  988MOL0     H30391   8.744  -0.907   3.121 -2.2108 -0.1745 -0.3548
  988MOL0     H30392   8.643  -0.992   3.327  4.8984 -1.7387  2.3601
  988MOL0     H30393   8.666  -1.159   3.269 -1.1498  0.1246 -0.0015
  988MOL0     H30394   8.478  -0.968   3.114 -2.5670 -1.3158 -1.4785
  988MOL0     H30395   8.528  -1.118   3.063  2.6513  6.1965 -3.5506
  988MOL0     H30396   8.310  -1.089   3.178  0.4150  3.5222  0.8469
  988MOL0     H30397   8.388  -1.046   3.321 -2.8343 -0.8772 -0.0016
  988MOL0     H30398   9.436  -1.098   2.870 -2.2127 -0.6577 -1.3897
  988MOL0     H30399   9.588  -1.015   2.706  1.9854  1.5284  3.6529
  988MOL0     H30400   9.664  -0.467   2.353  3.5822  1.9002 -2.3242
  988MOL0     H30401   9.720  -0.482   2.100 -2.1452  0.1306 -0.2032
  988MOL0     H30402  10.169   0.439   0.942  4.0499 -0.6129 -4.0110
  988MOL0     H30403  10.330   0.581   0.830 -3.2820  0.1539 -0.7526
  988MOL0     H30404  10.651   0.960   1.030 -0.5905 -0.9544 -0.2774
  988MOL0     H30405  10.761   1.175   0.983 -1.9009  1.2903  0.7918
  988MOL0     H30406  10.662   1.335   0.624 -0.0560  2.0671  0.7748
  988MOL0     H30407  10.829   1.330   0.563 -0.6448  1.1633 -2.8378
  988MOL0     H30408  10.745   1.580   0.602  0.6409 -0.3445 -0.4367
  988MOL0     H30409  10.714   1.539   0.758 -0.4016 -1.3047 -1.2918
  988MOL0     H30410  10.996   1.504   0.609 -0.4745 -2.7071  0.6963
  988MOL0     H30411  10.963   1.488   0.779  0.9596 -2.7784 -1.3797
  988MOL0     H30412  10.910   1.765   0.651  0.4115  1.1511  1.8893
  988MOL0     H30413  10.949   1.725   0.817  0.1740  0.7253 -0.4901
  988MOL0     H30414  11.300   1.789   0.619  1.7704 -3.0008  0.8473
  988MOL0     H30415  10.733   1.105   0.555  1.0715 -3.0406 -1.0810
  988MOL0     H30416  10.658   0.882   0.608  3.2572 -3.3474  1.4689
  989MOL0     O30417   8.884   8.267   2.308  0.1836 -0.7340 -0.2073
  989MOL0     C30418   8.837   8.378   2.273 -0.6144  0.7548 -0.3685
  989MOL0     O30419   8.910   8.478   2.227  0.1491 -0.5155 -0.8143
  989MOL0     C30420   9.042   8.466   2.191  0.2255  0.1729 -0.0886
  989MOL0     C30421   9.116   8.354   2.149 -1.0987 -0.4594  0.4201
  989MOL0     C30422   9.254   8.364   2.109  0.5734 -0.2348  0.6408
  989MOL0     C30423   9.313   8.485   2.104 -0.1622  0.3164 -0.2361
  989MOL0     O30424   9.440   8.477   2.061  0.8209  0.1749 -1.6000
  989MOL0     C30425   9.537   8.519   2.153 -0.1043 -0.4786  0.7574
  989MOL0     C30426   9.669   8.454   2.130 -0.7393 -0.2091  0.1583
  989MOL0     C30427   9.787   8.504   2.234  0.3873  0.0335 -0.3049
  989MOL0     C30428   9.923   8.452   2.182  0.2926  0.6208 -0.6980
  989MOL0     C30429   9.936   8.289   2.175 -0.0181  0.0701  0.0245
  989MOL0     C30430  10.071   8.247   2.122  0.7298 -0.7369 -0.5751
  989MOL0     C30431  10.179   8.272   2.232  0.4437  0.7249  0.2411
  989MOL0     C30432  10.301   8.195   2.195  0.8360  0.7442 -0.2653
  989MOL0     N30433  10.413   8.261   2.257  0.2024 -0.3675  0.1074
  989MOL0     C30434  10.527   8.310   2.196 -0.6266  0.5203 -0.4043
  989MOL0     C30435  10.617   8.327   2.292  1.0912  0.1411  0.3884
  989MOL0     C30436  10.767   8.345   2.276  0.2659 -1.0475  0.0505
  989MOL0     C30437  10.842   8.263   2.173 -0.1894  0.1099 -0.7386
  989MOL0     C30438  10.989   8.266   2.215 -0.8063  0.6089  1.2531
  989MOL0     C30439  11.060   8.402   2.204 -0.4729  0.1370 -0.1661
  989MOL0     O30440  11.140   8.416   2.088 -0.1901 -0.4148  1.0029
  989MOL0     C30441  11.254   8.346   2.080  0.2381 -0.4723  0.2147
  989MOL0     C30442  11.331   8.358   1.962 -0.6956  0.1965 -0.5495
  989MOL0     C30443  11.452   8.294   1.948  0.3293  0.1090 -0.1989
  989MOL0     C30444  11.505   8.212   2.043  0.2613  0.3553 -0.5653
  989MOL0     C30445  11.642   8.149   2.038  0.9381  0.1528 -1.2926
  989MOL0     O30446  11.664   8.031   2.106  0.2431 -0.0175 -0.2369
  989MOL0     C30447  11.780   7.961   2.070  0.2905  0.2316  0.0329
  989MOL0     C30448  11.789   7.896   1.953  0.2629 -0.5244  0.0929
  989MOL0     C30449  11.907   7.839   1.906 -0.7085 -0.1011 -0.0302
  989MOL0     C30450  12.025   7.852   1.985 -0.7801  0.2399  0.5463
  989MOL0     O30451  12.146   7.788   1.951 -0.2782  0.4533 -0.7815
  989MOL0     C30452  12.162   7.717   1.833  0.4178 -0.5598 -0.2811
  989MOL0     C30453  12.288   7.633   1.830  0.4877 -0.5919 -0.2506
  989MOL0     C30454  12.421   7.705   1.853 -0.3682  0.2270 -0.2487
  989MOL0     C30455  12.543   7.615   1.828 -0.1762  0.2934 -0.2666
  989MOL0     C30456  12.569   7.599   1.683 -0.9860  0.0522 -0.7669
  989MOL0     C30457  12.681   7.506   1.653 -0.7727 -0.2592 -0.1885
  989MOL0     C30458  12.829   7.567   1.658  0.1750 -0.4039 -0.3932
  989MOL0     C30459  12.928   7.451   1.624 -0.1182  0.2049  0.7553
  989MOL0    Cl30460  12.903   7.400   1.453 -0.3549 -0.2794  0.0229
  989MOL0     C30461  12.019   7.917   2.105 -0.2457 -0.5475  0.7985
  989MOL0     C30462  11.899   7.981   2.141  0.1636 -1.5024 -0.8942
  989MOL0     O30463  11.725   8.213   1.981  0.0048 -1.3428  0.1520
  989MOL0     C30464  11.432   8.206   2.167  0.0052  0.9342 -0.5402
  989MOL0     C30465  11.307   8.262   2.176 -0.0565 -0.3671  0.0657
  989MOL0     N30466  10.557   8.305   2.416  0.1882  0.5177  0.6840
  989MOL0     N30467  10.430   8.272   2.397  0.3830 -0.2276 -0.1740
  989MOL0     C30468   9.243   8.594   2.142  0.6450 -0.2066  0.0237
  989MOL0     C30469   9.110   8.586   2.176  0.1131  0.2251  0.2502
  989MOL0     C30470   8.687   8.391   2.273 -0.4197  0.3777  0.2098
  989MOL0     C30471   8.629   8.494   2.205 -0.1178  0.3680  0.1995
  989MOL0     C30472   8.495   8.528   2.215  0.8202 -0.0411 -0.2462
  989MOL0     C30473   8.407   8.457   2.292 -0.3828  1.1266 -0.0966
  989MOL0     O30474   8.283   8.497   2.319  0.1929  0.1638 -0.1681
  989MOL0     C30475   8.229   8.588   2.236 -0.0170 -1.2983  1.0029
  989MOL0     C30476   8.083   8.610   2.266  0.1372  1.0747 -0.3303
  989MOL0     C30477   8.015   8.735   2.202  0.7341 -0.8117  0.6535
  989MOL0     C30478   7.867   8.754   2.261 -0.0028  0.3045 -1.2280
  989MOL0     C30479   7.777   8.758   2.149 -0.0775 -0.4313 -0.3318
  989MOL0     C30480   7.697   8.770   2.054 -0.6268  0.1553 -0.3182
  989MOL0     C30481   8.453   8.338   2.345 -0.2972 -0.1332 -0.1146
  989MOL0     C30482   8.591   8.310   2.348  0.4135  0.2924 -0.2223
  989MOL0     H30483   9.055   8.265   2.154 -2.7995  0.5827 -0.7240
  989MOL0     H30484   9.306   8.278   2.068  0.2632 -0.5442  0.8873
  989MOL0     H30485   9.501   8.495   2.254 -2.7210  0.0470  0.0165
  989MOL0     H30486   9.555   8.627   2.151 -0.8573 -0.3471  0.8379
  989MOL0     H30487   9.708   8.479   2.031  0.8967 -1.5881  0.3938
  989MOL0     H30488   9.663   8.346   2.150  0.6753 -0.2195  0.6777
  989MOL0     H30489   9.763   8.467   2.335 -1.8382  0.3077 -0.6753
  989MOL0     H30490   9.789   8.613   2.237  0.5078  0.0106  1.2054
  989MOL0     H30491   9.936   8.495   2.082 -1.6932 -1.2946 -1.8787
  989MOL0     H30492  10.002   8.494   2.245 -0.9870 -1.1422  2.2936
  989MOL0     H30493   9.850   8.243   2.125 -2.3241 -1.7010  4.9165
  989MOL0     H30494   9.929   8.262   2.281 -4.0949  1.4834  0.2931
  989MOL0     H30495  10.099   8.304   2.033 -0.8548 -1.1688 -1.3875
  989MOL0     H30496  10.070   8.139   2.102 -0.6734 -0.6800 -0.8999
  989MOL0     H30497  10.193   8.380   2.241 -1.6417  0.9143  1.9854
  989MOL0     H30498  10.156   8.251   2.337 -0.6326 -0.2405 -0.1697
  989MOL0     H30499  10.322   8.195   2.087  3.0515 -4.3277 -0.1556
  989MOL0     H30500  10.297   8.089   2.223  0.6915  1.1502  1.2984
  989MOL0     H30501  10.557   8.321   2.092  3.9121  0.7333  0.6993
  989MOL0     H30502  10.809   8.337   2.377  0.4460 -1.9509 -0.0916
  989MOL0     H30503  10.765   8.447   2.238 -5.0345 -1.1888 -0.9232
  989MOL0     H30504  10.840   8.293   2.068  2.7407 -2.5803 -1.7380
  989MOL0     H30505  10.789   8.168   2.172 -2.2690  1.2105 -2.2289
  989MOL0     H30506  10.995   8.231   2.318 -0.2292 -3.1536  0.1003
  989MOL0     H30507  11.047   8.196   2.153 -2.6286  0.0667  0.0865
  989MOL0     H30508  11.125   8.410   2.291 -1.5719  2.7106  0.5080
  989MOL0     H30509  10.993   8.488   2.212 -1.3596  0.1769 -4.9065
  989MOL0     H30510  11.307   8.411   1.871  1.9343  0.0171 -1.4164
  989MOL0     H30511  11.494   8.295   1.848  2.0961 -1.8638  0.4536
  989MOL0     H30512  11.696   7.887   1.898 -0.4833 -0.1641  1.2724
  989MOL0     H30513  11.909   7.790   1.809 -1.1422  1.7067 -1.0149
  989MOL0     H30514  12.173   7.786   1.749 -2.3345  1.7241  1.0606
  989MOL0     H30515  12.073   7.657   1.811  0.8335 -0.6796 -1.6957
  989MOL0     H30516  12.285   7.596   1.727  1.0655  1.5925 -1.1130
  989MOL0     H30517  12.275   7.546   1.895 -1.7471 -0.8776 -0.9590
  989MOL0     H30518  12.432   7.734   1.958  1.1157  0.6268 -0.4939
  989MOL0     H30519  12.418   7.792   1.787 -0.8443 -0.2176 -0.8261
  989MOL0     H30520  12.632   7.659   1.873 -0.1737 -2.9545  3.4551
  989MOL0     H30521  12.533   7.518   1.876 -1.5398  0.6343  0.2040
  989MOL0     H30522  12.604   7.697   1.650 -2.0210  0.1663 -1.5751
  989MOL0     H30523  12.479   7.563   1.632  0.7368 -1.8836 -2.6734
  989MOL0     H30524  12.661   7.481   1.548 -0.1462  0.4511 -0.4838
  989MOL0     H30525  12.663   7.411   1.704 -2.9345 -1.0693 -2.2901
  989MOL0     H30526  12.839   7.647   1.584  0.6506  0.3603  0.4778
  989MOL0     H30527  12.855   7.605   1.757 -0.5554 -1.0662  0.0666
  989MOL0     H30528  12.909   7.370   1.695 -1.6439  1.2662  1.6214
  989MOL0     H30529  13.027   7.492   1.643 -0.8790  2.6560 -0.1659
  989MOL0     H30530  12.106   7.932   2.167  1.1698  0.7393 -1.3531
  989MOL0     H30531  11.883   8.039   2.232 -1.3954  3.6930 -4.0517
  989MOL0     H30532  11.476   8.149   2.248 -0.9608  0.5524 -0.2750
  989MOL0     H30533  11.265   8.248   2.275  2.1200  1.0040  1.2563
  989MOL0     H30534   9.281   8.696   2.147  2.5871 -0.9258  1.5511
  989MOL0     H30535   9.052   8.676   2.191 -1.1905 -0.8616  2.1314
  989MOL0     H30536   8.687   8.555   2.138  0.8551 -1.5399 -0.7907
  989MOL0     H30537   8.471   8.620   2.164  0.2684 -0.4242 -0.6951
  989MOL0     H30538   8.238   8.558   2.132 -1.3519 -1.0898  0.8134
  989MOL0     H30539   8.274   8.687   2.249  0.0012 -1.3715  1.5286
  989MOL0     H30540   8.040   8.516   2.232  2.0627  0.2000 -0.5071
  989MOL0     H30541   8.074   8.620   2.374  2.1691  0.5927 -0.0610
  989MOL0     H30542   8.017   8.727   2.093 -2.4671 -2.8885  0.6215
  989MOL0     H30543   8.075   8.823   2.228 -0.3365  0.6096 -1.4634
  989MOL0     H30544   7.836   8.677   2.332 -0.6069  0.2692 -1.5222
  989MOL0     H30545   7.870   8.845   2.322 -0.7754  0.3404 -1.2404
  989MOL0     H30546   7.617   8.755   1.984 -1.8669  0.4086  0.9864
  989MOL0     H30547   8.386   8.276   2.404 -0.5617  1.5561  1.4690
  989MOL0     H30548   8.629   8.218   2.392 -2.5733 -0.9111  0.0322
  990MOL0     O30549   8.177   9.891   5.079 -0.1050 -0.0526 -0.4376
  990MOL0     C30550   8.214   9.977   5.002  0.8948 -0.3629  0.6687
  990MOL0     O30551   8.139  10.072   4.938  0.8948  0.2435  0.6643
  990MOL0     C30552   8.004  10.089   4.972 -0.9093  0.6664 -0.0882
  990MOL0     C30553   7.912  10.133   4.880 -0.7993 -0.3151  0.2171
  990MOL0     C30554   7.772  10.141   4.903  0.6379  0.0317  0.8720
  990MOL0     C30555   7.728  10.098   5.026 -0.4709 -1.3299  0.1918
  990MOL0     O30556   7.596  10.110   5.046 -0.2250  0.6251  0.9113
  990MOL0     C30557   7.574  10.218   5.132 -0.0026  0.0827 -0.0531
  990MOL0     C30558   7.427  10.238   5.120 -0.4835  0.4289  0.2480
  990MOL0     C30559   7.390  10.369   5.186  0.1261 -0.0418  0.3330
  990MOL0     C30560   7.249  10.419   5.138  0.5953  0.4277 -0.0333
  990MOL0     C30561   7.203  10.542   5.211  0.0643  0.5312 -0.0532
  990MOL0     C30562   7.051  10.568   5.187  0.6042 -0.3242 -0.5088
  990MOL0     C30563   7.001  10.672   5.304  0.8348 -0.4705  0.2178
  990MOL0     C30564   6.850  10.692   5.296 -0.0459  0.6639 -0.0986
  990MOL0     N30565   6.800  10.765   5.415 -0.1551 -0.5068  0.1134
  990MOL0     C30566   6.787  10.904   5.430  0.0094  0.5002  0.5259
  990MOL0     C30567   6.715  10.897   5.548 -0.7045  0.1494  0.6955
  990MOL0     C30568   6.652  11.008   5.626 -0.1304  0.1078  0.4682
  990MOL0     C30569   6.503  11.013   5.601  0.1379 -0.8880 -0.0070
  990MOL0     C30570   6.457  11.024   5.455  0.6727 -0.6371  0.2918
  990MOL0     C30571   6.307  11.041   5.446  0.8953 -0.1382 -0.1237
  990MOL0     O30572   6.252  11.132   5.546  0.1071 -0.2800  0.0406
  990MOL0     C30573   6.123  11.160   5.539  0.3662 -0.1452 -0.3837
  990MOL0     C30574   6.073  11.288   5.547  0.1493 -0.4074  0.8626
  990MOL0     C30575   5.935  11.317   5.547  0.2007  0.9926 -1.4643
  990MOL0     C30576   5.839  11.213   5.541 -0.2432 -0.0355 -0.2522
  990MOL0     C30577   5.694  11.228   5.523  0.4237  0.6755 -0.2550
  990MOL0     O30578   5.632  11.115   5.529  0.2537 -0.1264  0.4830
  990MOL0     C30579   5.496  11.104   5.553  0.5984 -0.6574 -0.3718
  990MOL0     C30580   5.409  11.170   5.647  0.5082 -0.5160 -0.7959
  990MOL0     C30581   5.267  11.154   5.651 -2.1834 -0.2539 -0.1175
  990MOL0     C30582   5.210  11.059   5.564 -0.1133  0.0446 -0.1522
  990MOL0     O30583   5.080  11.013   5.565  0.0275 -0.3322  0.6648
  990MOL0     C30584   4.984  11.122   5.602 -0.1835  0.2323 -0.1970
  990MOL0     C30585   4.838  11.073   5.570 -0.8462  0.2555  0.3116
  990MOL0     C30586   4.733  11.181   5.578  0.3127 -0.1394  0.4209
  990MOL0     C30587   4.730  11.265   5.710 -1.1660  0.0855 -0.5512
  990MOL0     C30588   4.620  11.371   5.716  0.2536  0.1721  0.7642
  990MOL0     C30589   4.640  11.476   5.606 -0.7447  0.0823  0.4004
  990MOL0     C30590   4.769  11.551   5.630  0.3954 -0.3460  0.0133
  990MOL0     C30591   4.763  11.679   5.556  0.7031  0.3410  0.1446
  990MOL0    Cl30592   4.718  11.648   5.382 -0.1830 -0.3699  0.4800
  990MOL0     C30593   5.290  10.997   5.471  0.5591  0.3757 -0.1404
  990MOL0     C30594   5.430  11.018   5.461 -0.9443  0.1578  0.2671
  990MOL0     O30595   5.641  11.334   5.515 -0.3334  0.2760 -0.0839
  990MOL0     C30596   5.890  11.080   5.546  0.5866  0.6749  0.6294
  990MOL0     C30597   6.029  11.055   5.537  0.0581  0.0047 -0.7387
  990MOL0     N30598   6.708  10.773   5.602  0.2288 -0.0183 -0.0833
  990MOL0     N30599   6.748  10.692   5.511  0.3429 -0.8055 -0.5016
  990MOL0     C30600   7.812  10.053   5.127  0.0709  0.2195  0.1086
  990MOL0     C30601   7.954  10.065   5.107  0.0309 -0.3751 -0.3573
  990MOL0     C30602   8.357   9.975   4.965 -0.1873  0.5345  1.0036
  990MOL0     C30603   8.431  10.082   4.903 -0.3802 -0.3313  0.3225
  990MOL0     C30604   8.565  10.083   4.886 -0.0564 -0.2329  0.6498
  990MOL0     C30605   8.647   9.982   4.942  0.3662 -0.4115  0.2090
  990MOL0     O30606   8.780  10.009   4.924  0.2439  0.4738 -0.3526
  990MOL0     C30607   8.860   9.889   4.910 -0.3480  0.1045  0.3696
  990MOL0     C30608   8.998   9.925   4.839 -0.0215 -0.1666 -1.2065
  990MOL0     C30609   8.996   9.980   4.701 -0.1829  0.1279 -1.5646
  990MOL0     C30610   9.134   9.979   4.634  0.7677 -0.3798 -0.3111
  990MOL0     C30611   9.148  10.086   4.536  0.8801 -1.0216 -0.6453
  990MOL0     C30612   9.142  10.174   4.452 -0.4700 -0.1043 -0.4310
  990MOL0     C30613   8.581   9.871   5.003 -0.2409 -0.2822 -0.6300
  990MOL0     C30614   8.437   9.868   5.018 -0.2661 -0.3861  0.3283
  990MOL0     H30615   7.952  10.158   4.782 -1.8337 -2.7720 -0.9279
  990MOL0     H30616   7.700  10.164   4.825  1.4234 -2.9892 -0.9270
  990MOL0     H30617   7.623  10.311   5.103  3.2133 -1.7402 -1.0565
  990MOL0     H30618   7.592  10.193   5.238  0.3365 -0.1985 -0.1747
  990MOL0     H30619   7.357  10.165   5.162 -1.6813  2.4014  1.8487
  990MOL0     H30620   7.400  10.236   5.014  1.2125 -2.9424 -0.2578
  990MOL0     H30621   7.465  10.449   5.175 -0.9339  1.0455  0.7344
  990MOL0     H30622   7.381  10.349   5.293 -0.0239  2.3640  0.8367
  990MOL0     H30623   7.271  10.429   5.031 -0.3016 -3.3621 -0.7117
  990MOL0     H30624   7.170  10.345   5.153  1.4849 -0.7964 -1.1568
  990MOL0     H30625   7.260  10.630   5.181 -0.7439  0.7938 -0.8739
  990MOL0     H30626   7.222  10.521   5.317  0.5626 -4.8386 -0.9054
  990MOL0     H30627   6.995  10.474   5.191  2.4829 -1.5674 -1.9227
  990MOL0     H30628   7.028  10.618   5.093  0.7639  0.7348 -0.0041
  990MOL0     H30629   7.016  10.631   5.405  1.3820  1.9982  1.2021
  990MOL0     H30630   7.058  10.765   5.296  2.4149 -1.5393 -1.8071
  990MOL0     H30631   6.796  10.597   5.298  0.3577  0.4254  2.2373
  990MOL0     H30632   6.824  10.743   5.203  0.8554 -1.5050 -1.6383
  990MOL0     H30633   6.809  10.995   5.377 -1.3798  0.4802 -0.1098
  990MOL0     H30634   6.703  11.098   5.591 -0.5414  0.0672 -0.2392
  990MOL0     H30635   6.675  10.983   5.731 -0.0283 -1.3779  0.1143
  990MOL0     H30636   6.462  11.099   5.656 -0.0579 -0.8135 -0.2705
  990MOL0     H30637   6.463  10.920   5.643  0.6260 -1.8839 -1.6959
  990MOL0     H30638   6.504  11.108   5.403 -0.8944  0.2403  0.2242
  990MOL0     H30639   6.494  10.938   5.398 -0.2558  0.6243 -2.3827
  990MOL0     H30640   6.285  10.942   5.487  0.5011 -0.2056 -0.4926
  990MOL0     H30641   6.273  11.060   5.343  0.6714 -0.8627 -0.1912
  990MOL0     H30642   6.131  11.379   5.555  0.5143 -0.4233 -1.0203
  990MOL0     H30643   5.897  11.418   5.555  0.0747  0.8073  1.2714
  990MOL0     H30644   5.463  11.240   5.710 -0.7243  0.0025 -0.2983
  990MOL0     H30645   5.213  11.201   5.733  2.1558  0.8486  2.4158
  990MOL0     H30646   5.014  11.204   5.537  2.8847  1.1061  2.0484
  990MOL0     H30647   4.999  11.154   5.706  0.7932 -0.1312 -0.2092
  990MOL0     H30648   4.826  10.987   5.637  1.4053  0.9913  1.7964
  990MOL0     H30649   4.832  11.033   5.469  1.6587 -0.5344  0.4076
  990MOL0     H30650   4.632  11.142   5.564  0.5251 -0.3707 -0.4697
  990MOL0     H30651   4.760  11.246   5.495 -3.1290 -1.6187 -2.1239
  990MOL0     H30652   4.719  11.201   5.798  1.5413  1.3735  0.8377
  990MOL0     H30653   4.829  11.313   5.713 -3.2091  4.8754 -0.0999
  990MOL0     H30654   4.607  11.424   5.810  0.8409 -0.9806  1.5165
  990MOL0     H30655   4.522  11.324   5.708  1.4819 -3.0390  2.7323
  990MOL0     H30656   4.556  11.546   5.602 -0.2805  0.6105 -0.4946
  990MOL0     H30657   4.632  11.436   5.504 -0.1207  1.0580 -0.0492
  990MOL0     H30658   4.780  11.576   5.736  0.7500 -0.9829  0.1268
  990MOL0     H30659   4.856  11.498   5.591  0.8441  2.6475 -3.7240
  990MOL0     H30660   4.866  11.714   5.548  0.6659  0.0186 -4.0713
  990MOL0     H30661   4.706  11.756   5.610 -0.8541 -1.4881  1.2171
  990MOL0     H30662   5.246  10.928   5.400 -1.1893 -0.0175  1.2582
  990MOL0     H30663   5.493  10.961   5.394  0.2501  0.3545  1.1726
  990MOL0     H30664   5.838  10.987   5.564 -0.4940  1.4007  1.4432
  990MOL0     H30665   6.068  10.954   5.531  1.5403  0.3635  1.5062
  990MOL0     H30666   7.769  10.016   5.220 -0.1021  2.0722  0.8110
  990MOL0     H30667   8.010  10.029   5.193 -0.4964  0.3406  0.3091
  990MOL0     H30668   8.372  10.163   4.861  0.2271 -0.3310 -0.5641
  990MOL0     H30669   8.604  10.155   4.815  4.9938 -1.5390  1.6807
  990MOL0     H30670   8.811   9.812   4.850  0.4754  0.4900 -0.8097
  990MOL0     H30671   8.878   9.847   5.010 -2.8020 -0.5728  0.6109
  990MOL0     H30672   9.049  10.000   4.901 -3.9892  1.3941  0.4643
  990MOL0     H30673   9.054   9.831   4.843  0.8344  0.3619  1.2670
  990MOL0     H30674   8.950  10.079   4.701  0.4211  0.6150  3.2886
  990MOL0     H30675   8.937   9.923   4.628  1.4138  0.7421 -3.4144
  990MOL0     H30676   9.213   9.989   4.710  0.9246 -1.7027 -0.2657
  990MOL0     H30677   9.145   9.883   4.582  3.6686 -0.6752  0.6643
  990MOL0     H30678   9.144  10.250   4.378 -1.5571  1.0331  0.6613
  990MOL0     H30679   8.642   9.795   5.051 -1.0595 -1.0056 -0.7058
  990MOL0     H30680   8.388   9.790   5.076 -0.5738  1.4342  2.6517
  991MOL0     O30681   3.994   9.024   2.268 -0.4022  0.5452 -0.3123
  991MOL0     C30682   3.877   9.050   2.290 -0.2039  0.1325  0.1595
  991MOL0     O30683   3.823   9.170   2.279  0.2039  0.3874 -0.6614
  991MOL0     C30684   3.912   9.275   2.260  0.4546  0.1049 -0.0392
  991MOL0     C30685   3.855   9.382   2.200  0.1316 -0.3048 -0.4120
  991MOL0     C30686   3.922   9.502   2.186  0.3013 -0.0044 -0.7938
  991MOL0     C30687   4.052   9.514   2.235 -1.2992 -0.3616 -1.6878
  991MOL0     O30688   4.116   9.636   2.193  0.0772  0.3463 -0.3476
  991MOL0     C30689   4.250   9.600   2.146  0.0298  0.0257 -0.3169
  991MOL0     C30690   4.313   9.709   2.056 -0.7175  0.2672  0.2008
  991MOL0     C30691   4.396   9.653   1.950 -0.0098  0.2754 -1.4097
  991MOL0     C30692   4.487   9.755   1.893  0.7091 -0.9466  0.3299
  991MOL0     C30693   4.433   9.812   1.757  0.2297 -0.1385 -0.1476
  991MOL0     C30694   4.546   9.864   1.654  0.4194 -0.0182 -0.6506
  991MOL0     C30695   4.481   9.929   1.526 -0.3480  0.1674 -0.1515
  991MOL0     C30696   4.565   9.905   1.404 -0.8706  0.5232  0.5749
  991MOL0     N30697   4.598   9.758   1.373 -0.5816  0.5658 -0.2173
  991MOL0     C30698   4.722   9.704   1.333  0.8232 -0.1912 -0.6816
  991MOL0     C30699   4.692   9.574   1.306 -0.5346 -0.4645  0.1874
  991MOL0     C30700   4.786   9.469   1.251  0.4142  0.0161 -0.6726
  991MOL0     C30701   4.864   9.512   1.128 -0.2575  1.0153  0.5013
  991MOL0     C30702   4.771   9.553   1.007  0.3811 -0.4495 -0.4477
  991MOL0     C30703   4.842   9.606   0.883 -0.0548  1.0877  0.4187
  991MOL0     O30704   4.759   9.684   0.798 -0.1910 -0.4965 -0.4779
  991MOL0     C30705   4.715   9.800   0.858 -1.0344  0.0795 -0.9049
  991MOL0     C30706   4.621   9.872   0.789  0.3351  0.5455  0.3873
  991MOL0     C30707   4.568   9.994   0.838  0.0343 -0.5388 -0.0110
  991MOL0     C30708   4.596  10.041   0.965 -0.3776 -0.3957 -0.2241
  991MOL0     C30709   4.538  10.169   1.011 -0.3596  0.6832  0.6684
  991MOL0     O30710   4.539  10.185   1.151  0.2620 -0.4804  0.3875
  991MOL0     C30711   4.449  10.277   1.198  0.6834  0.3774  0.3915
  991MOL0     C30712   4.489  10.411   1.192  0.7884  1.0674  0.7940
  991MOL0     C30713   4.404  10.514   1.238  0.4067  1.0721 -0.0766
  991MOL0     C30714   4.275  10.479   1.287 -0.9384  0.5170 -0.7283
  991MOL0     O30715   4.192  10.583   1.338 -0.5032  0.8411 -0.5665
  991MOL0     C30716   4.158  10.554   1.483  0.5988  0.4865  0.1841
  991MOL0     C30717   4.275  10.593   1.573  1.0683  0.2149  0.0351
  991MOL0     C30718   4.277  10.501   1.687 -0.8410 -0.7990  0.8479
  991MOL0     C30719   4.379  10.555   1.795 -0.2961 -0.7903  0.2517
  991MOL0     C30720   4.388  10.465   1.916  0.0367 -0.0044  0.1148
  991MOL0     C30721   4.486  10.515   2.035  0.9978  0.3375  0.2436
  991MOL0     C30722   4.498  10.400   2.134 -0.2552  0.0945  1.1314
  991MOL0     C30723   4.531  10.443   2.278 -0.0065  0.5254  0.3697
  991MOL0    Cl30724   4.669  10.536   2.272 -0.4608  0.2339  0.2634
  991MOL0     C30725   4.228  10.342   1.268  1.3860  0.3939  0.7438
  991MOL0     C30726   4.317  10.245   1.235 -0.5708 -0.1426  0.2706
  991MOL0     O30727   4.495  10.248   0.932 -0.0650  0.6665  0.7470
  991MOL0     C30728   4.701   9.977   1.033 -0.6072 -0.5878 -0.3983
  991MOL0     C30729   4.759   9.862   0.980  0.5194  0.5060  0.0910
  991MOL0     N30730   4.557   9.563   1.292  0.1917  0.3689  0.9214
  991MOL0     N30731   4.499   9.667   1.341  0.8026 -0.5120  0.3879
  991MOL0     C30732   4.107   9.411   2.317 -0.0739 -0.1281 -0.3826
  991MOL0     C30733   4.026   9.296   2.339  0.3288  0.4513 -0.4279
  991MOL0     C30734   3.788   8.933   2.325 -0.3078 -0.3015  1.1419
  991MOL0     C30735   3.841   8.802   2.327  0.2203 -0.0670 -0.3112
  991MOL0     C30736   3.768   8.709   2.388 -0.0633  0.7199 -1.2236
  991MOL0     C30737   3.635   8.726   2.435  0.4081 -0.3795  0.0180
  991MOL0     O30738   3.568   8.618   2.477 -0.1553 -0.4256  0.1197
  991MOL0     C30739   3.436   8.638   2.532 -0.6620 -0.4922  0.0477
  991MOL0     C30740   3.382   8.494   2.561  0.7548  0.1664 -1.2860
  991MOL0     C30741   3.230   8.489   2.607  0.4115 -0.4743  1.0457
  991MOL0     C30742   3.179   8.348   2.614  0.5942  0.5055 -0.4864
  991MOL0     C30743   3.131   8.302   2.481  0.5701 -0.2130 -0.1915
  991MOL0     C30744   3.078   8.268   2.379  0.1244 -0.0416  0.2688
  991MOL0     C30745   3.581   8.852   2.420  0.8099 -0.9030 -0.2636
  991MOL0     C30746   3.657   8.954   2.358  0.1823  1.2819  0.0878
  991MOL0     H30747   3.757   9.364   2.157  1.3254 -1.2089 -2.9855
  991MOL0     H30748   3.876   9.589   2.139  0.1079 -0.5369 -1.6202
  991MOL0     H30749   4.249   9.509   2.086 -1.9142  0.5551 -1.1909
  991MOL0     H30750   4.325   9.591   2.225  0.4278 -0.4605 -0.7492
  991MOL0     H30751   4.364   9.779   2.123  2.2981 -0.6115 -1.0119
  991MOL0     H30752   4.241   9.772   2.003  2.6749  1.3176 -3.5775
  991MOL0     H30753   4.336   9.593   1.881 -0.0469  1.7342 -2.6998
  991MOL0     H30754   4.467   9.583   1.995  1.6483  2.5420 -0.2999
  991MOL0     H30755   4.517   9.843   1.951  2.0245 -0.8246 -0.4817
  991MOL0     H30756   4.583   9.707   1.872  1.2380 -0.3388  1.3042
  991MOL0     H30757   4.367   9.898   1.773  0.3111 -0.0756 -0.1501
  991MOL0     H30758   4.372   9.739   1.703 -0.2657  0.2104 -0.0652
  991MOL0     H30759   4.591   9.769   1.622 -1.3871 -1.4519  0.8061
  991MOL0     H30760   4.607   9.943   1.698  0.5147  1.0760 -2.6790
  991MOL0     H30761   4.387   9.877   1.510 -1.8380  2.7718 -0.4223
  991MOL0     H30762   4.460  10.034   1.549 -2.1590 -0.8379  3.4812
  991MOL0     H30763   4.654   9.965   1.425 -0.7895  0.0271  1.7362
  991MOL0     H30764   4.509   9.941   1.317 -0.8481  4.1700  1.9285
  991MOL0     H30765   4.817   9.753   1.353 -0.3924  1.7999  0.5942
  991MOL0     H30766   4.741   9.378   1.210  1.0416 -2.3936  3.4249
  991MOL0     H30767   4.856   9.435   1.328 -0.2111  0.3488  0.0645
  991MOL0     H30768   4.930   9.434   1.090  0.7719  1.3589  1.5160
  991MOL0     H30769   4.927   9.597   1.157 -0.8699  0.8125  2.5589
  991MOL0     H30770   4.701   9.472   0.984 -0.5388 -0.0831  0.9472
  991MOL0     H30771   4.701   9.627   1.047  1.4238 -0.1044  0.8292
  991MOL0     H30772   4.876   9.516   0.831 -1.9509  0.3210  0.3853
  991MOL0     H30773   4.934   9.653   0.917  0.9283 -1.5845  1.7895
  991MOL0     H30774   4.584   9.829   0.696  0.8129 -1.5708  1.1431
  991MOL0     H30775   4.496  10.038   0.769 -0.5113 -1.7635 -0.2374
  991MOL0     H30776   4.583  10.444   1.148 -0.2477  0.7422 -1.8477
  991MOL0     H30777   4.440  10.616   1.235 -4.6887  3.1624 -1.4132
  991MOL0     H30778   4.131  10.449   1.495 -0.8115  0.6291 -1.3563
  991MOL0     H30779   4.068  10.613   1.504  1.9225  2.3501  0.9475
  991MOL0     H30780   4.271  10.698   1.605 -0.8114 -0.0011  0.6182
  991MOL0     H30781   4.374  10.578   1.528  1.2089 -3.0089  1.2300
  991MOL0     H30782   4.311  10.402   1.657 -2.4733 -1.0633 -0.2863
  991MOL0     H30783   4.181  10.487   1.739 -0.8450 -0.6722  0.8758
  991MOL0     H30784   4.475  10.563   1.743 -0.5384  0.7179 -0.0126
  991MOL0     H30785   4.356  10.654   1.835 -1.3645 -1.5068  1.5051
  991MOL0     H30786   4.413  10.367   1.876 -1.8914 -0.6974  0.4839
  991MOL0     H30787   4.286  10.465   1.957  0.0206  3.6217  0.4113
  991MOL0     H30788   4.440  10.601   2.086  0.7158 -0.5254  1.4812
  991MOL0     H30789   4.578  10.542   1.983  2.3831 -3.2394  0.5323
  991MOL0     H30790   4.407  10.338   2.142  0.7658 -1.3984  1.7568
  991MOL0     H30791   4.580  10.330   2.117  0.3235  0.1889  3.2020
  991MOL0     H30792   4.556  10.356   2.340  0.0058 -0.0399 -0.4100
  991MOL0     H30793   4.453  10.506   2.322  0.6446  2.4300 -1.0673
  991MOL0     H30794   4.123  10.324   1.287  1.0405 -2.2472 -2.7047
  991MOL0     H30795   4.287  10.141   1.234  1.6405 -0.8686  1.4572
  991MOL0     H30796   4.722  10.005   1.136 -2.6971 -1.8864  0.4365
  991MOL0     H30797   4.843   9.809   1.024 -0.3419 -2.4375 -1.5355
  991MOL0     H30798   4.207   9.421   2.359 -0.6281 -0.6730  1.1407
  991MOL0     H30799   4.032   9.226   2.421  1.0100 -0.5641 -1.3112
  991MOL0     H30800   3.944   8.782   2.300  0.2426  0.4211 -0.6056
  991MOL0     H30801   3.820   8.616   2.407  0.1776  1.1072  0.0742
  991MOL0     H30802   3.366   8.672   2.455 -0.7417 -2.4173 -0.7951
  991MOL0     H30803   3.436   8.713   2.611  2.9979 -3.2172  3.0638
  991MOL0     H30804   3.398   8.431   2.473  0.7564  0.9559 -1.8636
  991MOL0     H30805   3.448   8.454   2.638 -0.3410  2.7932  1.1577
  991MOL0     H30806   3.173   8.549   2.535  2.5066  0.5168  0.1144
  991MOL0     H30807   3.239   8.546   2.700  2.7016 -0.9327  1.1709
  991MOL0     H30808   3.255   8.275   2.643 -0.5266 -0.5688 -0.1908
  991MOL0     H30809   3.099   8.346   2.689  0.5246  2.0299 -0.5003
  991MOL0     H30810   3.038   8.245   2.282  3.6924 -0.0697 -1.3258
  991MOL0     H30811   3.481   8.883   2.451  1.6668 -0.3978  2.2030
  991MOL0     H30812   3.594   9.043   2.362 -1.4714  0.2727 -1.7245
  992MOL0     O30813   8.202   0.316   3.929 -0.8760 -0.1659  0.6813
  992MOL0     C30814   8.227   0.259   4.033  0.7548 -0.2818 -0.2506
  992MOL0     O30815   8.138   0.216   4.130 -0.0689 -0.0168 -0.1235
  992MOL0     C30816   8.001   0.243   4.112  0.3877 -0.8164  0.6256
  992MOL0     C30817   7.933   0.198   3.993  0.3983 -0.3217  0.2335
  992MOL0     C30818   7.799   0.241   3.965 -0.3096  0.1185 -0.1931
  992MOL0     C30819   7.735   0.337   4.044 -0.0008  0.0959 -0.2262
  992MOL0     O30820   7.615   0.390   3.996  0.2782  0.7586 -0.5208
  992MOL0     C30821   7.593   0.536   3.992  0.5633  0.5318  0.0372
  992MOL0     C30822   7.714   0.619   3.931 -0.1684  0.3468 -0.1122
  992MOL0     C30823   7.746   0.577   3.785  0.2775  0.2719 -0.0901
  992MOL0     C30824   7.625   0.589   3.683  0.1387  0.8754  0.0578
  992MOL0     C30825   7.559   0.725   3.668  1.1174 -0.1206  0.7746
  992MOL0     C30826   7.641   0.844   3.628 -0.4338  0.1371 -0.3782
  992MOL0     C30827   7.568   0.942   3.540 -0.4210  0.6877 -0.8307
  992MOL0     C30828   7.604   0.935   3.390 -0.4089 -0.2629 -1.0501
  992MOL0     N30829   7.736   0.997   3.377 -0.2243 -0.6942 -0.1134
  992MOL0     C30830   7.865   0.946   3.375 -0.7602  0.0121 -0.4207
  992MOL0     C30831   7.952   1.038   3.321 -0.1387  0.5426 -0.5304
  992MOL0     C30832   8.097   1.006   3.293 -0.0510  0.5708 -0.2091
  992MOL0     C30833   8.126   1.056   3.153  0.1017 -0.4640  0.1913
  992MOL0     C30834   8.049   0.989   3.038  0.0064 -0.4020 -0.5822
  992MOL0     C30835   8.082   0.839   3.022  0.8341  0.1362 -0.1783
  992MOL0     O30836   8.005   0.784   2.911  0.2183  0.3512  0.5859
  992MOL0     C30837   7.872   0.785   2.908  0.2867 -0.2283  0.1199
  992MOL0     C30838   7.813   0.768   2.777 -0.3825 -0.3653 -0.7354
  992MOL0     C30839   7.673   0.776   2.768  0.1249 -0.4077  0.4615
  992MOL0     C30840   7.586   0.793   2.871  0.4603  0.1596 -0.7821
  992MOL0     C30841   7.448   0.807   2.850 -0.2807 -0.1446 -0.1840
  992MOL0     O30842   7.411   0.836   2.723 -0.4789 -0.9442 -0.1197
  992MOL0     C30843   7.268   0.859   2.710 -0.7850 -0.1298 -0.3137
  992MOL0     C30844   7.224   0.986   2.705  0.4962  0.4568 -0.2694
  992MOL0     C30845   7.083   1.010   2.688 -0.5409  0.1247 -0.0396
  992MOL0     C30846   6.987   0.899   2.680 -0.0501 -1.4752 -0.2413
  992MOL0     O30847   6.856   0.936   2.655 -0.0577 -0.0138  0.4502
  992MOL0     C30848   6.756   0.836   2.658  0.0692 -0.4432 -0.1231
  992MOL0     C30849   6.651   0.879   2.556 -0.0498 -0.2732  0.7316
  992MOL0     C30850   6.544   0.977   2.617  0.0924  0.6088 -0.7336
  992MOL0     C30851   6.441   0.904   2.699  0.4565  1.2289 -0.2259
  992MOL0     C30852   6.315   0.991   2.731  0.1714 -0.0827 -0.0351
  992MOL0     C30853   6.217   0.902   2.808 -0.6444  1.1850  0.0834
  992MOL0     C30854   6.089   0.967   2.838 -0.2731 -0.9791  0.8676
  992MOL0     C30855   5.974   0.891   2.912  0.2005  0.0662 -0.7561
  992MOL0    Cl30856   6.036   0.843   3.069 -0.2358 -0.3305 -0.0918
  992MOL0     C30857   7.043   0.771   2.698 -0.4677  0.3303  0.1434
  992MOL0     C30858   7.178   0.749   2.707  0.3517  0.1677 -0.3235
  992MOL0     O30859   7.380   0.791   2.950  0.0711  0.8508 -0.2456
  992MOL0     C30860   7.644   0.804   2.998 -0.4075 -0.5195 -0.5742
  992MOL0     C30861   7.786   0.807   3.018 -0.6952 -0.6118  0.6124
  992MOL0     N30862   7.866   1.142   3.286  0.3602  0.1315 -0.6948
  992MOL0     N30863   7.748   1.108   3.304  0.1210 -0.5533 -0.1308
  992MOL0     C30864   7.790   0.367   4.165  0.1878 -0.3782 -0.7542
  992MOL0     C30865   7.924   0.327   4.199  0.6413  0.1150  0.2364
  992MOL0     C30866   8.364   0.219   4.058  0.3733  0.1346 -0.0018
  992MOL0     C30867   8.468   0.295   4.012 -0.2883 -0.1486  0.8052
  992MOL0     C30868   8.595   0.255   4.019 -0.5121 -0.1524 -0.4732
  992MOL0     C30869   8.625   0.131   4.068  0.4182 -0.0024  0.7381
  992MOL0     O30870   8.757   0.091   4.042  0.7007  0.6886 -0.0844
  992MOL0     C30871   8.789  -0.048   4.054 -0.7667  0.6201 -0.1985
  992MOL0     C30872   8.943  -0.073   4.032  0.0499  0.1698  0.1031
  992MOL0     C30873   8.960  -0.215   3.963 -0.1001 -0.5376 -0.3416
  992MOL0     C30874   9.111  -0.250   3.950  0.7282 -0.1944  0.2035
  992MOL0     C30875   9.191  -0.148   3.874  0.2375  0.2960 -0.6653
  992MOL0     C30876   9.242  -0.058   3.810 -0.1793  0.1310  0.7868
  992MOL0     C30877   8.524   0.058   4.127  0.4776 -0.0371  0.4297
  992MOL0     C30878   8.394   0.106   4.129 -0.3698  0.1609  0.0926
  992MOL0     H30879   7.978   0.127   3.925 -1.9148 -1.3600 -0.3330
  992MOL0     H30880   7.755   0.197   3.876 -2.4497  2.0553 -0.2002
  992MOL0     H30881   7.584   0.577   4.093 -1.8393  1.3257 -0.4283
  992MOL0     H30882   7.504   0.563   3.936  1.9539  1.8125 -1.6714
  992MOL0     H30883   7.808   0.605   3.984  0.0692 -0.8642 -0.8094
  992MOL0     H30884   7.701   0.728   3.929  2.9300  0.8135  0.1151
  992MOL0     H30885   7.802   0.482   3.782 -0.1214 -0.0486  1.5658
  992MOL0     H30886   7.820   0.651   3.753  2.6493 -2.2579 -0.8560
  992MOL0     H30887   7.652   0.566   3.579 -2.4844  0.1569 -0.5314
  992MOL0     H30888   7.552   0.512   3.709  0.0373  0.3923 -1.5562
  992MOL0     H30889   7.491   0.754   3.749  1.4095  2.2752  0.2361
  992MOL0     H30890   7.490   0.710   3.584  1.6959  1.8844 -0.1201
  992MOL0     H30891   7.727   0.804   3.573  0.1958 -0.0941  0.7457
  992MOL0     H30892   7.668   0.896   3.720 -0.9231 -0.0499 -0.1272
  992MOL0     H30893   7.459   0.935   3.551 -0.3037  0.5938  0.3579
  992MOL0     H30894   7.602   1.037   3.583  0.5853  0.9347 -2.1290
  992MOL0     H30895   7.531   0.999   3.340 -0.4714 -0.3849 -1.1171
  992MOL0     H30896   7.614   0.835   3.345 -2.5397 -1.1868  0.3653
  992MOL0     H30897   7.899   0.854   3.422  2.7498  0.5139 -1.7016
  992MOL0     H30898   8.123   0.900   3.301  0.5137  0.6329 -1.1398
  992MOL0     H30899   8.159   1.066   3.360 -1.8574  2.7458 -0.3657
  992MOL0     H30900   8.234   1.039   3.142 -0.3888 -3.3202 -0.9327
  992MOL0     H30901   8.103   1.163   3.149 -2.1262 -0.7833  2.3355
  992MOL0     H30902   7.940   0.999   3.043 -0.0320  0.6099 -2.4381
  992MOL0     H30903   8.081   1.038   2.946  0.1556  3.7689  1.4889
  992MOL0     H30904   8.047   0.795   3.115  1.2280  1.0338  0.4015
  992MOL0     H30905   8.189   0.824   3.010  1.9508  2.5984  4.5756
  992MOL0     H30906   7.872   0.740   2.690 -1.3553 -2.1763 -0.8706
  992MOL0     H30907   7.629   0.750   2.673 -0.8632  0.8031  0.5733
  992MOL0     H30908   7.293   1.070   2.705  0.6552  0.3228  0.3433
  992MOL0     H30909   7.033   1.105   2.697 -2.1463 -0.4481 -2.1012
  992MOL0     H30910   6.721   0.835   2.761  1.0754  1.9707  0.3125
  992MOL0     H30911   6.790   0.735   2.635 -2.8407 -1.9012  1.4220
  992MOL0     H30912   6.606   0.789   2.513 -2.3834  1.7422 -1.4409
  992MOL0     H30913   6.686   0.931   2.466 -0.2228 -1.2905  0.0617
  992MOL0     H30914   6.500   1.021   2.527 -3.4064 -0.8226  0.0929
  992MOL0     H30915   6.585   1.048   2.690  0.9865 -2.1003  1.5775
  992MOL0     H30916   6.419   0.819   2.634 -3.0643  1.6329  0.2528
  992MOL0     H30917   6.485   0.853   2.785  0.5841 -3.0729 -2.5608
  992MOL0     H30918   6.276   1.054   2.651  1.0089  0.8666  0.2772
  992MOL0     H30919   6.349   1.072   2.796 -0.8953  0.4728 -0.1538
  992MOL0     H30920   6.257   0.858   2.900 -0.8646  0.3927 -0.1919
  992MOL0     H30921   6.192   0.814   2.748  0.5417 -1.1835  2.8058
  992MOL0     H30922   6.112   1.063   2.884 -1.7188 -0.3570  0.3617
  992MOL0     H30923   6.042   0.994   2.743  0.9250  3.6629  1.3722
  992MOL0     H30924   5.938   0.803   2.856 -1.8357 -0.3400  1.0742
  992MOL0     H30925   5.890   0.958   2.928  0.4777  0.0219  1.0483
  992MOL0     H30926   6.986   0.681   2.715  0.3127 -0.2048 -0.0204
  992MOL0     H30927   7.206   0.648   2.735 -1.6442 -0.4335 -0.3242
  992MOL0     H30928   7.584   0.809   3.088 -1.2175 -2.3939 -0.9679
  992MOL0     H30929   7.810   0.826   3.122 -0.2465 -1.2571  0.6357
  992MOL0     H30930   7.737   0.440   4.224  0.7957  1.8799 -2.8257
  992MOL0     H30931   7.976   0.348   4.292  1.8288 -1.3403 -0.0602
  992MOL0     H30932   8.458   0.393   3.966  3.4816  1.3285  2.6388
  992MOL0     H30933   8.679   0.308   3.976  1.2810 -2.2080  0.2866
  992MOL0     H30934   8.728  -0.109   3.987 -1.7721 -0.8264  1.9246
  992MOL0     H30935   8.773  -0.082   4.156  1.2884  4.2736  1.5175
  992MOL0     H30936   8.981  -0.000   3.959 -1.8759  0.8089 -0.3200
  992MOL0     H30937   9.010  -0.075   4.118  1.1133  0.1648 -0.7052
  992MOL0     H30938   8.925  -0.231   3.860 -0.5416  1.9082 -0.6309
  992MOL0     H30939   8.912  -0.288   4.029 -1.4798 -0.4811 -1.2485
  992MOL0     H30940   9.153  -0.255   4.051  0.5404  1.5249  0.4030
  992MOL0     H30941   9.103  -0.349   3.905  0.5095 -0.8205  1.5632
  992MOL0     H30942   9.270   0.028   3.753  1.9263 -0.0958  1.4033
  992MOL0     H30943   8.540  -0.039   4.173 -1.6132  0.0247  1.3551
  992MOL0     H30944   8.315   0.050   4.179 -0.8716  2.9567  2.7924
  993MOL0     O30945   3.823   0.038   7.586  0.4245  0.7242  0.0770
  993MOL0     C30946   3.869   0.012   7.700  0.5426  0.3894  0.7391
  993MOL0     O30947   3.804   0.019   7.823  0.2844  0.8038 -0.3111
  993MOL0     C30948   3.689   0.075   7.840 -0.1531 -0.2881 -0.6052
  993MOL0     C30949   3.661   0.117   7.974  0.4315 -0.2491 -0.0063
  993MOL0     C30950   3.535   0.178   8.020 -0.0314  1.1510  0.2070
  993MOL0     C30951   3.441   0.184   7.912  0.3326 -0.3100  0.1559
  993MOL0     O30952   3.317   0.233   7.937 -0.7344 -0.4393 -0.3187
  993MOL0     C30953   3.329   0.374   7.906 -0.2725  0.1992  0.2067
  993MOL0     C30954   3.203   0.443   7.927  0.3805 -0.7475  0.3372
  993MOL0     C30955   3.217   0.596   7.952 -0.1399 -0.0089 -0.1516
  993MOL0     C30956   3.283   0.629   8.081  0.1708  0.0301 -1.1272
  993MOL0     C30957   3.311   0.767   8.122  0.4053  0.0189  0.7606
  993MOL0     C30958   3.417   0.770   8.232 -0.4146 -0.3315 -0.8527
  993MOL0     C30959   3.431   0.923   8.268 -0.4657  0.2460  0.7444
  993MOL0     C30960   3.557   0.948   8.363  0.0634  0.0551  0.5908
  993MOL0     N30961   3.552   0.864   8.486  0.9317  0.0802  0.0821
  993MOL0     C30962   3.501   0.884   8.617  0.5739  0.1251 -0.4001
  993MOL0     C30963   3.514   0.768   8.687  0.7707 -0.2218 -0.3653
  993MOL0     C30964   3.472   0.751   8.831 -0.3050  0.4277  0.5112
  993MOL0     C30965   3.318   0.750   8.852 -0.6126  1.2040 -0.8872
  993MOL0     C30966   3.250   0.641   8.768 -0.2771  0.0628 -1.2219
  993MOL0     C30967   3.107   0.629   8.786 -0.2731  0.4439  0.0405
  993MOL0     O30968   3.047   0.753   8.822 -0.2840  0.2940  0.2958
  993MOL0     C30969   2.914   0.759   8.829  0.5991 -0.2121 -0.2153
  993MOL0     C30970   2.814   0.669   8.778 -0.5210  0.5039  0.0483
  993MOL0     C30971   2.675   0.684   8.809  0.0247  0.0752 -0.5150
  993MOL0     C30972   2.631   0.800   8.881  0.8272  0.3866 -0.8015
  993MOL0     C30973   2.483   0.805   8.905  0.0549  0.1467 -0.6045
  993MOL0     O30974   2.403   0.722   8.830 -0.1440  0.0942  0.2070
  993MOL0     C30975   2.267   0.744   8.843 -0.1041 -0.2310  0.3415
  993MOL0     C30976   2.179   0.648   8.894 -0.0781 -0.3133 -0.6572
  993MOL0     C30977   2.043   0.651   8.895 -0.2285  0.0373  0.7441
  993MOL0     C30978   1.978   0.762   8.835 -0.0098 -0.5555 -0.3359
  993MOL0     O30979   1.842   0.773   8.803 -0.4762  0.3994  0.0311
  993MOL0     C30980   1.776   0.643   8.813  0.2007 -0.1441  0.4516
  993MOL0     C30981   1.632   0.658   8.762  0.5548  0.1933  0.2686
  993MOL0     C30982   1.558   0.519   8.778 -0.2512  0.2730  0.0748
  993MOL0     C30983   1.420   0.525   8.710 -0.1802 -0.6429  0.2801
  993MOL0     C30984   1.411   0.544   8.551  0.4119  0.0624 -0.7779
  993MOL0     C30985   1.264   0.535   8.506  0.6001  0.1275 -0.4047
  993MOL0     C30986   1.175   0.648   8.568  0.3887 -0.1828  0.2163
  993MOL0     C30987   1.067   0.698   8.470  0.7357 -0.0618  0.0339
  993MOL0    Cl30988   0.988   0.832   8.550  0.6226 -0.4346  0.5618
  993MOL0     C30989   2.064   0.857   8.778 -0.3159  1.0130  0.3626
  993MOL0     C30990   2.202   0.848   8.781  0.7463 -0.1930 -0.6452
  993MOL0     O30991   2.452   0.898   8.980  0.1578 -0.0389 -0.8340
  993MOL0     C30992   2.724   0.901   8.916  0.6694 -0.5843  0.1542
  993MOL0     C30993   2.853   0.875   8.887 -0.9814  0.2890 -0.2863
  993MOL0     N30994   3.578   0.679   8.612  0.3632 -0.6193  0.1786
  993MOL0     N30995   3.597   0.739   8.492 -0.0700 -0.1884  0.4585
  993MOL0     C30996   3.464   0.137   7.785 -0.4227 -0.8377 -0.2027
  993MOL0     C30997   3.587   0.087   7.750 -0.6155  0.2608 -0.7179
  993MOL0     C30998   4.014  -0.006   7.693 -0.3731  1.0204 -0.9534
  993MOL0     C30999   4.096  -0.030   7.807  0.0734 -0.7079  0.0281
  993MOL0     C31000   4.229  -0.061   7.803  0.0798  0.1555 -0.0353
  993MOL0     C31001   4.297  -0.064   7.682  0.1101  0.8411 -0.3478
  993MOL0     O31002   4.430  -0.066   7.679  0.4526  0.6907  0.8388
  993MOL0     C31003   4.506   0.057   7.652 -0.5497  0.3672  0.0023
  993MOL0     C31004   4.459   0.178   7.726 -0.3169 -0.4881 -0.4713
  993MOL0     C31005   4.496   0.163   7.875 -0.6043 -0.1277  0.9073
  993MOL0     C31006   4.445   0.285   7.962 -0.0754 -0.0329 -0.2157
  993MOL0     C31007   4.297   0.296   7.964  0.5869  0.7685 -0.3349
  993MOL0     C31008   4.172   0.290   7.963 -0.9870  0.2823  0.3788
  993MOL0     C31009   4.222  -0.019   7.569 -0.5260 -0.7359 -0.4019
  993MOL0     C31010   4.084   0.011   7.566 -0.8387 -0.7416  0.6384
  993MOL0     H31011   3.746   0.113   8.042  0.0335  3.3253  0.8772
  993MOL0     H31012   3.513   0.187   8.125 -0.4158  1.9607  0.0604
  993MOL0     H31013   3.364   0.391   7.804 -1.2237 -0.6392 -0.2818
  993MOL0     H31014   3.410   0.415   7.967  2.2673 -1.1565 -2.0353
  993MOL0     H31015   3.137   0.410   8.007 -0.5925  0.9063  0.2567
  993MOL0     H31016   3.152   0.417   7.834  1.5286  0.0202 -0.5435
  993MOL0     H31017   3.117   0.639   7.952 -0.5974 -1.0307 -0.5551
  993MOL0     H31018   3.284   0.644   7.880  0.8994  0.7626  1.2861
  993MOL0     H31019   3.222   0.586   8.162  2.7936  2.2564  2.3476
  993MOL0     H31020   3.383   0.584   8.087  1.1367  1.7341 -3.1756
  993MOL0     H31021   3.221   0.822   8.153  0.8681  1.1697  0.1509
  993MOL0     H31022   3.342   0.824   8.033  1.1856  0.0978  1.0767
  993MOL0     H31023   3.516   0.733   8.202 -0.9824  0.0989 -3.4602
  993MOL0     H31024   3.381   0.709   8.316 -2.0007 -2.0127 -2.6496
  993MOL0     H31025   3.433   0.979   8.174 -3.1935  1.4975  1.3171
  993MOL0     H31026   3.337   0.949   8.318 -2.4724 -4.4406 -0.0510
  993MOL0     H31027   3.577   1.055   8.379  1.3359  0.6896 -3.7911
  993MOL0     H31028   3.643   0.917   8.303 -1.0555  1.5310 -1.9735
  993MOL0     H31029   3.447   0.972   8.650 -1.8026 -0.1422 -3.1665
  993MOL0     H31030   3.518   0.828   8.893  1.7043 -1.7374  1.8605
  993MOL0     H31031   3.504   0.653   8.866 -0.1418  0.0256 -0.7007
  993MOL0     H31032   3.280   0.851   8.835  0.3554  2.3451  2.8500
  993MOL0     H31033   3.298   0.727   8.957  0.2717 -0.2741 -1.0094
  993MOL0     H31034   3.271   0.667   8.664  2.5937  3.0910 -0.0582
  993MOL0     H31035   3.301   0.552   8.807  0.3081  0.4717 -1.0334
  993MOL0     H31036   3.080   0.561   8.867 -2.6453  3.3459  1.9155
  993MOL0     H31037   3.071   0.586   8.693  0.4413 -0.2370  0.0712
  993MOL0     H31038   2.843   0.590   8.710  0.9343  1.4953 -0.5475
  993MOL0     H31039   2.605   0.609   8.773 -0.5824  0.3104  0.1574
  993MOL0     H31040   2.229   0.557   8.928  0.4546 -1.3329 -3.8487
  993MOL0     H31041   1.995   0.563   8.936  1.7605 -2.2294 -1.4700
  993MOL0     H31042   1.770   0.610   8.917 -0.0315 -2.5696 -0.2655
  993MOL0     H31043   1.828   0.563   8.759 -0.0524  1.0091 -1.6217
  993MOL0     H31044   1.636   0.681   8.655 -3.0270  2.1974  0.4040
  993MOL0     H31045   1.580   0.741   8.811 -4.0122 -3.3939  2.1332
  993MOL0     H31046   1.536   0.493   8.882 -0.1731 -0.1684 -0.0159
  993MOL0     H31047   1.624   0.446   8.731  3.4776  3.8217 -0.7692
  993MOL0     H31048   1.375   0.428   8.734 -0.7811 -0.4571 -0.0821
  993MOL0     H31049   1.365   0.605   8.760  0.0966 -0.1342 -0.2266
  993MOL0     H31050   1.468   0.460   8.512 -0.6119 -1.1384  0.1890
  993MOL0     H31051   1.454   0.643   8.530  3.3345 -0.9499 -0.0274
  993MOL0     H31052   1.227   0.435   8.533  0.2682  1.1494  3.6009
  993MOL0     H31053   1.259   0.546   8.397 -2.1336 -1.9250 -0.5823
  993MOL0     H31054   1.135   0.602   8.659  0.8754 -0.8242  0.1198
  993MOL0     H31055   1.239   0.732   8.597  1.2975 -1.1485  1.0988
  993MOL0     H31056   0.986   0.631   8.438  1.5918 -0.3697 -1.5702
  993MOL0     H31057   1.106   0.736   8.375  2.9939  1.2536  1.4032
  993MOL0     H31058   2.034   0.943   8.718 -2.5509 -1.2393 -1.9747
  993MOL0     H31059   2.274   0.919   8.742  1.0596 -0.7059 -1.0072
  993MOL0     H31060   2.689   0.987   8.973 -0.7252 -1.9459  1.4532
  993MOL0     H31061   2.919   0.946   8.936  0.0335 -1.0437  0.3211
  993MOL0     H31062   3.386   0.129   7.710  0.3307  0.7224 -1.1926
  993MOL0     H31063   3.602   0.053   7.648 -0.5537  0.5890 -0.8163
  993MOL0     H31064   4.052  -0.013   7.905  1.0690  1.8058  0.1305
  993MOL0     H31065   4.290  -0.086   7.889  0.7914 -2.4984 -1.2282
  993MOL0     H31066   4.508   0.089   7.547  2.0264  0.9053  0.1498
  993MOL0     H31067   4.613   0.044   7.667  0.0019  3.5480 -0.3878
  993MOL0     H31068   4.515   0.263   7.684  1.3800 -0.8869  0.8640
  993MOL0     H31069   4.355   0.200   7.704  0.5222  0.5905 -4.1178
  993MOL0     H31070   4.605   0.156   7.873 -0.6981 -2.3784  0.3524
  993MOL0     H31071   4.448   0.072   7.913 -0.2399 -1.5623 -1.8202
  993MOL0     H31072   4.474   0.279   8.067 -0.3096 -1.5355 -0.2089
  993MOL0     H31073   4.483   0.380   7.923 -0.6764  0.2271 -0.1662
  993MOL0     H31074   4.068   0.266   7.958 -1.0635 -0.2828  2.9557
  993MOL0     H31075   4.276  -0.004   7.476  2.0193  0.7668  1.1900
  993MOL0     H31076   4.050   0.047   7.469  3.5022 -0.9268 -1.1389
  994MOL0     O31077   4.708  11.164   2.284  0.0951 -0.1119  0.0419
  994MOL0     C31078   4.749  11.269   2.227 -0.0667 -0.2358  0.1440
  994MOL0     O31079   4.871  11.295   2.180 -0.3423  0.3254 -0.1181
  994MOL0     C31080   4.978  11.210   2.199  0.7852  0.2474 -0.7336
  994MOL0     C31081   5.043  11.166   2.079 -0.3324  0.4938  0.2130
  994MOL0     C31082   5.162  11.084   2.076  0.1337 -0.3721 -0.5217
  994MOL0     C31083   5.226  11.041   2.198  0.4019 -1.1272  0.6704
  994MOL0     O31084   5.345  10.990   2.209 -0.3816  0.7020 -0.0091
  994MOL0     C31085   5.433  10.949   2.102 -0.1450 -0.6256  0.5753
  994MOL0     C31086   5.575  10.956   2.149  0.3848  1.0691  0.3487
  994MOL0     C31087   5.682  10.885   2.068  0.8352  0.6157  0.8004
  994MOL0     C31088   5.824  10.884   2.125 -0.2219 -0.5756  0.0775
  994MOL0     C31089   5.911  10.775   2.070  0.0080  0.3674  0.1650
  994MOL0     C31090   6.063  10.804   2.072  0.3209 -0.2093 -0.5580
  994MOL0     C31091   6.131  10.810   2.203  0.0933  0.2133  0.3366
  994MOL0     C31092   6.120  10.685   2.285  0.1852  0.6899 -0.4772
  994MOL0     N31093   6.200  10.572   2.227 -0.1126 -0.7563 -0.4049
  994MOL0     C31094   6.336  10.583   2.195  0.3748  0.0911  0.3232
  994MOL0     C31095   6.340  10.503   2.086 -0.4578 -0.6596  0.2792
  994MOL0     C31096   6.449  10.458   1.992  0.3128 -0.5164 -0.4988
  994MOL0     C31097   6.586  10.431   2.060 -0.2193  0.2403  0.3329
  994MOL0     C31098   6.677  10.356   1.964 -0.0935 -0.6552  0.7301
  994MOL0     C31099   6.807  10.312   2.025  0.0404  0.4377 -0.1988
  994MOL0     O31100   6.883  10.425   2.061 -0.5721  0.6100  0.3757
  994MOL0     C31101   7.001  10.399   2.136  0.2523 -0.5386 -0.0228
  994MOL0     C31102   7.089  10.509   2.159 -0.2536 -0.1491 -0.9365
  994MOL0     C31103   7.217  10.487   2.209  0.0163  0.1462  0.3304
  994MOL0     C31104   7.270  10.359   2.236  0.6783  0.0573  0.6273
  994MOL0     C31105   7.408  10.336   2.281 -0.7546  0.2763 -0.3378
  994MOL0     O31106   7.485  10.451   2.255  0.1228 -0.0434  0.7062
  994MOL0     C31107   7.619  10.445   2.272 -0.3187 -0.0748  0.7436
  994MOL0     C31108   7.704  10.345   2.321  0.0097 -0.1570 -0.7525
  994MOL0     C31109   7.844  10.353   2.309  0.4089 -0.1702 -0.2246
  994MOL0     C31110   7.909  10.461   2.244 -0.1619  0.0615  0.3223
  994MOL0     O31111   8.047  10.466   2.237 -0.4858  0.2761  0.0943
  994MOL0     C31112   8.124  10.589   2.226 -0.6019  0.5296 -0.7564
  994MOL0     C31113   8.224  10.563   2.115 -0.2498  0.5638 -0.6676
  994MOL0     C31114   8.343  10.662   2.120 -0.0539  0.0731 -0.1916
  994MOL0     C31115   8.440  10.650   1.993  0.1531  0.3451  0.6224
  994MOL0     C31116   8.505  10.784   1.946 -0.1677  0.0847 -0.5349
  994MOL0     C31117   8.635  10.806   2.029 -0.2138 -0.3367  0.7048
  994MOL0     C31118   8.687  10.956   2.024  0.6485  0.7543  0.2828
  994MOL0     C31119   8.774  10.985   1.906  0.0682  0.2937 -0.2468
  994MOL0    Cl31120   8.838  11.149   1.931  0.0228 -0.1150 -0.1138
  994MOL0     C31121   7.823  10.565   2.205 -0.2642 -0.7820  0.6865
  994MOL0     C31122   7.687  10.552   2.210 -0.1855  0.0147 -0.3561
  994MOL0     O31123   7.441  10.232   2.335 -0.4832  0.1229  1.0732
  994MOL0     C31124   7.170  10.249   2.212  0.0396  0.3284  0.3496
  994MOL0     C31125   7.040  10.270   2.168  0.6544  0.5932 -0.7116
  994MOL0     N31126   6.216  10.433   2.069 -0.4092 -0.4467  1.1508
  994MOL0     N31127   6.135  10.488   2.145 -0.5304  0.8870 -0.1034
  994MOL0     C31128   5.164  11.091   2.314 -0.4419 -0.2059 -0.7043
  994MOL0     C31129   5.048  11.177   2.315 -0.2104 -0.6918  0.3873
  994MOL0     C31130   4.646  11.378   2.197  0.2057  0.7390 -0.5915
  994MOL0     C31131   4.681  11.512   2.167 -0.7939  0.7288  0.4420
  994MOL0     C31132   4.583  11.601   2.120 -0.4899  0.2139 -0.7432
  994MOL0     C31133   4.454  11.576   2.136 -0.2084 -0.2171  0.4753
  994MOL0     O31134   4.370  11.681   2.105 -0.5064 -0.3895 -0.2429
  994MOL0     C31135   4.226  11.656   2.084  0.1737 -0.3505 -0.0270
  994MOL0     C31136   4.146  11.679   2.213 -0.4263  0.2543  1.0733
  994MOL0     C31137   4.185  11.812   2.275 -1.5754  0.0744  0.4750
  994MOL0     C31138   4.126  11.841   2.410  0.5711 -0.4428  0.1905
  994MOL0     C31139   3.987  11.899   2.400  0.4507  0.7447  0.3338
  994MOL0     C31140   3.873  11.946   2.384  0.5035 -0.5060  0.3970
  994MOL0     C31141   4.417  11.445   2.163 -0.6748  0.4439  0.1726
  994MOL0     C31142   4.509  11.347   2.186 -0.3517  0.1194 -0.8225
  994MOL0     H31143   4.994  11.200   1.988 -0.4271  3.6374  1.3202
  994MOL0     H31144   5.208  11.066   1.979  1.1394 -0.8022  0.0113
  994MOL0     H31145   5.426  11.022   2.020  0.3128  0.0863  1.1526
  994MOL0     H31146   5.413  10.849   2.065 -1.0197  0.1817 -1.2309
  994MOL0     H31147   5.574  10.909   2.248  0.1241 -0.8198 -0.5032
  994MOL0     H31148   5.598  11.063   2.150  1.6786  1.0230 -4.0214
  994MOL0     H31149   5.684  10.944   1.976 -0.5918  3.9377  2.7352
  994MOL0     H31150   5.651  10.781   2.053 -0.9906  0.7046  3.3138
  994MOL0     H31151   5.861  10.986   2.108 -1.1818  0.5529  3.8791
  994MOL0     H31152   5.830  10.878   2.234 -2.3636  1.2310  0.3588
  994MOL0     H31153   5.871  10.753   1.970  1.5206  0.7569 -0.5471
  994MOL0     H31154   5.899  10.682   2.127 -0.2307  0.9559  1.0985
  994MOL0     H31155   6.066  10.896   2.013 -1.3813  0.3546  0.1552
  994MOL0     H31156   6.111  10.723   2.016  0.3713 -2.3321  2.3251
  994MOL0     H31157   6.237  10.833   2.185 -0.1269 -0.8097 -2.8903
  994MOL0     H31158   6.091  10.895   2.259  0.4510  0.8718 -0.4098
  994MOL0     H31159   6.018  10.652   2.302 -1.0162  3.5554 -1.5198
  994MOL0     H31160   6.149  10.710   2.388 -1.3500 -1.3861  0.5358
  994MOL0     H31161   6.417  10.623   2.255  1.7729 -0.6022 -1.0108
  994MOL0     H31162   6.458  10.519   1.902 -0.4717 -2.1348 -1.7214
  994MOL0     H31163   6.423  10.355   1.964  3.3606 -1.7496  0.7749
  994MOL0     H31164   6.567  10.385   2.158  0.8321  0.0248  0.4410
  994MOL0     H31165   6.636  10.527   2.074  0.5968 -0.1092 -0.1109
  994MOL0     H31166   6.620  10.268   1.933 -2.0580  0.9417 -0.4686
  994MOL0     H31167   6.697  10.418   1.877 -0.5455  0.8820  1.6730
  994MOL0     H31168   6.860  10.241   1.962 -2.0475 -1.8478  0.4628
  994MOL0     H31169   6.781  10.260   2.118 -1.5234 -0.2917 -1.0005
  994MOL0     H31170   7.064  10.613   2.140  1.5186  0.5402  0.2923
  994MOL0     H31171   7.285  10.571   2.213 -2.5310  2.3225  0.5542
  994MOL0     H31172   7.668  10.265   2.384 -1.5171  2.1090  1.4247
  994MOL0     H31173   7.908  10.275   2.348 -0.9997 -1.7080 -0.8949
  994MOL0     H31174   8.177  10.606   2.320 -0.9444  0.0126 -0.4631
  994MOL0     H31175   8.054  10.671   2.205 -1.4774  0.1949  0.6964
  994MOL0     H31176   8.176  10.563   2.017  0.3693 -1.0950 -1.0066
  994MOL0     H31177   8.277  10.471   2.145 -1.6279  0.6144  2.2727
  994MOL0     H31178   8.398  10.647   2.213 -4.0483 -1.3156  2.2067
  994MOL0     H31179   8.302  10.763   2.114 -0.4573 -0.1633 -2.7016
  994MOL0     H31180   8.521  10.577   2.003  0.0094  0.1955  0.7007
  994MOL0     H31181   8.381  10.612   1.909 -0.5783  2.5970  0.0628
  994MOL0     H31182   8.437  10.869   1.958 -0.3241 -0.0603 -0.3730
  994MOL0     H31183   8.538  10.779   1.842  0.9080  0.0099 -0.1969
  994MOL0     H31184   8.715  10.742   1.993 -0.0408  0.0359  0.4152
  994MOL0     H31185   8.610  10.789   2.135  1.2756  2.8660  1.6928
  994MOL0     H31186   8.595  11.014   2.023 -1.4769 -1.9295 -5.8103
  994MOL0     H31187   8.750  10.969   2.112 -0.6318 -1.0334  1.5298
  994MOL0     H31188   8.717  10.973   1.814 -2.1077  0.8726  0.9344
  994MOL0     H31189   8.856  10.916   1.886 -1.2052 -1.4700  0.3112
  994MOL0     H31190   7.869  10.640   2.141 -1.6136 -1.7251 -1.4875
  994MOL0     H31191   7.625  10.628   2.162 -0.5681 -0.9261 -1.3890
  994MOL0     H31192   7.195  10.149   2.246  2.7009  1.7584  3.0684
  994MOL0     H31193   6.984  10.182   2.138  0.9905  0.3947 -0.7683
  994MOL0     H31194   5.213  11.068   2.409  2.7888  1.4841 -1.8120
  994MOL0     H31195   5.013  11.210   2.412 -1.3394 -2.5454  0.6622
  994MOL0     H31196   4.785  11.543   2.168 -0.4134 -0.4195 -0.8654
  994MOL0     H31197   4.609  11.701   2.087  4.7956  0.1414  2.1561
  994MOL0     H31198   4.197  11.564   2.035  0.5670  0.5192 -1.9717
  994MOL0     H31199   4.184  11.739   2.027 -0.0415  0.1788  0.8759
  994MOL0     H31200   4.041  11.671   2.184 -0.1383 -3.4049  0.6130
  994MOL0     H31201   4.162  11.598   2.284  1.8838  0.3596  0.7442
  994MOL0     H31202   4.178  11.893   2.201 -0.7266 -1.0500 -0.8922
  994MOL0     H31203   4.292  11.814   2.299 -2.0370 -0.7699  2.7707
  994MOL0     H31204   4.122  11.753   2.476  1.5988  0.3943  1.4337
  994MOL0     H31205   4.184  11.916   2.466  0.5223 -0.4542  0.2574
  994MOL0     H31206   3.781  11.999   2.370  0.2600 -1.3202 -1.3041
  994MOL0     H31207   4.319  11.402   2.149  0.3831 -1.9178 -0.4376
  994MOL0     H31208   4.464  11.249   2.196 -1.3948  0.7556  1.4060
  995MOL0     O31209   8.688   4.211  10.490  0.9480 -0.6540 -0.3927
  995MOL0     C31210   8.686   4.226  10.615  0.0293  0.1711  0.4719
  995MOL0     O31211   8.579   4.274  10.692  0.1531  0.7702 -0.4237
  995MOL0     C31212   8.468   4.326  10.628  0.3581 -0.0120 -0.0337
  995MOL0     C31213   8.410   4.316  10.503 -0.5086 -0.6156  0.2455
  995MOL0     C31214   8.302   4.398  10.464 -0.0819  0.4561  0.3491
  995MOL0     C31215   8.232   4.474  10.555 -0.4589  0.4013 -0.5171
  995MOL0     O31216   8.111   4.548  10.537 -0.2427 -0.2983  0.0650
  995MOL0     C31217   8.081   4.593  10.400 -0.1887 -0.2081 -0.3711
  995MOL0     C31218   7.975   4.704  10.383 -0.4254  0.4229  0.0934
  995MOL0     C31219   7.996   4.763  10.242 -0.1789 -0.0791 -0.2680
  995MOL0     C31220   7.874   4.839  10.199 -0.3349  0.4849 -0.3130
  995MOL0     C31221   7.747   4.753  10.156 -0.2611 -0.2766  0.9947
  995MOL0     C31222   7.632   4.773  10.260 -0.6615  0.7668 -0.6522
  995MOL0     C31223   7.528   4.671  10.227 -0.4466 -0.9830  0.4900
  995MOL0     C31224   7.406   4.687  10.328 -0.5258  0.3695 -0.9129
  995MOL0     N31225   7.294   4.601  10.277 -0.1471 -0.5899 -0.1986
  995MOL0     C31226   7.178   4.655  10.214  0.0139 -0.5501  0.0801
  995MOL0     C31227   7.134   4.561  10.135  0.7470  0.4417 -0.3050
  995MOL0     C31228   7.009   4.586  10.054  0.0329  0.7598 -0.0199
  995MOL0     C31229   6.872   4.542  10.122 -0.7612  0.5597  0.3509
  995MOL0     C31230   6.864   4.596  10.270 -0.3566 -0.8267  0.0858
  995MOL0     C31231   6.730   4.551  10.331  0.1341 -0.0818 -0.6274
  995MOL0     O31232   6.692   4.636  10.436  0.1871 -0.5984  0.2910
  995MOL0     C31233   6.573   4.607  10.503 -0.3439 -0.4659 -1.5351
  995MOL0     C31234   6.474   4.516  10.446 -0.8502 -0.8416 -0.1641
  995MOL0     C31235   6.352   4.502  10.502  0.6879 -0.0443 -0.1828
  995MOL0     C31236   6.318   4.563  10.624  0.7295  0.2836  0.1153
  995MOL0     C31237   6.192   4.531  10.692 -1.0392 -0.4729 -0.4071
  995MOL0     O31238   6.179   4.581  10.818  0.5906 -0.4265  0.0231
  995MOL0     C31239   6.066   4.581  10.895  0.3904 -0.2112  0.1301
  995MOL0     C31240   5.934   4.573  10.850 -0.0726 -0.1927 -0.9051
  995MOL0     C31241   5.831   4.582  10.941  0.2500  0.0888  0.5254
  995MOL0     C31242   5.855   4.577  11.075 -0.0082 -0.8461  0.6594
  995MOL0     O31243   5.743   4.576  11.152 -0.2779  0.3011  0.0871
  995MOL0     C31244   5.751   4.504  11.277 -0.2061  0.7794  0.0074
  995MOL0     C31245   5.620   4.423  11.316  0.1045 -0.5219  0.8905
  995MOL0     C31246   5.505   4.515  11.342 -1.4485 -0.7147 -0.7912
  995MOL0     C31247   5.367   4.451  11.337 -0.4008 -0.7488  0.2347
  995MOL0     C31248   5.256   4.560  11.325 -0.5289  0.1757 -0.1252
  995MOL0     C31249   5.120   4.502  11.358  1.1131  0.1059 -0.0303
  995MOL0     C31250   5.004   4.602  11.335  0.1640 -0.1949  0.0666
  995MOL0     C31251   4.867   4.558  11.383 -0.5926 -0.2150  0.2115
  995MOL0    Cl31252   4.813   4.394  11.337 -0.0614  0.0544 -0.0700
  995MOL0     C31253   5.984   4.583  11.124 -0.3484  0.6901  0.5844
  995MOL0     C31254   6.092   4.573  11.033  0.8929 -0.2817  0.6554
  995MOL0     O31255   6.109   4.465  10.641 -0.2646 -0.3783 -0.0268
  995MOL0     C31256   6.416   4.655  10.687  0.5874 -0.9089  0.6201
  995MOL0     C31257   6.542   4.681  10.623  0.9088 -0.8242 -0.5261
  995MOL0     N31258   7.207   4.446  10.151  0.3402  0.3610 -0.4437
  995MOL0     N31259   7.312   4.476  10.218  0.2684 -0.5710 -0.1349
  995MOL0     C31260   8.284   4.474  10.682  0.1723  0.1998  0.6987
  995MOL0     C31261   8.401   4.409  10.716  0.0292  0.8204  0.1529
  995MOL0     C31262   8.803   4.177  10.693  0.1077 -0.1214  0.0795
  995MOL0     C31263   8.799   4.153  10.828 -0.5863 -0.5400 -0.4609
  995MOL0     C31264   8.918   4.116  10.888  0.2040 -0.3173 -0.1595
  995MOL0     C31265   9.045   4.114  10.824 -0.2759  0.5883  0.8322
  995MOL0     O31266   9.163   4.099  10.897 -0.2761 -0.0073 -0.2107
  995MOL0     C31267   9.259   4.003  10.863  0.1201  0.4833  0.1893
  995MOL0     C31268   9.397   4.064  10.829  0.1655 -0.4147 -0.4130
  995MOL0     C31269   9.426   4.120  10.688 -0.5776  0.8574 -0.6612
  995MOL0     C31270   9.572   4.164  10.700  0.1519 -0.7577  0.5268
  995MOL0     C31271   9.599   4.283  10.781  0.1314  0.0792  0.0116
  995MOL0     C31272   9.644   4.376  10.846 -0.1899  0.1324 -0.1893
  995MOL0     C31273   9.056   4.131  10.689 -0.3656 -0.4954 -0.1838
  995MOL0     C31274   8.931   4.169  10.622 -0.2539  0.0368 -0.3912
  995MOL0     H31275   8.457   4.258  10.425 -0.6670 -1.2980  0.6473
  995MOL0     H31276   8.263   4.387  10.364 -1.7771 -3.1555  1.2245
  995MOL0     H31277   8.053   4.508  10.338  1.7651 -0.4135 -1.0084
  995MOL0     H31278   8.175   4.633  10.361 -0.4740  1.2481  0.3694
  995MOL0     H31279   8.001   4.775  10.462 -0.0422 -0.5868  0.9001
  995MOL0     H31280   7.874   4.667  10.404 -1.0138  2.9004  2.2465
  995MOL0     H31281   8.013   4.682  10.171 -0.0031 -0.8892  0.6659
  995MOL0     H31282   8.089   4.820  10.250 -0.3268 -0.0132  1.4496
  995MOL0     H31283   7.825   4.894  10.279 -3.2540  1.0400 -2.2921
  995MOL0     H31284   7.898   4.901  10.112  1.4272 -1.9853 -1.7425
  995MOL0     H31285   7.769   4.647  10.138  0.7998  0.2068 -0.7915
  995MOL0     H31286   7.713   4.807  10.067 -0.3188  1.8358  2.2318
  995MOL0     H31287   7.587   4.872  10.261  2.1729  2.1776  1.6238
  995MOL0     H31288   7.672   4.750  10.359  0.2662 -0.6097 -1.3100
  995MOL0     H31289   7.483   4.697  10.132  0.1271  0.1992  0.5182
  995MOL0     H31290   7.568   4.569  10.227  0.6570 -0.5919  1.6556
  995MOL0     H31291   7.376   4.792  10.331  1.6686  1.0098  0.4400
  995MOL0     H31292   7.438   4.642  10.422  1.2246 -0.9772 -2.0912
  995MOL0     H31293   7.134   4.754  10.221 -2.7873 -1.7579  0.9583
  995MOL0     H31294   7.030   4.543   9.955  3.8766 -0.6585  1.2208
  995MOL0     H31295   7.000   4.695  10.050 -4.3649  0.5698 -0.0288
  995MOL0     H31296   6.868   4.432  10.128 -2.4134  0.6423  1.5026
  995MOL0     H31297   6.792   4.576  10.056  1.2859  0.8632 -2.1401
  995MOL0     H31298   6.942   4.575  10.344 -0.1561 -0.4607 -0.0178
  995MOL0     H31299   6.867   4.706  10.270 -0.3052 -0.8162  1.2567
  995MOL0     H31300   6.736   4.446  10.363 -1.0633  0.6556  2.3623
  995MOL0     H31301   6.659   4.547  10.248 -0.0990 -1.8238 -0.3822
  995MOL0     H31302   6.488   4.473  10.347  0.5291 -0.8551  0.0117
  995MOL0     H31303   6.287   4.427  10.459  1.8846 -2.2898  1.6965
  995MOL0     H31304   5.903   4.566  10.746 -0.7848 -2.4938 -0.5969
  995MOL0     H31305   5.727   4.568  10.913 -0.0442 -0.0280  1.6422
  995MOL0     H31306   5.772   4.582  11.352  0.6067 -0.4541  1.1096
  995MOL0     H31307   5.838   4.438  11.284 -1.7183 -1.1772  1.3143
  995MOL0     H31308   5.649   4.362  11.401  0.9649 -0.9461  0.3074
  995MOL0     H31309   5.590   4.362  11.230  0.8080  1.4778 -0.8695
  995MOL0     H31310   5.510   4.595  11.267  3.7597 -0.8680 -1.0204
  995MOL0     H31311   5.513   4.568  11.436 -2.5009 -2.1930  0.1828
  995MOL0     H31312   5.355   4.390  11.247  1.4374  0.8014 -1.1443
  995MOL0     H31313   5.356   4.395  11.430 -1.2014  1.1150  1.3287
  995MOL0     H31314   5.254   4.610  11.227 -1.4003  1.8254  0.6869
  995MOL0     H31315   5.283   4.638  11.397  0.3832 -0.8601  0.6801
  995MOL0     H31316   5.112   4.454  11.456 -2.4841  1.0435  0.2785
  995MOL0     H31317   5.103   4.426  11.282 -1.0306  1.1267 -0.6417
  995MOL0     H31318   5.034   4.692  11.388  1.2782  0.4609 -1.5730
  995MOL0     H31319   4.993   4.624  11.228 -1.1510 -0.3969  0.1505
  995MOL0     H31320   4.793   4.632  11.349 -0.4534 -0.3852 -0.4593
  995MOL0     H31321   4.868   4.550  11.492  1.2971 -0.1379  0.2338
  995MOL0     H31322   6.000   4.577  11.231  0.9005 -0.3418  0.3526
  995MOL0     H31323   6.192   4.561  11.073  1.2359 -0.9126 -0.3365
  995MOL0     H31324   6.398   4.710  10.778  2.1068  2.3749 -0.9211
  995MOL0     H31325   6.603   4.763  10.660 -1.2469  0.0567  1.2744
  995MOL0     H31326   8.245   4.539  10.760  1.1560 -0.3861  1.7210
  995MOL0     H31327   8.441   4.401  10.817  2.2614 -1.0307 -0.7647
  995MOL0     H31328   8.717   4.166  10.897  0.7818 -3.4798  1.9382
  995MOL0     H31329   8.930   4.086  10.991  0.1076  1.1795  0.3109
  995MOL0     H31330   9.229   3.927  10.789  1.3510 -2.8364  2.8360
  995MOL0     H31331   9.265   3.939  10.951 -0.8545  1.7687  1.2333
  995MOL0     H31332   9.409   4.143  10.904 -3.2342 -1.2152  1.1727
  995MOL0     H31333   9.461   3.977  10.842  0.0490 -0.3776  0.4399
  995MOL0     H31334   9.364   4.202  10.651  0.6303  2.4138  0.6186
  995MOL0     H31335   9.420   4.042  10.612  3.5679  0.7569 -1.1109
  995MOL0     H31336   9.629   4.086  10.751  2.3668 -1.4908 -2.7685
  995MOL0     H31337   9.630   4.181  10.609 -0.8476 -0.8552 -0.1466
  995MOL0     H31338   9.676   4.460  10.904  1.9233 -2.0963  2.1796
  995MOL0     H31339   9.154   4.126  10.643 -0.0012  0.7491  0.4311
  995MOL0     H31340   8.933   4.181  10.514  1.1503 -1.3405 -0.5577
  996MOL0     O31341   7.491   2.080   7.084  0.3575  0.0453 -0.9267
  996MOL0     C31342   7.460   2.195   7.126  0.1611 -0.5314  0.0222
  996MOL0     O31343   7.512   2.266   7.231 -0.0737  0.1136 -0.4596
  996MOL0     C31344   7.629   2.229   7.295 -0.4228  0.0177  0.5264
  996MOL0     C31345   7.643   2.237   7.431  0.3262 -0.4679  0.4648
  996MOL0     C31346   7.767   2.228   7.490  0.9204  0.9852 -0.1281
  996MOL0     C31347   7.874   2.184   7.416 -0.8983  0.6025 -0.5208
  996MOL0     O31348   7.998   2.160   7.481  0.4304  0.7597  0.9451
  996MOL0     C31349   8.044   2.235   7.588 -1.0447 -0.4825  1.0970
  996MOL0     C31350   8.169   2.310   7.526  0.5292  0.5526  0.0038
  996MOL0     C31351   8.218   2.419   7.621 -0.7197  0.6942 -0.2240
  996MOL0     C31352   8.368   2.448   7.597  0.0113  0.1603  0.9299
  996MOL0     C31353   8.413   2.596   7.604 -0.0708 -0.4357 -0.1218
  996MOL0     C31354   8.557   2.617   7.543  0.6753  0.4412 -0.2124
  996MOL0     C31355   8.666   2.588   7.647 -0.3089  0.2844 -0.0680
  996MOL0     C31356   8.812   2.612   7.599  0.6949  0.5552  0.2616
  996MOL0     N31357   8.840   2.545   7.474 -0.1352  0.5363  0.4868
  996MOL0     C31358   8.851   2.599   7.346  0.3713  0.0830 -0.2633
  996MOL0     C31359   8.899   2.504   7.264 -0.3703 -0.3977  0.0355
  996MOL0     C31360   8.909   2.499   7.109  1.4952  0.6966  0.3310
  996MOL0     C31361   8.782   2.433   7.047 -0.9083 -0.3030  0.2583
  996MOL0     C31362   8.808   2.382   6.901  0.0896 -0.5469  0.1105
  996MOL0     C31363   8.675   2.357   6.825  0.9199  1.0201 -0.0777
  996MOL0     O31364   8.575   2.464   6.819 -0.3366  0.7174  0.3763
  996MOL0     C31365   8.462   2.440   6.751 -0.4887 -0.2666 -0.6714
  996MOL0     C31366   8.365   2.541   6.741  0.5814 -0.5536  0.4117
  996MOL0     C31367   8.248   2.521   6.672  1.0913  0.3935  1.2700
  996MOL0     C31368   8.227   2.407   6.605  0.0772  0.2331 -0.4349
  996MOL0     C31369   8.106   2.396   6.520 -0.4322  1.1687 -0.5185
  996MOL0     O31370   8.043   2.513   6.479  0.0339 -0.8623 -0.8050
  996MOL0     C31371   7.937   2.505   6.390 -0.4373  0.5341  0.1652
  996MOL0     C31372   7.819   2.437   6.424 -0.2260 -0.7237  0.2098
  996MOL0     C31373   7.705   2.437   6.341 -0.2642  0.7357  0.7340
  996MOL0     C31374   7.706   2.502   6.218 -0.4757  0.3484  0.2804
  996MOL0     O31375   7.594   2.480   6.153  0.4762 -0.2784  0.1824
  996MOL0     C31376   7.615   2.460   6.009  0.8167 -0.2433  1.0094
  996MOL0     C31377   7.487   2.389   5.961 -0.1669 -0.8648 -0.6591
  996MOL0     C31378   7.476   2.335   5.822 -0.6691  0.5054  0.0418
  996MOL0     C31379   7.514   2.434   5.709 -0.7160 -0.4845 -0.2906
  996MOL0     C31380   7.429   2.559   5.698 -0.0017 -0.3339 -0.4315
  996MOL0     C31381   7.453   2.629   5.562 -0.5548  0.1455 -0.2580
  996MOL0     C31382   7.369   2.749   5.553 -0.1419 -0.6371 -1.2132
  996MOL0     C31383   7.313   2.793   5.412  1.1822  0.4147 -0.3050
  996MOL0    Cl31384   7.142   2.832   5.436  0.4842  0.5221 -0.0332
  996MOL0     C31385   7.818   2.589   6.189  0.0567  0.3942 -0.5930
  996MOL0     C31386   7.938   2.580   6.266 -0.2863 -0.2074  0.3561
  996MOL0     O31387   8.072   2.278   6.488  0.2775  0.0922 -0.0657
  996MOL0     C31388   8.320   2.305   6.606  0.2563 -0.1757  0.5146
  996MOL0     C31389   8.445   2.326   6.671  0.3718 -0.2648  0.1659
  996MOL0     N31390   8.937   2.401   7.348 -0.4245 -0.0138 -0.3323
  996MOL0     N31391   8.914   2.427   7.469  0.4215  0.2469 -0.0346
  996MOL0     C31392   7.857   2.160   7.276  1.1162  0.1109 -0.4423
  996MOL0     C31393   7.734   2.194   7.218 -0.1752  0.3354  1.1572
  996MOL0     C31394   7.348   2.246   7.054 -0.1896  0.3856 -0.2113
  996MOL0     C31395   7.333   2.233   6.923 -0.6131  0.7448 -0.1306
  996MOL0     C31396   7.220   2.252   6.848  1.0466 -0.5745 -1.1177
  996MOL0     C31397   7.106   2.300   6.915 -0.3965  0.0110 -0.7182
  996MOL0     O31398   6.983   2.334   6.860 -0.2528 -0.1463 -0.6995
  996MOL0     C31399   6.978   2.349   6.723 -0.1069 -0.4995  0.6619
  996MOL0     C31400   6.872   2.450   6.688 -0.5345  0.5527 -0.2933
  996MOL0     C31401   6.725   2.433   6.715  0.7601  0.0395 -0.3164
  996MOL0     C31402   6.634   2.516   6.626 -0.8501  0.0429 -0.1080
  996MOL0     C31403   6.503   2.467   6.621 -1.4989  1.1603  0.0861
  996MOL0     C31404   6.403   2.405   6.646  0.4471  0.7539  0.1455
  996MOL0     C31405   7.116   2.325   7.052 -0.0934 -0.3396  0.0903
  996MOL0     C31406   7.231   2.295   7.123 -0.5607  0.4755  0.3129
  996MOL0     H31407   7.559   2.264   7.495 -2.1975 -5.0049 -0.5051
  996MOL0     H31408   7.773   2.246   7.597 -5.2016 -1.9824  1.1888
  996MOL0     H31409   8.079   2.149   7.646 -1.2081 -0.7351  0.8221
  996MOL0     H31410   7.980   2.309   7.637 -1.6690  0.3914 -0.9404
  996MOL0     H31411   8.145   2.349   7.426  1.9215 -0.8409 -0.9292
  996MOL0     H31412   8.254   2.241   7.523  1.7397  1.7449  2.9120
  996MOL0     H31413   8.199   2.376   7.719 -2.1506  0.3004 -0.6371
  996MOL0     H31414   8.159   2.511   7.612 -0.6665  1.0287  2.2637
  996MOL0     H31415   8.429   2.395   7.671 -0.9033  0.4446  1.9123
  996MOL0     H31416   8.397   2.401   7.502  0.1704 -0.9315  1.5002
  996MOL0     H31417   8.428   2.626   7.708  1.7978 -1.2228 -0.1241
  996MOL0     H31418   8.337   2.662   7.562 -1.7936 -2.6132 -0.6194
  996MOL0     H31419   8.567   2.723   7.517  0.9701  1.3532  3.0941
  996MOL0     H31420   8.567   2.558   7.452  0.3358 -0.2260  0.1711
  996MOL0     H31421   8.655   2.652   7.735  0.8499 -1.3752  1.3562
  996MOL0     H31422   8.651   2.482   7.673  1.0261  0.1078  0.0792
  996MOL0     H31423   8.883   2.578   7.675  0.4523 -0.6096 -0.0178
  996MOL0     H31424   8.835   2.718   7.583  2.4104  0.0971 -0.6217
  996MOL0     H31425   8.809   2.690   7.306 -0.2286 -1.0429 -2.3472
  996MOL0     H31426   9.004   2.459   7.072  1.3482  0.0288  0.6516
  996MOL0     H31427   8.906   2.602   7.071  0.2595  0.0602 -1.4062
  996MOL0     H31428   8.697   2.501   7.055 -1.6723 -1.1144 -0.7424
  996MOL0     H31429   8.754   2.346   7.107 -1.9164 -0.4973 -0.4676
  996MOL0     H31430   8.847   2.466   6.843 -4.0965  2.4668  1.1501
  996MOL0     H31431   8.868   2.291   6.911 -3.1380 -3.1931 -2.0196
  996MOL0     H31432   8.631   2.267   6.869 -1.4029  2.3362  0.4456
  996MOL0     H31433   8.706   2.338   6.722 -0.3440  2.1562 -0.6913
  996MOL0     H31434   8.391   2.631   6.795  2.0726 -0.2828 -0.6789
  996MOL0     H31435   8.176   2.602   6.663 -0.1532 -0.7484  0.3844
  996MOL0     H31436   7.818   2.400   6.526 -1.6671  4.3653  2.3783
  996MOL0     H31437   7.615   2.381   6.364  2.0333 -2.1727  3.6078
  996MOL0     H31438   7.709   2.408   5.989  0.1799 -1.1934  0.4147
  996MOL0     H31439   7.620   2.554   5.953  0.8591 -0.7971  0.0622
  996MOL0     H31440   7.408   2.463   5.976  0.5525 -0.2255  0.1207
  996MOL0     H31441   7.474   2.306   6.031 -2.0993 -0.9435 -1.0753
  996MOL0     H31442   7.371   2.307   5.808 -0.7697  0.9144 -0.0411
  996MOL0     H31443   7.532   2.242   5.810  0.1733  0.9878  0.2024
  996MOL0     H31444   7.616   2.466   5.730 -0.2962 -2.3335  0.7079
  996MOL0     H31445   7.502   2.380   5.615 -2.6455 -0.8807  0.1278
  996MOL0     H31446   7.444   2.627   5.782 -1.9653 -0.2941 -0.0566
  996MOL0     H31447   7.323   2.532   5.701 -0.1216  0.1822  0.0912
  996MOL0     H31448   7.422   2.560   5.483 -4.0711 -0.7583  1.6880
  996MOL0     H31449   7.560   2.653   5.554  0.2725 -1.7661  3.2062
  996MOL0     H31450   7.285   2.740   5.622  2.1975 -1.6546  1.7037
  996MOL0     H31451   7.433   2.832   5.587  1.5242 -1.8106 -1.3519
  996MOL0     H31452   7.323   2.700   5.354 -2.5722 -0.0169 -0.4937
  996MOL0     H31453   7.377   2.872   5.372  2.9480 -1.5222 -1.5139
  996MOL0     H31454   7.807   2.659   6.106 -2.0553  2.2407  1.0987
  996MOL0     H31455   8.023   2.637   6.230 -0.6651 -0.3937 -0.8798
  996MOL0     H31456   8.311   2.215   6.546 -0.8952  1.5243 -2.0447
  996MOL0     H31457   8.512   2.241   6.666  1.0888  0.3492 -1.2705
  996MOL0     H31458   7.942   2.130   7.216 -0.6434 -1.4330 -2.3008
  996MOL0     H31459   7.724   2.189   7.110 -1.2381 -1.3268  1.2968
  996MOL0     H31460   7.423   2.196   6.873 -0.9071 -2.0430  1.2036
  996MOL0     H31461   7.223   2.221   6.744 -1.0948 -4.7349 -0.1360
  996MOL0     H31462   6.952   2.260   6.665 -0.1972  0.3917 -0.7161
  996MOL0     H31463   7.060   2.401   6.673  0.0351 -2.7961 -1.7070
  996MOL0     H31464   6.897   2.549   6.727 -2.3193  1.8682 -2.2330
  996MOL0     H31465   6.871   2.463   6.579  1.7670 -1.5559 -0.6580
  996MOL0     H31466   6.709   2.462   6.819  2.4901 -0.1184  0.0362
  996MOL0     H31467   6.696   2.329   6.699  1.5516  0.1987 -3.6910
  996MOL0     H31468   6.628   2.621   6.656 -3.8416  0.7309 -2.4934
  996MOL0     H31469   6.677   2.517   6.525  2.1113  1.2885  1.0656
  996MOL0     H31470   6.306   2.369   6.676  0.5510 -0.1010 -0.5268
  996MOL0     H31471   7.042   2.375   7.112 -1.8879 -0.1215 -2.1820
  996MOL0     H31472   7.239   2.300   7.231 -0.2404  1.4774  0.2499
  997MOL0     O31473   5.256   2.042   4.359  0.3582  0.3301  0.3800
  997MOL0     C31474   5.257   1.932   4.415 -0.5325 -0.3486 -0.2897
  997MOL0     O31475   5.154   1.834   4.412 -0.9512  0.2662  0.2111
  997MOL0     C31476   5.034   1.881   4.352  0.0503 -0.0898 -0.9216
  997MOL0     C31477   5.017   1.883   4.215  0.3585  1.1607  0.7481
  997MOL0     C31478   4.893   1.912   4.154  0.3256 -0.5401 -1.0066
  997MOL0     C31479   4.790   1.964   4.240 -0.3126 -0.2450  0.8154
  997MOL0     O31480   4.676   2.017   4.186  0.3142 -0.5677 -0.2820
  997MOL0     C31481   4.557   2.013   4.257 -0.1065  0.2572 -0.4102
  997MOL0     C31482   4.436   2.037   4.170 -0.5093  0.0005 -0.3741
  997MOL0     C31483   4.440   2.183   4.109  1.4751 -0.5493 -0.4460
  997MOL0     C31484   4.317   2.204   4.017  0.3949  0.4701  0.5786
  997MOL0     C31485   4.177   2.151   4.062 -0.4697 -0.5130 -0.4153
  997MOL0     C31486   4.135   2.227   4.195 -0.3376 -0.0550  0.9944
  997MOL0     C31487   3.996   2.181   4.239 -0.2699 -0.0337  0.1932
  997MOL0     C31488   3.967   2.211   4.375  0.5723  0.5310 -0.5279
  997MOL0     N31489   4.050   2.126   4.467  0.0506  0.3110  0.9906
  997MOL0     C31490   4.169   2.157   4.511  0.1576  0.2261 -0.7300
  997MOL0     C31491   4.215   2.047   4.573 -0.4284 -0.7129 -0.6125
  997MOL0     C31492   4.343   2.015   4.654  0.8155 -0.3309 -0.4033
  997MOL0     C31493   4.324   2.054   4.806 -0.2346 -0.4452  0.4633
  997MOL0     C31494   4.458   2.031   4.881  0.2628 -0.0155 -0.3260
  997MOL0     C31495   4.567   2.141   4.855  0.4387  0.1328 -1.0348
  997MOL0     O31496   4.634   2.102   4.738  0.6006 -0.4425  0.2540
  997MOL0     C31497   4.741   2.179   4.709 -0.2924 -0.4390 -0.0693
  997MOL0     C31498   4.723   2.286   4.619  0.2070 -0.4220 -0.0238
  997MOL0     C31499   4.828   2.360   4.574 -0.2408  1.4337  0.5399
  997MOL0     C31500   4.960   2.321   4.615  0.3833 -0.6556 -0.0763
  997MOL0     C31501   5.082   2.403   4.590  0.3558  0.4518 -0.3320
  997MOL0     O31502   5.201   2.345   4.619 -1.0515 -0.4464  0.2504
  997MOL0     C31503   5.325   2.383   4.569 -0.2646  1.4173  0.3161
  997MOL0     C31504   5.343   2.448   4.443  0.2716 -0.3575 -0.0280
  997MOL0     C31505   5.472   2.491   4.420 -0.6641  0.3872  0.3100
  997MOL0     C31506   5.575   2.479   4.510 -0.4406  0.4248 -0.9142
  997MOL0     O31507   5.702   2.484   4.480 -1.1007 -0.9059  0.4306
  997MOL0     C31508   5.742   2.352   4.453 -0.3824  0.7392  0.8167
  997MOL0     C31509   5.885   2.353   4.414 -0.4784  0.9360  0.7452
  997MOL0     C31510   5.915   2.419   4.280 -0.2770 -0.7513 -0.0216
  997MOL0     C31511   6.067   2.430   4.256  0.4069  0.6906  0.1119
  997MOL0     C31512   6.150   2.516   4.354  0.1497  0.4367 -0.0890
  997MOL0     C31513   6.265   2.591   4.273 -0.5018  0.4305 -0.2194
  997MOL0     C31514   6.358   2.480   4.209  0.0069 -0.5865  0.2002
  997MOL0     C31515   6.483   2.538   4.128 -0.8491  0.6392 -0.5291
  997MOL0    Cl31516   6.443   2.648   3.997 -0.0868  0.3868 -0.1263
  997MOL0     C31517   5.548   2.435   4.637  0.5163  0.8340  0.1398
  997MOL0     C31518   5.426   2.386   4.668  0.3218 -0.0418 -0.0829
  997MOL0     O31519   5.060   2.512   4.540 -0.4062 -0.0730  0.0856
  997MOL0     C31520   4.980   2.210   4.696  0.3727  0.4869  0.4164
  997MOL0     C31521   4.865   2.132   4.739 -0.1551  0.2150 -0.3597
  997MOL0     N31522   4.121   1.945   4.556  0.4653 -0.4297  0.6669
  997MOL0     N31523   4.018   2.002   4.506  0.2720  0.0711  0.2145
  997MOL0     C31524   4.807   1.977   4.376 -0.5159 -0.1804 -0.0976
  997MOL0     C31525   4.930   1.941   4.432 -0.0228 -0.3703  0.5016
  997MOL0     C31526   5.383   1.896   4.481  1.0869 -0.5126  0.0253
  997MOL0     C31527   5.410   1.765   4.522  1.0805  0.4918  0.1386
  997MOL0     C31528   5.534   1.733   4.563 -1.1731  0.6696 -0.0905
  997MOL0     C31529   5.636   1.825   4.578 -0.0207 -0.1662 -0.3977
  997MOL0     O31530   5.760   1.766   4.607  0.0299 -0.1070 -0.8794
  997MOL0     C31531   5.876   1.829   4.550 -0.2559 -0.3152 -0.0939
  997MOL0     C31532   5.928   1.942   4.634 -0.1950  0.2482 -0.1368
  997MOL0     C31533   6.052   1.901   4.709 -0.2882 -0.0593  0.8847
  997MOL0     C31534   6.109   2.027   4.786 -0.6802 -0.5751 -0.3873
  997MOL0     C31535   6.244   1.996   4.824 -0.8570  0.2323  0.0871
  997MOL0     C31536   6.361   1.997   4.834 -0.2910 -0.6972 -0.8541
  997MOL0     C31537   5.624   1.950   4.526 -0.0179 -0.5914 -0.2195
  997MOL0     C31538   5.495   1.992   4.477 -0.3182 -0.0644  0.1932
  997MOL0     H31539   5.095   1.845   4.149  1.3040  1.1428  1.8405
  997MOL0     H31540   4.867   1.902   4.049 -2.0488 -3.6071 -0.2991
  997MOL0     H31541   4.561   2.090   4.334  2.1963 -1.8096  1.6979
  997MOL0     H31542   4.550   1.920   4.314 -0.5201  0.9876  0.7438
  997MOL0     H31543   4.346   2.021   4.230  0.0302  0.0953  0.4707
  997MOL0     H31544   4.444   1.971   4.083  0.0478  1.8153 -1.7557
  997MOL0     H31545   4.531   2.202   4.051  0.9740 -2.5127 -1.9813
  997MOL0     H31546   4.432   2.258   4.189 -1.8828 -0.4175 -0.8021
  997MOL0     H31547   4.308   2.306   3.978  0.6009 -1.3986 -5.2678
  997MOL0     H31548   4.343   2.144   3.930  4.0870  0.5130  1.4691
  997MOL0     H31549   4.175   2.043   4.079 -3.7651  0.0590  6.0592
  997MOL0     H31550   4.101   2.160   3.983  0.3161 -1.9834 -1.4090
  997MOL0     H31551   4.135   2.334   4.172 -1.4597 -0.5854 -1.9798
  997MOL0     H31552   4.208   2.191   4.267 -0.2973 -3.2535 -0.4652
  997MOL0     H31553   3.920   2.239   4.186  1.8185  2.6287 -0.1202
  997MOL0     H31554   3.986   2.073   4.229 -0.2230  0.0159 -0.4281
  997MOL0     H31555   3.865   2.197   4.411  0.5515 -2.5164 -1.4430
  997MOL0     H31556   3.983   2.317   4.394  0.9545  0.7458 -1.9580
  997MOL0     H31557   4.212   2.256   4.498  0.4758  0.3130  0.7709
  997MOL0     H31558   4.422   2.075   4.608 -0.1426 -1.0855 -3.1960
  997MOL0     H31559   4.359   1.907   4.655 -0.0108 -0.4757  1.0673
  997MOL0     H31560   4.243   1.988   4.838 -0.6537 -0.2131 -0.0981
  997MOL0     H31561   4.286   2.156   4.818 -2.3865 -1.0417 -0.7097
  997MOL0     H31562   4.444   2.030   4.990  2.2283 -2.6485  0.0295
  997MOL0     H31563   4.492   1.929   4.858 -0.9235 -0.4063 -0.4053
  997MOL0     H31564   4.638   2.132   4.937  1.2040 -1.0073 -1.8013
  997MOL0     H31565   4.523   2.240   4.871 -0.6152 -0.4052 -0.4998
  997MOL0     H31566   4.619   2.308   4.594  0.9950 -0.0481 -3.5836
  997MOL0     H31567   4.800   2.438   4.504 -0.8358  0.3594 -0.4598
  997MOL0     H31568   5.259   2.470   4.378 -1.4300  0.8747  2.4191
  997MOL0     H31569   5.504   2.521   4.321  1.7491  0.4504  1.0458
  997MOL0     H31570   5.683   2.318   4.368 -0.0560  0.2213  0.7955
  997MOL0     H31571   5.734   2.282   4.537 -0.0511  1.1579  1.2012
  997MOL0     H31572   5.913   2.249   4.395  0.7689  1.0996  1.5576
  997MOL0     H31573   5.937   2.391   4.502 -0.7917  0.6387  1.0601
  997MOL0     H31574   5.866   2.517   4.281 -0.5631 -0.6365  5.2624
  997MOL0     H31575   5.871   2.353   4.205 -0.9663  0.2958 -0.5634
  997MOL0     H31576   6.106   2.328   4.254 -0.8514  0.2030 -1.8398
  997MOL0     H31577   6.075   2.480   4.159  1.3786 -0.5833 -0.4967
  997MOL0     H31578   6.191   2.451   4.432  1.2183 -1.2738 -1.9797
  997MOL0     H31579   6.094   2.598   4.398  1.5043  1.7263 -0.6657
  997MOL0     H31580   6.331   2.656   4.331 -1.5747 -0.3650  1.9863
  997MOL0     H31581   6.207   2.644   4.197 -1.7925  1.3490  1.3456
  997MOL0     H31582   6.396   2.420   4.292  2.1574 -2.0954 -1.7415
  997MOL0     H31583   6.304   2.403   4.153 -0.2034 -1.0695  1.0595
  997MOL0     H31584   6.557   2.462   4.105  1.9960  1.7914  3.7181
  997MOL0     H31585   6.544   2.604   4.190  0.5585  0.2076 -1.4278
  997MOL0     H31586   5.615   2.427   4.722  1.1564 -1.2570 -0.4909
  997MOL0     H31587   5.416   2.350   4.770 -1.2280  1.1835  0.2527
  997MOL0     H31588   5.075   2.168   4.725  0.0358  1.8396  4.0516
  997MOL0     H31589   4.873   2.049   4.809  1.6297  0.5731 -0.0898
  997MOL0     H31590   4.737   2.022   4.445 -0.1911  1.7766 -0.9662
  997MOL0     H31591   4.942   1.955   4.539 -0.1106 -1.1658  0.6228
  997MOL0     H31592   5.335   1.687   4.531  1.9806 -0.1844  2.3630
  997MOL0     H31593   5.552   1.631   4.595 -3.5855 -0.0186 -0.7375
  997MOL0     H31594   5.857   1.852   4.445 -1.3220  1.8868  0.5130
  997MOL0     H31595   5.953   1.751   4.549  0.2471  0.1763 -1.6900
  997MOL0     H31596   5.942   2.029   4.568 -2.5384  0.6424 -0.2012
  997MOL0     H31597   5.858   1.961   4.716 -2.4944  0.0357 -1.9167
  997MOL0     H31598   6.134   1.865   4.646 -0.8293 -1.5113  0.9716
  997MOL0     H31599   6.030   1.815   4.774  0.1313 -1.0514 -0.2494
  997MOL0     H31600   6.127   2.114   4.721 -1.2183  0.7357  1.1468
  997MOL0     H31601   6.049   2.073   4.865 -1.7323  2.7360 -2.8927
  997MOL0     H31602   6.466   2.014   4.848 -0.0678  0.1889 -3.1526
  997MOL0     H31603   5.707   2.020   4.522  0.8747 -1.3718  2.4233
  997MOL0     H31604   5.491   2.090   4.432  2.6180  0.8720  1.7070
  998MOL0     O31605   2.380   9.669   7.433  0.3401  0.4080 -0.7534
  998MOL0     C31606   2.270   9.606   7.457 -0.6959  0.6238  0.8198
  998MOL0     O31607   2.174   9.588   7.372  1.4024 -0.0711  0.1431
  998MOL0     C31608   2.196   9.631   7.242  0.2232 -0.2456 -0.1308
  998MOL0     C31609   2.094   9.702   7.186  0.6333  0.0452  0.2532
  998MOL0     C31610   2.104   9.744   7.050 -0.0522  0.0271  0.4120
  998MOL0     C31611   2.219   9.728   6.973 -0.3303  0.5276  0.4549
  998MOL0     O31612   2.242   9.761   6.840  0.4051  0.1981  0.1003
  998MOL0     C31613   2.169   9.885   6.789  0.6001  0.7361 -0.8081
  998MOL0     C31614   2.227   9.911   6.646  0.1044 -0.2725  1.0624
  998MOL0     C31615   2.382   9.926   6.639 -0.3512 -0.5121 -0.6013
  998MOL0     C31616   2.416   9.981   6.502 -1.5518  0.2277  0.7869
  998MOL0     C31617   2.565   9.968   6.476  0.1589  0.7865  0.1584
  998MOL0     C31618   2.661  10.047   6.568  0.5343  0.5787 -0.8535
  998MOL0     C31619   2.640  10.201   6.560 -0.1270  0.5618 -0.1744
  998MOL0     C31620   2.667  10.280   6.428  0.2244 -0.3780 -0.4552
  998MOL0     N31621   2.571  10.251   6.318 -0.3899 -0.3947 -0.3431
  998MOL0     C31622   2.439  10.280   6.327 -0.3720 -0.2439 -0.2917
  998MOL0     C31623   2.398  10.244   6.205 -0.9710 -1.3478 -0.4990
  998MOL0     C31624   2.255  10.253   6.161  0.5950 -0.2485  0.1361
  998MOL0     C31625   2.166  10.131   6.196 -0.5094  0.0260 -0.1904
  998MOL0     C31626   2.202   9.999   6.129  0.5466 -0.1581  0.3722
  998MOL0     C31627   2.109   9.879   6.166  0.8002  0.0046  0.2448
  998MOL0     O31628   1.976   9.911   6.192 -0.8504  0.1207 -0.7401
  998MOL0     C31629   1.887   9.906   6.088 -0.3528 -0.1800  0.8382
  998MOL0     C31630   1.918   9.908   5.951 -0.2199  0.0948 -0.6299
  998MOL0     C31631   1.819   9.902   5.853 -0.2162 -0.0108 -0.5958
  998MOL0     C31632   1.685   9.901   5.884 -0.1874  0.4157  0.9741
  998MOL0     C31633   1.587   9.916   5.778 -0.1796  0.2034  0.3658
  998MOL0     O31634   1.635   9.968   5.663 -0.0045  0.4186 -1.0838
  998MOL0     C31635   1.584   9.959   5.536 -0.0153  0.2224 -0.1033
  998MOL0     C31636   1.661   9.932   5.424  0.0805  0.9782  0.1937
  998MOL0     C31637   1.600   9.915   5.302 -0.0846 -0.1892 -0.3798
  998MOL0     C31638   1.466   9.929   5.294 -0.5409 -0.3113 -0.2251
  998MOL0     O31639   1.409   9.904   5.174  0.7930 -0.3694 -0.1596
  998MOL0     C31640   1.426   9.768   5.133 -0.6082  0.0144  0.2909
  998MOL0     C31641   1.287   9.714   5.106  0.3600  0.2918  0.5977
  998MOL0     C31642   1.227   9.647   5.236 -0.8666  0.4534  0.7757
  998MOL0     C31643   1.074   9.636   5.218  0.2449 -0.0585 -0.4496
  998MOL0     C31644   1.012   9.553   5.335  0.5910  0.1969 -0.2459
  998MOL0     C31645   0.856   9.548   5.310 -0.8963  0.1088  0.6454
  998MOL0     C31646   0.777   9.671   5.341 -0.2939  1.0356 -0.7667
  998MOL0     C31647   0.626   9.648   5.336  0.4203 -1.0916 -0.4865
  998MOL0    Cl31648   0.573   9.545   5.460  0.3560 -0.2209  0.0243
  998MOL0     C31649   1.388   9.958   5.402 -0.7544 -0.7909 -0.5170
  998MOL0     C31650   1.442   9.960   5.526 -0.2019 -0.1723  0.0260
  998MOL0     O31651   1.472   9.875   5.791  0.3495  0.5461 -0.3297
  998MOL0     C31652   1.656   9.915   6.018 -0.0053  0.5058 -1.3089
  998MOL0     C31653   1.757   9.928   6.120  0.0800 -0.9228 -0.8533
  998MOL0     N31654   2.496  10.203   6.121 -0.1923  0.2670 -0.2235
  998MOL0     N31655   2.609  10.206   6.195  0.8623 -0.7625  0.0753
  998MOL0     C31656   2.325   9.659   7.033  0.1738  0.2860 -0.0127
  998MOL0     C31657   2.317   9.619   7.168  0.8554  0.0038  0.4101
  998MOL0     C31658   2.259   9.548   7.592  0.6551  0.5806 -0.2804
  998MOL0     C31659   2.373   9.493   7.652  0.0446  0.1010 -0.2475
  998MOL0     C31660   2.365   9.426   7.780  0.0497  0.2146 -0.3082
  998MOL0     C31661   2.239   9.432   7.846 -0.4066  0.0603  0.4282
  998MOL0     O31662   2.225   9.387   7.979  0.2597 -0.4852  0.7693
  998MOL0     C31663   2.153   9.258   7.990 -0.7334 -0.5693  0.5510
  998MOL0     C31664   2.243   9.142   7.941  1.7490 -0.6376  0.4171
  998MOL0     C31665   2.189   9.000   7.951  0.1307 -0.2280 -0.0112
  998MOL0     C31666   2.280   8.897   7.886  0.2160  0.1263  0.5974
  998MOL0     C31667   2.256   8.895   7.744  0.1448  0.0569 -0.4278
  998MOL0     C31668   2.235   8.897   7.623  0.3001 -0.2090 -0.3308
  998MOL0     C31669   2.128   9.498   7.790  0.4588  0.5433 -0.0982
  998MOL0     C31670   2.141   9.552   7.660  0.3219  0.1498 -0.1195
  998MOL0     H31671   2.003   9.720   7.242  0.0820 -0.4788 -0.4590
  998MOL0     H31672   2.009   9.791   7.024  0.2750  0.5478  0.1282
  998MOL0     H31673   2.166   9.970   6.858  0.4372 -0.1716  0.3247
  998MOL0     H31674   2.066   9.847   6.784 -0.0915  2.0443  1.6792
  998MOL0     H31675   2.168  10.000   6.618 -0.9762 -1.5818 -1.0869
  998MOL0     H31676   2.192   9.831   6.580 -0.3089 -0.2032  1.1916
  998MOL0     H31677   2.438   9.834   6.656  0.6049  0.1559 -0.0177
  998MOL0     H31678   2.415  10.003   6.710 -3.6910  1.4793 -0.9556
  998MOL0     H31679   2.364   9.935   6.418 -1.5198 -2.8347  2.2881
  998MOL0     H31680   2.392  10.087   6.506  0.4733  0.7240  4.5132
  998MOL0     H31681   2.581   9.997   6.372 -1.3624 -1.1241 -0.6821
  998MOL0     H31682   2.587   9.861   6.488 -0.3325  0.5102 -1.2389
  998MOL0     H31683   2.765  10.014   6.555 -0.2630 -1.3705 -2.9411
  998MOL0     H31684   2.643  10.025   6.673  0.1432 -1.0155 -1.2259
  998MOL0     H31685   2.537  10.220   6.592  0.0171  0.0143  0.6479
  998MOL0     H31686   2.713  10.249   6.625 -1.7477  1.8198  0.8016
  998MOL0     H31687   2.774  10.265   6.408  0.6239  1.7108 -0.1368
  998MOL0     H31688   2.667  10.385   6.458  2.7026 -0.7032  0.9976
  998MOL0     H31689   2.391  10.303   6.421 -0.9758  0.1572 -0.6936
  998MOL0     H31690   2.247  10.268   6.053  0.6101  1.7071  0.3833
  998MOL0     H31691   2.202  10.339   6.204  0.5714 -0.9542  1.5870
  998MOL0     H31692   2.063  10.157   6.171 -0.8294 -0.6986  0.3318
  998MOL0     H31693   2.159  10.117   6.305  1.5294  1.0913  0.1333
  998MOL0     H31694   2.213  10.007   6.021 -1.4313  1.7601  0.2257
  998MOL0     H31695   2.301   9.980   6.170  1.4323  2.2208 -0.4838
  998MOL0     H31696   2.146   9.821   6.251 -2.4210 -2.8815 -0.1025
  998MOL0     H31697   2.113   9.804   6.086  1.0328 -0.2744  0.5134
  998MOL0     H31698   2.019   9.918   5.913  0.3308 -0.7016  0.5460
  998MOL0     H31699   1.855   9.901   5.750 -0.4332  0.5145 -0.6768
  998MOL0     H31700   1.767   9.915   5.433  0.4850  1.9059 -2.1616
  998MOL0     H31701   1.667   9.880   5.225 -0.3634 -1.1976 -0.1836
  998MOL0     H31702   1.470   9.698   5.204 -1.8572  0.0034  1.0783
  998MOL0     H31703   1.473   9.753   5.035 -2.0424 -1.6572 -0.1863
  998MOL0     H31704   1.290   9.638   5.027 -0.0334  1.9958 -1.1274
  998MOL0     H31705   1.229   9.800   5.074  3.4071  1.7240 -1.6407
  998MOL0     H31706   1.255   9.711   5.320  1.8495  0.9748 -0.4229
  998MOL0     H31707   1.272   9.549   5.253  1.4817  1.2798 -0.2671
  998MOL0     H31708   1.022   9.732   5.226 -0.8151 -0.4825 -1.8127
  998MOL0     H31709   1.046   9.586   5.125 -1.5697 -0.9975  0.5320
  998MOL0     H31710   1.028   9.602   5.431 -0.0685 -0.5941  0.2812
  998MOL0     H31711   1.058   9.456   5.319 -2.8575 -1.2965 -2.3285
  998MOL0     H31712   0.830   9.461   5.371 -0.5412 -2.4819 -2.6334
  998MOL0     H31713   0.831   9.513   5.209  2.3856 -0.3074 -0.1426
  998MOL0     H31714   0.804   9.703   5.442 -0.2157 -0.5754 -0.2510
  998MOL0     H31715   0.806   9.753   5.275  0.6426  1.2323 -0.1240
  998MOL0     H31716   0.575   9.622   5.243  1.5043 -2.6689 -0.6842
  998MOL0     H31717   0.585   9.744   5.370  2.1242 -1.6289  3.8121
  998MOL0     H31718   1.280   9.963   5.392 -0.7491  0.2217 -0.2761
  998MOL0     H31719   1.368   9.986   5.601 -0.0643  2.8689 -0.7489
  998MOL0     H31720   1.551   9.940   6.029  0.2485  1.9024 -1.8093
  998MOL0     H31721   1.710   9.956   6.214  1.3758  4.7329 -1.5336
  998MOL0     H31722   2.419   9.659   6.979  0.3198 -0.7099  0.2154
  998MOL0     H31723   2.410   9.577   7.206  2.1314  1.8339 -0.5212
  998MOL0     H31724   2.472   9.493   7.606  0.7979 -1.1498  1.2885
  998MOL0     H31725   2.452   9.374   7.819  1.0796  2.3906  0.4262
  998MOL0     H31726   2.069   9.266   7.920  0.9716  1.2189 -1.3932
  998MOL0     H31727   2.115   9.240   8.091  1.7276 -3.1149  1.1374
  998MOL0     H31728   2.269   9.165   7.837 -0.7168  1.5964  0.1892
  998MOL0     H31729   2.335   9.146   7.999  0.8676  0.0285  1.8191
  998MOL0     H31730   2.083   8.992   7.923 -0.1636 -2.9599  1.5361
  998MOL0     H31731   2.183   8.965   8.055 -0.9057 -2.9097 -0.8746
  998MOL0     H31732   2.384   8.921   7.911  1.0641 -0.9336 -1.6717
  998MOL0     H31733   2.251   8.799   7.925  1.5800  0.3933  2.4338
  998MOL0     H31734   2.200   8.892   7.522 -1.0715 -1.3497  0.1638
  998MOL0     H31735   2.032   9.505   7.840 -1.0907  3.0208 -3.0776
  998MOL0     H31736   2.064   9.596   7.597 -0.9608 -1.7278  0.0609
  999MOL0     O31737   7.182  11.102  10.393 -0.4358 -0.2215 -0.2919
  999MOL0     C31738   7.165  10.997  10.461 -0.0038  0.1266 -0.1848
  999MOL0     O31739   7.152  10.867  10.415 -0.3888  0.1961  0.3804
  999MOL0     C31740   7.172  10.823  10.288 -0.2085 -0.1712  0.3402
  999MOL0     C31741   7.244  10.699  10.277  0.4895  0.7177 -0.1604
  999MOL0     C31742   7.247  10.640  10.149 -0.2222 -0.0724 -1.0080
  999MOL0     C31743   7.219  10.711  10.033  0.4412  0.0305  0.1285
  999MOL0     O31744   7.246  10.658   9.913  0.1210 -0.0156 -0.2847
  999MOL0     C31745   7.378  10.684   9.877 -0.9938 -0.7531  0.4374
  999MOL0     C31746   7.382  10.665   9.726 -0.4365  0.7152 -0.1376
  999MOL0     C31747   7.513  10.690   9.659 -0.0044  0.7970 -0.6704
  999MOL0     C31748   7.561  10.830   9.668  0.3793  0.3163 -0.1244
  999MOL0     C31749   7.720  10.831   9.677 -0.4102  0.1196  0.0962
  999MOL0     C31750   7.791  10.793   9.812  0.1410 -0.8293  0.3270
  999MOL0     C31751   7.937  10.811   9.799 -0.2222 -1.0372 -0.3925
  999MOL0     C31752   8.025  10.784   9.926  0.2711 -0.5673 -0.7461
  999MOL0     N31753   8.048  10.918  10.002  0.4610  0.3593  0.0782
  999MOL0     C31754   7.959  10.976  10.087  0.2131 -0.1055  0.0512
  999MOL0     C31755   8.024  11.076  10.158  0.2497 -0.0344  0.0888
  999MOL0     C31756   7.960  11.155  10.268  0.7301 -0.4269 -0.0375
  999MOL0     C31757   8.010  11.115  10.405  0.3127  0.4618  0.0836
  999MOL0     C31758   7.978  10.967  10.447 -0.4481  0.0175 -0.2777
  999MOL0     C31759   8.026  10.950  10.590 -0.3936 -0.3485  0.2306
  999MOL0     O31760   7.915  10.955  10.687  0.0624 -0.0950  0.6647
  999MOL0     C31761   7.924  11.027  10.805  0.2879 -0.7599 -0.3502
  999MOL0     C31762   8.040  11.090  10.846 -0.0799 -0.0072  0.0552
  999MOL0     C31763   8.036  11.179  10.950  0.7920 -0.7378  0.3345
  999MOL0     C31764   7.919  11.200  11.029  0.1784 -0.7564 -0.2067
  999MOL0     C31765   7.935  11.280  11.149  0.1931 -0.7331  0.6293
  999MOL0     O31766   8.038  11.369  11.146 -0.4788  0.3368  0.0944
  999MOL0     C31767   8.075  11.428  11.257 -0.6833  0.5041 -0.1108
  999MOL0     C31768   8.060  11.565  11.262 -0.3937 -0.6638 -0.2738
  999MOL0     C31769   8.111  11.629  11.371  0.2427 -1.0053  0.3515
  999MOL0     C31770   8.147  11.561  11.481 -0.3283  1.1866 -0.4469
  999MOL0     O31771   8.179  11.637  11.593  0.3725 -0.1701  0.4654
  999MOL0     C31772   8.282  11.596  11.683 -0.4639 -0.4453 -0.4605
  999MOL0     C31773   8.345  11.728  11.734 -0.4484  0.0350 -0.4028
  999MOL0     C31774   8.371  11.828  11.626  0.2203  0.0703 -0.0712
  999MOL0     C31775   8.462  11.939  11.674 -0.7559 -0.4813 -1.1694
  999MOL0     C31776   8.595  11.901  11.749  0.2111 -0.1340 -0.2064
  999MOL0     C31777   8.684  11.800  11.670 -0.0658  0.1270 -0.3877
  999MOL0     C31778   8.760  11.872  11.557 -0.4034  0.6052  0.6797
  999MOL0     C31779   8.858  11.770  11.477 -1.1565 -0.2614  1.2359
  999MOL0    Cl31780   8.926  11.638  11.580  0.0605 -0.1154  0.3317
  999MOL0     C31781   8.152  11.418  11.485 -0.1327 -0.8640  0.6179
  999MOL0     C31782   8.135  11.349  11.364 -0.1086 -0.4819  0.5288
  999MOL0     O31783   7.859  11.258  11.243 -0.0714 -0.2030  0.1534
  999MOL0     C31784   7.809  11.117  11.003 -0.0103 -0.1807  0.2885
  999MOL0     C31785   7.809  11.039  10.880  0.1102 -0.1302 -0.6629
  999MOL0     N31786   8.159  11.079  10.108  0.0971  0.2608 -0.4178
  999MOL0     N31787   8.162  10.989  10.017  0.0795  0.0629  0.0780
  999MOL0     C31788   7.158  10.834  10.051  0.6232  0.7436  0.5124
  999MOL0     C31789   7.136  10.887  10.173 -0.2760 -1.3578 -0.5987
  999MOL0     C31790   7.179  10.996  10.606  0.2507  0.0031 -0.7293
  999MOL0     C31791   7.188  10.878  10.681 -1.2080  0.3624  0.0429
  999MOL0     C31792   7.221  10.888  10.816 -0.1629  0.2427 -0.3346
  999MOL0     C31793   7.229  11.011  10.888  0.1915 -0.7341 -0.8602
  999MOL0     O31794   7.247  11.003  11.026 -0.2673  0.2176 -0.5260
  999MOL0     C31795   7.280  11.112  11.115  0.0153 -0.1828  0.6378
  999MOL0     C31796   7.336  11.047  11.244  0.0555 -0.3941  0.2339
  999MOL0     C31797   7.477  10.990  11.237 -0.4009 -1.0798 -1.1564
  999MOL0     C31798   7.506  10.882  11.140 -0.0923 -0.1658  0.2028
  999MOL0     C31799   7.610  10.793  11.193 -0.3362 -0.2782  1.1652
  999MOL0     C31800   7.690  10.716  11.236 -0.5033 -0.9153  0.4357
  999MOL0     C31801   7.217  11.123  10.810 -0.5242 -0.2861 -0.1924
  999MOL0     C31802   7.202  11.118  10.670  0.0213  0.9584  1.0672
  999MOL0     H31803   7.289  10.646  10.361 -3.3476 -1.1633  0.9796
  999MOL0     H31804   7.296  10.543  10.145 -1.2159 -0.8933  2.8980
  999MOL0     H31805   7.447  10.617   9.928  1.5893 -0.1702 -2.0141
  999MOL0     H31806   7.396  10.788   9.907 -0.6353  0.0124 -2.1479
  999MOL0     H31807   7.310  10.730   9.677  1.0515 -0.2872 -4.0702
  999MOL0     H31808   7.344  10.562   9.720  0.5017  0.3936 -1.0132
  999MOL0     H31809   7.497  10.655   9.556 -1.9946  2.7210 -1.0793
  999MOL0     H31810   7.581  10.632   9.722  0.4329  2.1271  0.1256
  999MOL0     H31811   7.530  10.884   9.578 -0.4747 -0.6587 -0.4374
  999MOL0     H31812   7.518  10.883   9.754 -0.6633 -0.7915  0.0728
  999MOL0     H31813   7.751  10.933   9.656  0.3883  0.2259  1.7153
  999MOL0     H31814   7.754  10.773   9.590  0.7922  1.3160 -0.2572
  999MOL0     H31815   7.771  10.689   9.843 -1.5130 -0.5487  0.2929
  999MOL0     H31816   7.747  10.853   9.892  0.1632 -1.1525  0.5864
  999MOL0     H31817   7.978  10.754   9.715  0.3696 -1.9630  0.5038
  999MOL0     H31818   7.952  10.913   9.764  2.3466 -1.9741 -2.3895
  999MOL0     H31819   8.119  10.729   9.919  0.0487 -2.0510  3.8946
  999MOL0     H31820   7.974  10.712   9.991  1.8388 -0.1045  1.1028
  999MOL0     H31821   7.864  10.938  10.124  0.1237  0.2562  0.1938
  999MOL0     H31822   7.853  11.135  10.273  0.9576 -1.7186  0.1030
  999MOL0     H31823   7.979  11.261  10.251  0.8723 -0.1479  1.6913
  999MOL0     H31824   7.963  11.181  10.479  1.1821 -0.3948  1.4535
  999MOL0     H31825   8.119  11.127  10.401  0.1547  3.2069 -5.2046
  999MOL0     H31826   7.869  10.961  10.446 -0.9599  2.6305 -6.9583
  999MOL0     H31827   8.016  10.881  10.390 -1.9379 -0.2326 -0.9403
  999MOL0     H31828   8.117  11.009  10.600  0.8046 -2.3885  2.3811
  999MOL0     H31829   8.058  10.846  10.599  0.2114 -0.1884 -0.0018
  999MOL0     H31830   8.134  11.075  10.795  0.0460 -0.3171  0.3741
  999MOL0     H31831   8.129  11.226  10.979 -0.0355  0.4264  1.2186
  999MOL0     H31832   8.016  11.631  11.187  1.9548  0.4075 -0.8255
  999MOL0     H31833   8.127  11.737  11.375  3.4707 -1.3099 -1.2567
  999MOL0     H31834   8.360  11.547  11.625 -1.9974 -0.6811 -2.4110
  999MOL0     H31835   8.255  11.536  11.770  2.3764 -0.9639  0.1622
  999MOL0     H31836   8.437  11.708  11.790  0.9889  0.7548 -2.3796
  999MOL0     H31837   8.275  11.769  11.806  0.7475  1.4983 -0.0351
  999MOL0     H31838   8.286  11.877  11.578  0.4035 -1.1751 -1.7734
  999MOL0     H31839   8.429  11.767  11.556  0.1523 -0.1874  0.0931
  999MOL0     H31840   8.489  11.997  11.586  2.9189 -0.9313 -0.4919
  999MOL0     H31841   8.411  12.002  11.748  1.5513  1.0792 -0.8157
  999MOL0     H31842   8.579  11.863  11.851  0.7347  1.1763  0.3942
  999MOL0     H31843   8.643  11.999  11.746 -0.5157  0.2053 -2.8185
  999MOL0     H31844   8.623  11.717  11.634 -1.0728 -1.2490  3.8492
  999MOL0     H31845   8.765  11.773  11.739 -0.4427  1.1266  0.4638
  999MOL0     H31846   8.697  11.924  11.484  3.6778  2.1786 -2.0140
  999MOL0     H31847   8.823  11.945  11.608 -1.4707  2.3244 -0.3567
  999MOL0     H31848   8.946  11.814  11.429 -1.4659  0.4722  1.3324
  999MOL0     H31849   8.797  11.718  11.403 -1.0224  2.0821 -0.6367
  999MOL0     H31850   8.170  11.359  11.574 -1.7953  0.3735  1.8487
  999MOL0     H31851   8.147  11.242  11.358  3.7362 -0.1222 -0.8035
  999MOL0     H31852   7.718  11.108  11.062 -0.9328 -3.2644 -1.3584
  999MOL0     H31853   7.727  10.971  10.860  0.5337 -0.7596 -0.2799
  999MOL0     H31854   7.127  10.896   9.966  1.2027 -0.0312 -0.2817
  999MOL0     H31855   7.071  10.973  10.179 -1.6638 -2.4259  0.6783
  999MOL0     H31856   7.180  10.780  10.636  2.4212  1.0323 -2.4666
  999MOL0     H31857   7.241  10.794  10.867 -0.0716  2.2941  3.7580
  999MOL0     H31858   7.202  11.185  11.138  0.9161  0.1814  2.7800
  999MOL0     H31859   7.365  11.163  11.068 -0.9672  0.8618 -0.0600
  999MOL0     H31860   7.326  11.110  11.333 -0.2618 -0.7164  0.4302
  999MOL0     H31861   7.260  10.970  11.264 -3.2108  2.1280 -1.4238
  999MOL0     H31862   7.493  10.950  11.338  0.4733  2.2287  0.1491
  999MOL0     H31863   7.548  11.072  11.221  1.7781 -2.3956  0.9277
  999MOL0     H31864   7.421  10.819  11.114 -0.3210  0.7670 -1.5133
  999MOL0     H31865   7.530  10.911  11.037 -2.3513 -2.9919 -1.2629
  999MOL0     H31866   7.766  10.650  11.275 -0.3629  0.0159  1.8043
  999MOL0     H31867   7.207  11.220  10.857 -3.7256 -1.5576  2.1509
  999MOL0     H31868   7.197  11.205  10.606  0.7233 -0.4151 -0.9342
 1000MOL0     O31869   5.050   6.527   3.046 -0.3506 -0.5549 -0.3742
 1000MOL0     C31870   5.066   6.441   3.135  0.4491 -0.9585  0.3517
 1000MOL0     O31871   4.979   6.410   3.228 -0.4173 -0.0223 -0.7152
 1000MOL0     C31872   4.868   6.489   3.250 -0.8606  0.5702 -0.7688
 1000MOL0     C31873   4.751   6.413   3.247 -0.2263 -0.3713  0.3343
 1000MOL0     C31874   4.632   6.485   3.245  1.4166 -0.8134  0.2401
 1000MOL0     C31875   4.619   6.626   3.266 -0.6065 -0.4144  0.5757
 1000MOL0     O31876   4.483   6.662   3.302  0.2900  0.3166  0.3436
 1000MOL0     C31877   4.436   6.767   3.216  1.1445 -0.2854 -0.3255
 1000MOL0     C31878   4.415   6.902   3.280 -0.4706  0.0114 -0.2677
 1000MOL0     C31879   4.326   6.890   3.411 -0.2704 -0.4427  0.9708
 1000MOL0     C31880   4.303   7.028   3.479 -0.5428 -0.2176  0.1051
 1000MOL0     C31881   4.175   7.109   3.446  0.0366  0.1507 -0.0973
 1000MOL0     C31882   4.156   7.145   3.304  0.5234 -0.5831 -0.0641
 1000MOL0     C31883   4.024   7.231   3.297 -1.2868  0.1599 -0.4011
 1000MOL0     C31884   3.998   7.286   3.165 -0.1949  0.6798 -0.0696
 1000MOL0     N31885   3.884   7.368   3.163  0.2498 -0.2941  0.1225
 1000MOL0     C31886   3.755   7.330   3.166  0.5530 -0.0314  1.1329
 1000MOL0     C31887   3.681   7.439   3.147 -0.0073  0.2781 -0.1525
 1000MOL0     C31888   3.527   7.436   3.150  0.3507 -1.2978 -0.0112
 1000MOL0     C31889   3.470   7.565   3.103 -0.3016  0.8072  1.3790
 1000MOL0     C31890   3.311   7.541   3.088 -0.2034  0.2827  0.1925
 1000MOL0     C31891   3.220   7.673   3.066  0.1585 -0.9655  0.2786
 1000MOL0     O31892   3.097   7.614   3.036  0.3826 -0.5015  0.8899
 1000MOL0     C31893   2.996   7.706   3.033  1.8818  0.3360  0.2518
 1000MOL0     C31894   2.986   7.840   3.082  0.7878  0.8759 -1.0394
 1000MOL0     C31895   2.870   7.916   3.072 -0.1219  0.2670 -0.6395
 1000MOL0     C31896   2.758   7.867   3.000 -0.1081 -0.6272 -0.3673
 1000MOL0     C31897   2.644   7.946   2.956 -0.3351 -0.0222 -0.2018
 1000MOL0     O31898   2.553   7.891   2.869 -0.6026 -0.1264  0.0373
 1000MOL0     C31899   2.438   7.957   2.845 -0.0696  0.6335 -0.1857
 1000MOL0     C31900   2.430   8.092   2.826 -0.5918  0.3456  0.1395
 1000MOL0     C31901   2.312   8.156   2.784 -0.0238  0.3123  0.4122
 1000MOL0     C31902   2.191   8.083   2.771 -0.6149 -0.6682 -0.4052
 1000MOL0     O31903   2.075   8.153   2.743 -0.8494  0.3537 -0.1975
 1000MOL0     C31904   1.952   8.094   2.771  0.1601 -0.3256 -0.2250
 1000MOL0     C31905   1.838   8.199   2.767 -0.3303  0.8527  0.3934
 1000MOL0     C31906   1.774   8.213   2.629  0.2479  0.0117 -0.2563
 1000MOL0     C31907   1.735   8.365   2.618  0.1308  0.1520  1.0127
 1000MOL0     C31908   1.621   8.399   2.720 -0.0014 -0.2590  0.3046
 1000MOL0     C31909   1.606   8.554   2.720 -0.6017  0.1200 -0.5987
 1000MOL0     C31910   1.477   8.594   2.769 -0.6318  0.9998 -0.0834
 1000MOL0     C31911   1.459   8.744   2.728  0.2092  0.7199  0.2449
 1000MOL0    Cl31912   1.596   8.863   2.781  0.0689 -0.0898 -0.0528
 1000MOL0     C31913   2.200   7.940   2.783 -0.6779  0.9987 -0.2719
 1000MOL0     C31914   2.323   7.882   2.806 -0.8913 -0.3121  0.1870
 1000MOL0     O31915   2.634   8.049   3.015  0.5419 -0.1979 -1.1641
 1000MOL0     C31916   2.770   7.728   2.957 -0.4027 -0.3190  0.1135
 1000MOL0     C31917   2.885   7.652   2.980 -0.6981  0.5104  0.0337
 1000MOL0     N31918   3.766   7.541   3.121  0.4913  0.8943  0.1649
 1000MOL0     N31919   3.890   7.494   3.126 -0.6808 -1.2701  0.4493
 1000MOL0     C31920   4.738   6.698   3.265 -0.0424  0.6660  0.5244
 1000MOL0     C31921   4.864   6.629   3.250  0.2789 -0.6386  0.3568
 1000MOL0     C31922   5.190   6.353   3.129  0.9489 -0.1531 -0.2108
 1000MOL0     C31923   5.285   6.388   3.030  0.5693  0.6850  0.0153
 1000MOL0     C31924   5.396   6.307   3.010 -0.4534 -0.3388  0.2888
 1000MOL0     C31925   5.409   6.188   3.080  0.1139 -0.2852  0.0158
 1000MOL0     O31926   5.527   6.127   3.063  0.0051  0.8291  0.2109
 1000MOL0     C31927   5.540   5.990   3.112  0.2205  0.3687  0.2486
 1000MOL0     C31928   5.677   5.932   3.065 -0.3896 -0.8142  0.1649
 1000MOL0     C31929   5.675   5.886   2.917  0.4566 -0.2094 -0.3022
 1000MOL0     C31930   5.805   5.806   2.888  0.1919  0.0772 -0.0966
 1000MOL0     C31931   5.922   5.873   2.938  0.9574 -0.2021  1.2413
 1000MOL0     C31932   6.021   5.938   2.980 -0.0368  0.2373 -0.2392
 1000MOL0     C31933   5.309   6.149   3.164 -0.3133 -0.0575  0.2717
 1000MOL0     C31934   5.212   6.240   3.204 -0.0259  0.3083  0.3343
 1000MOL0     H31935   4.756   6.306   3.230 -2.2571 -0.4487  0.0530
 1000MOL0     H31936   4.541   6.427   3.241  1.2838 -0.6799  1.1779
 1000MOL0     H31937   4.344   6.722   3.176  1.1663 -2.6986  2.0057
 1000MOL0     H31938   4.504   6.781   3.132  2.8724 -0.7848  0.9344
 1000MOL0     H31939   4.369   6.970   3.207 -0.9923  1.8467  1.6491
 1000MOL0     H31940   4.515   6.940   3.299 -0.0006  0.7157 -3.5403
 1000MOL0     H31941   4.373   6.819   3.480 -2.5891 -2.4391  0.6150
 1000MOL0     H31942   4.232   6.845   3.380  0.6583 -2.1605  0.4792
 1000MOL0     H31943   4.281   7.008   3.585 -1.9364  3.3313  0.6354
 1000MOL0     H31944   4.392   7.092   3.478 -0.1474 -0.7343 -2.0374
 1000MOL0     H31945   4.182   7.204   3.499  1.3593  0.5165 -0.8557
 1000MOL0     H31946   4.093   7.059   3.497 -0.6039  1.8949  0.6347
 1000MOL0     H31947   4.146   7.049   3.252 -0.2922 -0.4603 -0.1439
 1000MOL0     H31948   4.241   7.194   3.255  0.8045  2.6525  3.2653
 1000MOL0     H31949   3.937   7.173   3.328  0.0958  0.0342  4.0784
 1000MOL0     H31950   4.038   7.317   3.362 -1.0204  0.2023 -0.5132
 1000MOL0     H31951   3.980   7.201   3.099  1.2245  2.2791 -2.6860
 1000MOL0     H31952   4.080   7.340   3.117 -1.2307  1.9385 -0.4961
 1000MOL0     H31953   3.719   7.230   3.186 -0.4069  0.8600  4.3881
 1000MOL0     H31954   3.480   7.406   3.244 -0.2476  0.2759  0.2296
 1000MOL0     H31955   3.482   7.360   3.086 -1.5036  0.1027 -0.4651
 1000MOL0     H31956   3.501   7.601   3.004 -2.9290 -2.7629 -1.0077
 1000MOL0     H31957   3.493   7.648   3.170 -0.0549  1.6988  0.2248
 1000MOL0     H31958   3.288   7.464   3.014  1.3565  1.4010 -1.5554
 1000MOL0     H31959   3.277   7.509   3.187  1.6746 -3.0068 -0.1001
 1000MOL0     H31960   3.248   7.755   3.000 -2.5155  2.1094  2.6584
 1000MOL0     H31961   3.210   7.708   3.169  0.7652 -0.6464  0.2313
 1000MOL0     H31962   3.063   7.902   3.128 -2.1480  3.2103  1.1505
 1000MOL0     H31963   2.859   8.022   3.094  0.4084  0.5970 -1.9214
 1000MOL0     H31964   2.518   8.156   2.835  1.9180 -2.9437  0.9009
 1000MOL0     H31965   2.319   8.264   2.783  1.2626  0.2499 -0.2182
 1000MOL0     H31966   1.948   8.052   2.872  0.5421 -1.8809 -0.8227
 1000MOL0     H31967   1.924   8.025   2.691 -4.4399  0.7246  0.2062
 1000MOL0     H31968   1.891   8.290   2.797 -1.3465  1.8759 -0.8230
 1000MOL0     H31969   1.755   8.184   2.837 -1.0677  2.6577 -0.0335
 1000MOL0     H31970   1.702   8.132   2.614  1.3676 -1.2982  1.1218
 1000MOL0     H31971   1.848   8.205   2.549 -0.1467 -1.8687 -0.4996
 1000MOL0     H31972   1.825   8.425   2.637 -0.3924  0.9782  0.9361
 1000MOL0     H31973   1.703   8.379   2.514 -0.2166  0.1833  1.1213
 1000MOL0     H31974   1.656   8.373   2.821 -0.4819 -3.7962 -0.3304
 1000MOL0     H31975   1.526   8.353   2.696 -0.4141  1.5283 -1.8033
 1000MOL0     H31976   1.637   8.604   2.627 -0.5663 -1.8304 -1.6896
 1000MOL0     H31977   1.686   8.595   2.782  1.3844 -1.6828 -1.8493
 1000MOL0     H31978   1.404   8.529   2.720  0.9285  0.3617 -1.6635
 1000MOL0     H31979   1.462   8.574   2.875  0.0336  1.8204  0.1817
 1000MOL0     H31980   1.364   8.780   2.769 -0.8666 -0.0317 -1.4137
 1000MOL0     H31981   1.445   8.760   2.620  0.6648 -2.7428 -0.4658
 1000MOL0     H31982   2.105   7.888   2.780 -1.3392  1.9740  1.7450
 1000MOL0     H31983   2.335   7.777   2.833 -0.8936 -0.1935  0.6697
 1000MOL0     H31984   2.692   7.678   2.902 -1.4176 -0.2574  1.4289
 1000MOL0     H31985   2.888   7.553   2.936  2.9737  1.8178 -3.2781
 1000MOL0     H31986   4.729   6.806   3.276 -1.0710  0.6057  0.3614
 1000MOL0     H31987   4.954   6.688   3.240 -1.8686  2.7981 -0.7079
 1000MOL0     H31988   5.276   6.473   2.962 -0.6669 -1.1709 -2.2784
 1000MOL0     H31989   5.478   6.337   2.945  0.9167 -1.0744  1.5944
 1000MOL0     H31990   5.465   5.919   3.075  1.8733  0.4051 -3.6306
 1000MOL0     H31991   5.527   6.000   3.220 -0.6229  0.5865  0.1377
 1000MOL0     H31992   5.750   6.013   3.077  1.5333 -2.1791 -1.7689
 1000MOL0     H31993   5.716   5.861   3.138  1.9306  1.4048  1.2577
 1000MOL0     H31994   5.668   5.966   2.843  2.4898  1.0835  0.8153
 1000MOL0     H31995   5.590   5.821   2.895 -2.0690  1.1593  4.1372
 1000MOL0     H31996   5.799   5.706   2.932 -0.8059 -0.3452 -1.1550
 1000MOL0     H31997   5.816   5.795   2.780 -1.9068  1.6494 -0.5284
 1000MOL0     H31998   6.114   5.987   3.000  0.8587 -0.8331 -1.5505
 1000MOL0     H31999   5.323   6.060   3.225  1.6529  0.8001  1.1379
 1000MOL0     H32000   5.140   6.209   3.280 -0.0926  0.2119  0.2312
 1001MOL0     O32001   8.585   8.790   9.144  0.2495  0.4243  0.0983
 1001MOL0     C32002   8.609   8.697   9.065  1.2805  0.9368 -0.3912
 1001MOL0     O32003   8.523   8.596   9.030  1.0937 -0.1928  0.5070
 1001MOL0     C32004   8.409   8.574   9.104 -0.5036  0.7626 -0.3345
 1001MOL0     C32005   8.294   8.594   9.035 -0.2397  0.5329 -1.3228
 1001MOL0     C32006   8.175   8.556   9.094 -0.5877  0.3587  0.8378
 1001MOL0     C32007   8.167   8.487   9.211  0.0854  1.2510  0.0418
 1001MOL0     O32008   8.051   8.431   9.262  0.5197  0.4779 -0.6113
 1001MOL0     C32009   8.010   8.435   9.402 -0.2398 -0.2051  0.6123
 1001MOL0     C32010   7.864   8.493   9.402 -0.8273  0.1723  0.3611
 1001MOL0     C32011   7.774   8.375   9.352 -0.1824 -0.0343 -0.0043
 1001MOL0     C32012   7.631   8.427   9.339 -0.2488 -0.6094 -0.6325
 1001MOL0     C32013   7.515   8.326   9.316 -0.4940 -0.0747 -0.2519
 1001MOL0     C32014   7.508   8.264   9.177  0.2529  0.7718  0.3554
 1001MOL0     C32015   7.458   8.363   9.072  0.7501  0.7463 -0.7440
 1001MOL0     C32016   7.449   8.306   8.935  0.2784 -0.0361  0.0854
 1001MOL0     N32017   7.568   8.248   8.881 -0.6262 -0.3283  0.2901
 1001MOL0     C32018   7.685   8.310   8.836  0.6784 -0.7045 -0.3569
 1001MOL0     C32019   7.777   8.213   8.823  0.2139  0.0251  0.4530
 1001MOL0     C32020   7.918   8.235   8.777 -0.6908  0.5134  0.8012
 1001MOL0     C32021   7.999   8.292   8.894 -0.1678  0.4575  0.7606
 1001MOL0     C32022   8.047   8.187   9.002  0.7663 -0.1907  0.0832
 1001MOL0     C32023   8.170   8.108   8.956  0.9197  0.2360  0.3455
 1001MOL0     O32024   8.275   8.185   8.898 -0.0566 -0.1159  0.5394
 1001MOL0     C32025   8.406   8.147   8.917 -0.4671  0.0293 -0.2481
 1001MOL0     C32026   8.490   8.247   8.918 -0.7226 -0.9199 -0.7409
 1001MOL0     C32027   8.629   8.230   8.929 -0.4434  1.0206 -0.1742
 1001MOL0     C32028   8.677   8.091   8.929 -0.1008 -0.0850 -1.4410
 1001MOL0     C32029   8.825   8.068   8.924  0.0958  0.6088  0.2258
 1001MOL0     O32030   8.861   7.934   8.936  0.1786 -0.1354 -0.2417
 1001MOL0     C32031   8.996   7.895   8.940  0.2792  0.3091 -0.4594
 1001MOL0     C32032   9.103   7.974   8.889  0.0913  0.4471  0.6759
 1001MOL0     C32033   9.235   7.925   8.879  0.6731  0.6973 -0.3512
 1001MOL0     C32034   9.268   7.807   8.935 -0.5812 -0.9514  0.8879
 1001MOL0     O32035   9.403   7.778   8.931 -0.4991 -0.0974 -0.5632
 1001MOL0     C32036   9.443   7.668   9.013 -0.8530 -0.7503 -0.7680
 1001MOL0     C32037   9.583   7.620   9.001  0.1655  0.0387 -0.1267
 1001MOL0     C32038   9.603   7.574   8.860  0.0145  1.4065  0.2631
 1001MOL0     C32039   9.603   7.420   8.844  0.3041 -0.3824 -0.2497
 1001MOL0     C32040   9.621   7.373   8.702  0.0108  0.2634 -0.1802
 1001MOL0     C32041   9.540   7.456   8.599  0.3925 -0.3724  0.5462
 1001MOL0     C32042   9.568   7.395   8.456 -0.5873  0.7881 -1.3681
 1001MOL0     C32043   9.527   7.491   8.346  0.5751 -0.0568  0.1069
 1001MOL0    Cl32044   9.353   7.542   8.370  0.1555  0.2675  0.3493
 1001MOL0     C32045   9.162   7.730   8.989 -0.3287  0.7385 -0.5341
 1001MOL0     C32046   9.031   7.768   8.989 -0.3629 -0.7247  0.3997
 1001MOL0     O32047   8.897   8.163   8.924 -0.4818 -0.0118  0.2399
 1001MOL0     C32048   8.586   7.978   8.922  0.2117  0.5691 -0.9388
 1001MOL0     C32049   8.449   8.009   8.912 -0.0378 -0.3692 -0.3971
 1001MOL0     N32050   7.719   8.099   8.862 -0.6608  0.8843 -1.8553
 1001MOL0     N32051   7.599   8.111   8.900  0.5640 -0.3766 -0.9035
 1001MOL0     C32052   8.283   8.459   9.279 -0.1267 -0.0990 -0.1069
 1001MOL0     C32053   8.412   8.496   9.225  1.1147 -1.2397  0.4542
 1001MOL0     C32054   8.737   8.703   8.991 -0.6564 -0.7398 -0.0895
 1001MOL0     C32055   8.804   8.828   8.985 -0.4783  0.5493 -0.7297
 1001MOL0     C32056   8.920   8.851   8.903  0.3579  0.0083  0.1822
 1001MOL0     C32057   8.972   8.745   8.828 -0.1364 -0.1534 -0.0148
 1001MOL0     O32058   9.084   8.770   8.751  0.0235 -0.7071  1.1713
 1001MOL0     C32059   9.132   8.666   8.669 -0.6808  0.0056  0.5304
 1001MOL0     C32060   9.239   8.717   8.581  0.0057  0.0445  0.1155
 1001MOL0     C32061   9.178   8.788   8.454 -0.3349  0.7592 -0.1141
 1001MOL0     C32062   9.267   8.900   8.407  0.7187 -0.3582 -0.0421
 1001MOL0     C32063   9.294   9.020   8.487  0.1748 -0.1047  0.0273
 1001MOL0     C32064   9.303   9.127   8.550 -0.3487  0.8235  0.8122
 1001MOL0     C32065   8.904   8.618   8.838  0.7780  0.7931 -0.1485
 1001MOL0     C32066   8.792   8.602   8.918  0.6153  0.5023  1.1035
 1001MOL0     H32067   8.301   8.635   8.935 -1.7998 -0.3873 -1.8453
 1001MOL0     H32068   8.081   8.572   9.042 -0.5273  1.6770  1.0987
 1001MOL0     H32069   8.080   8.494   9.461  0.2029 -3.6064  3.9340
 1001MOL0     H32070   8.020   8.338   9.452  0.9634  0.0045  0.7978
 1001MOL0     H32071   7.848   8.576   9.333 -2.1897  0.9732  1.5654
 1001MOL0     H32072   7.846   8.521   9.506 -0.2641 -3.6860  1.6637
 1001MOL0     H32073   7.769   8.306   9.437 -0.0593  1.8684  1.6372
 1001MOL0     H32074   7.806   8.339   9.254  4.2676  1.0170  0.8272
 1001MOL0     H32075   7.609   8.464   9.440 -1.2324  0.0592 -1.0702
 1001MOL0     H32076   7.618   8.510   9.269 -0.1553 -0.3127 -0.3041
 1001MOL0     H32077   7.415   8.372   9.322 -0.5253  0.5228 -3.6028
 1001MOL0     H32078   7.513   8.244   9.389  1.3030 -1.0822 -1.2596
 1001MOL0     H32079   7.439   8.180   9.187  1.0907  0.1993  1.4678
 1001MOL0     H32080   7.608   8.227   9.155  0.0732 -0.6698  1.8173
 1001MOL0     H32081   7.366   8.414   9.104  1.0477  1.2947 -0.7515
 1001MOL0     H32082   7.527   8.447   9.066  3.0485 -1.0089 -0.1454
 1001MOL0     H32083   7.418   8.378   8.859 -0.9743 -0.5455  0.0906
 1001MOL0     H32084   7.374   8.226   8.928  0.3041 -0.2703  2.0480
 1001MOL0     H32085   7.692   8.418   8.828 -3.7588 -0.2515 -0.3959
 1001MOL0     H32086   7.907   8.310   8.698 -1.8864 -0.6832 -0.1981
 1001MOL0     H32087   7.973   8.147   8.743 -1.7468 -0.3508  1.2645
 1001MOL0     H32088   7.936   8.360   8.952 -0.0943 -2.3612  4.4563
 1001MOL0     H32089   8.080   8.361   8.864 -0.3734  0.9363  1.2955
 1001MOL0     H32090   8.065   8.241   9.095 -0.4833 -0.6186  0.5939
 1001MOL0     H32091   7.971   8.115   9.034 -1.0957  2.0959  1.0609
 1001MOL0     H32092   8.134   8.035   8.882  3.0575 -1.3377  0.7634
 1001MOL0     H32093   8.214   8.046   9.035  0.8232 -0.3035 -0.0166
 1001MOL0     H32094   8.457   8.350   8.915 -1.4800 -1.1642 -0.9990
 1001MOL0     H32095   8.702   8.309   8.921  0.7425  0.0583  0.8135
 1001MOL0     H32096   9.091   8.070   8.838  0.5140 -0.8078 -1.9961
 1001MOL0     H32097   9.309   7.984   8.825 -0.4331  1.7477 -0.7580
 1001MOL0     H32098   9.381   7.581   8.990 -0.9664 -0.7822 -0.3366
 1001MOL0     H32099   9.421   7.705   9.113 -0.0832  1.5697 -1.3868
 1001MOL0     H32100   9.606   7.540   9.071 -1.2651 -2.1447 -2.0145
 1001MOL0     H32101   9.645   7.710   9.012 -0.4506  0.8121 -2.3824
 1001MOL0     H32102   9.700   7.611   8.825 -0.7406  3.2691  0.0232
 1001MOL0     H32103   9.530   7.625   8.796 -0.5248  1.0958  0.6217
 1001MOL0     H32104   9.685   7.378   8.903  1.5067  3.5272  1.2590
 1001MOL0     H32105   9.508   7.387   8.886 -0.9930  1.8114 -1.2449
 1001MOL0     H32106   9.607   7.265   8.693  1.4621  0.1547 -1.6363
 1001MOL0     H32107   9.727   7.393   8.683  0.7761 -1.7467  1.5597
 1001MOL0     H32108   9.572   7.559   8.585  3.0867 -1.5292 -4.0077
 1001MOL0     H32109   9.434   7.448   8.623  0.2452  0.2720  0.1382
 1001MOL0     H32110   9.676   7.380   8.452 -0.2245  2.0467  1.4402
 1001MOL0     H32111   9.530   7.295   8.437  0.0949  0.2210  0.1413
 1001MOL0     H32112   9.522   7.450   8.244 -1.1378  1.9628 -0.6995
 1001MOL0     H32113   9.589   7.580   8.360 -4.6738  3.8899  1.5412
 1001MOL0     H32114   9.170   7.626   9.016  1.6897  1.0696  0.3182
 1001MOL0     H32115   8.949   7.704   9.020 -0.3444  0.0203  2.0934
 1001MOL0     H32116   8.596   7.870   8.918 -1.5315  0.1505  2.4503
 1001MOL0     H32117   8.378   7.931   8.888 -0.7678  0.3959 -0.7615
 1001MOL0     H32118   8.286   8.387   9.360  0.7381 -2.6851 -2.2784
 1001MOL0     H32119   8.501   8.501   9.286  1.2932  0.2603  0.1300
 1001MOL0     H32120   8.762   8.915   9.035  0.9138  1.0102 -0.3184
 1001MOL0     H32121   8.960   8.951   8.893  1.9211 -0.6909 -1.0149
 1001MOL0     H32122   9.053   8.619   8.609  1.0250 -0.2905 -1.6012
 1001MOL0     H32123   9.173   8.584   8.728  1.4197 -3.5302 -4.9787
 1001MOL0     H32124   9.304   8.784   8.637 -1.0337  0.6360  0.6454
 1001MOL0     H32125   9.305   8.637   8.545  0.4004  0.1007  0.7031
 1001MOL0     H32126   9.089   8.837   8.494 -0.5360 -0.0514  0.4399
 1001MOL0     H32127   9.163   8.727   8.364  1.4924  1.6244 -1.0804
 1001MOL0     H32128   9.360   8.859   8.365  0.7811 -1.3628  1.0415
 1001MOL0     H32129   9.205   8.941   8.326 -1.4930 -2.8549  0.2361
 1001MOL0     H32130   9.282   9.218   8.603  0.8946  0.2068  2.4638
 1001MOL0     H32131   8.939   8.527   8.791 -0.7645  0.9905 -1.8053
 1001MOL0     H32132   8.743   8.505   8.912  0.3092  0.6747  0.7007
 1002MOL0     O32133   5.225   5.993   1.564  0.1337 -0.8094  0.8665
 1002MOL0     C32134   5.245   6.046   1.668 -0.0902  0.5630  0.2553
 1002MOL0     O32135   5.366   6.066   1.732  0.3173  0.1383  0.1745
 1002MOL0     C32136   5.479   6.015   1.669 -0.1540  0.7268  0.3221
 1002MOL0     C32137   5.596   6.088   1.705 -0.5899  0.5483 -0.5442
 1002MOL0     C32138   5.716   6.048   1.672 -0.7784  0.5343 -1.1315
 1002MOL0     C32139   5.740   5.949   1.572  0.6290  0.6241 -0.8989
 1002MOL0     O32140   5.864   5.905   1.530  0.0318 -0.0450  0.7226
 1002MOL0     C32141   5.972   5.982   1.574  0.0465  0.2153 -0.3674
 1002MOL0     C32142   6.103   5.939   1.493  0.3513  0.4775  0.2260
 1002MOL0     C32143   6.165   5.798   1.537  0.5527 -0.2098 -0.0120
 1002MOL0     C32144   6.278   5.745   1.454 -0.4343  0.3449 -0.1581
 1002MOL0     C32145   6.412   5.822   1.454  0.4648  0.5844 -0.0044
 1002MOL0     C32146   6.519   5.752   1.365 -0.3774  0.0542  0.7738
 1002MOL0     C32147   6.625   5.856   1.322  0.6006  0.5712 -0.0019
 1002MOL0     C32148   6.730   5.811   1.213  0.2511  0.7933 -0.2706
 1002MOL0     N32149   6.659   5.758   1.089  0.2564  0.1784  1.0798
 1002MOL0     C32150   6.568   5.833   1.020 -0.0963  0.4152  0.8839
 1002MOL0     C32151   6.497   5.745   0.945 -0.8075 -0.7933 -0.1116
 1002MOL0     C32152   6.384   5.768   0.854 -1.4817 -0.4600 -0.7209
 1002MOL0     C32153   6.245   5.737   0.903 -0.2283  0.1530 -0.0227
 1002MOL0     C32154   6.217   5.598   0.972 -0.3075 -0.2210  0.1565
 1002MOL0     C32155   6.273   5.549   1.096 -0.5988 -0.1096  0.2546
 1002MOL0     O32156   6.188   5.456   1.168  0.5726 -0.2878  0.1590
 1002MOL0     C32157   6.230   5.377   1.261 -0.3000  0.7579 -0.6321
 1002MOL0     C32158   6.159   5.255   1.292 -0.3116  0.1864  0.6068
 1002MOL0     C32159   6.216   5.157   1.377 -0.1151  0.0031  0.4759
 1002MOL0     C32160   6.347   5.175   1.436  0.6168  0.6420 -0.1483
 1002MOL0     C32161   6.410   5.071   1.520 -0.4114 -0.7675 -0.4339
 1002MOL0     O32162   6.505   5.106   1.612  0.1385 -0.1879  0.2518
 1002MOL0     C32163   6.562   5.008   1.690 -0.7214  0.1908  0.0240
 1002MOL0     C32164   6.698   4.987   1.685  0.7019  0.1881  0.3623
 1002MOL0     C32165   6.756   4.898   1.781 -0.0702 -0.7540 -0.4989
 1002MOL0     C32166   6.673   4.829   1.867  0.3893  0.7143 -0.7113
 1002MOL0     O32167   6.720   4.734   1.966  0.9717 -0.8788 -0.0627
 1002MOL0     C32168   6.813   4.639   1.919 -0.0037 -0.4273  0.8375
 1002MOL0     C32169   6.839   4.557   2.051 -0.2642  0.0295 -0.0013
 1002MOL0     C32170   6.958   4.623   2.130  0.8678 -0.1649 -0.1136
 1002MOL0     C32171   6.926   4.764   2.175 -0.5198 -0.6726  0.6887
 1002MOL0     C32172   7.027   4.807   2.279  0.2866 -0.0520  0.3169
 1002MOL0     C32173   6.978   4.916   2.377  0.0808  0.2373  1.1198
 1002MOL0     C32174   7.022   5.062   2.345 -0.5042 -0.3552 -0.2433
 1002MOL0     C32175   7.154   5.110   2.406 -0.4893 -0.2112  0.1564
 1002MOL0    Cl32176   7.143   5.100   2.581  0.0920  0.4446  0.0578
 1002MOL0     C32177   6.534   4.840   1.862 -0.4686 -0.9172  0.1732
 1002MOL0     C32178   6.480   4.932   1.773 -0.2408 -0.7087  0.0154
 1002MOL0     O32179   6.380   4.953   1.483  1.3137 -0.8801 -0.2251
 1002MOL0     C32180   6.412   5.299   1.415  0.9603 -0.4538 -0.3495
 1002MOL0     C32181   6.349   5.397   1.335  0.4944  0.7319  0.1460
 1002MOL0     N32182   6.564   5.621   0.962  0.1452  0.1664  0.4159
 1002MOL0     N32183   6.651   5.630   1.061  0.0935  0.0355  0.4390
 1002MOL0     C32184   5.629   5.873   1.541 -0.0596  0.3722 -0.1411
 1002MOL0     C32185   5.505   5.906   1.588  0.3356  0.1046 -0.4185
 1002MOL0     C32186   5.135   6.104   1.749  0.8536 -0.2575  0.8571
 1002MOL0     C32187   4.997   6.085   1.709  0.1248  0.8629 -1.3976
 1002MOL0     C32188   4.893   6.126   1.797 -0.0004  0.6610  0.6635
 1002MOL0     C32189   4.916   6.181   1.921 -0.4997 -0.0024  0.0019
 1002MOL0     O32190   4.807   6.188   2.000 -0.3855 -0.3342 -0.1947
 1002MOL0     C32191   4.821   6.246   2.131 -0.3834  0.3397  0.3659
 1002MOL0     C32192   4.688   6.317   2.148  0.3887 -0.4098  0.5163
 1002MOL0     C32193   4.691   6.415   2.274 -0.5042  0.5683  0.2514
 1002MOL0     C32194   4.555   6.466   2.327 -0.8243  0.2274 -0.4703
 1002MOL0     C32195   4.486   6.538   2.222 -0.5350  0.3673 -1.4056
 1002MOL0     C32196   4.429   6.602   2.140 -1.1681  0.2614  0.5002
 1002MOL0     C32197   5.050   6.203   1.951 -0.0288 -0.8176 -0.2419
 1002MOL0     C32198   5.157   6.172   1.869 -0.3552 -0.6481  0.7994
 1002MOL0     H32199   5.585   6.176   1.767  2.1317 -0.3672  1.4292
 1002MOL0     H32200   5.800   6.093   1.723 -1.8609  2.1032 -0.6834
 1002MOL0     H32201   5.979   5.962   1.681  0.9754 -1.5238 -0.7196
 1002MOL0     H32202   5.946   6.088   1.568 -3.2189 -0.2347  2.5664
 1002MOL0     H32203   6.181   6.013   1.513  2.5085 -1.5593 -0.3152
 1002MOL0     H32204   6.096   5.939   1.384  3.8760 -2.2961 -0.1679
 1002MOL0     H32205   6.088   5.720   1.542  2.2599 -1.9508 -0.0235
 1002MOL0     H32206   6.188   5.789   1.644 -0.4591 -4.7548  0.0213
 1002MOL0     H32207   6.304   5.642   1.483  0.4221 -0.0227 -2.0659
 1002MOL0     H32208   6.233   5.753   1.355 -0.0124 -0.7362 -0.4570
 1002MOL0     H32209   6.450   5.822   1.557  2.9243 -2.7561 -0.7528
 1002MOL0     H32210   6.391   5.923   1.417  0.1978  0.1079 -1.2093
 1002MOL0     H32211   6.474   5.714   1.272  1.0278  0.2422 -0.0087
 1002MOL0     H32212   6.561   5.671   1.425  3.4817  0.7480 -0.6926
 1002MOL0     H32213   6.582   5.941   1.269  1.5548  1.5280  0.7194
 1002MOL0     H32214   6.684   5.879   1.411 -1.6412 -1.5372  2.1957
 1002MOL0     H32215   6.785   5.734   1.267 -0.2978  0.7471  0.2303
 1002MOL0     H32216   6.789   5.900   1.186 -2.4410  3.0776  0.8647
 1002MOL0     H32217   6.560   5.942   1.025  0.0126  0.4137  1.0929
 1002MOL0     H32218   6.403   5.697   0.773  4.2355 -3.0395  2.3058
 1002MOL0     H32219   6.388   5.870   0.815 -0.2332 -1.3354 -3.0756
 1002MOL0     H32220   6.182   5.733   0.813 -1.7587  0.1854  1.0102
 1002MOL0     H32221   6.216   5.822   0.965  3.6057  0.4416  1.6048
 1002MOL0     H32222   6.108   5.593   0.977 -0.3558 -0.3640 -0.8262
 1002MOL0     H32223   6.249   5.532   0.891 -0.4129  3.5121 -3.2656
 1002MOL0     H32224   6.304   5.632   1.161 -1.8178  0.5372  0.0441
 1002MOL0     H32225   6.364   5.499   1.062  1.3568  4.5645 -2.3102
 1002MOL0     H32226   6.064   5.231   1.246 -0.3468 -1.6858  1.5628
 1002MOL0     H32227   6.183   5.054   1.379 -2.9084  0.8030  0.1686
 1002MOL0     H32228   6.748   5.055   1.616  0.0166  2.5846  2.1065
 1002MOL0     H32229   6.864   4.903   1.787  0.2378  0.5654 -4.4817
 1002MOL0     H32230   6.905   4.689   1.885 -1.3838  3.2412  1.9906
 1002MOL0     H32231   6.768   4.571   1.847 -3.6400  2.7175 -0.2041
 1002MOL0     H32232   6.876   4.459   2.019 -0.1483  0.0922 -0.0607
 1002MOL0     H32233   6.752   4.525   2.108  0.4740 -2.2263 -0.0592
 1002MOL0     H32234   7.051   4.616   2.073  0.7814 -1.9374 -0.0916
 1002MOL0     H32235   6.980   4.567   2.222 -0.4729  0.8862  0.8897
 1002MOL0     H32236   6.924   4.838   2.094 -0.3274 -0.4008  0.9301
 1002MOL0     H32237   6.829   4.772   2.226 -0.2500  1.3129  0.9596
 1002MOL0     H32238   7.122   4.838   2.235 -0.5634  1.5862 -0.4488
 1002MOL0     H32239   7.048   4.719   2.340 -0.7773 -2.1406 -2.1324
 1002MOL0     H32240   7.031   4.894   2.470  0.4856  0.3504  0.9189
 1002MOL0     H32241   6.872   4.901   2.396 -0.4396 -2.1932 -2.6143
 1002MOL0     H32242   7.039   5.074   2.237  2.9196  2.0244  0.4078
 1002MOL0     H32243   6.942   5.127   2.384  1.4074  0.2341  3.0354
 1002MOL0     H32244   7.186   5.211   2.381  2.9698 -0.8685  1.3980
 1002MOL0     H32245   7.227   5.038   2.367 -2.9552 -2.8953  0.1459
 1002MOL0     H32246   6.475   4.776   1.926 -0.2269 -0.5828  0.7444
 1002MOL0     H32247   6.372   4.942   1.770 -0.2339 -0.7426 -0.8275
 1002MOL0     H32248   6.506   5.326   1.462 -0.0352  0.1084  1.4083
 1002MOL0     H32249   6.394   5.495   1.323 -0.4658  1.6234  2.8913
 1002MOL0     H32250   5.653   5.782   1.488  2.1210  0.9227 -0.2057
 1002MOL0     H32251   5.419   5.845   1.561  0.4050 -0.1456 -0.0758
 1002MOL0     H32252   4.950   6.031   1.627  0.3625  1.6559 -2.0576
 1002MOL0     H32253   4.791   6.099   1.774  0.0541  2.4163 -2.0742
 1002MOL0     H32254   4.908   6.313   2.129 -1.0030  1.2086  1.3408
 1002MOL0     H32255   4.831   6.169   2.209 -3.1073  1.4673  2.0039
 1002MOL0     H32256   4.669   6.379   2.061 -1.6414 -0.6959  0.7194
 1002MOL0     H32257   4.605   6.247   2.161 -2.9965  2.7456 -2.2785
 1002MOL0     H32258   4.756   6.496   2.239  0.9413 -1.0045 -0.9176
 1002MOL0     H32259   4.732   6.363   2.361  0.1419 -0.7851 -0.8164
 1002MOL0     H32260   4.490   6.381   2.352  0.7770 -1.0117 -0.3832
 1002MOL0     H32261   4.579   6.532   2.410 -0.0092 -1.4166  0.6584
 1002MOL0     H32262   4.369   6.664   2.077 -1.2903 -0.2433  0.1091
 1002MOL0     H32263   5.075   6.251   2.044  0.5142  0.8130 -1.1838
 1002MOL0     H32264   5.259   6.195   1.899 -0.2323  0.5335 -0.4426
 1003MOL0     O32265   6.782   9.295   4.424 -0.1817  0.2108  0.0392
 1003MOL0     C32266   6.731   9.183   4.436  0.8178  0.0448  0.2384
 1003MOL0     O32267   6.618   9.158   4.520 -0.2371 -0.2154 -0.4592
 1003MOL0     C32268   6.579   9.238   4.618  1.2438  0.7344  0.9444
 1003MOL0     C32269   6.636   9.352   4.681  0.3163  0.7598 -0.7034
 1003MOL0     C32270   6.562   9.424   4.784  1.2618  0.0721  0.6242
 1003MOL0     C32271   6.432   9.380   4.814 -0.4636  0.6392 -0.2986
 1003MOL0     O32272   6.366   9.452   4.906  0.3719  0.5455 -0.1152
 1003MOL0     C32273   6.227   9.433   4.937 -0.2188 -1.1639 -0.0099
 1003MOL0     C32274   6.196   9.540   5.046 -0.8002  1.0904 -0.1284
 1003MOL0     C32275   6.045   9.515   5.084  0.5203  0.8787 -0.6323
 1003MOL0     C32276   5.999   9.628   5.176  0.1918 -0.2675  0.3870
 1003MOL0     C32277   5.870   9.584   5.253  0.0705  0.5239 -0.3297
 1003MOL0     C32278   5.743   9.614   5.179  0.5594 -0.1572 -0.0306
 1003MOL0     C32279   5.624   9.563   5.262 -0.8443  0.0841 -0.5722
 1003MOL0     C32280   5.490   9.592   5.195  0.2201 -0.3702  0.7930
 1003MOL0     N32281   5.384   9.571   5.280  0.0811 -0.8733 -0.8015
 1003MOL0     C32282   5.263   9.631   5.269  0.1649 -0.2071 -0.5273
 1003MOL0     C32283   5.190   9.576   5.366 -0.1112 -1.8580 -0.1575
 1003MOL0     C32284   5.046   9.594   5.397 -0.0867 -0.2966  0.6535
 1003MOL0     C32285   4.969   9.704   5.316 -0.5820  0.3299 -0.8566
 1003MOL0     C32286   4.831   9.712   5.397 -0.1861  0.7008  0.5804
 1003MOL0     C32287   4.738   9.807   5.314 -0.7107 -0.0681  0.2301
 1003MOL0     O32288   4.616   9.806   5.382  0.4803  0.3821 -0.2559
 1003MOL0     C32289   4.510   9.861   5.321 -1.1594  0.3878  0.4705
 1003MOL0     C32290   4.512   9.921   5.191  0.6072  0.6105  1.0116
 1003MOL0     C32291   4.396   9.983   5.146  0.4862  1.1347  0.0508
 1003MOL0     C32292   4.281  10.000   5.221 -0.5342  1.1573  0.2535
 1003MOL0     C32293   4.161  10.067   5.174 -0.0672 -0.1837 -0.2574
 1003MOL0     O32294   4.046  10.071   5.247  0.1409 -0.0037 -0.2895
 1003MOL0     C32295   3.943  10.144   5.188 -0.2665  0.2113 -0.4138
 1003MOL0     C32296   3.935  10.281   5.213  0.4966 -0.3574 -0.0097
 1003MOL0     C32297   3.831  10.348   5.154  0.2996  0.1898 -0.0385
 1003MOL0     C32298   3.737  10.290   5.067  0.3589  0.1319  0.0073
 1003MOL0     O32299   3.630  10.365   5.012  0.0147  0.2950  0.3304
 1003MOL0     C32300   3.571  10.315   4.894 -0.2849  0.0683  0.1111
 1003MOL0     C32301   3.448  10.409   4.849  0.0161 -0.0895 -0.4883
 1003MOL0     C32302   3.332  10.420   4.958 -0.2173 -0.4913  0.4073
 1003MOL0     C32303   3.209  10.507   4.916  0.1180 -0.1217 -0.0006
 1003MOL0     C32304   3.184  10.504   4.762 -0.1848 -0.1470  0.3492
 1003MOL0     C32305   3.066  10.584   4.726  0.3004 -0.8064 -0.5269
 1003MOL0     C32306   2.939  10.513   4.789 -0.4856 -0.8887  0.1574
 1003MOL0     C32307   2.821  10.556   4.701 -1.6155  0.0571  0.8619
 1003MOL0    Cl32308   2.812  10.479   4.535 -0.0781 -0.2304 -0.4082
 1003MOL0     C32309   3.755  10.151   5.031  0.0804  0.3268 -0.1647
 1003MOL0     C32310   3.852  10.085   5.103 -0.5212 -0.5955 -0.4012
 1003MOL0     O32311   4.176  10.117   5.059 -0.3273  0.0737  0.1271
 1003MOL0     C32312   4.278   9.937   5.347 -1.3564  1.1328 -0.2591
 1003MOL0     C32313   4.391   9.874   5.393  0.5760 -0.9904 -0.1238
 1003MOL0     N32314   5.262   9.479   5.435  0.6236  0.1975 -0.1596
 1003MOL0     N32315   5.372   9.471   5.373 -0.3961 -0.0603  0.0082
 1003MOL0     C32316   6.371   9.277   4.738 -0.5441  0.7281  0.2342
 1003MOL0     C32317   6.446   9.200   4.650 -0.4027 -0.6605  0.8110
 1003MOL0     C32318   6.784   9.069   4.367 -0.4314 -0.6938  0.1643
 1003MOL0     C32319   6.699   8.964   4.328  0.0938 -0.1532 -0.8083
 1003MOL0     C32320   6.763   8.847   4.287  0.6255  0.2453  1.5656
 1003MOL0     C32321   6.891   8.828   4.265 -1.3429 -0.3438 -0.2934
 1003MOL0     O32322   6.933   8.708   4.222  0.7238 -0.1673  0.5278
 1003MOL0     C32323   7.070   8.682   4.223 -0.6764  0.6665  0.0833
 1003MOL0     C32324   7.111   8.546   4.177  0.2619  0.0885 -0.0786
 1003MOL0     C32325   7.092   8.435   4.288 -0.3203  0.3252 -0.4808
 1003MOL0     C32326   7.123   8.291   4.243  0.3698  0.8679 -0.3753
 1003MOL0     C32327   7.013   8.264   4.145 -0.0379 -0.9482 -0.3050
 1003MOL0     C32328   6.923   8.247   4.064  0.0974 -0.0951  1.0056
 1003MOL0     C32329   6.983   8.934   4.302  1.0151 -0.2267  0.7003
 1003MOL0     C32330   6.928   9.056   4.353  1.1009 -0.5205  0.4415
 1003MOL0     H32331   6.737   9.378   4.652 -0.0079  0.9197 -1.7051
 1003MOL0     H32332   6.604   9.513   4.829  1.7214  0.8637 -1.2582
 1003MOL0     H32333   6.206   9.333   4.977  1.6620 -1.5864  0.0011
 1003MOL0     H32334   6.166   9.455   4.849  0.6436 -2.0033 -0.8387
 1003MOL0     H32335   6.200   9.635   4.991 -3.9051 -0.5174 -3.5657
 1003MOL0     H32336   6.249   9.539   5.142 -0.9030  2.1892 -0.0381
 1003MOL0     H32337   6.030   9.416   5.128  1.7524  0.0478 -1.9971
 1003MOL0     H32338   5.989   9.510   4.991  1.1960  2.3526 -1.1449
 1003MOL0     H32339   6.077   9.638   5.253  0.1970  1.7978  0.1669
 1003MOL0     H32340   6.004   9.726   5.128  2.4508 -1.8544 -3.0309
 1003MOL0     H32341   5.868   9.641   5.346 -1.3528 -0.8756  0.5654
 1003MOL0     H32342   5.871   9.476   5.272  1.0121  0.8073  1.5031
 1003MOL0     H32343   5.740   9.562   5.082  0.9435 -0.5799  0.1797
 1003MOL0     H32344   5.733   9.722   5.170 -1.4304 -0.2154  1.0401
 1003MOL0     H32345   5.636   9.459   5.292 -0.1908  0.6621  1.3324
 1003MOL0     H32346   5.631   9.629   5.349  2.0775  1.3051 -1.5954
 1003MOL0     H32347   5.477   9.527   5.108  0.3564  0.0697  0.4336
 1003MOL0     H32348   5.494   9.699   5.168 -1.8982 -0.0487  1.5802
 1003MOL0     H32349   5.232   9.702   5.192 -2.8397  0.1621  0.9230
 1003MOL0     H32350   5.046   9.619   5.503 -0.8610  0.9829  0.3709
 1003MOL0     H32351   4.991   9.503   5.371  1.9623 -1.0325 -1.5292
 1003MOL0     H32352   4.969   9.677   5.210  0.2058 -0.6468 -0.6247
 1003MOL0     H32353   5.022   9.800   5.320  1.4568 -0.7653  1.3321
 1003MOL0     H32354   4.791   9.611   5.408  1.2560  0.1942  1.4806
 1003MOL0     H32355   4.839   9.757   5.496 -1.4555 -0.6509  1.3388
 1003MOL0     H32356   4.727   9.761   5.216 -1.5585 -3.6041  1.8252
 1003MOL0     H32357   4.768   9.912   5.306 -2.2723  0.4153  0.3805
 1003MOL0     H32358   4.592   9.925   5.117 -1.5210  1.7670 -1.3973
 1003MOL0     H32359   4.386  10.020   5.044 -1.7903 -0.5815 -0.4207
 1003MOL0     H32360   4.017  10.324   5.270  0.1131 -0.7926  0.8911
 1003MOL0     H32361   3.814  10.449   5.189 -0.8566  0.2015 -0.5979
 1003MOL0     H32362   3.520  10.220   4.908 -2.8121  1.2442 -0.4524
 1003MOL0     H32363   3.634  10.315   4.805  0.8195  1.0991  0.8693
 1003MOL0     H32364   3.414  10.357   4.759 -0.4164  0.1774 -0.4824
 1003MOL0     H32365   3.479  10.510   4.821  4.5943 -1.7964 -2.5495
 1003MOL0     H32366   3.370  10.467   5.049  0.8581  1.1362 -0.8046
 1003MOL0     H32367   3.298  10.321   4.989 -0.7340 -0.3086  0.4256
 1003MOL0     H32368   3.122  10.492   4.981  0.6196  0.1436  0.7414
 1003MOL0     H32369   3.247  10.606   4.942  0.6084 -0.6974  1.5894
 1003MOL0     H32370   3.176  10.402   4.723  1.9531 -0.6777  1.1263
 1003MOL0     H32371   3.276  10.541   4.715  1.2571 -5.4008 -1.6896
 1003MOL0     H32372   3.048  10.587   4.618 -1.9886 -1.1161 -0.2118
 1003MOL0     H32373   3.077  10.687   4.761 -0.8755 -1.1340  0.9128
 1003MOL0     H32374   2.954  10.405   4.792  0.9647 -0.7803 -1.8088
 1003MOL0     H32375   2.924  10.535   4.896  3.9242 -3.3178  1.5246
 1003MOL0     H32376   2.810  10.664   4.709 -0.8223  0.0900  1.6259
 1003MOL0     H32377   2.738  10.517   4.760 -0.5870 -2.0200  1.0509
 1003MOL0     H32378   3.682  10.097   4.971  0.1286  1.1189 -0.9529
 1003MOL0     H32379   3.865   9.978   5.087  1.7778 -0.2322 -1.2739
 1003MOL0     H32380   4.191   9.954   5.409 -1.0848 -0.6858  0.7034
 1003MOL0     H32381   4.384   9.840   5.496  0.9893 -2.3134 -0.5122
 1003MOL0     H32382   6.270   9.245   4.756 -1.5984  2.4482 -2.0435
 1003MOL0     H32383   6.415   9.112   4.596  1.5468 -0.6127 -0.4938
 1003MOL0     H32384   6.591   8.976   4.330  0.1677  0.4096  0.6159
 1003MOL0     H32385   6.701   8.763   4.257  1.3974 -0.5035  2.0225
 1003MOL0     H32386   7.113   8.689   4.324 -1.1144  2.7748  0.1688
 1003MOL0     H32387   7.120   8.757   4.161 -1.0679  1.0124  0.1876
 1003MOL0     H32388   7.048   8.542   4.088  0.3614  3.0894 -0.3783
 1003MOL0     H32389   7.217   8.553   4.147  0.0501  0.8463 -0.6801
 1003MOL0     H32390   6.992   8.437   4.330  0.0266  2.1516  0.3666
 1003MOL0     H32391   7.154   8.474   4.369 -0.7270  2.1633 -1.0169
 1003MOL0     H32392   7.223   8.289   4.200  0.3747  0.6086 -0.3514
 1003MOL0     H32393   7.117   8.218   4.324 -1.1783  0.1177 -1.1262
 1003MOL0     H32394   6.838   8.219   4.006  0.3511 -2.5797  1.7015
 1003MOL0     H32395   7.090   8.921   4.290  1.0556 -0.4441  1.2959
 1003MOL0     H32396   7.003   9.127   4.387  2.3650 -1.2775 -0.6208
 1004MOL0     O32397   9.353   3.228   6.969 -0.1197  0.2129 -0.3172
 1004MOL0     C32398   9.291   3.313   7.031 -0.5968 -0.2352  0.3465
 1004MOL0     O32399   9.323   3.354   7.157  0.2851  0.1644  0.3511
 1004MOL0     C32400   9.413   3.270   7.229  1.4228 -0.2010 -0.1942
 1004MOL0     C32401   9.540   3.270   7.197  1.3812  0.3723  1.1223
 1004MOL0     C32402   9.632   3.203   7.274  1.1708  0.9268  0.8167
 1004MOL0     C32403   9.589   3.117   7.376  0.3092  0.6719 -0.1851
 1004MOL0     O32404   9.689   3.056   7.442 -0.3407 -0.0223 -0.0538
 1004MOL0     C32405   9.672   3.033   7.580  0.6996  0.2801 -0.3781
 1004MOL0     C32406   9.701   2.888   7.604 -0.8407  0.5988 -0.3634
 1004MOL0     C32407   9.609   2.787   7.529  0.1871  0.2977  0.2444
 1004MOL0     C32408   9.655   2.639   7.535 -0.1298 -0.0404  0.7515
 1004MOL0     C32409   9.554   2.548   7.462  0.2217  0.1989  0.4520
 1004MOL0     C32410   9.418   2.541   7.531  1.2817  0.2632  0.0467
 1004MOL0     C32411   9.413   2.547   7.684  0.2508  0.5453 -0.6054
 1004MOL0     C32412   9.263   2.558   7.716  0.1692 -0.7599  0.8472
 1004MOL0     N32413   9.222   2.702   7.735 -0.4388  0.4420  0.0578
 1004MOL0     C32414   9.290   2.792   7.825  0.3233  0.9553  0.1585
 1004MOL0     C32415   9.215   2.905   7.813  1.0356  0.5634  0.0162
 1004MOL0     C32416   9.256   3.040   7.870 -0.1621 -0.5061  0.0601
 1004MOL0     C32417   9.385   3.084   7.804  0.1841 -0.1151 -0.3678
 1004MOL0     C32418   9.443   3.210   7.865  0.5565 -0.4513 -0.7374
 1004MOL0     C32419   9.497   3.186   8.011  0.7161 -0.2745  0.4191
 1004MOL0     O32420   9.609   3.273   8.030 -0.1174 -0.1969 -0.2220
 1004MOL0     C32421   9.580   3.389   8.099 -0.1378  0.6932  0.7018
 1004MOL0     C32422   9.465   3.467   8.086  0.6474 -0.3563  0.0871
 1004MOL0     C32423   9.454   3.588   8.152  0.7479 -0.5224 -0.1738
 1004MOL0     C32424   9.560   3.636   8.230  0.1144 -0.0738  0.7958
 1004MOL0     C32425   9.543   3.765   8.308  0.4101 -0.6040  0.3618
 1004MOL0     O32426   9.419   3.821   8.316 -0.8903  0.4561 -0.3570
 1004MOL0     C32427   9.412   3.952   8.359 -0.0986  0.3881 -0.5087
 1004MOL0     C32428   9.400   4.058   8.265 -0.0047  0.5837  0.1442
 1004MOL0     C32429   9.384   4.198   8.297 -0.1592  0.2454 -0.1107
 1004MOL0     C32430   9.372   4.230   8.436 -0.9891 -0.7186 -0.2408
 1004MOL0     O32431   9.342   4.358   8.460 -0.0081 -0.2881  0.8100
 1004MOL0     C32432   9.301   4.386   8.593  0.2851 -0.0449 -0.4358
 1004MOL0     C32433   9.283   4.540   8.590 -0.6039 -0.0508  0.1240
 1004MOL0     C32434   9.223   4.583   8.717  0.5708 -0.1812 -0.8866
 1004MOL0     C32435   9.069   4.547   8.732  0.3649 -0.0216 -0.7349
 1004MOL0     C32436   8.996   4.651   8.805  0.5357 -0.3365 -0.2595
 1004MOL0     C32437   8.841   4.636   8.796  0.4514  0.8699  0.3745
 1004MOL0     C32438   8.758   4.736   8.879 -0.2359  0.1621  0.2522
 1004MOL0     C32439   8.743   4.692   9.029 -0.3071 -0.0167 -0.8466
 1004MOL0    Cl32440   8.590   4.760   9.097 -0.6712  0.4479  0.0957
 1004MOL0     C32441   9.405   4.138   8.532 -0.8579  0.1602 -0.9922
 1004MOL0     C32442   9.429   4.000   8.494 -0.4019 -0.1955  0.2048
 1004MOL0     O32443   9.645   3.810   8.354  0.4892 -0.2311  0.1938
 1004MOL0     C32444   9.681   3.562   8.234  0.2924 -0.5609  0.3493
 1004MOL0     C32445   9.685   3.446   8.162  0.3037 -0.2484 -0.1619
 1004MOL0     N32446   9.099   2.883   7.733  0.0441 -0.5171 -0.3694
 1004MOL0     N32447   9.110   2.763   7.699  0.5272 -0.0647  0.0612
 1004MOL0     C32448   9.451   3.105   7.396  0.5525  0.3930  0.2585
 1004MOL0     C32449   9.357   3.183   7.333  0.5444  0.0451 -0.5014
 1004MOL0     C32450   9.201   3.393   6.953 -0.3829  1.6533 -0.0844
 1004MOL0     C32451   9.132   3.505   7.012  0.7974 -0.1208  0.4080
 1004MOL0     C32452   9.052   3.586   6.931  0.0310 -0.2354  0.1770
 1004MOL0     C32453   9.030   3.553   6.800  0.2568  0.1272  0.6149
 1004MOL0     O32454   8.952   3.637   6.732  0.7766 -0.4278  0.7882
 1004MOL0     C32455   8.854   3.597   6.638 -0.3841 -0.3834  0.8891
 1004MOL0     C32456   8.711   3.639   6.681 -1.6713  0.8219 -0.3870
 1004MOL0     C32457   8.702   3.788   6.676 -0.6250 -0.5528  0.3718
 1004MOL0     C32458   8.588   3.843   6.758 -0.5502  0.2792  0.0853
 1004MOL0     C32459   8.600   3.836   6.903 -1.7958  0.7965  0.4217
 1004MOL0     C32460   8.626   3.825   7.022  0.8093 -1.0559 -0.0867
 1004MOL0     C32461   9.088   3.443   6.749 -0.3076 -0.5514 -0.1191
 1004MOL0     C32462   9.181   3.364   6.814 -0.0865  0.3182  0.5464
 1004MOL0     H32463   9.579   3.334   7.118  0.2285 -0.1082  0.1175
 1004MOL0     H32464   9.735   3.210   7.242  1.5362 -0.7364  1.5248
 1004MOL0     H32465   9.570   3.061   7.606 -0.9532 -2.3368 -3.4129
 1004MOL0     H32466   9.740   3.102   7.633 -0.8523  1.7069 -0.1713
 1004MOL0     H32467   9.699   2.875   7.713 -2.0967  0.8769 -0.3370
 1004MOL0     H32468   9.805   2.871   7.574 -0.5847  0.4103  0.6091
 1004MOL0     H32469   9.615   2.808   7.422  0.6225 -2.4268 -0.3257
 1004MOL0     H32470   9.505   2.797   7.559  0.3757 -0.4343  1.1811
 1004MOL0     H32471   9.746   2.635   7.475  0.1972 -0.1995  1.2444
 1004MOL0     H32472   9.667   2.599   7.636 -0.2748 -0.8913  0.4410
 1004MOL0     H32473   9.601   2.449   7.451 -1.2264 -0.4732  0.0951
 1004MOL0     H32474   9.536   2.584   7.361 -0.9368 -2.2173 -0.2686
 1004MOL0     H32475   9.363   2.453   7.494 -0.3903  0.1367  2.6011
 1004MOL0     H32476   9.359   2.625   7.494  1.7988  0.6801  0.1575
 1004MOL0     H32477   9.465   2.465   7.735 -0.6342  1.5729  2.1419
 1004MOL0     H32478   9.456   2.644   7.710 -1.4276  1.3730 -0.7536
 1004MOL0     H32479   9.234   2.507   7.809 -3.7471  0.3382  0.3842
 1004MOL0     H32480   9.193   2.517   7.643 -0.8179  2.5160 -0.2194
 1004MOL0     H32481   9.376   2.773   7.888  0.3631 -0.2519 -0.2264
 1004MOL0     H32482   9.262   3.002   7.972 -0.3857 -1.1583 -0.1663
 1004MOL0     H32483   9.175   3.113   7.858 -0.6027 -1.1110 -0.7511
 1004MOL0     H32484   9.362   3.105   7.699 -1.0096 -4.0058 -1.0744
 1004MOL0     H32485   9.457   3.002   7.802 -0.5789 -0.8352  0.5150
 1004MOL0     H32486   9.522   3.255   7.804  1.7920  1.4505  2.0469
 1004MOL0     H32487   9.356   3.275   7.877 -1.0094 -2.4808 -0.5422
 1004MOL0     H32488   9.533   3.089   8.045  1.5260  0.4392  1.6452
 1004MOL0     H32489   9.408   3.220   8.066  0.2228 -1.2128  0.2229
 1004MOL0     H32490   9.377   3.436   8.031  0.4128  2.9338 -1.5954
 1004MOL0     H32491   9.361   3.643   8.154  0.9629 -0.0992 -1.4204
 1004MOL0     H32492   9.380   4.036   8.161 -1.2193  0.3736  0.4100
 1004MOL0     H32493   9.364   4.278   8.227 -1.5709  1.0229  1.1098
 1004MOL0     H32494   9.378   4.369   8.669 -1.0301  0.5441  1.1021
 1004MOL0     H32495   9.203   4.344   8.617  0.1232  0.2120 -0.6500
 1004MOL0     H32496   9.235   4.577   8.500  3.4757 -1.5504 -2.9852
 1004MOL0     H32497   9.381   4.588   8.585 -0.9847  0.6006 -1.9588
 1004MOL0     H32498   9.232   4.691   8.727 -1.5382 -0.1204  1.4977
 1004MOL0     H32499   9.281   4.537   8.798 -0.4725 -1.0758 -0.6177
 1004MOL0     H32500   9.019   4.539   8.635 -0.3141  0.4406 -0.4305
 1004MOL0     H32501   9.078   4.451   8.783  0.9826  0.6060  0.3796
 1004MOL0     H32502   9.017   4.753   8.771  0.1884 -0.0730  0.3141
 1004MOL0     H32503   9.027   4.646   8.909  0.0608 -0.2970 -0.1130
 1004MOL0     H32504   8.811   4.531   8.807 -0.0141  0.6848 -2.1419
 1004MOL0     H32505   8.821   4.671   8.694  1.5037  0.1292 -0.1030
 1004MOL0     H32506   8.802   4.836   8.871 -0.9043  0.3962 -0.5829
 1004MOL0     H32507   8.657   4.741   8.839  0.2937 -1.3355 -1.4283
 1004MOL0     H32508   8.825   4.727   9.092 -0.3040 -0.5997 -0.5221
 1004MOL0     H32509   8.737   4.583   9.036 -1.2699 -0.0243 -1.5589
 1004MOL0     H32510   9.411   4.158   8.639 -0.2951  0.1006 -1.0113
 1004MOL0     H32511   9.442   3.925   8.571 -0.7083  2.1043  2.6104
 1004MOL0     H32512   9.769   3.584   8.293  2.2603 -4.6995 -0.6897
 1004MOL0     H32513   9.782   3.396   8.164  1.0959  1.2557  0.2995
 1004MOL0     H32514   9.415   3.026   7.460  0.1971  0.0665 -0.3354
 1004MOL0     H32515   9.250   3.172   7.342  0.8373 -2.1248  1.2830
 1004MOL0     H32516   9.147   3.532   7.116  1.3016  0.3642  0.2178
 1004MOL0     H32517   8.994   3.666   6.977  2.3684  0.0670  2.9616
 1004MOL0     H32518   8.856   3.488   6.626  1.4047 -0.1459 -1.9780
 1004MOL0     H32519   8.881   3.641   6.542  2.5257 -1.8880  0.9042
 1004MOL0     H32520   8.639   3.606   6.606  1.5023 -1.5684 -2.6725
 1004MOL0     H32521   8.695   3.594   6.780 -0.2523 -2.7406 -1.6104
 1004MOL0     H32522   8.696   3.817   6.571 -1.5346 -1.2361  0.2238
 1004MOL0     H32523   8.797   3.820   6.720 -0.6587 -1.3632  1.0629
 1004MOL0     H32524   8.585   3.950   6.737 -0.6735 -0.3320 -3.7865
 1004MOL0     H32525   8.497   3.795   6.722  0.3526  0.0154 -2.0059
 1004MOL0     H32526   8.649   3.835   7.126  0.5785  1.3786 -0.2262
 1004MOL0     H32527   9.060   3.427   6.645  2.4406  2.0199 -1.4180
 1004MOL0     H32528   9.224   3.279   6.763  3.7354  2.0302  0.5918
 1005MOL0     O32529   8.111   4.399   1.316  0.2044  0.7575 -0.7348
 1005MOL0     C32530   8.147   4.416   1.199 -0.8440 -0.1167  0.0283
 1005MOL0     O32531   8.071   4.390   1.081  0.4375 -0.0995  0.4268
 1005MOL0     C32532   7.965   4.309   1.079  0.6834  0.4553  0.5988
 1005MOL0     C32533   7.943   4.202   1.167  0.5992  0.5764  0.6937
 1005MOL0     C32534   7.815   4.154   1.178  0.5646  0.3286  0.3746
 1005MOL0     C32535   7.713   4.186   1.085  0.1144 -0.3266  0.8347
 1005MOL0     O32536   7.589   4.126   1.067 -0.4681 -0.4555 -0.0921
 1005MOL0     C32537   7.557   4.016   1.136 -0.1796  0.3243  0.0510
 1005MOL0     C32538   7.467   3.924   1.055 -0.6925  0.0528  0.2811
 1005MOL0     C32539   7.321   3.973   1.062  0.5279  0.8439  0.9376
 1005MOL0     C32540   7.242   3.861   1.000 -0.1993  0.2215  0.2926
 1005MOL0     C32541   7.092   3.875   1.016 -0.3429 -0.4612  0.0314
 1005MOL0     C32542   7.024   3.832   0.885  0.1932  0.1362  0.5794
 1005MOL0     C32543   7.035   3.680   0.850  0.0397 -0.0746  1.1776
 1005MOL0     C32544   6.946   3.597   0.935  0.0944 -0.2068  0.3049
 1005MOL0     N32545   6.894   3.484   0.857  0.1349  0.3088  0.1825
 1005MOL0     C32546   6.955   3.364   0.830 -0.6861  0.2985  1.4435
 1005MOL0     C32547   6.863   3.282   0.780 -0.4573  0.7196  0.0786
 1005MOL0     C32548   6.902   3.153   0.720  0.3829  0.2402  0.1440
 1005MOL0     C32549   6.954   3.156   0.576  0.8601 -0.2044 -0.2041
 1005MOL0     C32550   6.887   3.257   0.481 -0.3534 -0.4853  0.8411
 1005MOL0     C32551   6.734   3.224   0.469  0.7479 -0.4403 -1.4177
 1005MOL0     O32552   6.677   3.336   0.406 -0.0750  0.2586 -0.9058
 1005MOL0     C32553   6.542   3.324   0.379 -0.4234  0.1989 -0.1460
 1005MOL0     C32554   6.504   3.228   0.287 -0.0284 -0.0809 -0.2806
 1005MOL0     C32555   6.372   3.208   0.253 -0.6307 -0.3051  0.0242
 1005MOL0     C32556   6.271   3.284   0.308  0.2856  0.6448 -0.3264
 1005MOL0     C32557   6.133   3.273   0.268  0.4791 -0.0685 -0.4902
 1005MOL0     O32558   6.084   3.161   0.201  0.1712  0.4157 -0.0308
 1005MOL0     C32559   5.979   3.159   0.118  0.3515 -0.1529  0.4271
 1005MOL0     C32560   5.907   3.041   0.109  0.6722  0.5634  0.0587
 1005MOL0     C32561   5.784   3.029   0.042 -1.4159  0.2054  0.0822
 1005MOL0     C32562   5.733   3.140  -0.020 -0.7096 -0.0623 -0.6396
 1005MOL0     O32563   5.600   3.127  -0.055  0.2336  0.0336  0.1668
 1005MOL0     C32564   5.571   3.171  -0.187  0.1866  0.4071  0.8620
 1005MOL0     C32565   5.430   3.131  -0.231 -0.2782  0.7372 -0.4750
 1005MOL0     C32566   5.396   3.168  -0.376 -0.7341  0.2152  0.6176
 1005MOL0     C32567   5.262   3.105  -0.419 -0.9829 -0.4858  0.3046
 1005MOL0     C32568   5.252   3.137  -0.572 -0.2118 -0.2316  0.1831
 1005MOL0     C32569   5.111   3.103  -0.618 -0.6718  0.9249 -0.0293
 1005MOL0     C32570   5.081   3.173  -0.758 -0.0814 -0.0272  0.0644
 1005MOL0     C32571   4.968   3.106  -0.826 -0.4419 -0.0748 -0.7132
 1005MOL0    Cl32572   4.878   3.227  -0.931  0.0403 -0.0166  0.0944
 1005MOL0     C32573   5.810   3.260  -0.033  0.3850  0.2559  0.7410
 1005MOL0     C32574   5.937   3.266   0.038  0.7892  0.6507  0.6938
 1005MOL0     O32575   6.063   3.373   0.289  0.5151  0.7535 -0.3057
 1005MOL0     C32576   6.307   3.382   0.404  0.4050 -0.3115 -0.1327
 1005MOL0     C32577   6.439   3.393   0.447  1.0381 -1.0300 -0.3532
 1005MOL0     N32578   6.753   3.363   0.759 -0.3707  0.1123  0.1165
 1005MOL0     N32579   6.769   3.481   0.807  0.1007 -0.6318 -0.1399
 1005MOL0     C32580   7.744   4.275   0.985  0.2425  0.2511 -0.4303
 1005MOL0     C32581   7.865   4.338   0.987  0.0895  0.0701  0.4093
 1005MOL0     C32582   8.284   4.476   1.183  0.7502  0.2028 -0.2626
 1005MOL0     C32583   8.336   4.510   1.052 -0.2160 -0.3108 -0.0741
 1005MOL0     C32584   8.474   4.545   1.026  0.2603  0.5346 -0.0504
 1005MOL0     C32585   8.559   4.568   1.135  1.6173 -0.5433 -0.2433
 1005MOL0     O32586   8.677   4.637   1.133  0.3139  0.9687 -0.4285
 1005MOL0     C32587   8.723   4.704   1.020  0.0891 -0.6657  0.2485
 1005MOL0     C32588   8.806   4.599   0.946 -0.4259 -0.2583  0.1656
 1005MOL0     C32589   8.933   4.555   1.018 -0.1470  1.1223 -0.0466
 1005MOL0     C32590   9.048   4.531   0.912 -0.5008 -0.5218  0.8913
 1005MOL0     C32591   9.170   4.503   0.988 -0.0426  0.0928  0.5069
 1005MOL0     C32592   9.260   4.483   1.066  0.6559 -1.0899 -0.8460
 1005MOL0     C32593   8.511   4.549   1.267 -0.1282  0.4655  0.3029
 1005MOL0     C32594   8.373   4.501   1.292 -0.1452  0.0747  0.0367
 1005MOL0     H32595   8.019   4.169   1.237  2.4933 -3.1525 -2.6993
 1005MOL0     H32596   7.793   4.084   1.258  0.9787  0.7334  0.8488
 1005MOL0     H32597   7.513   4.043   1.232 -1.2065 -0.9287 -0.0358
 1005MOL0     H32598   7.651   3.963   1.154  1.8552  2.8832 -2.2219
 1005MOL0     H32599   7.493   3.819   1.076  1.7981 -0.0828 -2.7919
 1005MOL0     H32600   7.490   3.932   0.949 -2.3889  1.7134 -0.0144
 1005MOL0     H32601   7.315   4.072   1.016  1.6850 -0.0599 -1.2897
 1005MOL0     H32602   7.285   3.979   1.165  0.6073 -1.2702  1.1236
 1005MOL0     H32603   7.271   3.847   0.895  0.4227 -2.3303  0.7211
 1005MOL0     H32604   7.273   3.766   1.046 -0.6221  0.7887  1.8138
 1005MOL0     H32605   7.069   3.976   1.049 -0.2510  0.0558 -1.4113
 1005MOL0     H32606   7.063   3.804   1.095 -2.3050 -3.3803 -3.0111
 1005MOL0     H32607   7.085   3.882   0.809 -0.7549  0.5001  0.0387
 1005MOL0     H32608   6.921   3.867   0.879  0.0278 -0.4570 -0.2425
 1005MOL0     H32609   7.018   3.659   0.744  5.8294 -2.6866  0.3234
 1005MOL0     H32610   7.139   3.652   0.871  0.6236  0.3384 -0.9697
 1005MOL0     H32611   6.867   3.668   0.960 -0.2930 -1.4138  2.7650
 1005MOL0     H32612   6.990   3.557   1.027 -2.9752 -0.8971  1.5759
 1005MOL0     H32613   7.059   3.338   0.849 -0.0295  2.0618  0.4616
 1005MOL0     H32614   6.812   3.091   0.719  0.1294  0.5705 -1.4480
 1005MOL0     H32615   6.977   3.115   0.790  0.3210 -1.9094 -0.8760
 1005MOL0     H32616   6.952   3.053   0.538  0.9308 -1.9733  3.9676
 1005MOL0     H32617   7.057   3.191   0.588  0.6153  0.8179 -0.9317
 1005MOL0     H32618   6.905   3.360   0.515 -1.4073  0.1746 -0.4853
 1005MOL0     H32619   6.934   3.244   0.383  0.1089  2.8458  0.5140
 1005MOL0     H32620   6.698   3.204   0.570  1.1739  0.9989 -0.9546
 1005MOL0     H32621   6.705   3.134   0.414 -0.9384 -2.1106  1.9406
 1005MOL0     H32622   6.570   3.153   0.244  0.3542 -0.1681  0.4457
 1005MOL0     H32623   6.355   3.131   0.179 -0.5177 -0.2081 -0.1040
 1005MOL0     H32624   5.941   2.949   0.155 -0.0045  0.0122 -0.5313
 1005MOL0     H32625   5.737   2.932   0.046  1.5792 -1.4632 -1.5877
 1005MOL0     H32626   5.631   3.112  -0.257 -0.9017  1.6865 -1.2339
 1005MOL0     H32627   5.592   3.278  -0.193 -0.8822  0.6006  0.3277
 1005MOL0     H32628   5.353   3.161  -0.160  0.9728 -2.4229  2.4667
 1005MOL0     H32629   5.428   3.022  -0.236 -0.5854  0.7562 -4.6233
 1005MOL0     H32630   5.479   3.137  -0.441  1.7023  4.7957  1.1362
 1005MOL0     H32631   5.387   3.276  -0.387 -0.4965  0.2429  0.6946
 1005MOL0     H32632   5.269   2.996  -0.425  1.6680 -0.3278 -0.7136
 1005MOL0     H32633   5.178   3.151  -0.365 -1.2890  1.2908 -1.5530
 1005MOL0     H32634   5.337   3.096  -0.626 -0.4661 -1.0116  0.3585
 1005MOL0     H32635   5.262   3.246  -0.561  1.8443 -0.5870  2.8612
 1005MOL0     H32636   5.040   3.131  -0.540  1.9779  1.2700  2.3956
 1005MOL0     H32637   5.107   2.995  -0.636  0.5466  1.0567 -1.3192
 1005MOL0     H32638   5.047   3.275  -0.738  0.8234  1.0854 -3.3505
 1005MOL0     H32639   5.168   3.169  -0.824  0.2901 -0.5679  0.5785
 1005MOL0     H32640   4.903   3.073  -0.745 -0.4250  0.5566 -0.4382
 1005MOL0     H32641   5.008   3.020  -0.881  0.5158  0.2861 -0.6118
 1005MOL0     H32642   5.783   3.347  -0.091  0.8030  1.0970  1.7673
 1005MOL0     H32643   5.986   3.363   0.041 -1.7575  2.1782 -1.6306
 1005MOL0     H32644   6.238   3.454   0.446 -0.5550 -0.0282 -2.1033
 1005MOL0     H32645   6.466   3.449   0.535 -2.6350 -0.5943  0.6878
 1005MOL0     H32646   7.667   4.309   0.917 -1.4550  1.7172  2.0468
 1005MOL0     H32647   7.883   4.398   0.899 -2.9313 -2.2563 -2.0121
 1005MOL0     H32648   8.263   4.531   0.975 -0.4290  0.7072  0.3999
 1005MOL0     H32649   8.511   4.562   0.926 -0.5974  1.7800 -0.1817
 1005MOL0     H32650   8.784   4.790   1.051 -2.8704  1.6809  0.0568
 1005MOL0     H32651   8.642   4.738   0.955 -0.3939  0.1986  1.2533
 1005MOL0     H32652   8.749   4.508   0.927  0.5690 -0.7862 -0.3657
 1005MOL0     H32653   8.841   4.640   0.851  1.6424 -2.3081 -0.0639
 1005MOL0     H32654   8.930   4.459   1.070  0.0066  1.1420 -0.0015
 1005MOL0     H32655   8.972   4.622   1.095  2.3678  0.0439 -0.2861
 1005MOL0     H32656   9.025   4.448   0.846 -0.7057  0.9024 -0.9142
 1005MOL0     H32657   9.065   4.624   0.856 -1.7482  2.4255  4.8489
 1005MOL0     H32658   9.341   4.467   1.135 -0.4922  0.8238  1.0761
 1005MOL0     H32659   8.574   4.575   1.351 -0.8659 -0.5912  1.2343
 1005MOL0     H32660   8.346   4.468   1.392 -2.8973 -5.2282 -2.0493
 1006MOL0     O32661   5.059   4.508   0.842 -0.1242  0.5142 -0.0747
 1006MOL0     C32662   4.963   4.572   0.869  0.6040  0.5300 -0.2680
 1006MOL0     O32663   4.959   4.697   0.924  0.0845 -0.1246 -0.3338
 1006MOL0     C32664   5.087   4.735   0.956 -0.8449  0.2633  0.5810
 1006MOL0     C32665   5.140   4.706   1.083 -0.2479 -0.8323 -1.2612
 1006MOL0     C32666   5.274   4.729   1.119  0.6014  0.1533  0.5327
 1006MOL0     C32667   5.363   4.786   1.020  0.3876  0.0449 -0.9637
 1006MOL0     O32668   5.490   4.810   1.074 -0.0529  0.0255  0.1431
 1006MOL0     C32669   5.590   4.880   0.997  0.5947 -0.5024  0.4934
 1006MOL0     C32670   5.727   4.875   1.058  0.9117  0.0830 -0.5799
 1006MOL0     C32671   5.734   4.950   1.190  0.0532 -0.0645  0.6724
 1006MOL0     C32672   5.887   4.951   1.233  0.0529  0.0901 -0.3587
 1006MOL0     C32673   5.936   4.840   1.313 -0.2249 -0.3555  0.4526
 1006MOL0     C32674   5.876   4.834   1.459 -0.8371 -0.5342  0.1987
 1006MOL0     C32675   5.985   4.789   1.563 -0.5112 -0.0883  0.6744
 1006MOL0     C32676   5.938   4.817   1.701 -0.2732  0.0374  0.2508
 1006MOL0     N32677   5.937   4.955   1.744  0.2554 -0.1255  0.5198
 1006MOL0     C32678   6.056   5.028   1.768 -0.2088 -0.4962 -0.1321
 1006MOL0     C32679   6.007   5.160   1.759  0.0640 -0.6572 -0.1211
 1006MOL0     C32680   6.097   5.280   1.765 -0.1599  0.0218  0.0442
 1006MOL0     C32681   6.051   5.407   1.686  0.4913  0.7260  1.0921
 1006MOL0     C32682   5.927   5.471   1.759 -0.4862  0.3473  0.6246
 1006MOL0     C32683   5.890   5.613   1.714 -0.8803 -0.4140  0.1236
 1006MOL0     O32684   5.800   5.673   1.806 -0.1127 -0.1842 -0.0168
 1006MOL0     C32685   5.664   5.636   1.800  0.2963 -0.5027  0.2053
 1006MOL0     C32686   5.599   5.542   1.714  0.9563 -0.4576  0.8936
 1006MOL0     C32687   5.459   5.550   1.693 -0.3060  0.7082  0.2521
 1006MOL0     C32688   5.382   5.646   1.762 -0.1739 -0.5610  0.0763
 1006MOL0     C32689   5.239   5.660   1.726 -0.1276  0.1998 -0.7270
 1006MOL0     O32690   5.154   5.730   1.809  1.1865  0.6269 -0.5352
 1006MOL0     C32691   5.024   5.754   1.796  0.8111 -0.0041  0.0305
 1006MOL0     C32692   4.949   5.737   1.681  1.1156  0.2081 -0.6863
 1006MOL0     C32693   4.810   5.760   1.686 -0.4812  0.8820  0.1332
 1006MOL0     C32694   4.737   5.816   1.794  0.0657  0.6961 -0.2211
 1006MOL0     O32695   4.602   5.857   1.797  0.5723  0.1291  0.0803
 1006MOL0     C32696   4.508   5.822   1.699  0.4031 -0.4693  1.4321
 1006MOL0     C32697   4.531   5.909   1.569  0.3234  0.6776 -0.8944
 1006MOL0     C32698   4.505   6.060   1.614  1.1426  0.3944  0.0884
 1006MOL0     C32699   4.536   6.153   1.495  0.4483 -0.0753  0.8220
 1006MOL0     C32700   4.663   6.235   1.502  0.3432  0.0587  0.3103
 1006MOL0     C32701   4.696   6.288   1.358 -0.1655 -0.5442 -0.0833
 1006MOL0     C32702   4.800   6.407   1.365  0.4210 -0.9384 -0.0580
 1006MOL0     C32703   4.785   6.487   1.230  0.7421 -0.2232 -0.3433
 1006MOL0    Cl32704   4.628   6.567   1.206  0.4598 -0.0151 -0.1309
 1006MOL0     C32705   4.818   5.840   1.910 -0.2416  0.6027  0.4784
 1006MOL0     C32706   4.957   5.806   1.913 -0.5981 -0.2584 -0.4554
 1006MOL0     O32707   5.205   5.605   1.621  0.4977  0.0580  0.1712
 1006MOL0     C32708   5.442   5.726   1.861  0.3933  0.4480 -0.0482
 1006MOL0     C32709   5.581   5.720   1.874 -0.3140 -0.1880 -0.3369
 1006MOL0     N32710   5.870   5.158   1.748 -0.0919  0.9082 -0.5429
 1006MOL0     N32711   5.832   5.036   1.750 -0.3920 -0.8406  0.2219
 1006MOL0     C32712   5.314   4.829   0.890  0.2499  0.6989 -0.4469
 1006MOL0     C32713   5.182   4.789   0.860  0.0211  1.0018  0.9398
 1006MOL0     C32714   4.837   4.505   0.859 -0.2766  0.5136  0.9874
 1006MOL0     C32715   4.827   4.375   0.784 -0.0163 -0.6771  0.2187
 1006MOL0     C32716   4.707   4.317   0.782 -0.7139  0.8692  0.7965
 1006MOL0     C32717   4.593   4.362   0.855  0.2604 -0.4575 -0.3225
 1006MOL0     O32718   4.482   4.285   0.865  0.2014  0.2592 -0.3374
 1006MOL0     C32719   4.424   4.267   1.001 -0.9243 -0.1585  1.5547
 1006MOL0     C32720   4.412   4.122   1.034 -0.9264  0.4120  0.0050
 1006MOL0     C32721   4.324   4.039   0.956  0.0338 -0.8722  0.0878
 1006MOL0     C32722   4.282   3.902   1.016 -0.1482  0.6562  0.3255
 1006MOL0     C32723   4.217   3.928   1.143 -0.4275  0.5803 -0.1448
 1006MOL0     C32724   4.165   3.955   1.252  0.1578 -0.3131  0.2799
 1006MOL0     C32725   4.602   4.485   0.916 -0.3379  0.1991 -0.3831
 1006MOL0     C32726   4.719   4.556   0.916  0.6315 -0.2793 -0.3192
 1006MOL0     H32727   5.084   4.649   1.156 -0.0374 -1.8878 -1.9085
 1006MOL0     H32728   5.320   4.716   1.216 -0.8206  1.2753  1.3805
 1006MOL0     H32729   5.569   4.987   0.995  1.4658 -0.3142  1.1070
 1006MOL0     H32730   5.583   4.840   0.895 -2.6425 -0.4568  0.5745
 1006MOL0     H32731   5.809   4.912   0.996  2.8524 -3.0601 -0.1272
 1006MOL0     H32732   5.755   4.772   1.080  3.8625  1.1785  1.4269
 1006MOL0     H32733   5.679   4.897   1.268 -2.7192 -2.3419 -2.5586
 1006MOL0     H32734   5.700   5.052   1.171  0.3670 -0.0091  0.3926
 1006MOL0     H32735   5.963   4.971   1.156  1.4978  0.0404  0.9887
 1006MOL0     H32736   5.904   5.036   1.300  1.5005  0.7232 -1.4536
 1006MOL0     H32737   6.046   4.843   1.311 -0.0741 -3.1289  0.1334
 1006MOL0     H32738   5.922   4.743   1.265 -1.2663 -0.7500  1.5068
 1006MOL0     H32739   5.790   4.766   1.467  0.2103 -2.3641 -2.4990
 1006MOL0     H32740   5.838   4.934   1.481 -1.5378 -0.8237  0.3683
 1006MOL0     H32741   5.998   4.684   1.535 -0.1509 -0.2271  1.3386
 1006MOL0     H32742   6.080   4.841   1.550  0.2282 -1.2005  1.4349
 1006MOL0     H32743   6.017   4.773   1.764 -0.2743 -0.4677 -0.0937
 1006MOL0     H32744   5.844   4.766   1.719 -0.9472 -0.4861 -3.8024
 1006MOL0     H32745   6.159   4.996   1.776 -0.3345 -1.3442 -1.6447
 1006MOL0     H32746   6.181   5.252   1.700 -2.8301 -0.5065 -3.4733
 1006MOL0     H32747   6.131   5.307   1.866 -1.6083 -1.4753  0.9889
 1006MOL0     H32748   6.023   5.370   1.587  1.1618  0.4532  0.9958
 1006MOL0     H32749   6.129   5.481   1.664 -2.0909  2.8630 -1.6796
 1006MOL0     H32750   5.838   5.409   1.740  0.6967 -1.2744  0.1307
 1006MOL0     H32751   5.947   5.479   1.866 -0.6177 -1.5888  0.8205
 1006MOL0     H32752   5.859   5.623   1.609  2.6073  1.8827 -0.8543
 1006MOL0     H32753   5.984   5.669   1.713 -0.1702 -1.5776  0.8081
 1006MOL0     H32754   5.656   5.471   1.655  1.0084  0.4422 -0.1649
 1006MOL0     H32755   5.414   5.472   1.633  1.1543  1.3759 -1.8056
 1006MOL0     H32756   5.010   5.682   1.610  0.5351 -0.4649 -0.6765
 1006MOL0     H32757   4.748   5.723   1.605  1.9870 -0.8000 -1.1322
 1006MOL0     H32758   4.410   5.863   1.725  1.3502  4.1047 -0.9942
 1006MOL0     H32759   4.511   5.716   1.675  2.5446 -0.7429  2.6268
 1006MOL0     H32760   4.461   5.875   1.493  0.5345 -0.4571 -0.6092
 1006MOL0     H32761   4.631   5.891   1.527  0.8047  3.6594 -1.2742
 1006MOL0     H32762   4.571   6.090   1.696  1.8992  1.7129 -0.9643
 1006MOL0     H32763   4.400   6.074   1.641  1.0732  1.8101 -0.8354
 1006MOL0     H32764   4.542   6.081   1.413  0.1555 -3.0295  3.1909
 1006MOL0     H32765   4.450   6.218   1.478  0.3797 -1.1162 -4.4467
 1006MOL0     H32766   4.744   6.167   1.531 -0.1016  0.4346  2.6355
 1006MOL0     H32767   4.658   6.317   1.575 -1.5497  0.8884 -0.6679
 1006MOL0     H32768   4.605   6.314   1.302 -1.1444 -0.9796  1.2625
 1006MOL0     H32769   4.744   6.203   1.309  2.2523 -0.2432  1.5558
 1006MOL0     H32770   4.777   6.470   1.451  1.3958 -0.4936 -0.1114
 1006MOL0     H32771   4.898   6.365   1.388 -1.1470 -3.8180  2.0192
 1006MOL0     H32772   4.814   6.435   1.138  1.2069  0.1084 -0.3837
 1006MOL0     H32773   4.859   6.567   1.240  1.1979 -0.7833  1.0766
 1006MOL0     H32774   4.762   5.883   1.993 -4.0960  0.2943 -1.7443
 1006MOL0     H32775   5.000   5.820   2.012 -2.8515 -2.5559  0.9742
 1006MOL0     H32776   5.393   5.800   1.923 -1.7148  0.6784 -1.8729
 1006MOL0     H32777   5.626   5.799   1.933 -1.0532 -0.3682  0.4748
 1006MOL0     H32778   5.382   4.866   0.814 -0.9010  0.1204 -1.8073
 1006MOL0     H32779   5.152   4.806   0.758 -1.5912 -1.6091  0.8732
 1006MOL0     H32780   4.918   4.344   0.733 -0.3554 -1.2546 -0.0436
 1006MOL0     H32781   4.696   4.224   0.727  0.3917  2.3912 -2.2363
 1006MOL0     H32782   4.331   4.324   1.008  0.8483  3.2812 -0.3287
 1006MOL0     H32783   4.488   4.315   1.076  1.6693 -1.0723  0.0341
 1006MOL0     H32784   4.503   4.063   1.019 -0.7417  0.5958  0.4058
 1006MOL0     H32785   4.389   4.118   1.140 -2.2364 -1.1535 -0.2904
 1006MOL0     H32786   4.377   4.023   0.861 -1.8767 -0.3291 -1.1307
 1006MOL0     H32787   4.238   4.105   0.940  0.8513  0.4189  0.7894
 1006MOL0     H32788   4.216   3.848   0.946 -0.3423  0.0568  0.9511
 1006MOL0     H32789   4.364   3.842   1.056 -1.6070 -0.6160  1.5755
 1006MOL0     H32790   4.110   3.968   1.343 -0.3199  0.6082 -0.1286
 1006MOL0     H32791   4.517   4.540   0.955 -1.0741 -0.3902 -1.1360
 1006MOL0     H32792   4.715   4.655   0.960  0.2591 -0.1370 -0.6690
 1007MOL0     O32793   5.929   9.753   3.478 -0.0135 -1.0952 -0.3216
 1007MOL0     C32794   5.958   9.641   3.519 -0.3337  0.3553 -0.0790
 1007MOL0     O32795   5.890   9.572   3.622  0.3267  0.5011 -0.5215
 1007MOL0     C32796   5.762   9.606   3.640  0.0031 -0.8360 -0.2850
 1007MOL0     C32797   5.665   9.608   3.535 -0.6415 -0.6527  0.2460
 1007MOL0     C32798   5.535   9.633   3.566 -0.3506 -0.0012  0.7270
 1007MOL0     C32799   5.490   9.659   3.701 -0.1281 -0.8056  0.6286
 1007MOL0     O32800   5.367   9.711   3.737 -0.0238 -0.0307  0.3754
 1007MOL0     C32801   5.337   9.818   3.653 -0.2270  0.2629 -0.3873
 1007MOL0     C32802   5.210   9.870   3.697 -1.0339 -1.1807  0.5589
 1007MOL0     C32803   5.111   9.887   3.585 -0.0757  0.6180  0.2080
 1007MOL0     C32804   4.970   9.876   3.633  1.2209  0.6800  0.0431
 1007MOL0     C32805   4.871   9.810   3.535 -0.0097  0.0053  0.2329
 1007MOL0     C32806   4.727   9.803   3.592 -0.4414  0.0601  0.5661
 1007MOL0     C32807   4.651   9.926   3.579 -0.8910  0.3441  0.0175
 1007MOL0     C32808   4.502   9.895   3.611  0.5310  0.3273 -0.3310
 1007MOL0     N32809   4.427  10.021   3.591  0.1105  1.1752 -0.6044
 1007MOL0     C32810   4.400  10.090   3.477 -0.0011 -0.3422  1.1227
 1007MOL0     C32811   4.321  10.188   3.506  0.0940  0.6968 -0.0291
 1007MOL0     C32812   4.267  10.302   3.423  0.2615  0.0479 -0.4685
 1007MOL0     C32813   4.315  10.441   3.462  0.3899  0.4244 -0.7065
 1007MOL0     C32814   4.234  10.541   3.374  0.2029  0.1359 -0.9290
 1007MOL0     C32815   4.277  10.689   3.400  1.0398  0.0262  0.2679
 1007MOL0     O32816   4.420  10.718   3.405  0.7729  0.1144  0.9057
 1007MOL0     C32817   4.485  10.702   3.524 -0.3922  0.3693 -0.0766
 1007MOL0     C32818   4.429  10.694   3.650 -0.0021  0.1122  0.3547
 1007MOL0     C32819   4.513  10.702   3.757  0.9284 -0.3916  0.8089
 1007MOL0     C32820   4.648  10.700   3.742 -0.9216  0.3031  0.4467
 1007MOL0     C32821   4.731  10.682   3.864 -0.6506 -0.1909  0.2701
 1007MOL0     O32822   4.666  10.675   3.990 -0.5452 -0.4705 -0.0833
 1007MOL0     C32823   4.747  10.658   4.096 -0.2182  0.3841 -0.0334
 1007MOL0     C32824   4.758  10.760   4.200  0.1400 -0.6335  0.5731
 1007MOL0     C32825   4.849  10.745   4.306  1.3188  0.4212 -0.5367
 1007MOL0     C32826   4.912  10.617   4.327  0.2425  0.5944 -0.2887
 1007MOL0     O32827   4.987  10.599   4.442 -0.2732  0.1090 -0.8007
 1007MOL0     C32828   5.127  10.589   4.425  0.4084  0.1718 -0.5005
 1007MOL0     C32829   5.208  10.677   4.516 -0.3990 -0.2927 -0.1952
 1007MOL0     C32830   5.204  10.830   4.476 -0.2338 -0.1894 -0.8383
 1007MOL0     C32831   5.247  10.882   4.338  0.4625 -0.3517 -0.5636
 1007MOL0     C32832   5.258  11.040   4.333  0.3534  0.3267  0.5094
 1007MOL0     C32833   5.361  11.112   4.423 -0.3961  0.7609  0.1278
 1007MOL0     C32834   5.412  11.248   4.367  0.0523  0.2049  0.3904
 1007MOL0     C32835   5.466  11.335   4.479 -0.2714 -0.5064  0.2087
 1007MOL0    Cl32836   5.597  11.249   4.566  0.1103  0.1294 -0.0512
 1007MOL0     C32837   4.882  10.507   4.240 -0.0722 -0.4871 -0.1348
 1007MOL0     C32838   4.811  10.531   4.116 -0.6411 -0.1145 -0.6444
 1007MOL0     O32839   4.853  10.660   3.844 -0.3872 -0.6145 -0.1854
 1007MOL0     C32840   4.709  10.704   3.623 -0.2577 -0.2709  0.0454
 1007MOL0     C32841   4.624  10.702   3.508  0.4238  0.2737  0.3941
 1007MOL0     N32842   4.304  10.180   3.643 -0.0346  0.1784 -0.4612
 1007MOL0     N32843   4.357  10.080   3.693 -0.3352 -0.5397  0.3265
 1007MOL0     C32844   5.583   9.641   3.801  0.0449  0.4256 -0.3358
 1007MOL0     C32845   5.718   9.616   3.771 -0.4939 -0.2008 -0.1849
 1007MOL0     C32846   6.065   9.576   3.446  0.0377 -0.5652 -1.3052
 1007MOL0     C32847   6.137   9.644   3.349  0.4906  1.1017  0.7223
 1007MOL0     C32848   6.231   9.579   3.272  0.0350  1.3509  0.1577
 1007MOL0     C32849   6.255   9.435   3.278  0.1267 -0.1749 -0.1741
 1007MOL0     O32850   6.354   9.375   3.211  0.1457 -0.8047 -0.0285
 1007MOL0     C32851   6.445   9.450   3.142 -0.7675  0.5490  0.4027
 1007MOL0     C32852   6.550   9.349   3.108  0.5813 -0.5423 -1.0178
 1007MOL0     C32853   6.631   9.291   3.227  0.3365 -0.0294  1.0641
 1007MOL0     C32854   6.644   9.147   3.228 -0.8342  0.4185 -0.3606
 1007MOL0     C32855   6.513   9.073   3.225 -0.5994  1.0777 -0.0454
 1007MOL0     C32856   6.414   9.005   3.221 -0.1044 -0.3151  0.9456
 1007MOL0     C32857   6.189   9.370   3.379  0.4404 -0.9852  0.7409
 1007MOL0     C32858   6.105   9.437   3.462  0.0002  0.1272 -0.3289
 1007MOL0     H32859   5.701   9.602   3.433  0.1027 -2.0723  0.5639
 1007MOL0     H32860   5.480   9.634   3.472  1.2211  0.5736 -0.2220
 1007MOL0     H32861   5.328   9.775   3.552 -0.4257  1.0049 -0.6888
 1007MOL0     H32862   5.409   9.901   3.656 -3.8634  3.6771 -0.1740
 1007MOL0     H32863   5.225   9.966   3.747 -0.4197 -2.2172  2.4653
 1007MOL0     H32864   5.176   9.794   3.767  1.2011 -1.9132  0.9235
 1007MOL0     H32865   5.122   9.793   3.531  1.2324 -0.5370  2.3275
 1007MOL0     H32866   5.131   9.976   3.525 -1.1474  0.8786  0.2147
 1007MOL0     H32867   4.968   9.817   3.725  1.2518  0.5857 -0.0171
 1007MOL0     H32868   4.932   9.977   3.652  1.4930  0.8025 -0.0634
 1007MOL0     H32869   4.913   9.712   3.512 -0.2114 -0.4506  1.7401
 1007MOL0     H32870   4.867   9.865   3.440  0.4162 -1.1532 -0.4740
 1007MOL0     H32871   4.728   9.779   3.698  1.6962  2.6218  1.2296
 1007MOL0     H32872   4.688   9.720   3.531  0.8768 -0.9760  1.0824
 1007MOL0     H32873   4.681  10.001   3.652 -1.2051  3.6019 -2.9284
 1007MOL0     H32874   4.662   9.974   3.481  2.0836 -1.7723 -0.8541
 1007MOL0     H32875   4.490   9.865   3.715 -0.2591  4.6850  1.0646
 1007MOL0     H32876   4.456   9.818   3.548  2.0342 -0.0152 -1.0437
 1007MOL0     H32877   4.452  10.073   3.383  2.4991  0.2918  2.3117
 1007MOL0     H32878   4.159  10.304   3.444  0.5676 -1.3639  1.4879
 1007MOL0     H32879   4.281  10.295   3.315 -1.2879  0.2808 -0.7069
 1007MOL0     H32880   4.423  10.443   3.446  0.3510 -1.1738 -1.3484
 1007MOL0     H32881   4.293  10.462   3.567 -0.2911  0.5929 -0.8732
 1007MOL0     H32882   4.238  10.529   3.265 -5.0793 -0.6862 -1.2854
 1007MOL0     H32883   4.125  10.537   3.386  0.2883 -0.1776 -0.2397
 1007MOL0     H32884   4.229  10.718   3.494  1.4353  1.3664  0.0867
 1007MOL0     H32885   4.246  10.755   3.318  0.9584  2.5683  2.1991
 1007MOL0     H32886   4.323  10.684   3.666  0.3896 -1.8470  2.0304
 1007MOL0     H32887   4.466  10.708   3.854 -2.4976  2.0066 -0.8020
 1007MOL0     H32888   4.685  10.840   4.188 -1.3618 -2.0238  0.0352
 1007MOL0     H32889   4.839  10.821   4.383 -2.6863  0.1260 -0.5549
 1007MOL0     H32890   5.155  10.618   4.323 -3.2290  4.5454 -0.5845
 1007MOL0     H32891   5.161  10.488   4.448  1.1543  0.9689  2.1518
 1007MOL0     H32892   5.314  10.652   4.525 -0.4762 -0.5040  0.1476
 1007MOL0     H32893   5.167  10.667   4.617 -1.2566  6.0728  0.5048
 1007MOL0     H32894   5.264  10.878   4.554 -0.2848 -1.6822  0.1820
 1007MOL0     H32895   5.099  10.847   4.502 -0.4655 -1.7207 -0.6289
 1007MOL0     H32896   5.344  10.836   4.318  0.9356  0.1960  0.4034
 1007MOL0     H32897   5.174  10.851   4.262 -1.7893  1.2657  0.8251
 1007MOL0     H32898   5.161  11.074   4.370  0.7093 -0.2347  2.0775
 1007MOL0     H32899   5.273  11.076   4.231  0.5235  3.3069  1.4828
 1007MOL0     H32900   5.453  11.053   4.425 -0.0970  1.1237  4.0432
 1007MOL0     H32901   5.331  11.106   4.527 -0.7668  2.7582  0.1661
 1007MOL0     H32902   5.487  11.236   4.288  0.0453  2.3123  0.0245
 1007MOL0     H32903   5.331  11.292   4.309  0.4052  1.1499  0.6015
 1007MOL0     H32904   5.385  11.354   4.550 -2.3758  0.9151 -2.4318
 1007MOL0     H32905   5.488  11.436   4.444 -3.0228  0.3551  0.7057
 1007MOL0     H32906   4.931  10.413   4.261  1.9278  0.7863  1.1236
 1007MOL0     H32907   4.805  10.453   4.040  3.4526 -0.9517 -0.3618
 1007MOL0     H32908   4.814  10.727   3.615  0.0659 -1.9569 -1.0345
 1007MOL0     H32909   4.655  10.699   3.404 -0.2887 -0.7802  0.2010
 1007MOL0     H32910   5.549   9.627   3.903 -3.5738 -0.0294 -1.4701
 1007MOL0     H32911   5.780   9.594   3.857 -1.6312  1.5733  1.1515
 1007MOL0     H32912   6.130   9.751   3.332 -2.4601  0.8324 -0.2973
 1007MOL0     H32913   6.284   9.637   3.197 -1.1824  3.3171  0.7241
 1007MOL0     H32914   6.471   9.539   3.200 -2.7207  2.0512 -0.8857
 1007MOL0     H32915   6.403   9.484   3.047  3.0764 -0.6760 -1.9328
 1007MOL0     H32916   6.492   9.268   3.063 -1.9913  0.0193  1.0461
 1007MOL0     H32917   6.616   9.389   3.030 -2.4947  0.6740 -3.1898
 1007MOL0     H32918   6.571   9.310   3.317  0.3118  0.7395  0.8963
 1007MOL0     H32919   6.731   9.335   3.236  0.9324  0.0424 -3.6877
 1007MOL0     H32920   6.705   9.114   3.143 -2.8861  1.8609 -2.5020
 1007MOL0     H32921   6.697   9.112   3.317 -1.9771 -1.4143 -0.3297
 1007MOL0     H32922   6.330   8.938   3.212 -1.8866  1.8487  0.5220
 1007MOL0     H32923   6.193   9.262   3.394 -3.7521 -1.1677  1.6958
 1007MOL0     H32924   6.070   9.374   3.543  2.0612 -1.6330 -0.6952
 1008MOL0     O32925   3.166  10.172   5.430 -0.5318 -0.1894  0.0702
 1008MOL0     C32926   3.141  10.059   5.468  0.6701 -0.0483  0.0873
 1008MOL0     O32927   3.225   9.982   5.546 -0.4709 -0.1465  0.0414
 1008MOL0     C32928   3.340  10.051   5.585 -0.1240 -0.3838 -0.7640
 1008MOL0     C32929   3.454  10.043   5.512 -0.9598  0.1733 -0.5790
 1008MOL0     C32930   3.568  10.112   5.548 -1.0096  0.5172 -0.0863
 1008MOL0     C32931   3.576  10.198   5.664 -0.0773  0.2957 -0.2008
 1008MOL0     O32932   3.682  10.276   5.700 -0.2595 -0.3035  0.3978
 1008MOL0     C32933   3.777  10.317   5.606 -0.3722 -0.2084  0.1505
 1008MOL0     C32934   3.867  10.418   5.672  0.3853  0.5326  0.0305
 1008MOL0     C32935   3.889  10.383   5.821  0.4888  0.3870  0.2110
 1008MOL0     C32936   4.009  10.471   5.868  0.4574  0.2677  0.4273
 1008MOL0     C32937   4.042  10.443   6.017 -0.5206  0.6424 -0.2957
 1008MOL0     C32938   4.058  10.293   6.069  0.2739 -0.4654  0.1452
 1008MOL0     C32939   4.144  10.290   6.194 -0.4386 -0.0345 -0.1433
 1008MOL0     C32940   4.102  10.367   6.315  1.0267  0.4779 -0.3268
 1008MOL0     N32941   4.165  10.347   6.438 -0.4440  0.0703 -0.5768
 1008MOL0     C32942   4.103  10.276   6.536  0.2645 -0.1646 -0.1585
 1008MOL0     C32943   4.179  10.294   6.647 -0.4100  0.1081  0.1677
 1008MOL0     C32944   4.176  10.215   6.777 -0.2621  0.4346 -0.2864
 1008MOL0     C32945   4.050  10.272   6.854 -0.2505 -0.1842 -0.5426
 1008MOL0     C32946   4.043  10.200   6.995 -0.1945 -0.1014  0.9607
 1008MOL0     C32947   3.929  10.260   7.072  0.4346 -0.4012 -0.0068
 1008MOL0     O32948   3.806  10.223   7.004 -0.6537 -0.2294  0.1398
 1008MOL0     C32949   3.689  10.227   7.081  0.5591  0.1354  0.1020
 1008MOL0     C32950   3.680  10.200   7.218  0.4722  0.0820 -0.5113
 1008MOL0     C32951   3.557  10.213   7.282  0.6343 -0.6871  0.0059
 1008MOL0     C32952   3.436  10.229   7.217 -0.7999 -0.5188  0.3300
 1008MOL0     C32953   3.303  10.235   7.282  0.8143  0.1485 -0.0404
 1008MOL0     O32954   3.191  10.272   7.203  0.1958  0.2267  0.4650
 1008MOL0     C32955   3.071  10.256   7.267 -1.0457  0.3181 -1.1624
 1008MOL0     C32956   3.011  10.133   7.260  0.4877  0.5607  1.3627
 1008MOL0     C32957   2.896  10.109   7.331  0.2042 -0.3310  0.5326
 1008MOL0     C32958   2.825  10.211   7.394  0.1042  1.3636  0.3140
 1008MOL0     O32959   2.699  10.182   7.437 -0.5935 -0.1926 -0.2746
 1008MOL0     C32960   2.687  10.138   7.572 -0.0344  0.7569  0.8613
 1008MOL0     C32961   2.565  10.053   7.585  0.3166 -0.5846  0.6622
 1008MOL0     C32962   2.568   9.972   7.722 -0.5639 -0.3901  0.1451
 1008MOL0     C32963   2.455   9.865   7.724  1.0384 -0.0634  0.8669
 1008MOL0     C32964   2.338   9.951   7.761 -0.6025 -0.1234  0.1421
 1008MOL0     C32965   2.204   9.878   7.756  0.2194 -0.3565  0.9261
 1008MOL0     C32966   2.080   9.965   7.784  0.5182  0.1967 -0.2755
 1008MOL0     C32967   1.949   9.898   7.783 -0.6258  0.2354  0.6642
 1008MOL0    Cl32968   1.933   9.860   7.609  0.3464 -0.1549 -0.2174
 1008MOL0     C32969   2.881  10.342   7.400 -0.0620  0.1435  0.2183
 1008MOL0     C32970   3.003  10.370   7.335 -0.4581 -0.0749  0.4104
 1008MOL0     O32971   3.297  10.217   7.402 -0.4000 -0.5597 -0.4088
 1008MOL0     C32972   3.448  10.248   7.074  0.6666 -0.4366  0.7028
 1008MOL0     C32973   3.565  10.246   7.010 -0.0460  0.5928  0.1461
 1008MOL0     N32974   4.279  10.384   6.620 -0.6307 -0.5483  0.3811
 1008MOL0     N32975   4.273  10.417   6.496  0.2365  1.2191  0.4404
 1008MOL0     C32976   3.461  10.201   5.742  0.7795  0.1745 -0.5071
 1008MOL0     C32977   3.342  10.136   5.693 -0.1725 -0.1332 -0.0183
 1008MOL0     C32978   3.038   9.978   5.399  0.5608 -0.0376  0.9484
 1008MOL0     C32979   2.925  10.036   5.347 -0.4466  0.9265 -0.7115
 1008MOL0     C32980   2.829   9.955   5.291  0.9177 -0.7174  0.3719
 1008MOL0     C32981   2.840   9.819   5.273 -0.4234  0.0464 -0.6320
 1008MOL0     O32982   2.735   9.756   5.207 -0.6369  0.6059 -0.0548
 1008MOL0     C32983   2.666   9.652   5.285 -0.4123  0.5061  0.6347
 1008MOL0     C32984   2.593   9.711   5.405 -0.5530 -0.5280 -0.7098
 1008MOL0     C32985   2.478   9.807   5.379 -0.0941 -0.4864 -0.0293
 1008MOL0     C32986   2.390   9.795   5.250 -0.6335  0.4554  0.7732
 1008MOL0     C32987   2.308   9.671   5.276  0.1563 -0.0388 -0.0105
 1008MOL0     C32988   2.248   9.573   5.295  1.0525 -0.2023 -1.1144
 1008MOL0     C32989   2.957   9.759   5.310 -0.2700  0.1341  0.0283
 1008MOL0     C32990   3.061   9.838   5.371  0.8462 -0.6253  0.1703
 1008MOL0     H32991   3.438   9.978   5.426 -0.5980  0.7765 -1.1100
 1008MOL0     H32992   3.638  10.119   5.464 -2.8702  1.9397 -1.5975
 1008MOL0     H32993   3.718  10.359   5.525 -1.2745 -1.5113  0.0940
 1008MOL0     H32994   3.836  10.233   5.568 -1.0548  1.0769 -4.2953
 1008MOL0     H32995   3.804  10.504   5.649 -0.4556  0.5035  2.0223
 1008MOL0     H32996   3.966  10.427   5.627  1.4484 -2.3915  1.5050
 1008MOL0     H32997   3.910  10.279   5.847 -1.8871 -0.0526  0.6638
 1008MOL0     H32998   3.808  10.418   5.887  0.0602 -0.6706  0.2645
 1008MOL0     H32999   4.100  10.456   5.809  0.2545 -0.1585  0.2137
 1008MOL0     H33000   3.992  10.579   5.869 -2.4346 -0.0765 -0.5418
 1008MOL0     H33001   3.962  10.485   6.078  0.8423  0.0419  1.9942
 1008MOL0     H33002   4.140  10.489   6.032  2.4162 -4.2486 -2.0397
 1008MOL0     H33003   4.099  10.234   5.987  0.6939 -1.7687  1.2641
 1008MOL0     H33004   3.958  10.258   6.094  1.1768 -1.3300  2.9809
 1008MOL0     H33005   4.164  10.185   6.217 -3.1245 -0.8471 -1.1199
 1008MOL0     H33006   4.241  10.328   6.160 -0.6107  0.1260 -0.4613
 1008MOL0     H33007   3.994  10.356   6.329  0.8796 -1.1944 -2.4051
 1008MOL0     H33008   4.108  10.473   6.287  0.3884  1.1811  1.9703
 1008MOL0     H33009   4.025  10.205   6.512 -1.7666  1.4816  1.2082
 1008MOL0     H33010   4.272  10.217   6.829  0.5990  1.2153 -1.8078
 1008MOL0     H33011   4.161  10.109   6.757  3.2118  0.0252 -1.5602
 1008MOL0     H33012   3.962  10.262   6.791  0.1015  1.3425 -1.3481
 1008MOL0     H33013   4.073  10.377   6.875  0.4838 -0.1291 -1.5420
 1008MOL0     H33014   4.021  10.095   6.971 -1.1105  1.0437 -4.6042
 1008MOL0     H33015   4.140  10.212   7.043  1.3738 -1.2019 -1.6865
 1008MOL0     H33016   3.941  10.367   7.088  2.5243 -0.6328  0.2403
 1008MOL0     H33017   3.945  10.213   7.170  0.0742 -0.9111 -0.1875
 1008MOL0     H33018   3.765  10.176   7.280  0.6801  1.0671 -0.3955
 1008MOL0     H33019   3.565  10.201   7.390  5.0643  1.1225  0.1082
 1008MOL0     H33020   3.063  10.055   7.205 -1.7298  0.3260 -0.5739
 1008MOL0     H33021   2.855  10.012   7.305  0.7550 -0.0264 -1.6539
 1008MOL0     H33022   2.680  10.229   7.633  1.3744  1.3606  0.1495
 1008MOL0     H33023   2.776  10.088   7.611  0.4149  2.3453  2.0060
 1008MOL0     H33024   2.553   9.991   7.495  1.1543  1.4467 -0.9524
 1008MOL0     H33025   2.476  10.116   7.589  0.1479 -0.5059 -2.1733
 1008MOL0     H33026   2.569  10.032   7.813  1.1324 -0.3552  0.1446
 1008MOL0     H33027   2.658   9.909   7.730 -0.3576 -0.2444 -0.8645
 1008MOL0     H33028   2.438   9.821   7.626 -1.1306 -1.1385  1.6843
 1008MOL0     H33029   2.482   9.785   7.793  0.6012  0.2398  1.4015
 1008MOL0     H33030   2.320  10.032   7.690  1.4988  0.3919  0.1387
 1008MOL0     H33031   2.363   9.990   7.860  0.9471  3.9005 -1.6376
 1008MOL0     H33032   2.206   9.789   7.820  2.1106 -0.9187  0.1689
 1008MOL0     H33033   2.195   9.838   7.655  0.6381  1.5447  0.1024
 1008MOL0     H33034   2.095   9.998   7.888  0.5108 -0.1962 -0.1488
 1008MOL0     H33035   2.081  10.055   7.722  0.7611 -0.1871 -0.8350
 1008MOL0     H33036   1.870   9.959   7.828  0.4884  2.3361 -0.1217
 1008MOL0     H33037   1.956   9.806   7.843 -0.5646 -1.0897 -1.2743
 1008MOL0     H33038   2.822  10.421   7.445  0.0601  1.6570 -2.1236
 1008MOL0     H33039   3.036  10.473   7.330 -1.7961  0.3584  0.1441
 1008MOL0     H33040   3.359  10.270   7.016  2.1417 -0.0513 -1.5218
 1008MOL0     H33041   3.564  10.259   6.902 -2.7950  0.0434  0.0190
 1008MOL0     H33042   3.452  10.271   5.824 -2.4230  0.0642 -0.6655
 1008MOL0     H33043   3.250  10.154   5.748 -0.6926  3.1075 -1.6881
 1008MOL0     H33044   2.908  10.143   5.351 -3.1309  0.5377  1.7950
 1008MOL0     H33045   2.735   9.996   5.257  0.8194  1.0850  2.5919
 1008MOL0     H33046   2.741   9.576   5.310  0.2717  1.2165  0.7618
 1008MOL0     H33047   2.592   9.593   5.229 -1.4655 -0.7666  3.1606
 1008MOL0     H33048   2.555   9.628   5.465 -1.7640  0.6985  0.2709
 1008MOL0     H33049   2.666   9.770   5.461 -1.0160  1.3019 -1.9172
 1008MOL0     H33050   2.521   9.908   5.376 -0.4594 -0.3471 -0.7789
 1008MOL0     H33051   2.411   9.821   5.464  1.0354  0.9002  0.6766
 1008MOL0     H33052   2.328   9.885   5.243 -0.1668  0.6746 -1.3799
 1008MOL0     H33053   2.453   9.784   5.161  0.3512  0.2540  1.4858
 1008MOL0     H33054   2.176   9.497   5.319 -1.2177  1.2465 -2.9048
 1008MOL0     H33055   2.967   9.656   5.280  0.6571  0.7820 -2.1042
 1008MOL0     H33056   3.155   9.793   5.402  1.3735 -1.1084 -1.9455
 1009MOL0     O33057   0.862   0.618   5.035  0.2650 -0.5014 -0.4483
 1009MOL0     C33058   0.966   0.586   4.968  1.1448 -0.4066 -0.7530
 1009MOL0     O33059   0.971   0.582   4.835  0.1633 -0.2876 -0.0411
 1009MOL0     C33060   0.861   0.612   4.759 -0.1021  0.0912  0.9636
 1009MOL0     C33061   0.893   0.666   4.633 -0.0391 -0.1375 -0.3047
 1009MOL0     C33062   0.788   0.701   4.544  0.3107  0.2247  0.5857
 1009MOL0     C33063   0.651   0.680   4.568 -0.3552  0.0018  0.0200
 1009MOL0     O33064   0.551   0.710   4.485 -0.0758  0.3737 -0.5445
 1009MOL0     C33065   0.437   0.621   4.503 -0.2212  0.4647  0.3053
 1009MOL0     C33066   0.334   0.663   4.403 -0.7764  0.6983  0.6487
 1009MOL0     C33067   0.206   0.592   4.443 -0.7690  0.5097  0.0550
 1009MOL0     C33068   0.101   0.612   4.339 -0.3390  0.2399  0.3042
 1009MOL0     C33069  -0.041   0.564   4.365 -0.4380 -0.1280  0.5510
 1009MOL0     C33070  -0.037   0.406   4.358  0.0342 -0.8134  0.7289
 1009MOL0     C33071  -0.179   0.353   4.342  0.6307 -0.0432  0.1970
 1009MOL0     C33072  -0.242   0.363   4.204  0.1554 -0.3001 -0.7666
 1009MOL0     N33073  -0.370   0.306   4.204  1.1192 -0.2949  0.4306
 1009MOL0     C33074  -0.476   0.377   4.253 -0.0054 -0.1066  0.5022
 1009MOL0     C33075  -0.579   0.295   4.229  0.8249 -0.3709 -0.4493
 1009MOL0     C33076  -0.721   0.319   4.274 -0.3707  0.2782  0.0559
 1009MOL0     C33077  -0.823   0.291   4.161  0.5866  0.5156 -0.4321
 1009MOL0     C33078  -0.807   0.355   4.026  0.9495  0.0393  0.7733
 1009MOL0     C33079  -0.870   0.495   4.025  0.8887 -0.5887  0.0042
 1009MOL0     O33080  -0.817   0.576   4.113 -0.3502 -0.2093  0.2661
 1009MOL0     C33081  -0.689   0.629   4.093 -0.1748 -0.5539 -0.1039
 1009MOL0     C33082  -0.608   0.624   3.972  0.5913 -0.6416 -0.2825
 1009MOL0     C33083  -0.469   0.669   3.966 -0.0996  0.2498 -0.0293
 1009MOL0     C33084  -0.419   0.723   4.088 -0.6519  0.3130  0.6646
 1009MOL0     C33085  -0.283   0.766   4.094 -0.2780 -0.7188  0.4570
 1009MOL0     O33086  -0.209   0.715   3.991 -0.2553 -0.0098  0.3973
 1009MOL0     C33087  -0.083   0.773   3.976 -0.2014 -0.1203 -0.5758
 1009MOL0     C33088   0.031   0.693   3.981  0.2567 -0.5237 -0.2959
 1009MOL0     C33089   0.161   0.748   3.971  0.1761 -0.2367  0.5819
 1009MOL0     C33090   0.182   0.891   3.968 -0.1604  1.0288  0.6779
 1009MOL0     O33091   0.317   0.933   3.972  0.0988 -0.6073  0.5865
 1009MOL0     C33092   0.321   1.065   4.025  0.0644 -0.1792 -0.0646
 1009MOL0     C33093   0.468   1.115   4.049 -0.1243 -0.1693  0.1582
 1009MOL0     C33094   0.535   1.143   3.909  0.2851 -0.2436 -0.1119
 1009MOL0     C33095   0.466   1.253   3.834  0.0885 -0.5226 -0.6075
 1009MOL0     C33096   0.548   1.316   3.720 -0.5477 -0.8006 -0.5314
 1009MOL0     C33097   0.665   1.398   3.770  0.4438  0.0433  0.4657
 1009MOL0     C33098   0.755   1.427   3.659 -0.9016 -0.2321 -0.5643
 1009MOL0     C33099   0.869   1.519   3.704  0.3669 -0.3759  0.3681
 1009MOL0    Cl33100   0.802   1.681   3.721 -0.2093  0.2086 -0.4508
 1009MOL0     C33101   0.063   0.967   3.959 -0.3207 -0.3960 -1.0265
 1009MOL0     C33102  -0.066   0.909   3.957 -0.3209 -0.6175 -0.0645
 1009MOL0     O33103  -0.240   0.830   4.193  0.5182  0.5054 -0.1306
 1009MOL0     C33104  -0.500   0.735   4.199 -0.0304  0.5251  0.3608
 1009MOL0     C33105  -0.632   0.682   4.204 -0.1190 -0.4958 -0.1705
 1009MOL0     N33106  -0.541   0.176   4.169 -0.6280  0.8196  0.7910
 1009MOL0     N33107  -0.415   0.183   4.148 -0.2224 -0.3558 -1.2590
 1009MOL0     C33108   0.626   0.632   4.704  0.0581 -0.1173  1.0324
 1009MOL0     C33109   0.724   0.580   4.780 -0.0588 -0.4683 -0.2308
 1009MOL0     C33110   1.094   0.553   5.043  0.7035  0.4301  0.3737
 1009MOL0     C33111   1.100   0.545   5.187 -0.2222 -0.1465  0.9670
 1009MOL0     C33112   1.222   0.502   5.245  0.2395 -0.7437 -0.1398
 1009MOL0     C33113   1.337   0.485   5.180  0.2778  0.3469  0.6224
 1009MOL0     O33114   1.449   0.453   5.254  0.1088 -0.2133  0.3079
 1009MOL0     C33115   1.584   0.463   5.203 -0.0845  0.1207  1.0493
 1009MOL0     C33116   1.690   0.443   5.314 -0.0036  0.2658  0.5648
 1009MOL0     C33117   1.835   0.424   5.254  0.5380 -0.1927  1.2187
 1009MOL0     C33118   1.896   0.555   5.180  0.0377 -0.5883 -0.5088
 1009MOL0     C33119   2.023   0.516   5.124  0.3332  0.1801  0.0209
 1009MOL0     C33120   2.115   0.452   5.083  0.2056 -0.0733  0.3387
 1009MOL0     C33121   1.328   0.488   5.037  0.1784  0.3235 -0.0084
 1009MOL0     C33122   1.208   0.510   4.972  0.8359  0.3607  0.0407
 1009MOL0     H33123   0.997   0.670   4.604 -0.2806 -2.2483 -1.6688
 1009MOL0     H33124   0.815   0.727   4.442  3.1622 -0.8747  0.9807
 1009MOL0     H33125   0.385   0.633   4.599 -1.9669  1.5350 -0.7117
 1009MOL0     H33126   0.467   0.517   4.487 -0.1718  0.8200 -2.3019
 1009MOL0     H33127   0.368   0.640   4.302  0.5779  1.4924  0.8980
 1009MOL0     H33128   0.310   0.770   4.400 -0.3729  0.7886  0.6485
 1009MOL0     H33129   0.180   0.622   4.545  3.4213  0.7536  1.2467
 1009MOL0     H33130   0.231   0.486   4.429  0.7985  1.2634 -5.0995
 1009MOL0     H33131   0.084   0.720   4.337 -2.1340 -0.0163  0.0301
 1009MOL0     H33132   0.140   0.584   4.240 -1.6146 -0.1716 -0.0974
 1009MOL0     H33133  -0.102   0.606   4.285 -1.3422 -2.8373 -0.2955
 1009MOL0     H33134  -0.074   0.588   4.467 -1.7322 -1.7905  0.5605
 1009MOL0     H33135   0.002   0.375   4.456  0.9117  0.6644  0.8734
 1009MOL0     H33136   0.028   0.365   4.281  1.6270 -2.0832  2.6367
 1009MOL0     H33137  -0.178   0.247   4.365 -0.3435 -0.1299 -0.0921
 1009MOL0     H33138  -0.249   0.402   4.410 -2.8519  0.5113 -3.4078
 1009MOL0     H33139  -0.187   0.299   4.135 -2.2091 -1.3299 -1.7907
 1009MOL0     H33140  -0.240   0.466   4.167  1.6627  0.3247  0.8933
 1009MOL0     H33141  -0.490   0.463   4.318 -0.8587  0.7729 -0.7820
 1009MOL0     H33142  -0.734   0.425   4.301  0.0692  0.9613 -2.2392
 1009MOL0     H33143  -0.730   0.253   4.361 -1.5576 -0.2461 -0.4416
 1009MOL0     H33144  -0.918   0.331   4.197  1.0526  2.3615 -1.1432
 1009MOL0     H33145  -0.825   0.182   4.151  0.8333  0.4749 -0.0696
 1009MOL0     H33146  -0.703   0.361   3.996  0.5015  1.1674 -0.6408
 1009MOL0     H33147  -0.859   0.292   3.953  0.4546  1.6795 -0.3529
 1009MOL0     H33148  -0.979   0.495   4.038  1.1058 -2.7250  2.9927
 1009MOL0     H33149  -0.855   0.552   3.933 -0.2977  0.7304  0.5920
 1009MOL0     H33150  -0.647   0.576   3.883 -2.8680  1.5481 -0.1680
 1009MOL0     H33151  -0.417   0.650   3.873 -2.5252 -0.3353 -1.3476
 1009MOL0     H33152   0.014   0.589   4.005  1.6083 -1.3672 -2.6330
 1009MOL0     H33153   0.250   0.685   3.971  0.9567  0.7779  2.6854
 1009MOL0     H33154   0.265   1.062   4.119 -0.2728  1.9421 -0.1482
 1009MOL0     H33155   0.271   1.140   3.964  2.1125  1.6874  0.4232
 1009MOL0     H33156   0.528   1.033   4.090  0.8018 -0.1579 -1.0913
 1009MOL0     H33157   0.470   1.191   4.127 -0.6330 -2.3421  2.4112
 1009MOL0     H33158   0.515   1.052   3.851  0.8875 -1.0955  0.9634
 1009MOL0     H33159   0.641   1.164   3.925 -0.0526  1.2405  0.3194
 1009MOL0     H33160   0.368   1.218   3.803 -0.7585  0.0364  1.2867
 1009MOL0     H33161   0.439   1.335   3.901 -0.8330 -2.8081  2.0170
 1009MOL0     H33162   0.477   1.381   3.668 -0.3060 -0.3676 -0.3277
 1009MOL0     H33163   0.585   1.238   3.652  2.9233 -0.5529  0.8484
 1009MOL0     H33164   0.726   1.345   3.844  1.5095 -1.3380 -1.3133
 1009MOL0     H33165   0.625   1.486   3.822 -1.6819 -0.2428 -0.5724
 1009MOL0     H33166   0.794   1.334   3.617 -2.1590 -0.2128 -1.8427
 1009MOL0     H33167   0.706   1.478   3.575 -4.5194 -1.1837  0.8157
 1009MOL0     H33168   0.956   1.526   3.638  0.9901  0.2698  1.2294
 1009MOL0     H33169   0.905   1.490   3.804 -0.6610 -5.0820 -0.4031
 1009MOL0     H33170   0.061   1.074   3.940 -1.4997 -0.4947 -1.5375
 1009MOL0     H33171  -0.152   0.975   3.961  0.4956  0.4426  3.0867
 1009MOL0     H33172  -0.460   0.779   4.290 -1.8740  0.9112  1.0226
 1009MOL0     H33173  -0.693   0.687   4.293  3.4376  0.5387  2.4778
 1009MOL0     H33174   0.527   0.608   4.740  1.3367 -2.9046  3.0642
 1009MOL0     H33175   0.669   0.535   4.862 -0.1952 -3.0586 -1.6433
 1009MOL0     H33176   1.016   0.558   5.254 -1.0128  1.9044 -0.3127
 1009MOL0     H33177   1.214   0.495   5.353 -1.2640 -1.9312 -0.2993
 1009MOL0     H33178   1.601   0.552   5.141  0.6210 -1.7190 -1.5902
 1009MOL0     H33179   1.591   0.378   5.135  0.8041  1.1747 -0.2185
 1009MOL0     H33180   1.682   0.535   5.373  0.0365  2.0704 -2.0775
 1009MOL0     H33181   1.655   0.356   5.371  1.4651 -1.2164 -0.6616
 1009MOL0     H33182   1.828   0.349   5.175 -0.5098  0.1285  0.9881
 1009MOL0     H33183   1.903   0.387   5.331  0.5183 -1.8432  0.4822
 1009MOL0     H33184   1.831   0.597   5.103  1.9301 -0.5731 -2.1777
 1009MOL0     H33185   1.893   0.627   5.262 -0.1832  0.5047 -1.4611
 1009MOL0     H33186   2.208   0.411   5.048 -0.4431 -1.5517  0.2882
 1009MOL0     H33187   1.420   0.469   4.983  0.5790 -2.6543  1.5040
 1009MOL0     H33188   1.210   0.505   4.863 -2.0620 -0.6947 -0.0486
 1010MOL0     O33189   1.630   2.008   4.417 -0.0651 -0.4673  0.3474
 1010MOL0     C33190   1.692   1.928   4.482 -1.0912 -0.2869 -0.4055
 1010MOL0     O33191   1.648   1.863   4.601 -0.2679  0.0937  0.4074
 1010MOL0     C33192   1.527   1.900   4.649  1.0194  0.4213 -0.3204
 1010MOL0     C33193   1.521   2.021   4.723  0.6010  0.5269 -0.9387
 1010MOL0     C33194   1.401   2.057   4.778 -0.2174 -0.0278 -0.2631
 1010MOL0     C33195   1.282   1.980   4.768  0.7556 -0.1724  0.1848
 1010MOL0     O33196   1.167   2.022   4.833 -0.0069 -0.0535  0.0270
 1010MOL0     C33197   1.039   1.947   4.814  0.1177  0.4686  0.4520
 1010MOL0     C33198   0.927   2.003   4.910 -0.2768  0.3796  0.1128
 1010MOL0     C33199   0.792   1.932   4.890  0.3222 -0.0812  0.1545
 1010MOL0     C33200   0.683   2.021   4.958 -0.2121 -0.2481 -0.0903
 1010MOL0     C33201   0.557   1.938   4.963 -0.2500  0.3272 -0.2149
 1010MOL0     C33202   0.443   2.010   5.036  0.2507 -0.1624  0.2473
 1010MOL0     C33203   0.309   1.934   5.034  0.0111 -0.4311  0.3630
 1010MOL0     C33204   0.190   2.008   5.094  0.6444 -0.5222  0.3797
 1010MOL0     N33205   0.062   1.932   5.078 -0.2152 -0.5671 -0.9631
 1010MOL0     C33206  -0.045   1.983   5.008  0.0987  0.2915 -0.3137
 1010MOL0     C33207  -0.144   1.899   5.036 -0.1890 -0.1729  0.1818
 1010MOL0     C33208  -0.286   1.921   5.002 -0.4541  0.1341  0.3186
 1010MOL0     C33209  -0.334   1.831   4.894 -0.4329 -0.5669  0.5379
 1010MOL0     C33210  -0.249   1.874   4.768  0.6214  1.0857 -1.0261
 1010MOL0     C33211  -0.324   1.812   4.651 -0.7744  0.3632  0.2294
 1010MOL0     O33212  -0.272   1.856   4.528  0.6078  0.8903 -0.3345
 1010MOL0     C33213  -0.141   1.812   4.507  0.3062 -0.2949  0.2228
 1010MOL0     C33214  -0.123   1.692   4.453  0.3745  0.1817 -0.1531
 1010MOL0     C33215   0.008   1.647   4.416 -0.4437  0.0295 -0.0695
 1010MOL0     C33216   0.119   1.732   4.436 -0.2561 -0.2197 -1.5488
 1010MOL0     C33217   0.255   1.685   4.408  0.4634 -1.1453 -0.0435
 1010MOL0     O33218   0.266   1.603   4.296  0.0488  0.3405  0.5341
 1010MOL0     C33219   0.392   1.566   4.254 -0.7366 -0.4645  0.1910
 1010MOL0     C33220   0.476   1.491   4.331 -0.9139 -0.0060 -0.6636
 1010MOL0     C33221   0.608   1.458   4.283  0.8386  0.6183 -0.0804
 1010MOL0     C33222   0.647   1.506   4.155 -0.5131 -0.6781 -0.3739
 1010MOL0     O33223   0.774   1.470   4.109 -0.1920  0.2038 -0.3902
 1010MOL0     C33224   0.841   1.351   4.150  0.0374 -0.2580  0.5715
 1010MOL0     C33225   0.963   1.326   4.062 -1.0633  0.8073 -0.1621
 1010MOL0     C33226   1.033   1.191   4.100  0.4877  0.6134  0.2527
 1010MOL0     C33227   1.145   1.158   3.997  0.1032  0.2392 -0.8544
 1010MOL0     C33228   1.206   1.017   4.040 -0.1625  0.7542  0.4800
 1010MOL0     C33229   1.308   0.963   3.940  0.2206 -0.0506  1.5147
 1010MOL0     C33230   1.348   0.817   3.968 -0.4779  0.4872 -0.3988
 1010MOL0     C33231   1.449   0.809   4.081 -0.1467  0.1446  0.8992
 1010MOL0    Cl33232   1.608   0.876   4.037  0.0156  0.2402  0.2082
 1010MOL0     C33233   0.564   1.595   4.084  0.3906  0.5926  0.0522
 1010MOL0     C33234   0.435   1.614   4.127  0.5867 -0.3223 -0.4408
 1010MOL0     O33235   0.342   1.727   4.476  0.4257 -0.4955 -0.2303
 1010MOL0     C33236   0.096   1.854   4.498 -0.0508  0.3663 -0.6524
 1010MOL0     C33237  -0.036   1.898   4.524 -0.5173 -0.2039  0.3000
 1010MOL0     N33238  -0.097   1.805   5.129  0.2015  0.0138  0.0122
 1010MOL0     N33239   0.024   1.835   5.161 -0.3957  0.3236 -0.4077
 1010MOL0     C33240   1.284   1.867   4.688 -0.4162  0.2730 -1.3469
 1010MOL0     C33241   1.414   1.821   4.642 -1.1100  0.5274  0.5075
 1010MOL0     C33242   1.830   1.905   4.435  0.1199  1.5600  0.0583
 1010MOL0     C33243   1.895   1.991   4.347  0.5004  0.2613 -1.1568
 1010MOL0     C33244   2.035   1.971   4.318  0.7154 -0.8667 -0.4596
 1010MOL0     C33245   2.111   1.867   4.379 -0.3467 -0.3579  0.4882
 1010MOL0     O33246   2.244   1.846   4.354 -0.1245 -0.9391 -0.0967
 1010MOL0     C33247   2.301   1.882   4.220 -0.3611 -0.2906  0.3206
 1010MOL0     C33248   2.305   1.745   4.136 -0.1101 -0.1803 -0.8326
 1010MOL0     C33249   2.379   1.748   4.006 -0.2662  0.6832  0.6438
 1010MOL0     C33250   2.324   1.645   3.917  0.7522  0.9996  0.5224
 1010MOL0     C33251   2.402   1.630   3.793 -0.5771 -0.4763  0.7174
 1010MOL0     C33252   2.480   1.618   3.695  0.4133  0.5900 -0.1286
 1010MOL0     C33253   2.039   1.780   4.456 -0.2137  0.1899 -0.6033
 1010MOL0     C33254   1.905   1.804   4.493  0.5229 -0.5495 -0.3355
 1010MOL0     H33255   1.615   2.076   4.727  1.2078 -0.5014 -0.5819
 1010MOL0     H33256   1.403   2.152   4.832 -0.5461  0.0561 -0.3980
 1010MOL0     H33257   1.052   1.841   4.840 -1.3162  0.2809  0.5127
 1010MOL0     H33258   0.995   1.959   4.714 -1.3804  1.2274  1.1746
 1010MOL0     H33259   0.918   2.109   4.885 -3.5663 -0.2317 -1.9813
 1010MOL0     H33260   0.959   1.998   5.014 -4.1844 -0.3126  1.4390
 1010MOL0     H33261   0.789   1.833   4.936 -2.5014 -0.0075  0.2890
 1010MOL0     H33262   0.781   1.911   4.783  0.5189  0.6032 -0.0113
 1010MOL0     H33263   0.695   2.045   5.064 -2.7874  1.5345 -0.1298
 1010MOL0     H33264   0.671   2.114   4.901  2.1986 -0.0584 -0.4153
 1010MOL0     H33265   0.573   1.846   5.021  2.6982  0.2020 -1.0851
 1010MOL0     H33266   0.521   1.913   4.863 -0.0561  0.6177 -0.3573
 1010MOL0     H33267   0.424   2.102   4.981  2.0960 -1.8313 -3.5905
 1010MOL0     H33268   0.475   2.030   5.139 -0.3178  3.6934 -0.2107
 1010MOL0     H33269   0.281   1.919   4.930  1.9220  3.1725 -0.8331
 1010MOL0     H33270   0.316   1.840   5.090  1.7480  0.4730  1.7621
 1010MOL0     H33271   0.185   2.100   5.036  0.6075  1.5814  3.4736
 1010MOL0     H33272   0.207   2.034   5.199 -1.4041 -3.1628  1.4885
 1010MOL0     H33273  -0.052   2.067   4.940  0.9196  0.6688  0.0639
 1010MOL0     H33274  -0.305   2.028   4.984 -1.3500  0.0865  0.9057
 1010MOL0     H33275  -0.348   1.894   5.088 -2.0678  0.6606 -0.6496
 1010MOL0     H33276  -0.439   1.854   4.873 -0.2693 -0.5222 -0.2543
 1010MOL0     H33277  -0.327   1.725   4.917  1.1011 -0.7463 -0.5675
 1010MOL0     H33278  -0.232   1.982   4.761  1.4008  1.5183  3.8594
 1010MOL0     H33279  -0.149   1.834   4.788  0.1015  0.2796  0.0187
 1010MOL0     H33280  -0.426   1.851   4.659 -1.3835 -1.3522  1.3344
 1010MOL0     H33281  -0.300   1.706   4.663  1.7348  0.7463 -0.5762
 1010MOL0     H33282  -0.215   1.638   4.433  1.8919 -1.9955 -1.8032
 1010MOL0     H33283   0.014   1.547   4.374 -3.3733 -1.4559  2.5569
 1010MOL0     H33284   0.445   1.470   4.433 -4.9650 -3.1720 -2.2490
 1010MOL0     H33285   0.669   1.391   4.343 -0.0170 -0.5615 -0.4947
 1010MOL0     H33286   0.769   1.268   4.150 -1.7962  1.2503 -0.2087
 1010MOL0     H33287   0.868   1.364   4.255 -0.4051 -1.3229  0.8371
 1010MOL0     H33288   1.025   1.415   4.070 -1.4267  1.0202  0.3397
 1010MOL0     H33289   0.935   1.312   3.957  1.5511 -2.7184 -0.5899
 1010MOL0     H33290   0.949   1.121   4.092  1.6969 -0.8499  0.0345
 1010MOL0     H33291   1.061   1.193   4.205  1.4564  0.5392  0.0032
 1010MOL0     H33292   1.096   1.145   3.900  0.5229  0.1863 -1.0632
 1010MOL0     H33293   1.207   1.248   3.990 -0.9365  0.8298 -3.8683
 1010MOL0     H33294   1.127   0.942   4.046  0.1027  0.5637  2.0248
 1010MOL0     H33295   1.251   1.028   4.139 -0.3022  0.1937  0.6098
 1010MOL0     H33296   1.397   1.025   3.935  0.2312 -0.1263  0.5810
 1010MOL0     H33297   1.262   0.968   3.841  0.2336  3.4028  1.5569
 1010MOL0     H33298   1.260   0.755   3.986 -1.1939  1.9254  1.4501
 1010MOL0     H33299   1.396   0.783   3.876  0.0169  4.5872 -1.8795
 1010MOL0     H33300   1.463   0.701   4.085  0.7845  0.1258 -1.3556
 1010MOL0     H33301   1.411   0.854   4.173 -1.9587  1.6425 -0.5118
 1010MOL0     H33302   0.592   1.649   3.994  2.6107  1.5442  1.2499
 1010MOL0     H33303   0.366   1.653   4.053  2.4576  0.6023 -1.7653
 1010MOL0     H33304   0.186   1.912   4.516  0.1046  1.1563 -3.4602
 1010MOL0     H33305  -0.037   2.000   4.560 -0.6114 -0.2936  0.5512
 1010MOL0     H33306   1.200   1.798   4.680  0.5090 -0.7210 -3.0359
 1010MOL0     H33307   1.427   1.723   4.597 -0.0204  0.8227  0.1638
 1010MOL0     H33308   1.847   2.069   4.288  4.7303  1.2092 -3.7731
 1010MOL0     H33309   2.075   2.038   4.243 -0.4284  0.2977 -0.0653
 1010MOL0     H33310   2.406   1.915   4.227 -0.5538  1.9942 -4.1931
 1010MOL0     H33311   2.244   1.963   4.175 -1.2471 -0.9999  0.1515
 1010MOL0     H33312   2.355   1.676   4.204 -2.0387  0.1937  1.0711
 1010MOL0     H33313   2.203   1.711   4.119 -0.2007 -0.0169 -0.6325
 1010MOL0     H33314   2.488   1.746   4.010 -0.2622 -1.6285  1.1629
 1010MOL0     H33315   2.349   1.836   3.948  3.9716  2.2956  0.5091
 1010MOL0     H33316   2.319   1.548   3.967 -2.4107 -0.3483 -2.0528
 1010MOL0     H33317   2.224   1.670   3.881  0.6329 -1.5106 -1.0668
 1010MOL0     H33318   2.541   1.611   3.607  1.6606 -3.9012  0.8419
 1010MOL0     H33319   2.093   1.696   4.499 -0.4545 -1.1828 -2.8092
 1010MOL0     H33320   1.856   1.735   4.560 -0.3846 -0.9095 -1.3443
 1011MOL0     O33321  10.562   0.395   3.572  0.1457  0.2184 -0.6892
 1011MOL0     C33322  10.536   0.503   3.620  0.2384 -0.0517 -0.5350
 1011MOL0     O33323  10.419   0.537   3.682  0.0882 -0.7426  0.2029
 1011MOL0     C33324  10.324   0.450   3.725 -0.2143 -0.9112 -0.2985
 1011MOL0     C33325  10.217   0.510   3.787 -0.2555 -0.8885 -0.0243
 1011MOL0     C33326  10.115   0.436   3.856  0.1169  0.5386 -0.1277
 1011MOL0     C33327  10.119   0.296   3.853 -0.1923 -0.0169 -0.0242
 1011MOL0     O33328  10.031   0.221   3.928 -0.1892  0.4333 -1.0851
 1011MOL0     C33329  10.090   0.144   4.033 -0.4140 -0.1815 -0.2776
 1011MOL0     C33330  10.005   0.017   4.065 -0.1857  0.5265 -0.3480
 1011MOL0     C33331  10.095  -0.060   4.163  0.8663  0.7944  0.0772
 1011MOL0     C33332  10.012  -0.181   4.208 -0.0151 -0.8412 -0.1830
 1011MOL0     C33333  10.097  -0.274   4.282 -0.7627 -0.0574  0.9838
 1011MOL0     C33334  10.044  -0.416   4.303  0.1802  0.4049  0.0856
 1011MOL0     C33335   9.905  -0.398   4.377 -0.7032 -0.6204  1.0390
 1011MOL0     C33336   9.893  -0.536   4.450  0.4037 -0.3634 -0.1626
 1011MOL0     N33337   9.748  -0.563   4.475  0.0580 -0.1215 -0.1201
 1011MOL0     C33338   9.657  -0.606   4.381 -0.2350 -0.3752 -0.2651
 1011MOL0     C33339   9.541  -0.554   4.421  0.2180 -0.1875  0.1200
 1011MOL0     C33340   9.411  -0.564   4.344 -0.2711  0.0836 -0.1019
 1011MOL0     C33341   9.364  -0.701   4.318  0.1331  0.4204 -0.1705
 1011MOL0     C33342   9.282  -0.768   4.430  0.6357  0.2351 -1.1933
 1011MOL0     C33343   9.152  -0.701   4.456  0.3003 -0.5124 -0.0351
 1011MOL0     O33344   9.058  -0.750   4.364  0.9091 -0.7404  0.8792
 1011MOL0     C33345   8.923  -0.736   4.391  0.4867  0.4550  0.6910
 1011MOL0     C33346   8.836  -0.821   4.322 -0.1602 -0.7999  0.1775
 1011MOL0     C33347   8.703  -0.825   4.362 -0.4934  1.2090 -0.2443
 1011MOL0     C33348   8.645  -0.734   4.454  0.5735 -0.6789  0.1456
 1011MOL0     C33349   8.500  -0.715   4.467  0.0772 -1.4160 -0.3050
 1011MOL0     O33350   8.450  -0.635   4.566  1.0671  0.5343 -0.5568
 1011MOL0     C33351   8.318  -0.595   4.558  0.1873 -0.1390  0.6414
 1011MOL0     C33352   8.230  -0.644   4.645  0.5209  0.0114 -1.1720
 1011MOL0     C33353   8.099  -0.610   4.639 -0.1744  0.0932 -0.1608
 1011MOL0     C33354   8.044  -0.539   4.535 -0.4201 -0.2416 -0.3731
 1011MOL0     O33355   7.906  -0.513   4.536  0.2214  0.1473 -0.0198
 1011MOL0     C33356   7.839  -0.471   4.415 -0.3850 -0.6380  0.6458
 1011MOL0     C33357   7.750  -0.573   4.345 -0.1946  0.4143  0.4838
 1011MOL0     C33358   7.661  -0.511   4.243  0.9590 -0.0399  0.5827
 1011MOL0     C33359   7.548  -0.609   4.192 -0.6165 -0.6086  0.4610
 1011MOL0     C33360   7.456  -0.565   4.081  0.3725 -1.1040 -0.2499
 1011MOL0     C33361   7.366  -0.441   4.111 -0.7991  0.3079 -0.4791
 1011MOL0     C33362   7.279  -0.406   3.988  0.7283 -0.4032  0.2604
 1011MOL0     C33363   7.156  -0.315   4.023  0.3877  0.6435  0.5869
 1011MOL0    Cl33364   7.052  -0.276   3.878 -0.5525  0.0889 -0.5378
 1011MOL0     C33365   8.136  -0.491   4.441 -0.1860  0.3031  0.0808
 1011MOL0     C33366   8.275  -0.525   4.449  0.0083  0.0299 -0.5331
 1011MOL0     O33367   8.431  -0.771   4.380  0.4906  0.2146 -0.4588
 1011MOL0     C33368   8.740  -0.652   4.513  0.0467 -0.2329 -0.5177
 1011MOL0     C33369   8.878  -0.651   4.491  0.1663 -0.0023 -0.8294
 1011MOL0     N33370   9.549  -0.505   4.552 -0.2963  0.4017 -0.4680
 1011MOL0     N33371   9.673  -0.503   4.575 -0.4946 -0.5009  0.4369
 1011MOL0     C33372  10.229   0.239   3.788 -0.7647  0.7602 -0.6188
 1011MOL0     C33373  10.321   0.313   3.730 -0.5634 -0.7505  0.2308
 1011MOL0     C33374  10.639   0.599   3.589 -0.1670  0.7258  0.9527
 1011MOL0     C33375  10.769   0.557   3.579 -0.0819  0.9849 -0.6111
 1011MOL0     C33376  10.880   0.647   3.574 -0.1189 -1.4139  0.2351
 1011MOL0     C33377  10.848   0.783   3.567 -0.6120 -0.7305  0.4140
 1011MOL0     O33378  10.942   0.880   3.550  0.1993 -0.2973 -0.1377
 1011MOL0     C33379  11.074   0.862   3.608 -0.3552  0.3042  0.1958
 1011MOL0     C33380  11.184   0.947   3.530  0.0810 -0.1218  0.8496
 1011MOL0     C33381  11.318   0.940   3.590  0.2587 -0.3435  0.1601
 1011MOL0     C33382  11.415   1.040   3.520  0.6797 -0.5017 -0.8040
 1011MOL0     C33383  11.426   1.012   3.376  0.7969 -0.4293  0.0726
 1011MOL0     C33384  11.425   0.990   3.258  0.6350 -0.3701 -0.4215
 1011MOL0     C33385  10.719   0.826   3.565 -0.0451 -0.0563 -0.5581
 1011MOL0     C33386  10.611   0.734   3.581  0.9787 -1.2542 -0.9809
 1011MOL0     H33387  10.214   0.618   3.778 -1.4870 -1.0344 -2.2094
 1011MOL0     H33388  10.036   0.481   3.915  0.4228 -0.1313  0.8320
 1011MOL0     H33389  10.093   0.211   4.120  2.2468  0.3547 -0.7015
 1011MOL0     H33390  10.189   0.111   4.000  0.7586  0.7182  2.1024
 1011MOL0     H33391   9.987  -0.037   3.972 -0.5611 -1.1255  0.6375
 1011MOL0     H33392   9.906   0.042   4.103 -0.5106 -2.3772  1.0316
 1011MOL0     H33393  10.111   0.012   4.244 -4.5261  3.3124 -0.6701
 1011MOL0     H33394  10.186  -0.096   4.114 -0.3255  0.4758 -1.9999
 1011MOL0     H33395   9.933  -0.153   4.279 -0.3143 -2.8653  0.3464
 1011MOL0     H33396   9.976  -0.238   4.122  1.4472  0.0488 -1.4297
 1011MOL0     H33397  10.104  -0.241   4.386 -2.2665 -2.8442  2.0552
 1011MOL0     H33398  10.199  -0.282   4.242 -0.8994  2.0688  0.0617
 1011MOL0     H33399  10.115  -0.466   4.369 -0.3435 -0.8178 -0.2615
 1011MOL0     H33400  10.038  -0.480   4.215  2.4202  0.0187  0.1688
 1011MOL0     H33401   9.907  -0.320   4.454 -1.1967  0.5897 -0.1422
 1011MOL0     H33402   9.821  -0.371   4.314  0.2422 -2.3164 -1.1012
 1011MOL0     H33403   9.951  -0.537   4.543  1.2403  0.7198 -0.6444
 1011MOL0     H33404   9.939  -0.608   4.381 -0.4869 -0.4602 -0.6649
 1011MOL0     H33405   9.678  -0.666   4.293  1.0469  1.5656 -1.3694
 1011MOL0     H33406   9.437  -0.523   4.247 -1.6802  1.3899  0.0293
 1011MOL0     H33407   9.328  -0.508   4.388 -0.8264 -0.8772  0.1087
 1011MOL0     H33408   9.448  -0.763   4.284 -0.5073  0.5883 -2.1948
 1011MOL0     H33409   9.315  -0.694   4.220 -0.1626  0.5909 -0.0113
 1011MOL0     H33410   9.249  -0.866   4.394 -2.5788  1.7558 -2.8342
 1011MOL0     H33411   9.342  -0.774   4.521  0.4058 -0.4168 -1.0847
 1011MOL0     H33412   9.174  -0.595   4.438  4.0455 -0.4846  3.2957
 1011MOL0     H33413   9.117  -0.706   4.559 -0.1177  0.6548 -0.1065
 1011MOL0     H33414   8.860  -0.890   4.241  0.4433 -2.9272  2.0467
 1011MOL0     H33415   8.633  -0.884   4.303 -0.3527  1.5256 -0.7438
 1011MOL0     H33416   8.262  -0.708   4.726  0.4699  0.7967 -0.5162
 1011MOL0     H33417   8.030  -0.657   4.709 -0.9907 -2.6668 -2.5905
 1011MOL0     H33418   7.914  -0.443   4.341 -0.6967 -1.5650 -0.0329
 1011MOL0     H33419   7.778  -0.383   4.437 -0.4785 -0.9123  1.5196
 1011MOL0     H33420   7.682  -0.619   4.418 -0.8406  0.8650  0.1666
 1011MOL0     H33421   7.816  -0.655   4.314 -0.2481  1.2934 -2.1364
 1011MOL0     H33422   7.708  -0.463   4.158 -1.8227  0.6778 -0.6796
 1011MOL0     H33423   7.612  -0.432   4.301  0.9213  0.6677 -0.3977
 1011MOL0     H33424   7.594  -0.700   4.152 -3.2812 -2.9786  2.3217
 1011MOL0     H33425   7.491  -0.641   4.280  0.8045 -0.4327  1.4642
 1011MOL0     H33426   7.398  -0.641   4.029  0.4502 -0.6890 -0.9535
 1011MOL0     H33427   7.529  -0.535   4.006  1.1982  0.7509  1.2052
 1011MOL0     H33428   7.416  -0.353   4.154 -3.6521  0.6659  2.4894
 1011MOL0     H33429   7.293  -0.458   4.190 -0.2566  1.0769  0.2123
 1011MOL0     H33430   7.345  -0.354   3.919  0.5985  1.2590  1.3382
 1011MOL0     H33431   7.245  -0.505   3.956  0.5104 -0.3024  0.1781
 1011MOL0     H33432   7.190  -0.223   4.072 -2.0897  1.3094  1.2267
 1011MOL0     H33433   7.088  -0.368   4.091 -0.7275  2.4150  0.9328
 1011MOL0     H33434   8.112  -0.419   4.363  1.7255  2.3045  1.2305
 1011MOL0     H33435   8.346  -0.477   4.384 -0.5188 -0.4946 -1.5239
 1011MOL0     H33436   8.698  -0.571   4.572  2.2265  0.8925 -0.4075
 1011MOL0     H33437   8.939  -0.587   4.553 -0.7924 -0.3771  0.5604
 1011MOL0     H33438  10.236   0.133   3.764  1.8990  0.9516 -1.0423
 1011MOL0     H33439  10.397   0.267   3.668 -0.9557  3.3464 -3.7844
 1011MOL0     H33440  10.798   0.454   3.600  2.1662  1.6229 -0.3096
 1011MOL0     H33441  10.986   0.622   3.575  0.6126  1.3432  1.6074
 1011MOL0     H33442  11.118   0.764   3.590  1.7393  1.5861 -2.3698
 1011MOL0     H33443  11.070   0.895   3.712  0.8983  0.8089  0.0982
 1011MOL0     H33444  11.187   0.908   3.427  0.4869 -0.6960  1.0736
 1011MOL0     H33445  11.141   1.047   3.525 -1.8334 -0.7497  2.9023
 1011MOL0     H33446  11.348   0.836   3.579  0.9508 -0.4660  2.6253
 1011MOL0     H33447  11.315   0.960   3.697  0.8296  1.2111 -0.0854
 1011MOL0     H33448  11.368   1.139   3.516  0.4521 -0.6449 -2.2921
 1011MOL0     H33449  11.511   1.044   3.572 -0.2885 -3.8423  1.5229
 1011MOL0     H33450  11.419   0.972   3.152 -2.0431  1.0952 -0.6091
 1011MOL0     H33451  10.698   0.931   3.545 -0.9925  0.6367  3.2907
 1011MOL0     H33452  10.509   0.773   3.585  1.4381 -0.0975 -0.2077
 1012MOL0     O33453   2.738   4.842   8.574 -0.1939 -0.4550 -0.5885
 1012MOL0     C33454   2.724   4.919   8.478 -0.2243  0.1774 -0.6544
 1012MOL0     O33455   2.818   4.986   8.408 -0.1047  0.1255 -0.3324
 1012MOL0     C33456   2.940   5.009   8.463  0.8780  0.0156 -0.4341
 1012MOL0     C33457   2.956   5.115   8.544  0.5837 -0.5784 -0.2645
 1012MOL0     C33458   3.081   5.158   8.593  0.0673  1.1142 -0.7151
 1012MOL0     C33459   3.194   5.082   8.561 -0.2293 -0.6114 -0.1213
 1012MOL0     O33460   3.319   5.118   8.610 -0.8330 -0.4151 -0.5727
 1012MOL0     C33461   3.398   5.009   8.654 -0.0289  0.6193 -0.6219
 1012MOL0     C33462   3.544   5.040   8.687 -0.3755 -0.3455  0.3615
 1012MOL0     C33463   3.619   5.075   8.560 -0.1864  0.3276  0.1039
 1012MOL0     C33464   3.762   5.113   8.580 -0.1101  0.3652  0.4418
 1012MOL0     C33465   3.780   5.257   8.617 -0.0138 -0.3801 -0.0847
 1012MOL0     C33466   3.921   5.295   8.659  0.5453  0.0996  0.2644
 1012MOL0     C33467   3.948   5.439   8.644  0.2905 -0.1111 -0.6313
 1012MOL0     C33468   4.093   5.478   8.683  0.0139 -0.0498 -0.2698
 1012MOL0     N33469   4.118   5.630   8.682  0.3967  0.3125 -0.0799
 1012MOL0     C33470   4.025   5.728   8.717 -0.1513 -0.0250 -0.1831
 1012MOL0     C33471   4.080   5.847   8.670  0.0130 -0.2937  0.1057
 1012MOL0     C33472   4.024   5.990   8.672  0.9848 -0.8045  0.5352
 1012MOL0     C33473   3.955   6.033   8.795 -0.2569  1.0798 -0.0592
 1012MOL0     C33474   4.050   6.010   8.920  0.7524 -0.6291  0.5684
 1012MOL0     C33475   3.977   5.997   9.045  0.3774  0.0765  0.3639
 1012MOL0     O33476   3.868   5.901   9.052  0.7691 -0.1566 -0.1340
 1012MOL0     C33477   3.890   5.771   9.028  0.1215 -0.8713 -0.4650
 1012MOL0     C33478   3.776   5.682   9.002 -0.7150 -0.0385  0.0493
 1012MOL0     C33479   3.783   5.552   8.987  0.1154  0.6268  0.1147
 1012MOL0     C33480   3.903   5.496   9.012 -0.1500 -0.1604 -0.7942
 1012MOL0     C33481   3.905   5.356   9.028 -0.3411  0.2190  0.1679
 1012MOL0     O33482   3.792   5.288   9.068 -0.4390  0.7329  0.3978
 1012MOL0     C33483   3.799   5.153   9.072  0.0356  1.8145 -0.2063
 1012MOL0     C33484   3.814   5.074   8.960 -0.8191  0.7582 -0.2097
 1012MOL0     C33485   3.823   4.934   8.968  0.1956 -0.3118  0.5674
 1012MOL0     C33486   3.818   4.882   9.097 -0.2007 -0.0113 -0.1298
 1012MOL0     O33487   3.839   4.746   9.103  0.1902  0.1743  0.3941
 1012MOL0     C33488   3.813   4.666   9.220  0.6368 -0.3741  0.0152
 1012MOL0     C33489   3.825   4.522   9.173  0.3422  0.2987  0.5278
 1012MOL0     C33490   3.972   4.462   9.178 -0.3692 -0.2397  0.0465
 1012MOL0     C33491   3.982   4.312   9.137 -0.3372 -0.3137  0.4448
 1012MOL0     C33492   4.120   4.273   9.071  0.0443 -0.3563  0.1535
 1012MOL0     C33493   4.250   4.277   9.170  1.3615 -1.0133 -0.3958
 1012MOL0     C33494   4.373   4.233   9.090  0.8922 -0.1081 -0.3007
 1012MOL0     C33495   4.498   4.234   9.183 -0.0045 -0.1956  0.1224
 1012MOL0    Cl33496   4.641   4.232   9.084 -0.2589  0.0309 -0.0706
 1012MOL0     C33497   3.806   4.959   9.207  0.7620 -0.5515 -0.4424
 1012MOL0     C33498   3.788   5.098   9.200  0.5523  0.3228 -0.4476
 1012MOL0     O33499   4.007   5.293   9.007 -0.3448 -0.3758  0.0454
 1012MOL0     C33500   4.016   5.569   9.035  0.1872  0.1962  0.2831
 1012MOL0     C33501   4.014   5.706   9.035  0.5021 -0.6213  0.7095
 1012MOL0     N33502   4.197   5.821   8.605 -0.2248 -0.2312  0.2746
 1012MOL0     N33503   4.215   5.692   8.616 -0.3352  0.0633 -0.2259
 1012MOL0     C33504   3.179   4.979   8.467 -0.4189 -1.1714 -1.0950
 1012MOL0     C33505   3.059   4.943   8.415  0.7446 -0.1385  0.6457
 1012MOL0     C33506   2.585   4.924   8.429  0.8523 -0.7326  0.4333
 1012MOL0     C33507   2.552   4.999   8.315  0.6268 -0.2382  0.3553
 1012MOL0     C33508   2.420   5.014   8.258 -0.3348 -0.6201 -1.1991
 1012MOL0     C33509   2.320   4.935   8.313  0.0904 -0.2141  0.8252
 1012MOL0     O33510   2.194   4.965   8.256 -0.0928  0.0535  0.2415
 1012MOL0     C33511   2.102   4.858   8.286 -1.2259 -0.8434  0.6192
 1012MOL0     C33512   1.983   4.863   8.186  0.3548 -0.2005  0.9531
 1012MOL0     C33513   1.940   4.731   8.141 -0.3260  0.5844  0.1233
 1012MOL0     C33514   1.794   4.700   8.166  0.4744 -0.7090  0.5382
 1012MOL0     C33515   1.730   4.593   8.084  0.3534  0.6260 -0.4642
 1012MOL0     C33516   1.661   4.509   8.036  0.0244  0.0071  0.2317
 1012MOL0     C33517   2.350   4.840   8.414 -0.3054 -0.8421  0.1580
 1012MOL0     C33518   2.481   4.841   8.476  0.2487  0.7786  0.5700
 1012MOL0     H33519   2.858   5.155   8.565  0.7303  0.6486 -1.7151
 1012MOL0     H33520   3.093   5.245   8.657  1.9805  0.0306  0.4986
 1012MOL0     H33521   3.394   4.929   8.580 -1.1815  0.3379 -0.2709
 1012MOL0     H33522   3.361   4.981   8.753 -0.9331  3.4984 -0.0660
 1012MOL0     H33523   3.598   4.948   8.713  1.3995  0.0651 -1.6164
 1012MOL0     H33524   3.551   5.118   8.763  1.1284  0.2439 -0.3330
 1012MOL0     H33525   3.557   5.152   8.511 -0.4245  0.2939  0.3507
 1012MOL0     H33526   3.616   4.997   8.484 -2.9008 -0.1370  0.5884
 1012MOL0     H33527   3.815   5.053   8.655  1.3092  0.5879 -0.3410
 1012MOL0     H33528   3.823   5.098   8.491 -0.2412 -0.0506  0.4165
 1012MOL0     H33529   3.717   5.278   8.704 -0.3080  1.6071 -0.7341
 1012MOL0     H33530   3.742   5.327   8.543 -1.7877  0.6321  1.6880
 1012MOL0     H33531   4.002   5.248   8.603 -0.7539 -0.9473 -0.7973
 1012MOL0     H33532   3.932   5.277   8.766  3.5628 -1.8369 -0.2469
 1012MOL0     H33533   3.934   5.469   8.540  0.7331  3.0207  0.1137
 1012MOL0     H33534   3.888   5.502   8.711  2.6552  2.5354 -0.8417
 1012MOL0     H33535   4.172   5.427   8.627  0.8750 -0.9598  1.6723
 1012MOL0     H33536   4.115   5.445   8.785 -0.7564  0.0291 -0.0757
 1012MOL0     H33537   3.923   5.723   8.754 -0.9977  0.6040 -2.3013
 1012MOL0     H33538   3.957   6.008   8.588  1.7241 -2.1084 -0.3670
 1012MOL0     H33539   4.107   6.059   8.651  0.0366  0.2963  0.3231
 1012MOL0     H33540   3.860   5.981   8.806 -0.7324  2.1254  0.9472
 1012MOL0     H33541   3.942   6.141   8.786 -0.6666  1.0876  0.5725
 1012MOL0     H33542   4.121   5.928   8.907  0.6709 -0.3948 -1.9948
 1012MOL0     H33543   4.110   6.099   8.943  0.4478 -0.1679 -0.3543
 1012MOL0     H33544   3.952   6.102   9.067  2.3622  1.1979 -2.1062
 1012MOL0     H33545   4.060   5.975   9.112  0.2107 -2.0920 -0.0678
 1012MOL0     H33546   3.678   5.728   8.990  0.2330  1.6182 -2.2037
 1012MOL0     H33547   3.690   5.500   8.966 -0.0356  0.7408  0.4868
 1012MOL0     H33548   3.825   5.116   8.860 -1.2533  1.5413  0.0627
 1012MOL0     H33549   3.834   4.857   8.892 -1.6081 -3.2913  3.0547
 1012MOL0     H33550   3.714   4.686   9.264  0.5233  1.9222 -1.1379
 1012MOL0     H33551   3.880   4.692   9.301  0.8358  1.1022 -0.5887
 1012MOL0     H33552   3.783   4.504   9.074 -0.2461 -1.8877  1.1114
 1012MOL0     H33553   3.763   4.465   9.244  3.5734 -0.2422  3.1592
 1012MOL0     H33554   4.025   4.483   9.271 -0.0161  1.4199 -0.4888
 1012MOL0     H33555   4.029   4.518   9.103 -3.1202  1.1473 -1.1344
 1012MOL0     H33556   3.971   4.249   9.226 -1.8621  0.7080  1.0251
 1012MOL0     H33557   3.898   4.284   9.073 -3.4612  1.6463  3.3868
 1012MOL0     H33558   4.139   4.327   8.978  0.5069 -0.3276  0.2625
 1012MOL0     H33559   4.111   4.169   9.038  0.9448 -0.9973  1.8114
 1012MOL0     H33560   4.228   4.218   9.260  3.2395  1.3188  1.7385
 1012MOL0     H33561   4.247   4.375   9.218  0.2862 -0.7273 -1.0270
 1012MOL0     H33562   4.353   4.129   9.064 -3.2186 -0.4560  3.0137
 1012MOL0     H33563   4.383   4.304   9.008 -2.2425 -0.2615 -0.9594
 1012MOL0     H33564   4.513   4.136   9.227  4.2209 -1.3639 -3.2296
 1012MOL0     H33565   4.498   4.312   9.260  2.1500 -0.7273  0.7251
 1012MOL0     H33566   3.820   4.910   9.303  0.6385  2.0756  0.9990
 1012MOL0     H33567   3.771   5.161   9.287  1.1754  2.8247 -2.0240
 1012MOL0     H33568   4.107   5.516   9.061  1.1055  0.7264 -1.6456
 1012MOL0     H33569   4.113   5.746   9.054  0.9294 -2.3367  2.3335
 1012MOL0     H33570   3.265   4.935   8.417 -1.1205 -0.3860 -3.1284
 1012MOL0     H33571   3.063   4.864   8.341  1.2691  1.1444 -0.7487
 1012MOL0     H33572   2.629   5.067   8.280 -0.9714  1.8751  0.7738
 1012MOL0     H33573   2.419   5.076   8.169  0.8286 -2.6198 -2.6823
 1012MOL0     H33574   2.071   4.861   8.391 -3.0228  1.8323  0.1074
 1012MOL0     H33575   2.149   4.760   8.274  1.0808  0.2284  0.5389
 1012MOL0     H33576   1.894   4.912   8.226 -0.3650 -0.6278 -0.0829
 1012MOL0     H33577   2.018   4.914   8.096  1.5820 -0.7782  1.0741
 1012MOL0     H33578   2.005   4.656   8.187 -1.8039 -0.1817  1.0331
 1012MOL0     H33579   1.955   4.731   8.033  1.1182  0.9696  0.3036
 1012MOL0     H33580   1.780   4.677   8.272  1.1562 -2.7877  0.2145
 1012MOL0     H33581   1.747   4.799   8.156  1.7091  0.1175  2.2901
 1012MOL0     H33582   1.591   4.439   7.995  1.2611 -1.1854  0.0772
 1012MOL0     H33583   2.287   4.759   8.451 -0.3091 -0.3000  1.4196
 1012MOL0     H33584   2.501   4.775   8.560  2.8731  0.5240 -0.1712
 1013MOL0     O33585   2.843   9.743   3.664  0.1716 -0.3349 -0.2721
 1013MOL0     C33586   2.909   9.703   3.761  0.6034 -0.5258 -0.4552
 1013MOL0     O33587   2.877   9.596   3.847  0.5382  0.3131  0.5989
 1013MOL0     C33588   2.770   9.516   3.825 -0.2583  0.0162  1.2362
 1013MOL0     C33589   2.778   9.383   3.860 -0.1997  1.1728  0.4630
 1013MOL0     C33590   2.663   9.297   3.851 -0.2195 -0.2197 -0.6427
 1013MOL0     C33591   2.537   9.347   3.803  0.5145  0.3510 -0.9685
 1013MOL0     O33592   2.416   9.272   3.798  0.1027  1.3973 -0.1293
 1013MOL0     C33593   2.436   9.127   3.815  1.0555 -0.6184  1.6050
 1013MOL0     C33594   2.300   9.067   3.844 -0.1956 -0.3533 -0.7987
 1013MOL0     C33595   2.188   9.089   3.742 -0.0270 -0.1847 -0.3627
 1013MOL0     C33596   2.053   9.024   3.767 -0.1868  0.2564  0.4152
 1013MOL0     C33597   2.009   9.025   3.919 -1.1045  0.4573 -0.1186
 1013MOL0     C33598   1.875   8.957   3.926 -0.2822 -1.4194  0.3479
 1013MOL0     C33599   1.836   8.958   4.074  0.3007  0.2551 -0.2400
 1013MOL0     C33600   1.802   9.100   4.111 -0.7029  0.1414 -0.0321
 1013MOL0     N33601   1.722   9.106   4.238 -0.3914  0.0685  0.9340
 1013MOL0     C33602   1.615   9.190   4.245  0.2573  0.3152  0.3253
 1013MOL0     C33603   1.583   9.184   4.376  1.2911  0.7028  0.9415
 1013MOL0     C33604   1.464   9.259   4.440  0.1833  0.7428 -0.0334
 1013MOL0     C33605   1.343   9.170   4.443  0.6202 -0.4511 -0.7677
 1013MOL0     C33606   1.271   9.146   4.311  0.3278 -0.1711  0.6706
 1013MOL0     C33607   1.191   9.271   4.254 -0.4519  0.4867 -0.6456
 1013MOL0     O33608   1.076   9.288   4.341 -0.0706 -0.1619 -0.0377
 1013MOL0     C33609   0.965   9.343   4.284  0.3878 -0.0554 -0.3270
 1013MOL0     C33610   0.840   9.321   4.333  0.4327 -0.7192 -0.3831
 1013MOL0     C33611   0.723   9.354   4.266 -0.2330  0.2512  0.2941
 1013MOL0     C33612   0.735   9.416   4.145  0.1290 -1.0604 -0.6991
 1013MOL0     C33613   0.620   9.431   4.063  0.5073 -0.3807  0.3180
 1013MOL0     O33614   0.633   9.529   3.975 -0.0108 -0.5786  0.2272
 1013MOL0     C33615   0.565   9.552   3.853  0.0301 -0.1624  0.6858
 1013MOL0     C33616   0.605   9.660   3.783 -0.1243  0.3714 -0.0518
 1013MOL0     C33617   0.566   9.670   3.647 -0.2593 -0.5393 -0.6207
 1013MOL0     C33618   0.491   9.573   3.582  0.1362  0.0777  0.1692
 1013MOL0     O33619   0.457   9.603   3.454 -0.5456 -0.6454  0.3200
 1013MOL0     C33620   0.356   9.522   3.398  0.1670 -0.0031  0.0969
 1013MOL0     C33621   0.411   9.400   3.318 -0.0260  0.2508  0.0592
 1013MOL0     C33622   0.319   9.286   3.272 -1.2636 -0.8051 -0.3869
 1013MOL0     C33623   0.168   9.282   3.312 -0.4340 -0.3935  1.0878
 1013MOL0     C33624   0.079   9.240   3.193 -0.8190  0.1617  0.8392
 1013MOL0     C33625  -0.062   9.187   3.228  0.1053 -0.7542  0.4439
 1013MOL0     C33626  -0.163   9.297   3.283  0.8300 -0.3009 -1.0604
 1013MOL0     C33627  -0.148   9.305   3.433 -0.6536 -0.2199 -0.0527
 1013MOL0    Cl33628  -0.276   9.418   3.502 -0.0162  0.2901 -0.3486
 1013MOL0     C33629   0.442   9.468   3.657 -0.1677  0.5810  0.2836
 1013MOL0     C33630   0.477   9.458   3.789  0.4230 -0.1895 -0.1050
 1013MOL0     O33631   0.532   9.345   4.064  0.1365 -0.4994  0.1446
 1013MOL0     C33632   0.861   9.455   4.110  0.2282 -0.6270  0.1219
 1013MOL0     C33633   0.976   9.425   4.172  0.8786  1.0659 -0.3950
 1013MOL0     N33634   1.673   9.107   4.440 -0.0004 -0.2858 -0.4467
 1013MOL0     N33635   1.756   9.052   4.359 -1.1213  0.3170  0.7333
 1013MOL0     C33636   2.539   9.474   3.756  0.7403  0.5978 -0.2175
 1013MOL0     C33637   2.653   9.557   3.769  0.1503 -0.1487 -0.0695
 1013MOL0     C33638   3.023   9.780   3.799  0.2576 -0.1790 -0.5560
 1013MOL0     C33639   3.050   9.915   3.755 -0.1839  0.1843 -0.1803
 1013MOL0     C33640   3.152   9.994   3.792 -0.3775 -0.4973  0.3579
 1013MOL0     C33641   3.246   9.947   3.885 -0.1943  0.7006  1.2862
 1013MOL0     O33642   3.349  10.014   3.936 -0.3874 -0.2935 -0.9965
 1013MOL0     C33643   3.340  10.159   3.942  0.3639  0.1133 -0.2622
 1013MOL0     C33644   3.466  10.209   4.035 -0.4332  0.4365 -0.1630
 1013MOL0     C33645   3.452  10.363   4.047  0.0991 -0.2042 -0.8917
 1013MOL0     C33646   3.519  10.424   4.171  0.7621  0.2272 -0.4490
 1013MOL0     C33647   3.661  10.402   4.173  0.1079 -0.2660  0.3684
 1013MOL0     C33648   3.777  10.402   4.153  0.4428  0.4677 -0.2543
 1013MOL0     C33649   3.226   9.814   3.929  1.1527  0.5798 -0.1469
 1013MOL0     C33650   3.113   9.736   3.899 -0.0861  0.2376  0.0674
 1013MOL0     H33651   2.872   9.344   3.897 -1.3133 -3.4575 -0.8999
 1013MOL0     H33652   2.688   9.194   3.873  2.2017  0.2251 -0.9643
 1013MOL0     H33653   2.500   9.089   3.895  1.8765 -3.6538 -0.3189
 1013MOL0     H33654   2.472   9.077   3.725 -0.6085  1.9329 -0.6229
 1013MOL0     H33655   2.272   9.112   3.940 -1.8420  0.0281 -1.4246
 1013MOL0     H33656   2.297   8.958   3.853 -1.3268 -0.3173 -0.5804
 1013MOL0     H33657   2.229   9.063   3.644  0.4668 -2.7542  0.4549
 1013MOL0     H33658   2.164   9.196   3.741 -3.9423 -0.8930  0.3145
 1013MOL0     H33659   1.973   9.065   3.704  0.2174 -2.5687 -2.1677
 1013MOL0     H33660   2.065   8.916   3.752 -0.8007  0.2305  0.0902
 1013MOL0     H33661   1.998   9.126   3.959 -3.3703  2.5217 -5.1085
 1013MOL0     H33662   2.079   8.966   3.979  0.8916  0.0645 -2.6093
 1013MOL0     H33663   1.868   8.853   3.892 -2.5069 -1.1412 -0.1601
 1013MOL0     H33664   1.807   9.010   3.859  3.3503  2.8930 -0.3840
 1013MOL0     H33665   1.750   8.894   4.094  0.0650  0.4246 -0.6963
 1013MOL0     H33666   1.919   8.918   4.134 -1.2161 -0.8903  1.1880
 1013MOL0     H33667   1.754   9.144   4.023  1.7735  0.4854 -1.2941
 1013MOL0     H33668   1.891   9.160   4.133 -0.2583  0.0436 -1.4791
 1013MOL0     H33669   1.582   9.246   4.158  1.0357 -0.7056 -0.6588
 1013MOL0     H33670   1.446   9.347   4.378  0.1269 -0.5942 -2.0060
 1013MOL0     H33671   1.495   9.281   4.543  0.2634 -1.3858  0.4347
 1013MOL0     H33672   1.269   9.196   4.520 -1.8963  0.4952 -3.3424
 1013MOL0     H33673   1.379   9.071   4.473 -0.4506 -0.2759  1.2977
 1013MOL0     H33674   1.341   9.114   4.233  0.3579  2.9463 -0.7464
 1013MOL0     H33675   1.197   9.066   4.321  0.0695 -0.0150  0.0390
 1013MOL0     H33676   1.161   9.245   4.152 -1.9382 -1.6704  0.2562
 1013MOL0     H33677   1.251   9.362   4.243 -2.4829  1.6410 -2.8950
 1013MOL0     H33678   0.836   9.276   4.432  2.5448 -0.2890 -0.0590
 1013MOL0     H33679   0.629   9.324   4.311  0.4146  0.2558  1.7099
 1013MOL0     H33680   0.658   9.748   3.818 -3.4721  2.0169  1.3480
 1013MOL0     H33681   0.604   9.746   3.579 -0.5870 -1.9265 -2.4322
 1013MOL0     H33682   0.290   9.579   3.332 -0.9350 -0.0777  1.1096
 1013MOL0     H33683   0.289   9.497   3.481 -1.1016  1.2356 -0.5135
 1013MOL0     H33684   0.489   9.343   3.369 -0.2386  1.3272  1.6699
 1013MOL0     H33685   0.454   9.452   3.232  1.8508 -1.3889 -0.0636
 1013MOL0     H33686   0.370   9.190   3.284  1.0376 -0.0664 -3.2057
 1013MOL0     H33687   0.317   9.304   3.164 -0.9953 -0.3451 -0.3176
 1013MOL0     H33688   0.148   9.227   3.404 -1.7087  0.1797  1.1762
 1013MOL0     H33689   0.148   9.386   3.340  4.7641  0.8980  1.1331
 1013MOL0     H33690   0.140   9.165   3.143 -1.5835  0.4952 -0.6651
 1013MOL0     H33691   0.061   9.325   3.126  0.0612 -1.0220 -0.9752
 1013MOL0     H33692  -0.055   9.106   3.302 -0.4420 -1.3768 -0.1804
 1013MOL0     H33693  -0.095   9.158   3.128 -0.4828 -0.2915  0.4999
 1013MOL0     H33694  -0.134   9.392   3.237  0.4460  0.7835  0.8496
 1013MOL0     H33695  -0.269   9.283   3.258  0.4387  1.3006 -0.3979
 1013MOL0     H33696  -0.043   9.325   3.458 -0.7627 -0.8322  0.9740
 1013MOL0     H33697  -0.165   9.202   3.467 -1.6032 -0.4257 -1.1015
 1013MOL0     H33698   0.377   9.390   3.619 -2.4054  2.8589 -0.8694
 1013MOL0     H33699   0.429   9.382   3.850  0.8455  0.8942  1.6369
 1013MOL0     H33700   0.877   9.517   4.023 -0.3990  1.5030  1.4569
 1013MOL0     H33701   1.067   9.465   4.128  4.2576 -2.1141  2.8848
 1013MOL0     H33702   2.447   9.502   3.707  0.6937  2.1446  0.6918
 1013MOL0     H33703   2.637   9.661   3.744 -0.3114  0.3842  2.1591
 1013MOL0     H33704   2.990   9.965   3.679 -0.5988  1.6153  1.0450
 1013MOL0     H33705   3.165  10.089   3.743  0.5322  1.0213  3.3281
 1013MOL0     H33706   3.248  10.190   3.991  0.2054  1.9242 -1.6064
 1013MOL0     H33707   3.344  10.193   3.838  0.1890  0.9108 -0.0123
 1013MOL0     H33708   3.455  10.172   4.137 -1.6648  1.2944  0.0397
 1013MOL0     H33709   3.565  10.184   3.996  0.3900  4.5313 -1.1954
 1013MOL0     H33710   3.345  10.389   4.043  0.5486  1.7857 -4.0300
 1013MOL0     H33711   3.492  10.409   3.956 -0.0699 -1.6513 -1.7257
 1013MOL0     H33712   3.496  10.531   4.159  2.5695  0.4390 -2.6325
 1013MOL0     H33713   3.468  10.391   4.262 -2.4188  3.6270 -0.7284
 1013MOL0     H33714   3.879  10.383   4.126 -0.6455 -3.2030 -2.5274
 1013MOL0     H33715   3.285   9.773   4.011 -2.1392 -1.6908  1.3478
 1013MOL0     H33716   3.113   9.647   3.961 -0.7684  0.7409  0.8059
 1014MOL0     O33717   4.812  10.076   1.645  1.1198  0.6965 -0.3510
 1014MOL0     C33718   4.913  10.102   1.708 -0.9917  0.4310 -0.3128
 1014MOL0     O33719   5.007  10.016   1.756 -0.3424  0.7262  0.0786
 1014MOL0     C33720   4.977   9.878   1.756  0.6518  0.2260 -0.1681
 1014MOL0     C33721   4.946   9.818   1.878  0.6526 -1.1447  0.6159
 1014MOL0     C33722   4.905   9.683   1.877  0.2646 -0.1815  0.3538
 1014MOL0     C33723   4.904   9.610   1.755 -0.0442  0.6184  0.3415
 1014MOL0     O33724   4.861   9.484   1.757 -0.1087 -0.3670 -0.0786
 1014MOL0     C33725   4.772   9.459   1.649 -0.1931 -1.0684  0.2932
 1014MOL0     C33726   4.692   9.332   1.671 -0.0395  0.3214  0.2112
 1014MOL0     C33727   4.553   9.352   1.736  0.1430 -0.5089  0.1776
 1014MOL0     C33728   4.437   9.242   1.721 -0.4272 -0.9439  0.1655
 1014MOL0     C33729   4.458   9.107   1.790  0.7646 -0.6043 -0.7024
 1014MOL0     C33730   4.488   9.100   1.939  0.1363 -0.1389 -0.3252
 1014MOL0     C33731   4.375   9.180   2.001  0.3497 -0.7679 -0.1818
 1014MOL0     C33732   4.360   9.178   2.154 -0.7432 -0.9961 -0.3602
 1014MOL0     N33733   4.479   9.252   2.214 -0.1829 -0.2952  0.0945
 1014MOL0     C33734   4.615   9.229   2.198 -0.0884  1.0075  0.7579
 1014MOL0     C33735   4.689   9.336   2.228  0.3622  0.4164 -1.0473
 1014MOL0     C33736   4.827   9.387   2.202  0.4802 -0.0883  0.1278
 1014MOL0     C33737   4.935   9.286   2.196 -0.1720 -0.2197 -0.7541
 1014MOL0     C33738   4.952   9.218   2.065  1.0451  0.5257 -0.0997
 1014MOL0     C33739   5.073   9.129   2.068  0.2970 -0.1339  0.7847
 1014MOL0     O33740   5.099   9.088   1.929 -0.5973 -0.2136  0.2550
 1014MOL0     C33741   5.179   8.976   1.901  0.0338 -0.4273 -0.0225
 1014MOL0     C33742   5.282   8.947   1.990  0.1935  0.6318  0.3663
 1014MOL0     C33743   5.359   8.830   1.962  0.2605 -0.1758 -1.6824
 1014MOL0     C33744   5.344   8.753   1.841  1.1482  0.3375 -0.3142
 1014MOL0     C33745   5.438   8.647   1.804  0.4343  0.6896  0.2672
 1014MOL0     O33746   5.522   8.600   1.902  0.7684  1.1682 -0.2317
 1014MOL0     C33747   5.622   8.503   1.877  0.0910  0.1708 -1.1876
 1014MOL0     C33748   5.730   8.496   1.959  0.4478  1.1448 -1.1824
 1014MOL0     C33749   5.830   8.400   1.957  0.4254  0.3750  0.5172
 1014MOL0     C33750   5.824   8.295   1.860 -0.8773 -0.8024 -0.3315
 1014MOL0     O33751   5.937   8.219   1.844  0.0176 -0.5912  0.3302
 1014MOL0     C33752   5.928   8.088   1.795  1.1159  0.2872 -0.5102
 1014MOL0     C33753   6.057   8.015   1.798  0.1903  0.0655  0.5387
 1014MOL0     C33754   6.042   7.885   1.723 -0.2591  0.9069 -0.2218
 1014MOL0     C33755   6.162   7.795   1.743  0.3539  0.2263  0.5323
 1014MOL0     C33756   6.140   7.660   1.684 -0.0339  0.8827 -0.4187
 1014MOL0     C33757   6.255   7.565   1.710 -0.5798  0.7715 -0.3670
 1014MOL0     C33758   6.248   7.454   1.605 -0.6470  1.4915 -0.0693
 1014MOL0     C33759   6.334   7.335   1.650  0.4424  0.3141 -0.0552
 1014MOL0    Cl33760   6.259   7.238   1.783  0.0304 -0.1589 -0.1236
 1014MOL0     C33761   5.708   8.301   1.777 -0.7826  0.2700 -0.1037
 1014MOL0     C33762   5.621   8.406   1.779  0.8053  1.3630  1.3179
 1014MOL0     O33763   5.458   8.636   1.681  0.3707 -0.1322  0.4728
 1014MOL0     C33764   5.237   8.782   1.757 -0.3426 -0.5148  0.1715
 1014MOL0     C33765   5.162   8.901   1.784 -1.0587  0.7637  0.4483
 1014MOL0     N33766   4.599   9.425   2.282 -0.2858  0.1894 -1.0238
 1014MOL0     N33767   4.478   9.378   2.265  0.8766 -0.2000  0.7336
 1014MOL0     C33768   4.968   9.662   1.641  0.9707 -0.6737 -0.2850
 1014MOL0     C33769   4.999   9.798   1.646 -0.0094 -0.0588 -0.3757
 1014MOL0     C33770   4.935  10.244   1.752 -0.2925 -0.4807 -0.0788
 1014MOL0     C33771   5.068  10.286   1.780 -0.0390  0.2707  0.2989
 1014MOL0     C33772   5.093  10.421   1.842  0.5615 -0.3516  0.9551
 1014MOL0     C33773   4.986  10.508   1.866 -0.5334  0.6973 -0.2786
 1014MOL0     O33774   4.999  10.638   1.925 -0.4542 -0.1933 -0.8080
 1014MOL0     C33775   5.119  10.688   1.986  0.8166 -0.3717 -0.9851
 1014MOL0     C33776   5.139  10.648   2.132  0.6835  0.3267  0.1110
 1014MOL0     C33777   5.019  10.690   2.215 -0.3806  0.0458 -0.3655
 1014MOL0     C33778   5.049  10.684   2.370 -0.4233  0.3104 -0.8027
 1014MOL0     C33779   5.013  10.803   2.446 -0.6437 -0.4139 -0.1834
 1014MOL0     C33780   5.008  10.896   2.533 -0.1666  0.1211 -1.1458
 1014MOL0     C33781   4.861  10.459   1.834 -0.0804 -0.2616  0.6124
 1014MOL0     C33782   4.838  10.332   1.782 -1.0727  0.2328  1.0088
 1014MOL0     H33783   4.944   9.874   1.971 -0.9091  0.4401 -0.3025
 1014MOL0     H33784   4.875   9.631   1.968 -0.5089  0.4580  0.4766
 1014MOL0     H33785   4.835   9.426   1.566 -1.2084 -3.4528  0.4144
 1014MOL0     H33786   4.711   9.543   1.613  1.0387 -0.3126 -0.1137
 1014MOL0     H33787   4.740   9.257   1.735 -1.2034  0.0683  0.8305
 1014MOL0     H33788   4.672   9.297   1.569 -2.4998  1.9834  0.0192
 1014MOL0     H33789   4.523   9.448   1.696  1.3408  0.5956  1.7963
 1014MOL0     H33790   4.572   9.358   1.844 -1.1109 -0.0015  0.3806
 1014MOL0     H33791   4.350   9.293   1.763  0.3856 -0.1975  0.9740
 1014MOL0     H33792   4.421   9.221   1.615 -0.2989  0.3222 -0.1218
 1014MOL0     H33793   4.533   9.044   1.741  1.5515 -4.2681  4.3755
 1014MOL0     H33794   4.366   9.049   1.787  0.6240 -0.7755  3.0094
 1014MOL0     H33795   4.592   9.122   1.966 -0.8101  1.7379  2.2564
 1014MOL0     H33796   4.479   8.993   1.960 -0.5832 -0.3226 -1.4680
 1014MOL0     H33797   4.394   9.285   1.979 -1.5928 -0.5223 -0.9332
 1014MOL0     H33798   4.278   9.151   1.957 -1.7221  1.3043  2.6193
 1014MOL0     H33799   4.340   9.077   2.189  0.5342 -1.1118  0.0898
 1014MOL0     H33800   4.261   9.223   2.153 -0.9062 -1.3334 -2.0871
 1014MOL0     H33801   4.659   9.132   2.178 -0.7897  0.8599 -0.1537
 1014MOL0     H33802   4.857   9.471   2.265  0.0128  0.4834 -0.4147
 1014MOL0     H33803   4.805   9.433   2.106  0.6891  1.5845  0.8531
 1014MOL0     H33804   4.926   9.224   2.285 -1.0758 -0.6022 -1.1042
 1014MOL0     H33805   5.030   9.340   2.202 -0.5079  0.2078  3.1870
 1014MOL0     H33806   4.853   9.176   2.044  0.9595  0.7284 -0.1133
 1014MOL0     H33807   4.957   9.295   1.988 -1.3113  1.4175  0.5218
 1014MOL0     H33808   5.070   9.041   2.133  2.8668 -1.9627 -1.3328
 1014MOL0     H33809   5.153   9.189   2.113 -0.3040  0.1651  1.4704
 1014MOL0     H33810   5.306   8.995   2.085 -0.3457 -0.6840  1.1994
 1014MOL0     H33811   5.452   8.819   2.018 -2.0140 -1.5339  2.2192
 1014MOL0     H33812   5.732   8.564   2.043  1.9860  0.6963 -0.8103
 1014MOL0     H33813   5.911   8.414   2.028  2.1068 -0.7930 -1.0848
 1014MOL0     H33814   5.895   8.085   1.691 -0.9565 -0.6279  0.1203
 1014MOL0     H33815   5.849   8.035   1.849 -0.8342  2.3078 -1.1689
 1014MOL0     H33816   6.093   7.992   1.899 -1.3901 -1.1135  0.8669
 1014MOL0     H33817   6.125   8.079   1.741  2.7456 -2.7477  0.1739
 1014MOL0     H33818   6.029   7.900   1.616  0.6165  2.5819 -0.1236
 1014MOL0     H33819   5.957   7.831   1.765  1.0466  1.7594  4.0148
 1014MOL0     H33820   6.241   7.842   1.684  0.1874 -0.6900 -0.4508
 1014MOL0     H33821   6.201   7.792   1.845  1.8721  2.3878  0.0901
 1014MOL0     H33822   6.114   7.682   1.580 -0.0105 -1.0921 -0.8723
 1014MOL0     H33823   6.052   7.609   1.726  0.4274 -2.5965 -3.2257
 1014MOL0     H33824   6.245   7.531   1.813 -2.1885  1.7008 -0.1780
 1014MOL0     H33825   6.348   7.622   1.698 -0.1867  0.5754  1.5643
 1014MOL0     H33826   6.144   7.421   1.597 -0.5235  0.8159  1.0094
 1014MOL0     H33827   6.292   7.475   1.507  0.6589 -0.3987  0.0669
 1014MOL0     H33828   6.428   7.366   1.696  0.1471  1.2663 -0.0547
 1014MOL0     H33829   6.353   7.266   1.567 -0.2788 -1.5302  1.2532
 1014MOL0     H33830   5.707   8.239   1.688 -3.9812 -0.6471  0.4563
 1014MOL0     H33831   5.532   8.402   1.718  0.4804 -1.7669  1.8348
 1014MOL0     H33832   5.224   8.729   1.664 -1.1505  0.8759 -0.5360
 1014MOL0     H33833   5.084   8.927   1.714 -0.3471 -1.1299 -1.1449
 1014MOL0     H33834   4.987   9.592   1.560 -0.0610 -0.9772 -0.2787
 1014MOL0     H33835   5.051   9.841   1.562  2.8519 -2.1637  0.1887
 1014MOL0     H33836   5.147  10.212   1.772  0.5178  0.7658  1.0920
 1014MOL0     H33837   5.198  10.446   1.853  0.5699 -0.0364  0.2467
 1014MOL0     H33838   5.120  10.797   1.988  0.8684 -0.3628  1.1164
 1014MOL0     H33839   5.203  10.653   1.925  1.5880  0.3051 -0.3355
 1014MOL0     H33840   5.156  10.540   2.125 -0.4243  0.2244 -1.4513
 1014MOL0     H33841   5.227  10.695   2.176  1.1805 -1.0854  0.6954
 1014MOL0     H33842   4.920  10.659   2.180 -0.4639  0.2233 -0.2895
 1014MOL0     H33843   5.033  10.796   2.193  1.6129  0.0673  0.7563
 1014MOL0     H33844   4.985  10.605   2.411  0.2930  0.4814  0.6962
 1014MOL0     H33845   5.152  10.654   2.388 -0.8436 -1.0411 -0.5675
 1014MOL0     H33846   4.986  10.956   2.619 -0.4823 -3.2994  1.3759
 1014MOL0     H33847   4.779  10.528   1.853  0.2041  0.1117  0.4910
 1014MOL0     H33848   4.733  10.306   1.776 -1.3191  1.4004 -0.9148
 1015MOL0     O33849   4.602  11.153   3.200 -0.1116 -0.5551 -0.0506
 1015MOL0     C33850   4.587  11.054   3.131  0.1479  0.1053  0.8456
 1015MOL0     O33851   4.670  10.946   3.117 -0.5922  0.5234  0.3567
 1015MOL0     C33852   4.794  10.948   3.182  0.3085 -0.4362 -1.2445
 1015MOL0     C33853   4.912  10.957   3.120 -0.0151  0.3405  0.4276
 1015MOL0     C33854   5.032  10.951   3.187 -0.5887  1.2391 -0.7941
 1015MOL0     C33855   5.040  10.926   3.326  0.1291  0.2648  0.0972
 1015MOL0     O33856   5.153  10.901   3.387 -0.9578 -0.3087  0.3068
 1015MOL0     C33857   5.203  10.766   3.384 -0.0309  0.5918  0.3186
 1015MOL0     C33858   5.279  10.740   3.509 -0.4962 -0.5336  0.3555
 1015MOL0     C33859   5.200  10.758   3.641 -0.7603 -0.2148  0.0374
 1015MOL0     C33860   5.282  10.717   3.762 -1.0642  0.1643  0.3264
 1015MOL0     C33861   5.204  10.681   3.885 -0.6987 -0.4728 -0.6254
 1015MOL0     C33862   5.274  10.686   4.020 -0.3091 -0.0547 -0.8941
 1015MOL0     C33863   5.376  10.581   4.031 -0.2409  1.1383 -0.7095
 1015MOL0     C33864   5.497  10.611   4.126 -0.3194  0.1222 -0.7106
 1015MOL0     N33865   5.581  10.731   4.087  0.9722  0.7612 -0.0988
 1015MOL0     C33866   5.596  10.845   4.172  0.5887  0.8009  0.0048
 1015MOL0     C33867   5.659  10.931   4.091 -1.7322  0.7102  0.8240
 1015MOL0     C33868   5.712  11.064   4.122  0.1221 -0.0046  0.2058
 1015MOL0     C33869   5.851  11.079   4.063 -0.4550  0.6583  0.1398
 1015MOL0     C33870   5.939  11.192   4.116 -0.0690 -0.4659 -1.3438
 1015MOL0     C33871   6.066  11.229   4.029 -0.2218  0.9404  0.6860
 1015MOL0     O33872   6.112  11.105   3.977  0.0519  0.3324  0.5353
 1015MOL0     C33873   6.219  11.113   3.891 -0.6465  0.2427  0.0739
 1015MOL0     C33874   6.289  10.994   3.854  0.7210 -0.3373 -0.6706
 1015MOL0     C33875   6.409  10.993   3.773  0.4056 -0.2308  0.5530
 1015MOL0     C33876   6.444  11.115   3.726  0.0933  0.2523  0.7474
 1015MOL0     C33877   6.562  11.134   3.646 -0.1666  0.1375  0.0688
 1015MOL0     O33878   6.641  11.025   3.655  0.8723  0.1217 -0.4803
 1015MOL0     C33879   6.749  11.016   3.573 -0.7684  0.5600  0.2590
 1015MOL0     C33880   6.852  11.104   3.582 -0.5752  0.0818 -0.3806
 1015MOL0     C33881   6.971  11.093   3.501  0.5758 -0.1910 -1.0950
 1015MOL0     C33882   6.973  10.986   3.417  0.0690 -0.2829 -0.6640
 1015MOL0     O33883   7.073  10.960   3.338 -0.3101  0.2245  0.3088
 1015MOL0     C33884   7.168  10.890   3.416 -0.9271  0.4234  0.0477
 1015MOL0     C33885   7.205  10.761   3.342  0.5010  0.9955  0.0729
 1015MOL0     C33886   7.306  10.670   3.412 -1.3815 -0.6454  0.0382
 1015MOL0     C33887   7.249  10.622   3.544  0.1440 -0.5074  0.4461
 1015MOL0     C33888   7.337  10.533   3.622  0.0854 -0.3379  1.6070
 1015MOL0     C33889   7.376  10.400   3.559 -0.1665 -0.5082  0.3796
 1015MOL0     C33890   7.453  10.310   3.644 -0.6367  0.5206  0.9120
 1015MOL0     C33891   7.585  10.371   3.702  0.1167  0.1116 -0.3054
 1015MOL0    Cl33892   7.676  10.232   3.765 -0.2674 -0.1993 -0.2042
 1015MOL0     C33893   6.862  10.894   3.403 -0.1586 -0.3845 -0.5808
 1015MOL0     C33894   6.752  10.923   3.479 -1.3057  0.4311  1.1001
 1015MOL0     O33895   6.590  11.231   3.576  0.2810  0.3710  0.0598
 1015MOL0     C33896   6.369  11.235   3.752  0.1917 -0.1582  0.4783
 1015MOL0     C33897   6.258  11.236   3.833 -0.5229 -0.9404 -0.2990
 1015MOL0     N33898   5.663  10.882   3.958 -0.4878 -0.3986 -0.3806
 1015MOL0     N33899   5.627  10.760   3.965  0.1129 -0.0004  0.4167
 1015MOL0     C33900   4.917  10.918   3.392 -0.2890  0.3311 -0.3272
 1015MOL0     C33901   4.804  10.926   3.315 -0.0903 -0.5646  0.4985
 1015MOL0     C33902   4.456  11.041   3.061  0.5694  0.1458 -0.1060
 1015MOL0     C33903   4.400  11.155   3.009  0.8084  0.4916  0.2390
 1015MOL0     C33904   4.281  11.146   2.928 -0.5575  0.0919 -0.0042
 1015MOL0     C33905   4.203  11.033   2.919 -0.2461  1.0588  0.8329
 1015MOL0     O33906   4.082  11.012   2.856 -0.3664  0.1673 -0.4470
 1015MOL0     C33907   4.061  11.085   2.733 -0.0221  0.1335 -0.2661
 1015MOL0     C33908   3.934  11.039   2.645  0.4894  0.7092 -0.2118
 1015MOL0     C33909   3.948  10.891   2.606  0.3221 -0.6531  1.1974
 1015MOL0     C33910   3.817  10.837   2.542 -0.0338 -0.3825 -0.0887
 1015MOL0     C33911   3.777  10.907   2.419 -0.0909  0.1726  0.7116
 1015MOL0     C33912   3.752  10.980   2.325 -0.3087  0.2052 -0.0150
 1015MOL0     C33913   4.249  10.922   2.990 -0.2762  0.1352 -0.2139
 1015MOL0     C33914   4.379  10.923   3.053  0.1962  0.2329  0.4302
 1015MOL0     H33915   4.921  10.969   3.012  1.5517 -0.1262  0.4831
 1015MOL0     H33916   5.124  10.957   3.129  0.1808  0.3062  0.2585
 1015MOL0     H33917   5.271  10.756   3.299 -0.1700  1.5999  0.0819
 1015MOL0     H33918   5.115  10.702   3.375 -1.8528  2.6620  2.2231
 1015MOL0     H33919   5.343  10.829   3.513 -1.7341  0.3647  0.6097
 1015MOL0     H33920   5.335  10.646   3.502  1.4445  0.6841 -1.8549
 1015MOL0     H33921   5.107  10.700   3.632 -0.4990 -0.4131 -1.6498
 1015MOL0     H33922   5.161  10.860   3.650 -1.5771 -0.4492 -0.7323
 1015MOL0     H33923   5.350  10.638   3.729  0.7586  2.0927 -0.7112
 1015MOL0     H33924   5.338  10.807   3.789 -1.0340  0.6708 -1.3322
 1015MOL0     H33925   5.162  10.581   3.877 -3.0073  0.5004 -1.3608
 1015MOL0     H33926   5.125  10.756   3.898 -1.2202 -1.5754  3.8505
 1015MOL0     H33927   5.197  10.669   4.095 -1.6644  2.1647 -1.6715
 1015MOL0     H33928   5.318  10.783   4.045  1.3792 -0.9781 -0.1010
 1015MOL0     H33929   5.320  10.496   4.072  1.2725  0.8201  0.8719
 1015MOL0     H33930   5.417  10.550   3.935 -1.5493 -1.3969 -0.5393
 1015MOL0     H33931   5.564  10.525   4.126 -0.1760  0.2317 -1.3455
 1015MOL0     H33932   5.448  10.628   4.223 -1.0818 -2.8755 -0.4783
 1015MOL0     H33933   5.554  10.859   4.271  0.4987  2.1371 -0.2120
 1015MOL0     H33934   5.715  11.077   4.231 -1.8554  0.8241  0.2057
 1015MOL0     H33935   5.632  11.128   4.085  1.8481  2.6439  0.7480
 1015MOL0     H33936   5.833  11.099   3.957  0.2978  1.2560  0.1144
 1015MOL0     H33937   5.902  10.983   4.080 -2.4628 -0.7254 -1.2569
 1015MOL0     H33938   5.880  11.284   4.123 -0.4747 -0.8463  1.0379
 1015MOL0     H33939   5.980  11.183   4.217 -0.5824  1.5824 -0.9113
 1015MOL0     H33940   6.136  11.280   4.096 -1.5281 -0.5761  3.3476
 1015MOL0     H33941   6.035  11.301   3.953  0.7493  1.6301  0.9164
 1015MOL0     H33942   6.252  10.906   3.906 -3.7974  0.3456 -2.2977
 1015MOL0     H33943   6.470  10.904   3.768  2.5793  1.1681  0.9479
 1015MOL0     H33944   6.846  11.176   3.663  1.3045 -0.5175  0.3540
 1015MOL0     H33945   7.056  11.160   3.500  0.0094  0.5367 -1.9823
 1015MOL0     H33946   7.138  10.873   3.520 -0.8337 -1.7306 -0.2380
 1015MOL0     H33947   7.262  10.945   3.425 -0.0851 -0.8769 -0.4575
 1015MOL0     H33948   7.256  10.776   3.246  1.0944  0.2290  0.2493
 1015MOL0     H33949   7.117  10.697   3.332  2.0354 -1.4729  1.2480
 1015MOL0     H33950   7.404  10.717   3.424 -1.2499 -0.1884 -2.3174
 1015MOL0     H33951   7.324  10.581   3.350 -2.0530  0.1781 -1.3917
 1015MOL0     H33952   7.221  10.701   3.614  1.4484  0.1470  0.2712
 1015MOL0     H33953   7.155  10.572   3.522 -2.5701  2.4189  4.1665
 1015MOL0     H33954   7.283  10.511   3.715 -0.7665 -1.5991  0.8411
 1015MOL0     H33955   7.423  10.592   3.655 -0.5089 -0.3425  3.2538
 1015MOL0     H33956   7.441  10.415   3.472 -1.7658 -1.4299 -1.0359
 1015MOL0     H33957   7.285  10.352   3.523 -0.6976  1.7351 -1.4758
 1015MOL0     H33958   7.388  10.275   3.724 -1.6227 -3.7236 -1.4226
 1015MOL0     H33959   7.483  10.220   3.589 -1.0915 -1.1578  3.2702
 1015MOL0     H33960   7.557  10.436   3.785 -1.7425 -1.8026  0.6713
 1015MOL0     H33961   7.641  10.434   3.633  0.5189  0.1612  0.0611
 1015MOL0     H33962   6.871  10.806   3.341  0.5070 -0.8338  0.1274
 1015MOL0     H33963   6.666  10.857   3.469  0.0935 -1.9090  3.2001
 1015MOL0     H33964   6.385  11.333   3.708 -4.3260 -0.4896 -2.5713
 1015MOL0     H33965   6.214  11.335   3.839 -0.9963 -1.2269  2.2241
 1015MOL0     H33966   4.928  10.895   3.498 -0.0827  0.6659 -0.2738
 1015MOL0     H33967   4.709  10.927   3.367 -2.1680 -2.9450 -2.8827
 1015MOL0     H33968   4.444  11.254   3.016  2.0925 -0.1705  2.5385
 1015MOL0     H33969   4.253  11.241   2.882 -1.1289  0.1093  0.3724
 1015MOL0     H33970   4.150  11.087   2.670 -0.0995  1.8334 -0.3443
 1015MOL0     H33971   4.043  11.190   2.755 -0.7116  0.1105 -0.6668
 1015MOL0     H33972   3.839  11.051   2.698  0.9563  1.6315  0.4553
 1015MOL0     H33973   3.929  11.101   2.556  0.9866 -0.2348 -0.9115
 1015MOL0     H33974   3.971  10.818   2.684 -1.7702  0.5601  3.0335
 1015MOL0     H33975   4.030  10.896   2.533 -2.0680  3.8233 -1.5949
 1015MOL0     H33976   3.824  10.731   2.515  2.7210 -0.3974  0.4102
 1015MOL0     H33977   3.737  10.851   2.616  0.5394 -1.6861  0.8199
 1015MOL0     H33978   3.747  11.053   2.246  2.9162  1.2426  0.6068
 1015MOL0     H33979   4.192  10.830   2.990  1.1030 -0.7678 -1.2199
 1015MOL0     H33980   4.428  10.830   3.079  1.8363  0.2110 -2.4042
 1016MOL0     O33981   5.027  10.592   1.415  0.8591 -0.2092 -0.6920
 1016MOL0     C33982   4.980  10.481   1.376  0.1268 -0.2994 -0.6972
 1016MOL0     O33983   4.851  10.456   1.344  0.0183  0.4780 -0.3557
 1016MOL0     C33984   4.767  10.559   1.356 -0.3569 -1.1036  0.6726
 1016MOL0     C33985   4.708  10.585   1.487 -0.4836 -0.0454  0.5321
 1016MOL0     C33986   4.652  10.709   1.518  0.2824 -0.0591  0.3620
 1016MOL0     C33987   4.635  10.804   1.417  0.0574 -0.1822 -0.1549
 1016MOL0     O33988   4.584  10.935   1.431 -0.1012  0.1989  0.6458
 1016MOL0     C33989   4.447  10.943   1.472  0.0136  0.1526 -0.0663
 1016MOL0     C33990   4.393  11.084   1.468 -0.7932  1.0816  0.9144
 1016MOL0     C33991   4.247  11.095   1.508  0.4753 -0.1639  0.4462
 1016MOL0     C33992   4.215  11.051   1.655 -0.1227 -0.3564  0.4773
 1016MOL0     C33993   4.062  11.027   1.672  0.7696  0.4432 -0.5485
 1016MOL0     C33994   4.023  10.877   1.631 -0.4078  0.4204 -0.3043
 1016MOL0     C33995   3.876  10.876   1.657  0.1015  0.2833 -0.0355
 1016MOL0     C33996   3.805  10.921   1.519  0.2788  0.0561  0.4882
 1016MOL0     N33997   3.664  10.923   1.539  0.0310 -0.2717 -0.1359
 1016MOL0     C33998   3.586  10.969   1.432 -0.0923  0.7326  0.3287
 1016MOL0     C33999   3.459  10.949   1.480  0.3734 -0.5607  0.3999
 1016MOL0     C34000   3.341  10.969   1.386 -0.5702  0.8208 -0.2184
 1016MOL0     C34001   3.260  11.086   1.443 -0.3790 -0.7691  0.2947
 1016MOL0     C34002   3.152  11.122   1.344 -0.3545 -0.7226 -0.7162
 1016MOL0     C34003   3.020  11.153   1.420 -0.2067 -0.3704  0.3427
 1016MOL0     O34004   2.932  11.213   1.325 -0.0215 -0.7065  0.1192
 1016MOL0     C34005   2.799  11.183   1.335 -0.7456  0.4734 -0.4186
 1016MOL0     C34006   2.730  11.248   1.243  0.3328  0.5724 -0.0126
 1016MOL0     C34007   2.587  11.235   1.229 -0.4403  0.1345  0.4991
 1016MOL0     C34008   2.521  11.150   1.318  0.0431 -0.2990 -0.4622
 1016MOL0     C34009   2.373  11.141   1.301 -0.1129  0.0891 -0.2429
 1016MOL0     O34010   2.307  11.186   1.187  0.6173 -0.1767  0.4234
 1016MOL0     C34011   2.169  11.179   1.183  0.9820 -0.5672  0.3305
 1016MOL0     C34012   2.097  11.061   1.219 -0.4497  0.2327 -0.2332
 1016MOL0     C34013   1.965  11.048   1.208  0.1952  0.4738 -0.4097
 1016MOL0     C34014   1.893  11.149   1.144 -0.3095 -0.4575  0.0716
 1016MOL0     O34015   1.759  11.145   1.127 -0.1394 -0.8682 -0.0812
 1016MOL0     C34016   1.676  11.041   1.165  1.5441  0.6286  0.0084
 1016MOL0     C34017   1.533  11.087   1.222 -0.9241  0.1774 -0.1855
 1016MOL0     C34018   1.431  11.099   1.109 -0.2366  0.2413 -0.6339
 1016MOL0     C34019   1.289  11.122   1.165 -0.3643  0.4215 -0.0399
 1016MOL0     C34020   1.206  11.236   1.108 -0.1180  0.2209 -0.0974
 1016MOL0     C34021   1.071  11.245   1.177 -0.0247 -0.1477 -0.0323
 1016MOL0     C34022   0.997  11.376   1.132  0.0035 -0.5848  0.5045
 1016MOL0     C34023   0.870  11.403   1.220 -0.6559  0.2204 -0.3544
 1016MOL0    Cl34024   0.763  11.521   1.136 -0.4852 -0.2085 -0.2642
 1016MOL0     C34025   1.958  11.265   1.110  0.5731 -0.6102 -0.9339
 1016MOL0     C34026   2.096  11.284   1.124  0.0127  1.3151  0.1884
 1016MOL0     O34027   2.317  11.114   1.410 -0.6271  0.2383 -0.1583
 1016MOL0     C34028   2.586  11.088   1.422  0.1515 -0.1295 -0.2082
 1016MOL0     C34029   2.727  11.107   1.438 -0.1078 -0.3837 -0.2013
 1016MOL0     N34030   3.474  10.887   1.607 -0.2390 -0.2646 -0.6679
 1016MOL0     N34031   3.591  10.879   1.649  0.5097  0.1410  0.2203
 1016MOL0     C34032   4.684  10.780   1.290 -0.0261 -0.3941  0.1260
 1016MOL0     C34033   4.752  10.663   1.262  0.1410 -0.4657 -0.1100
 1016MOL0     C34034   5.070  10.366   1.393 -0.4836  0.2796 -0.2550
 1016MOL0     C34035   5.205  10.378   1.410  0.5899 -0.3425  0.7034
 1016MOL0     C34036   5.291  10.267   1.423  0.5307  0.2885  0.5294
 1016MOL0     C34037   5.240  10.135   1.407  0.3201  0.3931  0.3409
 1016MOL0     O34038   5.318  10.023   1.390 -0.0961  0.5123 -0.3369
 1016MOL0     C34039   5.465  10.044   1.369 -0.0898  0.7198 -0.1815
 1016MOL0     C34040   5.517  10.088   1.234  0.5312 -0.2606 -0.3199
 1016MOL0     C34041   5.667  10.133   1.242  0.3438 -0.0954  0.1017
 1016MOL0     C34042   5.701  10.281   1.263 -0.2604 -1.1179 -0.6122
 1016MOL0     C34043   5.845  10.312   1.270  0.4465  0.4929  0.0009
 1016MOL0     C34044   5.960  10.348   1.266  0.1674  0.1162 -0.4875
 1016MOL0     C34045   5.103  10.114   1.407 -0.7127  0.2432 -0.9150
 1016MOL0     C34046   5.021  10.231   1.399 -0.1573  0.9664 -0.2525
 1016MOL0     H34047   4.713  10.509   1.564  2.8778 -0.4166  0.1153
 1016MOL0     H34048   4.624  10.733   1.620 -1.8234 -0.5418 -0.0460
 1016MOL0     H34049   4.432  10.903   1.573 -0.2512  0.1835 -0.0912
 1016MOL0     H34050   4.393  10.873   1.409  1.7229 -2.7949  1.5455
 1016MOL0     H34051   4.400  11.128   1.368  0.3585  2.8410  1.7122
 1016MOL0     H34052   4.457  11.132   1.543 -1.4298 -0.4796  2.5492
 1016MOL0     H34053   4.194  11.037   1.432  2.0759  1.4526 -2.0547
 1016MOL0     H34054   4.206  11.196   1.502 -1.0292 -0.7624  0.0538
 1016MOL0     H34055   4.257  10.955   1.685 -0.1621 -0.2837  0.7716
 1016MOL0     H34056   4.255  11.124   1.727  3.3579 -3.9916  2.6567
 1016MOL0     H34057   4.004  11.102   1.618  2.1801  1.1180 -1.1838
 1016MOL0     H34058   4.022  11.048   1.772 -0.0007  1.0699 -0.9791
 1016MOL0     H34059   4.073  10.812   1.704 -0.7997  0.6875  0.2055
 1016MOL0     H34060   4.038  10.857   1.525 -0.7951  1.6188 -0.6027
 1016MOL0     H34061   3.853  10.773   1.683 -3.0418  1.7169  3.8799
 1016MOL0     H34062   3.838  10.941   1.736  1.7531 -0.8268  1.7396
 1016MOL0     H34063   3.830  10.845   1.444 -0.2510  0.6328 -0.2843
 1016MOL0     H34064   3.838  11.020   1.486 -5.1405  3.0540  2.8377
 1016MOL0     H34065   3.618  11.015   1.339 -1.5734  0.8494 -0.1374
 1016MOL0     H34066   3.282  10.878   1.400 -1.3648  1.4016  0.2904
 1016MOL0     H34067   3.376  10.990   1.284  2.0100  0.1108  0.4466
 1016MOL0     H34068   3.321  11.176   1.456 -1.3788  0.0378 -0.3429
 1016MOL0     H34069   3.213  11.060   1.538  1.0726 -0.7865  1.0326
 1016MOL0     H34070   3.171  11.216   1.292  0.3080 -0.9193 -0.8359
 1016MOL0     H34071   3.136  11.035   1.280  0.5264 -2.9130  1.8252
 1016MOL0     H34072   3.042  11.220   1.504 -1.7737  1.9696 -1.0108
 1016MOL0     H34073   2.992  11.057   1.463 -0.8801 -0.0297  0.6817
 1016MOL0     H34074   2.787  11.310   1.175 -0.5048  2.1895  0.7081
 1016MOL0     H34075   2.552  11.285   1.140  4.0204  1.5269 -0.7598
 1016MOL0     H34076   2.162  10.991   1.272  1.6913  1.9051 -0.5260
 1016MOL0     H34077   1.921  10.963   1.261  3.0052 -0.8112  0.0232
 1016MOL0     H34078   1.727  10.981   1.241  2.8746  2.4086  0.6119
 1016MOL0     H34079   1.653  10.980   1.077  0.6829  2.8207 -1.3669
 1016MOL0     H34080   1.551  11.182   1.272  1.4753 -0.5050  0.3928
 1016MOL0     H34081   1.501  11.014   1.297  0.5440 -0.1259  0.1768
 1016MOL0     H34082   1.414  11.015   1.040  1.1137 -0.5518 -0.0263
 1016MOL0     H34083   1.480  11.177   1.050  1.1832 -0.3872 -0.3333
 1016MOL0     H34084   1.228  11.034   1.143  0.5182 -0.0200 -0.7736
 1016MOL0     H34085   1.289  11.132   1.274  0.8040  1.1089 -0.0870
 1016MOL0     H34086   1.191  11.223   1.000  1.2327 -0.8641 -0.1815
 1016MOL0     H34087   1.262  11.330   1.107  1.0840 -0.4323 -2.9404
 1016MOL0     H34088   1.084  11.230   1.285 -0.3746 -3.8996 -0.4002
 1016MOL0     H34089   1.003  11.166   1.144 -0.2489  0.1637 -0.3155
 1016MOL0     H34090   1.062  11.465   1.135 -1.6340  0.6298  1.7248
 1016MOL0     H34091   0.953  11.361   1.033 -1.1406  0.2341  0.8653
 1016MOL0     H34092   0.914  11.451   1.309 -1.7591  0.7807 -0.0988
 1016MOL0     H34093   0.814  11.312   1.240  0.8258 -0.7011 -0.2256
 1016MOL0     H34094   1.905  11.350   1.070 -2.6663 -1.0990  1.8239
 1016MOL0     H34095   2.144  11.378   1.099 -0.6423  1.9757  1.3346
 1016MOL0     H34096   2.533  11.027   1.495  2.7796 -1.1480  0.9765
 1016MOL0     H34097   2.781  11.055   1.515  1.2029 -1.4934 -1.7987
 1016MOL0     H34098   4.671  10.858   1.216  0.3083  2.4557  2.8749
 1016MOL0     H34099   4.784  10.645   1.160  1.6991  3.4501 -0.4910
 1016MOL0     H34100   5.271  10.464   1.402  2.0811 -1.3807  1.4004
 1016MOL0     H34101   5.397  10.287   1.410  0.4885  0.8848  1.0700
 1016MOL0     H34102   5.519   9.951   1.387 -2.7495 -0.3030  3.8062
 1016MOL0     H34103   5.506  10.105   1.450 -1.3794  0.7001  0.5168
 1016MOL0     H34104   5.496  10.000   1.171 -1.3932 -2.7847  3.4276
 1016MOL0     H34105   5.459  10.165   1.183 -0.8489 -0.3821  0.9848
 1016MOL0     H34106   5.718  10.101   1.151  0.6424 -0.9294  0.5544
 1016MOL0     H34107   5.720  10.081   1.323  3.1389  2.9007  0.4026
 1016MOL0     H34108   5.647  10.328   1.180 -0.4504 -2.3285 -1.2085
 1016MOL0     H34109   5.647  10.317   1.351  0.1116 -1.4325 -0.2553
 1016MOL0     H34110   6.066  10.362   1.273  0.3779 -1.7820  1.1872
 1016MOL0     H34111   5.054  10.018   1.401  0.8695 -0.8534  1.7601
 1016MOL0     H34112   4.916  10.206   1.389  0.1121 -0.6777  0.5928
 1017MOL0     O34113   0.830   6.024   8.552 -0.3220 -0.1869 -0.2309
 1017MOL0     C34114   0.921   6.077   8.492 -0.0058 -0.4032 -0.2099
 1017MOL0     O34115   1.007   6.172   8.541 -0.0675  0.2094 -0.5482
 1017MOL0     C34116   0.988   6.242   8.659  0.5069  0.4289  0.7207
 1017MOL0     C34117   1.029   6.372   8.664  0.4196 -0.3513 -0.7156
 1017MOL0     C34118   1.025   6.443   8.788 -0.2084  0.0164 -0.2599
 1017MOL0     C34119   0.987   6.386   8.909 -0.3422 -0.2821  0.0842
 1017MOL0     O34120   0.992   6.455   9.028  0.6290  0.1197 -0.2818
 1017MOL0     C34121   0.950   6.377   9.144  0.8397 -0.9625  0.1113
 1017MOL0     C34122   0.961   6.437   9.281 -0.4392  1.2459  0.1456
 1017MOL0     C34123   0.903   6.580   9.274 -0.2526  0.4090 -0.0717
 1017MOL0     C34124   0.896   6.639   9.417 -0.3568 -0.0535  0.3113
 1017MOL0     C34125   0.857   6.783   9.409  0.3242 -0.1912 -0.4800
 1017MOL0     C34126   0.726   6.798   9.331 -0.1219 -0.2144  0.4517
 1017MOL0     C34127   0.660   6.935   9.374  0.5770  0.4698 -0.0247
 1017MOL0     C34128   0.586   7.007   9.262 -0.5461 -0.2124 -0.3223
 1017MOL0     N34129   0.457   6.942   9.237  0.2541 -0.1219  0.3504
 1017MOL0     C34130   0.421   6.904   9.109  0.0303  0.4248 -0.2041
 1017MOL0     C34131   0.297   6.857   9.131  0.1048  1.2239  0.2590
 1017MOL0     C34132   0.204   6.788   9.025 -0.1406  0.7855 -1.5318
 1017MOL0     C34133   0.234   6.633   9.051  0.4612 -0.5567 -0.4603
 1017MOL0     C34134   0.383   6.604   9.055  0.7129  0.0684  0.2496
 1017MOL0     C34135   0.403   6.451   9.053  0.7630  0.0702  0.1449
 1017MOL0     O34136   0.381   6.386   8.926  0.2800 -0.2508 -1.5496
 1017MOL0     C34137   0.468   6.396   8.821 -1.4340 -0.5180 -0.8592
 1017MOL0     C34138   0.416   6.331   8.712 -0.0544  0.7429  0.2511
 1017MOL0     C34139   0.490   6.325   8.592  0.0442  0.1903 -0.2954
 1017MOL0     C34140   0.620   6.378   8.581 -0.0340 -0.4140 -0.2214
 1017MOL0     C34141   0.712   6.363   8.458  0.6212 -0.5799  0.5741
 1017MOL0     O34142   0.655   6.296   8.344  0.9504 -0.4792 -0.5937
 1017MOL0     C34143   0.729   6.280   8.229 -0.3568  0.7158  1.0521
 1017MOL0     C34144   0.806   6.375   8.175  0.7793 -1.1398 -0.9226
 1017MOL0     C34145   0.885   6.361   8.063  0.2816  0.6788 -0.1582
 1017MOL0     C34146   0.901   6.231   8.008  0.1453 -0.2689  0.5515
 1017MOL0     O34147   0.974   6.205   7.887  0.6055 -0.2171  0.1093
 1017MOL0     C34148   1.042   6.309   7.823 -0.6145  0.1523  0.2476
 1017MOL0     C34149   1.182   6.325   7.902  0.2622 -0.3148  0.4259
 1017MOL0     C34150   1.267   6.200   7.908  0.8489 -0.0484 -0.4468
 1017MOL0     C34151   1.393   6.227   7.973  0.9545  0.5547 -0.3985
 1017MOL0     C34152   1.470   6.097   7.964 -0.4740  0.7625 -0.6169
 1017MOL0     C34153   1.612   6.140   8.012 -0.4082 -0.3394 -0.7530
 1017MOL0     C34154   1.700   6.019   8.022  0.8090 -0.5668  0.0875
 1017MOL0     C34155   1.842   6.051   8.066 -0.7016 -0.1783  0.2495
 1017MOL0    Cl34156   1.945   5.895   8.052  0.1647 -0.3587  0.1746
 1017MOL0     C34157   0.824   6.134   8.066 -0.6001  0.8080 -0.4850
 1017MOL0     C34158   0.733   6.161   8.173 -0.7098  0.1075  1.0426
 1017MOL0     O34159   0.819   6.418   8.461 -0.2826 -0.4478  0.1194
 1017MOL0     C34160   0.664   6.451   8.694 -1.0946  0.8309 -0.3861
 1017MOL0     C34161   0.594   6.458   8.811 -0.4118 -0.4604  0.8042
 1017MOL0     N34162   0.261   6.866   9.262 -0.6907  0.1805  1.1070
 1017MOL0     N34163   0.356   6.925   9.320 -0.1497  0.3765 -0.2702
 1017MOL0     C34164   0.947   6.246   8.901 -0.1461  0.3353 -0.0131
 1017MOL0     C34165   0.944   6.179   8.778  0.2986  0.1349  0.2154
 1017MOL0     C34166   0.965   5.998   8.367  0.7320  0.5687 -0.2480
 1017MOL0     C34167   1.087   6.020   8.310  0.0699  0.0621 -0.4314
 1017MOL0     C34168   1.124   5.950   8.198  0.0400  0.6316  0.1443
 1017MOL0     C34169   1.046   5.853   8.133  0.3099 -0.3719  0.3882
 1017MOL0     O34170   1.071   5.777   8.024  0.1901 -0.3124 -0.3464
 1017MOL0     C34171   1.195   5.799   7.951 -0.6488  0.0196 -0.1317
 1017MOL0     C34172   1.306   5.698   7.983  0.8254 -0.0901 -0.0257
 1017MOL0     C34173   1.450   5.742   7.939  0.7291 -0.8427  0.5771
 1017MOL0     C34174   1.540   5.621   7.908  0.3609 -1.1062  0.6954
 1017MOL0     C34175   1.557   5.613   7.764  0.6224  0.0035  0.1382
 1017MOL0     C34176   1.590   5.608   7.646  0.6447  0.0251  0.4301
 1017MOL0     C34177   0.930   5.817   8.198 -0.4285  0.7855  0.7531
 1017MOL0     C34178   0.888   5.889   8.312 -0.0971  0.4012 -0.3274
 1017MOL0     H34179   1.060   6.422   8.573 -0.8898  1.9943  0.0361
 1017MOL0     H34180   1.067   6.542   8.797 -1.1805  0.4397 -0.2882
 1017MOL0     H34181   1.021   6.295   9.157  1.5638 -0.6100 -1.3816
 1017MOL0     H34182   0.845   6.347   9.132  1.1855 -1.6273 -1.5066
 1017MOL0     H34183   1.065   6.441   9.314 -0.4327  3.5828  0.0111
 1017MOL0     H34184   0.898   6.377   9.347  0.3190  1.3097  0.9413
 1017MOL0     H34185   0.801   6.567   9.238 -1.1964 -0.2861  2.5704
 1017MOL0     H34186   0.958   6.640   9.201 -1.2752  1.8982  0.3288
 1017MOL0     H34187   0.818   6.583   9.469 -1.7140  2.2355  0.9011
 1017MOL0     H34188   0.994   6.623   9.464  0.2753 -0.4355 -1.0865
 1017MOL0     H34189   0.924   6.855   9.361 -1.8309  1.7861 -0.6915
 1017MOL0     H34190   0.844   6.819   9.511  3.4437  1.8569 -0.6430
 1017MOL0     H34191   0.658   6.714   9.346  0.8248 -1.8465 -3.2372
 1017MOL0     H34192   0.747   6.800   9.224  0.9848 -2.2968  0.5689
 1017MOL0     H34193   0.584   6.916   9.451  1.3822 -0.6820  0.5080
 1017MOL0     H34194   0.733   6.999   9.425  1.4970 -1.5237  1.2740
 1017MOL0     H34195   0.647   7.012   9.172 -0.1504 -0.5306 -0.0777
 1017MOL0     H34196   0.577   7.107   9.305  0.2476  0.2953 -1.2925
 1017MOL0     H34197   0.470   6.914   9.013 -1.4116 -3.1906 -1.4692
 1017MOL0     H34198   0.213   6.802   8.917  2.7989 -3.0752 -1.9662
 1017MOL0     H34199   0.099   6.810   9.048 -0.1352  0.2981 -1.0230
 1017MOL0     H34200   0.179   6.570   8.981  0.3875 -0.9427 -0.0599
 1017MOL0     H34201   0.205   6.597   9.150 -2.8174 -3.7561 -2.3430
 1017MOL0     H34202   0.430   6.635   8.961  4.4163 -1.9440  1.2342
 1017MOL0     H34203   0.438   6.647   9.139  2.0732  0.9688 -1.0423
 1017MOL0     H34204   0.336   6.402   9.124  1.9790  1.0082  2.0169
 1017MOL0     H34205   0.506   6.431   9.085  1.0627  0.1230 -0.7681
 1017MOL0     H34206   0.316   6.290   8.714  0.1194  0.1856 -1.2181
 1017MOL0     H34207   0.447   6.257   8.519  0.3238  1.4584 -1.6960
 1017MOL0     H34208   0.800   6.471   8.225  1.4579 -1.4959 -0.1217
 1017MOL0     H34209   0.935   6.443   8.012 -0.5334 -0.0423 -2.2602
 1017MOL0     H34210   0.980   6.399   7.816 -2.3825 -1.1023 -1.3186
 1017MOL0     H34211   1.065   6.279   7.721 -0.6006 -2.8711  1.0594
 1017MOL0     H34212   1.173   6.369   8.002 -1.4220 -2.4201  1.2905
 1017MOL0     H34213   1.236   6.405   7.852 -0.4767 -0.3339 -0.4249
 1017MOL0     H34214   1.277   6.156   7.809 -0.2929  1.3073 -1.2084
 1017MOL0     H34215   1.200   6.138   7.969 -0.3450  0.6158 -1.0298
 1017MOL0     H34216   1.440   6.304   7.911 -1.8388  3.0134  0.2998
 1017MOL0     H34217   1.365   6.259   8.074  0.7795  2.9196 -1.1250
 1017MOL0     H34218   1.477   6.063   7.860 -0.3239 -0.4824 -0.2091
 1017MOL0     H34219   1.425   6.015   8.021 -2.1921  0.6189 -2.0722
 1017MOL0     H34220   1.605   6.206   8.100  0.1281  3.7071 -3.4472
 1017MOL0     H34221   1.659   6.205   7.938  1.4544  0.3437  0.9284
 1017MOL0     H34222   1.662   5.943   8.091 -2.9871  1.5974  0.6498
 1017MOL0     H34223   1.696   5.967   7.926 -1.1683  0.6162 -0.5349
 1017MOL0     H34224   1.856   6.091   8.167  1.2010 -0.0830 -0.0057
 1017MOL0     H34225   1.878   6.126   7.995  3.6434 -1.8560  0.3301
 1017MOL0     H34226   0.837   6.036   8.023 -2.7581  0.4832 -0.5011
 1017MOL0     H34227   0.674   6.084   8.220 -2.0844 -0.6205 -1.6584
 1017MOL0     H34228   0.765   6.489   8.696 -0.7283 -0.0341 -1.2720
 1017MOL0     H34229   0.633   6.510   8.897 -1.2948 -1.3733  1.7810
 1017MOL0     H34230   0.909   6.179   8.978 -1.2768 -1.0319 -1.6660
 1017MOL0     H34231   0.909   6.076   8.784  2.3671 -0.7055 -0.7934
 1017MOL0     H34232   1.146   6.094   8.362 -2.3177  0.3496  2.0731
 1017MOL0     H34233   1.221   5.971   8.154  0.3063 -1.7748 -0.5642
 1017MOL0     H34234   1.230   5.901   7.966 -0.6776 -0.2795  2.3655
 1017MOL0     H34235   1.180   5.788   7.843  2.2921 -3.8952 -0.3619
 1017MOL0     H34236   1.315   5.684   8.091 -0.9933 -1.4115  0.0052
 1017MOL0     H34237   1.279   5.603   7.936 -0.3385  1.2511 -2.2440
 1017MOL0     H34238   1.491   5.793   8.027 -0.6870 -1.9174  1.9244
 1017MOL0     H34239   1.452   5.816   7.858 -1.8231 -0.5814  0.6910
 1017MOL0     H34240   1.628   5.628   7.973 -0.0901 -0.1941  1.2377
 1017MOL0     H34241   1.492   5.529   7.941  0.8326 -1.3506  0.7103
 1017MOL0     H34242   1.616   5.586   7.544  0.3833  2.6255 -0.2700
 1017MOL0     H34243   0.870   5.736   8.159 -0.1431  0.9086  0.0424
 1017MOL0     H34244   0.790   5.857   8.345 -0.6907  1.8483 -0.5979
 1018MOL0     O34245   4.988   1.278   3.496  0.1387  0.5499  0.4395
 1018MOL0     C34246   5.004   1.159   3.537  0.2175  0.7813  1.1295
 1018MOL0     O34247   4.912   1.083   3.602 -0.6357  0.2384 -0.7924
 1018MOL0     C34248   4.793   1.133   3.644  0.4024 -0.4649  0.1174
 1018MOL0     C34249   4.773   1.256   3.713 -0.9005  0.2799 -0.1481
 1018MOL0     C34250   4.647   1.298   3.758  0.4346 -0.1106  0.1174
 1018MOL0     C34251   4.537   1.216   3.713 -0.4939  0.0305 -0.0667
 1018MOL0     O34252   4.405   1.224   3.750  0.5219 -0.3819  0.9311
 1018MOL0     C34253   4.364   1.298   3.866 -0.6033 -0.0453 -0.4316
 1018MOL0     C34254   4.235   1.251   3.926  0.3107 -0.2741 -0.3419
 1018MOL0     C34255   4.124   1.285   3.823  0.4130 -0.3822  0.2963
 1018MOL0     C34256   3.975   1.247   3.857  0.4188  0.3712  0.0276
 1018MOL0     C34257   3.913   1.316   3.976 -0.2307  0.4006  0.0841
 1018MOL0     C34258   3.767   1.336   3.962  0.0327  0.0405  0.0364
 1018MOL0     C34259   3.690   1.203   3.956 -0.1798 -0.3225 -0.7827
 1018MOL0     C34260   3.546   1.237   3.931  0.7754 -0.9880 -0.3771
 1018MOL0     N34261   3.448   1.132   3.937  0.0832 -0.2134 -0.7334
 1018MOL0     C34262   3.460   1.013   3.869  0.2973  0.5972  0.0049
 1018MOL0     C34263   3.345   0.945   3.908 -0.2426 -0.9511 -0.3737
 1018MOL0     C34264   3.302   0.821   3.848 -0.8364 -0.0001 -0.0050
 1018MOL0     C34265   3.154   0.815   3.803 -1.6951  1.2021 -0.9301
 1018MOL0     C34266   3.112   0.674   3.769 -0.4879  0.5058 -0.2431
 1018MOL0     C34267   2.967   0.675   3.731 -0.0623  0.3781 -0.3938
 1018MOL0     O34268   2.941   0.544   3.682 -1.3185 -1.3744  0.2362
 1018MOL0     C34269   2.814   0.504   3.674  0.6863  0.3283  0.2597
 1018MOL0     C34270   2.709   0.594   3.644 -0.0269 -0.0879  0.2868
 1018MOL0     C34271   2.580   0.551   3.651 -0.0643  0.2300  0.5738
 1018MOL0     C34272   2.548   0.413   3.668 -0.5492 -0.8171 -0.4810
 1018MOL0     C34273   2.404   0.373   3.668 -0.6454 -1.1981 -0.2664
 1018MOL0     O34274   2.372   0.247   3.697 -0.4553  1.0213  1.1129
 1018MOL0     C34275   2.246   0.198   3.656  0.6981  0.1961 -0.5960
 1018MOL0     C34276   2.128   0.244   3.711  0.5785  0.2631 -0.8584
 1018MOL0     C34277   2.005   0.182   3.684  0.2357  0.5222 -0.0927
 1018MOL0     C34278   1.989   0.082   3.587  0.5904 -0.8123 -0.2842
 1018MOL0     O34279   1.871   0.018   3.573  0.9318 -0.6936 -0.5403
 1018MOL0     C34280   1.845  -0.070   3.464 -0.4574 -0.4161 -0.0299
 1018MOL0     C34281   1.698  -0.117   3.484 -0.3396 -0.9454  0.7237
 1018MOL0     C34282   1.661  -0.219   3.374 -0.6288  0.1488  0.7204
 1018MOL0     C34283   1.514  -0.255   3.358  0.3359  0.9184 -0.0597
 1018MOL0     C34284   1.502  -0.345   3.227 -1.5233  0.0301  0.0238
 1018MOL0     C34285   1.358  -0.395   3.211 -1.2996 -0.3201 -1.0712
 1018MOL0     C34286   1.253  -0.288   3.185 -0.9954  0.4747  0.3980
 1018MOL0     C34287   1.114  -0.351   3.202 -0.7603 -0.1243  0.9662
 1018MOL0    Cl34288   0.985  -0.235   3.151 -0.3885  0.0544 -0.2035
 1018MOL0     C34289   2.110   0.036   3.531 -0.3981  0.0714  0.1044
 1018MOL0     C34290   2.235   0.096   3.560 -1.3812 -0.1738 -0.3206
 1018MOL0     O34291   2.318   0.457   3.640 -0.2890 -0.3442 -0.1822
 1018MOL0     C34292   2.651   0.327   3.700  0.1435  0.2680  0.9521
 1018MOL0     C34293   2.781   0.371   3.719  0.0469  0.0916 -0.8797
 1018MOL0     N34294   3.276   1.030   4.001 -0.2999  0.3353  0.2807
 1018MOL0     N34295   3.346   1.138   4.019 -0.5077  0.0693  0.1454
 1018MOL0     C34296   4.555   1.106   3.639 -0.4913  0.1263 -0.3913
 1018MOL0     C34297   4.683   1.063   3.608 -0.7893  0.1446  0.1946
 1018MOL0     C34298   5.131   1.104   3.506  0.2625  0.2502  1.1547
 1018MOL0     C34299   5.240   1.181   3.457 -0.1330  0.4236  0.8274
 1018MOL0     C34300   5.358   1.135   3.404 -0.0750  0.2724  0.6497
 1018MOL0     C34301   5.389   0.996   3.406 -0.4618 -0.9601 -1.1059
 1018MOL0     O34302   5.506   0.957   3.341 -0.0200  1.3130 -0.1169
 1018MOL0     C34303   5.514   0.826   3.297 -1.7483  0.3434  0.4285
 1018MOL0     C34304   5.641   0.822   3.215  0.1716  0.3230  0.2252
 1018MOL0     C34305   5.648   0.676   3.172 -0.6705  0.4461 -0.1334
 1018MOL0     C34306   5.700   0.658   3.026 -0.4011  1.0307  0.1748
 1018MOL0     C34307   5.586   0.685   2.938 -0.0329  0.7622  0.7295
 1018MOL0     C34308   5.497   0.698   2.857 -0.3778  0.1502  0.2039
 1018MOL0     C34309   5.286   0.917   3.464 -0.9467  0.5546 -1.1280
 1018MOL0     C34310   5.168   0.969   3.516  0.1352 -0.3593  0.2373
 1018MOL0     H34311   4.851   1.327   3.741  3.2021 -3.8991  0.2340
 1018MOL0     H34312   4.652   1.380   3.828 -0.5809 -0.3597  0.5015
 1018MOL0     H34313   4.352   1.407   3.860 -0.2728  0.2721  2.8226
 1018MOL0     H34314   4.443   1.283   3.940 -1.7609  1.7035  1.2756
 1018MOL0     H34315   4.224   1.298   4.024 -1.0146 -0.9664 -0.1284
 1018MOL0     H34316   4.232   1.142   3.938 -4.0888 -0.0597  3.5165
 1018MOL0     H34317   4.152   1.235   3.729  0.2617 -1.8918  1.0230
 1018MOL0     H34318   4.128   1.394   3.809  2.8596 -0.0494  2.8327
 1018MOL0     H34319   3.919   1.261   3.764 -1.5669 -0.6795  1.0184
 1018MOL0     H34320   3.974   1.138   3.865  0.8389 -0.0998 -4.0675
 1018MOL0     H34321   3.960   1.412   3.999 -1.0350  0.5806  1.0363
 1018MOL0     H34322   3.928   1.245   4.058 -0.4820  1.0767  0.7155
 1018MOL0     H34323   3.752   1.394   3.871  0.6641  1.7416  0.9860
 1018MOL0     H34324   3.741   1.401   4.046 -0.0383  0.7993 -0.5635
 1018MOL0     H34325   3.725   1.135   3.878  3.5342 -1.4031  1.5768
 1018MOL0     H34326   3.703   1.147   4.049 -1.7579 -1.9793 -1.4895
 1018MOL0     H34327   3.546   1.293   3.837  0.7098  0.7707  0.6402
 1018MOL0     H34328   3.515   1.311   4.005 -2.6776  0.9705 -3.4313
 1018MOL0     H34329   3.539   0.992   3.798  0.8896  3.7693 -0.4224
 1018MOL0     H34330   3.330   0.741   3.916  1.2570 -0.7484 -1.6434
 1018MOL0     H34331   3.366   0.817   3.759 -0.5804  3.6783 -0.1403
 1018MOL0     H34332   3.133   0.881   3.718  1.7369  3.6831 -0.0839
 1018MOL0     H34333   3.086   0.850   3.882 -1.8161  0.3580 -0.6508
 1018MOL0     H34334   3.164   0.653   3.674 -0.6230  0.2454 -0.2587
 1018MOL0     H34335   3.136   0.603   3.848  0.9910  0.8748 -0.3278
 1018MOL0     H34336   2.943   0.753   3.659  0.6194  1.3280  0.3829
 1018MOL0     H34337   2.908   0.694   3.821 -1.9384  1.0257 -1.7043
 1018MOL0     H34338   2.728   0.691   3.600 -0.2853  0.0339  0.4418
 1018MOL0     H34339   2.500   0.621   3.628 -2.1926 -2.9872 -3.0169
 1018MOL0     H34340   2.112   0.317   3.789 -3.2094  0.7921 -1.9274
 1018MOL0     H34341   1.927   0.222   3.747 -0.5144 -0.5804 -0.2867
 1018MOL0     H34342   1.907  -0.160   3.461 -2.1363 -1.7376  2.0969
 1018MOL0     H34343   1.862  -0.020   3.368 -0.1369  0.7319  0.6008
 1018MOL0     H34344   1.635  -0.029   3.477  0.0700 -0.5260  2.0074
 1018MOL0     H34345   1.685  -0.162   3.583  2.8264  0.8638  2.1170
 1018MOL0     H34346   1.712  -0.312   3.399  1.3554  1.8081  3.4062
 1018MOL0     H34347   1.705  -0.187   3.279  1.8142 -1.0003  1.3819
 1018MOL0     H34348   1.461  -0.309   3.436 -1.8269 -1.0659 -2.7075
 1018MOL0     H34349   1.460  -0.160   3.354 -0.3348  0.5408 -0.0417
 1018MOL0     H34350   1.561  -0.436   3.247  1.3169  1.9968  1.2226
 1018MOL0     H34351   1.537  -0.300   3.134 -1.4209  0.3051  0.1963
 1018MOL0     H34352   1.346  -0.441   3.309  0.5305  0.4869 -0.4298
 1018MOL0     H34353   1.358  -0.465   3.127  2.5906  0.4681 -1.9222
 1018MOL0     H34354   1.274  -0.205   3.253  0.4155  1.4030 -1.1089
 1018MOL0     H34355   1.264  -0.252   3.083  0.2999 -1.6948 -0.2921
 1018MOL0     H34356   1.097  -0.383   3.305 -1.2345  0.2420  1.0089
 1018MOL0     H34357   1.112  -0.436   3.134  0.3123  2.6384 -2.9168
 1018MOL0     H34358   2.112  -0.045   3.459 -2.6707 -1.7253  1.9037
 1018MOL0     H34359   2.326   0.059   3.515  0.1153  1.9140  0.7982
 1018MOL0     H34360   2.613   0.227   3.721 -1.0079  0.4844  0.0211
 1018MOL0     H34361   2.859   0.301   3.746 -0.3828 -1.3643 -3.1059
 1018MOL0     H34362   4.466   1.050   3.611 -0.9822 -0.3112  1.8335
 1018MOL0     H34363   4.694   0.971   3.552 -1.9781  0.5711 -0.7737
 1018MOL0     H34364   5.237   1.289   3.460 -2.6720  0.4205  0.3474
 1018MOL0     H34365   5.412   1.206   3.341 -2.2412  0.1790 -1.4941
 1018MOL0     H34366   5.424   0.799   3.241 -2.1043  2.2048  0.0268
 1018MOL0     H34367   5.528   0.768   3.389 -0.1360  0.1801  0.1032
 1018MOL0     H34368   5.634   0.886   3.126  0.6522  0.3450  0.2052
 1018MOL0     H34369   5.734   0.853   3.263 -0.3903 -1.5632  2.7450
 1018MOL0     H34370   5.558   0.615   3.182 -0.8779  0.9599  1.2779
 1018MOL0     H34371   5.727   0.639   3.239 -2.0345 -0.7936  0.8466
 1018MOL0     H34372   5.782   0.729   3.012  1.2123 -0.7497  0.1207
 1018MOL0     H34373   5.732   0.555   3.009  0.0791  1.2027  0.0139
 1018MOL0     H34374   5.423   0.712   2.780 -0.3815  1.8807  0.4826
 1018MOL0     H34375   5.294   0.809   3.469 -1.2403  0.5739  0.1337
 1018MOL0     H34376   5.094   0.892   3.533 -0.5092 -0.0556 -1.0709
 1019MOL0     O34377   0.097   9.052   0.699  0.0120 -0.4858 -0.0518
 1019MOL0     C34378   0.020   8.986   0.644 -0.1222  0.5720 -0.0903
 1019MOL0     O34379   0.051   8.894   0.549 -0.3319 -0.2074 -0.6484
 1019MOL0     C34380   0.168   8.897   0.488  0.0342  0.4746 -0.5060
 1019MOL0     C34381   0.239   9.024   0.464 -0.0538 -0.5916 -0.2666
 1019MOL0     C34382   0.378   9.022   0.421  0.6143 -0.0066  0.0481
 1019MOL0     C34383   0.430   8.895   0.389 -0.3941 -0.4299 -0.1724
 1019MOL0     O34384   0.564   8.888   0.366 -0.1182  0.1002 -0.1764
 1019MOL0     C34385   0.614   8.891   0.230  0.1914  0.3380 -0.0316
 1019MOL0     C34386   0.761   8.854   0.210  0.4471  1.2956 -0.3231
 1019MOL0     C34387   0.806   8.738   0.293  0.3897  0.4784  0.1692
 1019MOL0     C34388   0.939   8.677   0.256  0.3645  0.5561  0.4820
 1019MOL0     C34389   0.931   8.526   0.263 -0.3024 -0.0410  0.0081
 1019MOL0     C34390   1.085   8.478   0.243  0.5694  0.1963  0.2465
 1019MOL0     C34391   1.087   8.327   0.226 -0.7921  0.2008  0.2522
 1019MOL0     C34392   1.005   8.247   0.334 -0.3292 -0.3643  0.5722
 1019MOL0     N34393   1.025   8.099   0.350 -0.3437  0.3945 -0.2383
 1019MOL0     C34394   0.929   8.008   0.302  0.4059  1.3391  0.1960
 1019MOL0     C34395   0.975   7.894   0.366  0.1837  0.4034  0.3619
 1019MOL0     C34396   0.919   7.751   0.369 -0.2629 -0.7269  0.6497
 1019MOL0     C34397   0.807   7.746   0.473 -0.1744  0.3990  0.3160
 1019MOL0     C34398   0.750   7.592   0.496 -0.3760  0.1134 -0.3198
 1019MOL0     C34399   0.713   7.522   0.365  0.1324 -1.0391  0.2723
 1019MOL0     O34400   0.603   7.590   0.316  0.4307  1.0719  0.0982
 1019MOL0     C34401   0.477   7.545   0.351 -0.3828  0.1957 -0.1729
 1019MOL0     C34402   0.372   7.621   0.306 -0.5545  0.6023 -0.0375
 1019MOL0     C34403   0.234   7.589   0.337  0.1783  0.4144 -0.1619
 1019MOL0     C34404   0.204   7.481   0.424 -0.9572  0.6204 -0.9289
 1019MOL0     C34405   0.063   7.458   0.474  1.1123 -0.0758 -0.2293
 1019MOL0     O34406  -0.036   7.521   0.412 -0.3312  0.2790 -0.8645
 1019MOL0     C34407  -0.166   7.524   0.455  0.4407 -0.2609 -0.2544
 1019MOL0     C34408  -0.229   7.456   0.567  0.1806  0.2723  0.0663
 1019MOL0     C34409  -0.370   7.474   0.599  0.0257 -0.5034  0.8330
 1019MOL0     C34410  -0.449   7.559   0.516 -1.1148 -0.3773  0.8248
 1019MOL0     O34411  -0.581   7.573   0.527  0.4273  0.3967  0.9388
 1019MOL0     C34412  -0.650   7.470   0.590  0.4454 -0.8478  0.7615
 1019MOL0     C34413  -0.799   7.505   0.576  0.7576 -0.0852 -0.7345
 1019MOL0     C34414  -0.880   7.444   0.691  0.3973 -1.0191 -0.8712
 1019MOL0     C34415  -1.035   7.466   0.669 -0.6217 -0.4980  0.7431
 1019MOL0     C34416  -1.117   7.364   0.763  0.3599 -0.7628  0.2508
 1019MOL0     C34417  -1.124   7.224   0.702  0.0074 -0.1706 -0.2720
 1019MOL0     C34418  -1.189   7.114   0.791  0.0095  0.6797  0.3309
 1019MOL0     C34419  -1.156   7.118   0.944 -0.0814  1.2775 -0.5615
 1019MOL0    Cl34420  -1.169   6.945   1.017  0.1696 -0.1355 -0.9057
 1019MOL0     C34421  -0.382   7.636   0.419  0.0331 -0.0205 -0.8203
 1019MOL0     C34422  -0.247   7.617   0.389 -0.1250 -0.0725 -0.3136
 1019MOL0     O34423   0.052   7.384   0.569 -0.9421 -0.1981 -0.5318
 1019MOL0     C34424   0.316   7.400   0.466 -0.1842  0.6178 -0.0678
 1019MOL0     C34425   0.447   7.435   0.445 -0.1065  0.5542  0.3665
 1019MOL0     N34426   1.099   7.919   0.425 -0.1549 -0.2419 -0.0272
 1019MOL0     N34427   1.132   8.041   0.401  0.5249  0.7810 -0.6972
 1019MOL0     C34428   0.363   8.775   0.397  0.3231  0.0785 -0.2468
 1019MOL0     C34429   0.231   8.778   0.455  0.6836  0.2284  0.7257
 1019MOL0     C34430  -0.120   9.020   0.669  0.1785  0.7722 -0.7053
 1019MOL0     C34431  -0.160   9.094   0.775 -0.1931 -0.5054 -1.0391
 1019MOL0     C34432  -0.295   9.109   0.799  0.3965 -0.2328  0.9685
 1019MOL0     C34433  -0.393   9.046   0.718  0.1828  0.0829  0.0545
 1019MOL0     O34434  -0.527   9.066   0.756  0.2491  0.0992 -0.3535
 1019MOL0     C34435  -0.601   8.945   0.734  0.0876 -0.7277 -0.1352
 1019MOL0     C34436  -0.740   8.996   0.750  0.4786  0.2635  1.2013
 1019MOL0     C34437  -0.846   8.894   0.724  0.3080  0.5868 -0.4157
 1019MOL0     C34438  -0.995   8.936   0.725  1.0893 -0.2584  0.3673
 1019MOL0     C34439  -1.074   8.854   0.810 -0.5014 -0.8808  0.2307
 1019MOL0     C34440  -1.153   8.797   0.881  0.2250 -0.2700 -0.2219
 1019MOL0     C34441  -0.352   8.971   0.610  0.6263  0.7999  0.3079
 1019MOL0     C34442  -0.213   8.962   0.582  0.0218 -0.1611  0.1562
 1019MOL0     H34443   0.190   9.117   0.491 -1.3958 -2.0509  2.8290
 1019MOL0     H34444   0.449   9.103   0.406  3.1042 -2.1911 -0.8399
 1019MOL0     H34445   0.595   8.985   0.178  0.1976 -0.7643 -2.1447
 1019MOL0     H34446   0.553   8.814   0.181  0.5561 -0.5161  0.8202
 1019MOL0     H34447   0.817   8.942   0.243  0.1485  1.8104 -1.1640
 1019MOL0     H34448   0.768   8.839   0.102 -0.0544 -0.9520 -0.0977
 1019MOL0     H34449   0.724   8.666   0.280  0.8974 -0.0207 -0.3291
 1019MOL0     H34450   0.803   8.780   0.394 -0.2799 -1.1223  0.8413
 1019MOL0     H34451   0.971   8.708   0.156 -2.5137 -2.0911 -1.4413
 1019MOL0     H34452   1.017   8.703   0.328  0.5862 -2.8525  1.6552
 1019MOL0     H34453   0.865   8.485   0.186  1.0619 -2.2280 -0.0947
 1019MOL0     H34454   0.893   8.492   0.360 -1.5400  1.8152  0.2273
 1019MOL0     H34455   1.142   8.501   0.333  1.3742 -0.0011 -0.2051
 1019MOL0     H34456   1.132   8.531   0.159  0.7652 -3.1645 -1.9332
 1019MOL0     H34457   1.066   8.307   0.121 -0.3372 -1.1740  0.4105
 1019MOL0     H34458   1.189   8.290   0.235 -1.6489 -2.4963 -0.3122
 1019MOL0     H34459   0.899   8.271   0.321 -0.2476  0.0889  0.7365
 1019MOL0     H34460   1.044   8.279   0.430 -0.2950 -0.1953  0.5022
 1019MOL0     H34461   0.843   8.011   0.236  0.0697  1.6744  0.6406
 1019MOL0     H34462   1.001   7.683   0.395  1.1606  0.9902  0.8025
 1019MOL0     H34463   0.884   7.726   0.268 -0.2133  4.7056 -0.9958
 1019MOL0     H34464   0.724   7.807   0.436  0.4892  0.3071 -1.4110
 1019MOL0     H34465   0.847   7.786   0.567  0.1426  0.7979  0.0102
 1019MOL0     H34466   0.832   7.542   0.547 -0.2536  1.6308  1.0575
 1019MOL0     H34467   0.665   7.584   0.565 -1.3456  1.9951 -1.1952
 1019MOL0     H34468   0.696   7.414   0.374  0.5756 -1.3081 -1.6394
 1019MOL0     H34469   0.803   7.537   0.305 -0.1237  0.3758  0.2089
 1019MOL0     H34470   0.395   7.708   0.244 -0.2449  2.5983  2.7119
 1019MOL0     H34471   0.154   7.645   0.288 -0.7209 -1.0109 -0.3648
 1019MOL0     H34472  -0.183   7.384   0.635  0.8601 -1.0055 -1.6632
 1019MOL0     H34473  -0.405   7.419   0.686  1.2283 -2.0733  0.3681
 1019MOL0     H34474  -0.630   7.490   0.696 -0.5321  2.6574  0.4032
 1019MOL0     H34475  -0.632   7.367   0.559  1.8896 -0.7699  1.2619
 1019MOL0     H34476  -0.832   7.480   0.475 -0.3668  0.8674 -0.6186
 1019MOL0     H34477  -0.800   7.614   0.585  0.0814 -0.1998  0.9443
 1019MOL0     H34478  -0.849   7.500   0.779  0.1184 -2.1574 -0.0289
 1019MOL0     H34479  -0.852   7.341   0.712  0.1475 -1.8115 -3.9012
 1019MOL0     H34480  -1.065   7.567   0.695  1.5642  0.0069  1.5489
 1019MOL0     H34481  -1.078   7.446   0.570 -2.6824 -1.1627  1.7333
 1019MOL0     H34482  -1.219   7.402   0.769  0.9961  0.9079  4.0824
 1019MOL0     H34483  -1.082   7.353   0.867 -0.3716 -2.6443  0.3272
 1019MOL0     H34484  -1.030   7.202   0.652 -1.1403  1.2947 -3.2937
 1019MOL0     H34485  -1.188   7.236   0.615 -1.0120  0.0488  0.4907
 1019MOL0     H34486  -1.298   7.113   0.796 -0.0515  0.2552 -0.6948
 1019MOL0     H34487  -1.170   7.016   0.746  0.7377  0.7896  0.3795
 1019MOL0     H34488  -1.232   7.182   0.990 -2.3305 -0.8976 -1.0746
 1019MOL0     H34489  -1.053   7.150   0.963  0.9538 -0.8773 -2.1342
 1019MOL0     H34490  -0.458   7.691   0.365  0.6503  3.1572  1.3051
 1019MOL0     H34491  -0.213   7.672   0.302 -1.4987  2.6467  0.7448
 1019MOL0     H34492   0.300   7.305   0.516  1.2488 -0.7265 -1.9868
 1019MOL0     H34493   0.528   7.369   0.475  0.5596 -0.5255 -3.3012
 1019MOL0     H34494   0.417   8.682   0.382 -1.7229 -1.4811  1.5181
 1019MOL0     H34495   0.177   8.688   0.484 -0.2150  0.6694  0.4576
 1019MOL0     H34496  -0.089   9.136   0.846 -0.4955 -0.0001 -1.0326
 1019MOL0     H34497  -0.339   9.168   0.879  0.0973  0.1707  0.5163
 1019MOL0     H34498  -0.573   8.861   0.799 -3.0198 -2.9274 -1.4347
 1019MOL0     H34499  -0.593   8.915   0.629 -0.4405  1.9304 -1.0111
 1019MOL0     H34500  -0.744   9.056   0.841 -1.1193  0.8280  0.7859
 1019MOL0     H34501  -0.742   9.070   0.669 -0.0122  1.7090  2.4757
 1019MOL0     H34502  -0.825   8.811   0.792 -0.1987 -3.2961 -4.5325
 1019MOL0     H34503  -0.826   8.844   0.629 -1.4219 -1.4094  0.1788
 1019MOL0     H34504  -1.004   9.040   0.757  1.2684  0.0031 -0.3877
 1019MOL0     H34505  -1.024   8.935   0.619  1.6109  1.8478  0.1523
 1019MOL0     H34506  -1.212   8.726   0.934 -0.6414 -1.1266 -2.2408
 1019MOL0     H34507  -0.412   8.910   0.543  0.7383 -0.0289  0.9369
 1019MOL0     H34508  -0.183   8.899   0.498 -0.8240 -1.4874  0.8004
 1020MOL0     O34509   9.260   0.479   6.844  0.5128  0.1544 -0.3151
 1020MOL0     C34510   9.349   0.398   6.826  0.5524  0.0045  0.7146
 1020MOL0     O34511   9.329   0.261   6.842 -0.6563  0.2706 -0.0352
 1020MOL0     C34512   9.205   0.222   6.872  0.3370 -0.1248  0.0227
 1020MOL0     C34513   9.199   0.135   6.973  0.9593  0.9015 -0.3261
 1020MOL0     C34514   9.072   0.073   7.014  0.6733  0.1702 -0.0485
 1020MOL0     C34515   8.964   0.114   6.948  0.4788  0.5165  0.4651
 1020MOL0     O34516   8.841   0.059   6.977  0.2512 -0.0741 -0.3154
 1020MOL0     C34517   8.760   0.129   7.067 -0.2447 -0.8391 -0.0857
 1020MOL0     C34518   8.634   0.059   7.111 -0.2298  1.1173 -0.0675
 1020MOL0     C34519   8.559   0.153   7.206  0.2398 -0.4904  1.0757
 1020MOL0     C34520   8.430   0.073   7.259 -0.0646 -0.3344 -0.4233
 1020MOL0     C34521   8.336   0.152   7.352 -0.3022  0.3904 -0.8452
 1020MOL0     C34522   8.214   0.067   7.381 -0.1399 -0.0951 -0.3888
 1020MOL0     C34523   8.098   0.154   7.444 -0.2605  0.7958 -0.4636
 1020MOL0     C34524   8.101   0.186   7.583  0.2883 -0.7924  0.0155
 1020MOL0     N34525   7.996   0.278   7.621  0.4972  0.9230  1.3117
 1020MOL0     C34526   8.004   0.414   7.594  0.0666  0.4953  0.2388
 1020MOL0     C34527   7.887   0.464   7.642 -0.5873 -0.0008 -1.0196
 1020MOL0     C34528   7.855   0.604   7.638 -0.4728 -0.7995  0.1480
 1020MOL0     C34529   7.777   0.647   7.514 -0.5037 -0.6012 -0.7149
 1020MOL0     C34530   7.726   0.796   7.523 -0.0485 -0.3067 -0.2387
 1020MOL0     C34531   7.700   0.864   7.383 -0.8515  0.0409 -0.6440
 1020MOL0     O34532   7.660   0.766   7.290  0.5021 -0.2094 -0.4050
 1020MOL0     C34533   7.527   0.763   7.251  0.5106 -0.5137 -0.9076
 1020MOL0     C34534   7.491   0.693   7.138 -0.2032 -0.6128 -0.4572
 1020MOL0     C34535   7.350   0.668   7.115 -1.0405  0.7061 -0.3417
 1020MOL0     C34536   7.253   0.711   7.207  0.1741 -0.0415  0.0347
 1020MOL0     C34537   7.104   0.701   7.179  1.0671  0.5431 -0.6213
 1020MOL0     O34538   7.017   0.792   7.225  0.2466  0.0440 -0.5491
 1020MOL0     C34539   6.892   0.791   7.187  0.3482 -0.1928 -0.5420
 1020MOL0     C34540   6.853   0.805   7.049  0.9637  0.2785  0.2644
 1020MOL0     C34541   6.724   0.797   7.011  0.6727  0.3359 -0.4059
 1020MOL0     C34542   6.619   0.772   7.111  0.1253 -0.9468 -0.5980
 1020MOL0     O34543   6.491   0.751   7.075  0.3867  0.1510  0.4976
 1020MOL0     C34544   6.384   0.828   7.140 -0.4341 -0.2980 -0.1908
 1020MOL0     C34545   6.277   0.731   7.207 -0.3309  0.0046 -0.2281
 1020MOL0     C34546   6.330   0.641   7.319 -0.0457  0.4201  0.5723
 1020MOL0     C34547   6.223   0.571   7.405 -0.8261  0.3923 -0.0868
 1020MOL0     C34548   6.285   0.507   7.529 -0.0811  0.9005  0.0051
 1020MOL0     C34549   6.376   0.394   7.503  0.3310  0.1118  0.5152
 1020MOL0     C34550   6.395   0.303   7.631  0.8574  0.1174  0.4890
 1020MOL0     C34551   6.426   0.150   7.607 -0.6646  0.4247 -0.4070
 1020MOL0    Cl34552   6.600   0.125   7.584 -0.2648 -0.4385  0.7280
 1020MOL0     C34553   6.658   0.768   7.245  0.3750  0.1754  0.5934
 1020MOL0     C34554   6.793   0.776   7.284  0.7838  0.1481 -0.5339
 1020MOL0     O34555   7.072   0.613   7.100 -0.0747  0.2297 -0.4425
 1020MOL0     C34556   7.297   0.772   7.324 -0.0009 -1.1341  1.1126
 1020MOL0     C34557   7.429   0.804   7.343  0.2967  0.7810  0.2814
 1020MOL0     N34558   7.811   0.364   7.695  0.1673 -0.6415 -0.0559
 1020MOL0     N34559   7.881   0.246   7.680  0.5241 -0.1908  0.6888
 1020MOL0     C34560   8.967   0.201   6.848 -0.1326 -0.7071 -0.3841
 1020MOL0     C34561   9.084   0.256   6.798  0.1697 -0.0848 -0.6925
 1020MOL0     C34562   9.489   0.449   6.793 -0.1084  0.5433  0.4955
 1020MOL0     C34563   9.586   0.350   6.742  0.2223 -0.5630 -0.8728
 1020MOL0     C34564   9.711   0.395   6.705  0.4113  0.5505  0.5951
 1020MOL0     C34565   9.747   0.531   6.697 -0.0781  0.0003 -0.6162
 1020MOL0     O34566   9.870   0.563   6.649 -0.5377 -0.4751 -0.8033
 1020MOL0     C34567   9.951   0.671   6.693 -0.5750 -0.1617  0.9571
 1020MOL0     C34568  10.085   0.615   6.734 -0.3550 -0.0680 -0.1377
 1020MOL0     C34569  10.153   0.700   6.840  0.3031 -1.4157 -0.3211
 1020MOL0     C34570  10.295   0.736   6.816  0.3892  0.2657  0.1084
 1020MOL0     C34571  10.385   0.629   6.859 -0.6610 -0.3188 -0.4647
 1020MOL0     C34572  10.461   0.537   6.903  0.4245  0.0381 -0.5153
 1020MOL0     C34573   9.653   0.621   6.749 -0.1623  0.0622  0.1102
 1020MOL0     C34574   9.523   0.582   6.791 -0.2032 -0.0513  0.2232
 1020MOL0     H34575   9.285   0.095   7.024  1.1149  2.2397  0.5230
 1020MOL0     H34576   9.062  -0.010   7.084 -0.3370  1.4583  1.4058
 1020MOL0     H34577   8.726   0.216   7.009 -1.7654 -3.0538 -2.7401
 1020MOL0     H34578   8.817   0.153   7.157 -0.6923 -0.7043  0.1633
 1020MOL0     H34579   8.658  -0.035   7.162  0.4658  1.3264  0.0007
 1020MOL0     H34580   8.572   0.034   7.025  0.4053 -1.2401  0.0798
 1020MOL0     H34581   8.529   0.244   7.152 -0.4465 -0.6932  1.1074
 1020MOL0     H34582   8.620   0.189   7.289  0.4093 -0.5843  0.9929
 1020MOL0     H34583   8.380   0.039   7.168  2.3295  2.0841 -2.8068
 1020MOL0     H34584   8.471  -0.011   7.316 -0.5359 -0.4512 -0.2583
 1020MOL0     H34585   8.324   0.252   7.308  3.2491  1.0240 -0.7354
 1020MOL0     H34586   8.393   0.181   7.441  0.5923  2.0984 -1.9089
 1020MOL0     H34587   8.235  -0.022   7.441 -0.5159  0.7548  1.0576
 1020MOL0     H34588   8.191   0.038   7.278  3.2347  2.1433 -1.9473
 1020MOL0     H34589   8.096   0.244   7.382  1.6706 -0.5700 -2.6765
 1020MOL0     H34590   8.001   0.107   7.429 -1.1763  1.3046  3.0119
 1020MOL0     H34591   8.198   0.227   7.612 -0.0915  0.8700 -0.9225
 1020MOL0     H34592   8.087   0.089   7.630 -4.3573  0.1612  1.1565
 1020MOL0     H34593   8.066   0.473   7.528 -0.8662 -0.2920 -1.4017
 1020MOL0     H34594   7.950   0.656   7.653  0.0137 -1.9332  1.2596
 1020MOL0     H34595   7.801   0.621   7.732 -2.2666 -0.7490 -0.8576
 1020MOL0     H34596   7.691   0.580   7.505 -1.6341  0.6027  0.6009
 1020MOL0     H34597   7.843   0.627   7.429 -0.9322 -2.1818 -0.7145
 1020MOL0     H34598   7.628   0.803   7.572 -0.3283  0.5129 -0.8881
 1020MOL0     H34599   7.797   0.851   7.585  0.1440  0.8154 -1.4146
 1020MOL0     H34600   7.791   0.912   7.346 -1.2525  0.7560 -0.7328
 1020MOL0     H34601   7.634   0.949   7.402 -0.6053  0.4806 -1.7084
 1020MOL0     H34602   7.559   0.663   7.059 -0.4653 -0.9234 -0.5664
 1020MOL0     H34603   7.325   0.603   7.032  3.6476 -0.8736 -0.8193
 1020MOL0     H34604   6.921   0.820   6.966 -0.5623  0.1414 -1.0539
 1020MOL0     H34605   6.686   0.823   6.913  0.7382  0.9558 -0.2715
 1020MOL0     H34606   6.336   0.900   7.074 -0.3530  0.2874  0.3784
 1020MOL0     H34607   6.430   0.888   7.219  0.2331  0.0940 -0.8666
 1020MOL0     H34608   6.234   0.662   7.134 -2.0929  0.8545 -0.0506
 1020MOL0     H34609   6.191   0.792   7.236  0.7234  2.0160 -1.0743
 1020MOL0     H34610   6.377   0.699   7.399  5.4028 -2.4949 -0.0338
 1020MOL0     H34611   6.403   0.569   7.280  0.4652  1.5190 -0.5751
 1020MOL0     H34612   6.137   0.629   7.438 -2.8786 -1.4366 -1.8907
 1020MOL0     H34613   6.169   0.494   7.349  1.4571  0.0815 -1.9903
 1020MOL0     H34614   6.198   0.477   7.587 -2.2103  2.3804 -2.2298
 1020MOL0     H34615   6.357   0.573   7.579  0.1559 -1.0997  2.4774
 1020MOL0     H34616   6.473   0.429   7.465 -0.3195 -1.2411 -2.7058
 1020MOL0     H34617   6.344   0.328   7.422 -0.1877  0.8956  0.0787
 1020MOL0     H34618   6.465   0.351   7.699  0.9046  2.5474 -1.1375
 1020MOL0     H34619   6.296   0.319   7.676  1.5783  3.7147  1.1294
 1020MOL0     H34620   6.369   0.101   7.527 -1.6739 -0.8739  1.0517
 1020MOL0     H34621   6.404   0.104   7.703 -0.3283  0.2049 -0.4340
 1020MOL0     H34622   6.580   0.775   7.320 -1.2842 -3.7427 -0.4829
 1020MOL0     H34623   6.829   0.770   7.386  2.9447  2.1662 -1.0985
 1020MOL0     H34624   7.222   0.800   7.397 -1.2585  1.0093 -0.9021
 1020MOL0     H34625   7.453   0.866   7.429  0.8695  0.8962  0.0400
 1020MOL0     H34626   8.873   0.226   6.801  1.8518  1.9625 -3.4214
 1020MOL0     H34627   9.090   0.332   6.720  0.2581  1.3723  0.6720
 1020MOL0     H34628   9.546   0.249   6.738 -3.4902  0.6934  0.3770
 1020MOL0     H34629   9.786   0.326   6.666  0.5621  0.6598  0.6908
 1020MOL0     H34630   9.902   0.716   6.780  1.1162 -0.0297  1.8828
 1020MOL0     H34631   9.967   0.753   6.623  0.7902  2.3483  3.9318
 1020MOL0     H34632  10.080   0.515   6.778  0.7017 -0.3330 -0.5791
 1020MOL0     H34633  10.137   0.604   6.638  0.0597 -3.5710  0.3622
 1020MOL0     H34634  10.140   0.660   6.941 -4.6646  2.0122  0.7950
 1020MOL0     H34635  10.093   0.792   6.836 -0.0633 -1.6780 -2.9674
 1020MOL0     H34636  10.307   0.737   6.707 -3.1149 -0.0870 -0.3897
 1020MOL0     H34637  10.320   0.833   6.858 -0.7644  0.1419  1.1203
 1020MOL0     H34638  10.527   0.468   6.950  2.1439  1.2972 -0.9791
 1020MOL0     H34639   9.668   0.724   6.720 -1.4847  0.8116  1.9010
 1020MOL0     H34640   9.450   0.652   6.829 -0.5127 -0.7419  0.9484
 1021MOL0     O34641   5.848   3.158   2.986 -0.5212  1.0651 -0.4354
 1021MOL0     C34642   5.854   3.037   3.001 -0.2896  0.6333  0.8849
 1021MOL0     O34643   5.773   2.941   2.934  0.4475  0.5205 -0.5850
 1021MOL0     C34644   5.686   2.978   2.835  0.3421  0.3401 -0.8290
 1021MOL0     C34645   5.723   3.071   2.739 -0.3595  0.4229 -0.2311
 1021MOL0     C34646   5.629   3.137   2.660  0.5196  0.3120  0.1704
 1021MOL0     C34647   5.492   3.097   2.658 -0.9453 -0.4994 -0.6001
 1021MOL0     O34648   5.394   3.139   2.580 -0.7860  0.0816  0.7803
 1021MOL0     C34649   5.409   3.256   2.505 -0.3535 -0.2486 -0.7249
 1021MOL0     C34650   5.279   3.260   2.434 -0.9957 -0.2616  0.4466
 1021MOL0     C34651   5.250   3.389   2.363 -0.2561 -0.8912  0.1823
 1021MOL0     C34652   5.106   3.403   2.318 -0.2306 -0.8553 -0.2209
 1021MOL0     C34653   5.081   3.546   2.264  0.3256  0.5565 -0.7768
 1021MOL0     C34654   4.947   3.599   2.324  0.2028 -0.5302 -0.0193
 1021MOL0     C34655   4.898   3.703   2.225 -0.5160  0.1002 -0.0776
 1021MOL0     C34656   4.772   3.656   2.159  0.2915  0.0813 -0.6574
 1021MOL0     N34657   4.789   3.569   2.047 -0.3993  0.3830 -0.2254
 1021MOL0     C34658   4.833   3.445   2.053  0.1423  0.1358  0.0255
 1021MOL0     C34659   4.809   3.391   1.932 -0.3050  0.0471 -0.8419
 1021MOL0     C34660   4.836   3.243   1.904  0.7936 -0.0720 -0.4480
 1021MOL0     C34661   4.984   3.211   1.942 -0.1713  0.6579  1.6261
 1021MOL0     C34662   5.024   3.080   1.871 -0.9849  0.1103 -0.2622
 1021MOL0     C34663   5.178   3.065   1.878  1.1969 -0.1072  0.8496
 1021MOL0     O34664   5.215   2.926   1.854 -0.1750 -0.7086  0.5152
 1021MOL0     C34665   5.328   2.881   1.910 -0.1700  0.4385  0.2875
 1021MOL0     C34666   5.455   2.929   1.888  0.1847  0.1110 -0.7073
 1021MOL0     C34667   5.562   2.869   1.945 -0.5853  0.3722 -0.0082
 1021MOL0     C34668   5.547   2.750   2.017 -0.5353  0.3522  0.3254
 1021MOL0     C34669   5.669   2.676   2.062  0.3411  0.0140  0.7995
 1021MOL0     O34670   5.772   2.673   1.972  0.2077  0.9307 -0.2588
 1021MOL0     C34671   5.901   2.648   2.025 -0.7680  0.9114  0.5338
 1021MOL0     C34672   5.984   2.548   1.968  0.9625 -0.1126  0.1185
 1021MOL0     C34673   6.112   2.521   2.023  0.1137  0.4126  0.5324
 1021MOL0     C34674   6.152   2.583   2.141  0.0408 -0.0761  0.2886
 1021MOL0     O34675   6.277   2.550   2.190 -0.3269  0.0920 -0.0486
 1021MOL0     C34676   6.306   2.412   2.223  0.7067  0.3345  0.4194
 1021MOL0     C34677   6.456   2.387   2.216 -0.3967  0.4609 -1.0501
 1021MOL0     C34678   6.505   2.312   2.334  0.5412  0.2344  0.4957
 1021MOL0     C34679   6.440   2.177   2.353 -0.0173  0.1481  0.4994
 1021MOL0     C34680   6.534   2.080   2.426  0.0845  0.5008  0.8971
 1021MOL0     C34681   6.598   1.993   2.321 -0.8582  0.8019  1.0566
 1021MOL0     C34682   6.696   1.889   2.372 -0.2950 -0.6172  0.5637
 1021MOL0     C34683   6.742   1.785   2.270 -0.2797 -1.0499 -0.0834
 1021MOL0    Cl34684   6.811   1.648   2.375  0.3149  0.1795 -0.0731
 1021MOL0     C34685   6.068   2.678   2.200  0.7791 -1.0714 -0.1109
 1021MOL0     C34686   5.953   2.716   2.138  0.0572  0.1294  0.4782
 1021MOL0     O34687   5.663   2.614   2.173 -0.0835  0.0634  0.0848
 1021MOL0     C34688   5.421   2.711   2.043 -0.1841 -0.8768  0.2273
 1021MOL0     C34689   5.307   2.775   1.995 -0.0194  0.6321  0.2600
 1021MOL0     N34690   4.753   3.479   1.849 -0.8377 -0.3159  0.0685
 1021MOL0     N34691   4.751   3.593   1.915 -1.0986  0.3026 -0.1834
 1021MOL0     C34692   5.468   2.998   2.753 -0.6183 -0.2613 -0.0147
 1021MOL0     C34693   5.554   2.946   2.853  0.6526  0.2075  1.1253
 1021MOL0     C34694   5.938   2.986   3.120  1.0871 -0.0847  0.9384
 1021MOL0     C34695   5.959   2.855   3.158  0.2264 -0.1903 -1.1770
 1021MOL0     C34696   6.026   2.807   3.274 -0.4895 -0.8598 -1.1024
 1021MOL0     C34697   6.080   2.897   3.364 -0.1689 -0.8992 -0.4630
 1021MOL0     O34698   6.144   2.866   3.486  0.5598  0.7103  0.4517
 1021MOL0     C34699   6.186   2.732   3.499  0.3432 -0.2256  1.1270
 1021MOL0     C34700   6.263   2.714   3.625  0.2447 -0.1122  0.2445
 1021MOL0     C34701   6.399   2.783   3.618 -0.2488 -0.4238  0.3747
 1021MOL0     C34702   6.509   2.698   3.564  0.2950  0.5439 -0.4554
 1021MOL0     C34703   6.525   2.576   3.642  0.1073 -0.3006 -0.4553
 1021MOL0     C34704   6.538   2.472   3.702  0.5798 -0.2365 -0.1398
 1021MOL0     C34705   6.069   3.036   3.327 -0.5411 -0.0611  0.2652
 1021MOL0     C34706   6.000   3.080   3.202  0.1113  0.2546 -0.9444
 1021MOL0     H34707   5.826   3.107   2.739 -0.3102  0.2832 -0.1994
 1021MOL0     H34708   5.650   3.221   2.594 -1.8750 -0.2110 -1.3524
 1021MOL0     H34709   5.496   3.238   2.442 -1.3928 -3.5778 -1.3878
 1021MOL0     H34710   5.414   3.342   2.572 -0.3804 -2.8600  2.9371
 1021MOL0     H34711   5.195   3.228   2.496 -2.5478 -0.9258 -1.8478
 1021MOL0     H34712   5.288   3.180   2.359  2.5853  0.6361 -0.2899
 1021MOL0     H34713   5.318   3.397   2.278 -0.5409 -0.4538 -0.0057
 1021MOL0     H34714   5.280   3.467   2.434  0.4201 -1.7526  0.8747
 1021MOL0     H34715   5.089   3.334   2.235 -1.5782  1.2355 -1.7876
 1021MOL0     H34716   5.046   3.379   2.406  2.4781 -2.5731  1.2939
 1021MOL0     H34717   5.080   3.535   2.155  0.7219 -0.9552 -0.6553
 1021MOL0     H34718   5.166   3.612   2.278  2.3540 -1.7431 -1.5010
 1021MOL0     H34719   4.969   3.660   2.412  0.8940  2.0461 -1.8418
 1021MOL0     H34720   4.867   3.526   2.342 -0.5587 -0.2211 -1.8419
 1021MOL0     H34721   4.878   3.800   2.270  1.4109  0.0231  1.0393
 1021MOL0     H34722   4.967   3.720   2.142 -1.1036  2.4353 -0.1472
 1021MOL0     H34723   4.707   3.735   2.122  1.6227  1.2140 -0.6545
 1021MOL0     H34724   4.709   3.604   2.232 -0.5348  1.9688  0.0499
 1021MOL0     H34725   4.880   3.388   2.133 -0.0291 -0.5940 -0.3855
 1021MOL0     H34726   4.817   3.227   1.797  3.5595 -0.1915 -1.0056
 1021MOL0     H34727   4.762   3.184   1.959 -1.6074  1.2693 -2.0413
 1021MOL0     H34728   4.997   3.197   2.050 -0.6968 -3.7752  1.3174
 1021MOL0     H34729   5.051   3.293   1.915  0.8244 -0.2933  1.1505
 1021MOL0     H34730   4.978   3.002   1.932  0.1711 -0.8314 -0.5750
 1021MOL0     H34731   4.982   3.079   1.770 -1.1551  0.1927 -0.1931
 1021MOL0     H34732   5.221   3.091   1.974  0.7441 -0.8798  1.2745
 1021MOL0     H34733   5.219   3.132   1.802  0.5636 -1.2307 -0.5352
 1021MOL0     H34734   5.469   3.007   1.814  2.2081 -2.7867 -3.6242
 1021MOL0     H34735   5.662   2.905   1.922 -0.1445  0.3765  1.8030
 1021MOL0     H34736   5.953   2.508   1.872  0.3727 -1.0570  0.6834
 1021MOL0     H34737   6.183   2.466   1.963 -0.9358 -1.4817  0.9477
 1021MOL0     H34738   6.244   2.344   2.164  0.1597 -1.3145  2.7342
 1021MOL0     H34739   6.273   2.399   2.327  0.7686  0.1074  0.4103
 1021MOL0     H34740   6.516   2.478   2.214  0.1209  0.1743  0.4416
 1021MOL0     H34741   6.465   2.334   2.121  0.0069 -1.5872  0.0785
 1021MOL0     H34742   6.483   2.380   2.418  1.3396  1.7433 -0.4721
 1021MOL0     H34743   6.612   2.296   2.316  0.2582 -1.1565 -0.0210
 1021MOL0     H34744   6.356   2.200   2.419  0.3117 -2.4826  1.9607
 1021MOL0     H34745   6.415   2.134   2.256 -1.3189 -2.6986  1.9897
 1021MOL0     H34746   6.474   2.017   2.493  0.8764 -0.3044  0.8635
 1021MOL0     H34747   6.609   2.133   2.484 -0.4310  2.3266 -0.0279
 1021MOL0     H34748   6.641   2.060   2.247 -2.0818  1.9622  1.3628
 1021MOL0     H34749   6.520   1.934   2.271 -0.8429  0.1120  1.8215
 1021MOL0     H34750   6.785   1.936   2.413 -1.8024  0.6963  2.4730
 1021MOL0     H34751   6.649   1.835   2.455  0.4083  0.1397  1.4729
 1021MOL0     H34752   6.819   1.824   2.203 -3.0116  0.2013 -2.7674
 1021MOL0     H34753   6.664   1.754   2.200 -1.1597 -0.4959  0.6272
 1021MOL0     H34754   6.103   2.751   2.272 -0.3711  2.5328 -2.8581
 1021MOL0     H34755   5.889   2.794   2.178  2.3338  1.6575  1.3611
 1021MOL0     H34756   5.420   2.630   2.115  2.3398  1.0701  2.6866
 1021MOL0     H34757   5.211   2.725   2.008  0.1573 -0.0215 -0.8142
 1021MOL0     H34758   5.364   2.966   2.753 -0.5922 -0.4834  2.0625
 1021MOL0     H34759   5.510   2.885   2.932  0.3894  0.7528  1.4036
 1021MOL0     H34760   5.910   2.785   3.091 -1.8274  1.6404 -1.6759
 1021MOL0     H34761   6.025   2.700   3.295  2.1450 -0.4218  2.0462
 1021MOL0     H34762   6.248   2.704   3.414 -2.6955  3.3121 -2.6348
 1021MOL0     H34763   6.101   2.664   3.499 -1.4246  1.8726  1.6166
 1021MOL0     H34764   6.210   2.759   3.710 -1.4980  2.0289 -1.8278
 1021MOL0     H34765   6.272   2.607   3.644 -5.1147 -1.4098 -2.3125
 1021MOL0     H34766   6.426   2.830   3.713  0.4865  1.4958 -0.7194
 1021MOL0     H34767   6.387   2.866   3.548 -0.7099  0.6821  1.7330
 1021MOL0     H34768   6.493   2.671   3.460 -0.5567  1.4142 -0.5715
 1021MOL0     H34769   6.597   2.762   3.567 -0.3233  1.3830  0.7699
 1021MOL0     H34770   6.535   2.383   3.761 -0.4519 -1.7117 -2.3002
 1021MOL0     H34771   6.113   3.105   3.398  0.7171  2.7952 -3.0193
 1021MOL0     H34772   6.005   3.187   3.183  1.1878  0.5790  0.9090
 1022MOL0     O34773   8.277  10.452   0.195 -0.7895  0.7025 -0.7962
 1022MOL0     C34774   8.269  10.564   0.254 -0.5487 -0.2623 -0.0636
 1022MOL0     O34775   8.157  10.641   0.278  0.2977  0.2313  0.2276
 1022MOL0     C34776   8.027  10.603   0.240 -0.6392  0.0301  0.2755
 1022MOL0     C34777   7.928  10.696   0.256  0.9206 -0.2134  0.6414
 1022MOL0     C34778   7.792  10.667   0.239 -1.2211  0.9339 -0.4886
 1022MOL0     C34779   7.760  10.543   0.185  0.1719 -0.1518 -0.2369
 1022MOL0     O34780   7.626  10.534   0.160 -0.9109  0.5976  0.1316
 1022MOL0     C34781   7.583  10.436   0.057  0.0364  0.1109  0.8169
 1022MOL0     C34782   7.448  10.482   0.005 -0.2840  0.3009 -0.3048
 1022MOL0     C34783   7.419  10.411  -0.117 -0.4805 -0.4200 -0.1116
 1022MOL0     C34784   7.291  10.457  -0.195 -0.1849  0.1366  0.6120
 1022MOL0     C34785   7.162  10.476  -0.124 -0.4290 -0.3703  0.1203
 1022MOL0     C34786   7.047  10.505  -0.223  0.0704 -0.7615  0.1286
 1022MOL0     C34787   6.953  10.602  -0.160  0.2242 -0.3219 -0.0635
 1022MOL0     C34788   6.997  10.752  -0.174  1.0754  0.0179  0.3049
 1022MOL0     N34789   6.935  10.838  -0.077 -0.1330  0.3709 -1.1859
 1022MOL0     C34790   6.917  10.840   0.059 -1.2402  0.0027 -0.5382
 1022MOL0     C34791   6.867  10.964   0.094 -0.5409 -0.7771 -0.6662
 1022MOL0     C34792   6.847  10.998   0.238  0.2231  0.0472  0.0523
 1022MOL0     C34793   6.982  10.987   0.311  0.5582 -0.5063  0.0113
 1022MOL0     C34794   7.095  11.082   0.269  1.0712 -0.8455 -0.0583
 1022MOL0     C34795   7.231  11.036   0.332 -0.3672  1.1829  0.3558
 1022MOL0     O34796   7.336  11.115   0.273  0.0727  0.0904  0.0871
 1022MOL0     C34797   7.469  11.100   0.306  0.4606 -0.0936 -0.6720
 1022MOL0     C34798   7.516  10.994   0.371 -0.6611  0.4828 -0.2640
 1022MOL0     C34799   7.651  10.980   0.402  0.3083 -0.8050 -0.7481
 1022MOL0     C34800   7.743  11.088   0.371  0.9242  0.5240  0.6982
 1022MOL0     C34801   7.889  11.075   0.419 -0.2737 -0.5539 -0.1179
 1022MOL0     O34802   7.912  11.005   0.536  0.6772 -0.8682  0.4425
 1022MOL0     C34803   8.039  11.010   0.582  0.0068  0.0294  0.3514
 1022MOL0     C34804   8.108  10.886   0.602  0.9395 -0.0478  0.4990
 1022MOL0     C34805   8.231  10.884   0.663 -0.2258  0.5340  0.8972
 1022MOL0     C34806   8.297  11.004   0.706  0.6280 -0.4907 -0.0309
 1022MOL0     O34807   8.423  11.000   0.763 -0.6247  1.0129 -0.7611
 1022MOL0     C34808   8.495  11.117   0.788 -0.9881  0.1268 -0.3132
 1022MOL0     C34809   8.469  11.172   0.921 -0.1805  0.4521  0.8916
 1022MOL0     C34810   8.587  11.142   1.006  0.0560 -0.5049 -0.7272
 1022MOL0     C34811   8.544  11.210   1.141  0.3635  0.3577  0.8679
 1022MOL0     C34812   8.656  11.204   1.237 -0.4341 -0.5290  0.5300
 1022MOL0     C34813   8.617  11.251   1.385 -0.7571 -0.2491  0.5834
 1022MOL0     C34814   8.732  11.304   1.470  0.5841  0.5707 -0.3306
 1022MOL0     C34815   8.833  11.200   1.494 -0.0117 -0.5202 -0.1576
 1022MOL0    Cl34816   8.957  11.292   1.580  0.2344  0.2383 -0.1180
 1022MOL0     C34817   8.219  11.129   0.695 -0.9115 -0.0766  0.3488
 1022MOL0     C34818   8.089  11.130   0.640 -0.0032  0.6155  1.4388
 1022MOL0     O34819   7.968  11.136   0.358  0.0729  0.4150 -0.2654
 1022MOL0     C34820   7.683  11.199   0.304 -0.3291 -0.1883  0.2533
 1022MOL0     C34821   7.546  11.204   0.278 -0.4816 -0.3265 -0.4171
 1022MOL0     N34822   6.847  11.038  -0.023 -0.1427 -0.5867  0.7007
 1022MOL0     N34823   6.882  10.963  -0.122  0.2745 -0.4963 -0.0454
 1022MOL0     C34824   7.853  10.450   0.168 -0.6261 -0.2751  0.4222
 1022MOL0     C34825   7.985  10.474   0.192 -0.9120  0.5596 -0.3885
 1022MOL0     C34826   8.391  10.633   0.280  0.7581 -1.0813  1.0304
 1022MOL0     C34827   8.512  10.566   0.245 -0.3609 -1.1817 -0.2786
 1022MOL0     C34828   8.633  10.632   0.263 -0.2005  1.3449  0.2958
 1022MOL0     C34829   8.637  10.769   0.292 -0.0550 -0.7115 -0.3441
 1022MOL0     O34830   8.758  10.834   0.314 -0.1837 -0.2518 -0.0673
 1022MOL0     C34831   8.842  10.862   0.200  1.0590  0.5377  0.2943
 1022MOL0     C34832   8.988  10.875   0.236  0.4574 -0.4149  0.3717
 1022MOL0     C34833   9.028  10.733   0.282 -0.3932  0.3975  0.7116
 1022MOL0     C34834   9.185  10.730   0.319  0.3153  0.1255 -0.2467
 1022MOL0     C34835   9.264  10.722   0.201 -0.0200  0.2806 -0.3326
 1022MOL0     C34836   9.338  10.705   0.106 -0.0458 -0.0589  0.2592
 1022MOL0     C34837   8.511  10.838   0.330 -0.7933  0.1802 -0.1806
 1022MOL0     C34838   8.399  10.766   0.321  0.9829 -0.3612  0.3485
 1022MOL0     H34839   7.953  10.792   0.300 -0.8867  0.0220  1.2424
 1022MOL0     H34840   7.718  10.727   0.292  0.5735  0.8628  2.2798
 1022MOL0     H34841   7.577  10.334   0.096  0.9612 -1.3467 -2.4897
 1022MOL0     H34842   7.656  10.442  -0.024  0.5069 -2.3413  0.9859
 1022MOL0     H34843   7.445  10.590  -0.011 -0.0464  0.1432 -1.4675
 1022MOL0     H34844   7.375  10.461   0.084  2.8087  1.5466  3.1468
 1022MOL0     H34845   7.396  10.309  -0.087 -2.5076 -0.2735 -0.9980
 1022MOL0     H34846   7.496  10.418  -0.194 -0.2979  2.1472  0.2158
 1022MOL0     H34847   7.312  10.556  -0.237 -0.4120 -0.1493 -0.1906
 1022MOL0     H34848   7.280  10.386  -0.277 -0.7650 -0.1172  0.9052
 1022MOL0     H34849   7.179  10.558  -0.053 -0.5910  0.2877 -0.5944
 1022MOL0     H34850   7.150  10.381  -0.070 -0.4022 -0.8522 -0.6966
 1022MOL0     H34851   6.994  10.418  -0.262  1.2207 -1.1472 -0.6179
 1022MOL0     H34852   7.089  10.556  -0.311 -1.5903  0.5074  0.0046
 1022MOL0     H34853   6.858  10.607  -0.215 -0.1272  3.4536  0.6073
 1022MOL0     H34854   6.929  10.575  -0.057 -0.4465  2.8299  0.7052
 1022MOL0     H34855   6.971  10.789  -0.274 -0.7278  2.9662  1.7120
 1022MOL0     H34856   7.104  10.759  -0.155  0.7495  1.1460  2.0227
 1022MOL0     H34857   6.949  10.761   0.126 -1.5530  0.8427  0.6345
 1022MOL0     H34858   6.763  10.933   0.266 -3.2634  4.0245 -0.0642
 1022MOL0     H34859   6.810  11.100   0.251 -1.0808 -0.4016  0.0869
 1022MOL0     H34860   7.018  10.884   0.307  0.5520 -0.4740 -1.7794
 1022MOL0     H34861   6.967  11.024   0.413 -0.3647 -0.8153 -0.0121
 1022MOL0     H34862   7.116  11.084   0.161 -0.2958 -0.1733 -0.3328
 1022MOL0     H34863   7.079  11.187   0.294 -3.5994 -1.9107  2.5168
 1022MOL0     H34864   7.245  10.929   0.317  6.7817  1.4891  1.3815
 1022MOL0     H34865   7.225  11.052   0.440 -0.7412  0.6946  0.4074
 1022MOL0     H34866   7.464  10.902   0.395  0.9206 -0.9749 -2.1121
 1022MOL0     H34867   7.676  10.889   0.455  0.9903 -1.0287 -1.4397
 1022MOL0     H34868   8.064  10.792   0.570  0.9218  0.6185 -1.5760
 1022MOL0     H34869   8.280  10.787   0.666 -2.2570 -0.5463  0.8862
 1022MOL0     H34870   8.457  11.200   0.727 -1.4153 -2.5226 -3.9572
 1022MOL0     H34871   8.602  11.114   0.766 -0.5607 -1.2204  1.7012
 1022MOL0     H34872   8.382  11.124   0.967 -0.2571  1.6011  2.0066
 1022MOL0     H34873   8.447  11.278   0.912  1.4952  1.0760  3.0353
 1022MOL0     H34874   8.683  11.189   0.986  0.2588 -0.2623  0.7109
 1022MOL0     H34875   8.598  11.034   1.004  1.8292 -0.3703  0.0640
 1022MOL0     H34876   8.513  11.315   1.127  0.8207  0.5538  1.3349
 1022MOL0     H34877   8.462  11.155   1.188  0.4404  0.2355  0.8580
 1022MOL0     H34878   8.736  11.271   1.205  3.9872 -4.5644  1.9214
 1022MOL0     H34879   8.702  11.105   1.236 -1.4816 -1.2242 -4.4114
 1022MOL0     H34880   8.564  11.177   1.446 -1.6616  3.5743  5.0367
 1022MOL0     H34881   8.557  11.342   1.383 -0.1310  0.1615  0.2326
 1022MOL0     H34882   8.797  11.374   1.417  0.7742 -0.8652 -2.1175
 1022MOL0     H34883   8.693  11.352   1.560 -2.4100  1.6327 -2.0619
 1022MOL0     H34884   8.865  11.154   1.401  1.9276  1.6437 -0.6453
 1022MOL0     H34885   8.791  11.117   1.552 -0.6833  0.2467  0.4914
 1022MOL0     H34886   8.261  11.217   0.744  1.4332 -0.5895 -0.6030
 1022MOL0     H34887   8.031  11.221   0.634  1.0702  1.2205 -1.0711
 1022MOL0     H34888   7.747  11.280   0.273 -0.6875  0.5101  1.2793
 1022MOL0     H34889   7.512  11.285   0.215  0.8098  2.1067  1.7965
 1022MOL0     H34890   7.832  10.356   0.117 -0.0075  1.2332 -2.8881
 1022MOL0     H34891   8.056  10.397   0.164 -0.7154  0.6285 -0.0810
 1022MOL0     H34892   8.522  10.458   0.234  0.7522 -1.3400  1.6714
 1022MOL0     H34893   8.728  10.582   0.251 -1.0035 -0.0688 -0.4007
 1022MOL0     H34894   8.804  10.954   0.153  0.9792  0.7326  0.7297
 1022MOL0     H34895   8.829  10.800   0.112 -1.4735 -0.2493  1.1135
 1022MOL0     H34896   9.048  10.889   0.146  0.7327  0.9850  0.7633
 1022MOL0     H34897   9.000  10.946   0.318  1.0374 -0.6809  0.5239
 1022MOL0     H34898   9.026  10.663   0.199 -0.2997 -2.0312  2.6419
 1022MOL0     H34899   8.983  10.690   0.373 -2.2121 -1.0203 -0.7846
 1022MOL0     H34900   9.199  10.826   0.369 -0.9814 -0.1370  0.6964
 1022MOL0     H34901   9.207  10.642   0.380  2.4267 -0.8384 -2.2791
 1022MOL0     H34902   9.392  10.693   0.014  0.3619  2.7686  0.0444
 1022MOL0     H34903   8.511  10.943   0.357  2.6149 -0.2293  1.9448
 1022MOL0     H34904   8.302  10.809   0.346  1.7130  0.4600  1.8874
 1023MOL0     O34905   0.845   7.557   7.830  0.4976  0.0089 -0.1518
 1023MOL0     C34906   0.896   7.529   7.721  0.7320 -0.8660 -0.2901
 1023MOL0     O34907   0.822   7.517   7.598 -0.4762 -0.2998  0.1303
 1023MOL0     C34908   0.683   7.525   7.589 -0.0563 -0.2057 -0.4048
 1023MOL0     C34909   0.644   7.498   7.458  0.5901 -0.1677  0.4097
 1023MOL0     C34910   0.519   7.540   7.416 -0.3893 -0.1006 -0.0890
 1023MOL0     C34911   0.425   7.594   7.505  0.0193 -0.2022  0.0005
 1023MOL0     O34912   0.301   7.638   7.465  0.8733  0.3343 -1.0365
 1023MOL0     C34913   0.222   7.530   7.411  0.4437 -0.7765 -0.1310
 1023MOL0     C34914   0.118   7.493   7.511  0.0477 -0.3659  0.4387
 1023MOL0     C34915   0.029   7.621   7.543  0.3835 -0.2435 -0.0635
 1023MOL0     C34916  -0.056   7.597   7.663 -1.0510 -0.5678 -0.0002
 1023MOL0     C34917  -0.143   7.475   7.666  0.2526 -0.3897 -0.1412
 1023MOL0     C34918  -0.231   7.475   7.797 -0.3044  0.0179  0.2532
 1023MOL0     C34919  -0.358   7.386   7.791  0.5393 -0.4229 -0.2979
 1023MOL0     C34920  -0.463   7.446   7.707 -0.4081 -0.1056  0.5638
 1023MOL0     N34921  -0.568   7.346   7.683 -0.3559  0.4088 -0.5361
 1023MOL0     C34922  -0.676   7.322   7.771 -0.0254  0.1102  0.3526
 1023MOL0     C34923  -0.753   7.224   7.712  0.7193  0.2624 -0.0221
 1023MOL0     C34924  -0.887   7.153   7.761  0.4069 -0.4671 -0.1129
 1023MOL0     C34925  -0.848   7.032   7.856 -0.3281 -1.6509 -0.4334
 1023MOL0     C34926  -0.782   7.088   7.983 -0.0925 -0.0420 -0.1214
 1023MOL0     C34927  -0.632   7.061   7.987  0.1821 -0.5065 -0.5911
 1023MOL0     O34928  -0.565   7.140   8.084 -0.7204  0.5300 -0.4822
 1023MOL0     C34929  -0.423   7.145   8.072 -0.6887  0.2374 -0.8946
 1023MOL0     C34930  -0.355   7.247   8.144  1.0090  0.2593 -0.6152
 1023MOL0     C34931  -0.219   7.274   8.140  0.7429 -0.1479 -1.4181
 1023MOL0     C34932  -0.136   7.192   8.065 -0.7543  0.2201  0.4666
 1023MOL0     C34933   0.005   7.227   8.048  0.2180  0.7755 -0.6496
 1023MOL0     O34934   0.066   7.186   7.939 -0.1289 -0.6438  0.8432
 1023MOL0     C34935   0.205   7.206   7.935 -0.8381 -0.0216  1.1334
 1023MOL0     C34936   0.289   7.099   7.951 -0.9625  0.1018  0.6799
 1023MOL0     C34937   0.429   7.108   7.955  0.4248  0.2600 -0.4420
 1023MOL0     C34938   0.481   7.231   7.921 -1.1450  0.7546  0.5533
 1023MOL0     O34939   0.620   7.246   7.904  0.1170  0.0152  0.2768
 1023MOL0     C34940   0.717   7.160   7.961  0.2991  0.3214 -0.3321
 1023MOL0     C34941   0.849   7.235   7.954  0.2214 -0.0265 -1.2163
 1023MOL0     C34942   0.964   7.176   8.026  0.0225  0.4357 -0.7459
 1023MOL0     C34943   0.945   7.143   8.174  0.0974  0.1223 -0.6458
 1023MOL0     C34944   1.073   7.086   8.227 -0.0202  0.3733  0.0760
 1023MOL0     C34945   1.063   7.035   8.366 -0.2799  0.2789 -0.2561
 1023MOL0     C34946   1.191   6.954   8.393  0.3472 -0.2860 -0.8607
 1023MOL0     C34947   1.179   6.893   8.529 -0.0506 -0.3804  1.2538
 1023MOL0    Cl34948   1.091   6.742   8.530 -0.2288  0.5269  0.1091
 1023MOL0     C34949   0.399   7.340   7.898  1.0660 -0.4487 -0.2948
 1023MOL0     C34950   0.262   7.329   7.900 -0.2067 -0.2445 -0.0339
 1023MOL0     O34951   0.053   7.300   8.139 -0.7033  0.3465 -0.0206
 1023MOL0     C34952  -0.207   7.084   7.984  0.1179 -0.6884  0.2161
 1023MOL0     C34953  -0.344   7.068   7.989 -0.5028 -0.1549  1.1581
 1023MOL0     N34954  -0.696   7.198   7.587  0.0234  0.6733  0.2063
 1023MOL0     N34955  -0.584   7.271   7.577  0.7309  0.9149 -0.1464
 1023MOL0     C34956   0.457   7.618   7.637 -0.4959  0.1684 -0.6165
 1023MOL0     C34957   0.591   7.588   7.680  1.4520 -0.1969  0.1149
 1023MOL0     C34958   1.040   7.509   7.703 -0.8744 -0.1005  0.6515
 1023MOL0     C34959   1.092   7.489   7.569  0.8456 -0.2431 -0.5668
 1023MOL0     C34960   1.223   7.466   7.542 -0.2314  0.9596 -0.8284
 1023MOL0     C34961   1.315   7.461   7.641  0.5263 -0.2828 -0.2593
 1023MOL0     O34962   1.447   7.458   7.617 -0.1348  0.4696 -0.3734
 1023MOL0     C34963   1.500   7.460   7.482  0.3246  0.6786  0.0360
 1023MOL0     C34964   1.654   7.440   7.476 -0.5505 -1.0900  0.2360
 1023MOL0     C34965   1.712   7.360   7.357 -0.3567 -0.0143  0.0455
 1023MOL0     C34966   1.858   7.346   7.377 -0.3690  0.0571 -0.3196
 1023MOL0     C34967   1.918   7.274   7.260  0.1016 -0.3236  0.6242
 1023MOL0     C34968   1.958   7.211   7.159 -0.3743 -0.4642  0.0915
 1023MOL0     C34969   1.270   7.475   7.776 -0.3287  0.0367  0.6874
 1023MOL0     C34970   1.132   7.501   7.810 -0.3370  0.4700  1.1112
 1023MOL0     H34971   0.715   7.462   7.385 -0.3687  0.6856 -0.9999
 1023MOL0     H34972   0.492   7.541   7.311  0.2332 -1.9708 -0.3050
 1023MOL0     H34973   0.286   7.442   7.404  1.9002  0.3805 -2.7375
 1023MOL0     H34974   0.180   7.541   7.311  1.2437  0.7876 -0.3229
 1023MOL0     H34975   0.170   7.463   7.602 -0.4223  5.2520  2.9319
 1023MOL0     H34976   0.054   7.416   7.466  2.5008 -0.6577 -2.9276
 1023MOL0     H34977  -0.029   7.647   7.454 -0.6248 -0.5732  0.4800
 1023MOL0     H34978   0.087   7.709   7.571 -0.5202  1.0440 -1.9640
 1023MOL0     H34979   0.011   7.580   7.748 -0.5125 -2.0527 -0.7055
 1023MOL0     H34980  -0.115   7.686   7.688  0.6561  1.0496 -1.3819
 1023MOL0     H34981  -0.070   7.393   7.667  0.4880 -0.2551 -2.2250
 1023MOL0     H34982  -0.194   7.469   7.570  2.3439  3.5232 -1.7159
 1023MOL0     H34983  -0.249   7.581   7.816  1.6873  0.8348 -1.8687
 1023MOL0     H34984  -0.174   7.434   7.881  1.6362 -0.8072 -1.3645
 1023MOL0     H34985  -0.321   7.289   7.758  2.2418  0.0617  0.0810
 1023MOL0     H34986  -0.396   7.367   7.892  0.0591  0.0622 -0.3825
 1023MOL0     H34987  -0.421   7.472   7.610 -0.8582 -0.5657  0.2394
 1023MOL0     H34988  -0.502   7.532   7.762  3.2122  2.2493 -0.2098
 1023MOL0     H34989  -0.696   7.371   7.866  0.9448  1.8341 -0.2984
 1023MOL0     H34990  -0.955   7.118   7.683 -2.5567 -0.5730  2.3255
 1023MOL0     H34991  -0.944   7.230   7.813  0.7093 -0.2620 -0.0843
 1023MOL0     H34992  -0.777   6.966   7.804 -1.9383 -3.0980 -0.9102
 1023MOL0     H34993  -0.940   6.972   7.868 -0.9169 -0.7281 -0.2645
 1023MOL0     H34994  -0.824   7.189   7.994 -0.5382 -0.1635 -0.6388
 1023MOL0     H34995  -0.828   7.044   8.072 -1.2230 -0.2445 -0.7810
 1023MOL0     H34996  -0.581   7.079   7.892  2.1260  0.9135  0.6458
 1023MOL0     H34997  -0.639   6.955   8.014 -3.1991 -0.1884  0.2930
 1023MOL0     H34998  -0.429   7.301   8.202 -0.8847  1.3826 -3.8048
 1023MOL0     H34999  -0.182   7.367   8.183  1.4092 -1.3454  0.7209
 1023MOL0     H35000   0.238   7.004   7.965 -1.7842  0.5366  0.6832
 1023MOL0     H35001   0.494   7.023   7.975 -1.6723 -0.7496  3.1004
 1023MOL0     H35002   0.733   7.066   7.908 -2.2803 -1.1980  1.3736
 1023MOL0     H35003   0.693   7.131   8.064  1.0746  1.0418  0.0614
 1023MOL0     H35004   0.839   7.335   7.997 -1.4154  1.2469 -4.2619
 1023MOL0     H35005   0.881   7.279   7.859  0.3301  0.3822 -0.9932
 1023MOL0     H35006   1.044   7.250   8.024  0.0995  0.3620 -3.2420
 1023MOL0     H35007   0.993   7.086   7.970 -0.0894 -2.6782  3.6435
 1023MOL0     H35008   0.906   7.234   8.221 -0.6182  0.7872 -2.4433
 1023MOL0     H35009   0.857   7.079   8.182  1.1054 -1.2433 -0.0827
 1023MOL0     H35010   1.139   7.173   8.230  0.9662 -0.3307 -0.5385
 1023MOL0     H35011   1.121   7.013   8.161  2.1390 -0.6525  2.6078
 1023MOL0     H35012   0.970   6.979   8.381  1.4706 -3.1152 -1.0523
 1023MOL0     H35013   1.072   7.130   8.421 -0.6763  1.9672 -2.9113
 1023MOL0     H35014   1.213   6.878   8.317 -2.5212 -0.1383 -1.9556
 1023MOL0     H35015   1.271   7.023   8.421 -2.7974  1.4276  5.8297
 1023MOL0     H35016   1.145   6.961   8.607 -0.0318  1.3939 -0.2168
 1023MOL0     H35017   1.281   6.856   8.545  1.7303  2.9186 -1.1765
 1023MOL0     H35018   0.445   7.437   7.883  0.1370 -0.2234 -1.8581
 1023MOL0     H35019   0.213   7.425   7.891  0.4409  0.4661  2.8479
 1023MOL0     H35020  -0.164   7.010   7.916 -0.8197  0.6550 -1.9472
 1023MOL0     H35021  -0.381   6.982   7.935 -0.4840 -0.5237  1.7260
 1023MOL0     H35022   0.380   7.657   7.703  1.1440  0.6709  1.0692
 1023MOL0     H35023   0.617   7.617   7.781  1.1333  0.2038  0.0862
 1023MOL0     H35024   1.038   7.499   7.475 -1.8571 -2.5377  0.5862
 1023MOL0     H35025   1.258   7.454   7.440 -0.4384  1.6195 -0.9797
 1023MOL0     H35026   1.467   7.550   7.429 -0.3074  1.6968  2.0769
 1023MOL0     H35027   1.460   7.373   7.429 -0.5958  2.3763 -2.2637
 1023MOL0     H35028   1.702   7.538   7.476 -0.3713 -1.1143  2.3657
 1023MOL0     H35029   1.682   7.388   7.569 -1.5761  1.8613  2.3620
 1023MOL0     H35030   1.695   7.403   7.258  3.1105 -1.7757 -1.4784
 1023MOL0     H35031   1.676   7.256   7.355  2.8951 -1.2384 -1.1883
 1023MOL0     H35032   1.914   7.440   7.382  0.6568 -0.6043  1.5976
 1023MOL0     H35033   1.869   7.294   7.473 -2.8346  0.1930  0.1100
 1023MOL0     H35034   2.001   7.155   7.079 -0.2449 -1.0826  0.5806
 1023MOL0     H35035   1.334   7.464   7.863  0.8127  0.0777 -0.1103
 1023MOL0     H35036   1.101   7.509   7.913  0.9068 -1.4539  1.6827
 1024MOL0     O35037   1.477   0.908   1.319  0.1022  0.0831 -0.2063
 1024MOL0     C35038   1.422   0.827   1.393 -0.3570  0.4102  0.8568
 1024MOL0     O35039   1.290   0.792   1.384  0.3749 -0.0271 -0.0507
 1024MOL0     C35040   1.205   0.831   1.283 -1.2355  0.2296 -0.0253
 1024MOL0     C35041   1.071   0.808   1.317  0.0752 -0.9537 -0.0696
 1024MOL0     C35042   0.969   0.846   1.225 -0.5738  0.6454  0.1555
 1024MOL0     C35043   1.008   0.902   1.098  0.3673  0.3593  0.0353
 1024MOL0     O35044   0.924   0.934   0.995  0.3335 -0.4898  0.0731
 1024MOL0     C35045   0.786   0.899   1.006 -0.0255 -0.9822  0.3079
 1024MOL0     C35046   0.714   0.964   0.892  0.3027 -0.0757  0.9409
 1024MOL0     C35047   0.563   0.971   0.926 -1.4960  0.8587 -0.9385
 1024MOL0     C35048   0.476   1.028   0.814 -0.6940  0.0639  1.0684
 1024MOL0     C35049   0.348   1.086   0.874 -0.1518  1.0269  1.2667
 1024MOL0     C35050   0.266   0.974   0.952  0.3881 -1.6766 -0.2059
 1024MOL0     C35051   0.124   1.030   0.977  0.4289 -0.2684 -0.2736
 1024MOL0     C35052   0.104   1.132   1.090  0.5823  0.1970 -0.3080
 1024MOL0     N35053   0.141   1.063   1.216  0.4595 -0.7144 -0.1884
 1024MOL0     C35054   0.255   1.094   1.283 -0.4353  0.1431 -0.2643
 1024MOL0     C35055   0.227   1.037   1.402 -0.4847 -0.1797  0.6074
 1024MOL0     C35056   0.318   1.039   1.523  0.1072 -0.3865  1.0231
 1024MOL0     C35057   0.455   0.991   1.493 -0.5664 -0.6910  1.1786
 1024MOL0     C35058   0.533   1.122   1.472 -0.1591 -0.2172 -0.6610
 1024MOL0     C35059   0.679   1.111   1.436  0.6111  0.2273  0.8700
 1024MOL0     O35060   0.743   1.057   1.553  0.2882  0.6999  0.1941
 1024MOL0     C35061   0.877   1.042   1.565  0.5224  0.0517 -0.7246
 1024MOL0     C35062   0.978   1.056   1.466  0.5786  0.3680 -0.4406
 1024MOL0     C35063   1.115   1.051   1.501 -0.1306  0.3902  0.6945
 1024MOL0     C35064   1.156   1.020   1.630  0.2209  0.2875 -0.8561
 1024MOL0     C35065   1.300   1.017   1.687  0.2223 -0.2282  0.6468
 1024MOL0     O35066   1.316   0.999   1.822 -0.0139 -0.7757 -0.2970
 1024MOL0     C35067   1.444   0.992   1.881  1.0108  0.2399 -0.3229
 1024MOL0     C35068   1.503   1.109   1.933  0.1368  0.1391  0.9419
 1024MOL0     C35069   1.633   1.114   1.988 -0.3787  0.0260 -0.3806
 1024MOL0     C35070   1.701   0.979   2.001 -0.3746 -0.3247  0.1489
 1024MOL0     O35071   1.822   0.945   2.061 -0.1250 -0.2529  0.4727
 1024MOL0     C35072   1.874   1.044   2.146 -0.3585  0.2484  0.9776
 1024MOL0     C35073   2.004   0.998   2.206  0.2213  1.3300  0.9504
 1024MOL0     C35074   2.111   0.978   2.096  0.1502 -1.2840  0.2719
 1024MOL0     C35075   2.242   0.921   2.144 -0.0991  0.0189 -0.2392
 1024MOL0     C35076   2.328   1.027   2.201 -0.5085  0.2266 -0.3124
 1024MOL0     C35077   2.446   0.964   2.277  0.2924  1.3152  0.4935
 1024MOL0     C35078   2.567   0.906   2.198 -0.3901  0.5793 -0.8642
 1024MOL0     C35079   2.656   0.813   2.273  0.6334 -0.1795  0.3888
 1024MOL0    Cl35080   2.693   0.865   2.438  0.3535  0.2826 -0.0325
 1024MOL0     C35081   1.638   0.862   1.941 -0.6937 -1.0277 -0.0322
 1024MOL0     C35082   1.508   0.871   1.889 -0.1615 -0.4133  0.2339
 1024MOL0     O35083   1.392   1.062   1.614  0.2296  0.3362  0.4921
 1024MOL0     C35084   1.052   0.989   1.722  0.1412  0.6779  0.0625
 1024MOL0     C35085   0.917   1.012   1.690 -0.1730  0.1855 -0.3655
 1024MOL0     N35086   0.104   0.970   1.407 -0.5519  0.1870  0.2325
 1024MOL0     N35087   0.053   0.988   1.288 -0.2618 -0.7886 -0.4123
 1024MOL0     C35088   1.140   0.927   1.076 -0.2330 -0.7708  0.5303
 1024MOL0     C35089   1.242   0.893   1.159 -0.4639  0.4696 -0.6068
 1024MOL0     C35090   1.498   0.760   1.494 -0.3487  0.6889  0.1326
 1024MOL0     C35091   1.453   0.630   1.544  0.7843  0.0559  0.2698
 1024MOL0     C35092   1.516   0.570   1.649  0.0030 -0.0723  0.8548
 1024MOL0     C35093   1.647   0.616   1.688  0.1316 -0.3197  0.2449
 1024MOL0     O35094   1.728   0.555   1.783  0.1104 -0.6223  0.0913
 1024MOL0     C35095   1.733   0.412   1.796 -1.7356 -0.2337 -0.8106
 1024MOL0     C35096   1.818   0.346   1.696 -0.1667 -0.1561  0.4818
 1024MOL0     C35097   1.801   0.195   1.697  0.5200 -0.6431  0.2844
 1024MOL0     C35098   1.852   0.119   1.824  0.3158 -0.1842 -0.2403
 1024MOL0     C35099   1.981   0.168   1.865 -0.6210 -0.2337  0.5539
 1024MOL0     C35100   2.092   0.211   1.899  0.7015 -0.0004  0.4585
 1024MOL0     C35101   1.685   0.747   1.648 -0.1173  1.0171 -0.3974
 1024MOL0     C35102   1.613   0.818   1.555 -0.4724 -0.2380 -0.0731
 1024MOL0     H35103   1.051   0.763   1.414  1.5485 -0.5041  0.4745
 1024MOL0     H35104   0.865   0.819   1.245 -0.7420  0.8023 -0.4633
 1024MOL0     H35105   0.750   0.947   1.098  1.7176  0.9000  0.0683
 1024MOL0     H35106   0.770   0.791   1.007  1.4994 -1.4047 -3.4015
 1024MOL0     H35107   0.723   0.905   0.800 -2.1874  0.4308  0.3103
 1024MOL0     H35108   0.757   1.062   0.868 -0.1922 -0.2536 -0.8248
 1024MOL0     H35109   0.553   1.019   1.023  2.8608  0.7068 -0.2489
 1024MOL0     H35110   0.541   0.864   0.935  0.6219  0.5121  0.7888
 1024MOL0     H35111   0.530   1.102   0.754 -1.0606 -1.5148 -1.3284
 1024MOL0     H35112   0.454   0.946   0.745 -1.9273  1.6507 -0.5051
 1024MOL0     H35113   0.281   1.114   0.792 -2.8283  0.3802  3.1032
 1024MOL0     H35114   0.366   1.173   0.938 -0.6601  0.3059  2.4143
 1024MOL0     H35115   0.318   0.950   1.045  1.2553  1.8325  0.3420
 1024MOL0     H35116   0.247   0.886   0.890 -2.5311 -1.4376  0.1858
 1024MOL0     H35117   0.078   1.068   0.885  0.0497 -2.6925 -1.1683
 1024MOL0     H35118   0.075   0.939   1.014  1.0565 -0.4855  0.0274
 1024MOL0     H35119  -0.001   1.159   1.101  1.5323  3.8114  1.6807
 1024MOL0     H35120   0.161   1.222   1.067 -0.9053  1.0286 -0.8476
 1024MOL0     H35121   0.337   1.161   1.257  1.6597 -3.0769 -2.7751
 1024MOL0     H35122   0.271   0.968   1.591 -0.4854 -0.9341  0.0639
 1024MOL0     H35123   0.294   1.134   1.573 -2.9902  0.8025 -2.2734
 1024MOL0     H35124   0.450   0.927   1.404  0.3060 -0.3525  0.8782
 1024MOL0     H35125   0.492   0.935   1.579  0.3598 -0.7573  0.7509
 1024MOL0     H35126   0.477   1.176   1.396  0.5768 -1.8329 -2.4262
 1024MOL0     H35127   0.543   1.183   1.562  1.8402 -1.9869  0.4063
 1024MOL0     H35128   0.717   1.204   1.393 -0.1664 -0.0512 -0.5151
 1024MOL0     H35129   0.676   1.030   1.362 -1.7432  1.8051 -0.9162
 1024MOL0     H35130   0.960   1.093   1.365 -2.2174 -0.2183 -0.2428
 1024MOL0     H35131   1.204   1.056   1.439  0.1804 -1.8292  0.8791
 1024MOL0     H35132   1.441   1.198   1.935 -1.6249 -0.7275 -3.5945
 1024MOL0     H35133   1.678   1.202   2.033  4.3680 -1.6221 -1.3192
 1024MOL0     H35134   1.800   1.069   2.223  0.7274 -1.9784  2.8752
 1024MOL0     H35135   1.904   1.135   2.092 -0.5044 -0.0585  0.3690
 1024MOL0     H35136   1.983   0.904   2.258  0.7192 -0.3714 -1.7074
 1024MOL0     H35137   2.052   1.073   2.270 -1.7697  1.7621  2.0214
 1024MOL0     H35138   2.124   1.077   2.052  1.1353 -1.4137  0.2466
 1024MOL0     H35139   2.068   0.908   2.024  3.3575 -0.9850 -2.1491
 1024MOL0     H35140   2.214   0.843   2.216 -2.0981 -0.5372 -1.5138
 1024MOL0     H35141   2.292   0.869   2.062  0.6122 -0.7411  0.6587
 1024MOL0     H35142   2.277   1.077   2.283 -1.7883 -0.9621 -0.3425
 1024MOL0     H35143   2.360   1.096   2.123  1.8925 -1.4344 -0.9229
 1024MOL0     H35144   2.403   0.881   2.333 -1.3916  3.4616  2.5930
 1024MOL0     H35145   2.479   1.032   2.356  1.2044  0.1710  1.1408
 1024MOL0     H35146   2.516   0.855   2.115 -2.6919 -0.7740  1.2483
 1024MOL0     H35147   2.638   0.984   2.173  0.1590  2.2237  4.6680
 1024MOL0     H35148   2.747   0.789   2.217 -1.1812 -0.6881 -2.5616
 1024MOL0     H35149   2.602   0.718   2.272 -1.4755  0.8816 -2.4490
 1024MOL0     H35150   1.699   0.772   1.945  3.8734  1.7764  0.7664
 1024MOL0     H35151   1.448   0.792   1.845 -2.0934  1.2805 -0.2686
 1024MOL0     H35152   1.072   0.952   1.822  0.2890 -1.8269 -0.8381
 1024MOL0     H35153   0.841   0.988   1.763 -1.8658 -0.4241 -2.2334
 1024MOL0     H35154   1.169   0.974   0.983 -0.1335  0.0060  0.9421
 1024MOL0     H35155   1.342   0.903   1.120 -0.8184  1.4432 -1.3075
 1024MOL0     H35156   1.354   0.606   1.509  0.7616 -1.6320  1.4001
 1024MOL0     H35157   1.469   0.482   1.690  1.2222 -1.1073  0.1186
 1024MOL0     H35158   1.636   0.362   1.794 -1.1883 -1.3943  0.2037
 1024MOL0     H35159   1.765   0.398   1.899 -2.8051 -2.3623 -0.7136
 1024MOL0     H35160   1.782   0.372   1.597  0.6202 -0.1284  0.1928
 1024MOL0     H35161   1.922   0.380   1.704 -0.8352  2.1654 -0.0287
 1024MOL0     H35162   1.855   0.160   1.608 -1.3849 -0.2257 -1.0865
 1024MOL0     H35163   1.698   0.164   1.681  0.1242  1.2342 -1.0420
 1024MOL0     H35164   1.777   0.131   1.903  0.5221 -0.1718 -0.0460
 1024MOL0     H35165   1.863   0.011   1.809 -0.7764 -0.4377  0.5963
 1024MOL0     H35166   2.180   0.258   1.939 -0.3480  2.5469 -0.0539
 1024MOL0     H35167   1.770   0.791   1.699 -0.0821  0.1055  0.3523
 1024MOL0     H35168   1.662   0.908   1.518  5.0778 -3.4714 -1.7324
  11.34478  11.34478  11.34478
